t=45000.0 ps
400
    1NA      NA    1   6.129   3.835   3.115 -0.2547  0.0147 -0.4690
    2CL      CL    2   1.980   5.132   3.847  0.1343 -0.0458 -0.1960
    3NA      NA    3   2.044   6.271   2.948 -0.1951 -0.4231  0.0666
    4CL      CL    4   3.009   3.611   4.630 -0.0227  0.2824 -0.2450
    5NA      NA    5   3.701   0.675   3.752  0.5047 -0.0038  0.2604
    6CL      CL    6   5.950   6.079   5.946  0.2249 -0.3968 -0.0045
    7NA      NA    7   4.091   3.258   5.336  0.0349 -0.2340 -0.1032
    8CL      CL    8   5.892   0.357   1.446 -0.1632  0.0780 -0.0809
    9NA      NA    9   3.361   5.701   4.151 -0.1617 -0.1342  0.4080
   10CL      CL   10   2.627   4.158   5.506  0.0057  0.0522 -0.1892
   11NA      NA   11   1.090   0.691   6.162  0.3539 -0.1208  0.0378
   12CL      CL   12   3.895   4.785   6.309  0.2547  0.2234  0.0603
   13NA      NA   13   0.470   0.165   4.099  0.2660  0.1739 -0.2810
   14CL      CL   14   1.967   4.576   4.450 -0.0675 -0.2142 -0.0701
   15NA      NA   15   0.596   5.284   1.617  0.1494 -0.0245 -0.2316
   16CL      CL   16   4.801   4.634   0.854  0.1502  0.1575 -0.1052
   17NA      NA   17   0.385   3.484   5.653  0.4561 -0.4566 -0.1722
   18CL      CL   18   5.300   4.441   5.281  0.1504  0.0276 -0.0939
   19NA      NA   19   3.772   0.224   3.359 -0.0851 -0.0959 -0.1329
   20CL      CL   20   4.294   3.941   0.062  0.1069 -0.2961 -0.1128
   21NA      NA   21   3.997   4.409   6.234 -0.1400  0.3742 -0.1509
   22CL      CL   22   0.944   4.816   2.118  0.1586 -0.0491  0.2436
   23NA      NA   23   3.927   2.567   3.966 -0.0046  0.2556 -0.2683
   24CL      CL   24   5.977   4.181   3.156 -0.0966 -0.0057 -0.0142
   25NA      NA   25   1.780   0.649   1.776  0.1559 -0.0974 -0.2424
   26CL      CL   26   0.426   4.749   0.784  0.0898 -0.0299 -0.0940
   27NA      NA   27   4.100   2.265   6.313 -0.1538  0.1960  0.1948
   28CL      CL   28   4.533   0.628   4.101 -0.1341 -0.0941  0.1815
   29NA      NA   29   1.333   2.367   0.180 -0.0474  0.2937 -0.3368
   30CL      CL   30   3.289   6.070   0.357 -0.0503 -0.2469  0.0051
   31NA      NA   31   4.755   3.828   5.201 -0.0721 -0.3175  0.2469
   32CL      CL   32   3.410   0.162   3.721 -0.3386 -0.0037  0.0818
   33NA      NA   33   1.683   4.682   3.880  0.1906  0.0491 -0.0433
   34CL      CL   34   0.073   2.590   6.023 -0.0126  0.4441  0.1852
   35NA      NA   35   0.069   4.230   1.931 -0.2654  0.0274  0.1044
   36CL      CL   36   3.465   3.750   2.773 -0.0149  0.2215 -0.0977
   37NA      NA   37   6.275   3.781   2.149  0.0842  0.1127  0.1272
   38CL      CL   38   2.713   2.155   5.054 -0.0523  0.1652  0.3434
   39NA      NA   39   3.932   5.140   0.360  0.0329 -0.1064 -0.0067
   40CL      CL   40   3.787   0.675   0.588  0.0671  0.1715 -0.0621
   41NA      NA   41   4.125   1.782   3.380 -0.2756 -0.0161 -0.0389
   42CL      CL   42   4.054   4.002   0.873 -0.1905  0.1938 -0.0240
   43NA      NA   43   1.729   5.202   4.538 -0.0842  0.0764 -0.1920
   44CL      CL   44   3.969   4.030   4.449  0.2166  0.4206  0.3985
   45NA      NA   45   0.175   0.531   3.456 -0.0668 -0.2303 -0.0236
   46CL      CL   46   5.593   4.188   2.097  0.0490 -0.0822  0.2111
   47NA      NA   47   5.408   0.694   4.269  0.0012 -0.2249 -0.1193
   48CL      CL   48   3.478   1.074   0.482 -0.3259 -0.2490  0.2620
   49NA      NA   49   0.786   2.533   4.711 -0.0211 -0.1894  0.0405
   50CL      CL   50   3.763   1.383   3.462 -0.3057 -0.0430  0.0315
   51NA      NA   51   3.153   0.585   1.414  0.1865 -0.0668 -0.2051
   52CL      CL   52   2.454   4.464   6.053  0.1801  0.1255 -0.3243
   53NA      NA   53   0.461   4.983   1.135 -0.0640 -0.1759 -0.2806
   54CL      CL   54   3.447   4.793   5.331  0.1256  0.0572 -0.1090
   55NA      NA   55   1.412   2.980   3.470  0.1592 -0.1745 -0.0902
   56CL      CL   56   2.879   4.021   6.109 -0.0322  0.1670  0.0883
   57NA      NA   57   3.496   3.385   1.616  0.3003 -0.1329  0.0950
   58CL      CL   58   3.041   0.226   5.886 -0.2676 -0.2952 -0.1388
   59NA      NA   59   3.096   4.986   3.188 -0.1900 -0.1327  0.1484
   60CL      CL   60   2.591   5.281   6.014 -0.2881 -0.0432  0.0088
   61NA      NA   61   1.948   2.605   3.104  0.1626 -0.2977  0.3396
   62CL      CL   62   0.037   5.396   2.456  0.0523 -0.0282  0.0938
   63NA      NA   63   4.536   0.175   5.579 -0.1944  0.1023 -0.2732
   64CL      CL   64   4.082   0.460   1.155  0.0139  0.1254  0.1667
   65NA      NA   65   2.350   5.080   6.026 -0.0923 -0.1971 -0.1676
   66CL      CL   66   5.510   4.242   0.220  0.0097  0.2917  0.1533
   67NA      NA   67   2.469   1.857   4.901  0.2304 -0.1234 -0.0527
   68CL      CL   68   3.345   6.179   3.170 -0.3748  0.1333  0.1877
   69NA      NA   69   5.553   1.568   4.952 -0.2266  0.0335 -0.0342
   70CL      CL   70   4.919   3.902   1.744 -0.2264  0.0254  0.4400
   71NA      NA   71   2.359   2.315   4.268  0.1450  0.3077 -0.1593
   72CL      CL   72   5.219   3.402   5.246 -0.2476  0.3564  0.0163
   73NA      NA   73   3.729   3.892   2.981  0.0513 -0.1259  0.0638
   74CL      CL   74   3.551   3.452   5.110 -0.4056 -0.4736  0.1207
   75NA      NA   75   0.301   2.762   3.061  0.0237 -0.2375  0.0010
   76CL      CL   76   2.364   1.533   4.864  0.0194 -0.4742  0.0213
   77NA      NA   77   3.936   1.111   3.534  0.1082 -0.1790  0.0767
   78CL      CL   78   3.399   0.600   3.458  0.0945 -0.3381  0.1186
   79NA      NA   79   3.119   4.917   4.276  0.2164  0.1122 -0.0620
   80CL      CL   80   4.008   6.185   2.842  0.2115 -0.1157  0.2834
   81NA      NA   81   6.234   2.873   5.511 -0.1680  0.1696 -0.2133
   82CL      CL   82   0.100   5.035   1.269 -0.1075  0.0920  0.0664
   83NA      NA   83   3.974   1.289   0.284 -0.3400 -0.2190  0.1644
   84CL      CL   84   4.732   0.153   5.921 -0.0310 -0.2137 -0.0616
   85NA      NA   85   3.309   4.412   3.565 -0.0974  0.0177  0.1629
   86CL      CL   86   2.927   2.456   3.580 -0.1695 -0.1487 -0.1297
   87NA      NA   87   2.325   1.040   4.727  0.2269 -0.0737 -0.0245
   88CL      CL   88   3.030   3.932   3.626 -0.0231 -0.0348 -0.0228
   89NA      NA   89   2.989   4.148   3.342 -0.0954 -0.1926 -0.0244
   90CL      CL   90   5.686   1.953   5.068  0.2195 -0.0893 -0.1626
   91NA      NA   91   6.041   4.500   2.944 -0.2033 -0.0090 -0.0975
   92CL      CL   92   3.141   1.130   0.743 -0.0977 -0.0299 -0.0536
   93NA      NA   93   0.244   2.358   5.736  0.1419  0.2646  0.1703
   94CL      CL   94   0.593   2.499   4.997  0.1444 -0.2739  0.0856
   95NA      NA   95   4.974   5.124   6.053  0.1030  0.0341 -0.0801
   96CL      CL   96   4.690   5.670   5.868 -0.0032  0.2214 -0.1262
   97NA      NA   97   6.072   0.334   3.646  0.2567 -0.2065  0.0644
   98CL      CL   98   3.111   4.842   3.623  0.1288 -0.2386  0.2163
   99NA      NA   99   2.097   1.685   4.509  0.0690  0.1779 -0.2887
  100CL      CL  100   5.580   2.236   6.225  0.1375  0.0072 -0.2250
  101NA      NA  101   0.891   2.552   5.966  0.0310 -0.0978  0.0257
  102CL      CL  102   1.911   5.145   4.867 -0.0592 -0.3368  0.3347
  103NA      NA  103   2.029   5.545   5.430 -0.1374  0.0682 -0.0561
  104CL      CL  104   2.048   2.217   2.867 -0.1057 -0.3982 -0.0958
  105NA      NA  105   5.664   3.020   4.738 -0.1874 -0.2456  0.1066
  106CL      CL  106   4.309   2.050   3.199 -0.0181 -0.2346 -0.1974
  107NA      NA  107   0.289   4.190   5.512  0.2683 -0.2222 -0.1343
  108CL      CL  108   0.859   5.655   1.524  0.1859 -0.0301  0.0617
  109NA      NA  109   0.772   5.820   0.458 -0.1377 -0.0156  0.3014
  110CL      CL  110   3.010   3.188   2.617 -0.0836 -0.2476  0.2510
  111NA      NA  111   0.408   5.110   0.483 -0.0911  0.1693  0.4552
  112CL      CL  112   3.389   5.484   1.363 -0.0758  0.0211  0.0911
  113NA      NA  113   4.198   0.826   4.038 -0.3872 -0.2076 -0.2631
  114CL      CL  114   5.551   4.186   0.887 -0.2004 -0.0896  0.2597
  115NA      NA  115   4.842   0.699   3.881 -0.2421  0.0348 -0.0469
  116CL      CL  116   4.254   5.229   0.142 -0.0497 -0.0256  0.0491
  117NA      NA  117   2.385   2.130   3.092  0.2991 -0.0157 -0.0373
  118CL      CL  118   2.601   4.088   4.291  0.1976 -0.1893  0.0220
  119NA      NA  119   5.705   4.412   1.886  0.2701  0.0367 -0.0158
  120CL      CL  120   6.244   2.057   5.703  0.0736  0.2968 -0.1998
  121NA      NA  121   0.686   0.452   1.790 -0.1609  0.1375 -0.1045
  122CL      CL  122   3.311   5.405   4.352 -0.2024  0.0226 -0.1225
  123NA      NA  123   4.497   0.401   6.128  0.2973  0.1311 -0.0191
  124CL      CL  124   2.463   3.430   0.101  0.0686  0.0721 -0.0156
  125NA      NA  125   4.486   4.849   0.018  0.0890 -0.1859  0.1382
  126CL      CL  126   2.136   0.355   4.913 -0.0152 -0.2169  0.0156
  127NA      NA  127   2.044   4.262   4.653 -0.0004  0.2232 -0.1533
  128CL      CL  128   1.555   2.571   3.445  0.2053 -0.0523 -0.0102
  129NA      NA  129   0.911   3.708   1.336  0.0534  0.2207  0.2196
  130CL      CL  130   5.440   5.226   5.097 -0.1783  0.0233 -0.3163
  131NA      NA  131   4.079   4.215   0.317  0.0841  0.1605  0.0481
  132CL      CL  132   0.850   5.086   1.498 -0.1180  0.1608 -0.1676
  133NA      NA  133   5.368   0.957   3.897  0.0549  0.0458  0.1007
  134CL      CL  134   1.374   0.141   2.138  0.1833 -0.0098  0.1815
  135NA      NA  135   3.308   0.227   3.382  0.2298 -0.3798 -0.3123
  136CL      CL  136   3.154   1.622   2.148 -0.1878 -0.2729 -0.0670
  137NA      NA  137   4.816   6.131   5.544 -0.0973  0.4156  0.0660
  138CL      CL  138   4.556   4.623   0.259 -0.0449  0.3366  0.2311
  139NA      NA  139   5.822   4.396   6.159 -0.0365  0.2365 -0.2022
  140CL      CL  140   3.295   3.149   5.498 -0.0384 -0.2118 -0.0125
  141NA      NA  141   2.704   3.082   2.486  0.1094 -0.1109 -0.0664
  142CL      CL  142   2.882   0.211   0.198 -0.2390 -0.1178 -0.2491
  143NA      NA  143   6.271   0.366   0.600  0.0334  0.1660  0.3112
  144CL      CL  144   2.576   2.801   2.916  0.1415  0.0947 -0.1894
  145NA      NA  145   4.946   5.776   4.380 -0.2416  0.1327 -0.0284
  146CL      CL  146   0.620   0.219   2.034  0.1775 -0.1472 -0.1978
  147NA      NA  147   3.160   0.718   0.688  0.0165 -0.2068  0.1806
  148CL      CL  148   0.973   2.247   4.797 -0.1978 -0.0345 -0.0048
  149NA      NA  149   4.616   1.365   0.553 -0.1357  0.0753  0.0678
  150CL      CL  150   3.955   0.080   4.358 -0.0591  0.1693 -0.0102
  151NA      NA  151   2.833   3.880   4.005  0.4936 -0.0460 -0.0666
  152CL      CL  152   2.633   5.984   0.534 -0.0006 -0.0514  0.0647
  153NA      NA  153   2.022   2.990   1.988 -0.3021 -0.2258 -0.1471
  154CL      CL  154   2.988   5.853   3.279  0.4283  0.3702 -0.3682
  155NA      NA  155   3.631   4.852   5.047 -0.0477  0.0214  0.0974
  156CL      CL  156   6.253   2.415   5.160 -0.1290  0.0681  0.3698
  157NA      NA  157   3.736   2.836   5.557 -0.2887  0.1970  0.0933
  158CL      CL  158   4.821   5.228   5.190  0.0360  0.1503 -0.1060
  159NA      NA  159   0.212   4.929   3.125 -0.2666 -0.0970  0.2667
  160CL      CL  160   5.820   5.010   2.594  0.1893 -0.1418  0.2001
  161NA      NA  161   2.537   5.005   5.583  0.0728  0.0149 -0.2531
  162CL      CL  162   4.357   1.095   3.372  0.1378  0.0506  0.1335
  163NA      NA  163   1.414   2.952   1.996 -0.1869 -0.0542 -0.0996
  164CL      CL  164   6.280   2.703   2.995  0.0962 -0.0856  0.2615
  165NA      NA  165   2.738   2.115   4.547 -0.0659 -0.0535 -0.1316
  166CL      CL  166   0.201   4.163   1.545  0.1587  0.3685 -0.2830
  167NA      NA  167   4.815   3.910   6.128 -0.2699  0.0186 -0.0328
  168CL      CL  168   1.474   5.536   2.364 -0.1282 -0.1048  0.1997
  169NA      NA  169   4.345   0.696   3.397  0.2971 -0.0779  0.2604
  170CL      CL  170   2.172   0.345   3.015  0.0047 -0.0976  0.0206
  171NA      NA  171   4.862   4.751   0.105  0.1711 -0.2244  0.0441
  172CL      CL  172   0.323   3.869   2.044 -0.0183  0.0829  0.0015
  173NA      NA  173   3.934   0.270   0.797  0.1668  0.1788 -0.2950
  174CL      CL  174   2.369   1.238   4.465  0.0863  0.0518  0.1243
  175NA      NA  175   2.333   1.423   5.229 -0.4324 -0.1081 -0.1644
  176CL      CL  176   0.223   2.499   4.483  0.0932  0.0762 -0.2984
  177NA      NA  177   0.209   4.300   2.468  0.0657  0.0804  0.1646
  178CL      CL  178   4.473   0.112   0.133  0.2848 -0.1563 -0.0626
  179NA      NA  179   3.259   5.318   4.881  0.3812  0.0704  0.1058
  180CL      CL  180   1.662   6.163   2.757 -0.1210 -0.0962 -0.0350
  181NA      NA  181   0.605   4.497   0.327  0.0900 -0.1966  0.4585
  182CL      CL  182   4.298   1.048   3.781  0.0804 -0.0726  0.1232
  183NA      NA  183   2.783   3.357   6.111 -0.1311  0.0772  0.3544
  184CL      CL  184   2.397   2.119   4.652  0.0317  0.2460  0.1717
  185NA      NA  185   3.246   5.929   1.996 -0.0336  0.1638  0.2948
  186CL      CL  186   3.353   4.947   0.377 -0.2501  0.1255  0.2259
  187NA      NA  187   5.623   2.443   0.232 -0.0244 -0.0008  0.2371
  188CL      CL  188   3.682   3.475   2.557 -0.1316  0.0273 -0.0644
  189NA      NA  189   0.430   4.438   0.961  0.0710 -0.0551  0.0142
  190CL      CL  190   3.702   1.315   1.654  0.0471 -0.0877  0.1054
  191NA      NA  191   0.363   2.825   5.282 -0.3107 -0.1730  0.1509
  192CL      CL  192   2.557   5.379   5.441  0.0925  0.2185 -0.0452
  193NA      NA  193   2.442   4.137   5.809 -0.0778 -0.2747 -0.1219
  194CL      CL  194   3.020   5.909   2.506  0.1253 -0.1795 -0.1390
  195NA      NA  195   0.712   4.541   1.877 -0.2073 -0.1844 -0.1078
  196CL      CL  196   1.990   2.601   2.162 -0.1561  0.1948 -0.0391
  197NA      NA  197   3.603   5.550   1.054 -0.1385 -0.0185  0.3148
  198CL      CL  198   5.371   1.330   3.747  0.0649  0.1003 -0.2838
  199NA      NA  199   5.628   0.473   1.280 -0.2049 -0.2654  0.2180
  200CL      CL  200   5.780   0.512   3.785  0.0548  0.2134  0.0542
  201NA      NA  201   5.246   3.744   2.084  0.1680  0.2277  0.0644
  202CL      CL  202   0.028   0.392   3.845  0.2198  0.0208  0.1760
  203NA      NA  203   4.827   5.610   6.225  0.0697  0.2653  0.1343
  204CL      CL  204   5.359   0.038   5.234 -0.0592  0.0469  0.0136
  205NA      NA  205   2.263   4.353   4.103  0.0688  0.1512  0.0420
  206CL      CL  206   5.086   3.908   5.407  0.1100  0.0782 -0.0295
  207NA      NA  207   6.016   2.455   4.891  0.0715 -0.0929 -0.0477
  208CL      CL  208   5.877   0.747   2.855  0.0581 -0.2403  0.2302
  209NA      NA  209   4.734   2.487   1.098  0.1032 -0.2578 -0.1492
  210CL      CL  210   5.013   5.550   2.638  0.2843 -0.0851  0.2235
  211NA      NA  211   5.718   0.236   5.332 -0.2224 -0.0461  0.0664
  212CL      CL  212   5.043   0.870   3.603 -0.2298  0.3464 -0.1389
  213NA      NA  213   2.364   3.447   0.694  0.1384 -0.0992 -0.0459
  214CL      CL  214   2.866   3.537   1.675  0.0752 -0.1758 -0.1411
  215NA      NA  215   1.619   5.687   2.693 -0.1398 -0.0493 -0.0570
  216CL      CL  216   4.766   0.390   5.374  0.0775 -0.1209 -0.1280
  217NA      NA  217   5.021   4.037   2.100  0.0549 -0.1542  0.0824
  218CL      CL  218   3.337   4.475   3.223 -0.0141 -0.2176  0.1888
  219NA      NA  219   5.140   5.159   4.810 -0.3413  0.0691 -0.0107
  220CL      CL  220   3.966   0.451   2.965 -0.0319 -0.2270 -0.1526
  221NA      NA  221   4.634   6.134   6.045 -0.2713  0.2397  0.1097
  222CL      CL  222   4.302   6.233   5.419 -0.1250 -0.0853 -0.0484
  223NA      NA  223   5.190   4.019   0.293 -0.0338  0.2320 -0.1586
  224CL      CL  224   0.852   5.253   0.503 -0.3543 -0.2615 -0.0134
  225NA      NA  225   5.956   2.326   5.312  0.2057 -0.2935  0.1677
  226CL      CL  226   2.558   2.746   4.237  0.0424  0.0989  0.4375
  227NA      NA  227   3.351   3.378   2.708  0.1361  0.0285 -0.0105
  228CL      CL  228   2.047   3.392   0.811 -0.0519 -0.3365 -0.2558
  229NA      NA  229   3.139   5.837   2.848 -0.0555 -0.2811  0.0281
  230CL      CL  230   2.865   0.778   1.234  0.0276  0.0619  0.0417
  231NA      NA  231   5.217   4.566   1.272  0.0411  0.0642 -0.1910
  232CL      CL  232   3.614   5.377   0.651  0.0616 -0.1603 -0.2101
  233NA      NA  233   5.906   3.977   0.539 -0.2890 -0.0089 -0.1175
  234CL      CL  234   2.734   3.698   0.747 -0.0566  0.1119 -0.3906
  235NA      NA  235   3.414   5.792   3.240  0.2101  0.1439  0.0621
  236CL      CL  236   0.260   3.065   5.637 -0.0875  0.1198  0.0160
  237NA      NA  237   4.309   3.564   0.168 -0.0257  0.0728  0.1653
  238CL      CL  238   4.959   5.956   6.041 -0.2971 -0.1822 -0.0104
  239NA      NA  239   4.275   4.912   0.380  0.2144  0.4590  0.0498
  240CL      CL  240   5.852   2.807   5.374  0.4080 -0.3706 -0.0007
  241NA      NA  241   1.000   2.714   5.122 -0.1221  0.4203 -0.2455
  242CL      CL  242   2.029   4.450   3.688  0.2071  0.1065  0.2441
  243NA      NA  243   2.576   3.123   3.135 -0.0016  0.0931 -0.1423
  244CL      CL  244   0.566   1.035   0.830 -0.0150  0.0717 -0.1165
  245NA      NA  245   0.502   4.127   1.904 -0.0629 -0.0501  0.1693
  246CL      CL  246   1.657   3.027   2.220 -0.1319  0.2499  0.4282
  247NA      NA  247   2.072   3.409   0.003 -0.3193 -0.0378  0.1719
  248CL      CL  248   4.014   3.017   5.609 -0.2019 -0.0391  0.1146
  249NA      NA  249   0.899   4.258   0.850  0.0973 -0.3038  0.3406
  250CL      CL  250   0.404   3.834   5.364  0.0288 -0.1192  0.0499
  251NA      NA  251   0.290   2.351   3.274  0.1227  0.0541 -0.0948
  252CL      CL  252   0.240   4.798   0.246 -0.1645  0.1864 -0.0525
  253NA      NA  253   1.553   1.709   0.131 -0.0860 -0.0443  0.0606
  254CL      CL  254   4.250   0.256   5.858  0.0717  0.0446 -0.0178
  255NA      NA  255   5.919   0.974   3.152  0.1755  0.0306 -0.2930
  256CL      CL  256   5.583   1.005   4.151 -0.3829 -0.1882 -0.2559
  257NA      NA  257   3.260   1.282   2.326 -0.0998  0.4922  0.1455
  258CL      CL  258   4.550   3.521   5.223 -0.0152  0.0084 -0.1150
  259NA      NA  259   2.793   4.345   5.842  0.3170 -0.2265 -0.3519
  260CL      CL  260   5.094   4.291   0.069  0.1110  0.0702  0.0343
  261NA      NA  261   3.394   5.441   0.398 -0.0268 -0.1147  0.0701
  262CL      CL  262   0.390   2.567   5.504 -0.1322  0.2147  0.2506
  263NA      NA  263   0.279   1.211   3.044 -0.3162  0.0459 -0.0460
  264CL      CL  264   0.020   4.094   2.323  0.1211 -0.0602 -0.0133
  265NA      NA  265   3.134   4.710   0.245  0.3266  0.1620 -0.0894
  266CL      CL  266   3.656   4.998   1.056 -0.1390 -0.3185 -0.3839
  267NA      NA  267   3.324   5.935   0.019  0.4114 -0.2234 -0.2233
  268CL      CL  268   0.533   1.451   3.027  0.0521  0.1210  0.0085
  269NA      NA  269   5.989   4.069   1.260 -0.1880 -0.0750 -0.1189
  270CL      CL  270   5.360   5.590   4.424 -0.1017 -0.0358  0.0893
  271NA      NA  271   5.240   4.023   0.963 -0.1307 -0.0017 -0.0661
  272CL      CL  272   1.242   0.281   0.707  0.0825  0.2723 -0.0280
  273NA      NA  273   5.378   4.686   5.603  0.0810 -0.1533 -0.1714
  274CL      CL  274   0.450   0.005   0.174 -0.1886  0.0378 -0.1422
  275NA      NA  275   6.144   4.940   2.816 -0.1337  0.0171 -0.2370
  276CL      CL  276   3.164   6.199   1.842 -0.0309 -0.0178 -0.1670
  277NA      NA  277   5.718   5.743   4.518  0.0472  0.0531 -0.0329
  278CL      CL  278   3.489   0.840   1.313 -0.0677  0.0886 -0.1110
  279NA      NA  279   2.182   2.630   2.494  0.1725  0.0720 -0.1543
  280CL      CL  280   5.032   5.120   0.178 -0.2857 -0.0228 -0.0714
  281NA      NA  281   3.728   4.799   3.395 -0.3576  0.0418  0.1866
  282CL      CL  282   5.836   4.747   0.198  0.2049 -0.0712 -0.1470
  283NA      NA  283   3.108   4.794   5.472  0.0311 -0.1065  0.1540
  284CL      CL  284   6.292   4.721   3.035  0.0959 -0.0195 -0.2173
  285NA      NA  285   2.892   6.111   0.395  0.2096  0.1454 -0.1900
  286CL      CL  286   4.664   3.079   4.838 -0.1592  0.0914  0.3824
  287NA      NA  287   3.920   0.809   1.245  0.3002  0.0357 -0.0857
  288CL      CL  288   0.445   2.467   2.903 -0.1087  0.0359  0.1857
  289NA      NA  289   1.417   5.030   2.787  0.0843  0.1710 -0.2397
  290CL      CL  290   0.996   2.761   6.229  0.1922 -0.4007  0.1282
  291NA      NA  291   5.481   4.607   0.044 -0.3350 -0.1274  0.3387
  292CL      CL  292   0.698   4.260   2.183 -0.0081 -0.0298  0.2157
  293NA      NA  293   3.355   1.799   1.451 -0.2051  0.1158  0.1157
  294CL      CL  294   4.580   5.178   6.124 -0.1651  0.3370  0.1313
  295NA      NA  295   4.216   1.620   1.158 -0.2955 -0.1945  0.1445
  296CL      CL  296   0.276   5.577   5.820  0.0453 -0.0709 -0.0474
  297NA      NA  297   3.122   1.876   2.456  0.2969 -0.3434  0.1904
  298CL      CL  298   2.658   4.778   5.905 -0.0767 -0.1421 -0.0815
  299NA      NA  299   4.364   4.170   0.958  0.3264  0.0686  0.0973
  300CL      CL  300   6.156   1.135   2.848 -0.1456 -0.0054 -0.5124
  301NA      NA  301   2.955   2.124   5.506 -0.2592  0.2995  0.0811
  302CL      CL  302   5.056   4.204   0.708  0.0630 -0.0651  0.1034
  303NA      NA  303   1.812   0.522   4.820 -0.0945 -0.1431  0.2779
  304CL      CL  304   0.380   4.812   2.746  0.3538  0.2773  0.1063
  305NA      NA  305   5.048   1.463   3.724 -0.2003 -0.0183 -0.0314
  306CL      CL  306   5.108   0.777   4.115 -0.0544 -0.1859  0.3077
  307NA      NA  307   5.216   0.039   5.931 -0.3336 -0.1397  0.1765
  308CL      CL  308   3.544   1.274   2.133 -0.1872 -0.1126 -0.1443
  309NA      NA  309   0.382   2.126   4.590 -0.0648  0.1278  0.2213
  310CL      CL  310   5.137   5.044   5.727  0.0147  0.2793  0.2083
  311NA      NA  311   3.857   0.914   1.939 -0.2813 -0.2681  0.1945
  312CL      CL  312   3.754   5.141   4.843  0.2593 -0.2751 -0.1200
  313NA      NA  313   1.402   3.400   2.284  0.0653  0.1126  0.3570
  314CL      CL  314   0.726   2.338   5.766  0.1225 -0.0518  0.2225
  315NA      NA  315   0.356   2.868   5.920 -0.0619 -0.3154  0.2737
  316CL      CL  316   3.679   4.435   3.467 -0.0208 -0.3987  0.0602
  317NA      NA  317   0.220   5.971   0.252 -0.1666 -0.0423 -0.0349
  318CL      CL  318   4.817   3.772   0.249 -0.1708  0.0271  0.3055
  319NA      NA  319   5.982   2.195   5.924  0.0100 -0.0974 -0.0588
  320CL      CL  320   3.954   0.448   3.580 -0.2683  0.0285  0.0023
  321NA      NA  321   2.766   3.625   1.313 -0.2516  0.0117  0.1744
  322CL      CL  322   3.124   1.486   1.398 -0.1352 -0.4033 -0.3057
  323NA      NA  323   6.194   0.723   0.994  0.0169 -0.2129  0.1817
  324CL      CL  324   1.990   1.590   5.326 -0.0189 -0.2836 -0.1431
  325NA      NA  325   3.690   6.302   2.897  0.1820 -0.1284  0.3443
  326CL      CL  326   0.547   4.368   0.662  0.3071 -0.2529 -0.1280
  327NA      NA  327   5.587   3.166   5.518  0.4647 -0.1981 -0.0388
  328CL      CL  328   5.718   1.233   3.119  0.1766  0.0805 -0.0974
  329NA      NA  329   1.518   0.244   2.494 -0.1130  0.1298  0.1073
  330CL      CL  330   4.375   4.589   0.806 -0.0477  0.1038  0.2613
  331NA      NA  331   2.284   6.236   0.665 -0.1759  0.1463 -0.0394
  332CL      CL  332   5.977   2.765   5.800  0.2227 -0.3495  0.0134
  333NA      NA  333   0.887   4.110   3.014  0.0606 -0.3566 -0.0394
  334CL      CL  334   1.950   5.523   2.886  0.1528 -0.2210  0.1532
  335NA      NA  335   3.672   1.528   1.952 -0.1582 -0.1622 -0.0701
  336CL      CL  336   2.920   2.499   4.742 -0.1665 -0.0313 -0.0427
  337NA      NA  337   5.500   1.186   3.452  0.2883 -0.0167  0.4083
  338CL      CL  338   1.205   4.294   1.099 -0.0135 -0.0402  0.1998
  339NA      NA  339   5.791   1.283   4.138 -0.1759 -0.1331 -0.0375
  340CL      CL  340   4.959   5.403   4.611 -0.1350  0.1688 -0.1977
  341NA      NA  341   5.325   4.908   0.530  0.1417 -0.0503 -0.0078
  342CL      CL  342   1.307   0.854   5.122  0.1846  0.4244  0.0401
  343NA      NA  343   2.837   2.787   4.510  0.0872  0.2390  0.1484
  344CL      CL  344   1.378   0.795   0.097 -0.0418  0.0444  0.2926
  345NA      NA  345   0.884   4.530   2.331 -0.3584  0.0609 -0.2433
  346CL      CL  346   2.989   5.300   4.627 -0.2353 -0.1035  0.1875
  347NA      NA  347   4.766   3.235   5.246 -0.0047  0.2036 -0.0397
  348CL      CL  348   1.049   4.286   0.274  0.1798 -0.0435 -0.0055
  349NA      NA  349   2.795   4.307   4.926  0.0052  0.0938  0.2454
  350CL      CL  350   1.363   2.014   0.083  0.0487 -0.0465  0.2138
  351NA      NA  351   1.230   5.297   2.075  0.1334  0.2313  0.0269
  352CL      CL  352   5.706   3.657   0.481 -0.2023  0.2172 -0.2430
  353NA      NA  353   3.472   5.118   0.768 -0.0178  0.3438 -0.1145
  354CL      CL  354   3.760   1.033   3.890  0.0190 -0.3249  0.0570
  355NA      NA  355   5.462   5.227   2.569  0.0321  0.2620 -0.4675
  356CL      CL  356   4.641   0.065   1.463 -0.0679  0.0483  0.4087
  357NA      NA  357   1.527   0.543   0.673 -0.0201  0.4100 -0.0554
  358CL      CL  358   3.359   3.201   1.376  0.4722 -0.0723  0.0307
  359NA      NA  359   4.053   3.302   2.440  0.1165  0.0265  0.1351
  360CL      CL  360   3.232   5.353   3.059 -0.0904 -0.0850  0.0860
  361NA      NA  361   3.432   1.103   0.951  0.0100  0.0051 -0.0758
  362CL      CL  362   2.462   4.237   4.781 -0.1608 -0.3555  0.1590
  363NA      NA  363   0.261   1.765   5.376  0.0350 -0.2041  0.0224
  364CL      CL  364   4.127   1.144   1.053  0.0801 -0.0338  0.1590
  365NA      NA  365   6.103   5.264   1.378 -0.1104  0.1030 -0.0406
  366CL      CL  366   4.708   4.716   6.104  0.2831  0.1814 -0.2814
  367NA      NA  367   5.532   0.520   2.712  0.1411  0.0371 -0.0808
  368CL      CL  368   1.176   3.173   2.423 -0.0809 -0.0608 -0.0204
  369NA      NA  369   4.528   5.276   5.704  0.1863  0.0413 -0.0661
  370CL      CL  370   1.387   4.806   4.506 -0.0446 -0.1196  0.1694
  371NA      NA  371   2.972   1.339   1.102  0.0787 -0.0232  0.0814
  372CL      CL  372   6.096   3.972   1.664 -0.1832  0.4968 -0.3175
  373NA      NA  373   4.622   4.385   0.606 -0.2051  0.0000 -0.0275
  374CL      CL  374   4.160   6.203   0.960  0.0244 -0.1882  0.0523
  375NA      NA  375   6.274   5.925   5.861 -0.0564  0.1001 -0.1301
  376CL      CL  376   0.391   5.642   0.121  0.0662  0.0910 -0.1716
  377NA      NA  377   5.350   3.698   5.259 -0.1448 -0.1106 -0.1116
  378CL      CL  378   4.434   1.393   0.152 -0.2292  0.0258  0.1140
  379NA      NA  379   3.984   0.348   5.656 -0.1233 -0.0967  0.0847
  380CL      CL  380   5.373   4.498   1.547 -0.2341 -0.0767  0.1604
  381NA      NA  381   2.375   0.580   3.261  0.1804  0.2469  0.0277
  382CL      CL  382   1.898   0.624   0.872  0.2544  0.1531 -0.1802
  383NA      NA  383   4.343   0.149   1.168  0.2581 -0.0596 -0.0646
  384CL      CL  384   2.798   4.715   5.568  0.0046  0.1272  0.1850
  385NA      NA  385   2.773   0.093   6.227  0.0171 -0.0733 -0.2089
  386CL      CL  386   5.070   2.235   1.047  0.1319  0.2506 -0.0023
  387NA      NA  387   3.719   1.380   3.915 -0.2632  0.1457  0.0405
  388CL      CL  388   1.285   2.601   0.506  0.0185  0.1484 -0.1132
  389NA      NA  389   3.406   3.376   4.684 -0.2329  0.0208  0.0319
  390CL      CL  390   6.109   2.952   5.011 -0.1395  0.1842  0.2010
  391NA      NA  391   4.251   0.225   4.528 -0.0055  0.1912  0.0110
  392CL      CL  392   2.365   3.215   2.436  0.1479  0.0462  0.3092
  393NA      NA  393   3.344   3.489   5.579 -0.0094 -0.0730  0.1407
  394CL      CL  394   4.076   1.615   0.802 -0.4833 -0.1928 -0.2250
  395NA      NA  395   5.131   5.175   5.319  0.0409  0.1354  0.0548
  396CL      CL  396   6.065   0.702   0.560 -0.1191 -0.4919 -0.2835
  397NA      NA  397   2.225   1.957   1.281  0.1993  0.0145 -0.1836
  398CL      CL  398   0.348   4.477   2.056 -0.2646 -0.0083 -0.2025
  399NA      NA  399   3.866   1.088   0.715  0.1248  0.5526  0.1365
  400CL      CL  400   0.892   4.876   2.598 -0.0212 -0.1550 -0.0756
6.3186 6.3186 6.3186 0.0000 0.0000 0.0000 0.0000 0.0000 0.0000
