[frag]
Q0
[frag_from]
SIAC 1

[moleculetype]
bond 1
[atoms]
1 * 1 SIAC * 1 0.0
2 * 1 SIAC * 2 0.0
[bonds]
1 2 1 0.5 1000

[rx]
Q0_to_Q1
[rx_reactants]
Q0 Q0
[rx_products]
bond
[rx_conditions]
r_max 1 2 0.7

[frag]
Q1
[frag_from]
bond 1 2

[moleculetype]
angle 1
[atoms]
1 * 1 SIAC * 1 0.0
2 * 1 SIAC * 2 0.0
3 * 1 SIAC * 3 0.0
[bonds]
1 2 1 0.5 1000
1 2 1 0.5 1000

