SIAC polymerization
 3445
    1SIAC   SI1    1   4.916   1.811   5.719  0.0570 -0.1652  0.1107
    2SIAC   SI1    2   2.392   6.434   1.891 -0.2667 -0.1814 -0.2214
    3SIAC   SI1    3   2.141   5.811   2.969  0.3098 -0.0248 -0.0869
    4SIAC   SI1    4   4.496   4.595   0.668  0.0213  0.0678  0.4010
    5SIAC   SI1    5   3.296   0.501   2.338 -0.0207 -0.0604  0.1782
    6SIAC   SI1    6   5.125   3.061   4.392 -0.0490 -0.2383  0.0805
    7SIAC   SI1    7   3.051   4.647   6.136  0.2706  0.1185 -0.1647
    8SIAC   SI1    8   6.420   6.820   1.688 -0.0094  0.0685 -0.1521
    9SIAC   SI1    9   6.416   5.714   0.607 -0.1021 -0.4129  0.3712
   10SIAC   SI1   10   1.506   2.638   0.458 -0.0892  0.0763  0.0929
   11SIAC   SI1   11   5.375   3.342   6.455  0.0842  0.2157 -0.0079
   12SIAC   SI1   12   4.045   3.760   2.776 -0.0191 -0.4902 -0.1478
   13SIAC   SI1   13   0.261   1.129   0.794  0.2155  0.2340 -0.0384
   14SIAC   SI1   14   1.587   5.738   1.274  0.0250  0.1188 -0.2812
   15SIAC   SI1   15   2.570   2.356   5.137  0.1365  0.0811  0.1477
   16SIAC   SI1   16   6.502   3.139   7.045  0.0358  0.0843 -0.1293
   17SIAC   SI1   17   0.212   5.318   7.137  0.0138  0.0068 -0.2135
   18SIAC   SI1   18   5.010   3.510   5.750  0.0635  0.3092  0.0849
   19SIAC   SI1   19   7.314   3.239   2.740  0.0480 -0.2288 -0.0301
   20SIAC   SI1   20   2.640   0.498   7.024 -0.0808 -0.0011 -0.0639
   21SIAC   SI1   21   2.982   2.440   5.796 -0.0350 -0.2481 -0.0515
   22SIAC   SI1   22   1.062   5.323   2.938 -0.0408 -0.0627 -0.0383
   23SIAC   SI1   23   3.796   4.327   6.463 -0.0155  0.2764  0.0968
   24SIAC   SI1   24   2.173   5.015   3.311  0.0787  0.0295  0.0140
   25SIAC   SI1   25   1.684   0.192   6.255 -0.3407  0.2788 -0.2469
   26SIAC   SI1   26   4.794   7.152   6.827 -0.3400  0.1575 -0.2655
   27SIAC   SI1   27   6.108   1.920   6.092  0.2698 -0.3680 -0.1421
   28SIAC   SI1   28   3.280   3.053   4.135 -0.5047  0.0496 -0.0640
   29SIAC   SI1   29   6.028   6.082   0.087 -0.1433 -0.1172 -0.0253
   30SIAC   SI1   30   5.650   4.204   6.453 -0.0472 -0.2221 -0.1883
   31SIAC   SI1   31   2.173   1.215   3.898 -0.1708 -0.0866  0.1776
   32SIAC   SI1   32   3.050   1.341   6.337 -0.0708  0.1584  0.2431
   33SIAC   SI1   33   6.306   1.885   2.402 -0.3272 -0.0065  0.0987
   34SIAC   SI1   34   0.934   5.452   0.295 -0.1531  0.0900 -0.1823
   35SIAC   SI1   35   3.143   5.422   4.920  0.4240 -0.1706  0.1130
   36SIAC   SI1   36   1.033   6.650   0.931 -0.1303  0.3286  0.4221
   37SIAC   SI1   37   5.537   3.623   1.827  0.0829 -0.4521  0.2032
   38SIAC   SI1   38   3.684   6.688   2.591  0.1235  0.3810 -0.2330
   39SIAC   SI1   39   5.129   5.951   3.970 -0.3413  0.1356 -0.1886
   40SIAC   SI1   40   4.255   5.182   5.737  0.0665  0.3440  0.0339
   41SIAC   SI1   41   3.953   3.609   0.221 -0.1270  0.3056 -0.1781
   42SIAC   SI1   42   6.118   4.498   5.650 -0.4771 -0.3658  0.0822
   43SIAC   SI1   43   0.514   0.740   0.145 -0.2594 -0.4770 -0.0457
   44SIAC   SI1   44   4.208   7.288   3.087  0.1046  0.2647 -0.3493
   45SIAC   SI1   45   7.100   0.015   1.492  0.3622  0.0281 -0.0989
   46SIAC   SI1   46   0.194   5.971   1.321  0.0237 -0.0252  0.1679
   47SIAC   SI1   47   5.557   5.913   0.313 -0.0693 -0.2681 -0.0086
   48SIAC   SI1   48   0.850   3.067   0.708 -0.3318  0.1075  0.2027
   49SIAC   SI1   49   6.495   6.359   5.611 -0.0966 -0.0328  0.1833
   50SIAC   SI1   50   5.502   3.779   6.834  0.1955  0.0716 -0.0452
   51SIAC   SI1   51   2.679   5.782   0.407 -0.2131  0.1513 -0.2835
   52SIAC   SI1   52   2.440   5.880   5.215  0.0823  0.0769  0.1269
   53SIAC   SI1   53   5.363   0.279   3.845 -0.4492 -0.3815 -0.1760
   54SIAC   SI1   54   2.834   6.067   1.765 -0.0810 -0.3991 -0.0004
   55SIAC   SI1   55   1.530   6.688   5.623  0.2438 -0.2697  0.3579
   56SIAC   SI1   56   0.283   4.984   2.543  0.0280 -0.2354  0.1163
   57SIAC   SI1   57   6.342   3.801   6.592 -0.2705 -0.2431  0.1270
   58SIAC   SI1   58   3.109   3.333   6.014  0.2431  0.2107 -0.2499
   59SIAC   SI1   59   5.205   3.567   1.525 -0.0880  0.0186  0.1176
   60SIAC   SI1   60   0.637   5.264   6.843  0.1080 -0.0186  0.0501
   61SIAC   SI1   61   4.690   3.134   3.093  0.2025 -0.1845 -0.0370
   62SIAC   SI1   62   0.278   5.497   4.890  0.1839  0.0434  0.0883
   63SIAC   SI1   63   7.283   5.784   6.957 -0.1017  0.2579  0.0591
   64SIAC   SI1   64   6.557   5.611   3.645 -0.0529 -0.1782 -0.0556
   65SIAC   SI1   65   5.592   6.105   2.986 -0.1472  0.0774 -0.0331
   66SIAC   SI1   66   1.212   1.712   0.155  0.3666  0.2199 -0.0732
   67SIAC   SI1   67   3.398   1.534   5.303 -0.0733  0.1924 -0.1579
   68SIAC   SI1   68   4.661   3.176   4.479  0.2848 -0.0201 -0.0258
   69SIAC   SI1   69   5.482   6.466   0.810 -0.1547  0.1206  0.0073
   70SIAC   SI1   70   6.833   6.030   3.796  0.2041 -0.0741 -0.3514
   71SIAC   SI1   71   2.421   3.844   1.030  0.1814  0.1108 -0.2982
   72SIAC   SI1   72   5.528   3.717   1.084 -0.2584 -0.4337  0.4109
   73SIAC   SI1   73   4.405   5.293   0.456  0.1630 -0.0697  0.1031
   74SIAC   SI1   74   4.146   2.491   4.438  0.3459 -0.1622  0.0795
   75SIAC   SI1   75   1.338   2.023   5.655  0.0344  0.0335  0.1034
   76SIAC   SI1   76   3.509   6.987   2.365 -0.1124 -0.1042  0.0411
   77SIAC   SI1   77   3.870   4.166   1.289 -0.1716 -0.1918  0.0623
   78SIAC   SI1   78   2.497   3.245   4.235  0.0407  0.0778  0.0282
   79SIAC   SI1   79   6.707   6.972   7.251  0.1035  0.0577  0.2279
   80SIAC   SI1   80   4.711   3.663   2.231  0.2010 -0.1135 -0.0033
   81SIAC   SI1   81   4.197   4.511   1.339 -0.3456  0.0574  0.0307
   82SIAC   SI1   82   6.022   3.551   6.848 -0.0151 -0.2443 -0.2633
   83SIAC   SI1   83   7.271   6.138   4.586 -0.4183  0.1624  0.0390
   84SIAC   SI1   84   7.050   5.119   6.081  0.1560  0.2427  0.0965
   85SIAC   SI1   85   5.729   0.069   5.281  0.0210  0.1984 -0.0628
   86SIAC   SI1   86   4.488   4.206   2.770 -0.6284 -0.0469  0.3642
   87SIAC   SI1   87   7.250   0.220   5.908 -0.2776 -0.1939 -0.1683
   88SIAC   SI1   88   0.571   3.283   1.154 -0.0142  0.0260 -0.3083
   89SIAC   SI1   89   0.777   2.110   1.902 -0.6191 -0.5591  0.2928
   90SIAC   SI1   90   4.004   5.545   0.555  0.0417  0.1927  0.2331
   91SIAC   SI1   91   1.449   1.264   5.267  0.1560 -0.2972 -0.0632
   92SIAC   SI1   92   2.730   1.088   2.041 -0.0790  0.5946 -0.1934
   93SIAC   SI1   93   1.576   4.997   0.434  0.0215 -0.0739  0.1940
   94SIAC   SI1   94   6.906   2.452   3.612  0.2329 -0.4890  0.2737
   95SIAC   SI1   95   0.439   4.159   6.270  0.1872 -0.0253  0.2665
   96SIAC   SI1   96   6.477   1.232   5.015  0.0755 -0.3398 -0.2893
   97SIAC   SI1   97   1.831   4.315   5.942 -0.3010 -0.0076 -0.3338
   98SIAC   SI1   98   1.860   1.036   5.205  0.2008 -0.0595 -0.2706
   99SIAC   SI1   99   4.705   1.655   4.018 -0.0349  0.3278  0.0638
  100SIAC   SI1  100   7.199   4.167   4.445 -0.5268  0.0553  0.0090
  101SIAC   SI1  101   6.908   5.048   0.887 -0.1401 -0.2950  0.3305
  102SIAC   SI1  102   2.332   2.583   7.169 -0.0892  0.0313  0.2004
  103SIAC   SI1  103   6.989   3.581   2.253 -0.1484  0.3486 -0.3525
  104SIAC   SI1  104   5.057   5.454   6.611  0.3266 -0.2365  0.1613
  105SIAC   SI1  105   2.389   2.056   1.727 -0.2725 -0.3113 -0.1860
  106SIAC   SI1  106   6.619   5.476   3.180 -0.0902  0.0989 -0.3246
  107SIAC   SI1  107   0.253   2.317   5.970  0.1144  0.1056 -0.1109
  108SIAC   SI1  108   5.516   3.212   4.356  0.2358 -0.1870 -0.0456
  109SIAC   SI1  109   1.218   5.267   6.579 -0.2793  0.2207 -0.0105
  110SIAC   SI1  110   6.824   3.378   3.079 -0.0164  0.4339  0.0670
  111SIAC   SI1  111   6.897   4.476   4.089 -0.1166  0.1108  0.1717
  112SIAC   SI1  112   2.566   2.787   5.147  0.3744  0.3077  0.0225
  113SIAC   SI1  113   2.305   2.892   4.337  0.3342 -0.2352 -0.2465
  114SIAC   SI1  114   4.577   1.877   1.453  0.0674  0.2207 -0.0556
  115SIAC   SI1  115   0.036   5.154   0.491  0.2048  0.0660  0.1302
  116SIAC   SI1  116   4.224   2.210   5.938  0.1261 -0.0295 -0.1674
  117SIAC   SI1  117   2.194   4.667   5.291 -0.0688  0.1193  0.4578
  118SIAC   SI1  118   2.668   6.952   5.714 -0.1952  0.0036 -0.2068
  119SIAC   SI1  119   7.039   4.205   2.682 -0.0902 -0.0083 -0.0760
  120SIAC   SI1  120   5.247   1.870   0.069 -0.0473  0.0704 -0.1721
  121SIAC   SI1  121   3.012   4.840   1.349 -0.4882  0.0244 -0.3065
  122SIAC   SI1  122   6.808   4.932   3.216  0.1997  0.0656 -0.1310
  123SIAC   SI1  123   2.440   4.341   1.704  0.3224 -0.0263 -0.2111
  124SIAC   SI1  124   5.370   3.246   1.307 -0.1860 -0.1625  0.0333
  125SIAC   SI1  125   6.710   4.856   2.436  0.0132  0.4658 -0.1028
  126SIAC   SI1  126   5.606   4.896   1.871 -0.1721  0.0735  0.0793
  127SIAC   SI1  127   3.150   4.461   6.914  0.0238 -0.1368 -0.0952
  128SIAC   SI1  128   5.600   3.355   0.888  0.0310  0.1314  0.0455
  129SIAC   SI1  129   6.995   6.982   5.359  0.6501 -0.1768  0.4270
  130SIAC   SI1  130   5.761   2.966   5.009  0.1216 -0.2196  0.2139
  131SIAC   SI1  131   4.574   5.852   5.048  0.0114 -0.6364 -0.1575
  132SIAC   SI1  132   5.733   3.120   1.470 -0.2222 -0.0065  0.0686
  133SIAC   SI1  133   4.737   5.701   6.506 -0.0752  0.2233 -0.3056
  134SIAC   SI1  134   1.285   0.603   1.172 -0.1212 -0.1315  0.1508
  135SIAC   SI1  135   5.704   2.960   6.638 -0.0067  0.1086  0.1109
  136SIAC   SI1  136   6.986   2.897   4.417  0.1613 -0.0144  0.2224
  137SIAC   SI1  137   4.478   5.622   1.440 -0.0369 -0.1239  0.1334
  138SIAC   SI1  138   4.651   2.397   3.122  0.0145 -0.3212 -0.3023
  139SIAC   SI1  139   1.818   2.242   2.039 -0.1706 -0.0951  0.3095
  140SIAC   SI1  140   2.668   7.166   3.778 -0.3552 -0.1076 -0.1249
  141SIAC   SI1  141   1.305   6.632   5.042 -0.0683 -0.0121  0.1510
  142SIAC   SI1  142   1.429   4.898   4.322  0.1563 -0.2050  0.3458
  143SIAC   SI1  143   4.281   3.369   5.697  0.2053  0.1206  0.0454
  144SIAC   SI1  144   6.883   0.106   4.513  0.4764 -0.3873 -0.0029
  145SIAC   SI1  145   6.284   4.554   6.670 -0.3234 -0.0525 -0.4105
  146SIAC   SI1  146   4.356   3.195   4.801 -0.1463  0.0008 -0.0559
  147SIAC   SI1  147   5.386   5.928   5.180  0.0584  0.2200  0.0884
  148SIAC   SI1  148   6.274   7.213   1.965  0.0248 -0.2436  0.2178
  149SIAC   SI1  149   0.427   2.284   3.463  0.2407  0.0384  0.0033
  150SIAC   SI1  150   3.195   0.194   7.154  0.0215  0.1114  0.0454
  151SIAC   SI1  151   2.861   4.245   0.598  0.0548 -0.0697 -0.2470
  152SIAC   SI1  152   4.019   6.933   6.763 -0.1065  0.2959 -0.2144
  153SIAC   SI1  153   1.207   2.167   7.143 -0.1383 -0.1999  0.0608
  154SIAC   SI1  154   6.428   1.068   4.121 -0.3489 -0.4198 -0.0151
  155SIAC   SI1  155   3.004   1.011   3.616 -0.1279 -0.1479 -0.2676
  156SIAC   SI1  156   6.431   4.293   3.006  0.0638 -0.1894 -0.2413
  157SIAC   SI1  157   2.623   4.019   3.638 -0.4568  0.0339 -0.0121
  158SIAC   SI1  158   1.546   0.465   0.329 -0.0689 -0.0687 -0.0846
  159SIAC   SI1  159   6.087   5.989   1.730 -0.0831 -0.1426  0.0433
  160SIAC   SI1  160   1.185   3.274   4.139 -0.1906  0.1652 -0.2224
  161SIAC   SI1  161   3.442   2.272   4.587  0.0351  0.0953 -0.1982
  162SIAC   SI1  162   2.994   0.097   5.787  0.2884  0.0338  0.0353
  163SIAC   SI1  163   6.952   0.525   4.603 -0.4650  0.1177 -0.0220
  164SIAC   SI1  164   6.865   3.091   5.726 -0.0134 -0.0925  0.0340
  165SIAC   SI1  165   0.981   0.027   6.423  0.1557 -0.1729  0.4722
  166SIAC   SI1  166   2.095   5.875   5.578  0.0121 -0.2114 -0.3799
  167SIAC   SI1  167   6.061   2.337   0.410 -0.1819 -0.0497 -0.1381
  168SIAC   SI1  168   0.694   2.021   3.280 -0.2752 -0.4458 -0.2845
  169SIAC   SI1  169   0.201   6.675   0.723  0.0326 -0.2080 -0.2531
  170SIAC   SI1  170   3.438   2.113   0.799  0.3803 -0.1279 -0.0208
  171SIAC   SI1  171   1.345   3.965   5.262  0.2566 -0.0567  0.1634
  172SIAC   SI1  172   3.202   7.009   5.907 -0.2567 -0.4577  0.0727
  173SIAC   SI1  173   3.127   3.307   1.673  0.2532  0.0408  0.0673
  174SIAC   SI1  174   6.278   3.656   5.583 -0.0557  0.2062 -0.2889
  175SIAC   SI1  175   1.173   1.486   2.743  0.1722 -0.2166  0.1210
  176SIAC   SI1  176   5.972   4.555   4.182  0.0105  0.3561 -0.3462
  177SIAC   SI1  177   3.931   4.270   3.583 -0.1897 -0.2748  0.3129
  178SIAC   SI1  178   6.262   5.061   0.002 -0.1112 -0.1358  0.0295
  179SIAC   SI1  179   0.669   3.346   3.212  0.0131 -0.0979 -0.2239
  180SIAC   SI1  180   3.202   0.657   6.587  0.4434 -0.3351 -0.0954
  181SIAC   SI1  181   7.234   5.086   5.685  0.1503 -0.2946 -0.3301
  182SIAC   SI1  182   2.406   2.955   0.722  0.0478  0.1276  0.2154
  183SIAC   SI1  183   1.664   4.678   4.011  0.0605 -0.0878 -0.2363
  184SIAC   SI1  184   1.106   3.352   2.464 -0.1256 -0.1666 -0.3307
  185SIAC   SI1  185   6.077   0.302   3.571 -0.0798 -0.0087 -0.2710
  186SIAC   SI1  186   6.090   7.230   6.634 -0.0026 -0.3485  0.0909
  187SIAC   SI1  187   5.280   6.019   1.348 -0.1960  0.1837 -0.2730
  188SIAC   SI1  188   6.198   2.295   0.033 -0.2054 -0.2351 -0.0385
  189SIAC   SI1  189   6.166   6.345   3.269 -0.1125 -0.0993  0.1006
  190SIAC   SI1  190   4.059   5.686   6.654 -0.2687 -0.2469 -0.0346
  191SIAC   SI1  191   6.880   1.622   1.732 -0.0283 -0.0880 -0.0720
  192SIAC   SI1  192   2.635   4.474   6.045  0.0827 -0.1632  0.0321
  193SIAC   SI1  193   3.560   6.181   5.726 -0.0577  0.2465  0.0013
  194SIAC   SI1  194   4.630   1.049   5.954  0.2632  0.0603  0.0109
  195SIAC   SI1  195   3.293   0.324   2.869  0.0977 -0.5323 -0.0783
  196SIAC   SI1  196   1.288   0.361   2.485 -0.1277  0.0220  0.3604
  197SIAC   SI1  197   5.234   6.901   1.113 -0.2795 -0.4287 -0.0149
  198SIAC   SI1  198   4.791   6.704   0.918 -0.0772  0.4113  0.0270
  199SIAC   SI1  199   5.626   4.299   2.140 -0.0624  0.2609  0.0692
  200SIAC   SI1  200   5.037   0.247   4.464  0.1996  0.0433  0.2057
  201SIAC   SI1  201   4.471   3.424   3.704 -0.0996  0.3109  0.1609
  202SIAC   SI1  202   2.004   2.903   6.925  0.0344 -0.0013  0.2183
  203SIAC   SI1  203   2.383   1.514   5.351 -0.2806  0.1212 -0.0303
  204SIAC   SI1  204   6.380   5.563   5.479 -0.0987 -0.0695  0.1878
  205SIAC   SI1  205   4.346   1.026   3.002  0.0183  0.1188 -0.1517
  206SIAC   SI1  206   2.153   0.704   3.393  0.0469  0.0621 -0.3892
  207SIAC   SI1  207   5.216   1.792   3.402  0.0778 -0.3484  0.0272
  208SIAC   SI1  208   4.331   6.895   1.724  0.1260 -0.0345  0.1859
  209SIAC   SI1  209   2.875   2.721   4.884 -0.3597  0.3746 -0.1627
  210SIAC   SI1  210   2.935   4.161   7.131 -0.0594 -0.2770 -0.0230
  211SIAC   SI1  211   5.756   4.078   3.130  0.1118  0.2877 -0.1638
  212SIAC   SI1  212   5.658   7.074   4.398  0.2576 -0.1453  0.1161
  213SIAC   SI1  213   5.052   0.987   6.092 -0.1977 -0.2593 -0.2407
  214SIAC   SI1  214   2.553   4.551   4.342  0.2067 -0.1435 -0.0614
  215SIAC   SI1  215   0.526   6.243   3.269 -0.0809  0.2916  0.2935
  216SIAC   SI1  216   6.205   3.233   6.070  0.1321  0.1083  0.3409
  217SIAC   SI1  217   5.185   0.412   1.636 -0.0239  0.1858 -0.1895
  218SIAC   SI1  218   5.783   3.017   2.246 -0.0986  0.5295 -0.2379
  219SIAC   SI1  219   4.506   5.729   3.464 -0.4102 -0.0458 -0.1003
  220SIAC   SI1  220   3.837   1.583   0.650 -0.2979  0.1054 -0.2691
  221SIAC   SI1  221   3.814   3.005   2.982  0.4145  0.0066 -0.0838
  222SIAC   SI1  222   6.437   6.833   6.135 -0.1208  0.1403  0.2768
  223SIAC   SI1  223   6.908   5.886   4.493 -0.2846 -0.1883  0.4270
  224SIAC   SI1  224   2.569   3.748   4.529  0.0996 -0.2044 -0.1476
  225SIAC   SI1  225   3.322   5.018   4.213  0.1814  0.2564  0.2010
  226SIAC   SI1  226   0.534   4.319   4.358  0.0852 -0.2756  0.0992
  227SIAC   SI1  227   0.484   0.357   4.761 -0.1382 -0.1467  0.1852
  228SIAC   SI1  228   6.445   5.842   4.541  0.0023  0.0755  0.3780
  229SIAC   SI1  229   5.213   5.412   5.591  0.1727 -0.1543  0.3490
  230SIAC   SI1  230   5.904   6.152   2.528 -0.0055  0.0588 -0.2447
  231SIAC   SI1  231   5.348   0.215   3.068  0.5822  0.1947 -0.2408
  232SIAC   SI1  232   6.417   1.000   1.420  0.0813  0.0507 -0.1926
  233SIAC   SI1  233   7.302   6.105   4.137  0.0520  0.2254 -0.0591
  234SIAC   SI1  234   5.631   4.419   7.268 -0.0207  0.2708 -0.0709
  235SIAC   SI1  235   4.845   6.972   4.820  0.2233  0.1022 -0.0087
  236SIAC   SI1  236   3.093   1.948   6.826  0.1981  0.1531 -0.0677
  237SIAC   SI1  237   3.659   0.908   3.817 -0.0777  0.0140  0.1318
  238SIAC   SI1  238   6.351   5.941   6.078  0.3863 -0.2157  0.2039
  239SIAC   SI1  239   5.258   0.556   2.271 -0.3359 -0.2130  0.1645
  240SIAC   SI1  240   5.093   1.230   2.834 -0.4752 -0.1058  0.1543
  241SIAC   SI1  241   0.552   0.136   5.235 -0.3435  0.2187  0.1263
  242SIAC   SI1  242   5.499   3.858   2.239 -0.2943 -0.1246 -0.1739
  243SIAC   SI1  243   1.030   0.291   5.561 -0.1110  0.5119 -0.0469
  244SIAC   SI1  244   4.708   2.402   5.031 -0.1921 -0.7166  0.2331
  245SIAC   SI1  245   5.833   2.721   6.275 -0.1013  0.2053 -0.2888
  246SIAC   SI1  246   4.935   2.555   4.738  0.1125 -0.2207  0.2354
  247SIAC   SI1  247   2.658   2.252   0.599  0.2852  0.1795 -0.1884
  248SIAC   SI1  248   6.223   4.762   0.711 -0.1289  0.4403  0.0364
  249SIAC   SI1  249   0.970   5.088   7.114 -0.3887 -0.0101  0.0575
  250SIAC   SI1  250   4.634   2.431   1.637  0.2405  0.0475  0.2153
  251SIAC   SI1  251   4.200   2.351   5.519 -0.4998 -0.2738 -0.1780
  252SIAC   SI1  252   4.188   5.126   7.214  0.1859  0.2109  0.0276
  253SIAC   SI1  253   0.762   4.600   7.313 -0.0902 -0.5538  0.4439
  254SIAC   SI1  254   2.701   5.429   5.141 -0.0223 -0.2355  0.0071
  255SIAC   SI1  255   7.159   1.140   2.745 -0.1116 -0.0434  0.0883
  256SIAC   SI1  256   1.967   5.574   4.190  0.3858  0.1301 -0.1077
  257SIAC   SI1  257   7.212   6.395   3.325  0.0700 -0.2700  0.1443
  258SIAC   SI1  258   5.882   4.455   6.052 -0.3355 -0.0974 -0.0268
  259SIAC   SI1  259   4.994   7.162   2.298  0.1961  0.3183 -0.3588
  260SIAC   SI1  260   0.450   6.477   4.359 -0.0913 -0.0724 -0.2100
  261SIAC   SI1  261   2.102   3.372   2.864  0.0478 -0.0583  0.1376
  262SIAC   SI1  262   4.850   3.109   6.800 -0.2087 -0.1392 -0.0203
  263SIAC   SI1  263   3.241   3.210   7.245  0.1554 -0.0831  0.2467
  264SIAC   SI1  264   1.252   0.666   6.824 -0.2418 -0.0155 -0.2406
  265SIAC   SI1  265   0.848   0.003   0.238 -0.2144 -0.1667 -0.3533
  266SIAC   SI1  266   3.659   2.083   2.961 -0.0341 -0.1291  0.2784
  267SIAC   SI1  267   5.062   0.590   5.042 -0.2101  0.0477  0.2070
  268SIAC   SI1  268   0.726   5.523   6.498  0.1810 -0.0417 -0.4413
  269SIAC   SI1  269   3.408   4.307   4.738 -0.2394  0.2180 -0.1281
  270SIAC   SI1  270   3.292   4.191   2.930  0.1803 -0.1588 -0.2075
  271SIAC   SI1  271   3.751   5.854   2.232  0.0032  0.3088 -0.1930
  272SIAC   SI1  272   1.585   2.079   2.433 -0.5637  0.0984  0.1436
  273SIAC   SI1  273   3.278   6.763   6.327 -0.0191  0.0626  0.0526
  274SIAC   SI1  274   5.585   1.988   6.296  0.3946  0.0915  0.0587
  275SIAC   SI1  275   4.475   5.434   6.756 -0.1620  0.2303  0.0290
  276SIAC   SI1  276   6.255   1.404   2.944  0.4048 -0.0807 -0.3652
  277SIAC   SI1  277   1.331   6.528   4.380 -0.0801 -0.0102  0.0613
  278SIAC   SI1  278   0.392   6.440   1.707 -0.1289  0.0734 -0.2127
  279SIAC   SI1  279   1.886   5.110   3.680  0.1968  0.2624  0.1083
  280SIAC   SI1  280   3.672   2.219   0.033 -0.0338 -0.0213  0.0230
  281SIAC   SI1  281   2.426   2.780   5.581  0.3101 -0.3326 -0.0069
  282SIAC   SI1  282   3.430   2.939   2.176 -0.1972 -0.2721 -0.1089
  283SIAC   SI1  283   1.953   4.320   2.818  0.4074  0.3276  0.0761
  284SIAC   SI1  284   7.198   5.851   5.755 -0.3202 -0.0097 -0.1339
  285SIAC   SI1  285   3.272   4.428   0.651 -0.2113 -0.2356  0.0338
  286SIAC   SI1  286   4.987   6.766   5.261  0.1069  0.1728  0.1653
  287SIAC   SI1  287   0.362   4.593   2.696  0.3413 -0.1737  0.0350
  288SIAC   SI1  288   7.302   3.180   7.268  0.0553  0.3625 -0.0045
  289SIAC   SI1  289   2.346   7.085   3.444  0.0045  0.1223  0.3648
  290SIAC   SI1  290   2.681   3.473   1.222  0.0485  0.1070  0.2165
  291SIAC   SI1  291   6.954   3.342   0.513 -0.1960  0.2650  0.3329
  292SIAC   SI1  292   0.185   5.072   4.571 -0.3424 -0.0701 -0.5600
  293SIAC   SI1  293   6.086   6.889   4.444  0.2957  0.1589 -0.1923
  294SIAC   SI1  294   1.960   3.544   5.553  0.4203 -0.3409 -0.4292
  295SIAC   SI1  295   6.250   0.373   5.109  0.1263 -0.1530  0.0184
  296SIAC   SI1  296   5.641   0.786   2.567  0.0739  0.4473  0.7437
  297SIAC   SI1  297   6.106   3.423   3.444  0.2366 -0.1277 -0.2098
  298SIAC   SI1  298   6.738   6.276   0.195 -0.1105  0.3741  0.0685
  299SIAC   SI1  299   0.674   6.931   4.878 -0.3179  0.4546 -0.2741
  300SIAC   SI1  300   3.708   0.847   6.451 -0.1170 -0.2950 -0.3000
  301SIAC   SI1  301   7.215   6.049   2.392  0.3330  0.2633 -0.2989
  302SIAC   SI1  302   3.962   7.051   7.177  0.0330  0.0073 -0.0562
  303SIAC   SI1  303   4.888   1.558   1.588 -0.2807 -0.0411 -0.0534
  304SIAC   SI1  304   5.446   4.119   3.476 -0.0022  0.2702 -0.4028
  305SIAC   SI1  305   3.565   1.444   4.543 -0.1504 -0.3054 -0.2396
  306SIAC   SI1  306   1.569   7.279   2.369  0.2348  0.1087 -0.1083
  307SIAC   SI1  307   3.579   5.128   3.268 -0.3976  0.0360 -0.0255
  308SIAC   SI1  308   6.661   5.568   2.127  0.0346  0.3516  0.1092
  309SIAC   SI1  309   3.094   3.278   1.180 -0.0849 -0.2040  0.0195
  310SIAC   SI1  310   0.387   4.376   1.321  0.0761 -0.3692 -0.5051
  311SIAC   SI1  311   4.334   5.710   0.248 -0.2126 -0.1382 -0.3163
  312SIAC   SI1  312   6.911   5.688   6.098  0.3132 -0.2464  0.1866
  313SIAC   SI1  313   5.167   1.055   6.655 -0.1621  0.4321 -0.0559
  314SIAC   SI1  314   2.132   4.352   6.813  0.0920 -0.1282 -0.2070
  315SIAC   SI1  315   1.402   2.499   5.822  0.1125  0.3214  0.3213
  316SIAC   SI1  316   5.338   3.099   6.023  0.0591 -0.1228 -0.2084
  317SIAC   SI1  317   3.636   1.831   4.671  0.1212 -0.0936 -0.4612
  318SIAC   SI1  318   5.753   1.521   2.884  0.2741 -0.0361 -0.2515
  319SIAC   SI1  319   0.805   4.101   0.279  0.3579  0.0670 -0.3945
  320SIAC   SI1  320   3.403   4.845   0.253  0.2443 -0.1783 -0.1636
  321SIAC   SI1  321   7.186   4.225   5.385 -0.1266 -0.0902 -0.1644
  322SIAC   SI1  322   1.080   2.090   1.533  0.0665  0.1318  0.1141
  323SIAC   SI1  323   2.632   4.349   2.350  0.1757 -0.1559 -0.2960
  324SIAC   SI1  324   6.788   5.475   1.192 -0.0856 -0.1144 -0.0482
  325SIAC   SI1  325   6.162   3.868   2.848 -0.0524 -0.2440 -0.1770
  326SIAC   SI1  326   1.722   2.291   2.800  0.4616 -0.0511  0.1332
  327SIAC   SI1  327   7.300   2.602   3.634  0.0726 -0.0516 -0.4529
  328SIAC   SI1  328   7.271   4.571   2.875  0.0589 -0.0485  0.0283
  329SIAC   SI1  329   6.958   5.692   2.455  0.0136 -0.1554 -0.2531
  330SIAC   SI1  330   7.121   2.445   2.034  0.2459 -0.0845  0.4272
  331SIAC   SI1  331   5.934   0.006   4.160  0.2239  0.2576 -0.1899
  332SIAC   SI1  332   6.795   7.290   4.095 -0.2946  0.2159 -0.0605
  333SIAC   SI1  333   5.534   7.313   0.524 -0.2728 -0.2733 -0.2681
  334SIAC   SI1  334   7.020   6.373   2.160 -0.3507  0.0745  0.2014
  335SIAC   SI1  335   3.845   0.691   6.064  0.0889 -0.1684  0.1989
  336SIAC   SI1  336   2.010   5.291   4.550  0.0336 -0.0996 -0.1194
  337SIAC   SI1  337   7.150   6.297   5.925  0.1023 -0.1849 -0.0023
  338SIAC   SI1  338   3.417   0.259   6.656 -0.0414  0.0881 -0.3381
  339SIAC   SI1  339   1.642   4.175   2.432 -0.2565  0.0005 -0.3781
  340SIAC   SI1  340   5.045   6.446   0.657 -0.1358  0.2428  0.0942
  341SIAC   SI1  341   4.859   7.316   2.710 -0.3029 -0.2523  0.3294
  342SIAC   SI1  342   4.902   5.089   6.861  0.1935 -0.1790 -0.2085
  343SIAC   SI1  343   4.912   3.787   4.709  0.1150  0.0023 -0.1089
  344SIAC   SI1  344   4.428   0.913   4.373  0.3085  0.0333  0.0509
  345SIAC   SI1  345   4.988   4.146   0.371  0.3113 -0.2830 -0.1572
  346SIAC   SI1  346   1.284   1.111   5.674  0.0774 -0.0072  0.2617
  347SIAC   SI1  347   5.808   5.872   5.965  0.1689  0.1621 -0.2355
  348SIAC   SI1  348   2.342   6.889   0.499  0.0254 -0.3781  0.2367
  349SIAC   SI1  349   4.847   6.409   0.148 -0.0905 -0.1856 -0.0161
  350SIAC   SI1  350   2.602   3.003   0.277 -0.1205  0.0443  0.0633
  351SIAC   SI1  351   7.083   4.232   6.828  0.0100 -0.1703  0.0978
  352SIAC   SI1  352   5.008   1.342   3.956  0.3102  0.1462  0.0530
  353SIAC   SI1  353   1.140   6.788   5.514  0.1563 -0.3623  0.0248
  354SIAC   SI1  354   4.455   4.457   6.098  0.1385 -0.0791  0.2458
  355SIAC   SI1  355   5.314   1.072   1.124  0.1302  0.3172 -0.0804
  356SIAC   SI1  356   5.581   4.961   4.052  0.0001 -0.0270  0.4531
  357SIAC   SI1  357   6.029   3.116   6.919 -0.2457 -0.1308  0.0115
  358SIAC   SI1  358   7.007   3.666   5.398 -0.1245  0.1166 -0.2447
  359SIAC   SI1  359   0.869   2.791   4.027  0.0368 -0.0652 -0.0003
  360SIAC   SI1  360   3.130   0.633   1.912 -0.0306  0.2450 -0.3544
  361SIAC   SI1  361   2.199   2.140   5.733 -0.2004  0.3609  0.4890
  362SIAC   SI1  362   2.513   0.610   0.984 -0.1916 -0.2608  0.0382
  363SIAC   SI1  363   1.959   0.083   6.834 -0.0878  0.4559  0.3207
  364SIAC   SI1  364   6.042   0.823   4.943  0.2285  0.4767 -0.0277
  365SIAC   SI1  365   2.093   6.859   6.088  0.0288 -0.2312  0.2181
  366SIAC   SI1  366   2.290   1.246   1.595  0.3059 -0.1016 -0.2193
  367SIAC   SI1  367   5.556   7.212   7.257  0.1418 -0.1487 -0.2633
  368SIAC   SI1  368   1.183   7.007   2.256 -0.0792 -0.4851  0.2138
  369SIAC   SI1  369   1.777   6.735   2.903  0.1275 -0.0858  0.0681
  370SIAC   SI1  370   1.153   0.286   0.317  0.0892 -0.0537 -0.0644
  371SIAC   SI1  371   3.134   0.540   5.848 -0.4979 -0.2177  0.3055
  372SIAC   SI1  372   4.864   1.170   1.333  0.0625 -0.1708  0.2688
  373SIAC   SI1  373   2.062   2.142   1.276 -0.2904  0.2892 -0.0900
  374SIAC   SI1  374   4.310   2.521   6.609  0.0961 -0.0702  0.1892
  375SIAC   SI1  375   3.637   0.216   7.116  0.1836  0.3685 -0.2445
  376SIAC   SI1  376   2.137   2.501   4.444 -0.0660 -0.3088 -0.1009
  377SIAC   SI1  377   0.979   4.989   5.437  0.0024 -0.0337  0.2152
  378SIAC   SI1  378   5.060   3.148   0.283 -0.2233  0.2251  0.1235
  379SIAC   SI1  379   0.443   6.148   4.026 -0.1725 -0.2667 -0.1684
  380SIAC   SI1  380   2.118   2.684   6.472 -0.1803  0.0515 -0.1410
  381SIAC   SI1  381   1.413   3.026   6.129  0.3316  0.2435 -0.1432
  382SIAC   SI1  382   2.995   7.302   1.350 -0.2039 -0.3323 -0.0953
  383SIAC   SI1  383   5.750   1.689   4.552 -0.2212  0.1848  0.4200
  384SIAC   SI1  384   0.681   2.258   5.824  0.0710 -0.3227 -0.1359
  385SIAC   SI1  385   6.481   4.531   4.873 -0.1219 -0.1815  0.0026
  386SIAC   SI1  386   0.951   4.582   2.342 -0.1255 -0.1855 -0.1715
  387SIAC   SI1  387   1.477   5.056   1.804 -0.0582 -0.0513 -0.1907
  388SIAC   SI1  388   6.831   2.708   3.976  0.1847 -0.0743  0.1247
  389SIAC   SI1  389   2.974   1.276   1.557  0.0148 -0.0665  0.1401
  390SIAC   SI1  390   3.714   7.185   4.452 -0.4782 -0.2643 -0.2640
  391SIAC   SI1  391   1.270   4.148   1.515 -0.1351  0.1199 -0.0969
  392SIAC   SI1  392   0.644   6.359   2.286  0.4303 -0.2881  0.0595
  393SIAC   SI1  393   5.316   6.240   4.296 -0.1876  0.2291 -0.0827
  394SIAC   SI1  394   0.134   2.140   3.797 -0.3128 -0.1129 -0.0710
  395SIAC   SI1  395   3.833   2.190   1.409 -0.1381  0.0012  0.1466
  396SIAC   SI1  396   5.474   2.037   4.915 -0.1154  0.1052 -0.1249
  397SIAC   SI1  397   3.820   3.072   5.653 -0.1192 -0.1330  0.2816
  398SIAC   SI1  398   1.363   2.354   1.817  0.0580 -0.0585  0.2072
  399SIAC   SI1  399   5.534   1.885   0.407  0.0534  0.1181  0.0605
  400SIAC   SI1  400   4.625   5.085   5.994 -0.0102  0.0894  0.5187
  401W        W  401   2.583   2.371   5.561 -0.0805 -0.0648 -0.0327
  402W        W  402   4.276   3.429   0.746  0.0398  0.0938 -0.0102
  403W        W  403   3.740   0.104   3.051  0.3948  0.0031 -0.3309
  404W        W  404   4.436   0.726   2.630  0.1121  0.0289 -0.0001
  405W        W  405   0.773   1.742   6.662 -0.0190  0.1466  0.2737
  406W        W  406   3.159   6.608   4.985  0.1664 -0.0904 -0.1283
  407W        W  407   0.075   3.090   4.485 -0.2145 -0.0654 -0.2428
  408W        W  408   7.313   0.767   2.457  0.0962 -0.2226 -0.2378
  409W        W  409   0.158   5.255   5.301 -0.3168 -0.4137 -0.1378
  410W        W  410   6.890   4.490   1.171  0.1579 -0.1697  0.1767
  411W        W  411   5.988   5.098   2.795  0.1346 -0.2794  0.0610
  412W        W  412   3.650   2.921   6.033  0.0078  0.1531  0.1443
  413W        W  413   4.428   0.054   0.154 -0.0747  0.0639  0.3675
  414W        W  414   4.476   1.388   1.372 -0.2021 -0.1309 -0.1997
  415W        W  415   4.114   5.102   3.980 -0.0008  0.0831 -0.0440
  416W        W  416   7.255   1.129   4.559 -0.0456  0.5087  0.0381
  417W        W  417   4.042   6.898   1.351  0.2071  0.0684 -0.3066
  418W        W  418   3.367   0.280   1.213  0.1174 -0.2611  0.1666
  419W        W  419   3.841   1.311   3.108 -0.0408  0.2643 -0.3007
  420W        W  420   6.814   1.654   2.181 -0.3038 -0.1360 -0.0629
  421W        W  421   3.520   1.460   2.045  0.0012  0.2538 -0.1640
  422W        W  422   4.553   1.503   5.616  0.3017  0.4325 -0.0964
  423W        W  423   5.319   4.234   2.480 -0.5234  0.1674 -0.1562
  424W        W  424   5.072   4.792   5.639 -0.1172  0.0066  0.2162
  425W        W  425   0.047   0.350   4.649  0.0575  0.0743  0.3145
  426W        W  426   5.502   2.171   3.548 -0.1420  0.1288 -0.1813
  427W        W  427   4.854   6.811   4.402 -0.1187 -0.0048  0.0792
  428W        W  428   0.519   6.710   0.103 -0.0925 -0.0459 -0.0255
  429W        W  429   5.651   4.083   4.190 -0.1829  0.1862 -0.1162
  430W        W  430   7.272   3.873   5.126 -0.2433  0.1395 -0.1789
  431W        W  431   4.437   0.200   2.274 -0.0229 -0.2052  0.1259
  432W        W  432   5.921   0.749   3.477 -0.0098  0.0442  0.2360
  433W        W  433   6.950   7.113   6.890 -0.0806 -0.1996 -0.0230
  434W        W  434   2.566   4.971   5.257 -0.2622  0.1754 -0.0641
  435W        W  435   7.205   4.760   0.772  0.0574 -0.3538 -0.5174
  436W        W  436   2.231   0.759   3.845  0.1426  0.1514 -0.2898
  437W        W  437   2.519   0.891   3.161 -0.0042  0.0786 -0.2742
  438W        W  438   5.440   1.661   7.080 -0.2748 -0.0057 -0.0251
  439W        W  439   1.216   3.532   1.730  0.1926 -0.0409  0.3610
  440W        W  440   0.653   2.220   1.454  0.1690 -0.0854  0.1562
  441W        W  441   3.976   4.695   2.298 -0.0523 -0.0658  0.0822
  442W        W  442   4.537   5.381   3.729 -0.0413  0.2915 -0.2227
  443W        W  443   2.515   3.879   1.555  0.0925  0.4322 -0.1300
  444W        W  444   3.263   0.163   3.285  0.0337 -0.0497 -0.1726
  445W        W  445   3.533   2.973   0.213  0.2879  0.1123 -0.1524
  446W        W  446   5.030   6.029   4.872  0.1501 -0.1498 -0.0596
  447W        W  447   1.296   7.249   5.637  0.1204  0.0092  0.1823
  448W        W  448   4.696   5.334   4.279 -0.3838 -0.2282  0.2572
  449W        W  449   5.666   1.265   1.862  0.1450  0.1073 -0.0045
  450W        W  450   1.181   1.777   6.957  0.2197 -0.3055  0.1696
  451W        W  451   2.365   4.826   6.771 -0.0244  0.2109 -0.1573
  452W        W  452   6.581   5.039   1.182  0.4162  0.2239 -0.2504
  453W        W  453   1.777   6.780   1.497 -0.1684  0.2340 -0.0077
  454W        W  454   1.551   1.723   2.808  0.3174 -0.1265  0.3754
  455W        W  455   0.570   0.100   0.846  0.3245  0.0379 -0.1562
  456W        W  456   5.955   3.375   1.853 -0.0500 -0.0549 -0.2284
  457W        W  457   6.803   5.994   2.050 -0.0128 -0.0111  0.2920
  458W        W  458   3.993   4.196   4.993 -0.0067  0.1447  0.1913
  459W        W  459   0.813   3.472   3.909  0.0627  0.1868  0.1073
  460W        W  460   6.879   0.820   2.847 -0.1750  0.1197 -0.0608
  461W        W  461   0.993   5.903   0.656  0.2600  0.1961  0.1225
  462W        W  462   4.399   7.120   6.974 -0.1804 -0.1713  0.2101
  463W        W  463   2.069   0.898   6.340 -0.0815  0.0719 -0.2369
  464W        W  464   3.662   2.915   4.730 -0.0044 -0.3009 -0.1512
  465W        W  465   1.841   4.544   5.107  0.0206  0.0033 -0.1057
  466W        W  466   3.421   5.628   3.668  0.0912  0.2391  0.0060
  467W        W  467   5.282   6.514   1.420  0.2211  0.1104 -0.3474
  468W        W  468   2.423   1.798   2.841  0.2035  0.0284 -0.0471
  469W        W  469   5.670   1.363   0.872  0.2209 -0.1984  0.1150
  470W        W  470   6.170   3.243   0.044  0.1844  0.2914  0.0281
  471W        W  471   1.847   2.023   3.139 -0.0853  0.0520  0.3642
  472W        W  472   0.955   4.193   4.194 -0.0352  0.1047  0.1731
  473W        W  473   7.144   1.349   1.929 -0.2847 -0.2846  0.0699
  474W        W  474   0.100   6.732   3.987  0.0520 -0.0642  0.2125
  475W        W  475   0.398   3.831   0.091 -0.0211 -0.0084 -0.3052
  476W        W  476   5.592   6.250   5.641 -0.4599 -0.0853  0.3111
  477W        W  477   4.485   4.028   6.003  0.3372 -0.0339 -0.2533
  478W        W  478   0.424   2.110   2.195 -0.2539  0.1748 -0.1397
  479W        W  479   4.945   5.322   1.600 -0.0399 -0.0389  0.1771
  480W        W  480   3.160   3.955   0.354  0.1417  0.0215  0.0405
  481W        W  481   0.024   6.849   0.287 -0.1571 -0.2309  0.1011
  482W        W  482   3.108   4.851   2.109  0.1422  0.0874  0.1387
  483W        W  483   2.550   6.667   2.336  0.0043  0.2646  0.0600
  484W        W  484   7.236   1.682   0.003 -0.2811  0.0692  0.1993
  485W        W  485   2.969   0.104   5.083 -0.4779 -0.0315  0.1393
  486W        W  486   2.667   3.087   5.429 -0.1337 -0.1000 -0.0946
  487W        W  487   1.629   0.653   6.332  0.0832  0.3056 -0.0095
  488W        W  488   5.107   6.969   0.727  0.0742 -0.1270 -0.1467
  489W        W  489   0.178   4.308   2.125  0.4528 -0.0013 -0.3557
  490W        W  490   1.369   6.598   6.917  0.1304  0.0442 -0.4294
  491W        W  491   0.929   3.653   2.778  0.0883 -0.3410 -0.1329
  492W        W  492   6.729   3.188   2.364 -0.4201 -0.0174  0.0879
  493W        W  493   4.493   5.154   4.790 -0.1479  0.2525  0.1025
  494W        W  494   5.039   7.117   3.624  0.2215 -0.0108 -0.2262
  495W        W  495   7.305   4.769   3.964 -0.0818  0.1717  0.0670
  496W        W  496   2.548   2.597   4.606  0.3148  0.1329 -0.0836
  497W        W  497   0.812   2.012   0.649 -0.2108 -0.0279 -0.0243
  498W        W  498   6.859   2.941   3.589  0.1777 -0.0388  0.1490
  499W        W  499   1.639   0.976   0.476  0.1439  0.1774 -0.2999
  500W        W  500   4.918   5.752   1.361 -0.0157 -0.3289  0.0678
  501W        W  501   1.832   3.606   3.190  0.2081 -0.0687  0.2738
  502W        W  502   1.220   4.800   6.855 -0.0471 -0.1957  0.0624
  503W        W  503   0.038   2.154   1.714  0.2498  0.1381 -0.1352
  504W        W  504   1.056   1.878   2.973  0.3406  0.0707 -0.0522
  505W        W  505   5.350   2.432   4.025 -0.2471  0.1691  0.1770
  506W        W  506   0.914   2.996   5.008  0.1412 -0.2750  0.1408
  507W        W  507   0.115   6.055   3.137  0.1991  0.0282  0.3236
  508W        W  508   5.467   6.700   5.617 -0.1472 -0.0613  0.0174
  509W        W  509   0.113   2.274   2.599 -0.1960 -0.1797  0.2184
  510W        W  510   3.308   4.835   7.119  0.1210  0.0632 -0.2380
  511W        W  511   6.687   3.553   5.677  0.2352 -0.0397 -0.0339
  512W        W  512   6.914   6.202   1.288  0.1165 -0.0982  0.1364
  513W        W  513   5.766   2.771   2.998 -0.0110 -0.1288  0.2697
  514W        W  514   3.802   1.856   3.782 -0.1475 -0.0642  0.1101
  515W        W  515   2.898   2.371   6.940  0.0431 -0.2595 -0.1239
  516W        W  516   4.902   2.151   2.834  0.2495  0.1837  0.1635
  517W        W  517   0.603   4.741   1.119 -0.0321  0.1430  0.0800
  518W        W  518   7.117   6.399   0.432 -0.0829  0.4642  0.1017
  519W        W  519   2.772   6.116   6.702  0.3392 -0.0263 -0.1473
  520W        W  520   1.452   4.620   0.693  0.1589  0.3677 -0.0800
  521W        W  521   6.776   2.149   0.980 -0.0717 -0.1175  0.0183
  522W        W  522   1.232   6.753   3.905 -0.1006  0.0524  0.0053
  523W        W  523   0.973   0.498   0.810  0.2938 -0.2163 -0.0623
  524W        W  524   2.858   4.675   6.605 -0.3871 -0.0490  0.0484
  525W        W  525   7.061   1.185   7.130  0.1094 -0.0358  0.0371
  526W        W  526   3.160   5.333   2.160  0.4028  0.3314 -0.1086
  527W        W  527   2.010   6.515   2.398 -0.4055 -0.1144  0.1782
  528W        W  528   4.932   1.390   2.205 -0.0271 -0.1854  0.1186
  529W        W  529   5.683   2.364   6.480 -0.1274  0.3321 -0.3205
  530W        W  530   3.025   2.701   5.377 -0.0212 -0.1799  0.1283
  531W        W  531   6.254   7.095   5.657 -0.0148 -0.0169 -0.1777
  532W        W  532   0.609   3.249   5.984  0.0259  0.2362  0.0592
  533W        W  533   3.598   6.201   1.464 -0.2535  0.1634  0.0896
  534W        W  534   4.448   1.502   6.958 -0.1806 -0.3045  0.1527
  535W        W  535   0.592   7.235   6.231  0.1561  0.2924  0.2786
  536W        W  536   4.313   6.830   4.548 -0.2164  0.2939  0.1685
  537W        W  537   7.057   0.416   1.737  0.0544 -0.0365 -0.1895
  538W        W  538   1.594   0.193   4.445  0.0896 -0.0732  0.1878
  539W        W  539   5.127   4.378   7.260 -0.3557 -0.0226 -0.3442
  540W        W  540   1.361   0.274   2.007 -0.1159 -0.1620 -0.2353
  541W        W  541   6.722   6.696   4.567  0.0176 -0.0508  0.1026
  542W        W  542   5.806   1.250   5.727 -0.2364  0.1276  0.2856
  543W        W  543   4.747   2.261   6.426  0.1908  0.1013  0.0182
  544W        W  544   5.377   1.710   5.994 -0.1692 -0.2046  0.0966
  545W        W  545   1.991   3.137   0.970  0.2795 -0.1463 -0.1474
  546W        W  546   0.699   6.653   5.621  0.1035 -0.0418 -0.0453
  547W        W  547   3.051   3.845   2.237  0.0465 -0.0637 -0.3199
  548W        W  548   2.148   5.049   5.067 -0.2588 -0.0267 -0.1995
  549W        W  549   4.795   5.347   3.297  0.0388  0.0397  0.0855
  550W        W  550   2.185   6.150   7.090 -0.3857  0.0173  0.1201
  551W        W  551   5.592   4.421   3.784 -0.0780 -0.1102  0.1313
  552W        W  552   5.703   5.777   7.219  0.0971 -0.1433 -0.0655
  553W        W  553   0.880   7.085   3.685 -0.1352 -0.1597  0.0784
  554W        W  554   1.904   3.591   6.357  0.3110  0.2287  0.0869
  555W        W  555   0.646   1.362   1.391 -0.1836  0.0016 -0.0225
  556W        W  556   0.997   6.810   6.316 -0.3085 -0.2460  0.1628
  557W        W  557   4.320   6.898   0.116  0.1751  0.3777 -0.0156
  558W        W  558   2.667   5.425   2.319  0.3613 -0.0471  0.0233
  559W        W  559   0.049   3.151   0.687 -0.2053  0.3304 -0.1819
  560W        W  560   1.923   4.895   2.097  0.0158  0.0638 -0.3393
  561W        W  561   0.847   3.186   4.368  0.0891 -0.2279  0.0021
  562W        W  562   5.961   4.040   6.728 -0.5103 -0.2874  0.1362
  563W        W  563   5.612   4.687   4.439 -0.0904  0.2775 -0.0713
  564W        W  564   7.058   2.022   3.391 -0.2038 -0.2434  0.1828
  565W        W  565   3.104   7.273   3.697  0.2250 -0.0584 -0.0822
  566W        W  566   2.425   1.443   2.085  0.1521  0.1795  0.2654
  567W        W  567   2.448   1.604   3.893 -0.0152 -0.2761  0.0057
  568W        W  568   1.341   4.556   5.259 -0.1631 -0.1831 -0.0820
  569W        W  569   4.456   1.294   2.245  0.2573  0.2306  0.1713
  570W        W  570   4.597   3.644   5.108 -0.2023 -0.0162 -0.2453
  571W        W  571   6.994   2.485   5.064  0.1087 -0.0337  0.1532
  572W        W  572   3.313   6.176   5.154 -0.1991  0.1882 -0.0698
  573W        W  573   5.121   6.275   2.247  0.0241 -0.1866 -0.1875
  574W        W  574   2.440   3.278   7.249 -0.1533 -0.0363  0.0976
  575W        W  575   5.765   6.835   5.276  0.2266  0.0408  0.1816
  576W        W  576   0.990   0.793   0.173 -0.0130  0.0617 -0.1711
  577W        W  577   5.697   3.461   2.329  0.2308  0.3506 -0.0438
  578W        W  578   4.909   2.208   4.281 -0.1934  0.4021 -0.1323
  579W        W  579   6.440   4.413   4.400  0.4047 -0.0613  0.0090
  580W        W  580   4.098   6.075   2.452  0.0779  0.0422 -0.0390
  581W        W  581   3.987   1.730   6.578  0.2727  0.0208  0.1468
  582W        W  582   2.824   1.113   5.039 -0.1619  0.0569  0.1160
  583W        W  583   1.709   6.119   6.844 -0.1527 -0.1802  0.1076
  584W        W  584   1.377   5.703   4.792  0.1994  0.2314 -0.1238
  585W        W  585   1.412   4.630   4.703  0.0003  0.2054  0.5569
  586W        W  586   2.411   4.454   0.785 -0.5678  0.0893 -0.1548
  587W        W  587   0.471   6.975   5.312  0.3434  0.4589 -0.0061
  588W        W  588   1.936   5.100   1.628 -0.1436  0.4281  0.2766
  589W        W  589   5.033   0.150   0.613 -0.2773 -0.0017  0.1723
  590W        W  590   4.796   6.148   7.083 -0.3334 -0.2370 -0.1266
  591W        W  591   7.224   5.049   0.042 -0.0388 -0.1170 -0.0332
  592W        W  592   5.022   4.720   0.820  0.0817  0.0857 -0.1687
  593W        W  593   1.133   0.717   4.497  0.2870  0.0269 -0.1057
  594W        W  594   4.747   1.105   6.442  0.1126 -0.0401 -0.3030
  595W        W  595   3.446   6.266   4.534  0.0727 -0.3165 -0.1351
  596W        W  596   7.197   5.368   4.885 -0.0175 -0.0755 -0.3766
  597W        W  597   3.814   1.565   1.109 -0.0702  0.1515 -0.0966
  598W        W  598   1.796   3.721   2.353 -0.1739  0.0504 -0.1968
  599W        W  599   4.338   6.125   3.727  0.0306 -0.1653 -0.0749
  600W        W  600   6.199   1.197   6.030  0.0459  0.0555  0.1761
  601W        W  601   1.957   1.182   6.796 -0.2541  0.1111  0.3384
  602W        W  602   6.596   6.780   5.689  0.0061  0.0426  0.0761
  603W        W  603   2.246   5.124   2.409 -0.0365 -0.0085 -0.0386
  604W        W  604   1.517   2.918   7.169 -0.1599  0.0766  0.1453
  605W        W  605   3.550   6.000   2.721 -0.0276 -0.1773  0.2264
  606W        W  606   1.200   5.751   3.021  0.1926  0.0011  0.1331
  607W        W  607   2.143   0.154   6.417 -0.2214  0.2241  0.0656
  608W        W  608   7.300   2.852   4.045  0.2815  0.2034 -0.3852
  609W        W  609   4.803   4.502   2.501  0.0033  0.1510  0.2546
  610W        W  610   4.350   4.355   0.028 -0.2671 -0.0886 -0.0967
  611W        W  611   0.496   5.662   5.291 -0.4870 -0.1739  0.3991
  612W        W  612   1.878   1.674   0.893  0.2178  0.0791  0.1710
  613W        W  613   5.213   4.451   4.360  0.1645  0.0976 -0.0509
  614W        W  614   4.863   1.654   1.164 -0.0133 -0.3622  0.2784
  615W        W  615   0.936   5.756   3.575  0.0068  0.0664  0.1937
  616W        W  616   0.299   5.103   1.333  0.0569  0.0393  0.2439
  617W        W  617   4.221   0.012   4.344 -0.1781  0.0709 -0.2094
  618W        W  618   2.333   3.644   2.291 -0.1263  0.1329  0.1176
  619W        W  619   7.023   0.260   5.465 -0.3311 -0.1453 -0.2364
  620W        W  620   6.293   1.801   0.050 -0.2887 -0.1011 -0.0220
  621W        W  621   0.256   6.169   5.092 -0.2342  0.0431 -0.0458
  622W        W  622   0.955   0.247   6.004  0.0505  0.0267  0.2378
  623W        W  623   4.862   1.216   3.312 -0.0891 -0.1376 -0.0353
  624W        W  624   4.864   1.412   6.073 -0.3705 -0.1307  0.1757
  625W        W  625   3.688   3.997   2.910  0.0680 -0.2226  0.1844
  626W        W  626   6.264   5.535   2.937  0.1593  0.1690 -0.0400
  627W        W  627   1.988   6.481   1.149  0.2261 -0.1683 -0.1936
  628W        W  628   4.940   3.220   1.442  0.1665 -0.1015  0.2333
  629W        W  629   2.896   6.778   0.615 -0.1773 -0.2241 -0.0151
  630W        W  630   1.744   3.794   4.448  0.2407  0.2113  0.2310
  631W        W  631   1.816   7.165   5.898  0.4350 -0.3910 -0.0486
  632W        W  632   5.989   3.319   5.361  0.0117  0.2888  0.1944
  633W        W  633   2.719   3.747   7.178  0.1120 -0.2243  0.0763
  634W        W  634   0.202   1.416   1.181  0.1928  0.0491 -0.3608
  635W        W  635   2.551   6.172   5.644 -0.0048  0.0868  0.0235
  636W        W  636   6.846   6.475   1.757  0.2588 -0.2210 -0.0094
  637W        W  637   0.627   6.198   6.470 -0.0658  0.0756  0.3225
  638W        W  638   7.267   0.492   3.762  0.0475  0.1344 -0.2795
  639W        W  639   4.240   6.550   0.546  0.0882  0.1434  0.1021
  640W        W  640   5.944   2.705   0.682 -0.3890  0.0736 -0.0893
  641W        W  641   4.756   0.807   4.711 -0.2172 -0.2370 -0.0057
  642W        W  642   6.733   4.428   3.254 -0.2351 -0.4493  0.0475
  643W        W  643   4.577   6.929   6.492  0.0557 -0.1032  0.0549
  644W        W  644   6.487   2.992   4.786 -0.1078 -0.1097 -0.0888
  645W        W  645   4.795   4.267   4.572  0.2288  0.2407 -0.1227
  646W        W  646   5.014   0.503   3.142  0.0796 -0.0764 -0.1952
  647W        W  647   5.612   5.695   3.855 -0.0156  0.1913  0.3275
  648W        W  648   7.128   7.240   0.087 -0.0468 -0.2380 -0.1540
  649W        W  649   0.846   2.396   6.400 -0.0841  0.3414 -0.0083
  650W        W  650   5.451   0.743   6.990 -0.0686  0.0689  0.0120
  651W        W  651   3.568   2.500   3.752 -0.0949 -0.1357  0.1481
  652W        W  652   3.162   1.114   0.671  0.2935 -0.0810 -0.0157
  653W        W  653   6.010   0.623   1.276 -0.1619 -0.0497 -0.0176
  654W        W  654   1.769   5.468   0.213 -0.3146 -0.0761  0.1004
  655W        W  655   3.253   5.017   0.789  0.2733  0.1056 -0.0663
  656W        W  656   1.146   1.903   2.470  0.3347  0.0484 -0.0623
  657W        W  657   1.951   2.737   0.026  0.1069  0.0835 -0.0106
  658W        W  658   3.215   4.048   0.853 -0.1987 -0.2174 -0.1431
  659W        W  659   7.108   1.686   1.068 -0.0495 -0.0780 -0.2722
  660W        W  660   1.138   3.708   4.285  0.2423 -0.0726 -0.1443
  661W        W  661   5.902   0.133   6.979 -0.0746 -0.1567  0.0651
  662W        W  662   0.931   1.457   4.220  0.0957  0.0685  0.0445
  663W        W  663   2.009   1.970   2.578 -0.1640 -0.0439  0.1352
  664W        W  664   6.894   1.138   2.346 -0.0501  0.1454  0.0255
  665W        W  665   5.568   2.113   1.733  0.1389 -0.0172 -0.0835
  666W        W  666   6.636   2.355   4.098  0.1765  0.1579  0.2415
  667W        W  667   5.991   6.603   4.828 -0.1982  0.0119 -0.1410
  668W        W  668   4.901   2.743   5.394 -0.3173  0.2466  0.2532
  669W        W  669   7.020   1.562   3.678 -0.0577 -0.0879 -0.1603
  670W        W  670   5.079   3.135   2.637  0.2583 -0.0267 -0.3815
  671W        W  671   1.119   4.263   3.036 -0.0039  0.1582 -0.0721
  672W        W  672   1.467   5.058   0.872 -0.1970  0.0117  0.3320
  673W        W  673   4.527   3.359   1.229  0.0172 -0.0130  0.1155
  674W        W  674   5.587   0.370   5.848 -0.3261 -0.2333 -0.1470
  675W        W  675   5.166   4.536   2.849 -0.3495 -0.0299 -0.0463
  676W        W  676   6.016   6.527   5.739  0.0025 -0.0130 -0.0376
  677W        W  677   6.645   1.407   6.628  0.1165 -0.1729 -0.1413
  678W        W  678   0.125   1.031   6.702 -0.2460 -0.0645  0.1691
  679W        W  679   5.307   2.910   5.089  0.1282  0.0944  0.2324
  680W        W  680   4.221   4.364   5.720 -0.0933  0.1244 -0.0064
  681W        W  681   7.067   5.513   1.992  0.1605  0.0832 -0.1774
  682W        W  682   1.549   2.106   3.862  0.3793  0.1529  0.1675
  683W        W  683   4.119   5.540   1.824  0.0094 -0.1116 -0.0875
  684W        W  684   2.734   2.378   6.138  0.2200 -0.3221 -0.1939
  685W        W  685   2.047   1.872   6.123 -0.0512  0.1722  0.2271
  686W        W  686   3.585   7.088   3.410  0.2248 -0.0227 -0.1002
  687W        W  687   4.883   2.702   2.772  0.0750 -0.0256 -0.0917
  688W        W  688   6.496   4.593   5.969 -0.0157  0.1762  0.1580
  689W        W  689   2.854   3.198   0.636 -0.0510  0.0518 -0.0499
  690W        W  690   2.885   1.380   5.466  0.1086 -0.2110 -0.1383
  691W        W  691   1.481   5.555   4.267  0.1900  0.3400  0.0603
  692W        W  692   4.282   2.253   1.259 -0.1212 -0.1670 -0.1449
  693W        W  693   3.340   5.386   4.519  0.3941  0.1486 -0.1217
  694W        W  694   6.806   3.306   0.076  0.1100 -0.4853  0.0708
  695W        W  695   2.241   0.074   5.806 -0.2124 -0.0230 -0.1163
  696W        W  696   6.151   0.621   2.121 -0.0452 -0.3695 -0.1491
  697W        W  697   2.790   6.815   1.370  0.0935  0.0492 -0.0050
  698W        W  698   0.703   5.047   2.726  0.1609 -0.1341 -0.1131
  699W        W  699   3.395   1.136   3.422  0.1124 -0.0053  0.0740
  700W        W  700   4.013   1.294   5.397 -0.1812  0.3103  0.0061
  701W        W  701   7.201   5.582   1.418  0.1262 -0.0482  0.0739
  702W        W  702   5.398   2.772   6.318 -0.2200  0.0961  0.1834
  703W        W  703   6.572   2.274   7.109  0.1324  0.2623 -0.2056
  704W        W  704   4.415   7.157   2.681 -0.1699 -0.1033 -0.0693
  705W        W  705   2.659   1.306   5.893 -0.1472  0.0258 -0.0128
  706W        W  706   1.099   2.719   0.172  0.0590 -0.0606  0.1709
  707W        W  707   1.898   5.797   4.598  0.0105  0.2485 -0.1880
  708W        W  708   2.570   7.057   3.058 -0.0119  0.2332 -0.2364
  709W        W  709   6.976   6.391   4.199  0.0163  0.4878  0.0734
  710W        W  710   3.234   2.137   5.973 -0.1398 -0.1773  0.2409
  711W        W  711   6.785   1.573   7.141 -0.3487  0.2010 -0.2365
  712W        W  712   3.447   6.081   6.160  0.1208  0.2514  0.1678
  713W        W  713   1.818   5.359   1.139  0.3953  0.0715  0.0091
  714W        W  714   5.905   6.465   2.886 -0.1325 -0.1113  0.2015
  715W        W  715   0.861   4.265   6.060  0.1352  0.1711  0.0734
  716W        W  716   5.790   3.025   4.004 -0.1964  0.1222 -0.0721
  717W        W  717   3.914   6.067   6.902 -0.4089  0.2830  0.2435
  718W        W  718   0.822   4.554   2.791 -0.1537  0.1273  0.1289
  719W        W  719   0.164   0.913   5.306 -0.1244 -0.0134 -0.0803
  720W        W  720   1.066   7.217   1.756 -0.1034 -0.1253  0.0948
  721W        W  721   0.084   4.885   2.046 -0.1007 -0.1166  0.1084
  722W        W  722   5.290   2.589   3.007  0.1454  0.2400  0.2893
  723W        W  723   2.462   1.126   0.850  0.4951 -0.1669  0.0421
  724W        W  724   1.417   0.235   5.229 -0.0017 -0.0958 -0.2818
  725W        W  725   7.257   2.932   1.847 -0.0091  0.3915 -0.0858
  726W        W  726   5.698   3.328   4.777 -0.2098  0.2134 -0.1856
  727W        W  727   0.846   1.825   5.762  0.1199  0.0568 -0.1268
  728W        W  728   3.876   6.999   4.870  0.0793 -0.1401  0.0254
  729W        W  729   7.167   4.644   2.430  0.1406  0.1052  0.1840
  730W        W  730   4.381   6.653   2.736  0.4662 -0.2562 -0.1332
  731W        W  731   7.142   3.599   0.945 -0.1582 -0.2755  0.2203
  732W        W  732   5.913   5.825   4.304 -0.0898 -0.0344 -0.2745
  733W        W  733   0.621   2.582   2.546 -0.2086 -0.2091  0.0026
  734W        W  734   2.202   3.139   0.318 -0.0335  0.0399 -0.0963
  735W        W  735   2.584   5.560   6.238  0.1546 -0.0684 -0.2467
  736W        W  736   5.377   7.047   6.010 -0.0179  0.1293  0.3227
  737W        W  737   3.585   0.160   3.670 -0.2537  0.0438  0.1720
  738W        W  738   7.021   2.043   3.896  0.1883 -0.2505  0.2594
  739W        W  739   7.159   6.388   2.807 -0.1901 -0.1937 -0.1131
  740W        W  740   6.049   4.198   1.461  0.1680 -0.2380 -0.1566
  741W        W  741   3.680   2.591   2.859  0.2853  0.1988 -0.1645
  742W        W  742   0.437   5.869   3.516 -0.3839  0.2362  0.2226
  743W        W  743   3.435   1.385   3.846 -0.2747  0.0011  0.2906
  744W        W  744   1.906   5.898   3.912 -0.1914 -0.2174  0.0222
  745W        W  745   7.302   3.345   6.618  0.1444 -0.0932  0.0099
  746W        W  746   2.738   1.923   1.125 -0.2977  0.0991 -0.0759
  747W        W  747   5.238   2.403   2.543 -0.3186  0.0158  0.0554
  748W        W  748   2.869   5.071   4.151  0.0347  0.1822  0.1280
  749W        W  749   0.862   5.139   2.274  0.0396  0.3328 -0.0089
  750W        W  750   2.240   6.895   2.063  0.0924  0.1832 -0.1646
  751W        W  751   1.255   6.344   6.379 -0.0351  0.0538  0.1946
  752W        W  752   0.337   1.869   0.647 -0.0210 -0.3019  0.1144
  753W        W  753   4.489   4.113   0.436  0.1210  0.0525 -0.2053
  754W        W  754   2.243   1.455   4.348 -0.4143  0.0267 -0.0172
  755W        W  755   0.950   4.884   3.653  0.1302 -0.2451 -0.3013
  756W        W  756   6.977   7.193   0.600  0.3140 -0.2678 -0.1146
  757W        W  757   4.552   0.268   2.920  0.3657 -0.0147 -0.1573
  758W        W  758   1.451   6.771   0.043 -0.1117 -0.3163  0.0717
  759W        W  759   3.337   0.048   2.522  0.2898  0.0755 -0.3164
  760W        W  760   5.061   5.086   5.182  0.2347  0.0530 -0.0048
  761W        W  761   6.574   0.456   0.345  0.0371 -0.2058 -0.0709
  762W        W  762   4.407   4.361   3.494  0.3681 -0.0917 -0.2835
  763W        W  763   0.633   4.162   7.130 -0.4602 -0.1786  0.0039
  764W        W  764   0.633   5.169   5.109 -0.3115 -0.1163 -0.1918
  765W        W  765   3.746   4.733   4.071  0.0032  0.2195 -0.0039
  766W        W  766   0.259   2.969   6.286  0.0466  0.2148  0.2452
  767W        W  767   4.302   3.788   7.026 -0.0921  0.0215  0.1392
  768W        W  768   4.251   1.981   2.300 -0.2623 -0.1357  0.1893
  769W        W  769   6.813   1.849   5.656 -0.0302 -0.2219  0.0546
  770W        W  770   3.549   4.741   5.579  0.1968 -0.1288 -0.2123
  771W        W  771   7.026   5.468   5.670 -0.1795 -0.0820  0.0067
  772W        W  772   1.465   5.894   3.496 -0.0074  0.0588  0.2092
  773W        W  773   2.934   7.066   4.740 -0.0242  0.1807  0.0998
  774W        W  774   6.819   2.784   2.099  0.0672 -0.0016 -0.0611
  775W        W  775   2.718   3.594   5.002 -0.1127  0.1511 -0.2191
  776W        W  776   6.184   5.401   4.577 -0.0944  0.0806 -0.1911
  777W        W  777   6.399   6.262   6.615 -0.1330  0.0519 -0.0516
  778W        W  778   3.167   0.489   3.770  0.1121  0.1797  0.0916
  779W        W  779   6.167   3.959   4.221 -0.3504  0.2109 -0.2747
  780W        W  780   1.902   0.225   5.396 -0.0481  0.0010 -0.1825
  781W        W  781   4.905   3.097   5.868 -0.1389 -0.0547  0.0482
  782W        W  782   5.237   4.668   6.895 -0.2345  0.0370 -0.3136
  783W        W  783   0.388   7.246   7.196  0.1170 -0.1432  0.4811
  784W        W  784   4.956   0.987   4.235  0.0470 -0.3514 -0.2849
  785W        W  785   2.395   0.078   4.219 -0.1067 -0.2228  0.1007
  786W        W  786   1.626   1.938   0.054  0.2952  0.2924 -0.1805
  787W        W  787   1.277   4.567   1.191 -0.1894  0.2564 -0.0228
  788W        W  788   1.275   6.847   1.405  0.0032 -0.2309 -0.0257
  789W        W  789   5.712   1.090   1.363  0.1218  0.1030  0.0117
  790W        W  790   0.564   1.800   4.237 -0.2695 -0.0267 -0.0818
  791W        W  791   5.053   0.530   4.095 -0.1229 -0.2917  0.0261
  792W        W  792   2.832   2.250   2.552 -0.1133  0.0465  0.0871
  793W        W  793   5.863   4.719   1.474  0.1126  0.0368 -0.1504
  794W        W  794   4.818   6.329   2.733  0.1036 -0.1181 -0.0474
  795W        W  795   3.587   5.776   0.376  0.0523 -0.0833 -0.1836
  796W        W  796   1.603   3.319   6.790 -0.0692  0.1059 -0.0656
  797W        W  797   4.229   3.634   6.270 -0.1342  0.1172 -0.0415
  798W        W  798   5.679   2.440   5.943 -0.3428  0.1542  0.1470
  799W        W  799   2.202   4.120   6.116 -0.1721  0.1051  0.2002
  800W        W  800   2.208   3.714   7.220 -0.1541  0.1366  0.2374
  801W        W  801   6.695   2.051   5.244  0.0961  0.3987  0.1203
  802W        W  802   5.858   5.280   1.495 -0.1801 -0.1512 -0.1929
  803W        W  803   1.253   4.896   6.217 -0.1272 -0.3635  0.1360
  804W        W  804   3.431   0.509   6.217  0.0549 -0.3566 -0.2024
  805W        W  805   2.083   5.153   7.104 -0.1898 -0.0605 -0.1848
  806W        W  806   5.837   1.000   2.233 -0.2857  0.1676 -0.0011
  807W        W  807   6.055   4.278   3.821  0.1267  0.0989 -0.1361
  808W        W  808   3.004   6.449   3.235 -0.0583  0.2813  0.2779
  809W        W  809   5.993   1.611   1.132  0.3284  0.1246  0.3727
  810W        W  810   1.938   0.431   0.735 -0.3303  0.1659  0.1691
  811W        W  811   4.402   2.135   1.880  0.2014  0.0071  0.0403
  812W        W  812   3.780   6.391   2.133 -0.3513 -0.0290  0.0078
  813W        W  813   4.568   6.008   5.840  0.2324  0.0294 -0.3770
  814W        W  814   2.180   7.022   3.912 -0.2467  0.1642  0.1233
  815W        W  815   1.593   6.424   3.291 -0.0833 -0.0223 -0.0762
  816W        W  816   1.337   7.162   6.194  0.4741 -0.2960  0.0339
  817W        W  817   2.570   2.491   4.109  0.0741  0.0389  0.0777
  818W        W  818   5.877   2.900   5.778  0.2281  0.0549 -0.0279
  819W        W  819   7.177   0.433   2.855 -0.0184 -0.1005  0.0883
  820W        W  820   0.701   0.363   7.253 -0.0461 -0.0350 -0.0867
  821W        W  821   1.603   5.233   6.925 -0.3491 -0.0692 -0.0122
  822W        W  822   5.824   6.844   2.610 -0.0421 -0.3221  0.2429
  823W        W  823   2.276   5.097   4.008 -0.0059 -0.0014  0.0571
  824W        W  824   2.793   4.022   2.600  0.3429  0.0100 -0.1346
  825W        W  825   0.413   5.981   1.987  0.0889 -0.0703 -0.2838
  826W        W  826   4.874   3.936   2.750 -0.2250  0.0789 -0.2566
  827W        W  827   0.314   4.385   5.901 -0.1833  0.2060  0.1190
  828W        W  828   0.378   0.299   3.592  0.2027 -0.0837  0.1192
  829W        W  829   0.478   2.891   0.806 -0.0420 -0.1212  0.1475
  830W        W  830   5.935   4.547   7.027 -0.0230  0.2784 -0.0695
  831W        W  831   3.893   0.344   6.447  0.1799  0.0424  0.3377
  832W        W  832   4.567   1.213   3.743 -0.0043 -0.0889  0.4974
  833W        W  833   5.437   4.262   5.995 -0.2146 -0.1397  0.2389
  834W        W  834   6.945   0.083   2.033  0.3229  0.2508 -0.0076
  835W        W  835   5.766   5.278   3.739 -0.3675 -0.2893 -0.0866
  836W        W  836   2.393   0.257   5.111  0.0992  0.0349  0.0109
  837W        W  837   2.176   2.478   5.232  0.1449  0.1301 -0.1154
  838W        W  838   7.077   6.666   5.704  0.0846  0.2362  0.2217
  839W        W  839   5.840   1.189   4.717  0.0518  0.4027  0.2543
  840W        W  840   3.648   6.530   6.509  0.1290 -0.1860  0.1223
  841W        W  841   0.133   4.891   6.157 -0.1843 -0.4118 -0.0567
  842W        W  842   5.793   2.563   4.348 -0.1722 -0.1723  0.0342
  843W        W  843   1.019   2.557   1.573 -0.1239 -0.0753 -0.1058
  844W        W  844   1.096   3.201   0.289  0.0484 -0.0308 -0.0993
  845W        W  845   7.010   3.786   0.189 -0.1267  0.1918 -0.0310
  846W        W  846   5.122   1.357   0.841  0.0058  0.2126 -0.0323
  847W        W  847   3.153   5.419   4.034 -0.0246 -0.0948 -0.1045
  848W        W  848   5.747   4.556   3.333  0.0825 -0.2760  0.0621
  849W        W  849   5.277   1.958   1.340  0.0258 -0.1833  0.0066
  850W        W  850   0.247   4.780   0.261 -0.1452 -0.3037 -0.2389
  851W        W  851   4.326   0.582   0.156  0.3153 -0.3699  0.0671
  852W        W  852   1.420   5.496   1.728 -0.0253 -0.1494  0.1629
  853W        W  853   0.256   0.337   2.580 -0.0020  0.2023  0.0186
  854W        W  854   5.744   5.557   6.323 -0.1806 -0.1984  0.2196
  855W        W  855   3.056   4.440   3.231  0.3375  0.0746 -0.1239
  856W        W  856   4.990   1.554   4.358 -0.3117 -0.0091  0.1386
  857W        W  857   4.762   5.146   6.459 -0.2808 -0.0420  0.1355
  858W        W  858   1.376   7.290   4.816  0.0201  0.1131  0.2514
  859W        W  859   1.377   1.938   4.330  0.0582 -0.4435 -0.2898
  860W        W  860   0.026   4.116   7.216  0.0877  0.2036  0.3480
  861W        W  861   3.827   4.241   2.055  0.0761 -0.1137  0.1112
  862W        W  862   1.728   4.494   0.243  0.0743 -0.0558  0.0663
  863W        W  863   1.052   1.592   1.507 -0.1549 -0.1296 -0.1969
  864W        W  864   1.278   4.159   4.531 -0.0451 -0.0786  0.1077
  865W        W  865   7.188   2.128   5.451 -0.0602  0.1121 -0.1221
  866W        W  866   5.250   5.722   3.036 -0.1555 -0.1620 -0.1628
  867W        W  867   7.243   1.594   4.639  0.0371 -0.1780 -0.0071
  868W        W  868   6.328   5.359   6.380 -0.2946 -0.1776 -0.1070
  869W        W  869   1.039   7.074   3.148 -0.0722 -0.2322 -0.3187
  870W        W  870   1.231   4.396   0.271 -0.1626  0.0849 -0.0752
  871W        W  871   3.005   2.420   4.537  0.1082  0.1921  0.0468
  872W        W  872   5.611   2.476   4.969  0.1838  0.4536 -0.1405
  873W        W  873   4.919   6.552   4.843  0.0842 -0.2005  0.1378
  874W        W  874   5.174   3.614   2.474 -0.0133 -0.1180 -0.1785
  875W        W  875   1.106   1.324   6.581 -0.3520  0.0377 -0.2150
  876W        W  876   0.409   6.275   0.460  0.0981  0.3189  0.0451
  877W        W  877   1.462   4.367   6.749 -0.1281 -0.2409 -0.0023
  878W        W  878   0.680   5.777   3.090  0.1197  0.1223 -0.0894
  879W        W  879   5.699   5.989   6.716  0.1209  0.2723 -0.3491
  880W        W  880   2.562   3.834   6.274  0.0870  0.0880  0.0827
  881W        W  881   1.463   5.869   5.290 -0.3495 -0.2341  0.2043
  882W        W  882   2.750   2.154   3.845 -0.0560  0.0450 -0.2808
  883W        W  883   2.343   0.284   7.256 -0.0054  0.0017  0.0564
  884W        W  884   2.239   6.638   4.618  0.0682  0.2140  0.2036
  885W        W  885   6.807   5.414   6.518  0.1482 -0.0193  0.0722
  886W        W  886   1.931   6.863   0.817 -0.1295 -0.3414  0.0074
  887W        W  887   4.536   0.328   3.414  0.2202  0.3398 -0.1085
  888W        W  888   4.971   5.052   0.082  0.1733  0.0076  0.1639
  889W        W  889   0.332   4.133   5.459  0.1813  0.1731  0.0939
  890W        W  890   3.501   5.047   2.385  0.0407  0.0868 -0.1206
  891W        W  891   2.108   2.398   1.670 -0.0989 -0.0334 -0.0137
  892W        W  892   4.206   5.423   4.468 -0.3669  0.2499 -0.1562
  893W        W  893   6.768   0.197   7.207  0.5155  0.1505  0.0223
  894W        W  894   6.477   0.903   2.517  0.0538  0.1628  0.0295
  895W        W  895   0.611   2.099   2.646  0.0710 -0.0244  0.2521
  896W        W  896   6.288   2.869   0.359 -0.0719 -0.0081  0.2293
  897W        W  897   5.784   3.023   1.051 -0.2761  0.1315 -0.0637
  898W        W  898   6.156   4.044   3.309 -0.2620  0.0589  0.2640
  899W        W  899   6.000   5.012   4.210  0.0773  0.0495  0.3773
  900W        W  900   4.377   5.690   2.723  0.0452  0.0447  0.2546
  901W        W  901   2.945   5.806   3.862  0.0713  0.0642  0.4204
  902W        W  902   6.772   5.272   1.656 -0.0237  0.2401  0.0858
  903W        W  903   1.674   0.480   4.873  0.0782 -0.1656 -0.0156
  904W        W  904   7.160   2.676   5.595 -0.1600 -0.2189 -0.1598
  905W        W  905   1.322   3.688   2.193 -0.1047  0.0519  0.1026
  906W        W  906   2.550   5.794   2.630  0.0510 -0.1772 -0.0307
  907W        W  907   3.705   4.326   0.886 -0.1628  0.1900  0.0306
  908W        W  908   6.136   6.943   3.053  0.2267  0.0789  0.1084
  909W        W  909   4.125   2.455   2.202 -0.0958 -0.0472  0.3756
  910W        W  910   5.527   5.545   6.739  0.0690  0.1123 -0.4522
  911W        W  911   6.804   1.294   2.919 -0.0312 -0.0073 -0.0889
  912W        W  912   3.908   6.349   2.839 -0.1290  0.3780  0.0035
  913W        W  913   3.956   4.719   3.575  0.0549  0.1768 -0.1311
  914W        W  914   2.285   1.127   4.982 -0.2764 -0.0951 -0.0673
  915W        W  915   2.286   4.123   4.471  0.1757  0.3452 -0.0619
  916W        W  916   3.032   5.606   2.605 -0.0665 -0.1750 -0.0068
  917W        W  917   4.586   3.466   6.031  0.0449 -0.2048  0.1973
  918W        W  918   6.192   3.408   4.720  0.1078  0.1431  0.2461
  919W        W  919   0.947   5.877   6.337  0.1775  0.3522  0.0720
  920W        W  920   3.849   5.828   0.811  0.0543 -0.2921 -0.2795
  921W        W  921   4.111   2.518   1.706 -0.1117  0.1166  0.1935
  922W        W  922   0.564   0.395   2.119 -0.1106  0.1765 -0.2525
  923W        W  923   6.940   6.890   4.171  0.1722  0.0065 -0.2510
  924W        W  924   2.954   1.461   0.938 -0.2491  0.0917 -0.0406
  925W        W  925   4.432   2.359   2.693  0.2362  0.1817  0.3100
  926W        W  926   0.830   7.056   5.860 -0.0331  0.1372 -0.1473
  927W        W  927   7.121   4.542   0.313 -0.1308 -0.1862 -0.0656
  928W        W  928   2.283   2.582   0.941  0.2745 -0.1357 -0.0381
  929W        W  929   3.264   5.851   7.116  0.0313 -0.1567  0.4093
  930W        W  930   5.797   6.312   4.375 -0.1873  0.0614  0.0614
  931W        W  931   0.634   0.442   0.467 -0.0455 -0.0169 -0.1166
  932W        W  932   3.778   6.370   5.362 -0.1843 -0.1339  0.1087
  933W        W  933   3.548   5.128   3.783 -0.2862  0.1423 -0.1570
  934W        W  934   4.913   1.049   0.515 -0.0804  0.0142  0.0328
  935W        W  935   7.135   2.455   3.033  0.2164  0.2072 -0.0724
  936W        W  936   4.084   4.943   1.422 -0.1423 -0.0792 -0.0451
  937W        W  937   2.551   2.913   2.056  0.0240 -0.0581  0.1523
  938W        W  938   0.831   1.658   3.518 -0.0011 -0.1049  0.1471
  939W        W  939   0.270   5.472   1.722 -0.0728  0.1662 -0.0182
  940W        W  940   4.888   0.355   0.158 -0.1139  0.1389  0.1229
  941W        W  941   5.087   5.030   2.498  0.3084  0.1568 -0.1052
  942W        W  942   0.005   7.129   2.352 -0.3329 -0.3369  0.0254
  943W        W  943   3.109   3.734   1.271 -0.4735 -0.2138  0.2388
  944W        W  944   6.630   5.885   7.244  0.0442 -0.0401  0.0005
  945W        W  945   6.384   1.771   4.397 -0.1227 -0.2604 -0.1580
  946W        W  946   1.253   6.704   2.910 -0.3286 -0.3021 -0.0315
  947W        W  947   6.780   3.991   4.313  0.0551 -0.0911  0.0050
  948W        W  948   3.624   7.230   1.018  0.1295  0.1877  0.0440
  949W        W  949   5.655   6.199   3.872 -0.1513  0.0212 -0.1698
  950W        W  950   1.844   0.019   4.950  0.3416 -0.2072  0.0978
  951W        W  951   6.284   0.070   3.877  0.0344  0.0242 -0.4847
  952W        W  952   3.741   6.577   3.619  0.1903  0.2706 -0.2944
  953W        W  953   4.762   6.815   1.451 -0.2322 -0.1880 -0.1519
  954W        W  954   2.623   7.008   5.206  0.1118  0.2689 -0.0194
  955W        W  955   2.593   7.107   2.564  0.0734 -0.0038  0.2929
  956W        W  956   4.088   3.882   4.457 -0.2932 -0.0384 -0.1175
  957W        W  957   2.782   5.801   4.870  0.1672 -0.0295 -0.0931
  958W        W  958   5.393   7.076   4.016 -0.0248 -0.3344  0.2353
  959W        W  959   6.871   5.525   5.226 -0.0218  0.2671 -0.1377
  960W        W  960   6.384   3.089   1.893  0.0564  0.1475  0.1411
  961W        W  961   5.153   6.192   3.120 -0.0768 -0.0479 -0.0328
  962W        W  962   2.191   3.899   6.641  0.2205  0.1483 -0.0378
  963W        W  963   0.277   4.684   5.276  0.1213 -0.2116  0.3091
  964W        W  964   5.605   3.337   6.880 -0.0711 -0.1211  0.0594
  965W        W  965   0.516   1.096   2.441 -0.2798 -0.1002  0.0889
  966W        W  966   5.081   4.953   3.187 -0.1091 -0.0709  0.0965
  967W        W  967   6.348   0.424   4.694  0.2082 -0.1005 -0.2770
  968W        W  968   1.818   1.127   4.179 -0.0660 -0.1525  0.0769
  969W        W  969   0.815   4.627   5.119  0.0882  0.1777  0.0434
  970W        W  970   6.776   6.073   6.322  0.1584  0.1970 -0.0098
  971W        W  971   6.196   2.765   7.107 -0.1886  0.0971 -0.0967
  972W        W  972   4.774   3.241   2.239 -0.1068  0.0386 -0.1962
  973W        W  973   5.182   1.831   5.172  0.3113 -0.2211 -0.1600
  974W        W  974   3.380   5.976   4.076  0.1044  0.0992  0.0056
  975W        W  975   2.246   1.747   1.291 -0.0918 -0.0063 -0.0830
  976W        W  976   3.805   1.107   6.812 -0.1028 -0.2461 -0.0822
  977W        W  977   6.499   6.276   3.589 -0.2818  0.2937 -0.0248
  978W        W  978   3.008   6.458   0.995 -0.0993  0.3904 -0.2020
  979W        W  979   7.126   6.053   7.309 -0.2770 -0.2468 -0.0630
  980W        W  980   6.429   3.048   3.303  0.0254  0.0385  0.0740
  981W        W  981   2.850   3.448   4.329 -0.1351 -0.0170  0.1974
  982W        W  982   6.118   2.396   6.115 -0.0743  0.0758 -0.1397
  983W        W  983   4.638   4.576   3.077  0.0891  0.2122  0.1477
  984W        W  984   0.583   6.818   3.421 -0.0506 -0.1052 -0.0262
  985W        W  985   6.930   1.775   6.136 -0.0065 -0.2408  0.0895
  986W        W  986   5.517   4.264   6.910  0.0361  0.0383  0.0095
  987W        W  987   7.002   2.921   4.886 -0.0878 -0.0274  0.2005
  988W        W  988   7.190   6.586   6.689  0.1429  0.0258  0.2201
  989W        W  989   0.938   6.739   7.170 -0.0179  0.0662  0.0728
  990W        W  990   5.799   5.052   6.360 -0.1239  0.3089  0.1642
  991W        W  991   1.759   5.451   5.482  0.2217  0.0223  0.2124
  992W        W  992   3.722   5.815   1.781 -0.0901  0.1397 -0.0083
  993W        W  993   3.074   6.357   7.191  0.1652 -0.3662 -0.3166
  994W        W  994   3.102   2.364   0.523  0.2431 -0.0788  0.1075
  995W        W  995   1.285   5.908   3.983 -0.0153 -0.1451 -0.3370
  996W        W  996   4.504   6.506   4.163  0.1045  0.0255 -0.3544
  997W        W  997   2.720   0.268   3.951  0.0284 -0.1510  0.3063
  998W        W  998   1.500   6.927   0.581  0.0011 -0.1425  0.1537
  999W        W  999   4.482   2.893   2.460  0.0572 -0.1553 -0.1168
 1000W        W 1000   0.865   2.519   0.585 -0.0516  0.0130 -0.0537
 1001W        W 1001   5.410   3.376   5.212  0.1399 -0.2075  0.0300
 1002W        W 1002   2.040   2.210   0.000  0.3530  0.2220  0.1011
 1003W        W 1003   2.582   6.446   7.087  0.0309  0.0377  0.0365
 1004W        W 1004   1.311   0.838   5.060 -0.4367  0.2091 -0.0058
 1005W        W 1005   4.317   2.897   0.599  0.0002 -0.0197  0.0752
 1006W        W 1006   4.367   2.947   1.696  0.1459 -0.0671 -0.3843
 1007W        W 1007   4.090   4.448   0.486 -0.0355  0.3048  0.0620
 1008W        W 1008   3.045   4.475   0.207 -0.2387  0.2217 -0.2262
 1009W        W 1009   6.155   3.235   2.312 -0.0230  0.2298 -0.3092
 1010W        W 1010   3.114   0.607   4.841 -0.0683 -0.1996 -0.5427
 1011W        W 1011   4.868   5.633   7.011 -0.0019 -0.4106  0.3548
 1012W        W 1012   3.548   5.260   0.467 -0.1062  0.0883 -0.0244
 1013W        W 1013   2.989   5.523   5.921  0.2698  0.0492 -0.1147
 1014W        W 1014   4.458   0.644   2.151 -0.2242 -0.2087 -0.1766
 1015W        W 1015   4.801   6.657   2.373 -0.0123  0.0140  0.0651
 1016W        W 1016   0.857   6.426   4.671 -0.1353 -0.1830  0.2234
 1017W        W 1017   2.596   3.141   4.702 -0.0477  0.3628 -0.2072
 1018W        W 1018   1.788   1.576   1.483 -0.2113  0.0191  0.1538
 1019W        W 1019   3.679   5.332   1.563 -0.3113 -0.0500  0.0892
 1020W        W 1020   2.910   3.105   2.958  0.0932 -0.2384  0.0705
 1021W        W 1021   5.174   1.143   1.682 -0.1726  0.1978  0.0059
 1022W        W 1022   1.203   3.006   6.589  0.1234  0.0577  0.0853
 1023W        W 1023   3.318   6.219   3.611 -0.0782  0.0752  0.0035
 1024W        W 1024   6.628   4.003   3.386 -0.0536  0.3208  0.0699
 1025W        W 1025   3.128   3.260   2.468 -0.0320 -0.1361  0.0869
 1026W        W 1026   5.477   7.312   3.406  0.2232 -0.1084  0.2719
 1027W        W 1027   5.703   6.711   4.109 -0.0572 -0.5431 -0.0660
 1028W        W 1028   0.090   5.276   4.043  0.0064  0.0859  0.0530
 1029W        W 1029   2.950   3.445   0.202 -0.0132 -0.0621 -0.0907
 1030W        W 1030   6.439   0.830   5.247 -0.2583 -0.1450 -0.2317
 1031W        W 1031   1.036   7.295   0.661  0.3726 -0.2182  0.1959
 1032W        W 1032   5.537   2.127   6.923 -0.1769 -0.2760 -0.1079
 1033W        W 1033   6.957   0.892   5.394  0.0670 -0.2193 -0.1143
 1034W        W 1034   0.872   6.597   5.154 -0.1495 -0.0392 -0.0054
 1035W        W 1035   6.450   2.627   4.481 -0.0188 -0.1268  0.1030
 1036W        W 1036   2.268   5.454   5.303 -0.0590 -0.1079  0.0582
 1037W        W 1037   0.063   0.746   4.235  0.0492 -0.1146 -0.1083
 1038W        W 1038   1.387   7.157   3.593 -0.0233  0.1958  0.1345
 1039W        W 1039   6.455   0.891   0.004 -0.0658 -0.1851  0.1470
 1040W        W 1040   3.162   6.538   1.490 -0.2920  0.1308 -0.1510
 1041W        W 1041   7.229   3.837   6.679 -0.2196 -0.1481  0.2159
 1042W        W 1042   5.934   1.885   6.552 -0.0752 -0.0238  0.2796
 1043W        W 1043   6.901   6.694   2.502 -0.0828 -0.1393 -0.2304
 1044W        W 1044   2.570   2.073   6.501 -0.1136  0.0676 -0.0523
 1045W        W 1045   5.955   4.280   4.652 -0.1013  0.0140 -0.2149
 1046W        W 1046   2.065   4.099   4.944  0.1111 -0.1470  0.1499
 1047W        W 1047   6.666   3.273   6.098  0.0158  0.3214 -0.0666
 1048W        W 1048   5.211   4.688   3.941 -0.0315 -0.0183 -0.0346
 1049W        W 1049   4.932   3.302   5.309 -0.2208 -0.3399  0.1384
 1050W        W 1050   2.907   0.264   1.667  0.3790 -0.1790  0.2709
 1051W        W 1051   4.575   2.074   6.848  0.1220 -0.3318 -0.1861
 1052W        W 1052   3.047   5.156   2.655 -0.2616 -0.0721 -0.1111
 1053W        W 1053   6.146   4.974   6.751  0.0276  0.0299 -0.1071
 1054W        W 1054   4.279   4.617   1.821  0.0226  0.1567 -0.1622
 1055W        W 1055   3.423   2.296   6.972 -0.1105  0.0488  0.2435
 1056W        W 1056   4.093   3.257   2.651 -0.3337 -0.0154 -0.0699
 1057W        W 1057   6.442   7.233   6.985 -0.1273  0.0914  0.1702
 1058W        W 1058   1.222   6.291   5.460 -0.1558  0.0841  0.1855
 1059W        W 1059   3.361   6.204   1.922 -0.1441  0.2683 -0.0769
 1060W        W 1060   4.283   0.730   0.969 -0.0146 -0.1539  0.0049
 1061W        W 1061   5.237   4.447   6.454 -0.3501 -0.3488  0.0414
 1062W        W 1062   6.922   3.844   3.872  0.1094  0.1932 -0.0507
 1063W        W 1063   6.899   2.955   6.995 -0.0423 -0.3013 -0.0567
 1064W        W 1064   3.492   1.610   6.184  0.0074 -0.0182 -0.0125
 1065W        W 1065   3.978   4.976   4.911  0.0999 -0.7273  0.1016
 1066W        W 1066   2.994   1.793   6.427 -0.0328 -0.4422 -0.1591
 1067W        W 1067   5.216   4.610   5.147  0.0964 -0.0670 -0.2212
 1068W        W 1068   1.611   0.678   5.412 -0.0163  0.1490  0.2209
 1069W        W 1069   5.016   3.489   1.898  0.0609 -0.5068  0.0833
 1070W        W 1070   4.995   2.760   2.275 -0.2243 -0.1509 -0.2590
 1071W        W 1071   1.299   0.195   1.429  0.1811 -0.0010  0.3181
 1072W        W 1072   0.938   4.148   5.507 -0.0488  0.0018 -0.4050
 1073W        W 1073   2.908   3.677   1.816  0.1357 -0.0944  0.1278
 1074W        W 1074   1.527   2.313   5.369 -0.2093  0.1077  0.1225
 1075W        W 1075   0.081   2.621   4.586  0.0560 -0.0079 -0.0729
 1076W        W 1076   6.192   0.514   3.100 -0.1123 -0.1126 -0.1175
 1077W        W 1077   4.419   3.156   5.273  0.0610 -0.0438  0.0061
 1078W        W 1078   3.001   0.457   4.314 -0.3318  0.0085  0.2880
 1079W        W 1079   3.451   2.699   3.285  0.0510 -0.1400  0.1441
 1080W        W 1080   3.164   6.956   1.003  0.3479  0.1385  0.2572
 1081W        W 1081   0.942   3.981   3.759  0.0873 -0.2006  0.2159
 1082W        W 1082   4.968   6.863   1.933 -0.2617 -0.0734 -0.0151
 1083W        W 1083   6.959   1.398   4.247 -0.1114  0.1085 -0.0776
 1084W        W 1084   4.707   0.984   0.971  0.0696 -0.2265  0.0621
 1085W        W 1085   3.130   1.714   1.462  0.1826  0.2996 -0.0443
 1086W        W 1086   3.609   0.532   1.986  0.0212 -0.1858 -0.2368
 1087W        W 1087   1.752   2.727   6.124  0.1501  0.1529  0.0136
 1088W        W 1088   1.312   0.648   1.636  0.3275 -0.1434  0.0329
 1089W        W 1089   6.333   7.319   3.369 -0.1287  0.4093  0.0354
 1090W        W 1090   3.596   4.219   0.398  0.2247 -0.1185  0.2393
 1091W        W 1091   5.294   1.653   1.804  0.2138 -0.0452 -0.2473
 1092W        W 1092   6.746   6.091   5.870  0.1982 -0.1396 -0.0320
 1093W        W 1093   5.919   2.202   0.825  0.1605 -0.1561  0.0350
 1094W        W 1094   2.028   7.177   3.018  0.2777  0.3028 -0.1995
 1095W        W 1095   1.020   5.482   6.920  0.2478  0.1537  0.1806
 1096W        W 1096   2.451   1.951   5.229  0.1183  0.3120 -0.0781
 1097W        W 1097   2.067   0.413   2.370  0.2884  0.0083  0.0325
 1098W        W 1098   5.385   6.417   6.651 -0.1257 -0.2191 -0.1116
 1099W        W 1099   3.355   5.494   6.235  0.2562  0.5241 -0.2165
 1100W        W 1100   5.396   7.113   1.476  0.0858 -0.1900  0.2284
 1101W        W 1101   1.715   0.088   7.294  0.2456  0.0669 -0.1745
 1102W        W 1102   0.602   0.545   5.455 -0.0339  0.0369  0.0104
 1103W        W 1103   2.176   7.070   5.306 -0.1242 -0.2258  0.1195
 1104W        W 1104   4.710   6.800   0.478  0.1645  0.0775 -0.1012
 1105W        W 1105   7.124   5.788   6.552 -0.0311  0.0742 -0.0827
 1106W        W 1106   2.590   6.610   6.543  0.5264 -0.1010  0.2903
 1107W        W 1107   5.397   3.683   4.465 -0.0782 -0.1852  0.1597
 1108W        W 1108   5.291   0.231   4.838  0.0684 -0.0025  0.1239
 1109W        W 1109   5.764   2.121   1.312 -0.2135  0.1713  0.0295
 1110W        W 1110   6.416   2.818   6.176  0.1321 -0.2397  0.0360
 1111W        W 1111   5.644   6.278   7.209  0.0064 -0.1536 -0.0898
 1112W        W 1112   4.748   2.116   3.837  0.0395 -0.0749 -0.2118
 1113W        W 1113   1.465   1.027   6.757 -0.1008  0.2077 -0.1243
 1114W        W 1114   6.166   5.492   3.494  0.0736  0.1396 -0.1184
 1115W        W 1115   7.035   6.763   3.083 -0.0216  0.0619 -0.1812
 1116W        W 1116   2.232   4.956   1.145 -0.1104 -0.2214  0.1160
 1117W        W 1117   2.077   6.223   5.998  0.1528  0.3952  0.1864
 1118W        W 1118   5.813   3.665   3.645 -0.0852  0.2331 -0.0047
 1119W        W 1119   4.111   3.658   4.919  0.0208  0.0497  0.1938
 1120W        W 1120   1.808   0.985   3.728 -0.3061  0.0456  0.2221
 1121W        W 1121   2.173   2.805   4.871 -0.3662  0.0739 -0.2231
 1122W        W 1122   5.749   3.663   6.444 -0.0100  0.1781 -0.1335
 1123W        W 1123   6.682   4.669   0.793  0.0634 -0.1634 -0.1390
 1124W        W 1124   6.982   2.479   1.625  0.0272  0.0827 -0.0124
 1125W        W 1125   7.129   4.184   3.164 -0.2586  0.0582  0.2393
 1126W        W 1126   4.812   3.941   1.676 -0.1509 -0.2260  0.1519
 1127W        W 1127   3.232   1.483   4.882  0.2345  0.1056 -0.2033
 1128W        W 1128   3.752   3.774   7.102 -0.1310 -0.2561 -0.1447
 1129W        W 1129   3.135   0.109   0.761 -0.5026 -0.0608 -0.0441
 1130W        W 1130   0.053   3.427   4.901 -0.2387 -0.0406  0.2980
 1131W        W 1131   1.787   4.693   1.188  0.0337 -0.2914 -0.2163
 1132W        W 1132   4.348   5.884   6.283  0.3794  0.1030  0.0050
 1133W        W 1133   4.943   7.018   5.694 -0.0730 -0.1876  0.1974
 1134W        W 1134   2.322   0.513   0.432 -0.1645  0.2978 -0.3318
 1135W        W 1135   1.021   4.723   1.889 -0.2709  0.2909 -0.2064
 1136W        W 1136   2.409   1.723   5.694  0.1251 -0.1384 -0.0552
 1137W        W 1137   4.349   6.575   3.583 -0.2130  0.1900  0.0474
 1138W        W 1138   1.005   5.363   6.057 -0.0241  0.0754 -0.0947
 1139W        W 1139   3.305   7.220   6.302  0.1091  0.2874 -0.0580
 1140W        W 1140   5.623   4.326   1.247 -0.1623 -0.1828 -0.0870
 1141W        W 1141   1.491   3.094   2.139  0.1847  0.0564  0.1010
 1142W        W 1142   7.271   6.248   0.896 -0.1944  0.4001  0.0199
 1143W        W 1143   1.812   0.465   3.591 -0.2882  0.0619 -0.1287
 1144W        W 1144   7.254   0.995   1.079  0.3002  0.0485  0.3587
 1145W        W 1145   5.561   2.618   2.006  0.0431  0.1212  0.3109
 1146W        W 1146   5.181   5.490   3.975 -0.0199  0.2098  0.0603
 1147W        W 1147   0.295   1.851   3.469  0.1117 -0.0504 -0.1048
 1148W        W 1148   6.467   5.765   2.540  0.0234 -0.0772 -0.1370
 1149W        W 1149   6.857   6.995   1.644 -0.0911  0.0532 -0.0715
 1150W        W 1150   4.448   7.231   5.630 -0.1459 -0.0932  0.0026
 1151W        W 1151   6.107   6.786   2.026 -0.1043  0.0965 -0.0493
 1152W        W 1152   3.861   1.765   5.123 -0.2098  0.3697 -0.0737
 1153W        W 1153   1.353   3.978   0.040 -0.1492 -0.0123  0.1217
 1154W        W 1154   3.120   1.868   2.346 -0.4096 -0.0430 -0.0934
 1155W        W 1155   0.299   5.962   5.681 -0.1385 -0.4041 -0.3652
 1156W        W 1156   4.225   4.876   4.439  0.0319  0.0027 -0.3443
 1157W        W 1157   5.912   0.587   6.700  0.2577  0.3875  0.1807
 1158W        W 1158   0.979   6.364   1.846 -0.0857 -0.1246 -0.0457
 1159W        W 1159   4.714   4.673   5.207 -0.3012  0.2470  0.1010
 1160W        W 1160   7.148   3.259   1.426  0.0640  0.0593 -0.0960
 1161W        W 1161   4.776   0.876   2.926  0.0440  0.0737  0.1090
 1162W        W 1162   0.477   2.824   4.343  0.1707 -0.0449  0.2360
 1163W        W 1163   6.581   0.923   5.773  0.1128 -0.0497 -0.1822
 1164W        W 1164   0.087   1.863   4.200 -0.0746 -0.1322  0.2127
 1165W        W 1165   6.717   3.780   0.666  0.0453 -0.2198  0.2351
 1166W        W 1166   2.172   0.262   4.680  0.5141  0.3508  0.1328
 1167W        W 1167   1.350   4.676   3.404  0.0811 -0.0845 -0.1612
 1168W        W 1168   5.740   6.262   1.131 -0.1380  0.0094  0.0455
 1169W        W 1169   4.428   3.650   0.230 -0.0445 -0.0667 -0.0695
 1170W        W 1170   5.755   1.809   3.230  0.0391  0.2791 -0.0894
 1171W        W 1171   7.275   1.598   5.756  0.0412  0.1758  0.1485
 1172W        W 1172   1.142   5.927   1.542 -0.2016  0.1048 -0.0295
 1173W        W 1173   6.346   6.400   6.087  0.2296 -0.0576  0.0192
 1174W        W 1174   4.767   5.236   5.591 -0.2955  0.2227  0.1979
 1175W        W 1175   6.669   4.991   6.764 -0.3474  0.0591 -0.0349
 1176W        W 1176   4.648   5.665   4.698  0.4188  0.0569  0.0166
 1177W        W 1177   4.538   0.435   1.691 -0.0534  0.1071 -0.0123
 1178W        W 1178   6.403   4.116   1.999  0.4175  0.2948  0.1320
 1179W        W 1179   6.560   0.471   2.734  0.2471 -0.3060 -0.0208
 1180W        W 1180   6.933   5.002   0.449 -0.1000  0.5075 -0.2095
 1181W        W 1181   2.730   4.489   5.024 -0.1358  0.0078 -0.0084
 1182W        W 1182   5.298   5.979   2.632 -0.0433  0.0362 -0.1237
 1183W        W 1183   2.820   5.301   0.638  0.0133  0.2708  0.2021
 1184W        W 1184   4.324   4.625   2.655  0.0773  0.2812 -0.1142
 1185W        W 1185   3.411   1.976   0.352 -0.2108  0.0803  0.1755
 1186W        W 1186   3.797   3.072   4.173 -0.2103 -0.0120  0.0837
 1187W        W 1187   2.106   2.623   3.989 -0.0082  0.1165  0.1687
 1188W        W 1188   5.902   5.352   5.463 -0.0731  0.2097 -0.1030
 1189W        W 1189   0.907   2.591   4.460 -0.0383 -0.0804  0.0797
 1190W        W 1190   3.935   1.395   3.605 -0.0240 -0.2435 -0.4289
 1191W        W 1191   5.863   6.405   6.205  0.2297 -0.2403  0.1646
 1192W        W 1192   6.784   1.978   0.099  0.2616  0.0150 -0.0108
 1193W        W 1193   4.192   5.523   1.034  0.0473 -0.5722  0.0252
 1194W        W 1194   4.678   3.702   0.733 -0.3000  0.0120 -0.0744
 1195W        W 1195   2.428   3.781   5.324  0.0799 -0.2791  0.1470
 1196W        W 1196   6.431   1.134   2.130 -0.0654  0.1785  0.1947
 1197W        W 1197   1.820   5.743   5.885 -0.3602 -0.0880 -0.0687
 1198W        W 1198   4.302   0.895   5.614  0.0343  0.1428  0.2212
 1199W        W 1199   1.084   1.251   7.060  0.1582 -0.0226  0.1419
 1200W        W 1200   6.381   3.908   4.656 -0.4720  0.1145  0.0002
 1201W        W 1201   0.067   5.970   0.394 -0.0616 -0.0342  0.2301
 1202W        W 1202   6.485   0.613   1.627  0.1818 -0.0177  0.3816
 1203W        W 1203   1.982   0.860   4.627 -0.0413  0.1601 -0.0200
 1204W        W 1204   6.459   4.094   6.995 -0.0669 -0.3405 -0.0443
 1205W        W 1205   2.349   5.854   1.809  0.0879  0.2917 -0.1628
 1206W        W 1206   4.167   0.381   1.381  0.0041 -0.1318 -0.0346
 1207W        W 1207   5.436   0.589   1.324 -0.0800  0.1039 -0.1972
 1208W        W 1208   6.305   5.369   1.888  0.0494 -0.0352  0.2307
 1209W        W 1209   5.347   3.450   3.895  0.1791  0.1714 -0.3214
 1210W        W 1210   1.613   4.066   0.468  0.0408  0.3375 -0.1221
 1211W        W 1211   1.330   2.557   6.338 -0.0991  0.0449  0.4741
 1212W        W 1212   1.547   6.859   2.552  0.0301  0.1053 -0.1770
 1213W        W 1213   2.904   2.137   1.554 -0.0217  0.1221 -0.1563
 1214W        W 1214   1.050   2.729   1.117  0.7533  0.0794  0.0866
 1215W        W 1215   6.837   3.388   6.738  0.0018  0.1016  0.1513
 1216W        W 1216   2.428   6.556   5.977  0.0216 -0.1155  0.0218
 1217W        W 1217   6.454   3.580   7.026  0.2320  0.0620  0.0367
 1218W        W 1218   1.517   3.719   1.403  0.2689  0.2006 -0.1069
 1219W        W 1219   0.757   5.547   1.530  0.2010 -0.1305 -0.1566
 1220W        W 1220   6.200   1.498   4.842  0.0628  0.0460  0.2895
 1221W        W 1221   0.909   1.275   1.854  0.1667 -0.0303  0.0740
 1222W        W 1222   0.446   4.873   4.200  0.3370 -0.0056 -0.3183
 1223W        W 1223   0.472   7.248   2.373  0.0684 -0.2415 -0.1062
 1224W        W 1224   5.839   5.749   1.321 -0.1478 -0.1094 -0.1152
 1225W        W 1225   0.654   1.634   5.093  0.2696 -0.0505  0.0179
 1226W        W 1226   1.762   3.620   3.977 -0.0491  0.2409  0.1920
 1227W        W 1227   1.147   0.282   4.266 -0.0769 -0.3029 -0.0386
 1228W        W 1228   6.785   4.163   4.802 -0.1488 -0.0858 -0.2765
 1229W        W 1229   2.685   6.768   3.643 -0.1625  0.2805 -0.2298
 1230W        W 1230   6.924   6.566   3.692 -0.2418 -0.0981 -0.1240
 1231W        W 1231   3.963   3.895   0.623 -0.2356  0.2157  0.0911
 1232W        W 1232   5.369   1.847   2.714  0.1213  0.0486 -0.2536
 1233W        W 1233   0.667   3.148   2.511 -0.0046  0.2035  0.0616
 1234W        W 1234   1.832   2.269   4.250  0.2143 -0.0602  0.0612
 1235W        W 1235   4.686   4.955   2.788  0.0347  0.1004 -0.2358
 1236W        W 1236   0.946   4.941   0.244  0.1290  0.0876  0.1743
 1237W        W 1237   0.260   2.559   3.164 -0.0669  0.2502 -0.0739
 1238W        W 1238   6.530   0.357   5.511  0.0452 -0.0435  0.2879
 1239W        W 1239   4.727   1.881   0.349  0.1537 -0.0519  0.2415
 1240W        W 1240   4.304   4.159   1.582 -0.0744  0.0736  0.1944
 1241W        W 1241   4.752   2.003   5.348  0.0491  0.0288 -0.1359
 1242W        W 1242   4.788   6.238   3.859  0.1373 -0.0331 -0.1464
 1243W        W 1243   5.827   0.381   4.887 -0.0260  0.0607 -0.0065
 1244W        W 1244   1.872   3.286   7.265  0.0603  0.1791 -0.0682
 1245W        W 1245   6.253   7.021   1.285  0.2250 -0.0111  0.2919
 1246W        W 1246   0.652   2.543   0.043  0.0508 -0.2800 -0.0431
 1247W        W 1247   6.250   0.431   0.742  0.1998  0.2483 -0.3104
 1248W        W 1248   1.925   6.263   4.767  0.1536  0.1742 -0.0413
 1249W        W 1249   3.972   0.566   3.763 -0.0334  0.0355 -0.0292
 1250W        W 1250   5.213   2.479   6.701  0.0387 -0.2519 -0.1239
 1251W        W 1251   1.244   2.862   5.415 -0.0964 -0.1550  0.1977
 1252W        W 1252   4.057   7.172   0.469  0.1510 -0.2003 -0.1904
 1253W        W 1253   3.328   5.195   6.708  0.1015  0.1231 -0.2512
 1254W        W 1254   4.881   6.891   2.795  0.1201  0.1797  0.1244
 1255W        W 1255   0.566   5.094   1.867 -0.2525  0.3221  0.1549
 1256W        W 1256   4.658   3.342   7.219  0.3239 -0.1745 -0.0477
 1257W        W 1257   5.544   1.434   4.144 -0.3856  0.0580  0.2413
 1258W        W 1258   4.959   2.627   3.779 -0.1432  0.0825 -0.4431
 1259W        W 1259   5.038   3.801   5.345 -0.4380 -0.0089  0.1745
 1260W        W 1260   3.298   3.558   0.688 -0.0524  0.2373  0.1196
 1261W        W 1261   0.446   5.732   6.124 -0.1404  0.0502 -0.1772
 1262W        W 1262   0.943   6.061   2.202 -0.1180 -0.2225  0.4472
 1263W        W 1263   0.270   3.966   4.523  0.1526 -0.1333 -0.2710
 1264W        W 1264   2.459   3.566   0.321  0.0725 -0.3299  0.1310
 1265W        W 1265   0.282   6.538   3.088  0.0600 -0.1104 -0.1364
 1266W        W 1266   2.262   4.532   4.782  0.4757  0.0749 -0.1804
 1267W        W 1267   7.263   0.563   6.702 -0.0956  0.2116  0.1364
 1268W        W 1268   0.813   0.769   7.034  0.0581 -0.1471  0.1452
 1269W        W 1269   2.215   3.663   4.282 -0.0177  0.0830 -0.2648
 1270W        W 1270   0.413   0.443   5.996  0.2980 -0.1324 -0.1098
 1271W        W 1271   5.536   1.588   5.472 -0.3439  0.0718  0.3408
 1272W        W 1272   3.970   5.463   0.113 -0.3352  0.2087 -0.2417
 1273W        W 1273   5.300   1.405   3.616  0.1358 -0.3433 -0.0137
 1274W        W 1274   5.824   3.948   6.015  0.2790 -0.1342 -0.2908
 1275W        W 1275   0.095   0.779   7.210  0.0915 -0.0431  0.2176
 1276W        W 1276   6.387   5.100   5.545 -0.1440  0.0052  0.2316
 1277W        W 1277   5.268   3.024   6.718 -0.1308 -0.3203  0.0883
 1278W        W 1278   0.088   4.586   4.424 -0.1421  0.2267 -0.3429
 1279W        W 1279   3.481   0.787   1.023  0.0173 -0.1188 -0.2481
 1280W        W 1280   3.232   3.704   4.122 -0.1504  0.0851  0.0110
 1281W        W 1281   2.738   1.672   7.230  0.0007  0.0741  0.0280
 1282W        W 1282   2.704   0.092   3.417  0.1151  0.1650  0.2500
 1283W        W 1283   4.831   2.760   4.353 -0.0758 -0.0703 -0.1092
 1284W        W 1284   1.721   4.225   7.133  0.1525 -0.1285  0.0258
 1285W        W 1285   4.875   4.111   3.332  0.1017  0.0295  0.3045
 1286W        W 1286   5.759   0.816   0.908  0.0027  0.1325  0.2567
 1287W        W 1287   0.773   1.281   6.199 -0.3263 -0.0499 -0.3294
 1288W        W 1288   2.763   6.174   3.573  0.2113 -0.3894 -0.2435
 1289W        W 1289   5.273   7.142   5.242  0.2873  0.1722  0.1712
 1290W        W 1290   1.175   3.816   5.884 -0.2390 -0.1422  0.1158
 1291W        W 1291   4.171   6.000   1.981 -0.3590 -0.1496  0.0208
 1292W        W 1292   1.941   4.186   4.027 -0.1868  0.2003  0.1447
 1293W        W 1293   0.599   3.364   0.442  0.0613  0.0907 -0.2998
 1294W        W 1294   2.120   1.358   0.575 -0.0636 -0.2050 -0.0848
 1295W        W 1295   1.433   7.007   4.393 -0.1415  0.2104  0.1886
 1296W        W 1296   0.242   4.993   6.731  0.4305 -0.1421  0.0870
 1297W        W 1297   2.730   3.362   2.144  0.0436 -0.3783 -0.2732
 1298W        W 1298   4.867   7.224   3.175  0.2180  0.1798 -0.1350
 1299W        W 1299   5.204   0.126   5.708 -0.3782 -0.0619 -0.0073
 1300W        W 1300   0.413   3.749   6.795  0.1214  0.0518 -0.1539
 1301W        W 1301   5.564   5.900   0.833 -0.1198  0.0321 -0.0351
 1302W        W 1302   0.385   3.182   4.042  0.0429 -0.3037  0.2641
 1303W        W 1303   2.143   7.223   1.668 -0.0918  0.1722  0.1218
 1304W        W 1304   1.026   2.800   5.997 -0.0992 -0.0735  0.0697
 1305W        W 1305   4.153   1.917   5.582  0.2362 -0.1872  0.1428
 1306W        W 1306   6.172   2.226   4.212  0.1554 -0.0480  0.1342
 1307W        W 1307   5.406   5.488   5.178  0.1609 -0.1298 -0.1295
 1308W        W 1308   6.241   3.566   0.759  0.0542 -0.0308 -0.2267
 1309W        W 1309   4.004   3.145   1.049  0.2874  0.0001 -0.0124
 1310W        W 1310   0.849   1.144   4.606 -0.0856  0.0027 -0.2687
 1311W        W 1311   6.758   1.965   6.698  0.0901 -0.2412 -0.0939
 1312W        W 1312   2.120   1.529   6.544  0.0449 -0.0810  0.0584
 1313W        W 1313   0.729   7.316   1.375 -0.1218 -0.2633  0.2772
 1314W        W 1314   4.829   5.841   2.550  0.1272 -0.1691  0.4954
 1315W        W 1315   7.224   1.066   3.199  0.1098  0.0098 -0.0134
 1316W        W 1316   4.591   4.185   5.360 -0.0080 -0.0529  0.5361
 1317W        W 1317   0.584   1.468   0.815  0.0700  0.1321  0.1139
 1318W        W 1318   2.598   3.999   2.034  0.0374  0.0426 -0.0309
 1319W        W 1319   1.870   1.723   4.070 -0.2311  0.1529  0.0328
 1320W        W 1320   3.605   1.081   0.273  0.2304  0.1235 -0.0550
 1321W        W 1321   0.056   6.695   5.276 -0.0101 -0.0576 -0.0311
 1322W        W 1322   4.824   0.339   6.627  0.0228  0.1475 -0.0354
 1323W        W 1323   5.712   3.876   1.485  0.3067  0.1206 -0.0854
 1324W        W 1324   2.075   7.120   2.445 -0.0710 -0.5111 -0.0783
 1325W        W 1325   1.120   6.063   6.810  0.0682 -0.0263  0.0543
 1326W        W 1326   0.168   6.397   2.200  0.0747  0.0120 -0.3663
 1327W        W 1327   3.290   4.413   6.492 -0.0081 -0.2530 -0.1845
 1328W        W 1328   2.311   5.197   1.933 -0.0380 -0.3122  0.0321
 1329W        W 1329   2.082   1.717   7.028  0.2034  0.0592 -0.2598
 1330W        W 1330   5.125   5.894   6.686 -0.2822 -0.0121 -0.1264
 1331W        W 1331   5.282   3.908   6.456  0.1341 -0.2339 -0.1241
 1332W        W 1332   0.028   5.743   5.363  0.2978  0.2247  0.2763
 1333W        W 1333   3.600   6.648   3.151  0.0874  0.1053  0.1069
 1334W        W 1334   4.225   1.252   0.934  0.2045 -0.0560 -0.0512
 1335W        W 1335   6.896   7.100   3.388 -0.0740  0.0671  0.3658
 1336W        W 1336   1.603   0.238   3.198  0.2392  0.3401  0.0780
 1337W        W 1337   4.897   6.329   1.184 -0.0938  0.0224  0.1342
 1338W        W 1338   5.303   3.577   6.082 -0.0344  0.0816 -0.0929
 1339W        W 1339   0.771   0.161   3.303  0.2991  0.0964  0.2401
 1340W        W 1340   5.367   0.947   5.422  0.2987  0.1247  0.2961
 1341W        W 1341   2.988   1.535   1.997 -0.1387 -0.1635  0.0511
 1342W        W 1342   6.123   0.016   6.199  0.2263 -0.1061  0.0459
 1343W        W 1343   6.210   1.939   3.111 -0.0211  0.0977 -0.2440
 1344W        W 1344   1.965   0.914   2.406 -0.2159 -0.4486  0.1018
 1345W        W 1345   3.703   1.124   0.777 -0.1136  0.2109 -0.1308
 1346W        W 1346   1.552   1.480   4.394 -0.0192  0.0170  0.3540
 1347W        W 1347   1.687   2.644   1.761  0.0864  0.0770  0.1919
 1348W        W 1348   5.586   5.680   4.745 -0.1423  0.4492 -0.1739
 1349W        W 1349   5.714   1.333   3.405 -0.3119 -0.0108  0.1914
 1350W        W 1350   5.073   2.637   5.925 -0.0181  0.1375  0.2781
 1351W        W 1351   4.367   2.941   0.055  0.0572  0.0363  0.1802
 1352W        W 1352   5.918   7.075   1.698 -0.5775  0.1762 -0.2005
 1353W        W 1353   4.558   5.290   1.901  0.2849  0.1418 -0.1722
 1354W        W 1354   5.171   0.234   6.220 -0.0784  0.2970  0.0059
 1355W        W 1355   1.102   4.327   7.104  0.2794  0.0521 -0.1697
 1356W        W 1356   6.103   2.139   3.576  0.1432 -0.1524  0.2112
 1357W        W 1357   0.714   3.542   1.601 -0.1558 -0.0538  0.0879
 1358W        W 1358   2.159   6.241   1.509  0.3271  0.0838  0.0332
 1359W        W 1359   6.764   6.166   2.494 -0.0942 -0.2470  0.2706
 1360W        W 1360   6.700   6.119   4.856 -0.0619  0.1090 -0.1705
 1361W        W 1361   5.372   6.653   5.003 -0.4683 -0.1073  0.3135
 1362W        W 1362   0.771   5.213   1.143 -0.2928  0.0551  0.3619
 1363W        W 1363   3.368   0.150   4.629  0.1283  0.0949  0.1333
 1364W        W 1364   1.991   6.730   5.684 -0.3274  0.1493  0.1735
 1365W        W 1365   5.718   3.174   6.234 -0.2032  0.1442 -0.1439
 1366W        W 1366   6.129   5.485   5.985  0.3127 -0.3267  0.1033
 1367W        W 1367   6.724   0.637   3.922  0.5082 -0.0912  0.0834
 1368W        W 1368   5.838   5.624   1.861  0.1526 -0.0162  0.0644
 1369W        W 1369   0.307   6.412   3.606 -0.0975  0.0887  0.0414
 1370W        W 1370   2.144   5.300   6.004  0.0004 -0.3860 -0.1736
 1371W        W 1371   4.168   1.292   1.713 -0.1683  0.2016 -0.2500
 1372W        W 1372   6.365   4.606   2.342 -0.1996 -0.0808  0.0722
 1373W        W 1373   5.864   3.805   5.492  0.1295 -0.1128  0.0278
 1374W        W 1374   1.942   7.220   3.503  0.0423 -0.3663 -0.2637
 1375W        W 1375   3.329   4.211   5.221  0.0324  0.1247  0.3890
 1376W        W 1376   2.231   2.642   0.429 -0.0501  0.2447  0.1871
 1377W        W 1377   3.174   1.273   2.417  0.0235 -0.2460 -0.0950
 1378W        W 1378   3.247   2.933   0.851 -0.1677 -0.0975  0.2566
 1379W        W 1379   6.028   1.621   5.397 -0.3458 -0.0467  0.1616
 1380W        W 1380   4.053   3.302   6.631  0.0122  0.1519 -0.2980
 1381W        W 1381   0.897   5.454   4.766 -0.0202  0.2440 -0.1375
 1382W        W 1382   3.519   6.604   1.190  0.0248 -0.0663  0.2629
 1383W        W 1383   1.749   6.362   0.357  0.1094 -0.1368  0.2214
 1384W        W 1384   4.531   3.913   4.227 -0.1102 -0.3452 -0.1064
 1385W        W 1385   1.290   3.562   3.810  0.0754 -0.4544  0.0167
 1386W        W 1386   1.521   5.365   2.917  0.1519 -0.0433  0.0561
 1387W        W 1387   7.280   4.090   0.602 -0.0443 -0.2003  0.0497
 1388W        W 1388   7.120   0.093   1.019 -0.1733 -0.0769 -0.1680
 1389W        W 1389   3.845   0.185   4.075 -0.0504  0.0395 -0.0409
 1390W        W 1390   6.039   3.020   4.464  0.1551 -0.1607  0.0381
 1391W        W 1391   5.152   0.710   0.869 -0.1515 -0.6387  0.0651
 1392W        W 1392   6.116   3.761   5.063 -0.3835 -0.0183 -0.1687
 1393W        W 1393   6.038   5.493   0.876  0.2524  0.1399  0.3600
 1394W        W 1394   6.895   3.945   1.956 -0.3174  0.5093  0.3068
 1395W        W 1395   1.281   3.720   4.815  0.2726  0.1056 -0.3801
 1396W        W 1396   1.813   6.468   7.220 -0.2042 -0.1565 -0.1415
 1397W        W 1397   1.487   5.209   4.679 -0.0253 -0.4846 -0.0989
 1398W        W 1398   1.800   4.574   2.472  0.3135  0.3268 -0.1293
 1399W        W 1399   6.931   1.999   4.341 -0.0035  0.0640 -0.1763
 1400W        W 1400   6.364   0.438   6.050  0.2609 -0.0781 -0.1941
 1401W        W 1401   6.000   5.460   6.763  0.0608 -0.1413  0.0187
 1402W        W 1402   5.789   0.367   0.940 -0.0182  0.0454 -0.1197
 1403W        W 1403   3.973   1.533   4.118 -0.1097 -0.0762 -0.4198
 1404W        W 1404   0.710   4.194   1.008 -0.3850  0.2082  0.0275
 1405W        W 1405   0.360   4.285   0.230 -0.2486  0.1474 -0.2156
 1406W        W 1406   4.308   3.416   3.108  0.1286  0.0988 -0.2453
 1407W        W 1407   6.179   6.764   7.014 -0.0850  0.0814 -0.0489
 1408W        W 1408   5.877   1.106   3.948  0.1485  0.1554  0.1288
 1409W        W 1409   5.332   6.556   2.785 -0.1929  0.0793  0.2733
 1410W        W 1410   4.674   5.629   0.613 -0.1806 -0.0563 -0.1944
 1411W        W 1411   1.215   4.598   5.731 -0.3174 -0.1176  0.1658
 1412W        W 1412   0.798   4.938   5.916  0.2912 -0.2328  0.1710
 1413W        W 1413   1.295   6.084   1.042 -0.0376  0.0112  0.0215
 1414W        W 1414   4.468   4.043   4.869  0.1180  0.0255 -0.2876
 1415W        W 1415   3.618   1.879   2.335  0.0940 -0.1930  0.2637
 1416W        W 1416   3.568   0.585   5.675 -0.0812 -0.0490 -0.1754
 1417W        W 1417   6.194   4.780   6.260 -0.0212 -0.1515  0.0371
 1418W        W 1418   3.525   4.037   3.882  0.0134 -0.1380  0.1971
 1419W        W 1419   0.587   3.376   7.244 -0.0107 -0.1006  0.2303
 1420W        W 1420   4.771   3.607   3.320  0.1879 -0.1753 -0.1132
 1421W        W 1421   6.062   0.664   2.649  0.2217 -0.0374  0.1588
 1422W        W 1422   6.009   1.227   2.578  0.1386 -0.1211  0.1121
 1423W        W 1423   4.154   1.987   4.652 -0.4542  0.1048  0.1631
 1424W        W 1424   6.770   3.349   4.564 -0.1555 -0.0181  0.2682
 1425W        W 1425   1.308   5.422   2.241  0.2873 -0.0625  0.0814
 1426W        W 1426   4.128   1.787   1.552 -0.2442 -0.3096 -0.2086
 1427W        W 1427   6.065   0.735   5.783 -0.1388  0.0600  0.0619
 1428W        W 1428   2.193   1.366   6.049  0.1034 -0.0910 -0.3847
 1429W        W 1429   1.862   2.291   3.564  0.2203 -0.1000 -0.0859
 1430W        W 1430   6.983   2.890   2.712  0.1158 -0.6582  0.1573
 1431W        W 1431   4.731   4.591   6.656  0.2648 -0.2710 -0.1491
 1432W        W 1432   6.203   2.688   3.974  0.0327  0.2112 -0.3968
 1433W        W 1433   3.512   4.983   1.865 -0.0070  0.2580  0.3033
 1434W        W 1434   5.427   0.177   6.793  0.3372 -0.3037 -0.0093
 1435W        W 1435   2.808   0.370   1.182  0.0836 -0.4624  0.0725
 1436W        W 1436   4.128   6.476   1.637 -0.1733  0.1403 -0.0144
 1437W        W 1437   3.638   3.149   2.520 -0.1624 -0.0281  0.0750
 1438W        W 1438   4.368   2.956   6.841  0.1665 -0.0390 -0.0877
 1439W        W 1439   2.441   2.066   7.001  0.0366 -0.3709 -0.0308
 1440W        W 1440   4.620   0.427   4.319  0.0052  0.0475 -0.2039
 1441W        W 1441   6.776   0.160   3.672  0.2468 -0.0771  0.0063
 1442W        W 1442   1.561   0.683   4.259 -0.0087 -0.2416 -0.1245
 1443W        W 1443   7.070   0.628   0.849  0.3439 -0.3577 -0.0009
 1444W        W 1444   7.095   4.998   6.518  0.1563 -0.1053  0.1587
 1445W        W 1445   4.814   4.370   5.782 -0.0580 -0.0806 -0.1069
 1446W        W 1446   1.761   3.219   5.337  0.2204  0.1405  0.0087
 1447W        W 1447   6.094   1.778   3.991  0.1214 -0.1224 -0.2080
 1448W        W 1448   2.998   2.293   5.062  0.0634 -0.2564 -0.2062
 1449W        W 1449   0.045   5.513   0.209 -0.0034 -0.0183 -0.0364
 1450W        W 1450   1.075   2.879   2.482  0.2948  0.0756  0.1791
 1451W        W 1451   0.457   5.032   0.788 -0.3812  0.1549 -0.0283
 1452W        W 1452   1.613   1.536   6.996 -0.2148  0.0665  0.4370
 1453W        W 1453   3.063   0.811   3.192 -0.2772 -0.0032 -0.1673
 1454W        W 1454   5.161   5.066   4.254  0.0173 -0.0300 -0.0548
 1455W        W 1455   7.182   6.429   4.910  0.2098  0.4661 -0.1732
 1456W        W 1456   6.048   4.745   5.273  0.0444  0.1129 -0.1421
 1457W        W 1457   6.808   4.931   5.741 -0.0013  0.0477 -0.3153
 1458W        W 1458   5.203   6.695   0.267 -0.0627 -0.0754  0.1961
 1459W        W 1459   3.311   6.459   2.748 -0.1144  0.0911 -0.0022
 1460W        W 1460   1.111   0.964   0.618  0.1497 -0.0889  0.0499
 1461W        W 1461   5.847   4.580   6.533  0.0101 -0.0729 -0.0277
 1462W        W 1462   1.019   3.169   2.890  0.0727  0.5073  0.1577
 1463W        W 1463   2.741   3.840   4.098 -0.1426 -0.1504 -0.0849
 1464W        W 1464   4.683   4.691   7.122  0.0660  0.3968  0.2333
 1465W        W 1465   1.459   2.848   2.912 -0.1370  0.2499 -0.2376
 1466W        W 1466   3.384   3.414   4.508 -0.0494  0.0703 -0.0692
 1467W        W 1467   0.642   0.526   4.358 -0.1841 -0.2208 -0.0689
 1468W        W 1468   5.541   5.696   5.626  0.1065  0.0226  0.1564
 1469W        W 1469   0.241   5.355   2.244  0.0237  0.0960 -0.0698
 1470W        W 1470   3.068   4.306   2.192  0.0990 -0.1635  0.0584
 1471W        W 1471   3.380   4.891   4.703  0.0651 -0.2346 -0.1316
 1472W        W 1472   3.857   3.844   1.610  0.1411  0.0580  0.1431
 1473W        W 1473   5.251   0.102   1.110 -0.0255 -0.2832  0.1347
 1474W        W 1474   2.842   4.778   0.541  0.1190  0.1768 -0.1034
 1475W        W 1475   1.916   5.743   1.633 -0.4071  0.0035  0.1756
 1476W        W 1476   5.114   1.873   2.305 -0.3226 -0.3200 -0.0701
 1477W        W 1477   6.942   4.938   2.019 -0.2173  0.0328 -0.1134
 1478W        W 1478   2.581   0.008   0.327  0.0463  0.0572  0.3230
 1479W        W 1479   1.668   2.947   5.715  0.0103 -0.0805 -0.3075
 1480W        W 1480   6.401   5.412   7.056 -0.3028  0.2620 -0.0737
 1481W        W 1481   4.065   0.202   2.662 -0.1771 -0.1216 -0.0172
 1482W        W 1482   1.497   1.438   0.675  0.3391 -0.0469  0.0172
 1483W        W 1483   3.884   2.798   1.400 -0.1124 -0.0186  0.1593
 1484W        W 1484   3.209   6.620   0.272  0.0947 -0.1625 -0.1634
 1485W        W 1485   4.017   4.193   2.548 -0.0731 -0.0477  0.1555
 1486W        W 1486   2.222   6.345   3.630  0.1561 -0.0492 -0.3975
 1487W        W 1487   7.070   6.952   4.911  0.0687  0.1137 -0.1535
 1488W        W 1488   0.997   5.325   3.855 -0.0107 -0.0247 -0.0255
 1489W        W 1489   6.039   6.261   2.121 -0.0021  0.2545 -0.0252
 1490W        W 1490   3.718   7.123   5.550  0.1356  0.1467 -0.1837
 1491W        W 1491   3.581   0.638   6.921 -0.0575  0.1469  0.3717
 1492W        W 1492   2.313   5.407   3.151  0.0559 -0.0914 -0.0544
 1493W        W 1493   6.619   6.880   2.119 -0.0815  0.0867  0.1711
 1494W        W 1494   2.400   5.990   3.915  0.1367 -0.1103 -0.0887
 1495W        W 1495   1.597   2.097   6.875 -0.0047  0.1382 -0.1886
 1496W        W 1496   2.213   0.557   5.546 -0.0109  0.3180 -0.2760
 1497W        W 1497   2.052   1.496   2.510 -0.0596 -0.2102  0.1096
 1498W        W 1498   6.852   0.880   4.319 -0.1102  0.0829 -0.0099
 1499W        W 1499   1.434   4.805   2.218 -0.3175 -0.2234 -0.0727
 1500W        W 1500   0.123   6.155   6.211  0.0186 -0.0332  0.2382
 1501W        W 1501   5.613   2.716   6.983 -0.0098  0.0172  0.2144
 1502W        W 1502   4.486   4.836   3.877  0.2823  0.0553  0.0753
 1503W        W 1503   3.472   2.754   5.607  0.0619  0.1903  0.0038
 1504W        W 1504   7.294   3.263   3.644 -0.1057 -0.1293 -0.1886
 1505W        W 1505   5.164   6.429   7.102 -0.0003  0.1173  0.2716
 1506W        W 1506   4.663   0.521   0.575 -0.3112 -0.3703 -0.2461
 1507W        W 1507   2.434   4.271   3.982  0.3459 -0.0677 -0.1459
 1508W        W 1508   5.265   7.171   2.897  0.2807  0.2396  0.0352
 1509W        W 1509   1.806   4.719   6.911 -0.1124  0.2056  0.0327
 1510W        W 1510   0.384   2.561   3.904  0.0381  0.3276 -0.1284
 1511W        W 1511   3.392   0.570   0.579 -0.0055 -0.0147  0.1258
 1512W        W 1512   0.936   6.526   6.726  0.0551  0.2291  0.1539
 1513W        W 1513   1.057   1.307   5.014  0.0553  0.0174  0.0070
 1514W        W 1514   2.545   0.973   5.391 -0.0836  0.1830 -0.2360
 1515W        W 1515   6.527   5.774   6.757 -0.2214  0.4609  0.1157
 1516W        W 1516   0.305   1.308   7.071 -0.1076 -0.3414 -0.0466
 1517W        W 1517   1.296   0.988   6.221  0.1452 -0.0664 -0.0077
 1518W        W 1518   0.169   1.374   3.512  0.1986  0.4165 -0.2777
 1519W        W 1519   5.644   3.699   0.648 -0.0089 -0.0979  0.1102
 1520W        W 1520   2.987   5.192   5.369  0.0139  0.3927  0.0315
 1521W        W 1521   5.074   2.015   6.773 -0.2320 -0.1364 -0.3045
 1522W        W 1522   1.918   3.990   5.607  0.0161 -0.1579  0.2217
 1523W        W 1523   1.595   4.981   5.127 -0.0964 -0.0361  0.0025
 1524W        W 1524   2.700   1.523   2.454  0.0028  0.0755 -0.1885
 1525W        W 1525   3.560   5.802   6.608 -0.1000  0.0367 -0.1253
 1526W        W 1526   0.148   0.382   5.198 -0.1164  0.0150  0.2513
 1527W        W 1527   6.212   3.193   3.843  0.2223  0.2780 -0.1189
 1528W        W 1528   2.470   1.937   0.326  0.2638  0.1986 -0.2284
 1529W        W 1529   1.890   6.044   2.077 -0.1618  0.0869 -0.5040
 1530W        W 1530   0.963   3.101   7.051 -0.1302 -0.2097 -0.4509
 1531W        W 1531   3.630   4.758   0.591  0.2644  0.2068  0.2107
 1532W        W 1532   3.749   6.101   3.833  0.1231  0.0734  0.0393
 1533W        W 1533   3.011   5.855   6.363 -0.2090 -0.2867  0.0534
 1534W        W 1534   2.627   0.004   6.110 -0.0678  0.2159 -0.0708
 1535W        W 1535   0.778   1.098   2.872  0.3584 -0.0583 -0.1965
 1536W        W 1536   1.702   3.638   5.083 -0.0516  0.3399  0.0670
 1537W        W 1537   4.059   3.734   5.799 -0.1484  0.2700  0.0115
 1538W        W 1538   5.782   1.090   7.274 -0.1197 -0.1817  0.0760
 1539W        W 1539   4.469   5.596   5.487  0.1807  0.3217  0.1973
 1540W        W 1540   0.090   4.241   4.046 -0.0154 -0.0664 -0.2457
 1541W        W 1541   1.508   1.085   1.089  0.1226  0.0322 -0.1343
 1542W        W 1542   6.024   1.974   2.042  0.0579 -0.1454  0.6274
 1543W        W 1543   2.481   6.520   3.196 -0.1133 -0.0259  0.0413
 1544W        W 1544   7.097   0.857   1.981  0.5012 -0.0215 -0.1459
 1545W        W 1545   0.924   3.918   1.903 -0.0107  0.3705 -0.4040
 1546W        W 1546   2.131   6.155   6.571  0.0296 -0.1500 -0.4415
 1547W        W 1547   5.027   1.801   6.298 -0.1165  0.1243  0.0518
 1548W        W 1548   1.248   1.462   5.947 -0.0296  0.3498 -0.0171
 1549W        W 1549   1.162   2.152   6.656  0.0022  0.1797  0.1104
 1550W        W 1550   3.950   3.013   2.083 -0.1227  0.1381  0.1305
 1551W        W 1551   3.743   6.731   4.447 -0.0708  0.4037 -0.0268
 1552W        W 1552   4.359   2.209   0.470  0.1228 -0.3134  0.3280
 1553W        W 1553   1.014   3.186   1.219  0.2545  0.0058 -0.0987
 1554W        W 1554   4.004   6.427   4.110 -0.2356  0.2283 -0.0941
 1555W        W 1555   5.995   6.523   0.758 -0.0695  0.1977  0.0015
 1556W        W 1556   6.879   0.240   6.729 -0.3210 -0.1889  0.2275
 1557W        W 1557   0.474   5.962   4.438 -0.0662  0.3093 -0.2337
 1558W        W 1558   0.693   4.350   2.014  0.1087 -0.2058  0.1127
 1559W        W 1559   1.616   2.631   3.941  0.0404  0.0232 -0.1706
 1560W        W 1560   0.757   5.766   4.051 -0.0554 -0.1134 -0.1098
 1561W        W 1561   3.692   1.086   1.733 -0.2006  0.4405  0.0265
 1562W        W 1562   2.953   0.288   6.764 -0.3089 -0.0789  0.3175
 1563W        W 1563   4.889   2.723   6.400  0.0397 -0.2183 -0.0204
 1564W        W 1564   2.965   6.063   5.934  0.1468  0.0135  0.1324
 1565W        W 1565   2.839   4.066   5.383  0.0877 -0.2478 -0.3241
 1566W        W 1566   3.148   5.568   0.280 -0.1871 -0.0392  0.0515
 1567W        W 1567   5.021   2.238   7.221  0.0435  0.1048 -0.1734
 1568W        W 1568   4.712   5.745   4.013 -0.1380 -0.0491  0.1402
 1569W        W 1569   6.671   6.727   6.727  0.1963  0.0412  0.3027
 1570W        W 1570   5.642   6.865   6.449  0.5658  0.0632  0.0943
 1571W        W 1571   4.367   6.433   1.132 -0.0557  0.1959  0.2450
 1572W        W 1572   5.588   1.208   6.832 -0.1380  0.0380 -0.0274
 1573W        W 1573   2.227   2.106   0.770 -0.1388  0.0452 -0.1212
 1574W        W 1574   2.266   2.151   2.129 -0.0352 -0.2026  0.0460
 1575W        W 1575   0.081   4.201   1.681 -0.2928  0.2714 -0.1177
 1576W        W 1576   5.556   4.854   2.913  0.1064 -0.0278  0.0957
 1577W        W 1577   5.256   2.244   6.103  0.0319  0.2856 -0.1959
 1578W        W 1578   6.232   4.065   0.649  0.2717  0.0541  0.0554
 1579W        W 1579   0.370   1.376   1.887 -0.1443 -0.2055  0.0996
 1580W        W 1580   1.294   3.330   5.179 -0.0786  0.0659  0.1264
 1581W        W 1581   2.645   2.535   1.769 -0.3725  0.3594 -0.1735
 1582W        W 1582   5.150   6.299   5.424  0.1088 -0.1789 -0.1539
 1583W        W 1583   0.900   4.522   4.615 -0.0112  0.1222 -0.1208
 1584W        W 1584   3.403   1.136   7.080 -0.3017 -0.1412 -0.2818
 1585W        W 1585   2.324   3.329   6.380  0.2868  0.2583 -0.1978
 1586W        W 1586   7.019   5.464   0.609 -0.1173  0.1280 -0.3372
 1587W        W 1587   4.510   7.309   0.651  0.0130 -0.0741  0.0282
 1588W        W 1588   0.998   2.231   1.083  0.2274  0.0583  0.1319
 1589W        W 1589   0.092   0.247   0.649  0.1336  0.0526  0.0685
 1590W        W 1590   2.939   5.015   4.909 -0.0063 -0.0719  0.0330
 1591W        W 1591   0.796   5.848   5.717 -0.2492  0.3366  0.1076
 1592W        W 1592   0.295   5.359   2.746 -0.0604  0.0646  0.1414
 1593W        W 1593   2.986   0.927   5.716 -0.2496 -0.0575 -0.1310
 1594W        W 1594   7.153   2.498   7.287  0.0138  0.1569 -0.2305
 1595W        W 1595   6.400   4.385   1.048  0.1906  0.1846 -0.2742
 1596W        W 1596   2.720   4.837   2.417  0.4362 -0.1046  0.0674
 1597W        W 1597   1.751   6.651   6.621  0.1162 -0.1118 -0.4392
 1598W        W 1598   1.960   7.183   1.219  0.0009  0.2131 -0.0288
 1599W        W 1599   5.061   4.170   3.790 -0.0200  0.4794 -0.1724
 1600W        W 1600   5.170   3.237   7.157  0.5499 -0.2703  0.0345
 1601W        W 1601   0.517   4.769   2.248 -0.2525  0.2756  0.3155
 1602W        W 1602   7.245   2.178   6.500 -0.0285  0.3143  0.2586
 1603W        W 1603   5.974   2.448   2.269 -0.1230  0.1388  0.1906
 1604W        W 1604   5.628   0.307   1.746 -0.3379 -0.3270  0.3279
 1605W        W 1605   3.676   1.406   2.498  0.0051  0.0084 -0.2669
 1606W        W 1606   0.393   3.501   6.356 -0.1719 -0.1215  0.0031
 1607W        W 1607   0.943   1.133   3.730 -0.2189 -0.1373  0.3104
 1608W        W 1608   6.047   6.536   1.590 -0.0525  0.2228 -0.1798
 1609W        W 1609   2.414   3.698   3.344  0.0063 -0.3680 -0.0451
 1610W        W 1610   3.528   0.526   4.350  0.2067  0.2183  0.3156
 1611W        W 1611   0.468   4.016   2.405  0.1361  0.0128 -0.0892
 1612W        W 1612   2.198   6.580   0.188 -0.0433 -0.0654  0.1252
 1613W        W 1613   3.038   3.003   3.466 -0.1355 -0.0935  0.1591
 1614W        W 1614   1.402   6.700   1.847 -0.1133  0.0857 -0.0389
 1615W        W 1615   3.824   6.799   0.820  0.1091 -0.1462 -0.0161
 1616W        W 1616   7.227   5.017   1.594 -0.1593 -0.1163 -0.2409
 1617W        W 1617   1.462   0.609   0.783 -0.1890 -0.1156  0.1617
 1618W        W 1618   3.942   7.090   1.868  0.0782  0.1027  0.0215
 1619W        W 1619   2.863   3.996   6.688  0.0219  0.2370  0.2301
 1620W        W 1620   6.582   6.757   2.832 -0.1272 -0.2130 -0.1089
 1621W        W 1621   3.932   6.145   6.416 -0.1125 -0.1234 -0.1528
 1622W        W 1622   0.010   0.668   6.200 -0.1103  0.3863  0.0174
 1623W        W 1623   6.645   3.622   2.540 -0.1812  0.0861  0.0069
 1624W        W 1624   4.633   6.312   0.692  0.0965  0.0437  0.0562
 1625W        W 1625   5.464   4.242   4.773  0.0621  0.0373 -0.1938
 1626W        W 1626   2.225   3.892   0.655  0.1770  0.0326  0.0553
 1627W        W 1627   5.275   3.221   2.195  0.0041 -0.0183 -0.0694
 1628W        W 1628   6.439   1.531   0.707  0.0350 -0.0484 -0.1720
 1629W        W 1629   6.436   5.742   5.042 -0.0311  0.3235 -0.0526
 1630W        W 1630   0.922   0.320   6.819 -0.1102 -0.2747 -0.0376
 1631W        W 1631   3.552   3.060   3.736  0.0741  0.0072  0.1227
 1632W        W 1632   1.626   6.693   6.091 -0.0047 -0.1588 -0.1784
 1633W        W 1633   3.639   3.898   4.740  0.1053  0.1918  0.1792
 1634W        W 1634   0.366   5.577   1.165  0.0565 -0.2788 -0.0598
 1635W        W 1635   3.439   5.255   5.638  0.1791  0.1606 -0.1966
 1636W        W 1636   4.646   1.708   2.390  0.0278  0.0630 -0.1372
 1637W        W 1637   5.005   4.172   6.810 -0.0163  0.3700  0.0910
 1638W        W 1638   1.493   2.723   3.432  0.0141 -0.2295 -0.2026
 1639W        W 1639   6.034   2.423   5.317 -0.0919 -0.0077  0.0443
 1640W        W 1640   0.158   4.170   2.797  0.1068  0.3592 -0.0723
 1641W        W 1641   5.334   5.760   1.806  0.0676 -0.1611 -0.1107
 1642W        W 1642   5.837   2.317   3.208  0.1216  0.0459 -0.0213
 1643W        W 1643   1.042   1.485   5.443  0.1963  0.0004 -0.1515
 1644W        W 1644   6.682   7.243   4.854 -0.2461 -0.0846 -0.2007
 1645W        W 1645   3.355   2.943   2.849 -0.0840  0.1655  0.3996
 1646W        W 1646   1.448   0.421   5.877 -0.1533 -0.1363 -0.2132
 1647W        W 1647   3.494   3.062   5.196 -0.3067  0.1069 -0.2332
 1648W        W 1648   1.229   5.422   1.163  0.2310  0.1156  0.0846
 1649W        W 1649   1.771   3.686   0.167 -0.1475 -0.0268 -0.0141
 1650W        W 1650   5.016   2.298   0.382 -0.0284 -0.0154 -0.1119
 1651W        W 1651   1.396   5.759   7.075  0.2338  0.3334 -0.3991
 1652W        W 1652   2.034   1.613   3.561  0.2353 -0.2767  0.1056
 1653W        W 1653   0.377   4.279   6.699  0.1447 -0.2808  0.1826
 1654W        W 1654   6.023   5.992   3.050 -0.1027 -0.2336 -0.0364
 1655W        W 1655   1.563   0.202   6.668 -0.1382 -0.3049  0.1782
 1656W        W 1656   4.662   3.167   0.439  0.3041 -0.1589  0.2655
 1657W        W 1657   0.012   5.119   3.540  0.0550  0.0562 -0.0309
 1658W        W 1658   1.511   0.131   0.652  0.1063 -0.0937 -0.0091
 1659W        W 1659   3.563   3.477   5.022  0.0309  0.1516  0.2883
 1660W        W 1660   6.208   6.577   2.498  0.3098  0.1634  0.1904
 1661W        W 1661   2.072   2.690   2.190 -0.1506  0.4766 -0.4690
 1662W        W 1662   0.502   4.070   3.661  0.2370 -0.4901 -0.0250
 1663W        W 1663   3.829   1.558   5.812 -0.0048 -0.1686  0.0194
 1664W        W 1664   3.973   4.109   6.089  0.2126 -0.0742 -0.1459
 1665W        W 1665   4.514   6.985   4.063 -0.2318 -0.0180  0.3716
 1666W        W 1666   3.803   7.314   6.766  0.0003 -0.1093  0.1052
 1667W        W 1667   4.905   0.712   1.360 -0.1890  0.0416 -0.3068
 1668W        W 1668   2.501   2.714   3.021 -0.0891  0.1507 -0.3272
 1669W        W 1669   3.767   2.140   4.325  0.0959  0.1095  0.0710
 1670W        W 1670   4.150   3.755   1.177 -0.1373  0.1588 -0.3818
 1671W        W 1671   5.446   4.916   3.548  0.2392  0.0922 -0.0002
 1672W        W 1672   0.738   4.578   0.493  0.2799  0.1676 -0.0119
 1673W        W 1673   3.145   1.370   4.353  0.2037 -0.0193 -0.0730
 1674W        W 1674   2.676   3.454   5.993 -0.3262 -0.0440 -0.1341
 1675W        W 1675   1.696   1.343   6.238 -0.0593 -0.3576  0.2261
 1676W        W 1676   2.454   6.270   2.682  0.1164  0.1135  0.1469
 1677W        W 1677   4.970   0.312   3.594 -0.1535  0.4663 -0.0985
 1678W        W 1678   1.396   5.691   6.583  0.1551  0.2712  0.3817
 1679W        W 1679   4.828   0.969   2.370  0.1203  0.0431 -0.0490
 1680W        W 1680   5.932   0.331   0.412 -0.0277 -0.1206  0.2262
 1681W        W 1681   1.062   1.387   0.992 -0.2111 -0.1509  0.3245
 1682W        W 1682   0.479   5.399   3.698 -0.0123  0.1796  0.0052
 1683W        W 1683   4.813   5.422   2.770 -0.1721 -0.1598  0.1136
 1684W        W 1684   1.744   5.178   2.465  0.5541 -0.0966 -0.1605
 1685W        W 1685   5.056   3.951   4.250 -0.0493 -0.0724  0.1426
 1686W        W 1686   2.268   0.170   3.727  0.2099  0.1029  0.2563
 1687W        W 1687   1.283   2.096   4.815  0.0055  0.0675  0.0417
 1688W        W 1688   2.433   6.637   5.466  0.2426  0.0480 -0.1864
 1689W        W 1689   4.836   2.851   7.245 -0.1581 -0.2887  0.1214
 1690W        W 1690   3.969   2.597   3.451  0.1126 -0.1924  0.1277
 1691W        W 1691   4.292   0.653   6.634 -0.1994  0.3139 -0.0209
 1692W        W 1692   6.146   5.983   0.990  0.1323 -0.1079 -0.0269
 1693W        W 1693   1.730   4.895   6.000  0.0857  0.1592 -0.1830
 1694W        W 1694   2.323   0.937   2.006 -0.1843 -0.1161 -0.0881
 1695W        W 1695   0.438   3.270   2.033 -0.1103 -0.2134 -0.0826
 1696W        W 1696   4.489   6.880   5.984  0.1125  0.0121 -0.0848
 1697W        W 1697   2.991   1.870   0.630 -0.1796  0.0651 -0.0556
 1698W        W 1698   5.244   0.858   0.210 -0.2935 -0.1128  0.3354
 1699W        W 1699   0.227   4.539   3.650  0.4305 -0.2857  0.2399
 1700W        W 1700   3.482   0.595   3.455  0.0862 -0.2097 -0.2124
 1701W        W 1701   6.341   1.366   7.138  0.0090  0.4584 -0.1211
 1702W        W 1702   2.988   0.864   6.236  0.2884  0.3162 -0.0189
 1703W        W 1703   3.871   3.335   4.555 -0.2357  0.0145  0.0717
 1704W        W 1704   0.089   3.610   0.429 -0.1398 -0.0093  0.1337
 1705W        W 1705   3.880   4.971   0.215  0.0615 -0.0323 -0.3407
 1706W        W 1706   1.299   3.887   6.879  0.6022 -0.2871  0.3867
 1707W        W 1707   3.064   3.774   5.876  0.1587 -0.1235  0.1374
 1708W        W 1708   0.249   7.070   5.897  0.4530 -0.0236  0.0379
 1709W        W 1709   1.814   1.087   1.545 -0.2005  0.2755  0.1893
 1710W        W 1710   1.635   5.683   0.800 -0.1977 -0.2105 -0.0083
 1711W        W 1711   2.577   5.179   2.776 -0.1634  0.3151 -0.2455
 1712W        W 1712   2.832   1.683   5.058  0.0322  0.0362  0.0659
 1713W        W 1713   0.195   3.515   2.408  0.0278 -0.0312 -0.1978
 1714W        W 1714   6.260   0.913   4.560  0.0909  0.0722  0.2249
 1715W        W 1715   0.540   4.196   5.016  0.0615  0.2115 -0.0942
 1716W        W 1716   6.891   5.166   3.996  0.1373 -0.1638  0.0607
 1717W        W 1717   2.438   0.709   2.497 -0.0046 -0.0958 -0.1049
 1718W        W 1718   2.818   5.495   3.064 -0.2886 -0.3093 -0.3236
 1719W        W 1719   6.419   4.682   7.111 -0.1528  0.2528  0.2242
 1720W        W 1720   4.666   2.622   0.390 -0.1537 -0.1427 -0.2869
 1721W        W 1721   6.917   0.889   0.351 -0.1159  0.0624  0.1760
 1722W        W 1722   5.525   5.226   5.817 -0.0461  0.4929  0.0574
 1723W        W 1723   3.223   5.548   0.877 -0.2952  0.3070 -0.2297
 1724W        W 1724   1.017   6.190   3.260 -0.0329  0.4578  0.1061
 1725W        W 1725   1.941   1.780   5.616  0.0468 -0.0514 -0.0362
 1726W        W 1726   6.503   4.795   0.332  0.1951  0.1011  0.0315
 1727W        W 1727   5.281   5.057   6.569  0.1394 -0.1499 -0.3664
 1728W        W 1728   6.409   4.095   2.483  0.0103  0.0176 -0.3366
 1729W        W 1729   3.805   6.235   0.496 -0.0890 -0.1299 -0.0674
 1730W        W 1730   0.337   0.846   4.815  0.2174 -0.0806 -0.2563
 1731W        W 1731   0.100   4.352   4.895  0.1238  0.0682 -0.0237
 1732W        W 1732   4.049   6.034   0.150 -0.0975  0.3323 -0.0011
 1733W        W 1733   4.153   5.476   5.091 -0.4000 -0.0461  0.0357
 1734W        W 1734   2.515   5.122   3.588 -0.1143  0.1705 -0.2992
 1735W        W 1735   2.846   1.099   7.193  0.0224 -0.2622 -0.2159
 1736W        W 1736   3.966   1.148   2.190  0.2612 -0.0281 -0.2555
 1737W        W 1737   7.005   4.930   2.819 -0.0679 -0.1361  0.2803
 1738W        W 1738   3.702   5.431   2.075  0.0042 -0.4147 -0.2189
 1739W        W 1739   4.218   2.583   7.103 -0.0152 -0.2323  0.0399
 1740W        W 1740   5.122   2.407   5.130 -0.1278 -0.0787 -0.1642
 1741W        W 1741   1.962   0.921   0.854 -0.0503 -0.1684  0.1677
 1742W        W 1742   4.540   1.656   1.907  0.3232  0.2617  0.0502
 1743W        W 1743   0.733   0.448   6.401 -0.0089 -0.0143  0.0263
 1744W        W 1744   1.047   7.240   7.134 -0.2582 -0.1993  0.0561
 1745W        W 1745   5.928   5.098   3.315  0.0695  0.1454  0.0623
 1746W        W 1746   1.449   1.085   4.656 -0.2228  0.4425  0.0172
 1747W        W 1747   4.896   1.705   3.033  0.0113 -0.2132 -0.1490
 1748W        W 1748   3.397   4.035   1.921  0.1104  0.0294 -0.1280
 1749W        W 1749   4.900   0.740   1.937 -0.0097 -0.0278  0.0607
 1750W        W 1750   5.765   7.230   5.702  0.1464 -0.0001 -0.1787
 1751W        W 1751   5.273   5.053   0.552 -0.1509  0.1102  0.0087
 1752W        W 1752   4.309   4.356   4.413  0.0004  0.0758  0.3542
 1753W        W 1753   6.161   6.883   3.986  0.2395  0.1336 -0.2245
 1754W        W 1754   5.676   3.410   5.758  0.0226 -0.2600 -0.2317
 1755W        W 1755   5.726   0.064   2.698 -0.0321 -0.1910  0.2046
 1756W        W 1756   7.190   4.692   3.327  0.0820 -0.0879  0.2130
 1757W        W 1757   2.095   2.318   6.223  0.0198 -0.2198 -0.1494
 1758W        W 1758   0.509   2.671   5.979  0.0473 -0.1320 -0.0008
 1759W        W 1759   3.776   5.423   4.768  0.2120  0.1606 -0.0307
 1760W        W 1760   6.406   1.974   0.536 -0.0745 -0.4383  0.1152
 1761W        W 1761   1.096   0.728   5.509  0.0926 -0.4209 -0.0024
 1762W        W 1762   2.148   1.150   5.553 -0.1733 -0.1152 -0.0765
 1763W        W 1763   2.077   3.196   5.911 -0.2313  0.1631 -0.0591
 1764W        W 1764   0.471   4.930   3.493 -0.1571 -0.2267 -0.1494
 1765W        W 1765   2.529   4.328   6.481 -0.1163 -0.0978  0.0761
 1766W        W 1766   3.149   2.758   6.165  0.0274  0.1429 -0.1165
 1767W        W 1767   1.719   6.976   2.112  0.3777 -0.0751  0.1567
 1768W        W 1768   4.694   0.083   6.201  0.3190  0.0159 -0.0603
 1769W        W 1769   2.794   0.431   0.690  0.1962  0.0094 -0.2287
 1770W        W 1770   4.510   4.975   3.395  0.2874  0.0335 -0.2783
 1771W        W 1771   2.104   1.736   1.792 -0.1668  0.2975 -0.2904
 1772W        W 1772   5.595   5.012   5.325 -0.0038  0.0463  0.0003
 1773W        W 1773   5.389   5.305   1.910  0.0066  0.0915 -0.2348
 1774W        W 1774   3.793   0.069   1.439 -0.1343 -0.1168  0.1554
 1775W        W 1775   7.253   6.078   1.741 -0.0911  0.1036  0.0392
 1776W        W 1776   4.298   0.897   7.114 -0.0856  0.0626  0.2469
 1777W        W 1777   3.381   1.290   1.212  0.1522 -0.0392  0.0724
 1778W        W 1778   2.790   2.927   4.308 -0.1795 -0.1039  0.1455
 1779W        W 1779   3.230   6.808   3.657 -0.1355  0.1691  0.0081
 1780W        W 1780   1.622   3.329   4.318 -0.0688 -0.0387 -0.0927
 1781W        W 1781   4.745   4.429   4.084 -0.2619 -0.0548 -0.0074
 1782W        W 1782   3.508   3.524   0.228  0.1769  0.1839  0.0259
 1783W        W 1783   1.491   4.052   4.042 -0.0247  0.1621 -0.1136
 1784W        W 1784   1.336   6.293   7.297  0.0566  0.0121 -0.3928
 1785W        W 1785   3.487   1.014   6.012  0.2924 -0.1190 -0.2451
 1786W        W 1786   1.558   2.411   0.034  0.0924  0.0231 -0.0999
 1787W        W 1787   0.757   2.591   3.545  0.1057  0.1285 -0.3520
 1788W        W 1788   5.799   1.035   3.016  0.2128 -0.0994  0.0575
 1789W        W 1789   4.780   4.804   4.497 -0.1771  0.2620 -0.2223
 1790W        W 1790   0.931   4.129   2.467  0.0132 -0.3084  0.0094
 1791W        W 1791   6.085   2.534   4.811  0.0046 -0.1169 -0.3154
 1792W        W 1792   1.906   3.051   3.057  0.1555 -0.3870  0.2013
 1793W        W 1793   0.207   1.844   5.221  0.0437 -0.1744  0.1498
 1794W        W 1794   5.359   2.143   3.084  0.0681 -0.2480  0.5701
 1795W        W 1795   3.244   6.229   6.742  0.1076 -0.2596  0.2568
 1796W        W 1796   1.212   0.455   6.383  0.0368 -0.2025 -0.2041
 1797W        W 1797   6.827   2.688   5.965  0.0111 -0.1405  0.1548
 1798W        W 1798   3.629   2.142   3.403  0.0205 -0.1021  0.1252
 1799W        W 1799   7.113   1.038   5.899  0.0207  0.1133 -0.0562
 1800W        W 1800   0.766   6.325   0.778  0.3285  0.0822 -0.1930
 1801W        W 1801   1.178   3.036   3.764  0.1752 -0.0040  0.1106
 1802W        W 1802   5.514   2.861   2.545  0.3267  0.0316  0.4971
 1803W        W 1803   0.236   1.754   2.701 -0.0829  0.0827 -0.0853
 1804W        W 1804   3.864   2.758   5.299  0.3029  0.0670 -0.2686
 1805W        W 1805   5.354   2.359   4.528  0.1779  0.2364  0.0369
 1806W        W 1806   2.121   5.474   3.702 -0.0244  0.0601 -0.0004
 1807W        W 1807   7.306   0.194   7.044  0.1970  0.0516  0.1367
 1808W        W 1808   2.483   5.862   4.396 -0.1595  0.0068  0.1477
 1809W        W 1809   1.064   1.913   5.237  0.0025 -0.0581 -0.1499
 1810W        W 1810   2.348   0.226   2.715  0.3326  0.0614 -0.3478
 1811W        W 1811   6.238   2.643   3.113 -0.0649 -0.0254 -0.0264
 1812W        W 1812   1.135   6.709   3.410  0.2248 -0.0841  0.2244
 1813W        W 1813   4.137   2.242   3.101 -0.0523 -0.1768  0.0649
 1814W        W 1814   5.130   5.109   1.146 -0.0549  0.0670  0.0962
 1815W        W 1815   3.023   2.870   0.313 -0.1151  0.0492  0.0979
 1816W        W 1816   4.013   6.234   3.322  0.1337 -0.1351  0.0334
 1817W        W 1817   5.468   1.061   0.608  0.0747 -0.2264 -0.2063
 1818W        W 1818   6.468   5.939   3.225  0.0819  0.1606  0.2592
 1819W        W 1819   5.950   6.054   4.789  0.2450  0.1611  0.0010
 1820W        W 1820   0.369   7.143   3.855  0.1175  0.2945  0.1145
 1821W        W 1821   4.972   3.220   3.564 -0.3990  0.2254  0.0497
 1822W        W 1822   0.270   0.353   0.129  0.1671 -0.0233 -0.0525
 1823W        W 1823   4.133   7.216   6.025  0.1686  0.0140 -0.2478
 1824W        W 1824   4.695   2.187   2.310 -0.1807  0.1084 -0.0553
 1825W        W 1825   0.033   2.873   6.756  0.1438  0.1537 -0.1748
 1826W        W 1826   3.474   4.183   2.433 -0.2037 -0.0273 -0.2282
 1827W        W 1827   4.096   1.263   0.276 -0.0848  0.2929 -0.0108
 1828W        W 1828   5.166   7.032   6.534  0.2997  0.0181 -0.0884
 1829W        W 1829   5.231   4.834   4.722  0.0134  0.1928  0.2607
 1830W        W 1830   5.132   3.196   0.720  0.0349  0.1620  0.2907
 1831W        W 1831   5.658   4.376   2.812 -0.0281 -0.0405  0.1861
 1832W        W 1832   2.187   7.112   7.214  0.0742  0.0516 -0.0505
 1833W        W 1833   5.203   5.757   4.452 -0.0550  0.0495  0.0748
 1834W        W 1834   1.788   5.968   7.314 -0.1549 -0.0681 -0.2317
 1835W        W 1835   5.520   2.135   2.207 -0.0867 -0.1179 -0.1803
 1836W        W 1836   6.322   4.392   0.189 -0.1226 -0.1301 -0.0621
 1837W        W 1837   4.013   3.445   3.825  0.0590  0.1700  0.3214
 1838W        W 1838   2.839   0.896   6.707  0.3725  0.0152  0.0048
 1839W        W 1839   0.411   1.438   4.653 -0.0454 -0.1566 -0.0434
 1840W        W 1840   2.383   6.159   2.211 -0.1707  0.2680  0.1553
 1841W        W 1841   5.668   1.749   3.730 -0.1862 -0.4028  0.1549
 1842W        W 1842   5.077   6.737   3.220 -0.0639  0.0559  0.2135
 1843W        W 1843   5.041   0.089   7.064 -0.3573 -0.0343  0.2765
 1844W        W 1844   4.454   2.998   6.389  0.2275 -0.3659  0.2542
 1845W        W 1845   1.038   5.370   4.345  0.3286 -0.1919 -0.0791
 1846W        W 1846   2.687   2.222   3.028 -0.1019  0.0840  0.0443
 1847W        W 1847   3.606   3.271   7.012  0.0107 -0.1025 -0.1534
 1848W        W 1848   2.654   4.687   3.888 -0.0602  0.2686 -0.1508
 1849W        W 1849   3.190   2.937   4.581  0.3144  0.0107 -0.0815
 1850W        W 1850   3.807   5.923   4.383  0.0927  0.0843 -0.1652
 1851W        W 1851   6.745   2.938   0.584 -0.0631 -0.1116 -0.1339
 1852W        W 1852   3.531   1.651   3.319  0.2518 -0.0744  0.3612
 1853W        W 1853   2.354   3.471   1.831 -0.4961 -0.2811  0.2009
 1854W        W 1854   6.504   0.562   6.943  0.0361  0.0979  0.0387
 1855W        W 1855   4.633   1.475   0.770 -0.3791 -0.3938 -0.2295
 1856W        W 1856   7.064   6.726   0.821 -0.1944 -0.0735 -0.0803
 1857W        W 1857   0.758   0.241   3.883  0.2090 -0.1536  0.0729
 1858W        W 1858   0.486   4.024   0.583  0.1831  0.1583 -0.1479
 1859W        W 1859   0.058   4.674   1.226 -0.0507 -0.1037 -0.2919
 1860W        W 1860   3.290   3.681   3.189 -0.1157 -0.1825  0.0442
 1861W        W 1861   0.876   6.158   2.730  0.2006  0.1738  0.0131
 1862W        W 1862   3.716   1.633   0.165  0.1107  0.0586 -0.2174
 1863W        W 1863   4.775   6.751   3.673 -0.0252  0.5078  0.3346
 1864W        W 1864   6.086   3.428   2.792  0.1632 -0.2232 -0.0877
 1865W        W 1865   3.387   7.028   0.546  0.0036  0.2132 -0.0654
 1866W        W 1866   6.696   0.372   5.047 -0.2696  0.0290  0.3200
 1867W        W 1867   1.036   5.157   1.641  0.0731  0.2372 -0.1618
 1868W        W 1868   3.081   0.019   2.073  0.2751  0.2338  0.1504
 1869W        W 1869   4.350   0.487   4.715 -0.1137 -0.1666 -0.1074
 1870W        W 1870   2.324   0.081   0.767  0.1389 -0.1824  0.2850
 1871W        W 1871   2.332   7.023   6.501  0.1035 -0.4369  0.1797
 1872W        W 1872   6.376   3.154   5.652 -0.0445 -0.2819 -0.0738
 1873W        W 1873   0.987   6.364   1.296  0.2189 -0.1293 -0.1294
 1874W        W 1874   4.233   5.353   6.347  0.1604  0.0325 -0.2764
 1875W        W 1875   3.979   2.494   6.241  0.1275  0.1820  0.1328
 1876W        W 1876   0.301   4.454   0.765 -0.0055 -0.1219 -0.3541
 1877W        W 1877   6.754   1.184   3.847 -0.2495  0.0701 -0.0825
 1878W        W 1878   6.193   2.012   1.569  0.0932 -0.0690  0.1343
 1879W        W 1879   5.722   3.848   2.722 -0.2347  0.1065 -0.3313
 1880W        W 1880   0.441   5.257   6.254  0.0846 -0.1902 -0.0925
 1881W        W 1881   1.360   3.418   7.222  0.1734 -0.3373 -0.0326
 1882W        W 1882   0.277   3.627   1.368 -0.0710 -0.1210 -0.0281
 1883W        W 1883   5.258   2.838   1.148  0.2143  0.1084  0.1416
 1884W        W 1884   4.884   2.724   3.317  0.1556 -0.1268  0.4683
 1885W        W 1885   1.650   3.104   3.878 -0.1091 -0.5541 -0.0913
 1886W        W 1886   0.439   1.498   5.526 -0.0674 -0.0728  0.1270
 1887W        W 1887   4.506   2.523   4.083  0.1968 -0.1461 -0.0675
 1888W        W 1888   1.892   5.266   0.657 -0.0810 -0.0482 -0.0599
 1889W        W 1889   5.612   6.863   3.097 -0.0172 -0.1089  0.1407
 1890W        W 1890   5.020   1.481   6.760  0.2629  0.0037 -0.3228
 1891W        W 1891   0.738   2.914   6.417  0.1445  0.0877 -0.1204
 1892W        W 1892   7.025   1.346   1.421  0.0600 -0.2000  0.0366
 1893W        W 1893   3.490   4.553   2.126 -0.1754  0.0479  0.1886
 1894W        W 1894   3.989   4.230   7.027 -0.2883 -0.3349  0.6403
 1895W        W 1895   6.023   7.289   4.633  0.0418  0.0757 -0.2696
 1896W        W 1896   1.595   7.025   3.185 -0.0714 -0.2176 -0.3552
 1897W        W 1897   0.838   4.392   3.425  0.1565 -0.1900 -0.1803
 1898W        W 1898   1.381   2.469   0.861  0.1752 -0.0161 -0.1383
 1899W        W 1899   2.876   5.756   5.462 -0.2899  0.0115 -0.1074
 1900W        W 1900   5.773   6.881   0.501  0.0544 -0.0553 -0.1633
 1901W        W 1901   0.458   3.491   4.443  0.3145  0.0544  0.0032
 1902W        W 1902   1.178   5.331   5.137 -0.2332 -0.3308  0.0795
 1903W        W 1903   6.512   2.170   5.941  0.0228  0.2989 -0.2107
 1904W        W 1904   5.916   2.882   1.815 -0.2192  0.1124 -0.3476
 1905W        W 1905   1.751   4.146   3.165  0.1234 -0.3100 -0.0362
 1906W        W 1906   1.914   0.550   0.093  0.0944 -0.1339 -0.0044
 1907W        W 1907   5.311   5.246   2.837  0.1188 -0.1360 -0.0977
 1908W        W 1908   3.225   3.634   7.071 -0.1297 -0.1170 -0.0772
 1909W        W 1909   1.752   5.318   6.456 -0.3324  0.0494 -0.1920
 1910W        W 1910   0.601   7.241   1.906  0.2548  0.1347  0.0981
 1911W        W 1911   2.301   4.625   2.174 -0.1993  0.2966 -0.0679
 1912W        W 1912   6.814   6.601   6.132 -0.0460  0.1957  0.0144
 1913W        W 1913   2.579   5.467   3.978  0.2977 -0.2355  0.0721
 1914W        W 1914   3.273   0.806   5.255 -0.0412 -0.0121 -0.0304
 1915W        W 1915   2.503   5.664   5.746  0.3233 -0.1301 -0.0470
 1916W        W 1916   0.649   2.915   0.321  0.1656 -0.2660 -0.0492
 1917W        W 1917   4.356   6.162   2.904 -0.1883  0.0839 -0.0662
 1918W        W 1918   4.699   6.600   7.078  0.3013  0.0958  0.0202
 1919W        W 1919   1.054   2.105   3.491 -0.3612 -0.1320  0.2181
 1920W        W 1920   0.957   0.107   2.309  0.3695 -0.1247  0.0220
 1921W        W 1921   0.796   3.740   6.242 -0.2012 -0.0142  0.0082
 1922W        W 1922   3.447   1.646   0.804  0.3125  0.3658  0.2977
 1923W        W 1923   3.303   3.428   2.038  0.0666 -0.1747 -0.0254
 1924W        W 1924   3.900   5.265   5.967 -0.1171  0.3390 -0.0268
 1925W        W 1925   1.189   5.020   2.628 -0.0677  0.3018  0.1827
 1926W        W 1926   3.258   0.808   1.464 -0.0482  0.0636 -0.3563
 1927W        W 1927   2.352   5.408   0.993  0.3962  0.1391  0.0629
 1928W        W 1928   5.918   0.582   7.260  0.2121 -0.2033 -0.1621
 1929W        W 1929   6.810   1.255   0.896  0.1139 -0.1146 -0.1072
 1930W        W 1930   1.786   5.372   2.018  0.0759 -0.2705 -0.0681
 1931W        W 1931   3.649   2.415   0.528  0.0759  0.2187 -0.0653
 1932W        W 1932   5.814   2.128   4.640  0.1044  0.0784 -0.2287
 1933W        W 1933   6.339   0.188   1.206  0.1484  0.1590  0.0678
 1934W        W 1934   1.670   6.346   5.202 -0.4027 -0.2245  0.2122
 1935W        W 1935   4.934   5.448   2.172  0.1773  0.0387 -0.0948
 1936W        W 1936   0.180   0.737   3.435  0.1288  0.0947 -0.3344
 1937W        W 1937   6.482   0.229   2.191  0.2306  0.0020  0.1642
 1938W        W 1938   1.697   6.183   0.811  0.0072  0.0593 -0.2003
 1939W        W 1939   2.112   0.647   2.914  0.0618 -0.1032  0.2108
 1940W        W 1940   2.401   0.829   5.909 -0.0128  0.2142 -0.0903
 1941W        W 1941   4.556   3.680   5.572  0.0515  0.1465  0.1434
 1942W        W 1942   1.720   3.031   4.867 -0.2935  0.0110 -0.0868
 1943W        W 1943   4.552   4.234   6.922 -0.0166 -0.0192  0.2718
 1944W        W 1944   1.908   5.644   6.814  0.0194 -0.1960 -0.4024
 1945W        W 1945   3.595   6.835   7.002  0.0233 -0.0754  0.0648
 1946W        W 1946   6.618   4.713   5.297 -0.1248  0.0005  0.0419
 1947W        W 1947   4.079   3.314   7.148 -0.0155 -0.1488 -0.2157
 1948W        W 1948   0.931   3.679   0.214 -0.0619  0.1894 -0.3152
 1949W        W 1949   1.511   1.719   5.424 -0.1503 -0.1491 -0.0071
 1950W        W 1950   5.231   4.559   2.119 -0.2717  0.2870 -0.3290
 1951W        W 1951   4.150   0.385   5.186 -0.1033 -0.1463  0.2145
 1952W        W 1952   4.277   2.204   5.085 -0.0351  0.0249  0.1400
 1953W        W 1953   7.188   5.790   0.989 -0.1426 -0.0379 -0.1216
 1954W        W 1954   1.795   4.343   4.478 -0.0577 -0.4162  0.0967
 1955W        W 1955   2.020   6.314   3.008  0.1933 -0.1552 -0.1842
 1956W        W 1956   3.007   6.196   4.736  0.3763  0.0506  0.1834
 1957W        W 1957   2.096   6.183   4.295  0.0948  0.3082  0.1922
 1958W        W 1958   4.254   0.382   6.125  0.3062  0.1252 -0.1555
 1959W        W 1959   2.159   1.145   3.334  0.0412  0.3849 -0.1960
 1960W        W 1960   0.555   2.872   2.946  0.2888  0.2837  0.0879
 1961W        W 1961   2.741   4.602   7.154 -0.0903  0.0872 -0.0897
 1962W        W 1962   2.677   0.061   5.483 -0.0829  0.4057 -0.3688
 1963W        W 1963   0.213   1.927   1.202 -0.2553 -0.1846 -0.1716
 1964W        W 1964   5.595   5.374   4.299  0.1950  0.0779  0.0117
 1965W        W 1965   0.056   6.926   3.456 -0.0864  0.3138 -0.0566
 1966W        W 1966   7.089   3.798   4.670  0.0007  0.2077 -0.0393
 1967W        W 1967   4.160   0.583   3.084  0.1774 -0.3138  0.2892
 1968W        W 1968   4.695   5.891   3.106 -0.1155 -0.2384 -0.0243
 1969W        W 1969   2.890   5.554   6.745 -0.0589 -0.0602  0.0377
 1970W        W 1970   4.561   0.781   3.371  0.3495 -0.2628  0.0549
 1971W        W 1971   6.701   4.129   1.501  0.1888  0.0613  0.1997
 1972W        W 1972   5.080   1.448   0.283  0.2326 -0.0688 -0.2969
 1973W        W 1973   0.572   2.591   4.839 -0.0235 -0.3055 -0.1720
 1974W        W 1974   2.596   5.664   3.497 -0.0410 -0.5026  0.3329
 1975W        W 1975   4.748   6.356   3.380  0.3707 -0.0108 -0.1134
 1976W        W 1976   2.252   3.286   5.122  0.1204 -0.1254 -0.0608
 1977W        W 1977   0.346   2.905   3.506 -0.1569 -0.0887 -0.1335
 1978W        W 1978   3.314   2.243   2.638 -0.1718 -0.0766 -0.1950
 1979W        W 1979   3.268   5.603   1.645 -0.3521  0.1704 -0.0498
 1980W        W 1980   2.761   5.065   6.968 -0.0026 -0.3106 -0.0358
 1981W        W 1981   4.429   0.972   0.506  0.0712 -0.2382 -0.0419
 1982W        W 1982   4.098   0.733   1.768 -0.6419  0.2908 -0.0450
 1983W        W 1983   3.081   2.729   2.507 -0.0136 -0.0259  0.1968
 1984W        W 1984   5.366   0.446   5.358 -0.2441 -0.0750  0.1335
 1985W        W 1985   3.835   4.800   6.372  0.1740  0.1097  0.2022
 1986W        W 1986   7.259   7.269   2.863  0.2342  0.2290  0.2272
 1987W        W 1987   6.005   5.948   3.554 -0.2357  0.1252 -0.0736
 1988W        W 1988   4.002   3.885   6.638 -0.0629 -0.2550  0.2206
 1989W        W 1989   2.816   3.961   3.144  0.3628 -0.0876  0.1984
 1990W        W 1990   4.496   6.276   4.653  0.3986 -0.2013 -0.3985
 1991W        W 1991   5.173   1.219   7.188  0.0769 -0.2405  0.0978
 1992W        W 1992   6.487   3.607   2.016 -0.1403 -0.0990  0.1507
 1993W        W 1993   6.607   7.204   5.363  0.0205 -0.2626 -0.0497
 1994W        W 1994   4.549   1.860   6.016  0.1520  0.2545 -0.0471
 1995W        W 1995   3.359   1.013   4.685 -0.0240  0.1104 -0.2983
 1996W        W 1996   3.132   2.895   1.464 -0.1153 -0.1517  0.1690
 1997W        W 1997   3.625   0.102   5.914 -0.1229  0.1865  0.1216
 1998W        W 1998   3.615   6.635   1.696  0.2220  0.0588  0.0380
 1999W        W 1999   0.128   1.386   4.058  0.2402 -0.1582 -0.0772
 2000W        W 2000   2.260   3.304   1.350 -0.1953  0.3305  0.0661
 2001W        W 2001   4.139   4.617   5.252  0.0013  0.0609  0.1013
 2002W        W 2002   0.952   5.781   5.223  0.2449 -0.2758  0.0975
 2003W        W 2003   5.902   6.433   6.816 -0.1017  0.0656  0.2298
 2004W        W 2004   5.010   2.277   3.387  0.1193 -0.1329 -0.1435
 2005W        W 2005   6.652   2.236   3.174  0.0563  0.0573 -0.0679
 2006W        W 2006   5.511   4.797   1.076 -0.0142  0.1999  0.1636
 2007W        W 2007   2.416   5.070   4.530 -0.0933  0.1777  0.1394
 2008W        W 2008   4.474   4.778   5.690  0.3075  0.1149 -0.1059
 2009W        W 2009   0.016   6.674   6.161  0.0899  0.0011 -0.2909
 2010W        W 2010   5.410   2.572   5.463  0.0053 -0.0128 -0.3822
 2011W        W 2011   4.448   6.074   1.560  0.4778 -0.2044 -0.1352
 2012W        W 2012   4.413   0.915   1.420 -0.0321  0.0413 -0.0065
 2013W        W 2013   5.755   1.697   1.595 -0.1813  0.0565 -0.0608
 2014W        W 2014   4.239   0.936   4.947 -0.0574 -0.1388  0.3016
 2015W        W 2015   2.142   4.629   4.168  0.1115 -0.2286  0.1475
 2016W        W 2016   0.741   1.609   2.653  0.1645 -0.1493  0.2782
 2017W        W 2017   1.497   3.433   6.037  0.0144 -0.0862  0.0505
 2018W        W 2018   2.169   6.591   6.932  0.2770 -0.2531 -0.1776
 2019W        W 2019   2.564   7.277   1.303 -0.1278  0.0772  0.0052
 2020W        W 2020   5.151   4.558   1.332  0.1603  0.0293 -0.0881
 2021W        W 2021   4.460   2.965   5.716  0.0542  0.1307  0.2410
 2022W        W 2022   0.229   4.910   3.026 -0.0170 -0.0696 -0.0692
 2023W        W 2023   0.653   2.083   3.845 -0.1956 -0.0769  0.0942
 2024W        W 2024   2.998   6.403   6.284 -0.0241 -0.0278 -0.2616
 2025W        W 2025   6.554   7.168   6.478  0.0383 -0.0432  0.1960
 2026W        W 2026   5.110   6.592   4.051 -0.0110  0.3524 -0.0796
 2027W        W 2027   3.149   4.685   5.264 -0.0951 -0.0121  0.3189
 2028W        W 2028   3.022   5.045   0.147  0.1266  0.2280 -0.0533
 2029W        W 2029   7.010   5.133   4.470 -0.0329  0.2326 -0.1694
 2030W        W 2030   0.346   1.456   6.519 -0.1482 -0.1900  0.0285
 2031W        W 2031   0.926   4.417   1.512  0.3304 -0.4290  0.0803
 2032W        W 2032   1.633   4.854   6.513  0.0744  0.1944 -0.0307
 2033W        W 2033   1.236   6.006   5.893 -0.0105 -0.2987 -0.1567
 2034W        W 2034   6.257   2.317   2.702 -0.2639  0.0359  0.3297
 2035W        W 2035   6.718   3.584   1.464  0.3025 -0.0448 -0.1748
 2036W        W 2036   0.164   3.010   5.658  0.2350 -0.0888  0.2521
 2037W        W 2037   2.542   0.665   4.867 -0.0192 -0.2784 -0.1329
 2038W        W 2038   0.730   2.181   6.916 -0.0758  0.2121 -0.2980
 2039W        W 2039   5.618   1.653   2.181  0.0389 -0.0286  0.0617
 2040W        W 2040   6.841   5.302   3.515 -0.3532  0.0579  0.2130
 2041W        W 2041   0.632   5.510   7.266 -0.1880 -0.0119  0.0656
 2042W        W 2042   0.033   1.680   1.613 -0.1858  0.1031  0.0810
 2043W        W 2043   6.131   2.597   1.147  0.1001 -0.2162  0.1754
 2044W        W 2044   0.074   1.741   2.108 -0.0450  0.3084 -0.3098
 2045W        W 2045   3.771   3.436   0.761  0.3696 -0.0979  0.0490
 2046W        W 2046   1.356   0.859   3.730 -0.0293  0.2344  0.0738
 2047W        W 2047   0.719   5.354   5.624 -0.1209  0.0054  0.0655
 2048W        W 2048   3.610   4.622   5.078  0.0555 -0.0039  0.0014
 2049W        W 2049   5.510   5.940   3.411 -0.1316 -0.1089 -0.0896
 2050W        W 2050   5.899   0.391   4.412 -0.0389 -0.1474  0.1294
 2051W        W 2051   4.864   6.412   5.852 -0.2700 -0.1416  0.0055
 2052W        W 2052   3.909   1.004   1.219 -0.0728 -0.1001 -0.2873
 2053W        W 2053   0.365   4.715   1.640  0.0248 -0.1480  0.0758
 2054W        W 2054   1.744   2.190   0.956 -0.2128  0.2197  0.2343
 2055W        W 2055   6.338   2.012   1.026  0.0469 -0.2074 -0.0457
 2056W        W 2056   5.802   4.249   0.415  0.0534 -0.1457 -0.0504
 2057W        W 2057   4.463   3.984   6.532 -0.2138  0.1402  0.1810
 2058W        W 2058   2.723   6.384   0.413 -0.2093 -0.1794 -0.0048
 2059W        W 2059   1.127   1.413   3.179  0.3050  0.2647  0.0614
 2060W        W 2060   2.463   4.918   6.178 -0.0082 -0.0951 -0.0577
 2061W        W 2061   5.789   1.927   5.788 -0.0834 -0.2988  0.1241
 2062W        W 2062   0.670   1.260   6.776 -0.1500 -0.0160  0.0557
 2063W        W 2063   5.989   5.025   2.154 -0.0313 -0.0354  0.1082
 2064W        W 2064   7.093   2.229   5.904 -0.1884 -0.0084 -0.0095
 2065W        W 2065   2.819   0.536   5.334  0.2986 -0.1895  0.0847
 2066W        W 2066   2.447   4.511   0.303  0.1045 -0.0052 -0.0595
 2067W        W 2067   3.708   3.861   5.272 -0.0025 -0.2844  0.0272
 2068W        W 2068   1.369   4.093   3.499 -0.0042  0.1632 -0.1484
 2069W        W 2069   1.559   6.396   2.710 -0.0642 -0.1636  0.2167
 2070W        W 2070   3.336   2.352   1.526 -0.1829 -0.3530  0.2004
 2071W        W 2071   4.594   1.272   4.674 -0.1261  0.1522  0.6044
 2072W        W 2072   0.749   2.562   2.036 -0.1973  0.0884  0.1274
 2073W        W 2073   6.483   2.274   2.280 -0.0707 -0.2557  0.2259
 2074W        W 2074   2.103   3.242   4.572 -0.0294 -0.2048 -0.2126
 2075W        W 2075   1.085   6.871   4.749  0.2398  0.2986 -0.0904
 2076W        W 2076   6.742   4.483   6.645  0.2654 -0.1591 -0.0959
 2077W        W 2077   4.949   1.378   5.399 -0.1045  0.1752  0.2721
 2078W        W 2078   6.173   2.915   5.207 -0.2622  0.1264 -0.0398
 2079W        W 2079   7.276   2.199   0.827 -0.1868 -0.2123  0.1825
 2080W        W 2080   4.027   2.684   5.774  0.0999  0.1483  0.1458
 2081W        W 2081   4.293   0.890   6.216  0.2647  0.1241  0.0292
 2082W        W 2082   3.532   5.465   2.611  0.3032  0.0073 -0.2380
 2083W        W 2083   0.741   1.808   1.138 -0.0902  0.0106  0.1085
 2084W        W 2084   1.983   3.604   1.048 -0.0475 -0.1435  0.0255
 2085W        W 2085   1.727   1.797   2.125  0.0023  0.0641  0.2296
 2086W        W 2086   7.063   4.641   6.017 -0.2098  0.3069 -0.0787
 2087W        W 2087   4.030   0.559   4.327 -0.0773 -0.1264 -0.0969
 2088W        W 2088   4.233   4.425   6.528  0.1492 -0.1191  0.1572
 2089W        W 2089   0.083   0.988   1.623 -0.0113  0.4338  0.1695
 2090W        W 2090   2.671   4.570   1.378 -0.0696 -0.2117 -0.3357
 2091W        W 2091   6.740   3.452   3.633 -0.0246  0.1063  0.0108
 2092W        W 2092   6.702   4.955   4.792  0.3152 -0.1977  0.1323
 2093W        W 2093   1.042   3.498   0.781  0.1897 -0.0247 -0.0498
 2094W        W 2094   4.779   1.619   3.597 -0.1030  0.2368  0.2366
 2095W        W 2095   1.291   6.406   0.611  0.1409  0.2428 -0.1456
 2096W        W 2096   1.605   6.965   5.205  0.3139 -0.1360 -0.1276
 2097W        W 2097   2.753   4.650   1.875 -0.0369  0.0181  0.1250
 2098W        W 2098   4.051   2.765   2.615 -0.0977 -0.0296  0.0869
 2099W        W 2099   2.150   0.347   1.187  0.1373 -0.0076  0.1425
 2100W        W 2100   3.635   5.489   4.126  0.2938 -0.0988  0.1108
 2101W        W 2101   3.746   1.858   7.072  0.2868  0.0220 -0.1254
 2102W        W 2102   6.561   2.136   4.724 -0.2523 -0.0108  0.1474
 2103W        W 2103   3.488   5.602   5.204 -0.0099  0.0942  0.1333
 2104W        W 2104   5.400   4.971   1.503  0.1064 -0.0531 -0.1710
 2105W        W 2105   4.263   1.704   0.505 -0.0325 -0.0804 -0.1422
 2106W        W 2106   0.091   0.018   1.776  0.1073  0.0538  0.0469
 2107W        W 2107   4.478   3.873   3.624 -0.2498 -0.1423 -0.0248
 2108W        W 2108   6.572   6.086   4.175  0.0923  0.1701 -0.1799
 2109W        W 2109   6.975   5.658   4.104  0.1966  0.0724 -0.0498
 2110W        W 2110   2.322   5.498   1.466 -0.0321  0.2351  0.1815
 2111W        W 2111   3.334   2.304   5.469  0.1779 -0.0702 -0.1868
 2112W        W 2112   3.538   0.870   2.337 -0.2314 -0.5412 -0.2548
 2113W        W 2113   2.299   1.142   2.820 -0.2452  0.2941 -0.1091
 2114W        W 2114   7.216   2.686   0.720 -0.0633 -0.1032  0.1065
 2115W        W 2115   4.387   4.817   0.187 -0.2228 -0.1968  0.1579
 2116W        W 2116   6.512   6.374   2.114  0.1445  0.0875  0.1716
 2117W        W 2117   2.358   6.811   1.052 -0.0998  0.1694  0.1050
 2118W        W 2118   6.321   3.228   6.554 -0.2222 -0.2178  0.1933
 2119W        W 2119   2.877   6.667   2.844  0.1978 -0.1091 -0.0765
 2120W        W 2120   3.335   4.204   1.374 -0.1153  0.0465  0.0606
 2121W        W 2121   2.672   0.898   0.456  0.0273  0.1478  0.1407
 2122W        W 2122   1.218   1.877   1.926 -0.2917  0.1698  0.0184
 2123W        W 2123   6.747   1.144   1.749  0.0604  0.0170  0.3579
 2124W        W 2124   6.522   5.513   4.217  0.0170  0.0108 -0.0244
 2125W        W 2125   1.783   3.865   3.583 -0.2070  0.2094  0.1605
 2126W        W 2126   2.585   6.263   0.951  0.2185 -0.2097 -0.0157
 2127W        W 2127   6.525   7.278   0.373 -0.3505 -0.1744 -0.2008
 2128W        W 2128   4.498   4.928   1.064  0.0717  0.2163 -0.0632
 2129W        W 2129   4.960   4.065   2.223 -0.0691  0.2841 -0.2156
 2130W        W 2130   1.359   4.077   1.026  0.0576  0.0690  0.1416
 2131W        W 2131   2.133   6.243   5.363  0.1571 -0.0352  0.1981
 2132W        W 2132   3.431   3.220   3.278  0.1867 -0.0247  0.0697
 2133W        W 2133   3.401   3.092   6.487  0.0115 -0.0328  0.1115
 2134W        W 2134   3.273   4.601   2.675 -0.4293 -0.1131 -0.0589
 2135W        W 2135   1.441   3.917   2.752  0.0404 -0.1633 -0.2084
 2136W        W 2136   6.482   4.984   2.862 -0.1440  0.1944  0.0525
 2137W        W 2137   4.850   4.573   3.590  0.2070 -0.0451 -0.1648
 2138W        W 2138   1.368   0.895   2.419  0.2472 -0.0501 -0.0046
 2139W        W 2139   2.490   6.902   4.283  0.1333  0.0095 -0.1002
 2140W        W 2140   0.224   0.047   1.282 -0.3687  0.3148 -0.1151
 2141W        W 2141   4.089   5.055   0.670 -0.1250  0.3159  0.0162
 2142W        W 2142   5.703   3.101   7.310  0.0785 -0.0902  0.1154
 2143W        W 2143   4.282   5.568   5.940 -0.0710 -0.1767  0.2364
 2144W        W 2144   2.052   4.676   6.387 -0.2564 -0.0806 -0.2554
 2145W        W 2145   2.382   2.776   1.432  0.2638  0.0960  0.0294
 2146W        W 2146   0.733   2.751   5.448  0.0431  0.2942  0.2403
 2147W        W 2147   3.937   5.822   2.952 -0.0112 -0.1511  0.0255
 2148W        W 2148   1.032   4.205   4.976 -0.2919 -0.2231  0.0042
 2149W        W 2149   7.059   0.386   0.292 -0.0638 -0.1441 -0.0916
 2150W        W 2150   6.211   3.076   1.443 -0.2728  0.1351  0.0779
 2151W        W 2151   5.419   3.401   0.331  0.1353 -0.1343  0.1000
 2152W        W 2152   2.308   5.534   4.797 -0.2189 -0.3006  0.0097
 2153W        W 2153   5.540   2.880   4.649 -0.1354  0.2236  0.0143
 2154W        W 2154   4.773   5.834   0.141  0.4020  0.2327  0.0260
 2155W        W 2155   6.749   0.278   0.760  0.2845 -0.2081  0.1284
 2156W        W 2156   5.604   2.351   0.498 -0.2638  0.0964  0.0592
 2157W        W 2157   3.539   6.038   3.195  0.2966 -0.2251 -0.0381
 2158W        W 2158   5.455   0.441   0.610 -0.0514 -0.0489 -0.3496
 2159W        W 2159   7.165   7.294   3.880  0.0694  0.1874  0.5012
 2160W        W 2160   3.499   2.580   6.490 -0.0970  0.1768  0.1069
 2161W        W 2161   6.770   1.690   4.796  0.3460 -0.0718  0.0670
 2162W        W 2162   6.697   0.811   4.819  0.1585 -0.3149  0.2797
 2163W        W 2163   0.780   5.457   0.719 -0.1630 -0.1827 -0.3507
 2164W        W 2164   1.038   5.838   0.121  0.2966  0.0880 -0.1897
 2165W        W 2165   1.382   2.428   4.380 -0.2494 -0.2383  0.0409
 2166W        W 2166   5.265   1.867   4.546 -0.0488 -0.0793 -0.2687
 2167W        W 2167   5.224   6.948   7.003 -0.1239 -0.2734 -0.1927
 2168W        W 2168   4.331   1.393   6.111  0.1038  0.1472  0.1670
 2169W        W 2169   2.999   6.913   2.397 -0.2349 -0.0196 -0.3533
 2170W        W 2170   6.634   1.265   0.235  0.0328 -0.3855 -0.0461
 2171W        W 2171   0.180   4.086   1.092  0.0133 -0.1647 -0.1995
 2172W        W 2172   0.252   5.742   4.061 -0.2675  0.2061  0.0908
 2173W        W 2173   0.510   3.083   4.761  0.0807 -0.3410  0.0707
 2174W        W 2174   4.439   6.791   5.040  0.0708  0.2057 -0.0444
 2175W        W 2175   2.307   1.348   7.303  0.1609 -0.1278  0.0489
 2176W        W 2176   5.699   4.634   4.979  0.3265 -0.0046  0.1350
 2177W        W 2177   1.559   2.859   1.149 -0.4402  0.0285  0.1434
 2178W        W 2178   0.736   6.632   2.983 -0.0170 -0.1173 -0.0520
 2179W        W 2179   7.226   2.098   0.311 -0.2591  0.0253 -0.1250
 2180W        W 2180   0.944   3.447   6.666  0.1162  0.1367 -0.2885
 2181W        W 2181   4.881   1.977   1.798  0.1303  0.0400  0.0903
 2182W        W 2182   2.655   2.507   0.162  0.0731 -0.1451  0.0818
 2183W        W 2183   3.759   5.623   7.030  0.1344 -0.1128  0.1096
 2184W        W 2184   0.984   7.068   1.072  0.1073 -0.4292 -0.1636
 2185W        W 2185   0.512   6.703   6.193 -0.2626  0.0483  0.3748
 2186W        W 2186   1.079   2.778   3.250  0.5318 -0.2074 -0.2412
 2187W        W 2187   5.450   1.703   6.622  0.1471  0.3003  0.1278
 2188W        W 2188   5.756   1.032   6.388  0.2928 -0.1552 -0.0100
 2189W        W 2189   4.926   0.030   1.624 -0.1228 -0.1253  0.1607
 2190W        W 2190   1.085   1.847   3.931 -0.0444 -0.1868 -0.0423
 2191W        W 2191   5.775   2.430   3.857  0.1071  0.1965  0.0988
 2192W        W 2192   3.796   4.608   4.584  0.4357 -0.3269  0.2451
 2193W        W 2193   4.683   4.881   1.563  0.3256 -0.1961  0.1454
 2194W        W 2194   5.709   5.383   0.389 -0.1030  0.0440  0.0008
 2195W        W 2195   6.940   1.226   5.005 -0.1512 -0.1280  0.0367
 2196W        W 2196   2.378   0.371   1.691 -0.2288  0.1168  0.0878
 2197W        W 2197   5.487   4.489   1.718 -0.0315 -0.1554  0.0649
 2198W        W 2198   6.794   6.340   3.166  0.4405 -0.3024  0.2629
 2199W        W 2199   2.636   4.064   4.889  0.1124  0.0159 -0.0859
 2200W        W 2200   0.430   1.051   4.299 -0.1134  0.2289  0.1819
 2201W        W 2201   2.482   2.541   6.658 -0.0683  0.2410  0.1010
 2202W        W 2202   1.514   3.667   5.528  0.0222  0.1436 -0.0578
 2203W        W 2203   1.739   7.194   3.977  0.4818 -0.1111 -0.1991
 2204W        W 2204   7.190   0.186   3.307 -0.3609 -0.0142 -0.1465
 2205W        W 2205   7.257   3.600   4.200  0.1493 -0.1377  0.1228
 2206W        W 2206   3.862   0.210   4.661  0.3928 -0.1654 -0.1013
 2207W        W 2207   0.980   3.862   1.277 -0.3742 -0.2410 -0.1993
 2208W        W 2208   6.136   0.998   6.901  0.0579  0.0378 -0.1077
 2209W        W 2209   3.992   0.781   0.487  0.1689  0.1438 -0.1153
 2210W        W 2210   5.451   6.010   6.269  0.2136  0.1036 -0.1817
 2211W        W 2211   1.191   4.458   3.800  0.3130 -0.0068  0.0617
 2212W        W 2212   2.356   0.682   4.407 -0.1851  0.2016 -0.1068
 2213W        W 2213   5.237   5.966   7.275 -0.0632  0.2197 -0.2066
 2214W        W 2214   6.959   0.689   7.111 -0.2109 -0.0650 -0.0434
 2215W        W 2215   3.809   4.277   5.506  0.0593 -0.0343  0.2696
 2216W        W 2216   3.488   4.995   2.864  0.0538  0.3743 -0.1167
 2217W        W 2217   0.934   0.773   5.997  0.0650 -0.1478  0.3515
 2218W        W 2218   7.280   5.241   1.014  0.1382 -0.2241 -0.0691
 2219W        W 2219   6.747   2.110   1.883 -0.0984  0.4689  0.1956
 2220W        W 2220   3.615   3.841   1.094  0.0818 -0.1266 -0.0723
 2221W        W 2221   4.391   3.427   4.179 -0.1956  0.0510  0.1205
 2222W        W 2222   1.264   3.212   4.658 -0.3625 -0.1356  0.1292
 2223W        W 2223   6.475   6.397   7.203  0.1094  0.1657  0.0223
 2224W        W 2224   4.481   5.644   2.231 -0.1340 -0.0486 -0.0312
 2225W        W 2225   6.327   6.228   5.197 -0.0602  0.2411  0.1380
 2226W        W 2226   3.530   4.010   6.713  0.1892 -0.1327  0.1510
 2227W        W 2227   7.276   4.575   6.517 -0.1712 -0.0567  0.2471
 2228W        W 2228   4.136   6.894   5.386 -0.0459  0.1345  0.1305
 2229W        W 2229   1.453   0.335   3.896  0.5326  0.2120  0.2198
 2230W        W 2230   6.426   6.831   0.782 -0.1152 -0.0511  0.2349
 2231W        W 2231   0.183   4.616   7.073  0.2570 -0.0526  0.0295
 2232W        W 2232   7.256   6.245   5.458 -0.0970 -0.1011  0.3324
 2233W        W 2233   2.527   1.106   3.650 -0.2567  0.2018 -0.1548
 2234W        W 2234   6.525   3.175   2.800  0.0495  0.1425 -0.2433
 2235W        W 2235   6.970   3.023   6.417  0.2694  0.0333  0.0303
 2236W        W 2236   6.726   2.701   3.106  0.1863 -0.3125 -0.0088
 2237W        W 2237   2.724   4.580   5.552  0.1013 -0.1756  0.1877
 2238W        W 2238   5.896   0.072   3.139 -0.0150  0.2171 -0.1619
 2239W        W 2239   4.014   1.482   4.681  0.2785 -0.5904 -0.0862
 2240W        W 2240   4.298   3.408   2.109  0.1157 -0.1958  0.1020
 2241W        W 2241   5.375   6.510   6.065  0.1723 -0.1486 -0.1407
 2242W        W 2242   1.263   5.394   3.387 -0.0475 -0.0038  0.1257
 2243W        W 2243   7.123   2.055   4.865  0.1289 -0.0289  0.1648
 2244W        W 2244   5.524   0.803   1.804 -0.0430 -0.2321  0.1039
 2245W        W 2245   5.445   0.651   3.605 -0.0911 -0.1325  0.1196
 2246W        W 2246   5.276   4.031   1.794  0.0603  0.1434  0.1923
 2247W        W 2247   7.089   0.342   4.203 -0.0673 -0.2332 -0.1728
 2248W        W 2248   4.791   7.090   7.286  0.2493  0.0342  0.2375
 2249W        W 2249   1.182   4.067   6.329  0.3955 -0.1283 -0.2797
 2250W        W 2250   3.531   1.568   6.706 -0.0011 -0.1426  0.0257
 2251W        W 2251   0.254   2.385   7.010 -0.2942  0.2600  0.1209
 2252W        W 2252   4.200   2.166   3.639  0.0123 -0.3858  0.1980
 2253W        W 2253   6.143   0.293   1.736 -0.0497  0.1089 -0.0149
 2254W        W 2254   2.581   3.614   2.794  0.0074 -0.1774  0.4428
 2255W        W 2255   6.700   0.185   3.094 -0.1687 -0.0357  0.2295
 2256W        W 2256   2.955   4.262   3.944  0.3263  0.1271  0.1783
 2257W        W 2257   0.292   1.263   2.859 -0.0842 -0.0423 -0.1273
 2258W        W 2258   2.964   0.006   2.864 -0.0394 -0.3555 -0.0903
 2259W        W 2259   2.866   5.534   1.284  0.2315 -0.2154  0.5132
 2260W        W 2260   5.798   0.383   3.915  0.0721 -0.1083  0.3068
 2261W        W 2261   0.471   0.872   6.259  0.1399  0.0661 -0.0256
 2262W        W 2262   0.819   2.355   2.991 -0.3104  0.0177 -0.1680
 2263W        W 2263   7.126   1.984   2.882  0.2374  0.2869  0.1126
 2264W        W 2264   6.253   4.581   3.367  0.3929 -0.0418 -0.0378
 2265W        W 2265   3.800   1.061   4.434  0.0757 -0.3651 -0.1092
 2266W        W 2266   5.509   0.863   4.941  0.1475  0.2269  0.2704
 2267W        W 2267   0.955   6.880   0.326 -0.1490 -0.2861 -0.1050
 2268W        W 2268   4.396   1.872   2.848 -0.1397  0.0447 -0.1820
 2269W        W 2269   2.018   5.859   1.100 -0.5217 -0.3085  0.0669
 2270W        W 2270   1.769   4.571   5.609  0.0875  0.1990  0.0539
 2271W        W 2271   4.753   0.829   0.063 -0.0699  0.0060 -0.1220
 2272W        W 2272   2.527   5.081   5.712  0.3470  0.1219  0.1651
 2273W        W 2273   2.380   5.830   0.751  0.0928 -0.1515 -0.4237
 2274W        W 2274   2.582   5.031   1.505  0.0893 -0.0028  0.1104
 2275W        W 2275   0.977   0.825   2.027 -0.0336  0.2233 -0.1074
 2276W        W 2276   1.293   4.475   2.600  0.3648  0.2857  0.0952
 2277W        W 2277   2.306   4.624   2.684 -0.2529 -0.1604 -0.0076
 2278W        W 2278   4.039   1.792   3.302  0.1568 -0.1002 -0.0963
 2279W        W 2279   1.271   2.939   0.738 -0.4001  0.0486 -0.0320
 2280W        W 2280   3.941   3.120   3.381  0.2223 -0.0052  0.3149
 2281W        W 2281   5.183   3.861   0.693 -0.0702  0.0712 -0.2109
 2282W        W 2282   4.861   2.966   1.844 -0.4747 -0.0222 -0.0833
 2283W        W 2283   3.932   1.100   5.831 -0.1059  0.0528 -0.0755
 2284W        W 2284   6.904   3.792   7.055 -0.0530 -0.4788  0.2053
 2285W        W 2285   0.127   2.800   2.770 -0.1931  0.3174  0.1281
 2286W        W 2286   4.284   2.969   4.407 -0.2631  0.0915  0.0791
 2287W        W 2287   7.166   4.647   5.562  0.1276 -0.0042  0.0081
 2288W        W 2288   2.261   6.780   2.762 -0.0657 -0.1105 -0.1238
 2289W        W 2289   1.619   2.792   6.708  0.0625 -0.1047 -0.2072
 2290W        W 2290   5.635   6.747   7.291  0.0414 -0.2508  0.2472
 2291W        W 2291   3.178   3.153   5.608  0.0158  0.3522 -0.0348
 2292W        W 2292   5.171   5.473   0.307 -0.0654 -0.1444  0.0047
 2293W        W 2293   3.001   6.043   2.877  0.0626  0.1048 -0.2235
 2294W        W 2294   5.614   5.258   1.015 -0.0596 -0.1032 -0.1704
 2295W        W 2295   2.786   0.855   1.671 -0.1208  0.0644 -0.2342
 2296W        W 2296   6.701   7.162   1.099 -0.1498 -0.1928  0.0540
 2297W        W 2297   4.889   6.200   4.340  0.2474  0.1994  0.0955
 2298W        W 2298   3.110   6.927   1.834 -0.1765 -0.2351 -0.2302
 2299W        W 2299   0.611   2.736   6.911  0.2132  0.0888 -0.0991
 2300W        W 2300   0.504   5.776   0.382  0.1375  0.1727  0.1627
 2301W        W 2301   3.451   1.771   4.188 -0.2577 -0.0376  0.0842
 2302W        W 2302   4.189   4.442   3.939 -0.1955  0.1631  0.0708
 2303W        W 2303   7.244   4.158   6.268 -0.1498 -0.1227 -0.1884
 2304W        W 2304   0.295   3.919   3.250 -0.0090 -0.0590 -0.1721
 2305W        W 2305   5.893   3.502   1.246 -0.1291  0.1210  0.2136
 2306W        W 2306   3.308   3.666   2.680  0.0303 -0.0118  0.0172
 2307W        W 2307   6.745   3.941   2.908  0.2522 -0.0506  0.0380
 2308W        W 2308   2.512   6.034   6.140 -0.2129 -0.0882  0.1699
 2309W        W 2309   4.066   3.967   3.897  0.2503 -0.0430 -0.1107
 2310W        W 2310   3.972   6.891   2.888 -0.2205 -0.1163  0.1056
 2311W        W 2311   1.527   3.299   2.625 -0.2161  0.2817 -0.2163
 2312W        W 2312   1.063   4.505   6.455  0.2308  0.0757 -0.1421
 2313W        W 2313   2.890   7.276   4.297 -0.1288  0.0648  0.0113
 2314W        W 2314   3.998   1.408   7.139 -0.0135  0.1451 -0.1030
 2315W        W 2315   4.672   1.177   1.813 -0.2063  0.0994  0.1900
 2316W        W 2316   4.304   5.630   7.103  0.2489  0.1196 -0.0437
 2317W        W 2317   3.472   3.922   6.211 -0.2408  0.2890  0.1127
 2318W        W 2318   1.780   7.030   7.003 -0.2244  0.3109  0.0984
 2319W        W 2319   2.851   7.128   6.539  0.1788 -0.4545  0.3094
 2320W        W 2320   0.971   3.691   5.265 -0.1416 -0.0151 -0.2302
 2321W        W 2321   6.408   0.965   3.011  0.3844  0.1597 -0.3068
 2322W        W 2322   1.496   1.929   0.624  0.3295  0.1145 -0.2052
 2323W        W 2323   1.410   2.234   3.133 -0.2023  0.2649  0.0494
 2324W        W 2324   6.727   4.273   0.531  0.0316 -0.0009  0.2095
 2325W        W 2325   2.241   1.710   4.843  0.1146  0.3236 -0.0776
 2326W        W 2326   5.000   5.011   2.014  0.1571 -0.2076  0.3330
 2327W        W 2327   2.193   4.194   3.489 -0.2041 -0.2419 -0.1207
 2328W        W 2328   3.133   0.880   0.238 -0.0174  0.2267 -0.1445
 2329W        W 2329   4.663   1.365   2.778 -0.0887 -0.1662 -0.0611
 2330W        W 2330   3.993   6.529   7.220 -0.1534  0.2078  0.0140
 2331W        W 2331   1.955   0.415   4.097  0.2591  0.2088 -0.1785
 2332W        W 2332   3.113   6.958   3.184  0.0237 -0.2421  0.0831
 2333W        W 2333   5.356   1.493   3.096 -0.2031  0.0346 -0.2408
 2334W        W 2334   1.024   4.883   3.127  0.1862 -0.0948  0.1948
 2335W        W 2335   3.300   0.934   4.181  0.1653 -0.1520  0.0536
 2336W        W 2336   0.388   6.242   2.656  0.1157  0.0660  0.2304
 2337W        W 2337   3.447   4.721   3.298  0.1489  0.0498  0.1100
 2338W        W 2338   5.904   1.600   6.999  0.0183  0.3507 -0.2274
 2339W        W 2339   5.120   3.555   2.966  0.1840 -0.0760  0.1075
 2340W        W 2340   5.635   7.085   0.912  0.3145  0.2532 -0.0858
 2341W        W 2341   6.800   0.323   1.244 -0.1669 -0.0477 -0.0877
 2342W        W 2342   4.173   5.926   4.780  0.2035 -0.0419  0.1087
 2343W        W 2343   5.513   0.853   5.939  0.4511 -0.1142 -0.3252
 2344W        W 2344   3.807   0.389   0.969  0.2213  0.3379  0.1661
 2345W        W 2345   0.546   3.671   0.950 -0.1290 -0.0507 -0.1829
 2346W        W 2346   3.785   5.083   4.416 -0.0193 -0.1643 -0.0119
 2347W        W 2347   5.444   0.208   4.275  0.1319 -0.2076 -0.1677
 2348W        W 2348   0.314   0.249   3.087 -0.4745  0.0680 -0.0689
 2349W        W 2349   1.321   0.026   2.775 -0.1216 -0.0632 -0.0230
 2350W        W 2350   7.278   5.456   6.262 -0.0231 -0.0283 -0.0688
 2351W        W 2351   2.345   6.116   4.837 -0.0698 -0.0395  0.5411
 2352W        W 2352   0.285   1.057   5.808 -0.2016 -0.3299  0.0219
 2353W        W 2353   7.098   5.269   2.447  0.3846  0.0684 -0.1095
 2354W        W 2354   0.127   1.349   5.059 -0.2041  0.0117  0.0400
 2355W        W 2355   3.108   6.976   7.263  0.0629 -0.0555 -0.0073
 2356W        W 2356   5.072   6.217   1.757 -0.1254 -0.2316  0.0572
 2357W        W 2357   6.454   3.418   5.203  0.0297 -0.1931  0.0629
 2358W        W 2358   3.891   5.174   5.432 -0.5728  0.2217  0.0189
 2359W        W 2359   6.495   7.130   4.339 -0.1193  0.0016  0.0845
 2360W        W 2360   1.420   0.860   7.215  0.0523 -0.1138 -0.2802
 2361W        W 2361   6.426   6.246   2.860 -0.0026 -0.0816 -0.0682
 2362W        W 2362   4.547   3.573   4.620  0.1104 -0.1631 -0.0049
 2363W        W 2363   5.790   2.039   0.066  0.0598  0.0795 -0.0184
 2364W        W 2364   3.152   3.350   3.798  0.0330 -0.2218  0.1452
 2365W        W 2365   6.491   3.899   0.122  0.1700  0.2573 -0.0094
 2366W        W 2366   3.653   2.493   1.071  0.1150 -0.2379 -0.0985
 2367W        W 2367   2.907   2.121   0.118  0.0205 -0.1471  0.1726
 2368W        W 2368   0.463   3.836   4.106  0.2418  0.1164  0.4296
 2369W        W 2369   6.395   6.116   1.466 -0.0628  0.0175  0.1433
 2370W        W 2370   1.999   3.270   2.276 -0.0757  0.1622 -0.0045
 2371W        W 2371   1.432   1.661   4.919  0.0969 -0.0060 -0.0297
 2372W        W 2372   7.090   3.734   3.394 -0.3188 -0.0304  0.0325
 2373W        W 2373   2.113   4.591   3.174 -0.0926  0.3399  0.0320
 2374W        W 2374   2.684   0.487   2.041  0.0314 -0.1900  0.1975
 2375W        W 2375   7.287   6.053   3.669  0.0602 -0.1419  0.0385
 2376W        W 2376   4.846   3.715   6.360 -0.2720 -0.0814  0.1172
 2377W        W 2377   6.795   4.409   2.146  0.1012 -0.1062  0.0698
 2378W        W 2378   1.643   6.383   4.004 -0.2348 -0.0351 -0.0830
 2379W        W 2379   5.765   6.312   5.162 -0.1495  0.4569 -0.0352
 2380W        W 2380   6.062   0.272   5.550  0.1192  0.1255  0.0122
 2381W        W 2381   0.265   5.534   3.233 -0.0431  0.2501  0.2904
 2382W        W 2382   2.393   4.149   7.148  0.0297  0.0873 -0.0676
 2383W        W 2383   4.651   7.289   4.533 -0.0675 -0.2869 -0.0184
 2384W        W 2384   0.160   6.801   7.066 -0.0403 -0.3755 -0.2871
 2385W        W 2385   5.886   5.887   5.355 -0.1730  0.1994  0.1210
 2386W        W 2386   0.025   1.488   0.647 -0.0561  0.2593  0.4595
 2387W        W 2387   6.891   4.052   0.999  0.1260  0.0635  0.2217
 2388W        W 2388   4.554   0.333   7.065 -0.3309  0.3763 -0.2132
 2389W        W 2389   7.125   5.460   3.092  0.0973 -0.0223  0.0909
 2390W        W 2390   4.346   5.345   3.093  0.0173  0.2382  0.3045
 2391W        W 2391   2.490   1.932   4.325 -0.2293 -0.0212 -0.0725
 2392W        W 2392   1.533   6.127   4.416 -0.2563  0.1115  0.0795
 2393W        W 2393   6.613   3.427   1.019  0.1315 -0.1051 -0.2223
 2394W        W 2394   2.280   0.535   6.799 -0.4157 -0.1028 -0.0041
 2395W        W 2395   0.342   2.488   5.542 -0.1671 -0.2230  0.0288
 2396W        W 2396   4.830   4.242   6.329  0.0595  0.0005  0.2770
 2397W        W 2397   4.158   1.406   2.617 -0.2637 -0.2194 -0.0529
 2398W        W 2398   7.019   2.493   6.810 -0.2030 -0.0486  0.0921
 2399W        W 2399   3.428   5.306   7.256  0.0410  0.2976 -0.0328
 2400W        W 2400   3.633   4.589   6.825  0.1721 -0.1107  0.1453
 2401W        W 2401   6.222   0.805   6.398 -0.1149 -0.0290 -0.1323
 2402W        W 2402   2.793   5.041   1.050  0.0407 -0.1504  0.0081
 2403W        W 2403   1.270   6.330   3.720 -0.1251  0.1153  0.0449
 2404W        W 2404   3.423   2.566   5.054 -0.0318  0.1000 -0.1886
 2405W        W 2405   5.370   4.788   6.088  0.1218  0.4872  0.1116
 2406W        W 2406   3.176   2.412   2.074  0.5179  0.1102  0.1682
 2407W        W 2407   3.753   2.923   0.721 -0.2166 -0.0305  0.0297
 2408W        W 2408   1.139   0.439   3.455  0.0288  0.1745 -0.2384
 2409W        W 2409   3.060   5.339   3.542 -0.2863 -0.0449  0.1144
 2410W        W 2410   1.839   6.512   1.885 -0.1412  0.0928  0.0431
 2411W        W 2411   0.301   6.859   2.103 -0.1780 -0.1312 -0.2710
 2412W        W 2412   2.116   0.913   0.385  0.0170  0.3644  0.0221
 2413W        W 2413   6.107   4.612   2.773 -0.1536 -0.0984 -0.1051
 2414W        W 2414   1.822   0.714   1.276  0.2080 -0.1474  0.0469
 2415W        W 2415   0.964   1.712   4.704  0.0144  0.1746  0.0749
 2416W        W 2416   2.519   5.006   0.080  0.1639 -0.1445  0.0435
 2417W        W 2417   2.449   3.133   3.252  0.2546  0.2023 -0.1546
 2418W        W 2418   4.518   0.409   5.709  0.1135  0.1222 -0.1544
 2419W        W 2419   6.136   1.385   6.579 -0.0345  0.3735  0.1143
 2420W        W 2420   3.644   0.469   2.610  0.1299 -0.2428  0.0436
 2421W        W 2421   4.297   1.747   1.062  0.2552 -0.1265  0.0313
 2422W        W 2422   4.065   0.287   1.922  0.0264  0.0978  0.0532
 2423W        W 2423   1.829   0.700   6.814  0.1895 -0.3470 -0.0299
 2424W        W 2424   1.825   7.092   6.405  0.0662  0.1088  0.5487
 2425W        W 2425   1.489   6.348   2.204 -0.1177  0.3089 -0.0394
 2426W        W 2426   5.715   5.519   3.254 -0.2301  0.1565  0.0871
 2427W        W 2427   6.765   0.347   6.286  0.1386  0.0206  0.0628
 2428W        W 2428   4.515   1.231   5.235  0.1656  0.2534  0.2052
 2429W        W 2429   5.493   6.840   3.569  0.1617  0.1472  0.0015
 2430W        W 2430   3.018   4.171   6.185  0.1449  0.1255  0.1440
 2431W        W 2431   7.113   3.859   5.825 -0.1388  0.2445 -0.0372
 2432W        W 2432   5.252   1.261   5.788  0.1644  0.0952 -0.3628
 2433W        W 2433   3.024   5.133   1.708  0.2100  0.2438 -0.0353
 2434W        W 2434   3.859   0.764   5.314  0.0284 -0.1855 -0.0817
 2435W        W 2435   6.038   0.866   1.690  0.0256 -0.2602 -0.0927
 2436W        W 2436   4.489   2.514   3.563  0.3490 -0.1211  0.1308
 2437W        W 2437   0.423   7.163   0.390 -0.1942  0.3405  0.0911
 2438W        W 2438   4.605   3.376   2.682 -0.2842  0.0657 -0.2146
 2439W        W 2439   5.788   4.903   0.688 -0.3350  0.0814 -0.0874
 2440W        W 2440   6.416   5.079   3.383  0.0482  0.5548  0.1102
 2441W        W 2441   1.333   0.374   7.227 -0.0245  0.2463  0.1027
 2442W        W 2442   4.726   3.082   3.961  0.3295 -0.2012 -0.0854
 2443W        W 2443   3.457   0.114   1.797  0.1694  0.5291  0.2001
 2444W        W 2444   6.723   5.356   2.776 -0.0393 -0.2497 -0.0325
 2445W        W 2445   5.677   0.525   3.059  0.0406 -0.1163  0.1543
 2446W        W 2446   2.611   4.456   3.445  0.3453 -0.2606  0.3084
 2447W        W 2447   6.000   6.902   6.018 -0.2131  0.0291  0.0598
 2448W        W 2448   5.336   4.259   0.868 -0.1199 -0.0980  0.0571
 2449W        W 2449   0.734   3.604   2.312 -0.2469 -0.1766  0.2663
 2450W        W 2450   7.166   3.646   2.901  0.1874  0.3864 -0.0706
 2451W        W 2451   1.582   3.945   1.864  0.0018  0.2195 -0.0642
 2452W        W 2452   2.231   2.076   3.845  0.0168  0.1602 -0.0513
 2453W        W 2453   1.945   2.611   1.297 -0.0450 -0.1808 -0.3206
 2454W        W 2454   6.177   4.255   6.300 -0.0202 -0.1292 -0.0613
 2455W        W 2455   6.940   6.144   6.844  0.0820  0.1019 -0.1228
 2456W        W 2456   6.379   6.167   0.545  0.2876 -0.2813 -0.1676
 2457W        W 2457   4.643   4.449   1.267 -0.0361 -0.0177 -0.1985
 2458W        W 2458   2.064   1.305   1.157 -0.1511  0.1266  0.0679
 2459W        W 2459   6.140   3.737   2.346 -0.0409 -0.0356  0.3059
 2460W        W 2460   0.839   4.993   6.499  0.0231  0.1026  0.1116
 2461W        W 2461   3.486   4.734   1.245 -0.1574  0.0663  0.0262
 2462W        W 2462   6.574   0.681   1.015  0.0489 -0.4276 -0.0012
 2463W        W 2463   3.437   7.050   1.466  0.0665  0.0116 -0.3407
 2464W        W 2464   7.175   2.063   7.040 -0.1150 -0.0860 -0.2455
 2465W        W 2465   0.754   6.225   3.666 -0.1381 -0.2391  0.0387
 2466W        W 2466   1.223   1.126   1.488  0.2096  0.0285  0.3732
 2467W        W 2467   1.852   0.123   2.051 -0.2332  0.0028 -0.0406
 2468W        W 2468   0.873   3.746   7.042 -0.1087  0.2262 -0.1510
 2469W        W 2469   3.220   3.659   5.282  0.0221  0.0299  0.1630
 2470W        W 2470   5.766   6.789   1.239  0.0697 -0.0997 -0.1983
 2471W        W 2471   1.522   5.374   6.004  0.4022 -0.0115  0.0265
 2472W        W 2472   6.175   1.112   1.067  0.0803 -0.1337  0.2910
 2473W        W 2473   6.470   2.463   5.110 -0.1600  0.0882 -0.0778
 2474W        W 2474   7.126   3.184   5.336  0.3145  0.4295 -0.2912
 2475W        W 2475   0.716   6.237   7.103  0.1339  0.0795  0.1838
 2476W        W 2476   4.619   2.018   0.845 -0.1337 -0.6213 -0.1672
 2477W        W 2477   3.712   6.696   0.319  0.0713  0.1266 -0.1719
 2478W        W 2478   5.698   6.357   3.343  0.0372 -0.1981 -0.0043
 2479W        W 2479   3.492   7.036   2.881  0.0957 -0.2840 -0.1563
 2480W        W 2480   5.497   2.402   7.307 -0.0778  0.2521 -0.1447
 2481W        W 2481   1.172   0.511   2.891  0.1791  0.0050 -0.2744
 2482W        W 2482   3.778   4.514   0.040 -0.1800 -0.2031  0.0973
 2483W        W 2483   0.276   1.929   4.671 -0.0492  0.0913  0.0256
 2484W        W 2484   3.439   6.509   0.703  0.2833  0.2294  0.0256
 2485W        W 2485   3.647   0.843   3.079 -0.2178  0.1076 -0.3407
 2486W        W 2486   6.078   7.262   0.719  0.0029  0.2331 -0.2379
 2487W        W 2487   0.388   0.155   6.730 -0.0520  0.0612  0.2191
 2488W        W 2488   3.869   2.386   4.828 -0.0874  0.3461  0.0920
 2489W        W 2489   6.730   2.854   5.314  0.1946 -0.1122 -0.0723
 2490W        W 2490   4.566   1.974   3.344 -0.0427 -0.4418  0.1886
 2491W        W 2491   6.207   2.003   5.038  0.3623  0.1192 -0.2782
 2492W        W 2492   4.948   3.462   4.295 -0.0708  0.0029 -0.1730
 2493W        W 2493   6.397   2.599   1.761 -0.0295  0.3262  0.1787
 2494W        W 2494   0.711   3.237   5.401 -0.0021 -0.1304  0.1785
 2495W        W 2495   0.306   6.916   1.590  0.1587  0.0570 -0.5814
 2496W        W 2496   3.114   6.705   6.812 -0.2166  0.1624  0.0759
 2497W        W 2497   1.143   2.460   3.821  0.2840 -0.1969 -0.0796
 2498W        W 2498   2.855   3.139   6.280 -0.1683  0.0314 -0.2416
 2499W        W 2499   4.031   5.068   1.928  0.1044  0.1664 -0.1542
 2500W        W 2500   3.808   5.076   6.948  0.0603  0.0880 -0.1844
 2501W        W 2501   4.630   6.652   5.512  0.0275  0.1252  0.1776
 2502W        W 2502   1.974   3.481   0.560 -0.2088  0.0029  0.0270
 2503W        W 2503   6.095   5.942   7.002 -0.1620  0.3761  0.1805
 2504W        W 2504   3.999   7.008   2.434 -0.0669 -0.0583  0.0037
 2505W        W 2505   1.655   6.239   5.759 -0.1582  0.0798 -0.0155
 2506W        W 2506   4.095   1.006   4.018 -0.0880  0.4385  0.0756
 2507W        W 2507   0.657   0.490   1.251  0.0481 -0.0291  0.3032
 2508W        W 2508   0.064   2.931   1.146 -0.1088  0.2861 -0.2013
 2509W        W 2509   6.341   2.219   6.508 -0.0627  0.0129  0.2681
 2510W        W 2510   3.804   3.510   1.982 -0.2130  0.0002  0.2406
 2511W        W 2511   2.222   4.211   2.432 -0.0574 -0.2521  0.1718
 2512W        W 2512   0.239   0.768   2.885  0.1704 -0.1032  0.0021
 2513W        W 2513   5.180   5.483   0.838 -0.2069 -0.3157  0.0135
 2514W        W 2514   3.551   3.553   6.592  0.0530  0.1300 -0.2520
 2515W        W 2515   6.441   1.677   1.777  0.0469 -0.1467  0.0868
 2516W        W 2516   1.052   1.752   6.294 -0.3547  0.2209  0.2716
 2517W        W 2517   0.436   5.273   0.341 -0.0967  0.1685  0.3440
 2518W        W 2518   4.973   5.790   5.304 -0.3208 -0.2754 -0.1379
 2519W        W 2519   1.413   1.906   1.229  0.0352 -0.2536  0.0144
 2520W        W 2520   4.762   5.586   6.036 -0.1487  0.2772 -0.0873
 2521W        W 2521   4.270   6.042   0.586 -0.0755  0.0724  0.1145
 2522W        W 2522   0.353   5.919   7.198  0.0954 -0.0923 -0.1340
 2523W        W 2523   6.178   1.629   3.484 -0.0713  0.1614 -0.2363
 2524W        W 2524   6.862   4.819   3.651 -0.0409  0.0941 -0.2642
 2525W        W 2525   5.236   0.193   2.540  0.1516 -0.1422  0.1662
 2526W        W 2526   6.558   1.302   4.534 -0.0806 -0.2051  0.0318
 2527W        W 2527   1.780   2.755   5.296 -0.4863  0.1317 -0.1171
 2528W        W 2528   6.243   3.712   1.617  0.0694  0.1256  0.0346
 2529W        W 2529   6.261   2.038   5.524 -0.3221  0.2924 -0.0076
 2530W        W 2530   4.274   2.106   6.419 -0.0063  0.1241  0.1568
 2531W        W 2531   3.330   2.784   6.899  0.0328  0.1823 -0.2822
 2532W        W 2532   3.074   5.032   3.154 -0.3633 -0.2572 -0.1290
 2533W        W 2533   3.069   3.604   6.401  0.1525  0.2704 -0.2378
 2534W        W 2534   1.652   3.121   0.362 -0.0102  0.1576 -0.3230
 2535W        W 2535   6.766   2.648   1.090  0.0012 -0.0636 -0.1348
 2536W        W 2536   2.193   2.209   4.770  0.0499 -0.0048 -0.0955
 2537W        W 2537   6.734   1.318   6.045  0.1602 -0.2329 -0.0500
 2538W        W 2538   5.358   5.501   1.389 -0.1669 -0.0777  0.0881
 2539W        W 2539   1.783   2.057   1.639 -0.0685  0.1335 -0.2595
 2540W        W 2540   2.964   3.156   5.046 -0.0742  0.0583 -0.3818
 2541W        W 2541   0.632   6.827   0.663 -0.2031 -0.2301  0.2353
 2542W        W 2542   0.061   7.262   5.334  0.1611 -0.1922  0.1095
 2543W        W 2543   0.862   5.769   1.103  0.0838 -0.2856  0.2648
 2544W        W 2544   3.053   2.974   1.969 -0.0853  0.0103 -0.1559
 2545W        W 2545   4.945   6.784   6.179  0.2489  0.0736 -0.0085
 2546W        W 2546   3.742   5.995   5.015 -0.2226 -0.2093  0.1378
 2547W        W 2547   2.045   4.989   2.884 -0.0541 -0.0157  0.0006
 2548W        W 2548   6.585   6.745   3.338 -0.0983  0.1899  0.1447
 2549W        W 2549   5.941   5.519   5.014 -0.1082 -0.0633 -0.0034
 2550W        W 2550   5.288   1.025   2.175  0.2050 -0.1442 -0.2788
 2551W        W 2551   5.087   3.532   6.771  0.1836  0.0414 -0.0421
 2552W        W 2552   4.388   0.181   3.902 -0.1686  0.3261  0.3230
 2553W        W 2553   2.047   4.132   0.188  0.1223  0.0042 -0.2688
 2554W        W 2554   4.568   1.676   6.504  0.1128  0.0758  0.1187
 2555W        W 2555   3.802   2.884   6.747  0.0944  0.1157  0.3173
 2556W        W 2556   2.684   0.166   4.696 -0.0330  0.0692 -0.3489
 2557W        W 2557   3.856   0.830   7.294  0.0681 -0.2090  0.2360
 2558W        W 2558   0.155   6.404   0.051 -0.0363 -0.1931  0.1890
 2559W        W 2559   3.858   6.454   6.044  0.0488 -0.1597 -0.0966
 2560W        W 2560   2.502   1.467   3.201 -0.1529 -0.0955  0.2960
 2561W        W 2561   1.756   3.268   1.409  0.2662 -0.0332 -0.2123
 2562W        W 2562   0.191   5.563   0.706  0.2726  0.3429 -0.2048
 2563W        W 2563   0.065   1.271   2.350 -0.4234  0.0509  0.1091
 2564W        W 2564   5.816   0.840   0.370  0.2527  0.1614 -0.0344
 2565W        W 2565   6.739   5.052   7.256 -0.1007  0.1635 -0.1684
 2566W        W 2566   2.061   0.636   5.092  0.0162 -0.1382 -0.0769
 2567W        W 2567   2.691   2.095   4.761  0.2500  0.1187 -0.1160
 2568W        W 2568   0.347   1.979   5.668 -0.3590 -0.0404 -0.1549
 2569W        W 2569   5.618   6.517   2.286  0.0832  0.3199  0.1542
 2570W        W 2570   0.655   6.224   5.986 -0.1989 -0.0878 -0.2226
 2571W        W 2571   6.306   5.226   5.045  0.0631  0.0399 -0.1177
 2572W        W 2572   5.221   0.690   4.543 -0.0211 -0.1582 -0.1588
 2573W        W 2573   0.503   5.793   2.416 -0.0007  0.0818  0.1030
 2574W        W 2574   2.290   6.748   1.534  0.0337 -0.0547 -0.2512
 2575W        W 2575   5.825   5.267   7.263 -0.0998 -0.1429  0.0688
 2576W        W 2576   3.046   4.825   3.629  0.4119  0.0552 -0.1274
 2577W        W 2577   6.089   5.008   1.114  0.0486  0.1403 -0.2758
 2578W        W 2578   5.966   2.386   1.797  0.1805  0.1700  0.0595
 2579W        W 2579   3.321   1.934   1.881  0.2895  0.0081 -0.1388
 2580W        W 2580   1.937   2.823   3.620 -0.1002  0.0213  0.2330
 2581W        W 2581   5.295   4.026   2.936 -0.1122 -0.1066 -0.0196
 2582W        W 2582   6.986   3.223   4.060 -0.1807 -0.0090 -0.0630
 2583W        W 2583   3.737   4.533   1.621  0.3561  0.0699  0.2683
 2584W        W 2584   6.594   5.433   5.900  0.0487 -0.4899  0.2997
 2585W        W 2585   2.381   5.005   0.634  0.0932 -0.1546 -0.1176
 2586W        W 2586   4.547   6.788   3.194  0.0094  0.0685 -0.0114
 2587W        W 2587   3.186   4.375   5.699  0.1361  0.2382 -0.0689
 2588W        W 2588   0.553   4.655   6.280  0.2584  0.2959 -0.0770
 2589W        W 2589   4.778   6.449   6.544  0.1199  0.2357  0.1725
 2590W        W 2590   6.869   5.876   2.904 -0.2615 -0.1080  0.2094
 2591W        W 2591   4.167   5.936   5.320 -0.0786 -0.1216  0.3704
 2592W        W 2592   2.000   2.721   2.683 -0.0409 -0.1854 -0.0813
 2593W        W 2593   4.439   7.284   1.408  0.4001 -0.1675 -0.2225
 2594W        W 2594   1.169   2.151   6.053  0.0454 -0.0582 -0.2165
 2595W        W 2595   4.441   2.653   5.282  0.0899  0.1485 -0.0824
 2596W        W 2596   6.821   6.586   5.283 -0.0333 -0.0515  0.1202
 2597W        W 2597   6.967   4.528   4.544  0.1103  0.0542  0.2459
 2598W        W 2598   6.248   6.711   5.328  0.0439 -0.0555  0.0009
 2599W        W 2599   6.287   5.817   2.086  0.2916  0.5083 -0.3431
 2600W        W 2600   3.629   0.152   0.534  0.0147 -0.2600 -0.3097
 2601W        W 2601   2.784   3.549   5.509  0.0941 -0.2660 -0.2396
 2602W        W 2602   6.386   0.976   0.552 -0.1461  0.0026 -0.0724
 2603W        W 2603   2.832   3.772   0.708 -0.4330  0.1689 -0.1808
 2604W        W 2604   5.843   2.670   0.210 -0.1701 -0.2265  0.1499
 2605W        W 2605   1.335   3.656   3.234  0.2058  0.1675  0.0679
 2606W        W 2606   0.390   6.923   4.339 -0.3626 -0.0958  0.1128
 2607W        W 2607   2.382   3.101   2.564 -0.0765 -0.0873 -0.0358
 2608W        W 2608   1.935   1.348   4.701  0.0591 -0.1797 -0.2608
 2609W        W 2609   0.013   3.468   1.852 -0.2158  0.0822  0.5334
 2610W        W 2610   5.232   6.395   3.557 -0.0195 -0.1113 -0.1744
 2611W        W 2611   6.885   0.822   1.391 -0.0344  0.0556 -0.0453
 2612W        W 2612   4.447   3.957   3.112 -0.0133 -0.0933  0.3032
 2613W        W 2613   1.740   4.424   3.595  0.1507  0.1165 -0.2361
 2614W        W 2614   4.440   6.013   6.755  0.0393 -0.1875  0.0423
 2615W        W 2615   1.993   4.978   0.244  0.0039  0.0270 -0.3193
 2616W        W 2616   6.102   6.620   3.593 -0.0094  0.2458  0.0238
 2617W        W 2617   2.552   2.945   3.841  0.0408  0.1552  0.1361
 2618W        W 2618   2.713   7.154   0.865 -0.1495 -0.2164 -0.1287
 2619W        W 2619   7.015   5.019   5.273 -0.0866 -0.0324 -0.0668
 2620W        W 2620   7.161   5.878   4.912 -0.0520  0.0044 -0.1097
 2621W        W 2621   1.704   1.351   5.742  0.1149 -0.2056  0.1465
 2622W        W 2622   6.349   6.903   4.858  0.0063  0.0923 -0.1270
 2623W        W 2623   2.754   0.765   3.981 -0.2235 -0.3644 -0.1042
 2624W        W 2624   5.338   3.048   1.725  0.0278  0.1793 -0.0853
 2625W        W 2625   6.086   1.390   4.348  0.0603 -0.0011 -0.2259
 2626W        W 2626   6.444   3.543   4.171 -0.0226  0.0889  0.2449
 2627W        W 2627   0.222   2.659   2.281  0.3624 -0.0216  0.2392
 2628W        W 2628   0.581   1.142   5.144  0.0878  0.2433 -0.0289
 2629W        W 2629   4.427   3.607   1.638  0.2393 -0.0131  0.0988
 2630W        W 2630   2.454   2.550   2.445  0.1175 -0.2386 -0.1304
 2631W        W 2631   3.475   1.962   1.192  0.0996  0.0817 -0.0973
 2632W        W 2632   4.425   1.466   3.180 -0.3468  0.1874 -0.0459
 2633W        W 2633   5.967   2.876   3.457  0.2467 -0.2549 -0.3045
 2634W        W 2634   5.438   1.352   2.609  0.0221 -0.0960 -0.3735
 2635W        W 2635   0.625   0.903   0.691  0.1673  0.2654  0.2443
 2636W        W 2636   1.693   6.763   3.702 -0.4363 -0.0260  0.3739
 2637W        W 2637   2.143   3.672   4.778 -0.2678  0.2262  0.2250
 2638W        W 2638   5.866   3.761   4.612 -0.4176  0.1747  0.3181
 2639W        W 2639   1.322   1.063   2.886  0.1435 -0.0679  0.0169
 2640W        W 2640   7.162   6.978   1.245  0.2052  0.0795  0.3286
 2641W        W 2641   5.333   5.553   6.115  0.1712 -0.0554 -0.2175
 2642W        W 2642   2.533   5.914   1.292  0.0485  0.0007  0.0678
 2643W        W 2643   0.263   6.534   5.704 -0.0861 -0.1818  0.0374
 2644W        W 2644   3.996   4.846   3.092  0.0700 -0.0618  0.0310
 2645W        W 2645   1.151   3.269   5.672  0.0872  0.1007  0.0825
 2646W        W 2646   6.740   4.377   5.584 -0.1271 -0.2890  0.0816
 2647W        W 2647   0.816   1.138   5.736  0.1307 -0.0117 -0.1140
 2648W        W 2648   6.511   3.076   4.262  0.1850 -0.1100 -0.1893
 2649W        W 2649   5.868   3.549   4.158 -0.1434  0.1703  0.1904
 2650W        W 2650   1.969   1.478   5.187  0.0443 -0.3303  0.0232
 2651W        W 2651   7.236   1.591   3.132 -0.0028  0.0967 -0.1510
 2652W        W 2652   1.525   3.211   3.358 -0.0008 -0.1740 -0.1616
 2653W        W 2653   4.088   3.194   6.085 -0.2538  0.3219 -0.1829
 2654W        W 2654   0.761   0.879   1.586 -0.1211  0.4305  0.1789
 2655W        W 2655   3.539   3.586   3.634 -0.0071 -0.2085 -0.1603
 2656W        W 2656   6.880   3.489   5.002 -0.2267  0.0089 -0.0044
 2657W        W 2657   6.206   5.773   3.954 -0.3070 -0.2048 -0.1955
 2658W        W 2658   4.531   2.353   4.617  0.1258 -0.0036  0.0266
 2659W        W 2659   0.564   2.775   1.276  0.0124  0.0188 -0.1343
 2660W        W 2660   4.002   1.615   2.053 -0.2261 -0.1637 -0.0629
 2661W        W 2661   3.641   3.485   5.612  0.0102  0.1461  0.2800
 2662W        W 2662   2.912   4.662   4.536 -0.1974 -0.1405 -0.0014
 2663W        W 2663   6.502   1.450   2.515 -0.2490 -0.1772  0.0749
 2664W        W 2664   0.828   0.751   4.913  0.2827  0.0663 -0.1904
 2665W        W 2665   1.980   6.718   3.328 -0.2755  0.4731  0.0951
 2666W        W 2666   3.075   2.706   3.898 -0.0740  0.1984 -0.2033
 2667W        W 2667   6.121   6.292   3.935 -0.2382 -0.1152  0.1264
 2668W        W 2668   4.559   1.781   4.513  0.1846 -0.2180  0.3450
 2669W        W 2669   0.550   0.104   5.669  0.2125 -0.1854 -0.2212
 2670W        W 2670   1.997   3.732   1.548 -0.0868  0.0752 -0.2309
 2671W        W 2671   0.440   6.906   1.116 -0.2179 -0.3947  0.4232
 2672W        W 2672   4.360   0.115   6.575  0.1643  0.0378  0.3113
 2673W        W 2673   6.061   5.933   6.417  0.1560  0.0982  0.0457
 2674W        W 2674   5.431   3.961   0.264 -0.2239 -0.2447 -0.0016
 2675W        W 2675   1.621   6.716   4.744 -0.1278 -0.2071  0.0591
 2676W        W 2676   6.874   4.304   7.234 -0.1893  0.1140  0.0086
 2677W        W 2677   5.126   5.961   5.809 -0.0709 -0.1583  0.0156
 2678W        W 2678   0.642   1.178   3.359 -0.1259 -0.3234 -0.0278
 2679W        W 2679   2.856   6.870   6.124 -0.1428  0.1354 -0.1344
 2680W        W 2680   3.501   3.543   1.518  0.2846  0.1908  0.1969
 2681W        W 2681   2.555   6.454   3.987  0.1404  0.0649 -0.0727
 2682W        W 2682   5.439   3.876   5.670 -0.1151  0.3557 -0.0065
 2683W        W 2683   3.431   5.122   5.159  0.0927 -0.1127 -0.3360
 2684W        W 2684   0.655   7.039   6.688 -0.1641  0.0080 -0.1818
 2685W        W 2685   5.132   3.374   4.755  0.0977  0.0784 -0.2446
 2686W        W 2686   4.001   3.307   1.572 -0.2185  0.0230 -0.2422
 2687W        W 2687   1.410   5.011   1.371 -0.0897  0.1157  0.1180
 2688W        W 2688   1.457   5.030   3.799  0.3856  0.1309 -0.0382
 2689W        W 2689   4.547   5.956   1.035 -0.3280 -0.0372  0.2329
 2690W        W 2690   6.578   1.621   1.297  0.2605  0.0822  0.1578
 2691W        W 2691   5.562   2.930   0.559  0.1230  0.0361 -0.0279
 2692W        W 2692   3.990   4.020   0.160 -0.0783  0.0869  0.0183
 2693W        W 2693   0.638   4.488   3.949  0.0200 -0.1142  0.1050
 2694W        W 2694   6.367   5.166   3.834 -0.0456 -0.0289 -0.0738
 2695W        W 2695   1.334   5.997   2.580 -0.2536 -0.0482  0.0445
 2696W        W 2696   2.776   2.693   0.708 -0.0708 -0.1071  0.1029
 2697W        W 2697   3.500   4.088   3.375 -0.0744 -0.2065 -0.0771
 2698W        W 2698   1.449   4.846   0.004 -0.0020  0.0188 -0.3129
 2699W        W 2699   3.851   1.323   6.264  0.1466  0.0094 -0.3113
 2700W        W 2700   0.425   3.569   2.878 -0.3423 -0.0960 -0.0742
 2701W        W 2701   3.536   1.103   5.489 -0.1091 -0.1302  0.0433
 2702W        W 2702   4.868   1.719   7.140  0.0549  0.0781 -0.1206
 2703W        W 2703   1.059   2.414   5.579  0.2126  0.1329 -0.0886
 2704W        W 2704   5.016   5.290   4.724 -0.3940  0.3418 -0.2526
 2705W        W 2705   2.429   4.167   2.957 -0.2795  0.0512 -0.1089
 2706W        W 2706   4.901   0.240   5.316  0.0194 -0.2593 -0.1354
 2707W        W 2707   7.072   1.700   5.214  0.1796  0.3288  0.2546
 2708W        W 2708   2.905   1.776   4.116 -0.1028  0.1142  0.1221
 2709W        W 2709   6.022   5.517   2.374  0.2237  0.0200  0.0676
 2710W        W 2710   0.871   0.384   1.775  0.1486 -0.2339 -0.0273
 2711W        W 2711   6.145   5.632   0.114  0.2355 -0.0217  0.1435
 2712W        W 2712   2.723   1.963   2.055 -0.1444  0.0209  0.0784
 2713W        W 2713   5.378   1.222   4.557  0.1776  0.0168  0.1158
 2714W        W 2714   0.606   2.034   6.224 -0.1257 -0.0003  0.0414
 2715W        W 2715   5.217   4.017   1.293  0.0145  0.0131 -0.0631
 2716W        W 2716   3.684   1.630   1.612  0.0221  0.0647 -0.0671
 2717W        W 2717   3.517   1.843   5.608  0.2078 -0.0872  0.0237
 2718W        W 2718   4.541   7.053   2.126  0.0278  0.2020 -0.1214
 2719W        W 2719   3.040   3.876   3.649 -0.0189  0.3144  0.3750
 2720W        W 2720   5.610   3.270   2.800  0.1245  0.1578 -0.0635
 2721W        W 2721   1.479   2.389   1.355 -0.1338  0.1575  0.1327
 2722W        W 2722   5.651   4.609   5.676  0.2547 -0.0719  0.1083
 2723W        W 2723   1.627   5.508   3.786  0.3866 -0.1034 -0.2314
 2724W        W 2724   0.064   0.357   2.132 -0.1554  0.1105 -0.1449
 2725W        W 2725   2.426   1.099   6.880 -0.2792  0.1445 -0.0430
 2726W        W 2726   3.063   6.084   1.309 -0.3576  0.0936 -0.0527
 2727W        W 2727   1.801   1.904   4.608 -0.3056 -0.4917 -0.2439
 2728W        W 2728   2.583   4.802   3.127 -0.0423  0.0940 -0.0454
 2729W        W 2729   3.656   6.514   4.919  0.1279  0.0408  0.0699
 2730W        W 2730   4.816   0.428   2.463 -0.0407 -0.0914 -0.3579
 2731W        W 2731   3.992   0.940   3.456 -0.3246  0.2078 -0.0404
 2732W        W 2732   4.522   2.273   7.299 -0.0052 -0.1390  0.3885
 2733W        W 2733   1.564   1.788   6.024 -0.2519  0.5360 -0.2334
 2734W        W 2734   2.628   6.617   4.927  0.0487 -0.1331  0.3374
 2735W        W 2735   4.215   2.994   3.923  0.0814 -0.3257 -0.2451
 2736W        W 2736   1.367   5.057   5.596 -0.0505  0.2258  0.0113
 2737W        W 2737   4.857   3.640   3.856  0.2895  0.1065  0.2001
 2738W        W 2738   4.230   4.192   0.929 -0.0850  0.3574 -0.1586
 2739W        W 2739   2.967   1.317   3.225 -0.0358 -0.0217 -0.1519
 2740W        W 2740   7.275   3.279   5.995  0.2412 -0.1449 -0.3374
 2741W        W 2741   6.854   7.269   2.630  0.0880  0.0625 -0.0186
 2742W        W 2742   0.685   5.576   2.008 -0.1245  0.2228 -0.1013
 2743W        W 2743   4.769   1.023   6.935 -0.1442 -0.1031  0.0087
 2744W        W 2744   4.804   4.288   0.757 -0.0559  0.0027 -0.1322
 2745W        W 2745   4.174   0.353   0.584 -0.1570 -0.2987 -0.0241
 2746W        W 2746   0.137   0.143   6.306 -0.0353  0.1205 -0.0371
 2747W        W 2747   0.699   1.709   2.162  0.0024  0.4085  0.3113
 2748W        W 2748   6.783   5.799   1.604 -0.2389  0.0422  0.0505
 2749W        W 2749   0.987   1.522   0.486 -0.1419 -0.3177 -0.2322
 2750W        W 2750   1.507   1.395   2.414 -0.1453 -0.0866  0.0158
 2751W        W 2751   3.210   1.424   5.813 -0.2115  0.0744  0.0033
 2752W        W 2752   2.887   5.944   0.777  0.1655 -0.1796  0.1610
 2753W        W 2753   7.266   6.530   1.441  0.4091 -0.2453  0.2034
 2754W        W 2754   5.778   0.863   4.346 -0.0124  0.1411  0.0758
 2755W        W 2755   6.824   2.360   2.607 -0.4443  0.2382  0.1404
 2756W        W 2756   4.975   5.058   3.717  0.2738  0.0140  0.2101
 2757W        W 2757   3.836   5.710   6.210  0.2324 -0.1764 -0.2385
 2758W        W 2758   2.735   5.969   7.239  0.2449  0.5774  0.1996
 2759W        W 2759   0.276   5.686   6.591 -0.3066  0.3968 -0.4765
 2760W        W 2760   2.303   1.968   3.286  0.0362 -0.1194 -0.1715
 2761W        W 2761   7.264   2.590   6.183 -0.1012  0.0944 -0.0693
 2762W        W 2762   5.130   2.227   0.917 -0.1393 -0.0043 -0.2676
 2763W        W 2763   5.566   3.235   3.497  0.0093 -0.2347  0.0450
 2764W        W 2764   4.141   5.658   3.960  0.0536  0.3941  0.1658
 2765W        W 2765   6.820   2.355   0.426 -0.2045  0.1335 -0.0525
 2766W        W 2766   1.029   1.311   2.370  0.0143  0.2004  0.0267
 2767W        W 2767   0.951   5.591   2.567  0.2015 -0.0603  0.1269
 2768W        W 2768   4.007   5.495   2.463  0.1377 -0.0594  0.0043
 2769W        W 2769   5.008   0.581   7.044 -0.0734  0.4148 -0.1691
 2770W        W 2770   3.239   2.535   0.031  0.0183 -0.3374 -0.4174
 2771W        W 2771   1.981   2.443   6.865  0.4095 -0.1237 -0.3692
 2772W        W 2772   2.602   1.710   1.648 -0.1236  0.0505  0.0948
 2773W        W 2773   4.898   6.087   6.255  0.2041 -0.1879 -0.0242
 2774W        W 2774   5.109   3.539   1.093 -0.2171  0.1988  0.4312
 2775W        W 2775   3.800   2.193   5.287  0.0756 -0.1375  0.1748
 2776W        W 2776   4.968   0.933   3.675 -0.4183 -0.0472 -0.0219
 2777W        W 2777   4.347   6.900   0.902 -0.2977  0.2310  0.2234
 2778W        W 2778   0.370   2.975   5.194 -0.0821  0.1273  0.0735
 2779W        W 2779   6.278   7.069   2.425  0.2110  0.0326 -0.2143
 2780W        W 2780   1.825   4.192   6.442  0.2784  0.0056  0.2932
 2781W        W 2781   2.567   1.212   6.418 -0.2733  0.0517  0.2488
 2782W        W 2782   1.124   2.566   6.888 -0.2074 -0.0914 -0.0246
 2783W        W 2783   3.318   6.479   5.930 -0.2299  0.0527  0.3489
 2784W        W 2784   4.486   0.662   3.885  0.0638  0.1152 -0.1169
 2785W        W 2785   0.354   7.266   4.854 -0.2062  0.1340 -0.3230
 2786W        W 2786   4.495   3.049   3.477  0.1729 -0.0926  0.0929
 2787W        W 2787   4.495   7.164   3.560  0.3346 -0.0501  0.2433
 2788W        W 2788   1.548   4.757   2.874  0.0631  0.0805 -0.0645
 2789W        W 2789   1.402   3.667   6.474 -0.0347 -0.1439  0.0470
 2790W        W 2790   1.863   4.385   1.964  0.0133  0.3005  0.0020
 2791W        W 2791   4.085   6.012   5.887 -0.0114 -0.0026 -0.0005
 2792W        W 2792   5.055   1.824   0.673  0.0875 -0.3252 -0.1319
 2793W        W 2793   1.483   6.573   1.040  0.1081  0.0606  0.1966
 2794W        W 2794   4.851   4.720   6.160  0.0807  0.1385  0.0271
 2795W        W 2795   0.340   2.103   0.111  0.1342  0.0173  0.0946
 2796W        W 2796   0.860   3.442   4.809  0.0601 -0.2239 -0.1715
 2797W        W 2797   6.622   3.873   5.266 -0.2346  0.2136  0.2427
 2798W        W 2798   4.775   7.169   1.060  0.5258 -0.0003 -0.2112
 2799W        W 2799   4.099   0.095   3.521 -0.2759  0.0502 -0.0723
 2800W        W 2800   0.982   6.291   4.117 -0.1210  0.0466 -0.2193
 2801W        W 2801   1.958   5.871   0.477 -0.0222 -0.1875 -0.0353
 2802W        W 2802   4.751   3.972   1.175  0.0258  0.1297  0.1247
 2803W        W 2803   7.232   3.167   2.257  0.1925  0.0482  0.1517
 2804W        W 2804   0.138   1.243   0.179 -0.2579  0.1306 -0.4200
 2805W        W 2805   2.902   6.587   5.682  0.1355  0.0739  0.1212
 2806W        W 2806   4.367   5.081   5.283  0.1647  0.4634  0.1031
 2807W        W 2807   2.682   0.573   3.486 -0.1993  0.2353  0.0507
 2808W        W 2808   0.683   6.196   5.353 -0.0439  0.0232 -0.2698
 2809W        W 2809   1.092   6.507   5.901  0.0690 -0.1326 -0.1011
 2810W        W 2810   2.747   1.487   4.606 -0.0782 -0.1181  0.2323
 2811W        W 2811   6.041   3.726   0.284  0.0224  0.1341 -0.0605
 2812W        W 2812   2.704   0.441   5.809  0.0903 -0.0511  0.2308
 2813W        W 2813   0.917   0.956   1.141 -0.1031  0.1552 -0.1150
 2814W        W 2814   6.806   2.335   6.311 -0.0034 -0.0661 -0.1457
 2815W        W 2815   5.828   0.012   1.287 -0.2929 -0.1214 -0.1167
 2816W        W 2816   6.975   3.593   6.236 -0.2904 -0.2291 -0.0320
 2817W        W 2817   4.600   0.653   5.169  0.1097 -0.0354  0.1191
 2818W        W 2818   1.710   4.187   1.355 -0.1644 -0.1416 -0.2960
 2819W        W 2819   2.237   4.331   1.314 -0.1949  0.1687 -0.1483
 2820W        W 2820   5.437   2.709   3.495  0.1214 -0.0389  0.1232
 2821W        W 2821   1.673   6.039   6.300 -0.0181  0.2145  0.1594
 2822W        W 2822   0.671   2.194   5.312 -0.1698  0.2576  0.2812
 2823W        W 2823   1.163   2.307   2.202  0.1771 -0.3874  0.1998
 2824W        W 2824   0.713   1.185   0.158 -0.0727 -0.1258  0.2155
 2825W        W 2825   3.728   2.272   5.807  0.2734 -0.1171  0.1716
 2826W        W 2826   2.919   0.797   2.363 -0.2890 -0.3421 -0.1002
 2827W        W 2827   1.771   3.800   6.928  0.2757 -0.1131 -0.2120
 2828W        W 2828   5.966   5.018   5.870 -0.1112  0.2593  0.0328
 2829W        W 2829   1.801   0.119   2.737  0.1355 -0.1653  0.0873
 2830W        W 2830   3.640   2.535   1.920 -0.2545  0.0708  0.2124
 2831W        W 2831   0.472   2.368   0.949 -0.0392 -0.2343 -0.0750
 2832W        W 2832   1.325   7.214   0.236  0.1325  0.0527 -0.2067
 2833W        W 2833   0.144   6.186   6.787  0.2181  0.0523 -0.0466
 2834W        W 2834   2.581   1.400   1.241 -0.3653 -0.5228 -0.2826
 2835W        W 2835   1.491   4.523   1.735 -0.0362  0.3238  0.2284
 2836W        W 2836   4.008   6.351   4.601  0.2675  0.1589  0.0032
 2837W        W 2837   0.501   7.096   3.041 -0.1828 -0.0349  0.1638
 2838W        W 2838   0.050   5.629   4.483 -0.0235  0.2606 -0.0120
 2839W        W 2839   4.072   6.845   6.319  0.3764  0.0482 -0.0806
 2840W        W 2840   6.298   3.028   0.885 -0.1939 -0.1237  0.2989
 2841W        W 2841   4.950   3.914   5.848  0.0140 -0.1983  0.1506
 2842W        W 2842   6.118   2.693   6.588  0.1612  0.3094  0.2515
 2843W        W 2843   1.973   2.540   3.148 -0.0620  0.0494  0.1254
 2844W        W 2844   4.059   6.869   3.363  0.0882  0.0726 -0.3115
 2845W        W 2845   5.721   6.336   0.411  0.2177 -0.1189 -0.0028
 2846W        W 2846   2.870   3.467   3.373 -0.1871  0.1493  0.3376
 2847W        W 2847   2.648   4.084   5.811  0.1131 -0.1967 -0.0527
 2848W        W 2848   2.773   1.863   3.415  0.3645  0.1891 -0.0937
 2849W        W 2849   6.664   5.485   0.263 -0.0589 -0.0126  0.1833
 2850W        W 2850   6.874   1.638   0.514 -0.1525 -0.2196  0.1100
 2851W        W 2851   6.434   2.566   3.564  0.0794  0.3236 -0.2262
 2852W        W 2852   2.734   0.529   2.860 -0.2113 -0.2110  0.0363
 2853W        W 2853   4.730   5.436   5.081 -0.1510 -0.0789  0.0948
 2854W        W 2854   4.060   2.526   0.811 -0.1599 -0.1427  0.1506
 2855W        W 2855   2.305   3.661   5.808 -0.1564  0.0038 -0.2684
 2856W        W 2856   1.728   0.868   5.854  0.1312  0.0455  0.0366
 2857W        W 2857   5.871   0.695   5.320  0.2137  0.0023 -0.2712
 2858W        W 2858   1.872   4.260   0.863  0.2303 -0.0980 -0.2300
 2859W        W 2859   0.676   5.806   6.826 -0.0638  0.0106  0.2062
 2860W        W 2860   7.315   6.658   4.509 -0.2953 -0.2261  0.2491
 2861W        W 2861   0.119   7.104   0.809  0.2349 -0.0743  0.0658
 2862W        W 2862   6.423   0.822   3.469  0.1808  0.1395  0.1093
 2863W        W 2863   4.313   1.702   3.715  0.0194 -0.1328 -0.2616
 2864W        W 2864   1.821   2.296   0.444 -0.1622  0.1312 -0.0406
 2865W        W 2865   0.079   3.847   3.790  0.0104  0.2508 -0.0200
 2866W        W 2866   0.413   0.926   1.256 -0.1802  0.1140 -0.1031
 2867W        W 2867   4.576   1.416   0.137 -0.0058  0.0396  0.0774
 2868W        W 2868   4.517   3.448   6.672  0.1861 -0.0188 -0.3223
 2869W        W 2869   4.392   4.571   4.823 -0.3290 -0.2194 -0.6128
 2870W        W 2870   3.896   1.923   6.148 -0.0085 -0.2726  0.0515
 2871W        W 2871   4.566   5.322   0.052  0.0560  0.1124  0.0916
 2872W        W 2872   5.204   7.146   4.544 -0.0695 -0.3135  0.0522
 2873W        W 2873   2.590   1.398   0.398  0.1934  0.0261  0.3803
 2874W        W 2874   3.063   5.840   3.341  0.2081  0.1447  0.1790
 2875W        W 2875   4.019   5.242   3.489  0.0917  0.2565 -0.2385
 2876W        W 2876   1.875   2.011   5.149 -0.1099 -0.1276 -0.1716
 2877W        W 2877   1.413   1.767   3.484 -0.2738 -0.1749  0.4130
 2878W        W 2878   6.774   2.414   5.526  0.0822  0.2800  0.1910
 2879W        W 2879   3.602   3.393   6.144  0.1431  0.0979 -0.1317
 2880W        W 2880   5.334   0.976   3.246  0.0505  0.2353 -0.1555
 2881W        W 2881   2.251   0.287   3.240  0.0963  0.1295  0.3332
 2882W        W 2882   3.255   1.955   3.704  0.0622 -0.2194 -0.2381
 2883W        W 2883   2.537   1.597   6.783 -0.2095 -0.1476 -0.3805
 2884W        W 2884   2.369   2.832   6.070  0.1752  0.1105 -0.1009
 2885W        W 2885   2.815   5.377   4.592 -0.0831 -0.1842 -0.1930
 2886W        W 2886   3.845   4.232   4.246  0.2122  0.1465 -0.0882
 2887W        W 2887   3.012   1.445   6.857  0.2353 -0.1096  0.0732
 2888W        W 2888   0.342   2.492   0.463 -0.0045 -0.0839 -0.1229
 2889W        W 2889   3.568   2.600   2.414  0.2629  0.2507 -0.2042
 2890W        W 2890   4.074   0.398   7.047 -0.1190 -0.2176 -0.0029
 2891W        W 2891   3.361   1.143   6.590 -0.0716 -0.0012 -0.2226
 2892W        W 2892   6.240   0.603   4.006 -0.1898  0.0924  0.3408
 2893W        W 2893   2.591   6.351   4.487 -0.2991  0.1402  0.0025
 2894W        W 2894   6.752   4.088   6.024  0.0515 -0.4035  0.0665
 2895W        W 2895   7.303   0.510   1.287  0.2078 -0.0695 -0.1915
 2896W        W 2896   4.411   1.402   4.230 -0.1705 -0.1784  0.1600
 2897W        W 2897   2.032   1.555   3.066 -0.0569 -0.0355  0.1044
 2898W        W 2898   5.770   6.976   6.891 -0.0666 -0.0766  0.2082
 2899W        W 2899   5.375   0.997   3.962 -0.1918 -0.0215  0.0538
 2900W        W 2900   6.428   3.545   3.167 -0.0619  0.0693  0.0916
 2901W        W 2901   5.739   0.421   2.350 -0.0855  0.2238  0.0346
 2902W        W 2902   1.330   5.395   0.507  0.0438  0.0021 -0.2875
 2903W        W 2903   7.072   1.595   2.603 -0.1594  0.0749 -0.0217
 2904W        W 2904   7.002   2.024   1.403 -0.0192 -0.1586 -0.2282
 2905W        W 2905   4.778   0.611   6.204  0.5021 -0.1249 -0.0404
 2906W        W 2906   0.542   1.650   0.248 -0.0168  0.2921  0.1124
 2907W        W 2907   5.491   1.881   0.893  0.4229  0.2061 -0.1014
 2908W        W 2908   5.532   5.405   2.419  0.0931 -0.0383 -0.1039
 2909W        W 2909   2.830   2.901   7.116  0.0765 -0.3700 -0.1857
 2910W        W 2910   6.997   7.157   5.831  0.0528 -0.2443  0.0396
 2911W        W 2911   5.656   2.604   1.474  0.0383 -0.1162  0.1444
 2912W        W 2912   6.329   2.571   5.674  0.1557 -0.2696 -0.1358
 2913W        W 2913   2.942   2.035   5.442 -0.1482 -0.0898  0.0738
 2914W        W 2914   6.670   5.427   4.671  0.0933  0.1248 -0.2967
 2915W        W 2915   4.641   2.291   5.736  0.1618 -0.2398  0.1512
 2916W        W 2916   0.820   3.788   3.334 -0.1793  0.1101 -0.0882
 2917W        W 2917   1.783   5.532   3.294  0.1472  0.0033 -0.4045
 2918W        W 2918   6.246   0.252   0.019 -0.0178 -0.2087  0.0889
 2919W        W 2919   1.510   3.339   0.949  0.3285  0.1833 -0.1103
 2920W        W 2920   1.783   1.442   0.167  0.1314 -0.4237  0.0354
 2921W        W 2921   6.235   4.105   5.762 -0.0651 -0.0630  0.1414
 2922W        W 2922   0.026   5.805   2.739  0.1983  0.3600  0.1201
 2923W        W 2923   2.036   6.003   2.562  0.0184  0.0744 -0.0707
 2924W        W 2924   2.836   0.943   1.126  0.0220 -0.2523  0.0094
 2925W        W 2925   2.816   0.483   0.135  0.0213 -0.2745 -0.0657
 2926W        W 2926   4.259   1.883   7.310 -0.2543  0.0324 -0.2632
 2927W        W 2927   0.435   6.424   1.230  0.0319 -0.1599  0.1130
 2928W        W 2928   1.634   0.254   1.081  0.3159 -0.2657  0.2084
 2929W        W 2929   7.189   0.751   4.922  0.0289 -0.2831  0.1111
 2930W        W 2930   4.688   3.984   7.287 -0.3529 -0.3055  0.0551
 2931W        W 2931   5.058   5.147   6.028  0.1871  0.0583 -0.0216
 2932W        W 2932   2.490   1.699   6.234  0.0317 -0.1496 -0.0483
 2933W        W 2933   5.574   1.437   0.307  0.2416 -0.0157 -0.0067
 2934W        W 2934   4.372   4.304   2.203 -0.0055 -0.0942 -0.1385
 2935W        W 2935   6.439   4.676   3.933  0.1381  0.1279 -0.0984
 2936W        W 2936   0.796   6.767   2.093  0.0131 -0.1859  0.0288
 2937W        W 2937   6.167   4.843   4.758 -0.1913 -0.4572  0.2901
 2938W        W 2938   2.125   5.912   3.418 -0.0578 -0.0960  0.0526
 2939W        W 2939   1.643   3.913   6.025  0.3471  0.4627 -0.0295
 2940W        W 2940   0.556   1.721   7.111  0.2073 -0.1146  0.1017
 2941W        W 2941   0.287   3.133   1.551 -0.3330 -0.1083 -0.5789
 2942W        W 2942   6.063   1.264   0.280  0.0255  0.0376  0.1911
 2943W        W 2943   2.424   0.066   2.187  0.3060  0.0200 -0.0937
 2944W        W 2944   2.689   7.134   1.833  0.0193  0.3642  0.2008
 2945W        W 2945   2.136   4.636   7.232 -0.0366  0.1181 -0.0403
 2946W        W 2946   1.032   4.008   0.650 -0.1635  0.1572 -0.0650
 2947W        W 2947   5.929   7.132   3.631 -0.2671 -0.2209  0.1814
 2948W        W 2948   2.195   4.651   5.892 -0.0096  0.2626  0.2280
 2949W        W 2949   2.595   3.535   6.746 -0.0728 -0.2623  0.0549
 2950W        W 2950   2.313   0.795   1.334 -0.1144 -0.0692  0.0383
 2951W        W 2951   4.711   5.371   1.052 -0.1872  0.3916 -0.1451
 2952W        W 2952   5.023   4.185   4.996 -0.0425 -0.0350 -0.1623
 2953W        W 2953   7.186   2.901   3.230  0.0317  0.0910 -0.0323
 2954W        W 2954   0.456   3.608   5.122  0.0560 -0.1473  0.2071
 2955W        W 2955   6.343   1.628   5.829 -0.2797 -0.2477 -0.0162
 2956W        W 2956   4.383   3.775   2.506  0.1955 -0.4909 -0.3195
 2957W        W 2957   5.260   3.723   3.435  0.2493 -0.1529  0.1813
 2958W        W 2958   3.736   2.674   7.208 -0.2563 -0.3578 -0.1362
 2959W        W 2959   6.263   6.434   4.431  0.0426  0.1223 -0.2312
 2960W        W 2960   6.689   1.682   3.274 -0.0471 -0.1383 -0.1130
 2961W        W 2961   5.352   5.369   7.138 -0.0306  0.0231 -0.0625
 2962W        W 2962   5.988   4.550   1.962 -0.0646  0.0786 -0.4644
 2963W        W 2963   2.839   6.503   1.935 -0.0557 -0.0642  0.1592
 2964W        W 2964   0.847   0.664   2.487  0.0355 -0.4848 -0.1555
 2965W        W 2965   2.927   5.159   6.310 -0.0911  0.0302 -0.0510
 2966W        W 2966   5.868   1.861   2.560  0.2670  0.2811 -0.0634
 2967W        W 2967   0.668   4.549   5.581 -0.0436 -0.0124  0.1526
 2968W        W 2968   6.737   1.170   3.364 -0.0856 -0.0679 -0.0184
 2969W        W 2969   3.055   7.049   5.447  0.2732  0.1996  0.0290
 2970W        W 2970   4.628   0.360   1.087  0.2192 -0.0634  0.1681
 2971W        W 2971   6.438   2.456   0.733 -0.0939 -0.0742  0.0097
 2972W        W 2972   1.953   1.834   0.403 -0.0546 -0.1683  0.3532
 2973W        W 2973   4.077   2.542   0.279  0.0766 -0.1153 -0.0637
 2974W        W 2974   3.544   0.354   5.091  0.2573 -0.4032 -0.2214
 2975W        W 2975   7.168   6.788   1.954  0.0189  0.1188 -0.0142
 2976W        W 2976   5.867   7.205   2.217  0.0029  0.0687 -0.2394
 2977W        W 2977   0.877   1.989   0.037 -0.1099 -0.0470  0.0943
 2978W        W 2978   6.528   5.299   0.755 -0.0726  0.1176 -0.0555
 2979W        W 2979   5.181   7.199   0.234  0.0558 -0.0268  0.1027
 2980W        W 2980   5.945   3.980   1.043  0.1319  0.0741 -0.1916
 2981W        W 2981   6.513   5.202   2.372  0.4357  0.0431  0.1176
 2982W        W 2982   2.974   0.281   6.252  0.1017  0.3956 -0.1814
 2983W        W 2983   6.268   4.239   5.164 -0.2368 -0.1718  0.0667
 2984W        W 2984   4.051   3.492   5.369  0.1278 -0.1758 -0.0941
 2985W        W 2985   3.977   4.783   5.839  0.0782  0.0541  0.4430
 2986W        W 2986   0.047   3.596   7.135 -0.3657 -0.0206 -0.1514
 2987W        W 2987   3.364   1.212   2.930 -0.3872 -0.0774 -0.2427
 2988W        W 2988   1.860   0.998   7.300 -0.2478  0.0542 -0.1222
 2989W        W 2989   3.637   4.477   6.044  0.2547  0.1571 -0.0910
 2990W        W 2990   6.478   2.748   2.440  0.0563  0.0896  0.3327
 2991W        W 2991   5.101   2.356   2.027 -0.0476 -0.1114  0.1967
 2992W        W 2992   2.789   2.885   5.854  0.1658  0.1115  0.0314
 2993W        W 2993   2.105   3.197   4.018  0.3516 -0.1433  0.2653
 2994W        W 2994   0.370   0.462   1.648  0.1360 -0.0939 -0.2208
 2995W        W 2995   0.345   2.403   6.524 -0.2966  0.0970  0.1527
 2996W        W 2996   5.919   3.272   0.467 -0.1492 -0.0874 -0.1839
 2997W        W 2997   6.171   6.767   6.504  0.2155  0.0218  0.1138
 2998W        W 2998   0.956   0.731   4.024  0.0133 -0.5352  0.2100
 2999W        W 2999   6.563   4.179   3.909 -0.2308  0.0581 -0.0877
 3000W        W 3000   0.698   2.114   4.844  0.1002 -0.0129  0.3807
 3001W        W 3001   6.847   0.551   5.817  0.2151 -0.1503  0.0610
 3002W        W 3002   1.271   1.105   4.182  0.0827  0.0067  0.3808
 3003W        W 3003   0.774   5.281   3.347 -0.0084  0.0146 -0.3677
 3004W        W 3004   2.438   3.027   6.720  0.0239 -0.2050  0.3084
 3005W        W 3005   2.060   6.644   5.077  0.0147  0.2451 -0.0775
 3006W        W 3006   6.057   1.459   2.159 -0.2329 -0.1475 -0.5067
 3007W        W 3007   7.306   2.389   4.111  0.1418  0.1718 -0.2937
 3008W        W 3008   6.876   3.271   1.910 -0.0847 -0.1133  0.1962
 3009W        W 3009   2.107   3.413   6.793 -0.2837  0.0569 -0.1282
 3010W        W 3010   5.930   4.790   3.760 -0.0551  0.3271 -0.0368
 3011W        W 3011   4.774   2.972   4.921  0.2665 -0.0622  0.0337
 3012W        W 3012   2.446   1.637   0.811 -0.0574 -0.2113  0.2701
 3013W        W 3013   0.735   7.290   4.446 -0.1357 -0.1800  0.0976
 3014W        W 3014   3.220   2.267   4.150  0.2289 -0.4071  0.3076
 3015W        W 3015   6.267   5.919   5.658 -0.3865  0.0779 -0.1091
 3016W        W 3016   5.071   5.968   0.870  0.4929  0.3020 -0.2150
 3017W        W 3017   5.827   0.520   6.235 -0.0190 -0.2521 -0.0709
 3018W        W 3018   5.952   1.633   0.570 -0.2992 -0.3127 -0.1717
 3019W        W 3019   6.444   4.881   1.915 -0.0568 -0.1889  0.0387
 3020W        W 3020   0.403   0.624   6.755 -0.3403 -0.0285  0.0676
 3021W        W 3021   3.697   0.590   1.515  0.2723 -0.0305  0.1480
 3022W        W 3022   1.088   6.535   2.469 -0.1891 -0.2354  0.0493
 3023W        W 3023   3.332   0.165   4.105 -0.0821  0.1568 -0.0315
 3024W        W 3024   3.589   6.250   7.307 -0.3019 -0.0716 -0.1542
 3025W        W 3025   1.027   2.472   5.058  0.1723  0.2383 -0.1116
 3026W        W 3026   1.752   0.621   2.045  0.0689 -0.0097 -0.2481
 3027W        W 3027   5.201   3.080   3.134 -0.3595  0.2134 -0.1605
 3028W        W 3028   3.884   6.276   0.984  0.1230 -0.0466  0.3978
 3029W        W 3029   4.189   6.367   5.119 -0.3095  0.1472 -0.1239
 3030W        W 3030   2.808   6.232   5.232  0.0325 -0.1236  0.0404
 3031W        W 3031   0.190   5.422   5.815 -0.0238  0.0911  0.1061
 3032W        W 3032   3.200   0.158   0.281  0.0306 -0.2207  0.1792
 3033W        W 3033   4.668   6.223   5.224  0.0674  0.0415  0.0590
 3034W        W 3034   3.549   3.087   1.735 -0.0085 -0.0055  0.0050
 3035W        W 3035   4.937   1.512   4.930  0.2141 -0.0124 -0.1409
 3036W        W 3036   1.204   4.305   2.099  0.0080 -0.0891 -0.0771
 3037W        W 3037   0.295   1.935   6.719  0.0335 -0.1052  0.0521
 3038W        W 3038   3.996   3.832   3.366 -0.1623 -0.1790  0.1568
 3039W        W 3039   5.187   1.842   3.947  0.0580  0.3182 -0.0615
 3040W        W 3040   7.264   5.576   3.705  0.1871 -0.0159 -0.0916
 3041W        W 3041   0.925   0.845   6.555  0.0458 -0.1146  0.0161
 3042W        W 3042   1.309   2.886   4.250  0.0033  0.0217  0.1433
 3043W        W 3043   5.403   0.342   0.118  0.1418 -0.1419 -0.1634
 3044W        W 3044   1.708   2.395   4.768  0.1411 -0.1017  0.0743
 3045W        W 3045   0.322   4.943   5.707 -0.0648  0.1631 -0.0746
 3046W        W 3046   6.445   1.714   6.342  0.2796 -0.1366  0.0444
 3047W        W 3047   1.214   2.188   0.344  0.1503  0.0249  0.1753
 3048W        W 3048   3.309   7.056   4.363 -0.1698  0.1101 -0.1058
 3049W        W 3049   5.374   6.634   4.481  0.0228  0.1970 -0.2493
 3050W        W 3050   5.462   6.212   4.791  0.2663 -0.1987  0.0903
 3051W        W 3051   4.550   4.804   2.204 -0.0401  0.0207 -0.1862
 3052W        W 3052   3.253   0.782   2.755  0.2845  0.0382 -0.5414
 3053W        W 3053   4.424   6.400   6.161  0.2770 -0.0476 -0.0581
 3054W        W 3054   0.826   3.933   4.626 -0.1118 -0.1437 -0.2656
 3055W        W 3055   1.042   5.900   4.459  0.1938  0.1401  0.2289
 3056W        W 3056   3.767   3.454   3.022  0.0346 -0.0932  0.0825
 3057W        W 3057   5.776   1.719   4.968 -0.2086 -0.3545  0.1962
 3058W        W 3058   3.548   3.167   1.198 -0.1748  0.2128  0.0238
 3059W        W 3059   0.744   0.693   3.581  0.1977  0.1727  0.2493
 3060W        W 3060   4.807   5.139   0.598  0.0173 -0.4614 -0.1804
 3061W        W 3061   1.904   4.864   4.598  0.2789  0.0949  0.0114
 3062W        W 3062   0.398   3.541   3.568 -0.1507  0.1117  0.0677
 3063W        W 3063   5.323   3.074   5.583  0.0538 -0.3563  0.0892
 3064W        W 3064   6.778   3.968   6.563 -0.0076  0.1499 -0.0589
 3065W        W 3065   4.320   6.506   6.687  0.4533 -0.2868 -0.1434
 3066W        W 3066   6.956   0.404   2.379 -0.0991  0.0179 -0.1388
 3067W        W 3067   4.947   4.479   1.751  0.3353  0.3350 -0.2955
 3068W        W 3068   1.804   5.128   4.180  0.1487 -0.0667  0.0324
 3069W        W 3069   4.756   5.762   1.805  0.0913  0.1154  0.1798
 3070W        W 3070   3.576   7.018   3.969 -0.3602 -0.0506 -0.1352
 3071W        W 3071   1.996   0.454   6.032 -0.1227  0.2712 -0.0588
 3072W        W 3072   6.073   7.108   0.115 -0.0254 -0.2225  0.0425
 3073W        W 3073   3.400   4.191   7.184 -0.1039  0.2080 -0.0813
 3074W        W 3074   3.178   6.124   0.311 -0.2416 -0.0497  0.1139
 3075W        W 3075   4.177   3.880   2.024 -0.0879  0.0538 -0.0731
 3076W        W 3076   5.601   1.998   4.187  0.2550  0.1312 -0.1671
 3077W        W 3077   2.873   1.809   5.878 -0.0917  0.2998  0.0642
 3078W        W 3078   2.490   0.090   6.767  0.0864 -0.1729  0.1128
 3079W        W 3079   4.360   5.021   6.785  0.2187  0.0592 -0.0815
 3080W        W 3080   4.620   6.473   1.768 -0.2298 -0.0191  0.1845
 3081W        W 3081   2.788   0.007   7.205  0.3617 -0.0640 -0.1384
 3082W        W 3082   0.274   2.821   7.262  0.2158  0.1587 -0.0724
 3083W        W 3083   1.444   5.935   0.383  0.2766 -0.1313 -0.1988
 3084W        W 3084   4.486   2.582   6.113 -0.1548 -0.0192  0.0272
 3085W        W 3085   5.367   4.526   0.439  0.2498  0.1618  0.0922
 3086W        W 3086   3.647   6.904   6.075 -0.1054  0.2031 -0.0689
 3087W        W 3087   4.319   4.867   6.242  0.0047  0.4055  0.2007
 3088W        W 3088   5.514   3.794   4.996 -0.1148  0.2625  0.1045
 3089W        W 3089   1.318   2.972   1.577  0.2740 -0.1079 -0.2674
 3090W        W 3090   4.669   2.546   6.854 -0.0440 -0.1401  0.1076
 3091W        W 3091   3.984   3.164   0.339 -0.0686  0.2917  0.1865
 3092W        W 3092   5.596   6.264   1.788 -0.1104  0.0290 -0.0389
 3093W        W 3093   0.999   3.281   3.443 -0.2395 -0.1182  0.0942
 3094W        W 3094   1.553   4.192   4.938 -0.3257 -0.0468 -0.1425
 3095W        W 3095   5.141   3.772   7.212 -0.1277 -0.0446  0.0590
 3096W        W 3096   2.928   2.441   3.473  0.1225  0.0708 -0.0482
 3097W        W 3097   2.678   3.120   1.603 -0.0177  0.0942 -0.1201
 3098W        W 3098   2.057   3.929   1.966 -0.0372  0.0975 -0.3176
 3099W        W 3099   0.418   1.557   6.048 -0.0296  0.0683  0.1389
 3100W        W 3100   3.107   2.540   2.975  0.0021  0.3407  0.0342
 3101W        W 3101   0.164   7.021   6.492 -0.0037  0.1076 -0.0398
 3102W        W 3102   0.119   3.340   3.192 -0.0114  0.1539  0.1643
 3103W        W 3103   3.698   5.211   0.977 -0.1154  0.2177 -0.0999
 3104W        W 3104   5.728   5.709   2.761 -0.1178 -0.1595 -0.2266
 3105W        W 3105   6.999   4.710   6.996  0.1807  0.1171  0.0224
 3106W        W 3106   2.406   3.383   0.822 -0.1242 -0.1904 -0.0219
 3107W        W 3107   0.460   2.309   4.395 -0.2406 -0.2188 -0.1858
 3108W        W 3108   5.627   7.061   4.854 -0.1827  0.1307  0.1025
 3109W        W 3109   2.109   5.740   6.334 -0.2403  0.1294  0.2532
 3110W        W 3110   3.983   0.295   5.653  0.0792  0.2113  0.3315
 3111W        W 3111   2.687   4.039   0.275  0.0902 -0.2240 -0.1257
 3112W        W 3112   1.342   2.750   4.787  0.0485  0.0403 -0.1975
 3113W        W 3113   7.235   3.942   2.304  0.0623  0.1839  0.0401
 3114W        W 3114   5.291   1.308   6.319  0.5028 -0.0196  0.2118
 3115W        W 3115   7.128   3.841   1.451  0.2476  0.1743 -0.0666
 3116W        W 3116   1.324   1.283   0.204 -0.1280  0.3318  0.0150
 3117W        W 3117   4.005   2.546   4.008  0.0632  0.1676  0.2360
 3118W        W 3118   4.198   6.414   5.640 -0.1765 -0.4395  0.2286
 3119W        W 3119   0.050   0.774   0.390 -0.0664  0.1038  0.2448
 3120W        W 3120   6.759   0.854   6.244 -0.1483  0.0393 -0.3170
 3121W        W 3121   2.151   5.623   7.257 -0.2098  0.1253  0.1071
 3122W        W 3122   3.441   1.736   2.843  0.0621 -0.1675 -0.3188
 3123W        W 3123   3.413   4.528   3.778  0.1398 -0.2356  0.1085
 3124W        W 3124   2.061   3.852   2.808  0.0215 -0.1468  0.0720
 3125W        W 3125   3.806   4.589   2.763 -0.1451  0.1656 -0.0888
 3126W        W 3126   4.592   2.593   2.072  0.0075 -0.1963 -0.3594
 3127W        W 3127   5.962   2.355   6.980 -0.0890 -0.1739 -0.0869
 3128W        W 3128   0.621   6.022   1.450 -0.3019 -0.1724 -0.0248
 3129W        W 3129   3.024   6.830   4.060  0.1570  0.4938  0.0868
 3130W        W 3130   4.428   6.305   0.095  0.1416  0.4574  0.1557
 3131W        W 3131   2.834   1.084   2.755 -0.0920  0.0738  0.1147
 3132W        W 3132   6.340   5.506   1.322 -0.0344  0.1106  0.0730
 3133W        W 3133   3.289   1.454   0.337  0.1504  0.0968 -0.0763
 3134W        W 3134   3.454   5.694   5.801 -0.1796 -0.0523  0.0896
 3135W        W 3135   3.580   7.204   0.151 -0.0950  0.1167 -0.1239
 3136W        W 3136   1.184   2.376   2.654  0.0936 -0.2455  0.1232
 3137W        W 3137   3.868   2.060   1.922 -0.2026 -0.3478  0.0810
 3138W        W 3138   4.920   3.592   0.297  0.0858  0.1253  0.4508
 3139W        W 3139   3.911   2.011   0.358 -0.0750 -0.1186  0.1541
 3140W        W 3140   2.714   3.026   1.050 -0.1240  0.2509 -0.2180
 3141W        W 3141   0.636   4.049   2.914  0.4158  0.1757  0.1798
 3142W        W 3142   5.648   0.041   6.340  0.0265 -0.0166  0.0115
 3143W        W 3143   3.814   3.797   2.383 -0.0527 -0.0342 -0.0477
 3144W        W 3144   4.247   1.251   6.570  0.1548  0.2512 -0.4213
 3145W        W 3145   6.340   1.737   6.838 -0.0649  0.1088  0.2575
 3146W        W 3146   2.197   4.683   3.660  0.0177  0.0993 -0.1435
 3147W        W 3147   3.602   2.089   6.454 -0.0204  0.1549  0.1146
 3148W        W 3148   3.951   4.734   0.989  0.0910  0.0261 -0.2787
 3149W        W 3149   5.252   4.485   3.321  0.2221  0.2284 -0.2774
 3150W        W 3150   3.086   1.844   4.595  0.3153 -0.0591 -0.1839
 3151W        W 3151   6.770   6.753   0.377  0.0017 -0.2293 -0.3069
 3152W        W 3152   7.263   7.176   4.407  0.0970  0.1018  0.1858
 3153W        W 3153   2.087   2.039   6.628 -0.5826  0.1253  0.1122
 3154W        W 3154   2.792   4.483   2.796 -0.1319  0.0766  0.3653
 3155W        W 3155   3.893   2.043   0.858 -0.0090  0.2686  0.1252
 3156W        W 3156   1.428   1.166   1.969  0.1074 -0.0109  0.1090
 3157W        W 3157   2.926   1.440   3.772  0.0464 -0.0128  0.0463
 3158W        W 3158   0.522   4.963   7.188 -0.2571 -0.2149 -0.2672
 3159W        W 3159   7.281   1.312   6.268 -0.0110 -0.0341  0.0131
 3160W        W 3160   5.707   3.641   7.245 -0.1988 -0.1251  0.2895
 3161W        W 3161   4.953   5.860   3.551  0.0119  0.1815  0.1388
 3162W        W 3162   4.568   2.513   0.865 -0.0329  0.0177 -0.0559
 3163W        W 3163   4.877   0.009   4.074 -0.0440  0.2836  0.0572
 3164W        W 3164   0.237   2.296   5.057  0.0786  0.2436  0.2116
 3165W        W 3165   1.051   3.255   6.163  0.2773 -0.1399 -0.2313
 3166W        W 3166   0.534   4.037   1.546 -0.0564  0.0715 -0.2257
 3167W        W 3167   0.937   0.230   4.880 -0.2546 -0.3147  0.2422
 3168W        W 3168   0.498   0.884   1.956  0.1826 -0.0046 -0.0202
 3169W        W 3169   0.709   0.190   2.791 -0.1278  0.1413  0.0762
 3170W        W 3170   3.894   0.286   0.153  0.2493 -0.2194  0.0510
 3171W        W 3171   2.662   6.801   0.141 -0.1827 -0.2911  0.2063
 3172W        W 3172   3.950   3.179   5.039  0.1935 -0.3106 -0.0263
 3173W        W 3173   7.309   0.629   5.692 -0.0815 -0.1072 -0.3295
 3174W        W 3174   1.682   5.022   3.278 -0.4161 -0.1830  0.3092
 3175W        W 3175   4.478   1.720   5.000 -0.0113  0.1375 -0.3841
 3176W        W 3176   7.086   2.078   2.297 -0.1456  0.0813 -0.1266
 3177W        W 3177   3.632   5.702   1.260 -0.1821  0.2217  0.0209
 3178W        W 3178   6.688   6.701   1.260  0.2258 -0.1175 -0.0588
 3179W        W 3179   2.410   5.760   6.855  0.0768  0.2383  0.2201
 3180W        W 3180   1.450   5.853   2.018  0.0797  0.2326 -0.4870
 3181W        W 3181   6.309   3.778   3.730 -0.3944  0.1217  0.2179
 3182W        W 3182   5.662   2.067   5.332  0.1186 -0.1806 -0.1312
 3183W        W 3183   2.281   4.292   5.504 -0.1524 -0.1057  0.4016
 3184W        W 3184   2.896   0.274   2.429 -0.0321  0.0166 -0.3260
 3185W        W 3185   6.174   5.188   0.417  0.3876  0.1860  0.3272
 3186W        W 3186   2.281   7.090   4.798 -0.3384  0.2109  0.0975
 3187W        W 3187   3.447   0.514   0.105 -0.0935 -0.0482 -0.0150
 3188W        W 3188   1.017   4.861   4.194 -0.0694 -0.0636  0.0390
 3189W        W 3189   6.663   0.660   2.108 -0.2046  0.0529 -0.2421
 3190W        W 3190   3.321   5.801   2.199  0.1062 -0.0853  0.0177
 3191W        W 3191   1.457   4.450   6.114 -0.2058  0.0656 -0.1890
 3192W        W 3192   1.006   3.186   2.021 -0.2249  0.1426  0.3291
 3193W        W 3193   6.592   2.024   3.667 -0.0596 -0.0841 -0.1897
 3194W        W 3194   6.441   3.881   1.186  0.1575  0.1226  0.3490
 3195W        W 3195   4.839   4.642   0.344  0.1528  0.0984 -0.2311
 3196W        W 3196   5.341   6.933   2.384  0.0508  0.0302 -0.0145
 3197W        W 3197   1.862   2.721   0.739  0.0348  0.0032  0.0227
 3198W        W 3198   3.280   5.183   1.245 -0.0080 -0.1702  0.0790
 3199W        W 3199   0.511   6.734   2.553  0.0116 -0.1592 -0.2386
 3200W        W 3200   2.332   5.409   0.382  0.1813 -0.0533 -0.1761
 3201W        W 3201   2.225   4.727   1.677  0.0668 -0.0787 -0.1281
 3202W        W 3202   3.404   6.556   4.099  0.1352 -0.2075  0.2080
 3203W        W 3203   5.938   4.509   0.954 -0.0757 -0.1505  0.0764
 3204W        W 3204   7.010   6.610   7.248  0.0691 -0.0591  0.0960
 3205W        W 3205   0.952   4.978   0.718  0.3396 -0.0666 -0.0050
 3206W        W 3206   2.992   4.901   5.820  0.2322  0.0471  0.1826
 3207W        W 3207   6.495   2.324   1.339  0.1461 -0.0898 -0.1920
 3208W        W 3208   7.097   2.938   0.242 -0.1418  0.0659 -0.0853
 3209W        W 3209   6.692   2.693   0.054 -0.1559  0.4573  0.0143
 3210W        W 3210   6.939   2.451   4.581  0.3256  0.1595  0.1267
 3211W        W 3211   7.243   0.998   3.774  0.1230  0.0822 -0.4157
 3212W        W 3212   6.830   5.915   0.456 -0.2219  0.0099 -0.1345
 3213W        W 3213   4.332   7.316   4.909 -0.1703  0.0141 -0.2812
 3214W        W 3214   1.716   3.458   1.890  0.2906 -0.1974  0.2190
 3215W        W 3215   5.968   4.737   0.222  0.3364  0.1058  0.0363
 3216W        W 3216   3.906   5.644   5.597 -0.2651 -0.2286  0.0895
 3217W        W 3217   1.825   0.309   1.563 -0.0671  0.1723  0.3543
 3218W        W 3218   1.843   2.829   4.392 -0.1458 -0.1427 -0.5119
 3219W        W 3219   4.870   0.900   5.510  0.0561 -0.1234 -0.2847
 3220W        W 3220   7.246   4.835   4.892 -0.2589  0.0776 -0.0317
 3221W        W 3221   6.159   7.224   5.166 -0.2193  0.2222 -0.0711
 3222W        W 3222   5.031   1.037   5.026  0.1870  0.0125 -0.4719
 3223W        W 3223   0.980   7.131   5.209  0.2447  0.5190  0.0664
 3224W        W 3224   7.140   1.547   6.767  0.0511  0.1754  0.2027
 3225W        W 3225   0.511   1.816   1.691  0.1542  0.0074 -0.0078
 3226W        W 3226   4.727   7.131   5.258  0.1717  0.0481 -0.3289
 3227W        W 3227   6.455   4.984   4.308 -0.2239 -0.2980 -0.2179
 3228W        W 3228   4.200   1.982   4.134  0.1734 -0.4072  0.4708
 3229W        W 3229   0.698   3.670   5.680  0.2060 -0.1642 -0.0018
 3230W        W 3230   6.301   0.054   2.814  0.1304  0.0046 -0.2797
 3231W        W 3231   4.369   2.795   3.094  0.3295  0.2477  0.2420
 3232W        W 3232   2.757   5.527   1.757  0.1098 -0.0570  0.2334
 3233W        W 3233   1.778   5.449   5.015 -0.1391  0.1082  0.1638
 3234W        W 3234   0.374   6.578   6.662  0.1134 -0.0737  0.1053
 3235W        W 3235   2.921   4.178   4.452 -0.1392  0.1489 -0.0738
 3236W        W 3236   1.974   4.741   0.744 -0.2238 -0.0272 -0.0858
 3237W        W 3237   5.217   0.803   2.720  0.2917  0.2486 -0.1820
 3238W        W 3238   3.001   6.240   4.137  0.0252 -0.1049  0.1102
 3239W        W 3239   5.427   7.254   1.962  0.0723  0.0024  0.1188
 3240W        W 3240   4.788   0.323   4.845 -0.2379  0.0789  0.0701
 3241W        W 3241   3.354   6.577   2.247  0.0039 -0.1061 -0.1026
 3242W        W 3242   0.607   6.619   3.936 -0.2049  0.0728  0.0414
 3243W        W 3243   4.765   2.991   0.989  0.0613  0.0587  0.1038
 3244W        W 3244   2.505   2.301   1.282  0.1087 -0.1912  0.2104
 3245W        W 3245   5.968   4.232   2.423 -0.0363 -0.0741  0.1771
 3246W        W 3246   4.420   5.214   2.452 -0.2636  0.0438  0.1413
 3247W        W 3247   0.936   6.823   4.333  0.1173 -0.0122 -0.1949
 3248W        W 3248   5.498   6.768   1.812 -0.2420 -0.0553  0.1202
 3249W        W 3249   4.029   5.038   2.634 -0.0006  0.2113  0.1588
 3250W        W 3250   3.152   3.907   4.855 -0.2332  0.0232  0.4394
 3251W        W 3251   0.354   2.636   1.772 -0.1444 -0.2308 -0.1959
 3252W        W 3252   4.782   2.757   1.408 -0.0383  0.0777  0.1544
 3253W        W 3253   3.099   0.680   7.075  0.0923  0.0830 -0.0953
 3254W        W 3254   6.586   7.024   3.764  0.0717 -0.0465  0.1065
 3255W        W 3255   2.060   3.378   3.519  0.0835 -0.0325  0.0258
 3256W        W 3256   0.431   6.027   0.925  0.0223 -0.0168  0.0140
 3257W        W 3257   3.290   7.211   6.802 -0.5683 -0.0958 -0.2080
 3258W        W 3258   1.849   6.955   0.257 -0.1268 -0.0404  0.1976
 3259W        W 3259   2.234   2.292   2.855  0.1206 -0.2472  0.4000
 3260W        W 3260   6.535   6.561   3.992 -0.1663  0.0773 -0.2113
 3261W        W 3261   2.398   0.779   7.297 -0.3665  0.2355  0.1111
 3262W        W 3262   0.705   0.571   3.064 -0.0735 -0.3389  0.2318
 3263W        W 3263   6.969   5.550   7.187 -0.1173  0.2799  0.2802
 3264W        W 3264   3.116   2.279   6.487  0.2751  0.0434 -0.1059
 3265W        W 3265   1.579   7.207   1.656  0.1703 -0.0761  0.0747
 3266W        W 3266   6.325   0.319   6.544 -0.1015  0.0472 -0.0668
 3267W        W 3267   0.378   0.676   3.902  0.1407  0.0699 -0.1515
 3268W        W 3268   3.300   5.458   3.078 -0.1041 -0.1888 -0.0641
 3269W        W 3269   5.383   1.493   1.268  0.1133 -0.2654  0.1536
 3270W        W 3270   3.336   0.120   5.512  0.1735 -0.1143  0.0492
 3271W        W 3271   2.624   6.915   6.973 -0.1184 -0.1679 -0.1235
 3272W        W 3272   5.535   4.797   2.418 -0.1967  0.2886 -0.1808
 3273W        W 3273   3.509   2.667   4.275  0.1369  0.1115 -0.2451
 3274W        W 3274   5.454   4.868   0.016 -0.3160  0.0929 -0.0156
 3275W        W 3275   1.888   3.112   6.415 -0.3069 -0.0210  0.1738
 3276W        W 3276   0.280   3.857   1.979 -0.0184 -0.1272  0.1500
 3277W        W 3277   2.154   6.397   0.619  0.1506 -0.2105 -0.1701
 3278W        W 3278   2.389   6.089   0.243  0.4956 -0.0654  0.1683
 3279W        W 3279   0.102   2.478   1.306  0.2300 -0.1964  0.1089
 3280W        W 3280   5.298   2.787   0.177 -0.0019  0.0497 -0.2140
 3281W        W 3281   2.917   4.187   1.672  0.0098  0.1164 -0.1884
 3282W        W 3282   0.261   3.879   5.950  0.3644  0.0421  0.2033
 3283W        W 3283   1.246   5.599   5.604 -0.0878 -0.4206  0.0787
 3284W        W 3284   1.926   6.721   4.192 -0.2946  0.0663  0.0350
 3285W        W 3285   2.471   0.492   6.254 -0.0115  0.1473  0.0327
 3286W        W 3286   2.768   4.138   1.078 -0.1182  0.1740  0.1867
 3287W        W 3287   3.491   3.930   5.721 -0.0529 -0.1092  0.1617
 3288W        W 3288   6.226   6.606   0.300  0.1281 -0.0960 -0.2734
 3289W        W 3289   7.016   7.053   6.337 -0.1817  0.1689 -0.0706
 3290W        W 3290   1.574   1.286   3.269 -0.0804 -0.2309 -0.1055
 3291W        W 3291   5.125   2.711   0.669 -0.2793  0.1942  0.0929
 3292W        W 3292   3.972   0.965   2.741  0.0755 -0.0652 -0.0799
 3293W        W 3293   1.593   6.251   1.453  0.2606 -0.1000 -0.0812
 3294W        W 3294   3.933   5.790   3.501  0.0603  0.0667  0.2081
 3295W        W 3295   6.637   1.677   3.996  0.0445  0.2779  0.1700
 3296W        W 3296   1.638   0.599   2.720 -0.0481  0.1429 -0.1696
 3297W        W 3297   0.258   0.197   4.190  0.1543 -0.0494 -0.2131
 3298W        W 3298   6.144   1.360   1.568 -0.0182 -0.0898  0.4223
 3299W        W 3299   1.933   1.341   2.061  0.0753  0.2407  0.1884
 3300W        W 3300   4.892   0.249   2.046  0.0845 -0.0096  0.2023
 3301W        W 3301   3.774   5.345   6.525  0.1086 -0.0637 -0.0304
 3302W        W 3302   4.630   6.140   2.181  0.0318 -0.2021 -0.1017
 3303W        W 3303   1.199   6.174   4.943  0.1814  0.0462 -0.0456
 3304W        W 3304   0.897   6.360   0.261  0.1542 -0.0471 -0.0505
 3305W        W 3305   5.157   2.474   1.532  0.0603 -0.0099  0.0351
 3306W        W 3306   1.666   0.743   3.182  0.0516  0.0664  0.0970
 3307W        W 3307   6.553   7.279   5.981 -0.0087 -0.2244  0.0512
 3308W        W 3308   5.228   4.265   5.463  0.1541  0.0872 -0.4208
 3309W        W 3309   0.884   7.020   2.698  0.0405  0.1445  0.0476
 3310W        W 3310   1.670   5.677   2.458  0.1910  0.1857 -0.0372
 3311W        W 3311   6.625   1.836   2.788 -0.2331 -0.0360 -0.3704
 3312W        W 3312   0.922   2.130   4.367  0.2072 -0.4012 -0.1289
 3313W        W 3313   5.253   5.416   3.432  0.0643  0.0227 -0.2717
 3314W        W 3314   3.928   1.758   2.819 -0.1342  0.1180 -0.0122
 3315W        W 3315   0.734   2.952   1.680  0.2450  0.1386 -0.1233
 3316W        W 3316   4.147   4.697   7.075 -0.4260  0.1106 -0.1318
 3317W        W 3317   7.050   4.360   3.666 -0.0424 -0.0483  0.1828
 3318W        W 3318   0.408   3.192   6.764 -0.4264 -0.2566  0.0375
 3319W        W 3319   7.011   0.725   3.422  0.2058 -0.1260  0.1332
 3320W        W 3320   1.683   5.945   2.952  0.0363 -0.0368  0.2213
 3321W        W 3321   2.791   5.886   2.144 -0.1925  0.2164  0.2553
 3322W        W 3322   5.373   0.579   6.513 -0.1707  0.1382  0.0803
 3323W        W 3323   3.023   5.773   4.338 -0.3051  0.1192  0.2785
 3324W        W 3324   2.208   5.608   2.235 -0.3204  0.1640 -0.0770
 3325W        W 3325   6.895   5.791   3.402  0.0061 -0.0235 -0.0177
 3326W        W 3326   5.260   2.106   5.609  0.1320 -0.1183 -0.0990
 3327W        W 3327   2.542   5.995   3.101 -0.0599 -0.0376 -0.0539
 3328W        W 3328   3.859   5.320   3.008  0.0184  0.0150 -0.0874
 3329W        W 3329   1.460   1.691   6.561 -0.0121  0.0619 -0.1367
 3330W        W 3330   3.745   0.133   2.252 -0.2914  0.0459  0.0406
 3331W        W 3331   7.041   4.549   1.637  0.0549  0.0710 -0.1692
 3332W        W 3332   1.462   1.444   3.876 -0.2347 -0.1860  0.1187
 3333W        W 3333   1.102   0.935   3.316  0.0245 -0.4315  0.2873
 3334W        W 3334   6.603   0.123   1.663  0.3949  0.3447  0.0199
 3335W        W 3335   5.672   4.270   5.302 -0.2107  0.3000 -0.1554
 3336W        W 3336   1.471   3.571   0.521 -0.1602  0.1169  0.4756
 3337W        W 3337   4.959   3.213   6.346  0.1351  0.0031 -0.1091
 3338W        W 3338   6.800   1.345   5.536  0.0252  0.2628  0.0763
 3339W        W 3339   5.592   2.504   0.978 -0.0423 -0.0353 -0.0927
 3340W        W 3340   6.515   3.355   0.425 -0.1530 -0.0743 -0.1106
 3341W        W 3341   6.658   4.958   6.261  0.0656 -0.0936 -0.1658
 3342W        W 3342   6.704   5.947   5.409 -0.1060  0.2006 -0.2756
 3343W        W 3343   1.812   1.162   2.802  0.1088  0.0914  0.0164
 3344W        W 3344   2.040   2.602   5.675 -0.1303  0.0709  0.3133
 3345W        W 3345   0.565   1.613   3.114  0.0231  0.3086  0.0617
 3346W        W 3346   1.972   5.466   2.824 -0.2078  0.2493  0.1582
 3347W        W 3347   2.960   1.730   2.873  0.2750  0.0872 -0.0007
 3348W        W 3348   6.349   4.666   1.480 -0.2204 -0.0202 -0.0809
 3349W        W 3349   3.983   0.669   2.251 -0.3661 -0.2004  0.1836
 3350W        W 3350   5.879   1.202   5.245 -0.1418 -0.1390  0.2349
 3351W        W 3351   0.802   6.761   1.452 -0.1216  0.1157 -0.0641
 3352W        W 3352   1.020   4.987   4.727 -0.0265 -0.0113 -0.2219
 3353W        W 3353   2.275   5.319   6.629 -0.2186  0.0888 -0.0963
 3354W        W 3354   4.135   0.021   1.001  0.1014  0.1331  0.1294
 3355W        W 3355   3.957   2.255   6.818 -0.1307 -0.2355  0.0434
 3356W        W 3356   5.689   2.327   2.702 -0.2031 -0.2916  0.1703
 3357W        W 3357   4.329   5.952   4.306 -0.2064  0.1082  0.2949
 3358W        W 3358   6.722   4.524   2.760  0.1734  0.1944  0.0860
 3359W        W 3359   5.858   3.912   1.994  0.1310  0.0465 -0.0828
 3360W        W 3360   2.911   2.739   6.613 -0.0334  0.1893  0.0135
 3361W        W 3361   3.252   1.867   7.229 -0.1215 -0.2452  0.2708
 3362W        W 3362   3.073   4.521   1.047  0.0700 -0.1069 -0.3456
 3363W        W 3363   3.186   2.087   3.201  0.4044  0.0811  0.1495
 3364W        W 3364   3.442   4.995   6.158  0.0814 -0.1022  0.2574
 3365W        W 3365   5.115   0.579   5.797 -0.2254 -0.0959 -0.0847
 3366W        W 3366   4.325   2.792   1.196 -0.0568 -0.0112  0.3332
 3367W        W 3367   2.908   6.315   2.474 -0.0014 -0.0847 -0.0097
 3368W        W 3368   2.424   2.423   3.472  0.4816  0.0847 -0.0856
 3369W        W 3369   1.628   2.132   6.394  0.2451  0.6472  0.1075
 3370W        W 3370   0.040   6.829   2.683  0.2416 -0.0189  0.2686
 3371W        W 3371   1.469   4.204   5.660  0.2199 -0.0287  0.1441
 3372W        W 3372   2.709   5.454   7.247 -0.1650  0.1393 -0.1040
 3373W        W 3373   5.165   6.113   0.418 -0.0722  0.0622 -0.0361
 3374W        W 3374   6.041   2.848   2.618 -0.1619  0.2084  0.0217
 3375W        W 3375   3.370   6.017   0.845  0.0070  0.0987 -0.1215
 3376W        W 3376   4.899   2.065   4.851 -0.0746  0.0488  0.2919
 3377W        W 3377   2.840   0.975   4.509  0.4701 -0.1281  0.0966
 3378W        W 3378   3.392   7.154   5.107 -0.1012  0.2804  0.0851
 3379W        W 3379   1.544   2.633   2.333 -0.0009  0.3212  0.2924
 3380W        W 3380   2.120   3.025   1.790  0.3940  0.0001  0.2946
 3381W        W 3381   5.617   5.958   2.204  0.0535  0.1543  0.0511
 3382W        W 3382   1.219   2.719   1.999 -0.1431 -0.0185  0.1709
 3383W        W 3383   0.119   3.543   5.506 -0.1548  0.1689 -0.1530
 3384W        W 3384   5.781   1.515   6.156  0.0558  0.3785  0.0376
 3385W        W 3385   1.768   2.226   5.881 -0.0375  0.2923  0.0794
 3386W        W 3386   0.226   0.665   0.876  0.3328  0.2633  0.0852
 3387W        W 3387   6.622   2.757   6.639  0.1351  0.0068  0.2949
 3388W        W 3388   3.000   6.635   4.476  0.1982  0.0782 -0.1808
 3389W        W 3389   2.669   1.284   4.175 -0.1127 -0.1051  0.1768
 3390W        W 3390   2.095   0.062   0.358  0.2034  0.0235  0.3879
 3391W        W 3391   3.061   2.317   1.063 -0.1239 -0.2106  0.0802
 3392W        W 3392   5.952   5.834   0.514 -0.0788  0.1500 -0.2105
 3393W        W 3393   3.188   1.062   1.948  0.1628  0.2217 -0.2521
 3394W        W 3394   0.101   1.909   6.146  0.0753 -0.2639  0.3045
 3395W        W 3395   3.734   3.661   4.209  0.1249 -0.2794 -0.2212
 3396W        W 3396   4.205   2.748   4.858  0.2389 -0.3051 -0.2531
 3397W        W 3397   0.529   1.494   3.794 -0.0800 -0.0836  0.0066
 3398W        W 3398   0.753   4.602   6.809 -0.0988  0.0909 -0.1767
 3399W        W 3399   0.486   4.812   4.780 -0.0707 -0.1809  0.2019
 3400W        W 3400   4.277   6.548   2.207 -0.3260 -0.1651  0.0322
 3401W        W 3401   3.360   6.669   5.470 -0.1676  0.2040  0.0634
 3402W        W 3402   2.601   3.430   3.789  0.0427  0.2197  0.2466
 3403W        W 3403   5.222   2.968   3.968 -0.1820 -0.1853  0.0061
 3404W        W 3404   5.422   1.368   5.060 -0.2068  0.3291 -0.1499
 3405W        W 3405   5.630   5.154   4.813  0.2460  0.0491 -0.3888
 3406W        W 3406   1.995   7.167   4.404  0.0981  0.0409  0.0037
 3407W        W 3407   6.296   1.237   3.704  0.1049  0.2076  0.1940
 3408W        W 3408   7.238   5.357   6.756  0.0890  0.3578  0.2215
 3409W        W 3409   6.788   0.941   6.731 -0.0974  0.1648  0.0453
 3410W        W 3410   3.698   1.297   4.997 -0.2747  0.0561  0.1137
 3411W        W 3411   6.545   0.316   4.266 -0.0200  0.1336  0.2340
 3412W        W 3412   6.730   6.362   0.788 -0.1318  0.1382  0.0760
 3413W        W 3413   0.507   5.445   4.406 -0.1292  0.3457 -0.2894
 3414W        W 3414   2.622   6.364   1.489 -0.3230 -0.0046  0.2987
 3415W        W 3415   6.000   4.114   7.285  0.0355 -0.1355  0.2614
 3416W        W 3416   6.649   5.902   0.958  0.2117 -0.1994  0.2388
 3417W        W 3417   6.275   3.673   6.122  0.1274  0.0058 -0.1952
 3418W        W 3418   0.358   4.457   3.146  0.0466 -0.1738  0.0722
 3419W        W 3419   3.257   4.619   1.669 -0.2081  0.2703  0.0376
 3420W        W 3420   6.302   6.459   1.124  0.0395  0.1395 -0.0068
 3421W        W 3421   3.919   2.231   2.613  0.2508 -0.3196 -0.0733
 3422W        W 3422   6.759   2.897   1.554 -0.2819 -0.0638 -0.0252
 3423W        W 3423   1.943   5.874   5.082  0.3252  0.4793  0.1897
 3424W        W 3424   3.015   3.247   6.800 -0.0962  0.0909  0.1742
 3425W        W 3425   1.274   7.036   6.687  0.3805 -0.0320  0.3298
 3426W        W 3426   1.475   7.152   1.074  0.1298  0.1750 -0.3626
 3427W        W 3427   3.717   0.693   4.810 -0.3821  0.0945  0.1047
 3428W        W 3428   0.264   2.095   3.040 -0.0258 -0.0726  0.0179
 3429W        W 3429   6.507   1.610   5.281  0.2585 -0.0616 -0.1545
 3430W        W 3430   4.800   2.240   1.267 -0.3687 -0.1596  0.0747
 3431W        W 3431   0.315   6.658   4.864 -0.0964 -0.2233  0.1299
 3432W        W 3432   4.084   4.361   3.132 -0.0198  0.1348  0.0078
 3433W        W 3433   6.286   1.257   5.503 -0.0081  0.2937  0.0274
 3434W        W 3434   2.261   3.826   3.822  0.0166 -0.1716 -0.0740
 3435W        W 3435   3.306   5.853   4.783  0.1758  0.2637  0.0325
 3436W        W 3436   5.710   3.623   3.175  0.0175 -0.0649  0.2366
 3437W        W 3437   6.951   3.103   0.997  0.1588 -0.0929 -0.0218
 3438W        W 3438   2.010   5.020   5.576  0.2549 -0.1795 -0.1489
 3439W        W 3439   4.046   5.936   1.314 -0.4194  0.1773 -0.0320
 3440W        W 3440   4.067   6.996   3.879 -0.2163 -0.4273  0.0028
 3441W        W 3441   0.819   4.095   6.641  0.1099 -0.0605 -0.0177
 3442W        W 3442   3.380   4.419   4.294 -0.4180 -0.0834  0.0064
 3443W        W 3443   3.413   1.932   5.086 -0.0694  0.0554  0.0255
 3444W        W 3444   1.283   5.336   0.001  0.1546 -0.0208 -0.1383
 3445W        W 3445   5.662   4.977   6.857  0.1493  0.2758 -0.2508
   7.31952   7.31952   7.31952
