Written by MDAnalysis
 3445
    0DIM   BNZ1    1   5.982   0.941   2.842
    1DIM   BNZ1    2   6.672   2.753   4.934
    2DIM   BNZ1    3   6.047   1.610   4.452
    3DIM   BNZ1    4   6.219   4.914   4.795
    4DIM   BNZ1    5   1.213   0.460   5.360
    5DIM   BNZ1    6   3.069   1.482   4.315
    6DIM   BNZ1    7   2.356   0.589   2.815
    7DIM   BNZ1    8   2.827   4.157   1.906
    8DIM   BNZ1    9   6.889   4.753   4.507
    9DIM   BNZ1   10   2.989   4.300   2.107
   10DIM   BNZ1   11   2.938   6.998   5.867
   11DIM   BNZ1   12   4.395   5.533   4.539
   12DIM   BNZ1   13   0.172   3.397   4.147
   13DIM   BNZ1   14   6.781   1.198   6.885
   14DIM   BNZ1   15   5.004   3.205   0.276
   15DIM   BNZ1   16   6.564   5.700   4.187
   16DIM   BNZ1   17   4.541   4.999   3.733
   17DIM   BNZ1   18   1.874   2.111   6.960
   18DIM   BNZ1   19   2.374   5.208   2.114
   19DIM   BNZ1   20   4.968   3.809   2.910
   20DIM   BNZ1   21   3.024   2.575   3.722
   21DIM   BNZ1   22   5.560   0.702   0.059
   22DIM   BNZ1   23   3.801   1.463   5.806
   23DIM   BNZ1   24   3.087   1.135   2.228
   24DIM   BNZ1   25   3.914   6.221   4.874
   25DIM   BNZ1   26   4.623   5.464   2.338
   26DIM   BNZ1   27   3.879   5.405   0.343
   27DIM   BNZ1   28   2.062   1.892   4.310
   28DIM   BNZ1   29   0.838   2.976   3.133
   29DIM   BNZ1   30   4.733   3.476   4.500
   30DIM   BNZ1   31   3.699   2.560   6.272
   31DIM   BNZ1   32   4.654   2.817   0.422
   32DIM   BNZ1   33   0.444   6.703   6.907
   33DIM   BNZ1   34   5.387   2.693   5.866
   34DIM   BNZ1   35   1.925   2.649   0.779
   35DIM   BNZ1   36   4.921   4.147   6.910
   36DIM   BNZ1   37   5.664   0.143   1.685
   37DIM   BNZ1   38   0.902   1.572   3.922
   38DIM   BNZ1   39   6.351   0.132   0.642
   39DIM   BNZ1   40   2.236   6.155   4.041
   40DIM   BNZ1   41   6.019   1.602   5.036
   41DIM   BNZ1   42   3.603   6.241   3.503
   42DIM   BNZ1   43   0.372   2.945   4.077
   43DIM   BNZ1   44   2.499   2.457   6.083
   44DIM   BNZ1   45   0.493   3.842   6.612
   45DIM   BNZ1   46   5.382   6.523   6.020
   46DIM   BNZ1   47   5.470   1.124   5.769
   47DIM   BNZ1   48   5.010   6.138   0.168
   48DIM   BNZ1   49   4.786   2.649   3.871
   49DIM   BNZ1   50   2.869   0.962   1.594
   50DIM   BNZ1   51   3.818   6.656   0.097
   51DIM   BNZ1   52   6.850   3.832   5.102
   52DIM   BNZ1   53   0.971   2.364   4.175
   53DIM   BNZ1   54   1.776   6.892   1.064
   54DIM   BNZ1   55   6.680   1.506   2.056
   55DIM   BNZ1   56   1.131   0.992   5.683
   56DIM   BNZ1   57   5.820   1.082   0.359
   57DIM   BNZ1   58   3.017   6.637   6.617
   58DIM   BNZ1   59   0.422   2.439   3.133
   59DIM   BNZ1   60   1.854   4.840   4.721
   60DIM   BNZ1   61   5.176   2.627   3.079
   61DIM   BNZ1   62   4.441   6.328   6.703
   62DIM   BNZ1   63   0.310   5.674   0.712
   63DIM   BNZ1   64   4.300   3.775   1.794
   64DIM   BNZ1   65   5.069   3.956   6.759
   65DIM   BNZ1   66   6.748   4.835   2.711
   66DIM   BNZ1   67   2.919   0.096   1.431
   67DIM   BNZ1   68   6.119   3.507   3.710
   68DIM   BNZ1   69   5.777   5.950   3.134
   69DIM   BNZ1   70   3.548   6.944   5.944
   70DIM   BNZ1   71   5.875   0.147   5.017
   71DIM   BNZ1   72   0.687   6.431   5.347
   72DIM   BNZ1   73   5.563   5.924   2.987
   73DIM   BNZ1   74   6.839   6.336   5.114
   74DIM   BNZ1   75   1.120   4.200   6.588
   75DIM   BNZ1   76   0.239   6.357   5.614
   76DIM   BNZ1   77   5.417   5.658   2.591
   77DIM   BNZ1   78   2.637   2.839   6.796
   78DIM   BNZ1   79   6.762   3.900   6.003
   79DIM   BNZ1   80   0.392   0.536   3.016
   80DIM   BNZ1   81   3.797   3.906   0.038
   81DIM   BNZ1   82   2.119   2.470   1.615
   82DIM   BNZ1   83   4.350   2.765   5.958
   83DIM   BNZ1   84   6.948   6.682   1.921
   84DIM   BNZ1   85   3.168   1.275   3.402
   85DIM   BNZ1   86   2.220   2.786   2.600
   86DIM   BNZ1   87   4.040   2.621   3.686
   87DIM   BNZ1   88   0.012   4.281   4.003
   88DIM   BNZ1   89   5.518   3.208   2.514
   89DIM   BNZ1   90   0.112   2.981   0.958
   90DIM   BNZ1   91   6.896   2.908   4.363
   91DIM   BNZ1   92   6.563   6.309   1.858
   92DIM   BNZ1   93   3.388   3.010   2.259
   93DIM   BNZ1   94   4.048   6.820   1.878
   94DIM   BNZ1   95   2.702   6.378   3.731
   95DIM   BNZ1   96   4.412   5.411   0.401
   96DIM   BNZ1   97   0.924   0.902   6.109
   97DIM   BNZ1   98   3.743   1.401   6.048
   98DIM   BNZ1   99   4.685   5.026   4.358
   99DIM   BNZ1  100   5.800   4.810   2.309
  100DIM   BNZ1  101   6.041   5.625   4.703
  101DIM   BNZ1  102   6.646   3.080   1.375
  102DIM   BNZ1  103   5.750   6.137   0.430
  103DIM   BNZ1  104   1.797   6.246   4.919
  104DIM   BNZ1  105   6.727   0.024   6.534
  105DIM   BNZ1  106   0.750   6.255   1.012
  106DIM   BNZ1  107   2.204   1.169   1.707
  107DIM   BNZ1  108   1.459   6.823   1.294
  108DIM   BNZ1  109   3.959   2.160   0.417
  109DIM   BNZ1  110   2.449   6.029   0.072
  110DIM   BNZ1  111   1.374   2.953   5.449
  111DIM   BNZ1  112   4.362   2.324   5.357
  112DIM   BNZ1  113   3.235   1.392   0.650
  113DIM   BNZ1  114   2.494   1.799   5.708
  114DIM   BNZ1  115   1.438   4.709   6.582
  115DIM   BNZ1  116   5.096   2.786   4.848
  116DIM   BNZ1  117   0.572   4.281   4.840
  117DIM   BNZ1  118   4.601   3.066   3.657
  118DIM   BNZ1  119   4.072   6.238   5.507
  119DIM   BNZ1  120   0.292   1.343   1.639
  120DIM   BNZ1  121   4.198   2.999   2.760
  121DIM   BNZ1  122   3.647   3.974   5.314
  122DIM   BNZ1  123   4.508   5.659   3.320
  123DIM   BNZ1  124   6.588   3.379   4.043
  124DIM   BNZ1  125   6.986   3.378   0.113
  125DIM   BNZ1  126   4.075   2.409   2.659
  126DIM   BNZ1  127   1.739   6.450   1.468
  127DIM   BNZ1  128   2.439   0.332   2.035
  128DIM   BNZ1  129   6.140   4.349   0.917
  129DIM   BNZ1  130   3.232   1.352   2.182
  130DIM   BNZ1  131   0.152   2.883   2.653
  131DIM   BNZ1  132   4.797   2.202   2.626
  132DIM   BNZ1  133   0.487   1.873   0.388
  133DIM   BNZ1  134   4.168   5.171   2.273
  134DIM   BNZ1  135   0.730   1.160   2.706
  135DIM   BNZ1  136   1.782   4.438   1.147
  136DIM   BNZ1  137   1.558   1.515   1.938
  137DIM   BNZ1  138   0.239   4.274   5.391
  138DIM   BNZ1  139   0.680   6.995   5.423
  139DIM   BNZ1  140   3.166   6.528   5.379
  140DIM   BNZ1  141   3.871   5.223   4.879
  141DIM   BNZ1  142   6.895   1.309   1.382
  142DIM   BNZ1  143   0.422   4.954   3.758
  143DIM   BNZ1  144   3.942   4.278   2.533
  144DIM   BNZ1  145   3.150   0.197   6.145
  145DIM   BNZ1  146   5.251   6.319   0.886
  146DIM   BNZ1  147   3.202   3.223   1.701
  147DIM   BNZ1  148   4.411   3.160   0.926
  148DIM   BNZ1  149   0.712   2.665   1.192
  149DIM   BNZ1  150   2.800   3.815   0.291
  150DIM   BNZ1  151   6.144   6.059   4.698
  151DIM   BNZ1  152   4.701   0.662   4.582
  152DIM   BNZ1  153   6.312   0.947   6.829
  153DIM   BNZ1  154   4.646   0.964   6.717
  154DIM   BNZ1  155   4.551   5.155   1.667
  155DIM   BNZ1  156   6.311   3.036   5.800
  156DIM   BNZ1  157   6.120   5.244   5.184
  157DIM   BNZ1  158   6.231   3.818   6.143
  158DIM   BNZ1  159   4.608   0.991   5.187
  159DIM   BNZ1  160   0.084   0.644   1.003
  160DIM   BNZ1  161   2.792   2.851   1.566
  161DIM   BNZ1  162   0.309   6.643   2.180
  162DIM   BNZ1  163   0.195   1.338   0.583
  163DIM   BNZ1  164   4.941   5.827   1.294
  164DIM   BNZ1  165   1.904   6.856   6.356
  165DIM   BNZ1  166   3.264   3.019   4.561
  166DIM   BNZ1  167   5.350   4.819   2.687
  167DIM   BNZ1  168   5.190   1.385   1.426
  168DIM   BNZ1  169   4.585   1.654   1.981
  169DIM   BNZ1  170   3.640   1.565   2.781
  170DIM   BNZ1  171   3.835   2.293   2.476
  171DIM   BNZ1  172   5.215   1.030   6.347
  172DIM   BNZ1  173   2.938   1.630   1.926
  173DIM   BNZ1  174   1.112   3.694   1.883
  174DIM   BNZ1  175   5.454   3.162   5.851
  175DIM   BNZ1  176   0.063   6.971   3.365
  176DIM   BNZ1  177   2.738   3.915   4.282
  177DIM   BNZ1  178   3.078   1.609   2.290
  178DIM   BNZ1  179   4.723   0.662   6.132
  179DIM   BNZ1  180   2.099   6.905   6.859
  180DIM   BNZ1  181   0.662   3.795   3.379
  181DIM   BNZ1  182   6.235   6.623   5.528
  182DIM   BNZ1  183   0.651   5.246   2.107
  183DIM   BNZ1  184   4.539   1.703   6.489
  184DIM   BNZ1  185   6.802   5.402   5.997
  185DIM   BNZ1  186   5.032   6.776   6.221
  186DIM   BNZ1  187   3.320   5.777   0.674
  187DIM   BNZ1  188   0.025   5.011   1.385
  188DIM   BNZ1  189   3.298   0.752   5.809
  189DIM   BNZ1  190   3.209   6.802   1.480
  190DIM   BNZ1  191   2.201   0.131   1.511
  191DIM   BNZ1  192   6.917   3.894   2.809
  192DIM   BNZ1  193   6.750   4.904   3.932
  193DIM   BNZ1  194   4.735   5.572   4.335
  194DIM   BNZ1  195   6.371   5.264   0.554
  195DIM   BNZ1  196   0.606   1.562   4.256
  196DIM   BNZ1  197   3.095   6.683   1.190
  197DIM   BNZ1  198   6.253   2.651   5.180
  198DIM   BNZ1  199   0.849   2.630   4.216
  199DIM   BNZ1  200   2.108   0.438   3.475
  200DIM   BNZ1  201   1.558   5.933   2.667
  201DIM   BNZ1  202   1.897   2.453   4.552
  202DIM   BNZ1  203   6.089   2.463   2.385
  203DIM   BNZ1  204   4.794   0.968   5.486
  204DIM   BNZ1  205   0.737   5.483   2.247
  205DIM   BNZ1  206   2.223   5.383   1.687
  206DIM   BNZ1  207   4.451   3.726   2.273
  207DIM   BNZ1  208   5.956   6.280   5.781
  208DIM   BNZ1  209   6.095   4.126   6.527
  209DIM   BNZ1  210   2.984   5.212   4.577
  210DIM   BNZ1  211   3.773   0.619   6.787
  211DIM   BNZ1  212   1.841   1.320   0.575
  212DIM   BNZ1  213   4.222   6.395   3.847
  213DIM   BNZ1  214   5.516   0.604   0.543
  214DIM   BNZ1  215   0.928   1.094   0.872
  215DIM   BNZ1  216   2.530   1.411   4.958
  216DIM   BNZ1  217   5.097   5.689   6.691
  217DIM   BNZ1  218   6.089   6.248   2.071
  218DIM   BNZ1  219   4.530   3.173   4.129
  219DIM   BNZ1  220   1.373   6.817   3.868
  220DIM   BNZ1  221   4.688   5.541   3.417
  221DIM   BNZ1  222   1.727   5.161   0.001
  222DIM   BNZ1  223   5.889   4.950   0.312
  223DIM   BNZ1  224   1.518   2.040   1.118
  224DIM   BNZ1  225   0.466   5.495   2.163
  225DIM   BNZ1  226   5.516   0.910   4.034
  226DIM   BNZ1  227   2.968   5.316   1.150
  227DIM   BNZ1  228   2.501   5.784   4.663
  228DIM   BNZ1  229   1.910   6.663   1.023
  229DIM   BNZ1  230   1.980   6.647   2.425
  230DIM   BNZ1  231   3.549   5.065   5.208
  231DIM   BNZ1  232   3.110   4.774   2.771
  232DIM   BNZ1  233   6.872   5.920   4.273
  233DIM   BNZ1  234   4.459   3.189   4.599
  234DIM   BNZ1  235   5.152   2.452   2.262
  235DIM   BNZ1  236   3.017   3.657   1.136
  236DIM   BNZ1  237   1.158   0.614   6.996
  237DIM   BNZ1  238   0.567   0.386   4.505
  238DIM   BNZ1  239   4.131   0.869   2.069
  239DIM   BNZ1  240   2.282   2.412   6.475
  240DIM   BNZ1  241   5.469   5.631   4.602
  241DIM   BNZ1  242   3.509   4.437   4.580
  242DIM   BNZ1  243   5.572   0.988   5.486
  243DIM   BNZ1  244   3.474   5.551   2.601
  244DIM   BNZ1  245   2.684   6.397   1.368
  245DIM   BNZ1  246   0.132   6.464   2.895
  246DIM   BNZ1  247   1.434   0.456   1.201
  247DIM   BNZ1  248   4.186   2.336   4.401
  248DIM   BNZ1  249   3.456   5.444   2.926
  249DIM   BNZ1  250   2.222   1.190   2.067
  250DIM   BNZ1  251   4.210   6.844   1.713
  251DIM   BNZ1  252   6.277   5.751   6.811
  252DIM   BNZ1  253   1.720   0.036   1.267
  253DIM   BNZ1  254   2.347   6.978   6.283
  254DIM   BNZ1  255   4.124   3.153   1.733
  255DIM   BNZ1  256   6.803   6.057   0.970
  256DIM   BNZ1  257   5.142   4.313   0.335
  257DIM   BNZ1  258   6.048   2.920   4.736
  258DIM   BNZ1  259   2.787   6.493   2.861
  259DIM   BNZ1  260   4.220   2.806   6.787
  260DIM   BNZ1  261   4.828   0.030   1.705
  261DIM   BNZ1  262   6.311   4.074   3.642
  262DIM   BNZ1  263   3.636   2.966   4.457
  263DIM   BNZ1  264   4.088   6.676   6.424
  264DIM   BNZ1  265   0.629   5.858   0.342
  265DIM   BNZ1  266   2.208   6.927   1.687
  266DIM   BNZ1  267   2.804   0.106   3.418
  267DIM   BNZ1  268   1.037   0.947   3.192
  268DIM   BNZ1  269   4.737   3.732   2.886
  269DIM   BNZ1  270   1.334   4.345   3.123
  270DIM   BNZ1  271   1.971   5.496   0.472
  271DIM   BNZ1  272   1.354   2.749   1.469
  272DIM   BNZ1  273   4.598   3.327   0.203
  273DIM   BNZ1  274   2.873   6.306   3.336
  274DIM   BNZ1  275   4.512   1.683   2.264
  275DIM   BNZ1  276   6.104   6.785   1.717
  276DIM   BNZ1  277   1.017   4.292   3.403
  277DIM   BNZ1  278   3.225   4.876   0.851
  278DIM   BNZ1  279   2.522   5.206   5.574
  279DIM   BNZ1  280   2.662   4.689   0.159
  280DIM   BNZ1  281   0.644   5.122   5.361
  281DIM   BNZ1  282   5.449   1.844   1.950
  282DIM   BNZ1  283   1.954   1.684   0.976
  283DIM   BNZ1  284   4.991   1.286   4.539
  284DIM   BNZ1  285   5.722   3.165   4.551
  285DIM   BNZ1  286   4.802   3.662   1.158
  286DIM   BNZ1  287   1.185   6.029   1.333
  287DIM   BNZ1  288   2.068   3.075   3.759
  288DIM   BNZ1  289   2.023   4.685   3.053
  289DIM   BNZ1  290   0.743   3.313   6.447
  290DIM   BNZ1  291   3.000   1.676   1.203
  291DIM   BNZ1  292   6.668   2.294   1.379
  292DIM   BNZ1  293   5.918   6.297   0.114
  293DIM   BNZ1  294   1.500   2.534   2.319
  294DIM   BNZ1  295   6.190   6.854   6.290
  295DIM   BNZ1  296   6.452   3.726   6.579
  296DIM   BNZ1  297   0.066   0.202   5.994
  297DIM   BNZ1  298   5.876   3.397   0.001
  298DIM   BNZ1  299   4.621   4.751   5.616
  299DIM   BNZ1  300   0.484   6.157   6.045
  300DIM   BNZ1  301   2.800   6.725   1.230
  301DIM   BNZ1  302   1.726   3.083   3.822
  302DIM   BNZ1  303   4.206   6.576   1.748
  303DIM   BNZ1  304   4.051   5.223   4.672
  304DIM   BNZ1  305   5.712   1.430   1.091
  305DIM   BNZ1  306   3.333   5.419   2.387
  306DIM   BNZ1  307   0.053   3.534   1.018
  307DIM   BNZ1  308   3.329   2.497   3.396
  308DIM   BNZ1  309   5.022   6.282   5.305
  309DIM   BNZ1  310   1.093   1.959   3.701
  310DIM   BNZ1  311   1.823   1.733   3.271
  311DIM   BNZ1  312   2.300   0.014   2.816
  312DIM   BNZ1  313   0.853   3.965   5.441
  313DIM   BNZ1  314   4.094   6.146   0.752
  314DIM   BNZ1  315   5.444   1.733   5.832
  315DIM   BNZ1  316   3.813   5.131   3.263
  316DIM   BNZ1  317   4.762   5.485   0.366
  317DIM   BNZ1  318   5.389   4.954   3.620
  318DIM   BNZ1  319   2.712   5.256   3.491
  319DIM   BNZ1  320   0.847   0.908   3.735
  320DIM   BNZ1  321   3.344   0.067   1.983
  321DIM   BNZ1  322   1.884   3.855   2.122
  322DIM   BNZ1  323   0.189   2.595   2.001
  323DIM   BNZ1  324   5.452   2.583   5.141
  324DIM   BNZ1  325   5.128   0.414   3.429
  325DIM   BNZ1  326   5.139   3.451   1.463
  326DIM   BNZ1  327   3.824   4.726   1.755
  327DIM   BNZ1  328   0.589   6.645   6.541
  328DIM   BNZ1  329   1.516   3.326   5.947
  329DIM   BNZ1  330   1.546   1.003   5.625
  330DIM   BNZ1  331   1.669   2.455   2.110
  331DIM   BNZ1  332   6.789   0.769   3.918
  332DIM   BNZ1  333   0.130   1.541   2.435
  333DIM   BNZ1  334   0.519   0.739   0.358
  334DIM   BNZ1  335   4.832   1.407   6.912
  335DIM   BNZ1  336   6.994   3.255   5.850
  336DIM   BNZ1  337   1.452   1.394   4.414
  337DIM   BNZ1  338   1.884   2.597   4.239
  338DIM   BNZ1  339   0.400   6.610   3.552
  339DIM   BNZ1  340   1.555   3.343   1.400
  340DIM   BNZ1  341   3.487   6.177   6.927
  341DIM   BNZ1  342   1.329   6.176   1.996
  342DIM   BNZ1  343   2.818   2.291   0.864
  343DIM   BNZ1  344   1.584   1.055   4.109
  344DIM   BNZ1  345   3.514   6.667   0.662
  345DIM   BNZ1  346   2.167   6.665   4.898
  346DIM   BNZ1  347   2.011   2.601   2.617
  347DIM   BNZ1  348   1.401   6.059   5.198
  348DIM   BNZ1  349   6.737   3.947   1.727
  349DIM   BNZ1  350   6.551   3.756   1.853
  350DIM   BNZ1  351   0.138   5.944   1.314
  351DIM   BNZ1  352   6.996   4.239   3.429
  352DIM   BNZ1  353   6.175   1.574   3.024
  353DIM   BNZ1  354   5.667   2.936   3.749
  354DIM   BNZ1  355   6.844   0.487   4.861
  355DIM   BNZ1  356   4.114   4.084   5.145
  356DIM   BNZ1  357   5.889   2.878   0.766
  357DIM   BNZ1  358   1.856   2.420   3.430
  358DIM   BNZ1  359   6.381   4.696   1.623
  359DIM   BNZ1  360   5.693   1.778   6.980
  360DIM   BNZ1  361   6.531   3.698   1.263
  361DIM   BNZ1  362   2.951   3.434   6.207
  362DIM   BNZ1  363   3.489   6.165   5.108
  363DIM   BNZ1  364   2.167   2.093   0.665
  364DIM   BNZ1  365   6.530   5.961   5.765
  365DIM   BNZ1  366   2.402   5.200   1.680
  366DIM   BNZ1  367   1.940   1.685   6.675
  367DIM   BNZ1  368   5.887   4.969   3.960
  368DIM   BNZ1  369   3.889   1.894   1.281
  369DIM   BNZ1  370   2.857   5.565   3.949
  370DIM   BNZ1  371   1.360   1.822   0.142
  371DIM   BNZ1  372   0.481   6.779   1.709
  372DIM   BNZ1  373   0.870   0.573   0.417
  373DIM   BNZ1  374   0.492   4.092   3.311
  374DIM   BNZ1  375   4.500   0.116   5.347
  375DIM   BNZ1  376   3.417   0.336   1.675
  376DIM   BNZ1  377   1.482   5.219   5.030
  377DIM   BNZ1  378   2.628   2.231   2.600
  378DIM   BNZ1  379   6.857   3.205   4.988
  379DIM   BNZ1  380   4.888   4.959   6.540
  380DIM   BNZ1  381   1.232   6.879   0.049
  381DIM   BNZ1  382   3.286   5.447   2.127
  382DIM   BNZ1  383   0.509   5.823   1.699
  383DIM   BNZ1  384   6.539   0.713   5.236
  384DIM   BNZ1  385   5.164   2.048   4.016
  385DIM   BNZ1  386   1.141   4.112   1.127
  386DIM   BNZ1  387   2.767   5.417   1.623
  387DIM   BNZ1  388   5.928   3.437   5.154
  388DIM   BNZ1  389   3.106   4.033   6.646
  389DIM   BNZ1  390   2.148   4.613   3.489
  390DIM   BNZ1  391   3.635   6.958   1.750
  391DIM   BNZ1  392   3.020   3.095   5.941
  392DIM   BNZ1  393   1.576   5.061   3.929
  393DIM   BNZ1  394   0.747   3.431   4.161
  394DIM   BNZ1  395   0.867   6.115   4.478
  395DIM   BNZ1  396   6.842   4.692   6.202
  396DIM   BNZ1  397   4.040   0.653   6.072
  397DIM   BNZ1  398   4.829   5.867   3.204
  398DIM   BNZ1  399   0.130   1.701   5.392
  399DIM   BNZ1  400   5.048   4.337   2.477
  400W        W  401   0.084   3.595   3.359
  401W        W  402   0.460   2.488   2.882
  402W        W  403   3.165   2.218   0.652
  403W        W  404   3.295   3.303   2.679
  404W        W  405   1.213   3.294   0.205
  405W        W  406   1.296   1.446   1.188
  406W        W  407   0.811   1.294   1.352
  407W        W  408   1.802   2.109   0.786
  408W        W  409   1.477   3.201   3.141
  409W        W  410   0.126   0.762   3.104
  410W        W  411   0.888   0.042   2.906
  411W        W  412   2.582   0.430   1.793
  412W        W  413   2.231   1.301   0.363
  413W        W  414   2.801   0.735   3.454
  414W        W  415   0.167   0.527   2.579
  415W        W  416   0.266   3.146   3.600
  416W        W  417   1.788   2.536   0.332
  417W        W  418   0.220   1.319   2.025
  418W        W  419   1.113   1.210   3.262
  419W        W  420   3.572   1.069   1.761
  420W        W  421   3.336   2.112   2.620
  421W        W  422   1.644   1.445   1.647
  422W        W  423   2.190   2.784   2.016
  423W        W  424   0.690   2.218   2.248
  424W        W  425   0.049   1.746   1.819
  425W        W  426   1.085   1.718   3.011
  426W        W  427   3.356   1.501   3.265
  427W        W  428   0.972   2.945   1.710
  428W        W  429   2.093   2.634   2.844
  429W        W  430   1.313   1.274   2.069
  430W        W  431   1.605   2.058   1.712
  431W        W  432   2.602   2.831   3.560
  432W        W  433   1.681   2.151   3.570
  433W        W  434   1.662   1.867   3.048
  434W        W  435   0.071   1.258   3.570
  435W        W  436   2.903   2.793   3.169
  436W        W  437   0.484   0.375   1.167
  437W        W  438   1.011   2.633   2.166
  438W        W  439   3.474   2.416   1.456
  439W        W  440   2.887   0.816   2.023
  440W        W  441   3.172   0.769   0.118
  441W        W  442   3.637   1.570   2.424
  442W        W  443   1.604   3.277   2.177
  443W        W  444   3.378   2.743   0.615
  444W        W  445   0.507   3.529   0.369
  445W        W  446   0.900   3.575   1.045
  446W        W  447   0.697   0.329   2.471
  447W        W  448   3.320   1.347   2.746
  448W        W  449   2.725   1.769   1.205
  449W        W  450   2.691   1.457   0.232
  450W        W  451   1.899   2.601   2.372
  451W        W  452   1.705   0.931   1.571
  452W        W  453   2.305   3.018   2.565
  453W        W  454   3.176   1.809   0.987
  454W        W  455   2.078   0.467   1.003
  455W        W  456   0.735   3.161   0.686
  456W        W  457   0.106   0.660   1.285
  457W        W  458   2.892   1.267   1.759
  458W        W  459   0.350   2.884   1.674
  459W        W  460   1.691   3.234   0.544
  460W        W  461   3.083   1.260   0.008
  461W        W  462   0.106   3.018   2.172
  462W        W  463   0.897   2.590   2.652
  463W        W  464   1.270   1.950   1.271
  464W        W  465   1.292   0.355   2.364
  465W        W  466   3.521   0.117   1.661
  466W        W  467   0.740   1.989   0.129
  467W        W  468   0.395   1.022   0.308
  468W        W  469   0.457   2.978   1.102
  469W        W  470   1.588   2.461   1.350
  470W        W  471   2.920   3.320   3.064
  471W        W  472   1.846   0.962   0.748
  472W        W  473   3.229   3.360   1.520
  473W        W  474   2.906   1.213   3.118
  474W        W  475   3.619   2.869   1.252
  475W        W  476   2.246   2.161   2.736
  476W        W  477   0.012   1.712   0.942
  477W        W  478   1.123   2.127   2.515
  478W        W  479   2.327   1.391   0.893
  479W        W  480   2.204   1.881   0.997
  480W        W  481   0.547   1.301   2.471
  481W        W  482   0.532   1.177   3.393
  482W        W  483   0.422   0.094   1.552
  483W        W  484   2.190   0.441   2.113
  484W        W  485   1.838   0.626   3.276
  485W        W  486   2.193   0.775   0.454
  486W        W  487   3.376   3.168   3.208
  487W        W  488   2.343   0.249   3.247
  488W        W  489   2.792   0.717   2.965
  489W        W  490   2.592   0.655   1.235
  490W        W  491   2.985   1.789   3.639
  491W        W  492   0.725   3.365   1.625
  492W        W  493   1.383   1.082   0.611
  493W        W  494   0.952   0.366   3.275
  494W        W  495   3.004   0.850   0.956
  495W        W  496   3.371   1.332   0.901
  496W        W  497   1.114   3.549   3.372
  497W        W  498   1.040   0.085   0.607
  498W        W  499   3.361   0.619   1.642
  499W        W  500   3.511   2.868   0.087
  500W        W  501   0.418   2.071   1.789
  501W        W  502   2.335   0.658   0.019
  502W        W  503   3.469   2.990   1.739
  503W        W  504   3.508   0.184   2.489
  504W        W  505   1.953   1.396   3.043
  505W        W  506   2.446   2.029   3.486
  506W        W  507   0.732   0.909   1.858
  507W        W  508   0.286   2.109   2.632
  508W        W  509   2.145   3.302   1.338
  509W        W  510   3.339   0.899   2.210
  510W        W  511   1.976   3.246   2.977
  511W        W  512   3.319   2.305   0.182
  512W        W  513   1.754   1.788   1.243
  513W        W  514   3.606   0.299   2.984
  514W        W  515   1.755   2.134   2.578
  515W        W  516   1.972   1.020   2.023
  516W        W  517   2.824   1.318   0.861
  517W        W  518   3.111   1.051   0.503
  518W        W  519   2.920   3.091   0.892
  519W        W  520   2.650   1.773   0.666
  520W        W  521   2.083   1.983   1.652
  521W        W  522   2.964   1.771   1.719
  522W        W  523   0.339   0.786   2.143
  523W        W  524   3.117   1.838   2.970
  524W        W  525   3.468   3.456   2.116
  525W        W  526   2.405   3.433   2.842
  526W        W  527   2.399   0.763   2.606
  527W        W  528   1.606   3.471   2.667
  528W        W  529   3.303   0.425   1.133
  529W        W  530   0.077   1.065   2.472
  530W        W  531   3.348   1.011   3.267
  531W        W  532   2.233   2.710   1.485
  532W        W  533   1.489   3.301   1.098
  533W        W  534   0.604   0.481   0.356
  534W        W  535   1.708   0.135   2.166
  535W        W  536   0.736   3.255   0.014
  536W        W  537   1.110   1.721   0.765
  537W        W  538   1.764   2.350   3.078
  538W        W  539   1.594   0.708   1.068
  539W        W  540   2.950   0.305   1.496
  540W        W  541   2.670   3.587   1.824
  541W        W  542   2.082   3.235   2.164
  542W        W  543   1.478   2.272   2.125
  543W        W  544   0.942   0.498   1.020
  544W        W  545   1.464   2.795   1.980
  545W        W  546   0.947   0.726   0.045
  546W        W  547   1.748   1.335   2.439
  547W        W  548   2.596   0.201   2.309
  548W        W  549   0.016   2.044   2.194
  549W        W  550   1.720   1.862   0.352
  550W        W  551   0.988   0.177   0.122
  551W        W  552   1.726   1.258   1.173
  552W        W  553   2.696   0.234   2.872
  553W        W  554   1.284   2.246   2.981
  554W        W  555   2.088   2.028   3.198
  555W        W  556   2.705   2.058   3.091
  556W        W  557   1.989   0.198   3.596
  557W        W  558   1.211   0.814   1.989
  558W        W  559   0.637   0.770   1.387
  559W        W  560   0.423   3.482   1.063
  560W        W  561   1.755   2.812   3.188
  561W        W  562   0.790   2.297   0.547
  562W        W  563   2.470   1.682   1.768
  563W        W  564   2.750   1.481   2.167
  564W        W  565   1.955   2.155   2.101
  565W        W  566   2.425   2.529   0.233
  566W        W  567   2.097   0.550   1.561
  567W        W  568   3.576   0.828   0.829
  568W        W  569   0.070   3.417   2.860
  569W        W  570   0.487   2.643   2.392
  570W        W  571   0.054   3.489   0.624
  571W        W  572   1.953   0.759   2.430
  572W        W  573   1.316   2.782   0.279
  573W        W  574   3.221   3.164   0.465
  574W        W  575   2.196   1.817   0.479
  575W        W  576   1.871   0.918   0.048
  576W        W  577   2.455   2.483   3.226
  577W        W  578   2.808   0.389   0.843
  578W        W  579   0.138   0.237   0.291
  579W        W  580   1.424   2.556   2.581
  580W        W  581   1.223   2.472   1.673
  581W        W  582   0.965   2.424   0.071
  582W        W  583   0.206   2.665   0.839
  583W        W  584   0.710   1.735   3.281
  584W        W  585   1.414   0.295   3.467
  585W        W  586   2.123   0.437   2.823
  586W        W  587   1.318   0.205   1.104
  587W        W  588   2.377   0.282   0.609
  588W        W  589   0.322   0.214   2.186
  589W        W  590   3.059   0.285   1.962
  590W        W  591   0.481   0.783   0.776
  591W        W  592   3.052   0.471   2.392
  592W        W  593   3.448   1.674   0.077
  593W        W  594   0.740   0.432   1.896
  594W        W  595   1.854   1.004   2.836
  595W        W  596   0.002   0.694   0.314
  596W        W  597   0.788   2.083   2.875
  597W        W  598   2.146   1.481   2.054
  598W        W  599   2.013   3.560   0.350
  599W        W  600   0.159   2.067   0.047
  600W        W  601   0.894   2.478   3.173
  601W        W  602   0.415   1.645   2.804
  602W        W  603   1.406   1.750   2.598
  603W        W  604   3.174   0.109   2.860
  604W        W  605   3.560   1.919   0.537
  605W        W  606   2.423   2.251   0.636
  606W        W  607   2.897   3.551   0.331
  607W        W  608   2.074   1.541   3.473
  608W        W  609   0.404   2.508   3.513
  609W        W  610   3.610   0.430   3.465
  610W        W  611   1.636   3.488   3.563
  611W        W  612   1.491   0.117   0.290
  612W        W  613   3.030   2.716   0.233
  613W        W  614   0.799   0.809   3.119
  614W        W  615   1.233   2.803   2.981
  615W        W  616   3.359   0.794   2.779
  616W        W  617   2.570   3.453   0.747
  617W        W  618   2.809   2.072   2.114
  618W        W  619   1.059   0.488   2.781
  619W        W  620   1.528   1.557   3.538
  620W        W  621   1.031   2.736   0.732
  621W        W  622   0.554   0.860   2.720
  622W        W  623   1.883   2.922   1.184
  623W        W  624   3.633   1.482   1.365
  624W        W  625   1.855   0.115   3.084
  625W        W  626   2.635   2.820   2.163
  626W        W  627   2.938   3.164   1.871
  627W        W  628   2.157   2.966   0.299
  628W        W  629   0.167   2.858   3.141
  629W        W  630   0.910   0.850   2.379
  630W        W  631   0.880   0.198   1.489
  631W        W  632   2.501   1.040   2.181
  632W        W  633   1.299   2.211   0.381
  633W        W  634   3.297   2.153   1.880
  634W        W  635   0.624   2.911   3.303
  635W        W  636   1.110   0.613   1.545
  636W        W  637   0.879   2.106   1.635
  637W        W  638   1.192   3.517   2.385
  638W        W  639   3.259   3.613   3.417
  639W        W  640   2.418   1.801   2.350
  640W        W  641   0.267   1.599   0.265
  641W        W  642   3.401   3.257   0.962
  642W        W  643   3.238   0.581   0.581
  643W        W  644   1.377   0.100   2.984
  644W        W  645   3.083   2.902   1.442
  645W        W  646   3.112   1.458   1.347
  646W        W  647   1.229   1.131   1.563
  647W        W  648   1.474   1.393   2.887
  648W        W  649   2.585   2.546   2.750
  649W        W  650   1.235   1.000   2.862
  650W        W  651   1.214   3.466   1.478
  651W        W  652   0.531   3.425   3.112
  652W        W  653   0.643   2.786   0.242
  653W        W  654   3.160   2.544   1.052
  654W        W  655   0.764   1.336   2.938
  655W        W  656   3.537   1.266   0.419
  656W        W  657   1.282   2.323   0.890
  657W        W  658   2.381   1.705   2.971
  658W        W  659   2.272   1.333   2.515
  659W        W  660   0.832   1.705   2.544
  660W        W  661   3.042   3.593   2.373
  661W        W  662   0.836   1.400   2.007
  662W        W  663   1.205   1.214   0.129
  663W        W  664   1.593   1.682   2.117
  664W        W  665   1.416   0.707   0.222
  665W        W  666   0.551   1.523   1.003
  666W        W  667   0.322   3.375   2.440
  667W        W  668   3.117   1.601   0.548
  668W        W  669   3.212   0.517   3.234
  669W        W  670   2.648   2.726   1.197
  670W        W  671   0.246   1.650   3.374
  671W        W  672   3.212   0.114   0.670
  672W        W  673   2.732   2.589   0.681
  673W        W  674   1.634   1.647   0.766
  674W        W  675   2.821   0.451   0.289
  675W        W  676   2.886   1.058   2.475
  676W        W  677   0.595   1.651   1.682
  677W        W  678   0.889   2.590   1.331
  678W        W  679   2.652   1.210   1.296
  679W        W  680   1.675   0.589   1.992
  680W        W  681   3.637   2.500   2.503
  681W        W  682   3.555   0.487   2.064
  682W        W  683   0.094   3.317   1.440
  683W        W  684   0.603   2.504   0.976
  684W        W  685   0.518   0.121   3.529
  685W        W  686   1.637   2.974   3.631
  686W        W  687   3.392   1.942   1.421
  687W        W  688   2.746   2.119   0.301
  688W        W  689   2.041   3.640   2.513
  689W        W  690   2.898   2.362   3.550
  690W        W  691   1.713   0.072   0.830
  691W        W  692   2.426   0.941   1.689
  692W        W  693   1.365   0.490   0.662
  693W        W  694   2.163   0.955   1.225
  694W        W  695   2.368   2.365   2.347
  695W        W  696   0.522   2.970   2.782
  696W        W  697   1.113   2.953   3.505
  697W        W  698   0.964   0.750   0.519
  698W        W  699   2.481   0.892   0.844
  699W        W  700   2.439   3.000   3.081
  700W        W  701   1.124   1.592   1.680
  701W        W  702   0.779   3.290   2.545
  702W        W  703   3.524   3.407   0.146
  703W        W  704   0.387   2.079   3.142
  704W        W  705   2.382   2.341   1.830
  705W        W  706   0.818   1.990   1.072
  706W        W  707   1.189   2.997   2.467
  707W        W  708   1.567   0.416   1.508
  708W        W  709   0.178   2.400   0.438
  709W        W  710   1.697   1.351   0.308
  710W        W  711   0.343   1.900   1.327
  711W        W  712   1.633   0.542   2.791
  712W        W  713   3.305   0.251   0.218
  713W        W  714   3.398   1.997   3.317
  714W        W  715   2.052   3.254   3.469
  715W        W  716   3.610   2.348   2.991
  716W        W  717   3.018   3.146   3.602
  717W        W  718   0.757   3.602   2.080
  718W        W  719   3.616   2.224   0.954
  719W        W  720   2.146   1.491   1.467
  720W        W  721   1.913   0.103   1.357
  721W        W  722   0.972   3.087   1.194
  722W        W  723   1.471   0.828   2.419
  723W        W  724   1.171   0.197   1.888
  724W        W  725   0.234   3.019   0.436
  725W        W  726   2.050   2.383   1.154
  726W        W  727   0.925   3.178   3.033
  727W        W  728   0.402   2.001   0.729
  728W        W  729   0.287   0.544   1.728
  729W        W  730   1.835   2.509   1.785
  730W        W  731   0.087   0.363   0.805
  731W        W  732   2.751   1.569   2.732
  732W        W  733   2.628   0.955   0.304
  733W        W  734   3.145   2.627   1.952
  734W        W  735   1.806   3.111   1.783
  735W        W  736   1.218   3.215   0.694
  736W        W  737   2.500   0.118   0.124
  737W        W  738   0.300   3.378   1.865
  738W        W  739   2.497   1.136   3.500
  739W        W  740   0.480   0.666   3.499
  740W        W  741   0.211   1.266   0.832
  741W        W  742   0.902   1.255   0.557
  742W        W  743   2.665   1.582   3.374
  743W        W  744   1.008   1.863   2.083
  744W        W  745   2.482   0.149   1.203
  745W        W  746   1.613   3.580   1.706
  746W        W  747   2.827   3.042   2.643
  747W        W  748   2.411   3.191   1.754
  748W        W  749   2.430   2.171   1.348
  749W        W  750   1.892   0.396   0.419
  750W        W  751   3.573   0.024   1.141
  751W        W  752   1.261   1.659   0.304
  752W        W  753   3.427   0.996   1.294
  753W        W  754   2.119   2.166   0.171
  754W        W  755   3.055   2.366   2.919
  755W        W  756   2.709   3.067   0.386
  756W        W  757   1.324   0.742   3.292
  757W        W  758   1.144   1.326   2.533
  758W        W  759   3.236   2.821   2.810
  759W        W  760   2.336   0.771   3.187
  760W        W  761   0.180   1.242   2.964
  761W        W  762   1.940   1.719   2.690
  762W        W  763   0.297   2.477   1.347
  763W        W  764   0.444   1.774   2.237
  764W        W  765   2.761   2.060   2.587
  765W        W  766   2.533   3.440   3.398
  766W        W  767   2.429   1.179   2.951
  767W        W  768   2.706   3.233   1.356
  768W        W  769   1.708   2.953   2.679
  769W        W  770   1.193   3.308   1.948
  770W        W  771   2.998   2.479   2.367
  771W        W  772   2.048   2.551   3.504
  772W        W  773   0.653   2.504   1.843
  773W        W  774   2.999   2.263   1.488
  774W        W  775   2.640   3.329   2.239
  775W        W  776   0.618   3.058   2.109
  776W        W  777   1.639   1.110   3.319
  777W        W  778   2.090   3.276   0.830
  778W        W  779   1.398   2.531   3.468
  779W        W  780   1.524   2.769   0.845
  780W        W  781   0.745   1.509   0.104
  781W        W  782   0.084   3.595   7.003
  782W        W  783   0.460   2.488   6.526
  783W        W  784   3.165   2.218   4.296
  784W        W  785   3.295   3.303   6.323
  785W        W  786   1.213   3.294   3.849
  786W        W  787   1.296   1.446   4.832
  787W        W  788   0.811   1.294   4.996
  788W        W  789   1.802   2.109   4.430
  789W        W  790   1.477   3.201   6.785
  790W        W  791   0.126   0.762   6.748
  791W        W  792   0.888   0.042   6.550
  792W        W  793   2.582   0.430   5.437
  793W        W  794   2.231   1.301   4.007
  794W        W  795   2.801   0.735   7.098
  795W        W  796   0.167   0.527   6.223
  796W        W  797   0.266   3.146   7.244
  797W        W  798   1.788   2.536   3.976
  798W        W  799   0.220   1.319   5.669
  799W        W  800   1.113   1.210   6.906
  800W        W  801   3.572   1.069   5.405
  801W        W  802   3.336   2.112   6.264
  802W        W  803   1.644   1.445   5.291
  803W        W  804   2.190   2.784   5.660
  804W        W  805   0.690   2.218   5.892
  805W        W  806   1.085   1.718   6.655
  806W        W  807   3.356   1.501   6.909
  807W        W  808   0.972   2.945   5.354
  808W        W  809   2.093   2.634   6.488
  809W        W  810   1.313   1.274   5.713
  810W        W  811   1.605   2.058   5.356
  811W        W  812   2.602   2.831   7.204
  812W        W  813   1.681   2.151   7.214
  813W        W  814   1.662   1.867   6.692
  814W        W  815   0.071   1.258   7.214
  815W        W  816   2.903   2.793   6.813
  816W        W  817   0.484   0.375   4.811
  817W        W  818   1.011   2.633   5.810
  818W        W  819   3.474   2.416   5.100
  819W        W  820   2.887   0.816   5.667
  820W        W  821   3.172   0.769   3.762
  821W        W  822   3.378   2.743   4.259
  822W        W  823   0.507   3.529   4.013
  823W        W  824   0.900   3.575   4.689
  824W        W  825   0.697   0.329   6.115
  825W        W  826   3.320   1.347   6.390
  826W        W  827   2.725   1.769   4.849
  827W        W  828   2.691   1.457   3.876
  828W        W  829   1.899   2.601   6.016
  829W        W  830   1.705   0.931   5.215
  830W        W  831   2.305   3.018   6.209
  831W        W  832   3.176   1.809   4.631
  832W        W  833   2.078   0.467   4.647
  833W        W  834   0.735   3.161   4.330
  834W        W  835   0.106   0.660   4.929
  835W        W  836   2.892   1.267   5.403
  836W        W  837   0.350   2.884   5.318
  837W        W  838   1.691   3.234   4.188
  838W        W  839   3.083   1.260   3.652
  839W        W  840   0.106   3.018   5.816
  840W        W  841   0.897   2.590   6.296
  841W        W  842   1.270   1.950   4.915
  842W        W  843   1.292   0.355   6.008
  843W        W  844   3.521   0.117   5.305
  844W        W  845   0.740   1.989   3.773
  845W        W  846   0.395   1.022   3.952
  846W        W  847   0.457   2.978   4.746
  847W        W  848   1.588   2.461   4.994
  848W        W  849   2.920   3.320   6.708
  849W        W  850   1.846   0.962   4.392
  850W        W  851   3.229   3.360   5.164
  851W        W  852   2.906   1.213   6.762
  852W        W  853   3.619   2.869   4.896
  853W        W  854   2.246   2.161   6.380
  854W        W  855   0.012   1.712   4.586
  855W        W  856   1.123   2.127   6.159
  856W        W  857   2.327   1.391   4.537
  857W        W  858   2.204   1.881   4.641
  858W        W  859   0.547   1.301   6.115
  859W        W  860   0.532   1.177   7.037
  860W        W  861   0.422   0.094   5.196
  861W        W  862   2.190   0.441   5.757
  862W        W  863   1.838   0.626   6.920
  863W        W  864   2.193   0.775   4.098
  864W        W  865   3.376   3.168   6.852
  865W        W  866   2.343   0.249   6.891
  866W        W  867   3.362   2.550   7.013
  867W        W  868   2.792   0.717   6.609
  868W        W  869   2.592   0.655   4.879
  869W        W  870   2.985   1.789   7.283
  870W        W  871   0.725   3.365   5.269
  871W        W  872   1.383   1.082   4.255
  872W        W  873   0.952   0.366   6.919
  873W        W  874   3.004   0.850   4.600
  874W        W  875   3.371   1.332   4.545
  875W        W  876   1.114   3.549   7.016
  876W        W  877   1.040   0.085   4.251
  877W        W  878   3.361   0.619   5.286
  878W        W  879   3.511   2.868   3.731
  879W        W  880   0.418   2.071   5.433
  880W        W  881   2.335   0.658   3.663
  881W        W  882   3.469   2.990   5.383
  882W        W  883   3.508   0.184   6.133
  883W        W  884   1.953   1.396   6.687
  884W        W  885   2.046   2.735   4.390
  885W        W  886   2.446   2.029   7.130
  886W        W  887   2.120   0.006   5.439
  887W        W  888   0.732   0.909   5.502
  888W        W  889   0.286   2.109   6.276
  889W        W  890   2.145   3.302   4.982
  890W        W  891   1.976   3.246   6.621
  891W        W  892   3.319   2.305   3.826
  892W        W  893   1.754   1.788   4.887
  893W        W  894   3.606   0.299   6.628
  894W        W  895   1.755   2.134   6.222
  895W        W  896   1.972   1.020   5.667
  896W        W  897   2.824   1.318   4.505
  897W        W  898   3.111   1.051   4.147
  898W        W  899   2.920   3.091   4.536
  899W        W  900   2.754   2.694   5.332
  900W        W  901   2.650   1.773   4.310
  901W        W  902   2.083   1.983   5.296
  902W        W  903   2.964   1.771   5.363
  903W        W  904   0.339   0.786   5.787
  904W        W  905   3.117   1.838   6.614
  905W        W  906   3.468   3.456   5.760
  906W        W  907   1.398   2.900   5.162
  907W        W  908   2.405   3.433   6.486
  908W        W  909   2.399   0.763   6.250
  909W        W  910   1.606   3.471   6.311
  910W        W  911   3.303   0.425   4.777
  911W        W  912   3.094   1.744   6.078
  912W        W  913   0.077   1.065   6.116
  913W        W  914   2.937   0.860   5.134
  914W        W  915   3.348   1.011   6.911
  915W        W  916   2.233   2.710   5.129
  916W        W  917   1.489   3.301   4.742
  917W        W  918   0.604   0.481   4.000
  918W        W  919   1.708   0.135   5.810
  919W        W  920   0.736   3.255   3.658
  920W        W  921   1.110   1.721   4.409
  921W        W  922   1.764   2.350   6.722
  922W        W  923   1.594   0.708   4.712
  923W        W  924   2.950   0.305   5.140
  924W        W  925   2.670   3.587   5.468
  925W        W  926   2.082   3.235   5.808
  926W        W  927   1.478   2.272   5.769
  927W        W  928   3.248   2.995   5.895
  928W        W  929   0.942   0.498   4.664
  929W        W  930   1.464   2.795   5.624
  930W        W  931   0.947   0.726   3.689
  931W        W  932   1.748   1.335   6.083
  932W        W  933   2.596   0.201   5.953
  933W        W  934   0.016   2.044   5.838
  934W        W  935   1.720   1.862   3.996
  935W        W  936   0.988   0.177   3.766
  936W        W  937   1.726   1.258   4.817
  937W        W  938   2.696   0.234   6.516
  938W        W  939   1.284   2.246   6.625
  939W        W  940   2.088   2.028   6.842
  940W        W  941   2.705   2.058   6.735
  941W        W  942   1.989   0.198   7.240
  942W        W  943   0.637   0.770   5.031
  943W        W  944   0.423   3.482   4.707
  944W        W  945   1.755   2.812   6.832
  945W        W  946   2.470   1.682   5.412
  946W        W  947   2.750   1.481   5.811
  947W        W  948   1.955   2.155   5.745
  948W        W  949   2.425   2.529   3.877
  949W        W  950   2.097   0.550   5.205
  950W        W  951   3.576   0.828   4.473
  951W        W  952   0.070   3.417   6.504
  952W        W  953   0.487   2.643   6.036
  953W        W  954   1.953   0.759   6.074
  954W        W  955   1.316   2.782   3.923
  955W        W  956   3.221   3.164   4.109
  956W        W  957   2.196   1.817   4.123
  957W        W  958   1.039   1.008   4.640
  958W        W  959   1.871   0.918   3.692
  959W        W  960   2.455   2.483   6.870
  960W        W  961   2.808   0.389   4.487
  961W        W  962   0.138   0.237   3.935
  962W        W  963   1.424   2.556   6.225
  963W        W  964   1.223   2.472   5.317
  964W        W  965   0.965   2.424   3.715
  965W        W  966   0.206   2.665   4.483
  966W        W  967   0.710   1.735   6.925
  967W        W  968   1.414   0.295   7.111
  968W        W  969   2.123   0.437   6.467
  969W        W  970   1.318   0.205   4.748
  970W        W  971   2.377   0.282   4.253
  971W        W  972   0.322   0.214   5.830
  972W        W  973   0.370   1.177   5.200
  973W        W  974   3.059   0.285   5.606
  974W        W  975   0.481   0.783   4.420
  975W        W  976   3.052   0.471   6.036
  976W        W  977   3.448   1.674   3.721
  977W        W  978   0.740   0.432   5.540
  978W        W  979   1.854   1.004   6.480
  979W        W  980   0.002   0.694   3.958
  980W        W  981   0.788   2.083   6.519
  981W        W  982   2.146   1.481   5.698
  982W        W  983   2.013   3.560   3.994
  983W        W  984   0.159   2.067   3.691
  984W        W  985   0.894   2.478   6.817
  985W        W  986   0.415   1.645   6.448
  986W        W  987   1.406   1.750   6.242
  987W        W  988   3.174   0.109   6.504
  988W        W  989   3.572   1.719   6.495
  989W        W  990   3.560   1.919   4.181
  990W        W  991   2.423   2.251   4.280
  991W        W  992   2.897   3.551   3.975
  992W        W  993   2.074   1.541   7.117
  993W        W  994   0.404   2.508   7.157
  994W        W  995   3.610   0.430   7.109
  995W        W  996   3.328   1.358   5.730
  996W        W  997   1.636   3.488   7.207
  997W        W  998   1.491   0.117   3.934
  998W        W  999   0.799   0.809   6.763
  999W        W 1000   1.233   2.803   6.625
 1000W        W 1001   3.359   0.794   6.423
 1001W        W 1002   2.570   3.453   4.391
 1002W        W 1003   2.809   2.072   5.758
 1003W        W 1004   1.059   0.488   6.425
 1004W        W 1005   1.528   1.557   7.182
 1005W        W 1006   1.031   2.736   4.376
 1006W        W 1007   2.786   2.234   4.640
 1007W        W 1008   0.554   0.860   6.364
 1008W        W 1009   1.883   2.922   4.828
 1009W        W 1010   3.633   1.482   5.009
 1010W        W 1011   1.855   0.115   6.728
 1011W        W 1012   2.635   2.820   5.807
 1012W        W 1013   2.938   3.164   5.515
 1013W        W 1014   2.157   2.966   3.943
 1014W        W 1015   0.167   2.858   6.785
 1015W        W 1016   0.880   0.198   5.133
 1016W        W 1017   2.501   1.040   5.825
 1017W        W 1018   1.299   2.211   4.025
 1018W        W 1019   3.297   2.153   5.524
 1019W        W 1020   0.624   2.911   6.947
 1020W        W 1021   3.011   3.593   4.744
 1021W        W 1022   1.110   0.613   5.189
 1022W        W 1023   0.879   2.106   5.279
 1023W        W 1024   1.192   3.517   6.029
 1024W        W 1025   3.259   3.613   7.061
 1025W        W 1026   2.418   1.801   5.994
 1026W        W 1027   0.267   1.599   3.909
 1027W        W 1028   3.401   3.257   4.606
 1028W        W 1029   3.238   0.581   4.225
 1029W        W 1030   1.377   0.100   6.628
 1030W        W 1031   3.083   2.902   5.086
 1031W        W 1032   3.112   1.458   4.991
 1032W        W 1033   1.229   1.131   5.207
 1033W        W 1034   1.474   1.393   6.531
 1034W        W 1035   2.585   2.546   6.394
 1035W        W 1036   1.235   1.000   6.506
 1036W        W 1037   1.214   3.466   5.122
 1037W        W 1038   0.531   3.425   6.756
 1038W        W 1039   0.643   2.786   3.886
 1039W        W 1040   3.160   2.544   4.696
 1040W        W 1041   0.764   1.336   6.582
 1041W        W 1042   3.537   1.266   4.063
 1042W        W 1043   1.282   2.323   4.534
 1043W        W 1044   2.381   1.705   6.615
 1044W        W 1045   2.272   1.333   6.159
 1045W        W 1046   0.832   1.705   6.188
 1046W        W 1047   3.042   3.593   6.017
 1047W        W 1048   2.833   0.227   7.011
 1048W        W 1049   0.497   0.377   6.598
 1049W        W 1050   0.836   1.400   5.651
 1050W        W 1051   1.205   1.214   3.773
 1051W        W 1052   0.008   2.973   6.318
 1052W        W 1053   1.593   1.682   5.761
 1053W        W 1054   1.416   0.707   3.866
 1054W        W 1055   0.551   1.523   4.647
 1055W        W 1056   0.322   3.375   6.084
 1056W        W 1057   3.212   0.517   6.878
 1057W        W 1058   2.648   2.726   4.841
 1058W        W 1059   0.246   1.650   7.018
 1059W        W 1060   3.212   0.114   4.314
 1060W        W 1061   2.732   2.589   4.325
 1061W        W 1062   1.634   1.647   4.410
 1062W        W 1063   2.821   0.451   3.933
 1063W        W 1064   2.886   1.058   6.119
 1064W        W 1065   0.595   1.651   5.326
 1065W        W 1066   0.889   2.590   4.975
 1066W        W 1067   2.652   1.210   4.940
 1067W        W 1068   1.675   0.589   5.636
 1068W        W 1069   3.555   0.487   5.708
 1069W        W 1070   0.094   3.317   5.084
 1070W        W 1071   0.603   2.504   4.620
 1071W        W 1072   0.518   0.121   7.173
 1072W        W 1073   1.637   2.974   7.275
 1073W        W 1074   3.392   1.942   5.065
 1074W        W 1075   2.746   2.119   3.945
 1075W        W 1076   2.041   3.640   6.157
 1076W        W 1077   2.898   2.362   7.194
 1077W        W 1078   1.713   0.072   4.474
 1078W        W 1079   2.426   0.941   5.333
 1079W        W 1080   0.112   2.528   5.665
 1080W        W 1081   1.365   0.490   4.306
 1081W        W 1082   1.169   1.974   7.155
 1082W        W 1083   2.163   0.955   4.869
 1083W        W 1084   0.522   2.970   6.426
 1084W        W 1085   1.113   2.953   7.149
 1085W        W 1086   0.964   0.750   4.163
 1086W        W 1087   2.481   0.892   4.488
 1087W        W 1088   2.439   3.000   6.725
 1088W        W 1089   1.124   1.592   5.324
 1089W        W 1090   0.779   3.290   6.189
 1090W        W 1091   3.524   3.407   3.790
 1091W        W 1092   0.387   2.079   6.786
 1092W        W 1093   2.382   2.341   5.474
 1093W        W 1094   0.818   1.990   4.716
 1094W        W 1095   1.189   2.997   6.111
 1095W        W 1096   1.567   0.416   5.152
 1096W        W 1097   0.178   2.400   4.082
 1097W        W 1098   1.697   1.351   3.952
 1098W        W 1099   0.343   1.900   4.971
 1099W        W 1100   1.633   0.542   6.435
 1100W        W 1101   3.305   0.251   3.862
 1101W        W 1102   3.398   1.997   6.961
 1102W        W 1103   2.052   3.254   7.113
 1103W        W 1104   3.610   2.348   6.635
 1104W        W 1105   3.018   3.146   7.246
 1105W        W 1106   0.757   3.602   5.724
 1106W        W 1107   3.616   2.224   4.598
 1107W        W 1108   2.146   1.491   5.111
 1108W        W 1109   1.913   0.103   5.001
 1109W        W 1110   0.972   3.087   4.838
 1110W        W 1111   1.471   0.828   6.063
 1111W        W 1112   1.171   0.197   5.532
 1112W        W 1113   2.050   2.383   4.798
 1113W        W 1114   0.925   3.178   6.677
 1114W        W 1115   0.402   2.001   4.373
 1115W        W 1116   0.287   0.544   5.372
 1116W        W 1117   1.835   2.509   5.429
 1117W        W 1118   0.087   0.363   4.449
 1118W        W 1119   2.751   1.569   6.376
 1119W        W 1120   2.628   0.955   3.948
 1120W        W 1121   3.145   2.627   5.596
 1121W        W 1122   1.806   3.111   5.427
 1122W        W 1123   1.218   3.215   4.338
 1123W        W 1124   2.500   0.118   3.768
 1124W        W 1125   0.300   3.378   5.509
 1125W        W 1126   2.497   1.136   7.144
 1126W        W 1127   0.480   0.666   7.143
 1127W        W 1128   0.211   1.266   4.476
 1128W        W 1129   0.902   1.255   4.201
 1129W        W 1130   2.665   1.582   7.018
 1130W        W 1131   1.008   1.863   5.727
 1131W        W 1132   2.482   0.149   4.847
 1132W        W 1133   1.613   3.580   5.350
 1133W        W 1134   2.827   3.042   6.287
 1134W        W 1135   2.411   3.191   5.398
 1135W        W 1136   2.430   2.171   4.992
 1136W        W 1137   1.892   0.396   4.063
 1137W        W 1138   3.573   0.024   4.785
 1138W        W 1139   1.261   1.659   3.948
 1139W        W 1140   3.427   0.996   4.938
 1140W        W 1141   2.119   2.166   3.815
 1141W        W 1142   3.055   2.366   6.563
 1142W        W 1143   2.709   3.067   4.030
 1143W        W 1144   1.324   0.742   6.936
 1144W        W 1145   1.144   1.326   6.177
 1145W        W 1146   3.236   2.821   6.454
 1146W        W 1147   2.336   0.771   6.831
 1147W        W 1148   0.180   1.242   6.608
 1148W        W 1149   1.940   1.719   6.334
 1149W        W 1150   0.297   2.477   4.991
 1150W        W 1151   0.444   1.774   5.881
 1151W        W 1152   2.761   2.060   6.231
 1152W        W 1153   2.533   3.440   7.042
 1153W        W 1154   2.429   1.179   6.595
 1154W        W 1155   2.706   3.233   5.000
 1155W        W 1156   1.708   2.953   6.323
 1156W        W 1157   1.193   3.308   5.592
 1157W        W 1158   2.998   2.479   6.011
 1158W        W 1159   2.048   2.551   7.148
 1159W        W 1160   0.653   2.504   5.487
 1160W        W 1161   2.999   2.263   5.132
 1161W        W 1162   2.640   3.329   5.883
 1162W        W 1163   0.618   3.058   5.753
 1163W        W 1164   1.639   1.110   6.963
 1164W        W 1165   2.090   3.276   4.474
 1165W        W 1166   1.398   2.531   7.112
 1166W        W 1167   1.524   2.769   4.489
 1167W        W 1168   0.745   1.509   3.748
 1168W        W 1169   0.084   7.239   3.359
 1169W        W 1170   0.460   6.132   2.882
 1170W        W 1171   3.295   6.947   2.679
 1171W        W 1172   1.296   5.090   1.188
 1172W        W 1173   0.811   4.938   1.352
 1173W        W 1174   1.802   5.753   0.786
 1174W        W 1175   1.477   6.845   3.141
 1175W        W 1176   0.126   4.406   3.104
 1176W        W 1177   0.888   3.686   2.906
 1177W        W 1178   2.582   4.074   1.793
 1178W        W 1179   2.231   4.945   0.363
 1179W        W 1180   2.801   4.379   3.454
 1180W        W 1181   0.167   4.171   2.579
 1181W        W 1182   0.266   6.790   3.600
 1182W        W 1183   1.788   6.180   0.332
 1183W        W 1184   0.220   4.963   2.025
 1184W        W 1185   1.113   4.854   3.262
 1185W        W 1186   3.572   4.713   1.761
 1186W        W 1187   3.336   5.756   2.620
 1187W        W 1188   1.644   5.089   1.647
 1188W        W 1189   2.190   6.428   2.016
 1189W        W 1190   0.690   5.862   2.248
 1190W        W 1191   0.049   5.390   1.819
 1191W        W 1192   1.085   5.362   3.011
 1192W        W 1193   3.356   5.145   3.265
 1193W        W 1194   0.972   6.589   1.710
 1194W        W 1195   2.093   6.278   2.844
 1195W        W 1196   1.313   4.918   2.069
 1196W        W 1197   1.605   5.702   1.712
 1197W        W 1198   2.602   6.475   3.560
 1198W        W 1199   1.681   5.795   3.570
 1199W        W 1200   1.662   5.511   3.048
 1200W        W 1201   0.071   4.902   3.570
 1201W        W 1202   2.903   6.437   3.169
 1202W        W 1203   0.484   4.019   1.167
 1203W        W 1204   1.011   6.277   2.166
 1204W        W 1205   3.474   6.060   1.456
 1205W        W 1206   3.172   4.413   0.118
 1206W        W 1207   3.637   5.214   2.424
 1207W        W 1208   1.604   6.921   2.177
 1208W        W 1209   3.378   6.387   0.615
 1209W        W 1210   0.900   7.219   1.045
 1210W        W 1211   0.697   3.973   2.471
 1211W        W 1212   3.320   4.991   2.746
 1212W        W 1213   2.725   5.413   1.205
 1213W        W 1214   2.691   5.101   0.232
 1214W        W 1215   1.899   6.245   2.372
 1215W        W 1216   1.705   4.575   1.571
 1216W        W 1217   2.305   6.662   2.565
 1217W        W 1218   3.176   5.453   0.987
 1218W        W 1219   2.078   4.111   1.003
 1219W        W 1220   0.735   6.805   0.686
 1220W        W 1221   0.106   4.304   1.285
 1221W        W 1222   2.892   4.911   1.759
 1222W        W 1223   0.350   6.528   1.674
 1223W        W 1224   1.691   6.878   0.544
 1224W        W 1225   3.083   4.904   0.008
 1225W        W 1226   0.897   6.234   2.652
 1226W        W 1227   1.270   5.594   1.271
 1227W        W 1228   1.292   3.999   2.364
 1228W        W 1229   3.521   3.761   1.661
 1229W        W 1230   0.740   5.633   0.129
 1230W        W 1231   0.395   4.666   0.308
 1231W        W 1232   0.457   6.622   1.102
 1232W        W 1233   1.588   6.105   1.350
 1233W        W 1234   2.920   6.964   3.064
 1234W        W 1235   1.846   4.606   0.748
 1235W        W 1236   2.906   4.857   3.118
 1236W        W 1237   3.619   6.513   1.252
 1237W        W 1238   2.246   5.805   2.736
 1238W        W 1239   0.012   5.356   0.942
 1239W        W 1240   1.123   5.771   2.515
 1240W        W 1241   2.327   5.035   0.893
 1241W        W 1242   2.204   5.525   0.997
 1242W        W 1243   0.547   4.945   2.471
 1243W        W 1244   0.532   4.821   3.393
 1244W        W 1245   0.422   3.738   1.552
 1245W        W 1246   2.190   4.085   2.113
 1246W        W 1247   1.838   4.270   3.276
 1247W        W 1248   2.193   4.419   0.454
 1248W        W 1249   3.376   6.812   3.208
 1249W        W 1250   2.343   3.893   3.247
 1250W        W 1251   3.362   6.194   3.369
 1251W        W 1252   2.792   4.361   2.965
 1252W        W 1253   2.592   4.299   1.235
 1253W        W 1254   2.985   5.433   3.639
 1254W        W 1255   0.725   7.009   1.625
 1255W        W 1256   1.383   4.726   0.611
 1256W        W 1257   0.952   4.010   3.275
 1257W        W 1258   3.004   4.494   0.956
 1258W        W 1259   1.114   7.193   3.372
 1259W        W 1260   1.040   3.729   0.607
 1260W        W 1261   3.361   4.263   1.642
 1261W        W 1262   3.511   6.512   0.087
 1262W        W 1263   2.335   4.302   0.019
 1263W        W 1264   3.469   6.634   1.739
 1264W        W 1265   3.508   3.828   2.489
 1265W        W 1266   1.953   5.040   3.043
 1266W        W 1267   2.046   6.379   0.746
 1267W        W 1268   2.446   5.673   3.486
 1268W        W 1269   2.120   3.650   1.795
 1269W        W 1270   0.732   4.553   1.858
 1270W        W 1271   0.286   5.753   2.632
 1271W        W 1272   2.145   6.946   1.338
 1272W        W 1273   3.339   4.543   2.210
 1273W        W 1274   1.976   6.890   2.977
 1274W        W 1275   3.319   5.949   0.182
 1275W        W 1276   1.754   5.432   1.243
 1276W        W 1277   3.606   3.943   2.984
 1277W        W 1278   1.755   5.778   2.578
 1278W        W 1279   1.972   4.664   2.023
 1279W        W 1280   2.824   4.962   0.861
 1280W        W 1281   3.111   4.695   0.503
 1281W        W 1282   2.920   6.735   0.892
 1282W        W 1283   2.754   6.338   1.688
 1283W        W 1284   2.650   5.417   0.666
 1284W        W 1285   2.083   5.627   1.652
 1285W        W 1286   2.964   5.415   1.719
 1286W        W 1287   0.339   4.430   2.143
 1287W        W 1288   3.117   5.482   2.970
 1288W        W 1289   1.398   6.544   1.518
 1289W        W 1290   2.399   4.407   2.606
 1290W        W 1291   1.606   7.115   2.667
 1291W        W 1292   3.303   4.069   1.133
 1292W        W 1293   3.094   5.388   2.434
 1293W        W 1294   0.077   4.709   2.472
 1294W        W 1295   2.937   4.504   1.490
 1295W        W 1296   3.348   4.655   3.267
 1296W        W 1297   2.233   6.354   1.485
 1297W        W 1298   1.489   6.945   1.098
 1298W        W 1299   0.604   4.125   0.356
 1299W        W 1300   0.736   6.899   0.014
 1300W        W 1301   1.110   5.365   0.765
 1301W        W 1302   1.764   5.994   3.078
 1302W        W 1303   1.594   4.352   1.068
 1303W        W 1304   2.950   3.949   1.496
 1304W        W 1305   2.670   7.231   1.824
 1305W        W 1306   2.082   6.879   2.164
 1306W        W 1307   1.478   5.916   2.125
 1307W        W 1308   3.248   6.639   2.251
 1308W        W 1309   0.942   4.142   1.020
 1309W        W 1310   1.464   6.439   1.980
 1310W        W 1311   0.947   4.370   0.045
 1311W        W 1312   1.748   4.979   2.439
 1312W        W 1313   2.596   3.845   2.309
 1313W        W 1314   0.016   5.688   2.194
 1314W        W 1315   1.720   5.506   0.352
 1315W        W 1316   0.988   3.821   0.122
 1316W        W 1317   1.726   4.902   1.173
 1317W        W 1318   2.696   3.878   2.872
 1318W        W 1319   1.284   5.890   2.981
 1319W        W 1320   2.088   5.672   3.198
 1320W        W 1321   2.705   5.702   3.091
 1321W        W 1322   1.989   3.842   3.596
 1322W        W 1323   1.211   4.458   1.989
 1323W        W 1324   0.637   4.414   1.387
 1324W        W 1325   0.423   7.126   1.063
 1325W        W 1326   1.755   6.456   3.188
 1326W        W 1327   0.790   5.941   0.547
 1327W        W 1328   2.750   5.125   2.167
 1328W        W 1329   1.955   5.799   2.101
 1329W        W 1330   2.425   6.173   0.233
 1330W        W 1331   2.097   4.194   1.561
 1331W        W 1332   3.576   4.472   0.829
 1332W        W 1333   0.070   7.061   2.860
 1333W        W 1334   0.487   6.287   2.392
 1334W        W 1335   0.054   7.133   0.624
 1335W        W 1336   1.953   4.403   2.430
 1336W        W 1337   1.316   6.426   0.279
 1337W        W 1338   3.221   6.808   0.465
 1338W        W 1339   2.196   5.461   0.479
 1339W        W 1340   1.039   4.652   0.996
 1340W        W 1341   1.871   4.562   0.048
 1341W        W 1342   2.455   6.127   3.226
 1342W        W 1343   2.808   4.033   0.843
 1343W        W 1344   0.138   3.881   0.291
 1344W        W 1345   1.424   6.200   2.581
 1345W        W 1346   1.223   6.116   1.673
 1346W        W 1347   0.965   6.068   0.071
 1347W        W 1348   0.206   6.309   0.839
 1348W        W 1349   0.710   5.379   3.281
 1349W        W 1350   1.414   3.939   3.467
 1350W        W 1351   2.123   4.081   2.823
 1351W        W 1352   1.318   3.849   1.104
 1352W        W 1353   2.377   3.926   0.609
 1353W        W 1354   0.322   3.858   2.186
 1354W        W 1355   0.370   4.821   1.556
 1355W        W 1356   3.059   3.929   1.962
 1356W        W 1357   0.481   4.427   0.776
 1357W        W 1358   3.052   4.115   2.392
 1358W        W 1359   3.448   5.318   0.077
 1359W        W 1360   0.740   4.076   1.896
 1360W        W 1361   1.854   4.648   2.836
 1361W        W 1362   0.002   4.338   0.314
 1362W        W 1363   0.788   5.727   2.875
 1363W        W 1364   2.146   5.125   2.054
 1364W        W 1365   0.159   5.711   0.047
 1365W        W 1366   0.894   6.122   3.173
 1366W        W 1367   0.415   5.289   2.804
 1367W        W 1368   1.406   5.394   2.598
 1368W        W 1369   3.174   3.753   2.860
 1369W        W 1370   3.560   5.563   0.537
 1370W        W 1371   2.423   5.895   0.636
 1371W        W 1372   2.897   7.195   0.331
 1372W        W 1373   2.074   5.185   3.473
 1373W        W 1374   0.404   6.152   3.513
 1374W        W 1375   3.610   4.074   3.465
 1375W        W 1376   3.328   5.002   2.086
 1376W        W 1377   1.636   7.132   3.563
 1377W        W 1378   1.491   3.761   0.290
 1378W        W 1379   3.030   6.360   0.233
 1379W        W 1380   0.799   4.453   3.119
 1380W        W 1381   1.233   6.447   2.981
 1381W        W 1382   3.359   4.438   2.779
 1382W        W 1383   2.570   7.097   0.747
 1383W        W 1384   2.809   5.716   2.114
 1384W        W 1385   1.059   4.132   2.781
 1385W        W 1386   1.528   5.201   3.538
 1386W        W 1387   1.031   6.380   0.732
 1387W        W 1388   2.786   5.878   0.996
 1388W        W 1389   0.554   4.504   2.720
 1389W        W 1390   3.633   5.126   1.365
 1390W        W 1391   1.855   3.759   3.084
 1391W        W 1392   2.635   6.464   2.163
 1392W        W 1393   2.938   6.808   1.871
 1393W        W 1394   2.157   6.610   0.299
 1394W        W 1395   0.167   6.502   3.141
 1395W        W 1396   0.910   4.494   2.379
 1396W        W 1397   0.880   3.842   1.489
 1397W        W 1398   2.501   4.684   2.181
 1398W        W 1399   1.299   5.855   0.381
 1399W        W 1400   3.297   5.797   1.880
 1400W        W 1401   0.624   6.555   3.303
 1401W        W 1402   3.011   7.237   1.100
 1402W        W 1403   1.110   4.257   1.545
 1403W        W 1404   0.879   5.750   1.635
 1404W        W 1405   1.192   7.161   2.385
 1405W        W 1406   3.259   7.257   3.417
 1406W        W 1407   2.418   5.445   2.350
 1407W        W 1408   0.267   5.243   0.265
 1408W        W 1409   3.401   6.901   0.962
 1409W        W 1410   3.238   4.225   0.581
 1410W        W 1411   1.377   3.744   2.984
 1411W        W 1412   3.083   6.546   1.442
 1412W        W 1413   3.112   5.102   1.347
 1413W        W 1414   1.229   4.775   1.563
 1414W        W 1415   1.474   5.037   2.887
 1415W        W 1416   2.585   6.190   2.750
 1416W        W 1417   1.235   4.644   2.862
 1417W        W 1418   1.214   7.110   1.478
 1418W        W 1419   0.531   7.069   3.112
 1419W        W 1420   0.643   6.430   0.242
 1420W        W 1421   3.160   6.188   1.052
 1421W        W 1422   0.764   4.980   2.938
 1422W        W 1423   3.537   4.910   0.419
 1423W        W 1424   1.282   5.967   0.890
 1424W        W 1425   2.381   5.349   2.971
 1425W        W 1426   2.272   4.977   2.515
 1426W        W 1427   0.832   5.349   2.544
 1427W        W 1428   3.042   7.237   2.373
 1428W        W 1429   2.833   3.871   3.367
 1429W        W 1430   0.497   4.021   2.954
 1430W        W 1431   0.836   5.044   2.007
 1431W        W 1432   1.205   4.858   0.129
 1432W        W 1433   0.008   6.617   2.674
 1433W        W 1434   1.593   5.326   2.117
 1434W        W 1435   1.416   4.351   0.222
 1435W        W 1436   0.551   5.167   1.003
 1436W        W 1437   0.322   7.019   2.440
 1437W        W 1438   3.117   5.245   0.548
 1438W        W 1439   3.212   4.161   3.234
 1439W        W 1440   0.246   5.294   3.374
 1440W        W 1441   3.212   3.758   0.670
 1441W        W 1442   2.732   6.233   0.681
 1442W        W 1443   1.634   5.291   0.766
 1443W        W 1444   2.821   4.095   0.289
 1444W        W 1445   2.886   4.702   2.475
 1445W        W 1446   0.595   5.295   1.682
 1446W        W 1447   0.889   6.234   1.331
 1447W        W 1448   2.652   4.854   1.296
 1448W        W 1449   1.675   4.233   1.992
 1449W        W 1450   3.637   6.144   2.503
 1450W        W 1451   3.555   4.131   2.064
 1451W        W 1452   0.094   6.961   1.440
 1452W        W 1453   0.518   3.765   3.529
 1453W        W 1454   1.637   6.618   3.631
 1454W        W 1455   3.392   5.586   1.421
 1455W        W 1456   2.746   5.763   0.301
 1456W        W 1457   2.041   7.284   2.513
 1457W        W 1458   2.898   6.006   3.550
 1458W        W 1459   1.713   3.716   0.830
 1459W        W 1460   2.426   4.585   1.689
 1460W        W 1461   0.112   6.172   2.021
 1461W        W 1462   1.365   4.134   0.662
 1462W        W 1463   1.169   5.618   3.511
 1463W        W 1464   2.163   4.599   1.225
 1464W        W 1465   2.368   6.009   2.347
 1465W        W 1466   0.522   6.614   2.782
 1466W        W 1467   1.113   6.597   3.505
 1467W        W 1468   0.964   4.394   0.519
 1468W        W 1469   2.481   4.536   0.844
 1469W        W 1470   2.439   6.644   3.081
 1470W        W 1471   1.124   5.236   1.680
 1471W        W 1472   0.779   6.934   2.545
 1472W        W 1473   3.524   7.051   0.146
 1473W        W 1474   0.387   5.723   3.142
 1474W        W 1475   2.382   5.985   1.830
 1475W        W 1476   0.818   5.634   1.072
 1476W        W 1477   1.189   6.641   2.467
 1477W        W 1478   1.567   4.060   1.508
 1478W        W 1479   0.178   6.044   0.438
 1479W        W 1480   1.697   4.995   0.308
 1480W        W 1481   0.343   5.544   1.327
 1481W        W 1482   1.633   4.186   2.791
 1482W        W 1483   3.305   3.895   0.218
 1483W        W 1484   3.398   5.641   3.317
 1484W        W 1485   2.052   6.898   3.469
 1485W        W 1486   3.610   5.992   2.991
 1486W        W 1487   3.018   6.790   3.602
 1487W        W 1488   0.757   7.246   2.080
 1488W        W 1489   3.616   5.868   0.954
 1489W        W 1490   2.146   5.135   1.467
 1490W        W 1491   1.913   3.747   1.357
 1491W        W 1492   0.972   6.731   1.194
 1492W        W 1493   1.471   4.472   2.419
 1493W        W 1494   0.234   6.663   0.436
 1494W        W 1495   2.050   6.027   1.154
 1495W        W 1496   0.925   6.822   3.033
 1496W        W 1497   0.287   4.188   1.728
 1497W        W 1498   1.835   6.153   1.785
 1498W        W 1499   0.087   4.007   0.805
 1499W        W 1500   2.751   5.213   2.732
 1500W        W 1501   3.145   6.271   1.952
 1501W        W 1502   1.806   6.755   1.783
 1502W        W 1503   1.218   6.859   0.694
 1503W        W 1504   2.500   3.762   0.124
 1504W        W 1505   0.300   7.022   1.865
 1505W        W 1506   2.497   4.780   3.500
 1506W        W 1507   0.480   4.310   3.499
 1507W        W 1508   0.211   4.910   0.832
 1508W        W 1509   0.902   4.899   0.557
 1509W        W 1510   1.008   5.507   2.083
 1510W        W 1511   2.482   3.793   1.203
 1511W        W 1512   1.613   7.224   1.706
 1512W        W 1513   2.827   6.686   2.643
 1513W        W 1514   2.411   6.835   1.754
 1514W        W 1515   2.430   5.815   1.348
 1515W        W 1516   1.892   4.040   0.419
 1516W        W 1517   3.573   3.668   1.141
 1517W        W 1518   1.261   5.303   0.304
 1518W        W 1519   3.427   4.640   1.294
 1519W        W 1520   2.119   5.810   0.171
 1520W        W 1521   3.055   6.010   2.919
 1521W        W 1522   2.709   6.711   0.386
 1522W        W 1523   1.144   4.970   2.533
 1523W        W 1524   3.236   6.465   2.810
 1524W        W 1525   2.336   4.415   3.187
 1525W        W 1526   0.180   4.886   2.964
 1526W        W 1527   1.940   5.363   2.690
 1527W        W 1528   0.297   6.121   1.347
 1528W        W 1529   2.761   5.704   2.587
 1529W        W 1530   2.533   7.084   3.398
 1530W        W 1531   2.429   4.823   2.951
 1531W        W 1532   2.706   6.877   1.356
 1532W        W 1533   1.708   6.597   2.679
 1533W        W 1534   1.193   6.952   1.948
 1534W        W 1535   2.998   6.123   2.367
 1535W        W 1536   2.048   6.195   3.504
 1536W        W 1537   0.653   6.148   1.843
 1537W        W 1538   2.999   5.907   1.488
 1538W        W 1539   2.640   6.973   2.239
 1539W        W 1540   0.618   6.702   2.109
 1540W        W 1541   1.639   4.754   3.319
 1541W        W 1542   2.090   6.920   0.830
 1542W        W 1543   1.398   6.175   3.468
 1543W        W 1544   1.524   6.413   0.845
 1544W        W 1545   0.745   5.153   0.104
 1545W        W 1546   0.084   7.239   7.003
 1546W        W 1547   0.460   6.132   6.526
 1547W        W 1548   3.165   5.862   4.296
 1548W        W 1549   3.295   6.947   6.323
 1549W        W 1550   1.296   5.090   4.832
 1550W        W 1551   0.811   4.938   4.996
 1551W        W 1552   1.802   5.753   4.430
 1552W        W 1553   1.477   6.845   6.785
 1553W        W 1554   0.126   4.406   6.748
 1554W        W 1555   0.888   3.686   6.550
 1555W        W 1556   2.582   4.074   5.437
 1556W        W 1557   2.231   4.945   4.007
 1557W        W 1558   2.801   4.379   7.098
 1558W        W 1559   0.167   4.171   6.223
 1559W        W 1560   0.266   6.790   7.244
 1560W        W 1561   1.788   6.180   3.976
 1561W        W 1562   0.220   4.963   5.669
 1562W        W 1563   1.113   4.854   6.906
 1563W        W 1564   3.572   4.713   5.405
 1564W        W 1565   3.336   5.756   6.264
 1565W        W 1566   1.644   5.089   5.291
 1566W        W 1567   2.190   6.428   5.660
 1567W        W 1568   0.690   5.862   5.892
 1568W        W 1569   0.049   5.390   5.463
 1569W        W 1570   1.085   5.362   6.655
 1570W        W 1571   3.356   5.145   6.909
 1571W        W 1572   0.972   6.589   5.354
 1572W        W 1573   2.093   6.278   6.488
 1573W        W 1574   1.313   4.918   5.713
 1574W        W 1575   1.605   5.702   5.356
 1575W        W 1576   2.602   6.475   7.204
 1576W        W 1577   1.681   5.795   7.214
 1577W        W 1578   1.662   5.511   6.692
 1578W        W 1579   0.071   4.902   7.214
 1579W        W 1580   2.903   6.437   6.813
 1580W        W 1581   0.484   4.019   4.811
 1581W        W 1582   1.011   6.277   5.810
 1582W        W 1583   2.887   4.460   5.667
 1583W        W 1584   3.172   4.413   3.762
 1584W        W 1585   3.637   5.214   6.068
 1585W        W 1586   1.604   6.921   5.821
 1586W        W 1587   3.378   6.387   4.259
 1587W        W 1588   0.507   7.173   4.013
 1588W        W 1589   0.900   7.219   4.689
 1589W        W 1590   0.697   3.973   6.115
 1590W        W 1591   3.320   4.991   6.390
 1591W        W 1592   2.725   5.413   4.849
 1592W        W 1593   2.691   5.101   3.876
 1593W        W 1594   1.899   6.245   6.016
 1594W        W 1595   1.705   4.575   5.215
 1595W        W 1596   2.305   6.662   6.209
 1596W        W 1597   3.176   5.453   4.631
 1597W        W 1598   2.078   4.111   4.647
 1598W        W 1599   0.735   6.805   4.330
 1599W        W 1600   0.106   4.304   4.929
 1600W        W 1601   2.892   4.911   5.403
 1601W        W 1602   0.350   6.528   5.318
 1602W        W 1603   1.691   6.878   4.188
 1603W        W 1604   3.083   4.904   3.652
 1604W        W 1605   0.106   6.662   5.816
 1605W        W 1606   0.897   6.234   6.296
 1606W        W 1607   1.270   5.594   4.915
 1607W        W 1608   1.292   3.999   6.008
 1608W        W 1609   3.521   3.761   5.305
 1609W        W 1610   0.740   5.633   3.773
 1610W        W 1611   0.395   4.666   3.952
 1611W        W 1612   0.457   6.622   4.746
 1612W        W 1613   1.588   6.105   4.994
 1613W        W 1614   2.920   6.964   6.708
 1614W        W 1615   1.846   4.606   4.392
 1615W        W 1616   3.229   7.004   5.164
 1616W        W 1617   2.906   4.857   6.762
 1617W        W 1618   3.619   6.513   4.896
 1618W        W 1619   2.246   5.805   6.380
 1619W        W 1620   0.012   5.356   4.586
 1620W        W 1621   1.123   5.771   6.159
 1621W        W 1622   2.327   5.035   4.537
 1622W        W 1623   2.204   5.525   4.641
 1623W        W 1624   0.547   4.945   6.115
 1624W        W 1625   0.532   4.821   7.037
 1625W        W 1626   0.422   3.738   5.196
 1626W        W 1627   2.190   4.085   5.757
 1627W        W 1628   1.838   4.270   6.920
 1628W        W 1629   2.193   4.419   4.098
 1629W        W 1630   3.376   6.812   6.852
 1630W        W 1631   2.343   3.893   6.891
 1631W        W 1632   2.792   4.361   6.609
 1632W        W 1633   2.592   4.299   4.879
 1633W        W 1634   2.985   5.433   7.283
 1634W        W 1635   1.383   4.726   4.255
 1635W        W 1636   0.952   4.010   6.919
 1636W        W 1637   3.004   4.494   4.600
 1637W        W 1638   3.371   4.976   4.545
 1638W        W 1639   1.040   3.729   4.251
 1639W        W 1640   3.361   4.263   5.286
 1640W        W 1641   3.511   6.512   3.731
 1641W        W 1642   0.418   5.715   5.433
 1642W        W 1643   2.335   4.302   3.663
 1643W        W 1644   3.469   6.634   5.383
 1644W        W 1645   3.508   3.828   6.133
 1645W        W 1646   1.953   5.040   6.687
 1646W        W 1647   2.046   6.379   4.390
 1647W        W 1648   2.446   5.673   7.130
 1648W        W 1649   2.120   3.650   5.439
 1649W        W 1650   0.732   4.553   5.502
 1650W        W 1651   0.286   5.753   6.276
 1651W        W 1652   2.145   6.946   4.982
 1652W        W 1653   3.339   4.543   5.854
 1653W        W 1654   1.976   6.890   6.621
 1654W        W 1655   3.319   5.949   3.826
 1655W        W 1656   1.754   5.432   4.887
 1656W        W 1657   3.606   3.943   6.628
 1657W        W 1658   1.755   5.778   6.222
 1658W        W 1659   1.972   4.664   5.667
 1659W        W 1660   2.824   4.962   4.505
 1660W        W 1661   3.111   4.695   4.147
 1661W        W 1662   2.920   6.735   4.536
 1662W        W 1663   2.754   6.338   5.332
 1663W        W 1664   2.650   5.417   4.310
 1664W        W 1665   2.083   5.627   5.296
 1665W        W 1666   2.964   5.415   5.363
 1666W        W 1667   0.339   4.430   5.787
 1667W        W 1668   3.117   5.482   6.614
 1668W        W 1669   3.468   7.100   5.760
 1669W        W 1670   1.398   6.544   5.162
 1670W        W 1671   2.405   7.077   6.486
 1671W        W 1672   2.399   4.407   6.250
 1672W        W 1673   1.606   7.115   6.311
 1673W        W 1674   3.303   4.069   4.777
 1674W        W 1675   3.094   5.388   6.078
 1675W        W 1676   0.077   4.709   6.116
 1676W        W 1677   2.937   4.504   5.134
 1677W        W 1678   3.348   4.655   6.911
 1678W        W 1679   2.233   6.354   5.129
 1679W        W 1680   1.489   6.945   4.742
 1680W        W 1681   0.604   4.125   4.000
 1681W        W 1682   1.708   3.779   5.810
 1682W        W 1683   0.736   6.899   3.658
 1683W        W 1684   1.110   5.365   4.409
 1684W        W 1685   1.764   5.994   6.722
 1685W        W 1686   1.594   4.352   4.712
 1686W        W 1687   2.950   3.949   5.140
 1687W        W 1688   2.670   7.231   5.468
 1688W        W 1689   2.082   6.879   5.808
 1689W        W 1690   1.478   5.916   5.769
 1690W        W 1691   3.248   6.639   5.895
 1691W        W 1692   0.942   4.142   4.664
 1692W        W 1693   1.464   6.439   5.624
 1693W        W 1694   0.947   4.370   3.689
 1694W        W 1695   1.748   4.979   6.083
 1695W        W 1696   2.596   3.845   5.953
 1696W        W 1697   0.016   5.688   5.838
 1697W        W 1698   1.720   5.506   3.996
 1698W        W 1699   0.988   3.821   3.766
 1699W        W 1700   2.696   3.878   6.516
 1700W        W 1701   1.284   5.890   6.625
 1701W        W 1702   2.088   5.672   6.842
 1702W        W 1703   2.705   5.702   6.735
 1703W        W 1704   1.989   3.842   7.240
 1704W        W 1705   1.211   4.458   5.633
 1705W        W 1706   0.637   4.414   5.031
 1706W        W 1707   0.423   7.126   4.707
 1707W        W 1708   1.755   6.456   6.832
 1708W        W 1709   0.790   5.941   4.191
 1709W        W 1710   2.750   5.125   5.811
 1710W        W 1711   1.955   5.799   5.745
 1711W        W 1712   2.425   6.173   3.877
 1712W        W 1713   2.097   4.194   5.205
 1713W        W 1714   0.070   7.061   6.504
 1714W        W 1715   0.054   7.133   4.268
 1715W        W 1716   1.953   4.403   6.074
 1716W        W 1717   1.316   6.426   3.923
 1717W        W 1718   3.221   6.808   4.109
 1718W        W 1719   2.196   5.461   4.123
 1719W        W 1720   1.039   4.652   4.640
 1720W        W 1721   1.871   4.562   3.692
 1721W        W 1722   2.455   6.127   6.870
 1722W        W 1723   2.808   4.033   4.487
 1723W        W 1724   0.138   3.881   3.935
 1724W        W 1725   1.424   6.200   6.225
 1725W        W 1726   1.223   6.116   5.317
 1726W        W 1727   0.965   6.068   3.715
 1727W        W 1728   0.206   6.309   4.483
 1728W        W 1729   0.710   5.379   6.925
 1729W        W 1730   1.414   3.939   7.111
 1730W        W 1731   2.123   4.081   6.467
 1731W        W 1732   1.318   3.849   4.748
 1732W        W 1733   2.377   3.926   4.253
 1733W        W 1734   0.322   3.858   5.830
 1734W        W 1735   0.370   4.821   5.200
 1735W        W 1736   3.059   3.929   5.606
 1736W        W 1737   0.481   4.427   4.420
 1737W        W 1738   3.052   4.115   6.036
 1738W        W 1739   3.448   5.318   3.721
 1739W        W 1740   1.854   4.648   6.480
 1740W        W 1741   0.788   5.727   6.519
 1741W        W 1742   2.146   5.125   5.698
 1742W        W 1743   2.013   7.204   3.994
 1743W        W 1744   0.159   5.711   3.691
 1744W        W 1745   0.894   6.122   6.817
 1745W        W 1746   0.415   5.289   6.448
 1746W        W 1747   1.406   5.394   6.242
 1747W        W 1748   3.174   3.753   6.504
 1748W        W 1749   3.572   5.363   6.495
 1749W        W 1750   3.560   5.563   4.181
 1750W        W 1751   2.423   5.895   4.280
 1751W        W 1752   2.897   7.195   3.975
 1752W        W 1753   2.074   5.185   7.117
 1753W        W 1754   0.404   6.152   7.157
 1754W        W 1755   3.610   4.074   7.109
 1755W        W 1756   3.328   5.002   5.730
 1756W        W 1757   1.491   3.761   3.934
 1757W        W 1758   3.030   6.360   3.877
 1758W        W 1759   0.799   4.453   6.763
 1759W        W 1760   1.233   6.447   6.625
 1760W        W 1761   3.359   4.438   6.423
 1761W        W 1762   2.570   7.097   4.391
 1762W        W 1763   2.809   5.716   5.758
 1763W        W 1764   1.528   5.201   7.182
 1764W        W 1765   1.031   6.380   4.376
 1765W        W 1766   2.786   5.878   4.640
 1766W        W 1767   0.554   4.504   6.364
 1767W        W 1768   1.883   6.566   4.828
 1768W        W 1769   3.633   5.126   5.009
 1769W        W 1770   1.855   3.759   6.728
 1770W        W 1771   2.635   6.464   5.807
 1771W        W 1772   2.938   6.808   5.515
 1772W        W 1773   2.157   6.610   3.943
 1773W        W 1774   0.167   6.502   6.785
 1774W        W 1775   0.910   4.494   6.023
 1775W        W 1776   0.880   3.842   5.133
 1776W        W 1777   2.501   4.684   5.825
 1777W        W 1778   1.299   5.855   4.025
 1778W        W 1779   3.297   5.797   5.524
 1779W        W 1780   0.624   6.555   6.947
 1780W        W 1781   3.011   7.237   4.744
 1781W        W 1782   1.110   4.257   5.189
 1782W        W 1783   0.879   5.750   5.279
 1783W        W 1784   1.192   7.161   6.029
 1784W        W 1785   2.418   5.445   5.994
 1785W        W 1786   0.267   5.243   3.909
 1786W        W 1787   3.401   6.901   4.606
 1787W        W 1788   3.238   4.225   4.225
 1788W        W 1789   1.377   3.744   6.628
 1789W        W 1790   3.083   6.546   5.086
 1790W        W 1791   3.112   5.102   4.991
 1791W        W 1792   1.229   4.775   5.207
 1792W        W 1793   1.474   5.037   6.531
 1793W        W 1794   2.585   6.190   6.394
 1794W        W 1795   1.235   4.644   6.506
 1795W        W 1796   1.214   7.110   5.122
 1796W        W 1797   0.531   7.069   6.756
 1797W        W 1798   0.643   6.430   3.886
 1798W        W 1799   3.160   6.188   4.696
 1799W        W 1800   0.764   4.980   6.582
 1800W        W 1801   3.537   4.910   4.063
 1801W        W 1802   1.282   5.967   4.534
 1802W        W 1803   2.381   5.349   6.615
 1803W        W 1804   2.272   4.977   6.159
 1804W        W 1805   0.832   5.349   6.188
 1805W        W 1806   2.833   3.871   7.011
 1806W        W 1807   0.836   5.044   5.651
 1807W        W 1808   1.205   4.858   3.773
 1808W        W 1809   0.008   6.617   6.318
 1809W        W 1810   1.593   5.326   5.761
 1810W        W 1811   1.416   4.351   3.866
 1811W        W 1812   0.551   5.167   4.647
 1812W        W 1813   0.322   7.019   6.084
 1813W        W 1814   3.117   5.245   4.192
 1814W        W 1815   3.212   4.161   6.878
 1815W        W 1816   2.648   6.370   4.841
 1816W        W 1817   0.246   5.294   7.018
 1817W        W 1818   3.212   3.758   4.314
 1818W        W 1819   2.732   6.233   4.325
 1819W        W 1820   1.634   5.291   4.410
 1820W        W 1821   2.821   4.095   3.933
 1821W        W 1822   2.886   4.702   6.119
 1822W        W 1823   0.889   6.234   4.975
 1823W        W 1824   2.652   4.854   4.940
 1824W        W 1825   1.675   4.233   5.636
 1825W        W 1826   3.637   6.144   6.147
 1826W        W 1827   3.555   4.131   5.708
 1827W        W 1828   0.094   6.961   5.084
 1828W        W 1829   0.603   6.148   4.620
 1829W        W 1830   0.518   3.765   7.173
 1830W        W 1831   1.637   6.618   7.275
 1831W        W 1832   3.392   5.586   5.065
 1832W        W 1833   2.746   5.763   3.945
 1833W        W 1834   2.041   7.284   6.157
 1834W        W 1835   2.898   6.006   7.194
 1835W        W 1836   1.713   3.716   4.474
 1836W        W 1837   2.426   4.585   5.333
 1837W        W 1838   0.112   6.172   5.665
 1838W        W 1839   1.365   4.134   4.306
 1839W        W 1840   1.169   5.618   7.155
 1840W        W 1841   2.163   4.599   4.869
 1841W        W 1842   2.368   6.009   5.991
 1842W        W 1843   1.113   6.597   7.149
 1843W        W 1844   0.964   4.394   4.163
 1844W        W 1845   2.481   4.536   4.488
 1845W        W 1846   2.439   6.644   6.725
 1846W        W 1847   1.124   5.236   5.324
 1847W        W 1848   0.779   6.934   6.189
 1848W        W 1849   3.524   7.051   3.790
 1849W        W 1850   0.387   5.723   6.786
 1850W        W 1851   2.382   5.985   5.474
 1851W        W 1852   0.818   5.634   4.716
 1852W        W 1853   1.189   6.641   6.111
 1853W        W 1854   1.567   4.060   5.152
 1854W        W 1855   0.178   6.044   4.082
 1855W        W 1856   0.343   5.544   4.971
 1856W        W 1857   1.633   4.186   6.435
 1857W        W 1858   3.305   3.895   3.862
 1858W        W 1859   3.398   5.641   6.961
 1859W        W 1860   2.052   6.898   7.113
 1860W        W 1861   3.610   5.992   6.635
 1861W        W 1862   3.018   6.790   7.246
 1862W        W 1863   0.757   7.246   5.724
 1863W        W 1864   3.616   5.868   4.598
 1864W        W 1865   2.146   5.135   5.111
 1865W        W 1866   1.913   3.747   5.001
 1866W        W 1867   0.972   6.731   4.838
 1867W        W 1868   1.471   4.472   6.063
 1868W        W 1869   1.171   3.841   5.532
 1869W        W 1870   0.234   6.663   4.080
 1870W        W 1871   2.050   6.027   4.798
 1871W        W 1872   0.925   6.822   6.677
 1872W        W 1873   0.402   5.645   4.373
 1873W        W 1874   1.835   6.153   5.429
 1874W        W 1875   0.087   4.007   4.449
 1875W        W 1876   2.751   5.213   6.376
 1876W        W 1877   2.628   4.599   3.948
 1877W        W 1878   3.145   6.271   5.596
 1878W        W 1879   1.806   6.755   5.427
 1879W        W 1880   1.218   6.859   4.338
 1880W        W 1881   2.500   3.762   3.768
 1881W        W 1882   0.300   7.022   5.509
 1882W        W 1883   0.480   4.310   7.143
 1883W        W 1884   0.211   4.910   4.476
 1884W        W 1885   0.902   4.899   4.201
 1885W        W 1886   2.665   5.226   7.018
 1886W        W 1887   1.008   5.507   5.727
 1887W        W 1888   2.482   3.793   4.847
 1888W        W 1889   1.613   7.224   5.350
 1889W        W 1890   2.827   6.686   6.287
 1890W        W 1891   2.411   6.835   5.398
 1891W        W 1892   2.430   5.815   4.992
 1892W        W 1893   1.892   4.040   4.063
 1893W        W 1894   3.573   3.668   4.785
 1894W        W 1895   1.261   5.303   3.948
 1895W        W 1896   3.427   4.640   4.938
 1896W        W 1897   2.119   5.810   3.815
 1897W        W 1898   3.055   6.010   6.563
 1898W        W 1899   2.709   6.711   4.030
 1899W        W 1900   1.324   4.386   6.936
 1900W        W 1901   1.144   4.970   6.177
 1901W        W 1902   3.236   6.465   6.454
 1902W        W 1903   2.336   4.415   6.831
 1903W        W 1904   0.180   4.886   6.608
 1904W        W 1905   1.940   5.363   6.334
 1905W        W 1906   0.297   6.121   4.991
 1906W        W 1907   0.444   5.418   5.881
 1907W        W 1908   2.761   5.704   6.231
 1908W        W 1909   2.429   4.823   6.595
 1909W        W 1910   2.706   6.877   5.000
 1910W        W 1911   1.708   6.597   6.323
 1911W        W 1912   1.193   6.952   5.592
 1912W        W 1913   2.998   6.123   6.011
 1913W        W 1914   2.048   6.195   7.148
 1914W        W 1915   0.653   6.148   5.487
 1915W        W 1916   2.999   5.907   5.132
 1916W        W 1917   2.640   6.973   5.883
 1917W        W 1918   0.618   6.702   5.753
 1918W        W 1919   1.639   4.754   6.963
 1919W        W 1920   2.090   6.920   4.474
 1920W        W 1921   1.398   6.175   7.112
 1921W        W 1922   1.524   6.413   4.489
 1922W        W 1923   0.745   5.153   3.748
 1923W        W 1924   3.728   3.595   3.359
 1924W        W 1925   4.104   2.488   2.882
 1925W        W 1926   6.809   2.218   0.652
 1926W        W 1927   6.939   3.303   2.679
 1927W        W 1928   4.940   1.446   1.188
 1928W        W 1929   4.455   1.294   1.352
 1929W        W 1930   5.446   2.109   0.786
 1930W        W 1931   5.121   3.201   3.141
 1931W        W 1932   3.770   0.762   3.104
 1932W        W 1933   4.532   0.042   2.906
 1933W        W 1934   6.226   0.430   1.793
 1934W        W 1935   5.875   1.301   0.363
 1935W        W 1936   6.445   0.735   3.454
 1936W        W 1937   3.811   0.527   2.579
 1937W        W 1938   3.910   3.146   3.600
 1938W        W 1939   5.432   2.536   0.332
 1939W        W 1940   3.864   1.319   2.025
 1940W        W 1941   4.757   1.210   3.262
 1941W        W 1942   7.216   1.069   1.761
 1942W        W 1943   6.980   2.112   2.620
 1943W        W 1944   5.288   1.445   1.647
 1944W        W 1945   5.834   2.784   2.016
 1945W        W 1946   4.334   2.218   2.248
 1946W        W 1947   3.693   1.746   1.819
 1947W        W 1948   4.729   1.718   3.011
 1948W        W 1949   7.000   1.501   3.265
 1949W        W 1950   4.616   2.945   1.710
 1950W        W 1951   5.737   2.634   2.844
 1951W        W 1952   4.957   1.274   2.069
 1952W        W 1953   5.249   2.058   1.712
 1953W        W 1954   6.246   2.831   3.560
 1954W        W 1955   5.325   2.151   3.570
 1955W        W 1956   5.306   1.867   3.048
 1956W        W 1957   3.715   1.258   3.570
 1957W        W 1958   6.547   2.793   3.169
 1958W        W 1959   4.128   0.375   1.167
 1959W        W 1960   4.655   2.633   2.166
 1960W        W 1961   7.118   2.416   1.456
 1961W        W 1962   6.531   0.816   2.023
 1962W        W 1963   6.816   0.769   0.118
 1963W        W 1964   5.248   3.277   2.177
 1964W        W 1965   7.022   2.743   0.615
 1965W        W 1966   4.151   3.529   0.369
 1966W        W 1967   4.544   3.575   1.045
 1967W        W 1968   4.341   0.329   2.471
 1968W        W 1969   6.964   1.347   2.746
 1969W        W 1970   6.369   1.769   1.205
 1970W        W 1971   6.335   1.457   0.232
 1971W        W 1972   5.543   2.601   2.372
 1972W        W 1973   5.349   0.931   1.571
 1973W        W 1974   5.949   3.018   2.565
 1974W        W 1975   6.820   1.809   0.987
 1975W        W 1976   5.722   0.467   1.003
 1976W        W 1977   4.379   3.161   0.686
 1977W        W 1978   3.750   0.660   1.285
 1978W        W 1979   6.536   1.267   1.759
 1979W        W 1980   3.994   2.884   1.674
 1980W        W 1981   5.335   3.234   0.544
 1981W        W 1982   3.750   3.018   2.172
 1982W        W 1983   4.541   2.590   2.652
 1983W        W 1984   4.914   1.950   1.271
 1984W        W 1985   4.936   0.355   2.364
 1985W        W 1986   7.165   0.117   1.661
 1986W        W 1987   4.384   1.989   0.129
 1987W        W 1988   4.039   1.022   0.308
 1988W        W 1989   4.101   2.978   1.102
 1989W        W 1990   5.232   2.461   1.350
 1990W        W 1991   6.564   3.320   3.064
 1991W        W 1992   5.490   0.962   0.748
 1992W        W 1993   6.873   3.360   1.520
 1993W        W 1994   6.550   1.213   3.118
 1994W        W 1995   7.263   2.869   1.252
 1995W        W 1996   5.890   2.161   2.736
 1996W        W 1997   3.656   1.712   0.942
 1997W        W 1998   5.971   1.391   0.893
 1998W        W 1999   5.848   1.881   0.997
 1999W        W 2000   4.191   1.301   2.471
 2000W        W 2001   4.176   1.177   3.393
 2001W        W 2002   4.066   0.094   1.552
 2002W        W 2003   5.834   0.441   2.113
 2003W        W 2004   5.482   0.626   3.276
 2004W        W 2005   5.837   0.775   0.454
 2005W        W 2006   7.020   3.168   3.208
 2006W        W 2007   5.987   0.249   3.247
 2007W        W 2008   7.006   2.550   3.369
 2008W        W 2009   6.436   0.717   2.965
 2009W        W 2010   6.236   0.655   1.235
 2010W        W 2011   6.629   1.789   3.639
 2011W        W 2012   4.369   3.365   1.625
 2012W        W 2013   5.027   1.082   0.611
 2013W        W 2014   4.596   0.366   3.275
 2014W        W 2015   6.648   0.850   0.956
 2015W        W 2016   7.015   1.332   0.901
 2016W        W 2017   4.758   3.549   3.372
 2017W        W 2018   4.684   0.085   0.607
 2018W        W 2019   7.005   0.619   1.642
 2019W        W 2020   7.155   2.868   0.087
 2020W        W 2021   4.062   2.071   1.789
 2021W        W 2022   5.979   0.658   0.019
 2022W        W 2023   7.113   2.990   1.739
 2023W        W 2024   7.152   0.184   2.489
 2024W        W 2025   5.597   1.396   3.043
 2025W        W 2026   5.690   2.735   0.746
 2026W        W 2027   6.090   2.029   3.486
 2027W        W 2028   4.376   0.909   1.858
 2028W        W 2029   3.930   2.109   2.632
 2029W        W 2030   5.789   3.302   1.338
 2030W        W 2031   6.983   0.899   2.210
 2031W        W 2032   5.620   3.246   2.977
 2032W        W 2033   6.963   2.305   0.182
 2033W        W 2034   5.398   1.788   1.243
 2034W        W 2035   7.250   0.299   2.984
 2035W        W 2036   5.399   2.134   2.578
 2036W        W 2037   5.616   1.020   2.023
 2037W        W 2038   6.468   1.318   0.861
 2038W        W 2039   6.755   1.051   0.503
 2039W        W 2040   6.564   3.091   0.892
 2040W        W 2041   6.398   2.694   1.688
 2041W        W 2042   6.294   1.773   0.666
 2042W        W 2043   5.727   1.983   1.652
 2043W        W 2044   6.608   1.771   1.719
 2044W        W 2045   6.761   1.838   2.970
 2045W        W 2046   7.112   3.456   2.116
 2046W        W 2047   5.042   2.900   1.518
 2047W        W 2048   6.049   3.433   2.842
 2048W        W 2049   6.043   0.763   2.606
 2049W        W 2050   5.250   3.471   2.667
 2050W        W 2051   6.947   0.425   1.133
 2051W        W 2052   6.738   1.744   2.434
 2052W        W 2053   3.721   1.065   2.472
 2053W        W 2054   6.581   0.860   1.490
 2054W        W 2055   6.992   1.011   3.267
 2055W        W 2056   5.877   2.710   1.485
 2056W        W 2057   5.133   3.301   1.098
 2057W        W 2058   4.248   0.481   0.356
 2058W        W 2059   5.352   0.135   2.166
 2059W        W 2060   4.380   3.255   0.014
 2060W        W 2061   4.754   1.721   0.765
 2061W        W 2062   5.408   2.350   3.078
 2062W        W 2063   5.238   0.708   1.068
 2063W        W 2064   6.594   0.305   1.496
 2064W        W 2065   6.314   3.587   1.824
 2065W        W 2066   5.726   3.235   2.164
 2066W        W 2067   5.122   2.272   2.125
 2067W        W 2068   6.892   2.995   2.251
 2068W        W 2069   4.586   0.498   1.020
 2069W        W 2070   5.108   2.795   1.980
 2070W        W 2071   4.591   0.726   0.045
 2071W        W 2072   5.392   1.335   2.439
 2072W        W 2073   6.240   0.201   2.309
 2073W        W 2074   3.660   2.044   2.194
 2074W        W 2075   5.364   1.862   0.352
 2075W        W 2076   4.632   0.177   0.122
 2076W        W 2077   5.370   1.258   1.173
 2077W        W 2078   6.340   0.234   2.872
 2078W        W 2079   4.928   2.246   2.981
 2079W        W 2080   5.732   2.028   3.198
 2080W        W 2081   6.349   2.058   3.091
 2081W        W 2082   5.633   0.198   3.596
 2082W        W 2083   4.855   0.814   1.989
 2083W        W 2084   4.281   0.770   1.387
 2084W        W 2085   4.067   3.482   1.063
 2085W        W 2086   5.399   2.812   3.188
 2086W        W 2087   4.434   2.297   0.547
 2087W        W 2088   6.114   1.682   1.768
 2088W        W 2089   6.394   1.481   2.167
 2089W        W 2090   5.599   2.155   2.101
 2090W        W 2091   6.069   2.529   0.233
 2091W        W 2092   5.741   0.550   1.561
 2092W        W 2093   7.220   0.828   0.829
 2093W        W 2094   3.714   3.417   2.860
 2094W        W 2095   4.131   2.643   2.392
 2095W        W 2096   3.698   3.489   0.624
 2096W        W 2097   5.597   0.759   2.430
 2097W        W 2098   4.960   2.782   0.279
 2098W        W 2099   6.865   3.164   0.465
 2099W        W 2100   5.840   1.817   0.479
 2100W        W 2101   4.683   1.008   0.996
 2101W        W 2102   5.515   0.918   0.048
 2102W        W 2103   6.099   2.483   3.226
 2103W        W 2104   6.452   0.389   0.843
 2104W        W 2105   3.782   0.237   0.291
 2105W        W 2106   5.068   2.556   2.581
 2106W        W 2107   4.867   2.472   1.673
 2107W        W 2108   4.609   2.424   0.071
 2108W        W 2109   3.850   2.665   0.839
 2109W        W 2110   4.354   1.735   3.281
 2110W        W 2111   5.767   0.437   2.823
 2111W        W 2112   4.962   0.205   1.104
 2112W        W 2113   6.021   0.282   0.609
 2113W        W 2114   3.966   0.214   2.186
 2114W        W 2115   4.014   1.177   1.556
 2115W        W 2116   6.703   0.285   1.962
 2116W        W 2117   4.125   0.783   0.776
 2117W        W 2118   6.696   0.471   2.392
 2118W        W 2119   4.384   0.432   1.896
 2119W        W 2120   5.498   1.004   2.836
 2120W        W 2121   3.646   0.694   0.314
 2121W        W 2122   4.432   2.083   2.875
 2122W        W 2123   5.790   1.481   2.054
 2123W        W 2124   5.657   3.560   0.350
 2124W        W 2125   3.803   2.067   0.047
 2125W        W 2126   4.538   2.478   3.173
 2126W        W 2127   4.059   1.645   2.804
 2127W        W 2128   5.050   1.750   2.598
 2128W        W 2129   6.818   0.109   2.860
 2129W        W 2130   7.216   1.719   2.851
 2130W        W 2131   7.204   1.919   0.537
 2131W        W 2132   6.067   2.251   0.636
 2132W        W 2133   6.541   3.551   0.331
 2133W        W 2134   5.718   1.541   3.473
 2134W        W 2135   7.254   0.430   3.465
 2135W        W 2136   6.972   1.358   2.086
 2136W        W 2137   5.280   3.488   3.563
 2137W        W 2138   5.135   0.117   0.290
 2138W        W 2139   6.674   2.716   0.233
 2139W        W 2140   4.443   0.809   3.119
 2140W        W 2141   4.877   2.803   2.981
 2141W        W 2142   7.003   0.794   2.779
 2142W        W 2143   6.214   3.453   0.747
 2143W        W 2144   6.453   2.072   2.114
 2144W        W 2145   4.703   0.488   2.781
 2145W        W 2146   5.172   1.557   3.538
 2146W        W 2147   4.675   2.736   0.732
 2147W        W 2148   6.430   2.234   0.996
 2148W        W 2149   4.198   0.860   2.720
 2149W        W 2150   5.527   2.922   1.184
 2150W        W 2151   7.277   1.482   1.365
 2151W        W 2152   5.499   0.115   3.084
 2152W        W 2153   6.279   2.820   2.163
 2153W        W 2154   6.582   3.164   1.871
 2154W        W 2155   5.801   2.966   0.299
 2155W        W 2156   3.811   2.858   3.141
 2156W        W 2157   4.554   0.850   2.379
 2157W        W 2158   4.524   0.198   1.489
 2158W        W 2159   6.145   1.040   2.181
 2159W        W 2160   4.943   2.211   0.381
 2160W        W 2161   6.941   2.153   1.880
 2161W        W 2162   4.268   2.911   3.303
 2162W        W 2163   6.655   3.593   1.100
 2163W        W 2164   4.754   0.613   1.545
 2164W        W 2165   4.523   2.106   1.635
 2165W        W 2166   4.836   3.517   2.385
 2166W        W 2167   6.062   1.801   2.350
 2167W        W 2168   3.911   1.599   0.265
 2168W        W 2169   7.045   3.257   0.962
 2169W        W 2170   6.882   0.581   0.581
 2170W        W 2171   5.021   0.100   2.984
 2171W        W 2172   4.873   1.131   1.563
 2172W        W 2173   5.118   1.393   2.887
 2173W        W 2174   6.229   2.546   2.750
 2174W        W 2175   4.879   1.000   2.862
 2175W        W 2176   4.858   3.466   1.478
 2176W        W 2177   4.175   3.425   3.112
 2177W        W 2178   4.287   2.786   0.242
 2178W        W 2179   6.804   2.544   1.052
 2179W        W 2180   4.408   1.336   2.938
 2180W        W 2181   4.926   2.323   0.890
 2181W        W 2182   5.916   1.333   2.515
 2182W        W 2183   4.476   1.705   2.544
 2183W        W 2184   6.686   3.593   2.373
 2184W        W 2185   6.477   0.227   3.367
 2185W        W 2186   4.141   0.377   2.954
 2186W        W 2187   4.480   1.400   2.007
 2187W        W 2188   4.849   1.214   0.129
 2188W        W 2189   3.652   2.973   2.674
 2189W        W 2190   5.237   1.682   2.117
 2190W        W 2191   5.060   0.707   0.222
 2191W        W 2192   4.195   1.523   1.003
 2192W        W 2193   3.966   3.375   2.440
 2193W        W 2194   6.761   1.601   0.548
 2194W        W 2195   6.856   0.517   3.234
 2195W        W 2196   6.292   2.726   1.197
 2196W        W 2197   3.890   1.650   3.374
 2197W        W 2198   6.376   2.589   0.681
 2198W        W 2199   5.278   1.647   0.766
 2199W        W 2200   6.465   0.451   0.289
 2200W        W 2201   6.530   1.058   2.475
 2201W        W 2202   4.239   1.651   1.682
 2202W        W 2203   4.533   2.590   1.331
 2203W        W 2204   6.296   1.210   1.296
 2204W        W 2205   5.319   0.589   1.992
 2205W        W 2206   7.281   2.500   2.503
 2206W        W 2207   7.199   0.487   2.064
 2207W        W 2208   3.738   3.317   1.440
 2208W        W 2209   4.247   2.504   0.976
 2209W        W 2210   4.162   0.121   3.529
 2210W        W 2211   5.281   2.974   3.631
 2211W        W 2212   7.036   1.942   1.421
 2212W        W 2213   6.390   2.119   0.301
 2213W        W 2214   5.685   3.640   2.513
 2214W        W 2215   6.542   2.362   3.550
 2215W        W 2216   5.357   0.072   0.830
 2216W        W 2217   6.070   0.941   1.689
 2217W        W 2218   3.756   2.528   2.021
 2218W        W 2219   5.009   0.490   0.662
 2219W        W 2220   4.813   1.974   3.511
 2220W        W 2221   5.807   0.955   1.225
 2221W        W 2222   4.757   2.953   3.505
 2222W        W 2223   4.608   0.750   0.519
 2223W        W 2224   6.125   0.892   0.844
 2224W        W 2225   6.083   3.000   3.081
 2225W        W 2226   4.768   1.592   1.680
 2226W        W 2227   4.423   3.290   2.545
 2227W        W 2228   4.031   2.079   3.142
 2228W        W 2229   6.026   2.341   1.830
 2229W        W 2230   4.462   1.990   1.072
 2230W        W 2231   4.833   2.997   2.467
 2231W        W 2232   5.211   0.416   1.508
 2232W        W 2233   3.822   2.400   0.438
 2233W        W 2234   5.341   1.351   0.308
 2234W        W 2235   5.277   0.542   2.791
 2235W        W 2236   7.042   1.997   3.317
 2236W        W 2237   5.696   3.254   3.469
 2237W        W 2238   7.254   2.348   2.991
 2238W        W 2239   6.662   3.146   3.602
 2239W        W 2240   4.401   3.602   2.080
 2240W        W 2241   7.260   2.224   0.954
 2241W        W 2242   5.790   1.491   1.467
 2242W        W 2243   5.557   0.103   1.357
 2243W        W 2244   4.616   3.087   1.194
 2244W        W 2245   5.115   0.828   2.419
 2245W        W 2246   4.815   0.197   1.888
 2246W        W 2247   3.878   3.019   0.436
 2247W        W 2248   5.694   2.383   1.154
 2248W        W 2249   4.569   3.178   3.033
 2249W        W 2250   4.046   2.001   0.729
 2250W        W 2251   3.931   0.544   1.728
 2251W        W 2252   5.479   2.509   1.785
 2252W        W 2253   3.731   0.363   0.805
 2253W        W 2254   6.395   1.569   2.732
 2254W        W 2255   6.272   0.955   0.304
 2255W        W 2256   6.789   2.627   1.952
 2256W        W 2257   5.450   3.111   1.783
 2257W        W 2258   4.862   3.215   0.694
 2258W        W 2259   6.144   0.118   0.124
 2259W        W 2260   3.944   3.378   1.865
 2260W        W 2261   6.141   1.136   3.500
 2261W        W 2262   4.124   0.666   3.499
 2262W        W 2263   3.855   1.266   0.832
 2263W        W 2264   4.546   1.255   0.557
 2264W        W 2265   6.309   1.582   3.374
 2265W        W 2266   4.652   1.863   2.083
 2266W        W 2267   6.126   0.149   1.203
 2267W        W 2268   5.257   3.580   1.706
 2268W        W 2269   6.471   3.042   2.643
 2269W        W 2270   6.055   3.191   1.754
 2270W        W 2271   6.074   2.171   1.348
 2271W        W 2272   5.536   0.396   0.419
 2272W        W 2273   7.217   0.024   1.141
 2273W        W 2274   4.905   1.659   0.304
 2274W        W 2275   7.071   0.996   1.294
 2275W        W 2276   5.763   2.166   0.171
 2276W        W 2277   6.699   2.366   2.919
 2277W        W 2278   6.353   3.067   0.386
 2278W        W 2279   4.968   0.742   3.292
 2279W        W 2280   4.788   1.326   2.533
 2280W        W 2281   6.880   2.821   2.810
 2281W        W 2282   5.980   0.771   3.187
 2282W        W 2283   3.824   1.242   2.964
 2283W        W 2284   5.584   1.719   2.690
 2284W        W 2285   3.941   2.477   1.347
 2285W        W 2286   4.088   1.774   2.237
 2286W        W 2287   6.405   2.060   2.587
 2287W        W 2288   6.177   3.440   3.398
 2288W        W 2289   6.073   1.179   2.951
 2289W        W 2290   6.350   3.233   1.356
 2290W        W 2291   5.352   2.953   2.679
 2291W        W 2292   4.837   3.308   1.948
 2292W        W 2293   6.642   2.479   2.367
 2293W        W 2294   5.692   2.551   3.504
 2294W        W 2295   4.297   2.504   1.843
 2295W        W 2296   6.284   3.329   2.239
 2296W        W 2297   4.262   3.058   2.109
 2297W        W 2298   5.283   1.110   3.319
 2298W        W 2299   5.734   3.276   0.830
 2299W        W 2300   5.042   2.531   3.468
 2300W        W 2301   5.168   2.769   0.845
 2301W        W 2302   4.389   1.509   0.104
 2302W        W 2303   3.728   3.595   7.003
 2303W        W 2304   4.104   2.488   6.526
 2304W        W 2305   6.809   2.218   4.296
 2305W        W 2306   6.939   3.303   6.323
 2306W        W 2307   4.857   3.294   3.849
 2307W        W 2308   4.940   1.446   4.832
 2308W        W 2309   4.455   1.294   4.996
 2309W        W 2310   5.446   2.109   4.430
 2310W        W 2311   5.121   3.201   6.785
 2311W        W 2312   4.532   0.042   6.550
 2312W        W 2313   6.226   0.430   5.437
 2313W        W 2314   5.875   1.301   4.007
 2314W        W 2315   6.445   0.735   7.098
 2315W        W 2316   3.811   0.527   6.223
 2316W        W 2317   3.910   3.146   7.244
 2317W        W 2318   5.432   2.536   3.976
 2318W        W 2319   4.757   1.210   6.906
 2319W        W 2320   7.216   1.069   5.405
 2320W        W 2321   6.980   2.112   6.264
 2321W        W 2322   5.288   1.445   5.291
 2322W        W 2323   5.834   2.784   5.660
 2323W        W 2324   4.334   2.218   5.892
 2324W        W 2325   3.693   1.746   5.463
 2325W        W 2326   4.729   1.718   6.655
 2326W        W 2327   7.000   1.501   6.909
 2327W        W 2328   4.616   2.945   5.354
 2328W        W 2329   5.737   2.634   6.488
 2329W        W 2330   4.957   1.274   5.713
 2330W        W 2331   5.249   2.058   5.356
 2331W        W 2332   6.246   2.831   7.204
 2332W        W 2333   5.325   2.151   7.214
 2333W        W 2334   5.306   1.867   6.692
 2334W        W 2335   3.715   1.258   7.214
 2335W        W 2336   6.547   2.793   6.813
 2336W        W 2337   4.128   0.375   4.811
 2337W        W 2338   4.655   2.633   5.810
 2338W        W 2339   7.118   2.416   5.100
 2339W        W 2340   6.531   0.816   5.667
 2340W        W 2341   7.281   1.570   6.068
 2341W        W 2342   5.248   3.277   5.821
 2342W        W 2343   7.022   2.743   4.259
 2343W        W 2344   4.151   3.529   4.013
 2344W        W 2345   4.544   3.575   4.689
 2345W        W 2346   4.341   0.329   6.115
 2346W        W 2347   6.964   1.347   6.390
 2347W        W 2348   6.369   1.769   4.849
 2348W        W 2349   6.335   1.457   3.876
 2349W        W 2350   5.543   2.601   6.016
 2350W        W 2351   5.349   0.931   5.215
 2351W        W 2352   5.949   3.018   6.209
 2352W        W 2353   6.820   1.809   4.631
 2353W        W 2354   5.722   0.467   4.647
 2354W        W 2355   4.379   3.161   4.330
 2355W        W 2356   3.750   0.660   4.929
 2356W        W 2357   6.536   1.267   5.403
 2357W        W 2358   3.994   2.884   5.318
 2358W        W 2359   5.335   3.234   4.188
 2359W        W 2360   6.727   1.260   3.652
 2360W        W 2361   3.750   3.018   5.816
 2361W        W 2362   4.541   2.590   6.296
 2362W        W 2363   4.914   1.950   4.915
 2363W        W 2364   4.936   0.355   6.008
 2364W        W 2365   7.165   0.117   5.305
 2365W        W 2366   4.384   1.989   3.773
 2366W        W 2367   4.039   1.022   3.952
 2367W        W 2368   4.101   2.978   4.746
 2368W        W 2369   5.232   2.461   4.994
 2369W        W 2370   6.564   3.320   6.708
 2370W        W 2371   5.490   0.962   4.392
 2371W        W 2372   6.873   3.360   5.164
 2372W        W 2373   6.550   1.213   6.762
 2373W        W 2374   7.263   2.869   4.896
 2374W        W 2375   5.890   2.161   6.380
 2375W        W 2376   3.656   1.712   4.586
 2376W        W 2377   4.767   2.127   6.159
 2377W        W 2378   5.971   1.391   4.537
 2378W        W 2379   5.848   1.881   4.641
 2379W        W 2380   4.191   1.301   6.115
 2380W        W 2381   4.176   1.177   7.037
 2381W        W 2382   4.066   0.094   5.196
 2382W        W 2383   5.834   0.441   5.757
 2383W        W 2384   5.837   0.775   4.098
 2384W        W 2385   7.020   3.168   6.852
 2385W        W 2386   5.987   0.249   6.891
 2386W        W 2387   7.006   2.550   7.013
 2387W        W 2388   6.436   0.717   6.609
 2388W        W 2389   6.236   0.655   4.879
 2389W        W 2390   6.629   1.789   7.283
 2390W        W 2391   4.369   3.365   5.269
 2391W        W 2392   5.027   1.082   4.255
 2392W        W 2393   4.596   0.366   6.919
 2393W        W 2394   6.648   0.850   4.600
 2394W        W 2395   7.015   1.332   4.545
 2395W        W 2396   4.758   3.549   7.016
 2396W        W 2397   4.684   0.085   4.251
 2397W        W 2398   7.005   0.619   5.286
 2398W        W 2399   7.155   2.868   3.731
 2399W        W 2400   4.062   2.071   5.433
 2400W        W 2401   5.979   0.658   3.663
 2401W        W 2402   7.113   2.990   5.383
 2402W        W 2403   5.597   1.396   6.687
 2403W        W 2404   5.690   2.735   4.390
 2404W        W 2405   6.090   2.029   7.130
 2405W        W 2406   5.764   0.006   5.439
 2406W        W 2407   4.376   0.909   5.502
 2407W        W 2408   3.930   2.109   6.276
 2408W        W 2409   5.789   3.302   4.982
 2409W        W 2410   6.983   0.899   5.854
 2410W        W 2411   5.620   3.246   6.621
 2411W        W 2412   6.963   2.305   3.826
 2412W        W 2413   5.398   1.788   4.887
 2413W        W 2414   7.250   0.299   6.628
 2414W        W 2415   5.399   2.134   6.222
 2415W        W 2416   6.468   1.318   4.505
 2416W        W 2417   6.755   1.051   4.147
 2417W        W 2418   6.564   3.091   4.536
 2418W        W 2419   6.398   2.694   5.332
 2419W        W 2420   6.294   1.773   4.310
 2420W        W 2421   5.727   1.983   5.296
 2421W        W 2422   6.608   1.771   5.363
 2422W        W 2423   3.983   0.786   5.787
 2423W        W 2424   6.761   1.838   6.614
 2424W        W 2425   7.112   3.456   5.760
 2425W        W 2426   5.042   2.900   5.162
 2426W        W 2427   6.049   3.433   6.486
 2427W        W 2428   6.043   0.763   6.250
 2428W        W 2429   5.250   3.471   6.311
 2429W        W 2430   6.738   1.744   6.078
 2430W        W 2431   3.721   1.065   6.116
 2431W        W 2432   6.992   1.011   6.911
 2432W        W 2433   5.877   2.710   5.129
 2433W        W 2434   5.133   3.301   4.742
 2434W        W 2435   4.248   0.481   4.000
 2435W        W 2436   5.352   0.135   5.810
 2436W        W 2437   4.380   3.255   3.658
 2437W        W 2438   4.754   1.721   4.409
 2438W        W 2439   5.408   2.350   6.722
 2439W        W 2440   5.238   0.708   4.712
 2440W        W 2441   6.594   0.305   5.140
 2441W        W 2442   6.314   3.587   5.468
 2442W        W 2443   5.726   3.235   5.808
 2443W        W 2444   5.122   2.272   5.769
 2444W        W 2445   6.892   2.995   5.895
 2445W        W 2446   4.586   0.498   4.664
 2446W        W 2447   5.108   2.795   5.624
 2447W        W 2448   4.591   0.726   3.689
 2448W        W 2449   5.392   1.335   6.083
 2449W        W 2450   6.240   0.201   5.953
 2450W        W 2451   3.660   2.044   5.838
 2451W        W 2452   5.364   1.862   3.996
 2452W        W 2453   4.632   0.177   3.766
 2453W        W 2454   5.370   1.258   4.817
 2454W        W 2455   6.340   0.234   6.516
 2455W        W 2456   4.928   2.246   6.625
 2456W        W 2457   5.732   2.028   6.842
 2457W        W 2458   6.349   2.058   6.735
 2458W        W 2459   5.633   0.198   7.240
 2459W        W 2460   4.855   0.814   5.633
 2460W        W 2461   4.281   0.770   5.031
 2461W        W 2462   4.067   3.482   4.707
 2462W        W 2463   5.399   2.812   6.832
 2463W        W 2464   4.434   2.297   4.191
 2464W        W 2465   6.114   1.682   5.412
 2465W        W 2466   6.394   1.481   5.811
 2466W        W 2467   5.599   2.155   5.745
 2467W        W 2468   6.069   2.529   3.877
 2468W        W 2469   5.741   0.550   5.205
 2469W        W 2470   7.220   0.828   4.473
 2470W        W 2471   3.714   3.417   6.504
 2471W        W 2472   4.131   2.643   6.036
 2472W        W 2473   3.698   3.489   4.268
 2473W        W 2474   5.597   0.759   6.074
 2474W        W 2475   4.960   2.782   3.923
 2475W        W 2476   6.865   3.164   4.109
 2476W        W 2477   5.840   1.817   4.123
 2477W        W 2478   4.683   1.008   4.640
 2478W        W 2479   5.515   0.918   3.692
 2479W        W 2480   6.099   2.483   6.870
 2480W        W 2481   6.452   0.389   4.487
 2481W        W 2482   3.782   0.237   3.935
 2482W        W 2483   5.068   2.556   6.225
 2483W        W 2484   4.867   2.472   5.317
 2484W        W 2485   4.609   2.424   3.715
 2485W        W 2486   3.850   2.665   4.483
 2486W        W 2487   4.354   1.735   6.925
 2487W        W 2488   5.058   0.295   7.111
 2488W        W 2489   5.767   0.437   6.467
 2489W        W 2490   4.962   0.205   4.748
 2490W        W 2491   6.021   0.282   4.253
 2491W        W 2492   3.966   0.214   5.830
 2492W        W 2493   4.014   1.177   5.200
 2493W        W 2494   6.703   0.285   5.606
 2494W        W 2495   4.125   0.783   4.420
 2495W        W 2496   6.696   0.471   6.036
 2496W        W 2497   7.092   1.674   3.721
 2497W        W 2498   4.384   0.432   5.540
 2498W        W 2499   5.498   1.004   6.480
 2499W        W 2500   3.646   0.694   3.958
 2500W        W 2501   4.432   2.083   6.519
 2501W        W 2502   5.790   1.481   5.698
 2502W        W 2503   5.657   3.560   3.994
 2503W        W 2504   3.803   2.067   3.691
 2504W        W 2505   4.538   2.478   6.817
 2505W        W 2506   4.059   1.645   6.448
 2506W        W 2507   5.050   1.750   6.242
 2507W        W 2508   7.216   1.719   6.495
 2508W        W 2509   7.204   1.919   4.181
 2509W        W 2510   6.067   2.251   4.280
 2510W        W 2511   5.718   1.541   7.117
 2511W        W 2512   4.048   2.508   7.157
 2512W        W 2513   7.254   0.430   7.109
 2513W        W 2514   6.972   1.358   5.730
 2514W        W 2515   5.280   3.488   7.207
 2515W        W 2516   5.135   0.117   3.934
 2516W        W 2517   6.674   2.716   3.877
 2517W        W 2518   4.443   0.809   6.763
 2518W        W 2519   4.877   2.803   6.625
 2519W        W 2520   7.003   0.794   6.423
 2520W        W 2521   6.214   3.453   4.391
 2521W        W 2522   6.453   2.072   5.758
 2522W        W 2523   4.703   0.488   6.425
 2523W        W 2524   5.172   1.557   7.182
 2524W        W 2525   4.675   2.736   4.376
 2525W        W 2526   6.430   2.234   4.640
 2526W        W 2527   4.198   0.860   6.364
 2527W        W 2528   5.527   2.922   4.828
 2528W        W 2529   7.277   1.482   5.009
 2529W        W 2530   5.499   0.115   6.728
 2530W        W 2531   6.279   2.820   5.807
 2531W        W 2532   6.582   3.164   5.515
 2532W        W 2533   5.801   2.966   3.943
 2533W        W 2534   3.811   2.858   6.785
 2534W        W 2535   4.554   0.850   6.023
 2535W        W 2536   4.524   0.198   5.133
 2536W        W 2537   6.145   1.040   5.825
 2537W        W 2538   4.943   2.211   4.025
 2538W        W 2539   6.941   2.153   5.524
 2539W        W 2540   6.655   3.593   4.744
 2540W        W 2541   4.754   0.613   5.189
 2541W        W 2542   4.523   2.106   5.279
 2542W        W 2543   4.836   3.517   6.029
 2543W        W 2544   6.062   1.801   5.994
 2544W        W 2545   3.911   1.599   3.909
 2545W        W 2546   7.045   3.257   4.606
 2546W        W 2547   6.882   0.581   4.225
 2547W        W 2548   5.021   0.100   6.628
 2548W        W 2549   6.727   2.902   5.086
 2549W        W 2550   6.756   1.458   4.991
 2550W        W 2551   4.873   1.131   5.207
 2551W        W 2552   5.118   1.393   6.531
 2552W        W 2553   6.229   2.546   6.394
 2553W        W 2554   4.879   1.000   6.506
 2554W        W 2555   4.858   3.466   5.122
 2555W        W 2556   4.175   3.425   6.756
 2556W        W 2557   4.287   2.786   3.886
 2557W        W 2558   6.804   2.544   4.696
 2558W        W 2559   4.408   1.336   6.582
 2559W        W 2560   7.181   1.266   4.063
 2560W        W 2561   4.926   2.323   4.534
 2561W        W 2562   6.025   1.705   6.615
 2562W        W 2563   5.916   1.333   6.159
 2563W        W 2564   4.476   1.705   6.188
 2564W        W 2565   6.686   3.593   6.017
 2565W        W 2566   6.477   0.227   7.011
 2566W        W 2567   4.141   0.377   6.598
 2567W        W 2568   4.480   1.400   5.651
 2568W        W 2569   4.849   1.214   3.773
 2569W        W 2570   3.652   2.973   6.318
 2570W        W 2571   5.237   1.682   5.761
 2571W        W 2572   5.060   0.707   3.866
 2572W        W 2573   4.195   1.523   4.647
 2573W        W 2574   3.966   3.375   6.084
 2574W        W 2575   6.761   1.601   4.192
 2575W        W 2576   6.856   0.517   6.878
 2576W        W 2577   6.292   2.726   4.841
 2577W        W 2578   3.890   1.650   7.018
 2578W        W 2579   6.376   2.589   4.325
 2579W        W 2580   5.278   1.647   4.410
 2580W        W 2581   6.465   0.451   3.933
 2581W        W 2582   6.530   1.058   6.119
 2582W        W 2583   4.239   1.651   5.326
 2583W        W 2584   4.533   2.590   4.975
 2584W        W 2585   6.296   1.210   4.940
 2585W        W 2586   5.319   0.589   5.636
 2586W        W 2587   7.281   2.500   6.147
 2587W        W 2588   7.199   0.487   5.708
 2588W        W 2589   3.738   3.317   5.084
 2589W        W 2590   4.247   2.504   4.620
 2590W        W 2591   4.162   0.121   7.173
 2591W        W 2592   5.281   2.974   7.275
 2592W        W 2593   7.036   1.942   5.065
 2593W        W 2594   6.390   2.119   3.945
 2594W        W 2595   5.685   3.640   6.157
 2595W        W 2596   6.542   2.362   7.194
 2596W        W 2597   5.357   0.072   4.474
 2597W        W 2598   6.070   0.941   5.333
 2598W        W 2599   3.756   2.528   5.665
 2599W        W 2600   5.009   0.490   4.306
 2600W        W 2601   4.813   1.974   7.155
 2601W        W 2602   5.807   0.955   4.869
 2602W        W 2603   6.012   2.365   5.991
 2603W        W 2604   4.166   2.970   6.426
 2604W        W 2605   4.757   2.953   7.149
 2605W        W 2606   4.608   0.750   4.163
 2606W        W 2607   6.125   0.892   4.488
 2607W        W 2608   6.083   3.000   6.725
 2608W        W 2609   4.768   1.592   5.324
 2609W        W 2610   4.423   3.290   6.189
 2610W        W 2611   7.168   3.407   3.790
 2611W        W 2612   4.031   2.079   6.786
 2612W        W 2613   6.026   2.341   5.474
 2613W        W 2614   4.462   1.990   4.716
 2614W        W 2615   4.833   2.997   6.111
 2615W        W 2616   5.211   0.416   5.152
 2616W        W 2617   3.822   2.400   4.082
 2617W        W 2618   5.341   1.351   3.952
 2618W        W 2619   3.987   1.900   4.971
 2619W        W 2620   5.277   0.542   6.435
 2620W        W 2621   5.696   3.254   7.113
 2621W        W 2622   7.254   2.348   6.635
 2622W        W 2623   6.662   3.146   7.246
 2623W        W 2624   4.401   3.602   5.724
 2624W        W 2625   7.260   2.224   4.598
 2625W        W 2626   5.790   1.491   5.111
 2626W        W 2627   5.557   0.103   5.001
 2627W        W 2628   4.616   3.087   4.838
 2628W        W 2629   5.115   0.828   6.063
 2629W        W 2630   4.815   0.197   5.532
 2630W        W 2631   3.878   3.019   4.080
 2631W        W 2632   5.694   2.383   4.798
 2632W        W 2633   4.569   3.178   6.677
 2633W        W 2634   4.046   2.001   4.373
 2634W        W 2635   3.931   0.544   5.372
 2635W        W 2636   5.479   2.509   5.429
 2636W        W 2637   3.731   0.363   4.449
 2637W        W 2638   6.395   1.569   6.376
 2638W        W 2639   6.272   0.955   3.948
 2639W        W 2640   6.789   2.627   5.596
 2640W        W 2641   5.450   3.111   5.427
 2641W        W 2642   4.862   3.215   4.338
 2642W        W 2643   6.144   0.118   3.768
 2643W        W 2644   3.944   3.378   5.509
 2644W        W 2645   6.141   1.136   7.144
 2645W        W 2646   4.124   0.666   7.143
 2646W        W 2647   3.855   1.266   4.476
 2647W        W 2648   4.546   1.255   4.201
 2648W        W 2649   6.309   1.582   7.018
 2649W        W 2650   4.652   1.863   5.727
 2650W        W 2651   6.126   0.149   4.847
 2651W        W 2652   5.257   3.580   5.350
 2652W        W 2653   6.471   3.042   6.287
 2653W        W 2654   6.055   3.191   5.398
 2654W        W 2655   6.074   2.171   4.992
 2655W        W 2656   5.536   0.396   4.063
 2656W        W 2657   7.217   0.024   4.785
 2657W        W 2658   4.905   1.659   3.948
 2658W        W 2659   7.071   0.996   4.938
 2659W        W 2660   5.763   2.166   3.815
 2660W        W 2661   6.699   2.366   6.563
 2661W        W 2662   6.353   3.067   4.030
 2662W        W 2663   4.968   0.742   6.936
 2663W        W 2664   4.788   1.326   6.177
 2664W        W 2665   6.880   2.821   6.454
 2665W        W 2666   5.980   0.771   6.831
 2666W        W 2667   3.824   1.242   6.608
 2667W        W 2668   5.584   1.719   6.334
 2668W        W 2669   3.941   2.477   4.991
 2669W        W 2670   4.088   1.774   5.881
 2670W        W 2671   6.405   2.060   6.231
 2671W        W 2672   6.177   3.440   7.042
 2672W        W 2673   6.073   1.179   6.595
 2673W        W 2674   6.350   3.233   5.000
 2674W        W 2675   5.352   2.953   6.323
 2675W        W 2676   4.837   3.308   5.592
 2676W        W 2677   6.642   2.479   6.011
 2677W        W 2678   5.692   2.551   7.148
 2678W        W 2679   4.297   2.504   5.487
 2679W        W 2680   6.643   2.263   5.132
 2680W        W 2681   6.284   3.329   5.883
 2681W        W 2682   4.262   3.058   5.753
 2682W        W 2683   5.283   1.110   6.963
 2683W        W 2684   5.042   2.531   7.112
 2684W        W 2685   5.168   2.769   4.489
 2685W        W 2686   4.389   1.509   3.748
 2686W        W 2687   3.728   7.239   3.359
 2687W        W 2688   4.104   6.132   2.882
 2688W        W 2689   6.809   5.862   0.652
 2689W        W 2690   6.939   6.947   2.679
 2690W        W 2691   4.857   6.938   0.205
 2691W        W 2692   4.940   5.090   1.188
 2692W        W 2693   4.455   4.938   1.352
 2693W        W 2694   5.446   5.753   0.786
 2694W        W 2695   5.121   6.845   3.141
 2695W        W 2696   3.770   4.406   3.104
 2696W        W 2697   4.532   3.686   2.906
 2697W        W 2698   6.226   4.074   1.793
 2698W        W 2699   6.445   4.379   3.454
 2699W        W 2700   3.910   6.790   3.600
 2700W        W 2701   5.432   6.180   0.332
 2701W        W 2702   3.864   4.963   2.025
 2702W        W 2703   4.757   4.854   3.262
 2703W        W 2704   7.216   4.713   1.761
 2704W        W 2705   6.980   5.756   2.620
 2705W        W 2706   5.288   5.089   1.647
 2706W        W 2707   5.834   6.428   2.016
 2707W        W 2708   4.334   5.862   2.248
 2708W        W 2709   3.693   5.390   1.819
 2709W        W 2710   4.729   5.362   3.011
 2710W        W 2711   7.000   5.145   3.265
 2711W        W 2712   4.616   6.589   1.710
 2712W        W 2713   5.737   6.278   2.844
 2713W        W 2714   4.957   4.918   2.069
 2714W        W 2715   5.249   5.702   1.712
 2715W        W 2716   6.246   6.475   3.560
 2716W        W 2717   5.325   5.795   3.570
 2717W        W 2718   5.306   5.511   3.048
 2718W        W 2719   3.715   4.902   3.570
 2719W        W 2720   6.547   6.437   3.169
 2720W        W 2721   4.128   4.019   1.167
 2721W        W 2722   4.655   6.277   2.166
 2722W        W 2723   6.531   4.460   2.023
 2723W        W 2724   6.816   4.413   0.118
 2724W        W 2725   7.281   5.214   2.424
 2725W        W 2726   5.248   6.921   2.177
 2726W        W 2727   7.022   6.387   0.615
 2727W        W 2728   4.544   7.219   1.045
 2728W        W 2729   4.341   3.973   2.471
 2729W        W 2730   6.964   4.991   2.746
 2730W        W 2731   6.369   5.413   1.205
 2731W        W 2732   6.335   5.101   0.232
 2732W        W 2733   5.543   6.245   2.372
 2733W        W 2734   5.349   4.575   1.571
 2734W        W 2735   5.949   6.662   2.565
 2735W        W 2736   6.820   5.453   0.987
 2736W        W 2737   5.722   4.111   1.003
 2737W        W 2738   4.379   6.805   0.686
 2738W        W 2739   3.750   4.304   1.285
 2739W        W 2740   6.536   4.911   1.759
 2740W        W 2741   3.994   6.528   1.674
 2741W        W 2742   5.335   6.878   0.544
 2742W        W 2743   6.727   4.904   0.008
 2743W        W 2744   3.750   6.662   2.172
 2744W        W 2745   4.541   6.234   2.652
 2745W        W 2746   4.914   5.594   1.271
 2746W        W 2747   4.936   3.999   2.364
 2747W        W 2748   7.165   3.761   1.661
 2748W        W 2749   4.384   5.633   0.129
 2749W        W 2750   4.039   4.666   0.308
 2750W        W 2751   4.101   6.622   1.102
 2751W        W 2752   5.232   6.105   1.350
 2752W        W 2753   6.564   6.964   3.064
 2753W        W 2754   5.490   4.606   0.748
 2754W        W 2755   6.873   7.004   1.520
 2755W        W 2756   6.550   4.857   3.118
 2756W        W 2757   7.263   6.513   1.252
 2757W        W 2758   5.890   5.805   2.736
 2758W        W 2759   3.656   5.356   0.942
 2759W        W 2760   4.767   5.771   2.515
 2760W        W 2761   5.971   5.035   0.893
 2761W        W 2762   5.848   5.525   0.997
 2762W        W 2763   4.191   4.945   2.471
 2763W        W 2764   4.176   4.821   3.393
 2764W        W 2765   4.066   3.738   1.552
 2765W        W 2766   5.834   4.085   2.113
 2766W        W 2767   5.482   4.270   3.276
 2767W        W 2768   5.837   4.419   0.454
 2768W        W 2769   7.020   6.812   3.208
 2769W        W 2770   5.987   3.893   3.247
 2770W        W 2771   7.006   6.194   3.369
 2771W        W 2772   6.436   4.361   2.965
 2772W        W 2773   6.236   4.299   1.235
 2773W        W 2774   6.629   5.433   3.639
 2774W        W 2775   4.369   7.009   1.625
 2775W        W 2776   5.027   4.726   0.611
 2776W        W 2777   4.596   4.010   3.275
 2777W        W 2778   6.648   4.494   0.956
 2778W        W 2779   7.015   4.976   0.901
 2779W        W 2780   4.758   7.193   3.372
 2780W        W 2781   4.684   3.729   0.607
 2781W        W 2782   7.005   4.263   1.642
 2782W        W 2783   7.155   6.512   0.087
 2783W        W 2784   4.062   5.715   1.789
 2784W        W 2785   5.979   4.302   0.019
 2785W        W 2786   7.113   6.634   1.739
 2786W        W 2787   7.152   3.828   2.489
 2787W        W 2788   5.597   5.040   3.043
 2788W        W 2789   5.690   6.379   0.746
 2789W        W 2790   6.090   5.673   3.486
 2790W        W 2791   5.764   3.650   1.795
 2791W        W 2792   4.376   4.553   1.858
 2792W        W 2793   3.930   5.753   2.632
 2793W        W 2794   5.789   6.946   1.338
 2794W        W 2795   6.983   4.543   2.210
 2795W        W 2796   5.620   6.890   2.977
 2796W        W 2797   6.963   5.949   0.182
 2797W        W 2798   5.398   5.432   1.243
 2798W        W 2799   7.250   3.943   2.984
 2799W        W 2800   5.616   4.664   2.023
 2800W        W 2801   6.468   4.962   0.861
 2801W        W 2802   6.755   4.695   0.503
 2802W        W 2803   6.564   6.735   0.892
 2803W        W 2804   6.398   6.338   1.688
 2804W        W 2805   5.727   5.627   1.652
 2805W        W 2806   6.608   5.415   1.719
 2806W        W 2807   3.983   4.430   2.143
 2807W        W 2808   6.761   5.482   2.970
 2808W        W 2809   7.112   7.100   2.116
 2809W        W 2810   5.042   6.544   1.518
 2810W        W 2811   6.049   7.077   2.842
 2811W        W 2812   6.043   4.407   2.606
 2812W        W 2813   5.250   7.115   2.667
 2813W        W 2814   6.947   4.069   1.133
 2814W        W 2815   6.738   5.388   2.434
 2815W        W 2816   3.721   4.709   2.472
 2816W        W 2817   6.581   4.504   1.490
 2817W        W 2818   6.992   4.655   3.267
 2818W        W 2819   5.877   6.354   1.485
 2819W        W 2820   5.133   6.945   1.098
 2820W        W 2821   4.248   4.125   0.356
 2821W        W 2822   5.352   3.779   2.166
 2822W        W 2823   4.380   6.899   0.014
 2823W        W 2824   4.754   5.365   0.765
 2824W        W 2825   5.238   4.352   1.068
 2825W        W 2826   6.594   3.949   1.496
 2826W        W 2827   6.314   7.231   1.824
 2827W        W 2828   5.726   6.879   2.164
 2828W        W 2829   5.122   5.916   2.125
 2829W        W 2830   6.892   6.639   2.251
 2830W        W 2831   4.586   4.142   1.020
 2831W        W 2832   5.108   6.439   1.980
 2832W        W 2833   4.591   4.370   0.045
 2833W        W 2834   5.392   4.979   2.439
 2834W        W 2835   6.240   3.845   2.309
 2835W        W 2836   3.660   5.688   2.194
 2836W        W 2837   5.364   5.506   0.352
 2837W        W 2838   4.632   3.821   0.122
 2838W        W 2839   5.370   4.902   1.173
 2839W        W 2840   6.340   3.878   2.872
 2840W        W 2841   4.928   5.890   2.981
 2841W        W 2842   5.732   5.672   3.198
 2842W        W 2843   6.349   5.702   3.091
 2843W        W 2844   5.633   3.842   3.596
 2844W        W 2845   4.855   4.458   1.989
 2845W        W 2846   4.281   4.414   1.387
 2846W        W 2847   4.067   7.126   1.063
 2847W        W 2848   5.399   6.456   3.188
 2848W        W 2849   4.434   5.941   0.547
 2849W        W 2850   6.114   5.326   1.768
 2850W        W 2851   6.394   5.125   2.167
 2851W        W 2852   5.599   5.799   2.101
 2852W        W 2853   6.069   6.173   0.233
 2853W        W 2854   5.741   4.194   1.561
 2854W        W 2855   7.220   4.472   0.829
 2855W        W 2856   3.714   7.061   2.860
 2856W        W 2857   4.131   6.287   2.392
 2857W        W 2858   3.698   7.133   0.624
 2858W        W 2859   5.597   4.403   2.430
 2859W        W 2860   4.960   6.426   0.279
 2860W        W 2861   6.865   6.808   0.465
 2861W        W 2862   5.840   5.461   0.479
 2862W        W 2863   4.683   4.652   0.996
 2863W        W 2864   5.515   4.562   0.048
 2864W        W 2865   6.099   6.127   3.226
 2865W        W 2866   6.452   4.033   0.843
 2866W        W 2867   3.782   3.881   0.291
 2867W        W 2868   5.068   6.200   2.581
 2868W        W 2869   4.867   6.116   1.673
 2869W        W 2870   4.609   6.068   0.071
 2870W        W 2871   3.850   6.309   0.839
 2871W        W 2872   4.354   5.379   3.281
 2872W        W 2873   5.058   3.939   3.467
 2873W        W 2874   5.767   4.081   2.823
 2874W        W 2875   4.962   3.849   1.104
 2875W        W 2876   6.021   3.926   0.609
 2876W        W 2877   3.966   3.858   2.186
 2877W        W 2878   4.014   4.821   1.556
 2878W        W 2879   6.703   3.929   1.962
 2879W        W 2880   4.125   4.427   0.776
 2880W        W 2881   6.696   4.115   2.392
 2881W        W 2882   4.384   4.076   1.896
 2882W        W 2883   5.498   4.648   2.836
 2883W        W 2884   3.646   4.338   0.314
 2884W        W 2885   4.432   5.727   2.875
 2885W        W 2886   5.790   5.125   2.054
 2886W        W 2887   3.803   5.711   0.047
 2887W        W 2888   4.538   6.122   3.173
 2888W        W 2889   4.059   5.289   2.804
 2889W        W 2890   5.050   5.394   2.598
 2890W        W 2891   7.216   5.363   2.851
 2891W        W 2892   7.204   5.563   0.537
 2892W        W 2893   6.067   5.895   0.636
 2893W        W 2894   6.541   7.195   0.331
 2894W        W 2895   5.718   5.185   3.473
 2895W        W 2896   4.048   6.152   3.513
 2896W        W 2897   7.254   4.074   3.465
 2897W        W 2898   6.972   5.002   2.086
 2898W        W 2899   5.280   7.132   3.563
 2899W        W 2900   5.135   3.761   0.290
 2900W        W 2901   6.674   6.360   0.233
 2901W        W 2902   4.443   4.453   3.119
 2902W        W 2903   4.877   6.447   2.981
 2903W        W 2904   7.003   4.438   2.779
 2904W        W 2905   6.453   5.716   2.114
 2905W        W 2906   4.703   4.132   2.781
 2906W        W 2907   5.172   5.201   3.538
 2907W        W 2908   4.675   6.380   0.732
 2908W        W 2909   6.430   5.878   0.996
 2909W        W 2910   4.198   4.504   2.720
 2910W        W 2911   5.527   6.566   1.184
 2911W        W 2912   7.277   5.126   1.365
 2912W        W 2913   5.499   3.759   3.084
 2913W        W 2914   6.279   6.464   2.163
 2914W        W 2915   6.582   6.808   1.871
 2915W        W 2916   5.801   6.610   0.299
 2916W        W 2917   3.811   6.502   3.141
 2917W        W 2918   4.554   4.494   2.379
 2918W        W 2919   4.524   3.842   1.489
 2919W        W 2920   6.145   4.684   2.181
 2920W        W 2921   4.943   5.855   0.381
 2921W        W 2922   6.941   5.797   1.880
 2922W        W 2923   4.268   6.555   3.303
 2923W        W 2924   6.655   7.237   1.100
 2924W        W 2925   4.754   4.257   1.545
 2925W        W 2926   4.523   5.750   1.635
 2926W        W 2927   4.836   7.161   2.385
 2927W        W 2928   6.062   5.445   2.350
 2928W        W 2929   7.045   6.901   0.962
 2929W        W 2930   6.882   4.225   0.581
 2930W        W 2931   6.727   6.546   1.442
 2931W        W 2932   6.756   5.102   1.347
 2932W        W 2933   4.873   4.775   1.563
 2933W        W 2934   5.118   5.037   2.887
 2934W        W 2935   6.229   6.190   2.750
 2935W        W 2936   4.879   4.644   2.862
 2936W        W 2937   4.858   7.110   1.478
 2937W        W 2938   4.175   7.069   3.112
 2938W        W 2939   4.287   6.430   0.242
 2939W        W 2940   4.408   4.980   2.938
 2940W        W 2941   7.181   4.910   0.419
 2941W        W 2942   4.926   5.967   0.890
 2942W        W 2943   6.025   5.349   2.971
 2943W        W 2944   5.916   4.977   2.515
 2944W        W 2945   4.476   5.349   2.544
 2945W        W 2946   6.686   7.237   2.373
 2946W        W 2947   6.477   3.871   3.367
 2947W        W 2948   4.141   4.021   2.954
 2948W        W 2949   4.480   5.044   2.007
 2949W        W 2950   4.849   4.858   0.129
 2950W        W 2951   3.652   6.617   2.674
 2951W        W 2952   5.237   5.326   2.117
 2952W        W 2953   4.195   5.167   1.003
 2953W        W 2954   3.966   7.019   2.440
 2954W        W 2955   6.761   5.245   0.548
 2955W        W 2956   6.856   4.161   3.234
 2956W        W 2957   6.292   6.370   1.197
 2957W        W 2958   3.890   5.294   3.374
 2958W        W 2959   6.856   3.758   0.670
 2959W        W 2960   6.376   6.233   0.681
 2960W        W 2961   5.278   5.291   0.766
 2961W        W 2962   6.465   4.095   0.289
 2962W        W 2963   6.530   4.702   2.475
 2963W        W 2964   4.239   5.295   1.682
 2964W        W 2965   4.533   6.234   1.331
 2965W        W 2966   6.296   4.854   1.296
 2966W        W 2967   5.319   4.233   1.992
 2967W        W 2968   7.281   6.144   2.503
 2968W        W 2969   7.199   4.131   2.064
 2969W        W 2970   3.738   6.961   1.440
 2970W        W 2971   4.247   6.148   0.976
 2971W        W 2972   4.162   3.765   3.529
 2972W        W 2973   5.281   6.618   3.631
 2973W        W 2974   7.036   5.586   1.421
 2974W        W 2975   6.390   5.763   0.301
 2975W        W 2976   5.685   7.284   2.513
 2976W        W 2977   6.542   6.006   3.550
 2977W        W 2978   5.357   3.716   0.830
 2978W        W 2979   6.070   4.585   1.689
 2979W        W 2980   3.756   6.172   2.021
 2980W        W 2981   5.009   4.134   0.662
 2981W        W 2982   5.807   4.599   1.225
 2982W        W 2983   6.012   6.009   2.347
 2983W        W 2984   4.166   6.614   2.782
 2984W        W 2985   4.757   6.597   3.505
 2985W        W 2986   4.608   4.394   0.519
 2986W        W 2987   6.083   6.644   3.081
 2987W        W 2988   4.768   5.236   1.680
 2988W        W 2989   4.423   6.934   2.545
 2989W        W 2990   7.168   7.051   0.146
 2990W        W 2991   4.031   5.723   3.142
 2991W        W 2992   6.026   5.985   1.830
 2992W        W 2993   4.462   5.634   1.072
 2993W        W 2994   4.833   6.641   2.467
 2994W        W 2995   5.211   4.060   1.508
 2995W        W 2996   3.822   6.044   0.438
 2996W        W 2997   5.341   4.995   0.308
 2997W        W 2998   3.987   5.544   1.327
 2998W        W 2999   5.277   4.186   2.791
 2999W        W 3000   7.042   5.641   3.317
 3000W        W 3001   5.696   6.898   3.469
 3001W        W 3002   7.254   5.992   2.991
 3002W        W 3003   6.662   6.790   3.602
 3003W        W 3004   4.401   7.246   2.080
 3004W        W 3005   7.260   5.868   0.954
 3005W        W 3006   5.790   5.135   1.467
 3006W        W 3007   5.557   3.747   1.357
 3007W        W 3008   4.616   6.731   1.194
 3008W        W 3009   4.815   3.841   1.888
 3009W        W 3010   3.878   6.663   0.436
 3010W        W 3011   5.694   6.027   1.154
 3011W        W 3012   4.569   6.822   3.033
 3012W        W 3013   4.046   5.645   0.729
 3013W        W 3014   3.931   4.188   1.728
 3014W        W 3015   5.479   6.153   1.785
 3015W        W 3016   3.731   4.007   0.805
 3016W        W 3017   6.395   5.213   2.732
 3017W        W 3018   6.272   4.599   0.304
 3018W        W 3019   6.789   6.271   1.952
 3019W        W 3020   5.450   6.755   1.783
 3020W        W 3021   4.862   6.859   0.694
 3021W        W 3022   6.144   3.762   0.124
 3022W        W 3023   3.944   7.022   1.865
 3023W        W 3024   6.141   4.780   3.500
 3024W        W 3025   4.124   4.310   3.499
 3025W        W 3026   3.855   4.910   0.832
 3026W        W 3027   4.546   4.899   0.557
 3027W        W 3028   6.309   5.226   3.374
 3028W        W 3029   4.652   5.507   2.083
 3029W        W 3030   6.126   3.793   1.203
 3030W        W 3031   5.257   7.224   1.706
 3031W        W 3032   6.471   6.686   2.643
 3032W        W 3033   6.074   5.815   1.348
 3033W        W 3034   5.536   4.040   0.419
 3034W        W 3035   7.217   3.668   1.141
 3035W        W 3036   4.905   5.303   0.304
 3036W        W 3037   7.071   4.640   1.294
 3037W        W 3038   5.763   5.810   0.171
 3038W        W 3039   6.699   6.010   2.919
 3039W        W 3040   6.353   6.711   0.386
 3040W        W 3041   4.968   4.386   3.292
 3041W        W 3042   4.788   4.970   2.533
 3042W        W 3043   6.880   6.465   2.810
 3043W        W 3044   5.980   4.415   3.187
 3044W        W 3045   3.824   4.886   2.964
 3045W        W 3046   5.584   5.363   2.690
 3046W        W 3047   3.941   6.121   1.347
 3047W        W 3048   4.088   5.418   2.237
 3048W        W 3049   6.405   5.704   2.587
 3049W        W 3050   6.177   7.084   3.398
 3050W        W 3051   6.073   4.823   2.951
 3051W        W 3052   6.350   6.877   1.356
 3052W        W 3053   5.352   6.597   2.679
 3053W        W 3054   4.837   6.952   1.948
 3054W        W 3055   6.642   6.123   2.367
 3055W        W 3056   5.692   6.195   3.504
 3056W        W 3057   4.297   6.148   1.843
 3057W        W 3058   6.643   5.907   1.488
 3058W        W 3059   6.284   6.973   2.239
 3059W        W 3060   4.262   6.702   2.109
 3060W        W 3061   5.283   4.754   3.319
 3061W        W 3062   5.734   6.920   0.830
 3062W        W 3063   5.042   6.175   3.468
 3063W        W 3064   4.389   5.153   0.104
 3064W        W 3065   3.728   7.239   7.003
 3065W        W 3066   4.104   6.132   6.526
 3066W        W 3067   6.939   6.947   6.323
 3067W        W 3068   4.857   6.938   3.849
 3068W        W 3069   4.940   5.090   4.832
 3069W        W 3070   4.455   4.938   4.996
 3070W        W 3071   5.446   5.753   4.430
 3071W        W 3072   5.121   6.845   6.785
 3072W        W 3073   3.770   4.406   6.748
 3073W        W 3074   4.532   3.686   6.550
 3074W        W 3075   6.226   4.074   5.437
 3075W        W 3076   6.445   4.379   7.098
 3076W        W 3077   3.811   4.171   6.223
 3077W        W 3078   3.910   6.790   7.244
 3078W        W 3079   5.432   6.180   3.976
 3079W        W 3080   3.864   4.963   5.669
 3080W        W 3081   4.757   4.854   6.906
 3081W        W 3082   7.216   4.713   5.405
 3082W        W 3083   6.980   5.756   6.264
 3083W        W 3084   5.288   5.089   5.291
 3084W        W 3085   5.834   6.428   5.660
 3085W        W 3086   4.334   5.862   5.892
 3086W        W 3087   3.693   5.390   5.463
 3087W        W 3088   4.729   5.362   6.655
 3088W        W 3089   7.000   5.145   6.909
 3089W        W 3090   4.616   6.589   5.354
 3090W        W 3091   5.737   6.278   6.488
 3091W        W 3092   4.957   4.918   5.713
 3092W        W 3093   5.249   5.702   5.356
 3093W        W 3094   6.246   6.475   7.204
 3094W        W 3095   5.325   5.795   7.214
 3095W        W 3096   5.306   5.511   6.692
 3096W        W 3097   3.715   4.902   7.214
 3097W        W 3098   6.547   6.437   6.813
 3098W        W 3099   4.128   4.019   4.811
 3099W        W 3100   4.655   6.277   5.810
 3100W        W 3101   7.118   6.060   5.100
 3101W        W 3102   6.531   4.460   5.667
 3102W        W 3103   6.816   4.413   3.762
 3103W        W 3104   7.281   5.214   6.068
 3104W        W 3105   5.248   6.921   5.821
 3105W        W 3106   7.022   6.387   4.259
 3106W        W 3107   4.151   7.173   4.013
 3107W        W 3108   4.544   7.219   4.689
 3108W        W 3109   4.341   3.973   6.115
 3109W        W 3110   6.964   4.991   6.390
 3110W        W 3111   6.369   5.413   4.849
 3111W        W 3112   6.335   5.101   3.876
 3112W        W 3113   5.543   6.245   6.016
 3113W        W 3114   5.349   4.575   5.215
 3114W        W 3115   5.949   6.662   6.209
 3115W        W 3116   6.820   5.453   4.631
 3116W        W 3117   5.722   4.111   4.647
 3117W        W 3118   4.379   6.805   4.330
 3118W        W 3119   3.750   4.304   4.929
 3119W        W 3120   6.536   4.911   5.403
 3120W        W 3121   3.994   6.528   5.318
 3121W        W 3122   5.335   6.878   4.188
 3122W        W 3123   6.727   4.904   3.652
 3123W        W 3124   3.750   6.662   5.816
 3124W        W 3125   4.541   6.234   6.296
 3125W        W 3126   4.914   5.594   4.915
 3126W        W 3127   4.936   3.999   6.008
 3127W        W 3128   7.165   3.761   5.305
 3128W        W 3129   4.384   5.633   3.773
 3129W        W 3130   4.039   4.666   3.952
 3130W        W 3131   4.101   6.622   4.746
 3131W        W 3132   5.232   6.105   4.994
 3132W        W 3133   6.564   6.964   6.708
 3133W        W 3134   5.490   4.606   4.392
 3134W        W 3135   6.873   7.004   5.164
 3135W        W 3136   6.550   4.857   6.762
 3136W        W 3137   7.263   6.513   4.896
 3137W        W 3138   5.890   5.805   6.380
 3138W        W 3139   3.656   5.356   4.586
 3139W        W 3140   4.767   5.771   6.159
 3140W        W 3141   5.971   5.035   4.537
 3141W        W 3142   5.848   5.525   4.641
 3142W        W 3143   4.191   4.945   6.115
 3143W        W 3144   4.176   4.821   7.037
 3144W        W 3145   4.066   3.738   5.196
 3145W        W 3146   5.834   4.085   5.757
 3146W        W 3147   5.482   4.270   6.920
 3147W        W 3148   5.837   4.419   4.098
 3148W        W 3149   7.020   6.812   6.852
 3149W        W 3150   5.987   3.893   6.891
 3150W        W 3151   7.006   6.194   7.013
 3151W        W 3152   6.436   4.361   6.609
 3152W        W 3153   6.236   4.299   4.879
 3153W        W 3154   6.629   5.433   7.283
 3154W        W 3155   5.027   4.726   4.255
 3155W        W 3156   4.596   4.010   6.919
 3156W        W 3157   6.648   4.494   4.600
 3157W        W 3158   7.015   4.976   4.545
 3158W        W 3159   4.684   3.729   4.251
 3159W        W 3160   7.005   4.263   5.286
 3160W        W 3161   7.155   6.512   3.731
 3161W        W 3162   4.062   5.715   5.433
 3162W        W 3163   5.979   4.302   3.663
 3163W        W 3164   7.113   6.634   5.383
 3164W        W 3165   7.152   3.828   6.133
 3165W        W 3166   5.597   5.040   6.687
 3166W        W 3167   5.690   6.379   4.390
 3167W        W 3168   6.090   5.673   7.130
 3168W        W 3169   5.764   3.650   5.439
 3169W        W 3170   4.376   4.553   5.502
 3170W        W 3171   3.930   5.753   6.276
 3171W        W 3172   5.789   6.946   4.982
 3172W        W 3173   6.983   4.543   5.854
 3173W        W 3174   5.620   6.890   6.621
 3174W        W 3175   6.963   5.949   3.826
 3175W        W 3176   5.398   5.432   4.887
 3176W        W 3177   7.250   3.943   6.628
 3177W        W 3178   5.399   5.778   6.222
 3178W        W 3179   5.616   4.664   5.667
 3179W        W 3180   6.468   4.962   4.505
 3180W        W 3181   6.755   4.695   4.147
 3181W        W 3182   6.564   6.735   4.536
 3182W        W 3183   6.398   6.338   5.332
 3183W        W 3184   6.294   5.417   4.310
 3184W        W 3185   5.727   5.627   5.296
 3185W        W 3186   6.608   5.415   5.363
 3186W        W 3187   3.983   4.430   5.787
 3187W        W 3188   6.761   5.482   6.614
 3188W        W 3189   7.112   7.100   5.760
 3189W        W 3190   5.042   6.544   5.162
 3190W        W 3191   6.049   7.077   6.486
 3191W        W 3192   6.043   4.407   6.250
 3192W        W 3193   5.250   7.115   6.311
 3193W        W 3194   6.947   4.069   4.777
 3194W        W 3195   3.721   4.709   6.116
 3195W        W 3196   6.581   4.504   5.134
 3196W        W 3197   6.992   4.655   6.911
 3197W        W 3198   5.877   6.354   5.129
 3198W        W 3199   5.133   6.945   4.742
 3199W        W 3200   4.248   4.125   4.000
 3200W        W 3201   5.352   3.779   5.810
 3201W        W 3202   4.380   6.899   3.658
 3202W        W 3203   4.754   5.365   4.409
 3203W        W 3204   5.408   5.994   6.722
 3204W        W 3205   5.238   4.352   4.712
 3205W        W 3206   6.594   3.949   5.140
 3206W        W 3207   6.314   7.231   5.468
 3207W        W 3208   5.726   6.879   5.808
 3208W        W 3209   5.122   5.916   5.769
 3209W        W 3210   6.892   6.639   5.895
 3210W        W 3211   4.586   4.142   4.664
 3211W        W 3212   5.108   6.439   5.624
 3212W        W 3213   4.591   4.370   3.689
 3213W        W 3214   5.392   4.979   6.083
 3214W        W 3215   3.660   5.688   5.838
 3215W        W 3216   5.364   5.506   3.996
 3216W        W 3217   4.632   3.821   3.766
 3217W        W 3218   5.370   4.902   4.817
 3218W        W 3219   4.928   5.890   6.625
 3219W        W 3220   5.732   5.672   6.842
 3220W        W 3221   5.633   3.842   7.240
 3221W        W 3222   4.855   4.458   5.633
 3222W        W 3223   4.281   4.414   5.031
 3223W        W 3224   4.067   7.126   4.707
 3224W        W 3225   5.399   6.456   6.832
 3225W        W 3226   4.434   5.941   4.191
 3226W        W 3227   6.114   5.326   5.412
 3227W        W 3228   6.394   5.125   5.811
 3228W        W 3229   5.599   5.799   5.745
 3229W        W 3230   6.069   6.173   3.877
 3230W        W 3231   5.741   4.194   5.205
 3231W        W 3232   7.220   4.472   4.473
 3232W        W 3233   3.714   7.061   6.504
 3233W        W 3234   4.131   6.287   6.036
 3234W        W 3235   3.698   7.133   4.268
 3235W        W 3236   5.597   4.403   6.074
 3236W        W 3237   4.960   6.426   3.923
 3237W        W 3238   6.865   6.808   4.109
 3238W        W 3239   5.840   5.461   4.123
 3239W        W 3240   4.683   4.652   4.640
 3240W        W 3241   5.515   4.562   3.692
 3241W        W 3242   6.099   6.127   6.870
 3242W        W 3243   6.452   4.033   4.487
 3243W        W 3244   3.782   3.881   3.935
 3244W        W 3245   5.068   6.200   6.225
 3245W        W 3246   4.867   6.116   5.317
 3246W        W 3247   4.609   6.068   3.715
 3247W        W 3248   3.850   6.309   4.483
 3248W        W 3249   4.354   5.379   6.925
 3249W        W 3250   5.058   3.939   7.111
 3250W        W 3251   5.767   4.081   6.467
 3251W        W 3252   4.962   3.849   4.748
 3252W        W 3253   6.021   3.926   4.253
 3253W        W 3254   3.966   3.858   5.830
 3254W        W 3255   4.014   4.821   5.200
 3255W        W 3256   6.703   3.929   5.606
 3256W        W 3257   4.125   4.427   4.420
 3257W        W 3258   6.696   4.115   6.036
 3258W        W 3259   7.092   5.318   3.721
 3259W        W 3260   4.384   4.076   5.540
 3260W        W 3261   5.498   4.648   6.480
 3261W        W 3262   3.646   4.338   3.958
 3262W        W 3263   4.432   5.727   6.519
 3263W        W 3264   5.790   5.125   5.698
 3264W        W 3265   5.657   7.204   3.994
 3265W        W 3266   3.803   5.711   3.691
 3266W        W 3267   4.538   6.122   6.817
 3267W        W 3268   4.059   5.289   6.448
 3268W        W 3269   5.050   5.394   6.242
 3269W        W 3270   6.818   3.753   6.504
 3270W        W 3271   7.216   5.363   6.495
 3271W        W 3272   7.204   5.563   4.181
 3272W        W 3273   6.067   5.895   4.280
 3273W        W 3274   6.541   7.195   3.975
 3274W        W 3275   5.718   5.185   7.117
 3275W        W 3276   4.048   6.152   7.157
 3276W        W 3277   7.254   4.074   7.109
 3277W        W 3278   6.972   5.002   5.730
 3278W        W 3279   5.135   3.761   3.934
 3279W        W 3280   6.674   6.360   3.877
 3280W        W 3281   4.443   4.453   6.763
 3281W        W 3282   4.877   6.447   6.625
 3282W        W 3283   7.003   4.438   6.423
 3283W        W 3284   6.214   7.097   4.391
 3284W        W 3285   6.453   5.716   5.758
 3285W        W 3286   4.703   4.132   6.425
 3286W        W 3287   5.172   5.201   7.182
 3287W        W 3288   4.675   6.380   4.376
 3288W        W 3289   6.430   5.878   4.640
 3289W        W 3290   4.198   4.504   6.364
 3290W        W 3291   5.527   6.566   4.828
 3291W        W 3292   7.277   5.126   5.009
 3292W        W 3293   5.499   3.759   6.728
 3293W        W 3294   6.279   6.464   5.807
 3294W        W 3295   6.582   6.808   5.515
 3295W        W 3296   5.801   6.610   3.943
 3296W        W 3297   3.811   6.502   6.785
 3297W        W 3298   4.554   4.494   6.023
 3298W        W 3299   4.524   3.842   5.133
 3299W        W 3300   6.145   4.684   5.825
 3300W        W 3301   4.943   5.855   4.025
 3301W        W 3302   6.941   5.797   5.524
 3302W        W 3303   4.268   6.555   6.947
 3303W        W 3304   6.655   7.237   4.744
 3304W        W 3305   4.754   4.257   5.189
 3305W        W 3306   4.523   5.750   5.279
 3306W        W 3307   4.836   7.161   6.029
 3307W        W 3308   6.062   5.445   5.994
 3308W        W 3309   3.911   5.243   3.909
 3309W        W 3310   7.045   6.901   4.606
 3310W        W 3311   6.882   4.225   4.225
 3311W        W 3312   5.021   3.744   6.628
 3312W        W 3313   6.727   6.546   5.086
 3313W        W 3314   6.756   5.102   4.991
 3314W        W 3315   4.873   4.775   5.207
 3315W        W 3316   5.118   5.037   6.531
 3316W        W 3317   6.229   6.190   6.394
 3317W        W 3318   4.879   4.644   6.506
 3318W        W 3319   4.858   7.110   5.122
 3319W        W 3320   4.175   7.069   6.756
 3320W        W 3321   6.804   6.188   4.696
 3321W        W 3322   4.408   4.980   6.582
 3322W        W 3323   7.181   4.910   4.063
 3323W        W 3324   4.926   5.967   4.534
 3324W        W 3325   6.025   5.349   6.615
 3325W        W 3326   5.916   4.977   6.159
 3326W        W 3327   4.476   5.349   6.188
 3327W        W 3328   6.686   7.237   6.017
 3328W        W 3329   6.477   3.871   7.011
 3329W        W 3330   4.141   4.021   6.598
 3330W        W 3331   4.480   5.044   5.651
 3331W        W 3332   4.849   4.858   3.773
 3332W        W 3333   3.652   6.617   6.318
 3333W        W 3334   5.237   5.326   5.761
 3334W        W 3335   5.060   4.351   3.866
 3335W        W 3336   3.966   7.019   6.084
 3336W        W 3337   6.761   5.245   4.192
 3337W        W 3338   6.856   4.161   6.878
 3338W        W 3339   6.292   6.370   4.841
 3339W        W 3340   3.890   5.294   7.018
 3340W        W 3341   6.856   3.758   4.314
 3341W        W 3342   6.376   6.233   4.325
 3342W        W 3343   5.278   5.291   4.410
 3343W        W 3344   6.465   4.095   3.933
 3344W        W 3345   6.530   4.702   6.119
 3345W        W 3346   4.239   5.295   5.326
 3346W        W 3347   4.533   6.234   4.975
 3347W        W 3348   5.319   4.233   5.636
 3348W        W 3349   7.281   6.144   6.147
 3349W        W 3350   7.199   4.131   5.708
 3350W        W 3351   3.738   6.961   5.084
 3351W        W 3352   4.247   6.148   4.620
 3352W        W 3353   4.162   3.765   7.173
 3353W        W 3354   5.281   6.618   7.275
 3354W        W 3355   7.036   5.586   5.065
 3355W        W 3356   6.390   5.763   3.945
 3356W        W 3357   5.685   7.284   6.157
 3357W        W 3358   6.542   6.006   7.194
 3358W        W 3359   5.357   3.716   4.474
 3359W        W 3360   6.070   4.585   5.333
 3360W        W 3361   3.756   6.172   5.665
 3361W        W 3362   5.009   4.134   4.306
 3362W        W 3363   4.813   5.618   7.155
 3363W        W 3364   5.807   4.599   4.869
 3364W        W 3365   6.012   6.009   5.991
 3365W        W 3366   4.757   6.597   7.149
 3366W        W 3367   4.608   4.394   4.163
 3367W        W 3368   6.125   4.536   4.488
 3368W        W 3369   6.083   6.644   6.725
 3369W        W 3370   4.768   5.236   5.324
 3370W        W 3371   4.423   6.934   6.189
 3371W        W 3372   7.168   7.051   3.790
 3372W        W 3373   4.031   5.723   6.786
 3373W        W 3374   6.026   5.985   5.474
 3374W        W 3375   4.462   5.634   4.716
 3375W        W 3376   4.833   6.641   6.111
 3376W        W 3377   5.211   4.060   5.152
 3377W        W 3378   3.822   6.044   4.082
 3378W        W 3379   5.341   4.995   3.952
 3379W        W 3380   3.987   5.544   4.971
 3380W        W 3381   5.277   4.186   6.435
 3381W        W 3382   5.696   6.898   7.113
 3382W        W 3383   7.254   5.992   6.635
 3383W        W 3384   6.662   6.790   7.246
 3384W        W 3385   4.401   7.246   5.724
 3385W        W 3386   7.260   5.868   4.598
 3386W        W 3387   5.790   5.135   5.111
 3387W        W 3388   5.557   3.747   5.001
 3388W        W 3389   4.616   6.731   4.838
 3389W        W 3390   5.115   4.472   6.063
 3390W        W 3391   4.815   3.841   5.532
 3391W        W 3392   3.878   6.663   4.080
 3392W        W 3393   5.694   6.027   4.798
 3393W        W 3394   4.569   6.822   6.677
 3394W        W 3395   4.046   5.645   4.373
 3395W        W 3396   3.931   4.188   5.372
 3396W        W 3397   5.479   6.153   5.429
 3397W        W 3398   3.731   4.007   4.449
 3398W        W 3399   6.395   5.213   6.376
 3399W        W 3400   6.272   4.599   3.948
 3400W        W 3401   6.789   6.271   5.596
 3401W        W 3402   5.450   6.755   5.427
 3402W        W 3403   4.862   6.859   4.338
 3403W        W 3404   6.144   3.762   3.768
 3404W        W 3405   3.944   7.022   5.509
 3405W        W 3406   6.141   4.780   7.144
 3406W        W 3407   4.124   4.310   7.143
 3407W        W 3408   3.855   4.910   4.476
 3408W        W 3409   4.546   4.899   4.201
 3409W        W 3410   6.309   5.226   7.018
 3410W        W 3411   4.652   5.507   5.727
 3411W        W 3412   6.126   3.793   4.847
 3412W        W 3413   5.257   7.224   5.350
 3413W        W 3414   6.471   6.686   6.287
 3414W        W 3415   6.055   6.835   5.398
 3415W        W 3416   6.074   5.815   4.992
 3416W        W 3417   5.536   4.040   4.063
 3417W        W 3418   7.217   3.668   4.785
 3418W        W 3419   4.905   5.303   3.948
 3419W        W 3420   7.071   4.640   4.938
 3420W        W 3421   5.763   5.810   3.815
 3421W        W 3422   6.699   6.010   6.563
 3422W        W 3423   6.353   6.711   4.030
 3423W        W 3424   4.968   4.386   6.936
 3424W        W 3425   4.788   4.970   6.177
 3425W        W 3426   6.880   6.465   6.454
 3426W        W 3427   5.980   4.415   6.831
 3427W        W 3428   3.824   4.886   6.608
 3428W        W 3429   5.584   5.363   6.334
 3429W        W 3430   4.088   5.418   5.881
 3430W        W 3431   6.405   5.704   6.231
 3431W        W 3432   6.073   4.823   6.595
 3432W        W 3433   6.350   6.877   5.000
 3433W        W 3434   5.352   6.597   6.323
 3434W        W 3435   4.837   6.952   5.592
 3435W        W 3436   6.642   6.123   6.011
 3436W        W 3437   5.692   6.195   7.148
 3437W        W 3438   4.297   6.148   5.487
 3438W        W 3439   6.643   5.907   5.132
 3439W        W 3440   6.284   6.973   5.883
 3440W        W 3441   4.262   6.702   5.753
 3441W        W 3442   5.283   4.754   6.963
 3442W        W 3443   5.734   6.920   4.474
 3443W        W 3444   5.168   6.413   4.489
 3444W        W 3445   4.389   5.153   3.748
   7.00000   7.00000   7.00000
