10x10 board
   25
    0OFF   OFF1    0   0.500   0.500   0.500
    0OFF   OFF1    1   1.500   0.500   0.500
    0OFF   OFF1    2   2.500   0.500   0.500
    0OFF   OFF1    3   3.500   0.500   0.500
    0OFF   OFF1    4   4.500   0.500   0.500
    0OFF   OFF1   10   0.500   1.500   0.500
    0OFF   OFF1   11   1.500   1.500   0.500
    0OFF   OFF1   12   2.500   1.500   0.500
    0OFF   OFF1   13   3.500   1.500   0.500
    0OFF   OFF1   14   4.500   1.500   0.500
    0OFF   OFF1   20   0.500   2.500   0.500
    0OFF   OFF1   21   1.500   2.500   0.500
    0OFF   OFF1   22   2.500   2.500   0.500
    0OFF   OFF1   23   3.500   2.500   0.500
    0OFF   OFF1   24   4.500   2.500   0.500
    0OFF   OFF1   30   0.500   3.500   0.500
    0OFF   OFF1   31   1.500   3.500   0.500
    0OFF   OFF1   32   2.500   3.500   0.500
    0OFF   OFF1   33   3.500   3.500   0.500
    0OFF   OFF1   34   4.500   3.500   0.500
    0OFF   OFF1   40   0.500   4.500   0.500
    0OFF   OFF1   41   1.500   4.500   0.500
    0OFF   OFF1   42   2.500   4.500   0.500
    0OFF   OFF1   43   3.500   4.500   0.500
    0OFF   OFF1   44   4.500   4.500   0.500
   5.00000   5.00000   5.00000
