; reactants 1
[moleculetype]
A 1
[atoms]
1 W 1 A A 1 0
2 W 1 A A2 2 0
[bonds]
1 2 1 0.3 5000

[moleculetype]
B 1
[atoms]
1 W 1 B B 1 0
2 W 1 B B2 2 0
[bonds]
1 2 1 0.3 5000

[moleculetype]
C 1
[atoms]
1 W 1 C C 1 0
2 W 1 C C2 2 0
[bonds]
1 2 1 0.3 5000

; reactant 2
[moleculetype]
D 1
[atoms]
1 W 1 D D 1 0
2 W 1 D D2 2 0
[bonds]
1 2 1 0.3 5000

; solvent
[moleculetype]
W 1
[atoms]
1 W 1 W W 1 0

#ifdef DAEMON
[graph]
name A
atom 1 A *
atom 2 A2 *
bond 1 2

[graph]
name B
atom 1 B *
atom 2 B2 *
bond 1 2

[graph]
name C
atom 1 C *
atom 2 C2 *
bond 1 2

[graph]
name D
atom 1 D *
atom 2 D2 *
bond 1 2

[reaction]
a
[reactant]
D A
[condition]
r_max 1:1 2:1 0.5
angle_between 1:2 1:1 2:1 50 150
#ifdef RATE
rate 1
#endif
[rename]
1:1 W
2:1 W

[reaction]
b
[reactant]
D B
[condition]
r_max 1:1 2:1 0.5
angle_between 1:2 1:1 2:1 70 110
#ifdef RATE
rate 1
#endif
[rename]
1:1 W
2:1 W

[reaction]
c
[reactant]
D C
[condition]
r_max 1:1 2:1 0.5
angle_between 1:2 1:1 2:1 85 95
#ifdef RATE
rate 1
#endif
[rename]
1:1 W
2:1 W

#endif
