Written by MDAnalysis
   10
    0DIM   BNZ1    1   6.512   6.670   3.458
    0DIM   BNZ2    2   6.484   6.762   3.301
    0DIM   BNZ3    3   6.702   6.642   3.299
    0DIM    BS1    4   6.709   6.532   3.466
    0DIM    BS2    5   6.658   6.748   3.141
    0DIM   BNZ4    6   6.385   6.515   2.790
    0DIM   BNZ5    7   6.437   6.340   2.789
    0DIM   BNZ6    8   6.603   6.486   2.908
    0DIM    BS3    9   6.521   6.669   2.906
    0DIM    BS4   10   6.646   6.290   2.897
   8.75444   8.75444   6.19032   0.00000   0.00000   0.00000   0.00000   4.37722   4.37722
