BDT dimerization
 5071
    1BDT   BNZ1    1   5.915   1.531   0.569  0.1243  0.0349  0.4311
    1BDT   BNZ2    2   5.863   1.399   0.684 -0.0121 -0.2120  0.0945
    1BDT   BNZ3    3   5.671   1.476   0.540  0.1767  0.0217 -0.0354
    1BDT    BS1    4   5.744   1.617   0.424  0.3140  0.2736  0.3525
    1BDT    BS2    5   5.632   1.333   0.671  0.0241 -0.2485 -0.3758
    2BDT   BNZ1    6   3.536   6.827   0.516 -0.0624  0.3286  0.0073
    2BDT   BNZ2    7   3.702   6.750   0.509 -0.1355  0.1288  0.3376
    2BDT   BNZ3    8   3.631   6.836   0.283  0.3274  0.0295  0.1487
    2BDT    BS1    9   3.453   6.914   0.309  0.3785  0.2552 -0.1992
    2BDT    BS2   10   3.809   6.750   0.294  0.2117 -0.1689  0.5099
    3BDT   BNZ1   11   3.494   0.007   0.892  0.1211 -0.0375  0.0086
    3BDT   BNZ2   12   3.529  -0.169   0.929 -0.2230 -0.1025  0.0460
    3BDT   BNZ3   13   3.572  -0.023   1.130  0.3451 -0.0967 -0.0718
    3BDT    BS1   14   3.530   0.160   1.074  0.6845 -0.0377 -0.1048
    3BDT    BS2   15   3.605  -0.217   1.151 -0.0568 -0.1699 -0.0256
    4BDT   BNZ1   16   4.569   2.309   6.801 -0.1119  0.1143  0.0342
    4BDT   BNZ2   17   4.706   2.351   6.686 -0.0553 -0.3663 -0.0813
    4BDT   BNZ3   18   4.794   2.287   6.914 -0.1198 -0.1831 -0.0045
    4BDT    BS1   19   4.635   2.247   7.024 -0.1706  0.3381  0.1118
    4BDT    BS2   20   4.927   2.335   6.776 -0.0599 -0.6961 -0.1271
    5BDT   BNZ1   21   1.428   1.251   6.004 -0.2608  0.1551 -0.0002
    5BDT   BNZ2   22   1.358   1.372   6.122 -0.2364  0.0590  0.1140
    5BDT   BNZ3   23   1.462   1.176   6.242 -0.2247 -0.0478 -0.0677
    5BDT    BS1   24   1.532   1.057   6.102 -0.2532  0.0681 -0.1803
    5BDT    BS2   25   1.381   1.318   6.355 -0.2005 -0.1385  0.0643
    6BDT   BNZ1   26   3.876   1.637   1.774 -0.3192  0.2273  0.1948
    6BDT   BNZ2   27   3.992   1.771   1.731 -0.2326  0.1479  0.1810
    6BDT   BNZ3   28   4.031   1.688   1.966  0.0567 -0.2041  0.0143
    6BDT    BS1   29   3.899   1.546   1.996 -0.0657 -0.0903  0.0378
    6BDT    BS2   30   4.149   1.833   1.902  0.1181 -0.2596  0.0091
    7BDT   BNZ1   31   4.186   7.182   6.769  0.0689  0.1104 -0.2351
    7BDT   BNZ2   32   4.073   7.125   6.637 -0.2764  0.0219  0.0906
    7BDT   BNZ3   33   4.003   7.350   6.727  0.0845  0.1832 -0.0206
    7BDT    BS1   34   4.134   7.396   6.866  0.4323  0.2640 -0.3829
    7BDT    BS2   35   3.891   7.272   6.583 -0.3009  0.0780  0.3257
    8BDT   BNZ1   36   1.345   2.709   1.218  0.1469  0.2762 -0.0760
    8BDT   BNZ2   37   1.244   2.680   1.368 -0.2197  0.2542 -0.3208
    8BDT   BNZ3   38   1.300   2.463   1.252  0.1771  0.2606 -0.1503
    8BDT    BS1   39   1.407   2.513   1.094  0.5462  0.2833  0.1189
    8BDT    BS2   40   1.191   2.451   1.416 -0.2352  0.2379 -0.4159
    9BDT   BNZ1   41   4.110   3.305   5.439  0.0141  0.1893  0.0618
    9BDT   BNZ2   42   4.206   3.371   5.297 -0.0418  0.0297 -0.0510
    9BDT   BNZ3   43   4.002   3.511   5.343 -0.0275  0.0777 -0.1336
    9BDT    BS1   44   3.912   3.428   5.497  0.0340  0.2510 -0.0026
    9BDT    BS2   45   4.117   3.568   5.193 -0.0872 -0.0921 -0.2422
   10BDT   BNZ1   46   3.009   1.494   4.710 -0.1452 -0.1493 -0.1002
   10BDT   BNZ2   47   2.989   1.633   4.592  0.5801  0.1776  0.1344
   10BDT   BNZ3   48   2.821   1.648   4.780 -0.1280  0.0430 -0.4625
   10BDT    BS1   49   2.856   1.493   4.896 -0.8780 -0.2760 -0.7108
   10BDT    BS2   50   2.815   1.790   4.643  0.6841  0.3948 -0.1796
   11BDT   BNZ1   51   1.771   0.702   0.406 -0.2643  0.3968 -0.0608
   11BDT   BNZ2   52   1.626   0.687   0.516 -0.2278 -0.1797 -0.0742
   11BDT   BNZ3   53   1.571   0.612   0.282  0.0123 -0.1080 -0.1556
   11BDT    BS1   54   1.736   0.634   0.178 -0.0514  0.5264 -0.1280
   11BDT    BS2   55   1.425   0.603   0.416  0.0414 -0.7083 -0.1683
   12BDT   BNZ1   56   1.722   2.018   6.840  0.3738 -0.2105  0.0898
   12BDT   BNZ2   57   1.883   2.087   6.785  0.1849  0.1748  0.0001
   12BDT   BNZ3   58   1.727   2.269   6.860 -0.1391 -0.2115  0.2870
   12BDT    BS1   59   1.560   2.179   6.916  0.1053 -0.6107  0.3605
   12BDT    BS2   60   1.905   2.325   6.797 -0.3083  0.2127  0.1705
   13BDT   BNZ1   61   2.418   3.425   0.819 -0.1769  0.1499  0.1517
   13BDT   BNZ2   62   2.423   3.608   0.834 -0.0609  0.1461  0.1628
   13BDT   BNZ3   63   2.590   3.498   0.987  0.0657  0.0429 -0.0481
   13BDT    BS1   64   2.572   3.304   0.958 -0.0741  0.0549 -0.0455
   13BDT    BS2   65   2.582   3.695   0.991  0.1741  0.0463 -0.0207
   14BDT   BNZ1   66   4.691   3.632   6.028  0.0270  0.3820  0.4573
   14BDT   BNZ2   67   4.538   3.721   6.072 -0.3744 -0.0431 -0.0147
   14BDT   BNZ3   68   4.606   3.767   5.833 -0.0436 -0.2419  0.0387
   14BDT    BS1   69   4.771   3.664   5.804  0.3649  0.2503  0.5657
   14BDT    BS2   70   4.442   3.856   5.898 -0.4693 -0.6766 -0.4544
   15BDT   BNZ1   71   4.227   3.230   5.804  0.1019 -0.0631 -0.1193
   15BDT   BNZ2   72   4.062   3.309   5.818  0.0796 -0.1221 -0.0425
   15BDT   BNZ3   73   4.225   3.410   5.981  0.0429 -0.2541  0.0767
   15BDT    BS1   74   4.395   3.315   5.954  0.0708 -0.1794 -0.0185
   15BDT    BS2   75   4.041   3.483   5.981  0.0237 -0.3056  0.1456
   16BDT   BNZ1   76   3.556   2.834   0.667 -0.0676 -0.2537 -0.0860
   16BDT   BNZ2   77   3.669   2.878   0.804  0.0559 -0.0749 -0.2422
   16BDT   BNZ3   78   3.488   3.051   0.774  0.0159 -0.1247 -0.2920
   16BDT    BS1   79   3.377   2.989   0.624 -0.1169 -0.3192 -0.1137
   16BDT    BS2   80   3.620   3.083   0.919  0.1455  0.0634 -0.4516
   17BDT   BNZ1   81   4.074   2.351   5.986 -0.1785  0.0364 -0.1454
   17BDT   BNZ2   82   3.967   2.346   6.135 -0.0498 -0.1148 -0.0561
   17BDT   BNZ3   83   3.965   2.125   6.014  0.3444 -0.1957  0.0777
   17BDT    BS1   84   4.083   2.147   5.859  0.1741 -0.0166 -0.0331
   17BDT    BS2   85   3.855   2.139   6.178  0.4500 -0.3404  0.1555
   18BDT   BNZ1   86   4.594   2.931   0.390 -0.0929  0.2371 -0.0244
   18BDT   BNZ2   87   4.728   2.920   0.515 -0.2466  0.0871  0.1308
   18BDT   BNZ3   88   4.683   3.159   0.449  0.2453  0.1245 -0.0896
   18BDT    BS1   89   4.538   3.153   0.316  0.3827  0.2838 -0.2400
   18BDT    BS2   90   4.825   3.129   0.583  0.0482 -0.0377  0.0910
   19BDT   BNZ1   91   3.319   0.595   6.085 -0.0637  0.0787 -0.0143
   19BDT   BNZ2   92   3.231   0.548   5.932  0.0565 -0.0466 -0.0462
   19BDT   BNZ3   93   3.265   0.349   6.083  0.1258  0.0355  0.0472
   19BDT    BS1   94   3.360   0.416   6.241 -0.0134  0.1684  0.0745
   19BDT    BS2   95   3.171   0.316   5.912  0.2450 -0.1001  0.0073
   20BDT   BNZ1   96   4.934   0.961   0.036  0.1574 -0.0080 -0.2027
   20BDT   BNZ2   97   4.953   1.143   0.036  0.0948 -0.0014 -0.0854
   20BDT   BNZ3   98   5.173   1.028   0.079  0.1427  0.0453 -0.2046
   20BDT    BS1   99   5.135   0.835   0.075  0.2085  0.0356 -0.3256
   20BDT    BS2  100   5.174   1.226   0.076  0.0740  0.0484 -0.0736
   21BDT   BNZ1  101   3.433   2.821   2.143 -0.1508  0.1135 -0.4327
   21BDT   BNZ2  102   3.520   2.813   1.982 -0.0465 -0.0727 -0.3691
   21BDT   BNZ3  103   3.332   2.646   1.992 -0.1877  0.0847 -0.3747
   21BDT    BS1  104   3.250   2.668   2.170 -0.2908  0.2792 -0.4475
   21BDT    BS2  105   3.437   2.652   1.825 -0.0682 -0.1205 -0.3084
   22BDT   BNZ1  106   2.319   2.177   6.705  0.0046  0.1864  0.2176
   22BDT   BNZ2  107   2.492   2.228   6.673  0.0200 -0.0353 -0.0655
   22BDT   BNZ3  108   2.331   2.342   6.515 -0.0189 -0.3229 -0.2387
   22BDT    BS1  109   2.152   2.277   6.564 -0.0345 -0.0586  0.0933
   22BDT    BS2  110   2.523   2.385   6.494 -0.0086 -0.5348 -0.5118
   23BDT   BNZ1  111   0.990   1.198   6.108 -0.2813 -0.0817  0.2290
   23BDT   BNZ2  112   1.044   1.099   6.252 -0.0025  0.0477  0.2164
   23BDT   BNZ3  113   1.157   1.022   6.041 -0.2443  0.0007  0.1025
   23BDT    BS1  114   1.088   1.137   5.897 -0.5338 -0.1418  0.1298
   23BDT    BS2  115   1.204   0.926   6.207  0.0634  0.1387  0.0990
   24BDT   BNZ1  116   3.075   3.343   0.138  0.1427 -0.1220 -0.0487
   24BDT   BNZ2  117   3.151   3.413   0.289  0.0715  0.0769 -0.1034
   24BDT   BNZ3  118   3.131   3.163   0.304  0.1563  0.0854  0.1748
   24BDT    BS1  119   3.049   3.104   0.135  0.2295 -0.1338  0.2150
   24BDT    BS2  120   3.211   3.255   0.459  0.0753  0.2914  0.0942
   25BDT   BNZ1  121   4.088   6.974   7.179  0.1563 -0.1882  0.0535
   25BDT   BNZ2  122   4.080   6.975   6.996  0.4823 -0.0131  0.0367
   25BDT   BNZ3  123   4.196   6.768   7.081  0.0615 -0.2429  0.0634
   25BDT    BS1  124   4.196   6.782   7.277 -0.2691 -0.4180  0.0684
   25BDT    BS2  125   4.178   6.786   6.885  0.4319 -0.0415  0.0407
   26BDT   BNZ1  126   1.226   2.995   0.044 -0.1888  0.2158 -0.0037
   26BDT   BNZ2  127   1.104   2.912  -0.065 -0.1980 -0.1546  0.2775
   26BDT   BNZ3  128   0.992   3.015   0.136 -0.1415  0.2368  0.1128
   26BDT    BS1  129   1.136   3.099   0.242 -0.1439  0.6114 -0.1950
   26BDT    BS2  130   0.875   2.921   0.007 -0.1555 -0.1787  0.4160
   27BDT   BNZ1  131   4.521   2.638   6.828 -0.3850 -0.0172 -0.1569
   27BDT   BNZ2  132   4.371   2.719   6.761 -0.3169  0.2739  0.0360
   27BDT   BNZ3  133   4.467   2.849   6.954  0.1065  0.0163  0.0053
   27BDT    BS1  134   4.625   2.748   7.014 -0.0063 -0.2879 -0.2113
   27BDT    BS2  135   4.305   2.923   6.869  0.1442  0.3340  0.2053
   28BDT   BNZ1  136   3.559   7.205   6.252  0.1458 -0.0572 -0.0259
   28BDT   BNZ2  137   3.394   7.186   6.175  0.1149 -0.0439  0.0372
   28BDT   BNZ3  138   3.399   7.384   6.331  0.2103 -0.0026 -0.0182
   28BDT    BS1  139   3.582   7.390   6.404  0.2370 -0.0207 -0.0842
   28BDT    BS2  140   3.228   7.347   6.240  0.1706  0.0076  0.0515
   29BDT   BNZ1  141   2.840   2.584   6.911  0.0094 -0.0177  0.2798
   29BDT   BNZ2  142   2.736   2.451   6.840 -0.0247  0.2191 -0.1273
   29BDT   BNZ3  143   2.979   2.419   6.781  0.0459  0.0323  0.2549
   29BDT    BS1  144   3.075   2.568   6.865  0.0696 -0.2261  0.6720
   29BDT    BS2  145   2.852   2.284   6.712  0.0036  0.2920 -0.1973
   30BDT   BNZ1  146   1.991   1.912   7.271  0.0318 -0.2015 -0.3724
   30BDT   BNZ2  147   1.855   1.940   7.151 -0.2626 -0.2240 -0.0529
   30BDT   BNZ3  148   1.786   1.779   7.331  0.1338 -0.1068  0.2128
   30BDT    BS1  149   1.941   1.759   7.450  0.4291 -0.0870 -0.1682
   30BDT    BS2  150   1.651   1.821   7.193 -0.1955 -0.1374  0.5231
   31BDT   BNZ1  151   2.758   0.351   6.447 -0.1558 -0.0993 -0.0591
   31BDT   BNZ2  152   2.692   0.521   6.454 -0.0759 -0.0671 -0.0823
   31BDT   BNZ3  153   2.915   0.504   6.571 -0.1456 -0.1854  0.0350
   31BDT    BS1  154   2.971   0.316   6.553 -0.2294 -0.2114  0.0514
   31BDT    BS2  155   2.829   0.682   6.569 -0.0578 -0.1423  0.0013
   32BDT   BNZ1  156   3.997   1.864   5.221 -0.2073  0.1647 -0.0084
   32BDT   BNZ2  157   3.997   1.876   5.403  0.2963  0.5264 -0.0222
   32BDT   BNZ3  158   3.831   2.035   5.301 -0.1151  0.1951  0.1197
   32BDT    BS1  159   3.843   2.010   5.106 -0.6412 -0.1802  0.1474
   32BDT    BS2  160   3.844   2.035   5.498  0.4400  0.5953  0.0948
   33BDT   BNZ1  161   5.497   2.941   6.310 -0.1919  0.0835 -0.1488
   33BDT   BNZ2  162   5.379   3.079   6.329 -0.2131  0.0363  0.0834
   33BDT   BNZ3  163   5.514   3.046   6.539  0.2673  0.1378 -0.2032
   33BDT    BS1  164   5.635   2.896   6.502  0.2489  0.1854 -0.4430
   33BDT    BS2  165   5.380   3.192   6.541  0.2035  0.0813  0.0558
   34BDT   BNZ1  166   2.343   0.623   6.221  0.2306  0.1587 -0.1656
   34BDT   BNZ2  167   2.272   0.672   6.382  0.0661 -0.2162 -0.1199
   34BDT   BNZ3  168   2.316   0.873   6.237 -0.1431  0.0977  0.2422
   34BDT    BS1  169   2.392   0.803   6.069  0.0530  0.4865  0.1703
   34BDT    BS2  170   2.238   0.907   6.416 -0.2950 -0.3213  0.2583
   35BDT   BNZ1  171   3.765   1.372   5.608 -0.1042  0.2595 -0.0597
   35BDT   BNZ2  172   3.620   1.317   5.706  0.0828 -0.1932 -0.0223
   35BDT   BNZ3  173   3.684   1.554   5.762 -0.2947 -0.1785  0.3755
   35BDT    BS1  174   3.840   1.596   5.649 -0.4787  0.3152  0.3045
   35BDT    BS2  175   3.529   1.479   5.858 -0.0649 -0.6511  0.3756
   36BDT   BNZ1  176   4.386   3.980   6.264  0.1446 -0.1521 -0.1997
   36BDT   BNZ2  177   4.464   4.115   6.167  0.0674  0.0038 -0.0470
   36BDT   BNZ3  178   4.234   4.060   6.079  0.0331  0.0846 -0.0090
   36BDT    BS1  179   4.166   3.915   6.193  0.1221 -0.0947 -0.1808
   36BDT    BS2  180   4.333   4.204   5.986 -0.0445  0.2369  0.1479
   37BDT   BNZ1  181   1.364   1.138   6.921  0.0040 -0.2005 -0.1555
   37BDT   BNZ2  182   1.252   1.205   6.793  0.0478  0.0152 -0.0823
   37BDT   BNZ3  183   1.333   1.387   6.948  0.0347 -0.2343  0.2202
   37BDT    BS1  184   1.450   1.298   7.079 -0.0147 -0.4560  0.1129
   37BDT    BS2  185   1.211   1.442   6.802  0.0812  0.0064  0.2707
   38BDT   BNZ1  186   2.249   1.185   0.677 -0.1154 -0.3131  0.0355
   38BDT   BNZ2  187   2.337   1.332   0.612 -0.3338 -0.2391 -0.0971
   38BDT   BNZ3  188   2.379   1.130   0.469 -0.1102 -0.2855  0.0313
   38BDT    BS1  189   2.278   0.982   0.552  0.1170 -0.3600  0.1670
   38BDT    BS2  190   2.466   1.298   0.413 -0.3541 -0.2045 -0.1161
   39BDT   BNZ1  191   1.481   0.591   5.826 -0.0162  0.1337 -0.2707
   39BDT   BNZ2  192   1.589   0.455   5.885  0.0259  0.2911  0.0209
   39BDT   BNZ3  193   1.346   0.399   5.918  0.0276  0.1081 -0.2596
   39BDT    BS1  194   1.245   0.554   5.850 -0.0144 -0.0578 -0.5593
   39BDT    BS2  195   1.477   0.264   5.977  0.0720  0.2853  0.0651
   40BDT   BNZ1  196   3.609   4.060   0.388  0.0152  0.0077  0.0366
   40BDT   BNZ2  197   3.658   4.097   0.560 -0.1372  0.3102  0.0174
   40BDT   BNZ3  198   3.807   3.922   0.459 -0.0080  0.1732  0.4358
   40BDT    BS1  199   3.742   3.894   0.275  0.1502 -0.1486  0.4303
   40BDT    BS2  200   3.845   3.975   0.646 -0.1790  0.4992  0.3809
   41BDT   BNZ1  201   3.057   3.247   6.513  0.0481  0.1578 -0.2423
   41BDT   BNZ2  202   3.182   3.193   6.390  0.0518 -0.1106 -0.1228
   41BDT   BNZ3  203   2.995   3.025   6.411 -0.0245  0.0031  0.1321
   41BDT    BS1  204   2.871   3.098   6.545 -0.0205  0.2935 -0.0209
   41BDT    BS2  205   3.139   2.983   6.283 -0.0158 -0.2810  0.2378
   42BDT   BNZ1  206   4.975   3.152   6.342 -0.1202 -0.1352 -0.2318
   42BDT   BNZ2  207   5.030   3.283   6.227  0.1686 -0.0296  0.0191
   42BDT   BNZ3  208   4.898   3.379   6.419 -0.0769 -0.1732 -0.0746
   42BDT    BS1  209   4.847   3.226   6.532 -0.3758 -0.2738 -0.3512
   42BDT    BS2  210   4.965   3.507   6.284  0.2416 -0.0531  0.1929
   43BDT   BNZ1  211   3.105   2.405   5.185  0.2010  0.1534 -0.2517
   43BDT   BNZ2  212   3.188   2.476   5.039  0.2441 -0.0676 -0.3359
   43BDT   BNZ3  213   2.989   2.337   4.972  0.0124  0.1725 -0.1565
   43BDT    BS1  214   2.912   2.269   5.140 -0.0143  0.4018 -0.0798
   43BDT    BS2  215   3.092   2.421   4.826  0.0776 -0.0743 -0.2585
   44BDT   BNZ1  216   2.377   2.998   1.597  0.2036  0.0172 -0.0952
   44BDT   BNZ2  217   2.356   3.020   1.416 -0.0681  0.2734 -0.0383
   44BDT   BNZ3  218   2.557   3.147   1.502  0.1948 -0.0321 -0.1894
   44BDT    BS1  219   2.564   3.113   1.695  0.4739 -0.2923 -0.2513
   44BDT    BS2  220   2.519   3.159   1.308 -0.1089  0.2573 -0.1202
   45BDT   BNZ1  221   2.258   2.178   0.320 -0.0424  0.0803 -0.0544
   45BDT   BNZ2  222   2.176   2.284   0.445  0.0298  0.0603  0.0105
   45BDT   BNZ3  223   2.113   2.042   0.475  0.1311  0.0417  0.0759
   45BDT    BS1  224   2.208   1.943   0.335  0.0436  0.0656 -0.0017
   45BDT    BS2  225   2.033   2.171   0.602  0.1984  0.0224  0.1368
   46BDT   BNZ1  226   2.261   0.984   5.248  0.0592  0.1387  0.0158
   46BDT   BNZ2  227   2.406   0.913   5.334  0.0495  0.1393  0.0326
   46BDT   BNZ3  228   2.200   0.771   5.369  0.0659  0.0912 -0.0636
   46BDT    BS1  229   2.056   0.861   5.271  0.0756  0.0944 -0.0748
   46BDT    BS2  230   2.367   0.710   5.456  0.0547  0.0959 -0.0384
   47BDT   BNZ1  231   1.751   1.787   1.669 -0.1194  0.0557 -0.0802
   47BDT   BNZ2  232   1.603   1.721   1.754 -0.1387  0.0931 -0.0847
   47BDT   BNZ3  233   1.550   1.789   1.517 -0.0674 -0.0811 -0.1515
   47BDT    BS1  234   1.719   1.857   1.441 -0.0515 -0.1094 -0.1406
   47BDT    BS2  235   1.401   1.715   1.624 -0.0931 -0.0285 -0.1500
   48BDT   BNZ1  236   4.557   0.512   1.662  0.1483 -0.1599  0.1063
   48BDT   BNZ2  237   4.593   0.553   1.487 -0.1865  0.1206  0.0967
   48BDT   BNZ3  238   4.714   0.709   1.644  0.1224 -0.1378  0.1212
   48BDT    BS1  239   4.664   0.652   1.826  0.4720 -0.4270  0.1181
   48BDT    BS2  240   4.741   0.738   1.451 -0.2492  0.1730  0.1081
   49BDT   BNZ1  241   3.659   1.832   6.324 -0.4709  0.1786 -0.0965
   49BDT   BNZ2  242   3.578   1.721   6.444 -0.2857  0.0733 -0.0661
   49BDT   BNZ3  243   3.616   1.606   6.223 -0.2173  0.1206 -0.0791
   49BDT    BS1  244   3.704   1.739   6.107 -0.4282  0.2340 -0.1112
   49BDT    BS2  245   3.528   1.500   6.365 -0.0304  0.0096 -0.0477
   50BDT   BNZ1  246   2.079   0.581   0.101  0.2757 -0.0120  0.0400
   50BDT   BNZ2  247   2.070   0.756   0.049 -0.0552 -0.0680 -0.1065
   50BDT   BNZ3  248   2.058   0.734   0.300 -0.1762  0.1102 -0.0957
   50BDT    BS1  249   2.068   0.541   0.338  0.2004  0.1589  0.0637
   50BDT    BS2  250   2.050   0.917   0.226 -0.5081  0.0305 -0.2482
   51BDT   BNZ1  251   2.020   2.001   0.995 -0.0918  0.1013 -0.2837
   51BDT   BNZ2  252   2.112   1.913   0.864  0.0911 -0.0708 -0.0429
   51BDT   BNZ3  253   2.244   1.923   1.078 -0.2896  0.0244  0.1916
   51BDT    BS1  254   2.131   2.020   1.207 -0.4645  0.2068 -0.0990
   51BDT    BS2  255   2.329   1.831   0.926 -0.0743 -0.1590  0.4215
   52BDT   BNZ1  256   5.116   0.834   0.826  0.1192  0.1891  0.3516
   52BDT   BNZ2  257   4.948   0.901   0.854  0.0700  0.1863  0.0773
   52BDT   BNZ3  258   4.951   0.650   0.874  0.0908  0.2035  0.3093
   52BDT    BS1  259   5.138   0.595   0.841  0.1397  0.2072  0.5965
   52BDT    BS2  260   4.777   0.739   0.901  0.0381  0.1994  0.0067
   53BDT   BNZ1  261   3.465   0.963   4.880 -0.2772  0.1680 -0.0685
   53BDT   BNZ2  262   3.343   1.011   5.008 -0.2341  0.1215 -0.0096
   53BDT   BNZ3  263   3.551   0.913   5.112 -0.2689 -0.0755 -0.1222
   53BDT    BS1  264   3.670   0.867   4.962 -0.3148 -0.0083 -0.1797
   53BDT    BS2  265   3.408   0.971   5.235 -0.2219 -0.1073 -0.0531
   54BDT   BNZ1  266   5.138   2.987   0.595 -0.4700  0.1367  0.3058
   54BDT   BNZ2  267   5.179   3.147   0.675  0.2804  0.0688  0.1030
   54BDT   BNZ3  268   5.115   3.180   0.433  0.5286  0.0584  0.0351
   54BDT    BS1  269   5.076   3.000   0.363 -0.3216  0.1312  0.2726
   54BDT    BS2  270   5.162   3.342   0.536  1.2784 -0.0453 -0.1774
   55BDT   BNZ1  271   4.949   3.027   0.978  0.3244 -0.2281  0.2311
   55BDT   BNZ2  272   4.823   2.938   0.879  0.1914 -0.0955  0.2786
   55BDT   BNZ3  273   5.049   2.829   0.860  0.1295 -0.1738 -0.0306
   55BDT    BS1  274   5.171   2.936   0.971  0.2795 -0.3143 -0.0597
   55BDT    BS2  275   4.901   2.745   0.759 -0.0039 -0.0288  0.0446
   56BDT   BNZ1  276   3.803   2.600   0.377 -0.0936  0.1454  0.0543
   56BDT   BNZ2  277   3.954   2.547   0.289 -0.0610 -0.0328  0.2149
   56BDT   BNZ3  278   3.864   2.762   0.194  0.1688 -0.0396 -0.0247
   56BDT    BS1  279   3.703   2.805   0.299  0.1170  0.1564 -0.1844
   56BDT    BS2  280   4.028   2.690   0.111  0.1832 -0.2245  0.1624
   57BDT   BNZ1  281   4.505   2.694   6.415 -0.0104  0.0823 -0.1626
   57BDT   BNZ2  282   4.507   2.869   6.470 -0.0361  0.0256  0.0205
   57BDT   BNZ3  283   4.658   2.834   6.272  0.1861  0.2009  0.1568
   57BDT    BS1  284   4.645   2.643   6.226  0.1959  0.2500 -0.0553
   57BDT    BS2  285   4.647   3.017   6.345  0.1400  0.1256  0.3362
   58BDT   BNZ1  286   2.009   3.145   6.663 -0.0715 -0.0592 -0.1469
   58BDT   BNZ2  287   1.949   3.234   6.515 -0.0127  0.2001 -0.0184
   58BDT   BNZ3  288   2.098   3.040   6.452 -0.0908  0.2295 -0.3005
   58BDT    BS1  289   2.153   2.957   6.622 -0.1517 -0.0582 -0.4231
   58BDT    BS2  290   2.024   3.148   6.304 -0.0239  0.4955 -0.1424
   59BDT   BNZ1  291   3.554   1.289   0.641 -0.1822  0.3684 -0.1133
   59BDT   BNZ2  292   3.694   1.267   0.756 -0.0008  0.0490 -0.3843
   59BDT   BNZ3  293   3.502   1.389   0.866  0.3130  0.0938  0.1292
   59BDT    BS1  294   3.362   1.404   0.729  0.0973  0.4408  0.3912
   59BDT    BS2  295   3.663   1.356   0.977  0.4755 -0.2427 -0.1996
   60BDT   BNZ1  296   1.654   0.398   0.850  0.1714 -0.1392 -0.2397
   60BDT   BNZ2  297   1.588   0.402   0.679 -0.0699  0.0815 -0.1451
   60BDT   BNZ3  298   1.482   0.218   0.814 -0.1716  0.1587 -0.1195
   60BDT    BS1  299   1.563   0.228   0.993  0.1052 -0.0909 -0.2267
   60BDT    BS2  300   1.422   0.237   0.626 -0.4094  0.3819 -0.0176
   61BDT   BNZ1  301   5.090   2.300   6.096  0.2357 -0.1636  0.0265
   61BDT   BNZ2  302   5.042   2.129   6.050  0.2531 -0.1444 -0.0628
   61BDT   BNZ3  303   5.289   2.145   6.100  0.2802 -0.1145 -0.2017
   61BDT    BS1  304   5.323   2.333   6.148  0.2582 -0.1374 -0.0919
   61BDT    BS2  305   5.219   1.967   6.048  0.2954 -0.0959 -0.2825
   62BDT   BNZ1  306   1.798   7.174   1.094  0.1516 -0.1166  0.0338
   62BDT   BNZ2  307   1.699   7.273   1.211  0.1814 -0.0961  0.0416
   62BDT   BNZ3  308   1.891   7.158   1.327  0.2126 -0.0733  0.0125
   62BDT    BS1  309   1.986   7.057   1.187  0.1771 -0.0978  0.0060
   62BDT    BS2  310   1.773   7.270   1.440  0.2408 -0.0540  0.0228
   63BDT   BNZ1  311   2.803   1.432   1.493 -0.3673  0.0346  0.2185
   63BDT   BNZ2  312   2.947   1.421   1.381 -0.0417  0.0835  0.6237
   63BDT   BNZ3  313   2.828   1.641   1.355 -0.1862 -0.0487  0.1239
   63BDT    BS1  314   2.677   1.636   1.481 -0.5220 -0.0956 -0.2972
   63BDT    BS2  315   2.987   1.611   1.242  0.1641  0.0107  0.5832
   64BDT   BNZ1  316   3.660   0.269   1.988  0.1273  0.0287 -0.1430
   64BDT   BNZ2  317   3.594   0.265   1.818  0.0762  0.0025 -0.1225
   64BDT   BNZ3  318   3.502   0.075   1.957  0.0678  0.0615 -0.0474
   64BDT    BS1  319   3.583   0.095   2.135  0.1253  0.0861 -0.0761
   64BDT    BS2  320   3.440   0.086   1.769  0.0157  0.0298 -0.0322
   65BDT   BNZ1  321   1.574   7.203   6.208 -0.0422  0.0479  0.0484
   65BDT   BNZ2  322   1.738   7.284   6.200  0.0017 -0.0464 -0.0187
   65BDT   BNZ3  323   1.570   7.428   6.322  0.1610  0.0050  0.1431
   65BDT    BS1  324   1.401   7.326   6.321  0.1009  0.1052  0.2046
   65BDT    BS2  325   1.753   7.500   6.303  0.1937 -0.0975  0.0600
   66BDT   BNZ1  326   4.962   2.942   5.720 -0.1997  0.2762 -0.0855
   66BDT   BNZ2  327   4.808   2.962   5.624 -0.1290  0.0588 -0.2481
   66BDT   BNZ3  328   4.922   2.744   5.569  0.1336  0.1265  0.0176
   66BDT    BS1  329   5.085   2.739   5.680  0.0315  0.3651  0.1769
   66BDT    BS2  330   4.753   2.783   5.474  0.1859 -0.1018 -0.1705
   67BDT   BNZ1  331   4.193   2.240   0.311  0.1220 -0.1289  0.3417
   67BDT   BNZ2  332   4.208   2.358   0.450  0.2176  0.1735  0.0801
   67BDT   BNZ3  333   4.320   2.447   0.242  0.0154 -0.2403 -0.2116
   67BDT    BS1  334   4.294   2.309   0.104 -0.0773 -0.5431  0.1092
   67BDT    BS2  335   4.326   2.562   0.403  0.1278  0.1005 -0.4579
   68BDT   BNZ1  336   3.274   2.006   7.111 -0.1278  0.2956  0.2400
   68BDT   BNZ2  337   3.251   1.920   7.271  0.1521  0.1737  0.2181
   68BDT   BNZ3  338   3.395   2.125   7.297  0.1648  0.1763  0.1290
   68BDT    BS1  339   3.410   2.204   7.117 -0.1474  0.3102  0.1610
   68BDT    BS2  340   3.360   2.020   7.460  0.4534  0.0515  0.1096
   69BDT   BNZ1  341   3.159   1.864   0.471  0.1148 -0.0277 -0.1895
   69BDT   BNZ2  342   3.052   1.787   0.344 -0.1597  0.1298 -0.0575
   69BDT   BNZ3  343   3.150   1.613   0.498 -0.4225  0.0025 -0.0306
   69BDT    BS1  344   3.261   1.712   0.627 -0.0978 -0.1591 -0.1799
   69BDT    BS2  345   3.031   1.548   0.355 -0.6813  0.1819  0.1077
   70BDT   BNZ1  346   5.513   1.199   6.068  0.1569 -0.1098 -0.0762
   70BDT   BNZ2  347   5.579   1.028   6.063 -0.0426 -0.1850 -0.2324
   70BDT   BNZ3  348   5.565   1.115   6.300 -0.0517 -0.4294 -0.1413
   70BDT    BS1  349   5.493   1.298   6.286  0.1705 -0.3280  0.0231
   70BDT    BS2  350   5.635   0.931   6.276 -0.2586 -0.4843 -0.3119
   71BDT   BNZ1  351   0.555   0.363   6.705 -0.0422 -0.2821 -0.0378
   71BDT   BNZ2  352   0.614   0.312   6.870 -0.1017 -0.1597  0.0220
   71BDT   BNZ3  353   0.800   0.301   6.700  0.0861  0.1799  0.1990
   71BDT    BS1  354   0.720   0.358   6.529  0.1330  0.0190  0.1192
   71BDT    BS2  355   0.845   0.249   6.885  0.0042  0.2804  0.2453
   72BDT   BNZ1  356   2.599   6.955   5.802  0.0778  0.1472 -0.1236
   72BDT   BNZ2  357   2.604   6.918   5.981 -0.1810  0.3079 -0.0807
   72BDT   BNZ3  358   2.778   6.786   5.856  0.0078  0.1990  0.2887
   72BDT    BS1  359   2.759   6.836   5.667  0.2783  0.0301  0.2172
   72BDT    BS2  360   2.769   6.758   6.051 -0.2775  0.3763  0.3022
   73BDT   BNZ1  361   5.814   2.258   6.397  0.2646  0.2678 -0.1647
   73BDT   BNZ2  362   5.685   2.387   6.389 -0.3428 -0.3108 -0.0654
   73BDT   BNZ3  363   5.775   2.360   6.623 -0.0276  0.0972 -0.1357
   73BDT    BS1  364   5.912   2.219   6.613  0.5974  0.7321 -0.2421
   73BDT    BS2  365   5.633   2.496   6.597 -0.6763 -0.5396 -0.0273
   74BDT   BNZ1  366   2.994   2.957   0.434  0.2073 -0.2019 -0.1322
   74BDT   BNZ2  367   3.133   2.838   0.430 -0.1134 -0.5872 -0.2247
   74BDT   BNZ3  368   2.987   2.801   0.632 -0.1562 -0.2679 -0.1942
   74BDT    BS1  369   2.843   2.935   0.620  0.2111  0.1288 -0.0950
   74BDT    BS2  370   3.143   2.681   0.612 -0.4878 -0.6887 -0.2931
   75BDT   BNZ1  371   4.879   1.411   1.645  0.3117 -0.0995 -0.0896
   75BDT   BNZ2  372   4.727   1.486   1.577  0.1230 -0.1427  0.2762
   75BDT   BNZ3  373   4.915   1.495   1.410 -0.2006  0.1606 -0.0814
   75BDT    BS1  374   5.070   1.411   1.498  0.0255  0.1868 -0.4575
   75BDT    BS2  375   4.742   1.572   1.354 -0.3697  0.0890  0.3318
   76BDT   BNZ1  376   3.875   1.582   0.348  0.1897  0.2698 -0.0093
   76BDT   BNZ2  377   3.838   1.467   0.485  0.1118  0.1590 -0.1214
   76BDT   BNZ3  378   3.951   1.677   0.569  0.2992 -0.0182  0.0787
   76BDT    BS1  379   3.982   1.789   0.410  0.3701  0.1163  0.1874
   76BDT    BS2  380   3.904   1.541   0.704  0.2028 -0.1194 -0.0551
   77BDT   BNZ1  381   1.748   0.740   6.000 -0.5396  0.2444 -0.1006
   77BDT   BNZ2  382   1.876   0.870   6.018 -0.3035  0.0128 -0.0800
   77BDT   BNZ3  383   1.738   0.849   6.228 -0.0010 -0.1229  0.1088
   77BDT    BS1  384   1.606   0.707   6.192 -0.2870  0.1412  0.0659
   77BDT    BS2  385   1.881   0.984   6.229  0.2133 -0.3593  0.1086
   78BDT   BNZ1  386   4.477   2.326   5.767 -0.0328 -0.2347  0.0499
   78BDT   BNZ2  387   4.616   2.426   5.831  0.0586 -0.3242 -0.0076
   78BDT   BNZ3  388   4.615   2.420   5.579  0.0283 -0.4316 -0.0052
   78BDT    BS1  389   4.461   2.309   5.528 -0.0709 -0.3240  0.0588
   78BDT    BS2  390   4.759   2.525   5.665  0.1244 -0.5160 -0.0648
   79BDT   BNZ1  391   2.188   1.225   1.798  0.1472 -0.0622  0.1173
   79BDT   BNZ2  392   2.114   1.363   1.704  0.1288 -0.1008  0.0748
   79BDT   BNZ3  393   2.102   1.405   1.952  0.0062 -0.0850  0.0668
   79BDT    BS1  394   2.185   1.248   2.037  0.0361 -0.0436  0.1144
   79BDT    BS2  395   2.027   1.545   1.834 -0.0027 -0.1266  0.0233
   80BDT   BNZ1  396   1.086   2.164   1.010  0.2579  0.1705  0.0883
   80BDT   BNZ2  397   1.029   2.128   0.839 -0.0940  0.2186  0.1916
   80BDT   BNZ3  398   1.280   2.119   0.856 -0.0694 -0.0717 -0.2633
   80BDT    BS1  399   1.324   2.159   1.043  0.3127 -0.1032 -0.3469
   80BDT    BS2  400   1.201   2.082   0.679 -0.4396  0.0026 -0.1161
   81BDT   BNZ1  401   1.187   0.437   6.940 -0.0292 -0.3880  0.1274
   81BDT   BNZ2  402   1.349   0.522   6.954 -0.0557 -0.3293  0.0854
   81BDT   BNZ3  403   1.326   0.337   7.124  0.0888 -0.3930  0.0366
   81BDT    BS1  404   1.148   0.258   7.095  0.1074 -0.4528  0.0866
   81BDT    BS2  405   1.495   0.439   7.126  0.0496 -0.3268 -0.0031
   82BDT   BNZ1  406   2.987   0.936   5.636 -0.0569  0.0245 -0.0108
   82BDT   BNZ2  407   3.152   1.005   5.594 -0.0496 -0.0244 -0.0624
   82BDT   BNZ3  408   2.968   1.131   5.477 -0.0381 -0.0721 -0.1327
   82BDT    BS1  409   2.799   1.046   5.533 -0.0471 -0.0144 -0.0698
   82BDT    BS2  410   3.153   1.192   5.444 -0.0317 -0.1192 -0.1800
   83BDT   BNZ1  411   2.372   2.827   6.214  0.0331 -0.1430 -0.1184
   83BDT   BNZ2  412   2.210   2.801   6.296 -0.0239 -0.0892 -0.2124
   83BDT   BNZ3  413   2.383   2.638   6.380 -0.0667 -0.0030  0.0502
   83BDT    BS1  414   2.548   2.679   6.282 -0.0016 -0.0686  0.1340
   83BDT    BS2  415   2.202   2.624   6.458 -0.1228  0.0465 -0.0689
   84BDT   BNZ1  416   3.750   2.187   6.490  0.0117  0.0341  0.3576
   84BDT   BNZ2  417   3.687   2.347   6.427 -0.0114 -0.1638 -0.1409
   84BDT   BNZ3  418   3.551   2.266   6.623 -0.3688  0.1398 -0.2577
   84BDT    BS1  419   3.632   2.095   6.678 -0.3128  0.3401  0.2986
   84BDT    BS2  420   3.496   2.437   6.541 -0.3551 -0.1001 -0.7638
   85BDT   BNZ1  421   3.280   3.768   0.274  0.1402  0.1571  0.2918
   85BDT   BNZ2  422   3.343   3.848   0.426 -0.0097  0.2580  0.3022
   85BDT   BNZ3  423   3.177   3.996   0.307 -0.0097  0.1153  0.1226
   85BDT    BS1  424   3.120   3.895   0.148  0.1576  0.0143  0.1262
   85BDT    BS2  425   3.256   4.066   0.474 -0.1644  0.2302  0.1477
   86BDT   BNZ1  426   2.049   2.691   0.504  0.0463 -0.2272  0.0137
   86BDT   BNZ2  427   1.944   2.789   0.617  0.0306 -0.1037 -0.1058
   86BDT   BNZ3  428   2.161   2.907   0.569  0.1056 -0.2295 -0.0791
   86BDT    BS1  429   2.261   2.790   0.447  0.1162 -0.3562  0.0524
   86BDT    BS2  430   2.034   2.999   0.691  0.0833 -0.0918 -0.2050
   87BDT   BNZ1  431   4.067   0.243   0.942 -0.2254  0.0487  0.1792
   87BDT   BNZ2  432   4.157   0.087   0.975  0.0109  0.1125 -0.1337
   87BDT   BNZ3  433   3.908   0.048   0.957  0.0704 -0.2359 -0.2482
   87BDT    BS1  434   3.828   0.225   0.922 -0.1923 -0.2790  0.1082
   87BDT    BS2  435   4.021  -0.110   0.993  0.3097 -0.1328 -0.5640
   88BDT   BNZ1  436   4.144   0.437   0.654 -0.3609 -0.3096 -0.2829
   88BDT   BNZ2  437   4.292   0.333   0.683 -0.1070  0.0332 -0.3167
   88BDT   BNZ3  438   4.185   0.281   0.460 -0.0850 -0.2687 -0.2588
   88BDT    BS1  439   4.029   0.400   0.446 -0.3617 -0.6303 -0.2238
   88BDT    BS2  440   4.347   0.177   0.508  0.1740  0.1121 -0.2981
   89BDT   BNZ1  441   3.284   1.328   7.186  0.2318  0.2745 -0.0922
   89BDT   BNZ2  442   3.248   1.174   7.093 -0.0124  0.2478  0.0424
   89BDT   BNZ3  443   3.287   1.368   6.937  0.1338  0.0853 -0.1253
   89BDT    BS1  444   3.324   1.524   7.052  0.3927  0.1237 -0.2630
   89BDT    BS2  445   3.247   1.194   6.854 -0.1307  0.0709  0.0286
   90BDT   BNZ1  446   3.656   0.384   6.683 -0.0682 -0.3311 -0.0048
   90BDT   BNZ2  447   3.762   0.336   6.824 -0.1518  0.0224  0.1826
   90BDT   BNZ3  448   3.883   0.492   6.667 -0.2003 -0.0370  0.0857
   90BDT    BS1  449   3.756   0.533   6.523 -0.1013 -0.4261 -0.1109
   90BDT    BS2  450   3.983   0.431   6.826 -0.2861  0.3345  0.2837
   91BDT   BNZ1  451   2.056   2.819   1.063  0.1847 -0.2406  0.1493
   91BDT   BNZ2  452   2.111   2.989   1.102 -0.1262 -0.0612 -0.1664
   91BDT   BNZ3  453   2.253   2.885   0.922  0.0532 -0.1322  0.0144
   91BDT    BS1  454   2.181   2.704   0.893  0.3875 -0.3161  0.3529
   91BDT    BS2  455   2.299   3.069   0.976 -0.2839  0.0562 -0.3274
   92BDT   BNZ1  456   3.045   1.576   1.877 -0.1848  0.0192 -0.0843
   92BDT   BNZ2  457   3.042   1.702   1.745  0.0015  0.0374 -0.0723
   92BDT   BNZ3  458   3.195   1.511   1.686 -0.1338 -0.0925 -0.0068
   92BDT    BS1  459   3.187   1.386   1.838 -0.3304 -0.1011 -0.0264
   92BDT    BS2  460   3.180   1.657   1.554  0.0696 -0.0629  0.0005
   93BDT   BNZ1  461   2.471   0.419   1.497  0.0558 -0.0047 -0.0497
   93BDT   BNZ2  462   2.589   0.543   1.433  0.1186  0.1097  0.2750
   93BDT   BNZ3  463   2.537   0.367   1.260  0.2497  0.4275 -0.0944
   93BDT    BS1  464   2.410   0.243   1.345  0.1736  0.2821 -0.4247
   93BDT    BS2  465   2.663   0.510   1.207  0.3031  0.5211  0.2754
   94BDT   BNZ1  466   5.795   0.550   0.365 -0.0047 -0.1614 -0.3286
   94BDT   BNZ2  467   5.759   0.702   0.270 -0.0160 -0.0207 -0.1044
   94BDT   BNZ3  468   5.948   0.739   0.432 -0.3113 -0.1124  0.2694
   94BDT    BS1  469   5.974   0.568   0.525 -0.2801 -0.2667 -0.0100
   94BDT    BS2  470   5.894   0.893   0.320 -0.3023  0.0320  0.4713
   95BDT   BNZ1  471   3.322   2.820   5.187 -0.2143  0.1245 -0.0516
   95BDT   BNZ2  472   3.376   2.747   5.028  0.0876  0.2456 -0.0089
   95BDT   BNZ3  473   3.478   2.626   5.224 -0.0583  0.2749  0.0859
   95BDT    BS1  474   3.411   2.717   5.385 -0.3811  0.1371  0.0278
   95BDT    BS2  475   3.526   2.560   5.044  0.2648  0.3991  0.1245
   96BDT   BNZ1  476   5.236   0.754   6.239  0.1975  0.0355  0.0196
   96BDT   BNZ2  477   5.094   0.733   6.126  0.2171  0.2606 -0.0491
   96BDT   BNZ3  478   5.291   0.593   6.053  0.0287 -0.0630  0.0544
   96BDT    BS1  479   5.433   0.628   6.185  0.0166 -0.2874  0.1203
   96BDT    BS2  480   5.128   0.583   5.942  0.0619  0.1969 -0.0254
   97BDT   BNZ1  481   2.933   0.903   6.240  0.0603 -0.0818 -0.2714
   97BDT   BNZ2  482   3.072   0.806   6.309  0.0587  0.0921 -0.0183
   97BDT   BNZ3  483   2.881   0.656   6.242  0.2571 -0.1234 -0.1086
   97BDT    BS1  484   2.741   0.775   6.170  0.2478 -0.3014 -0.3805
   97BDT    BS2  485   3.040   0.568   6.319  0.2392  0.0753  0.1603
   98BDT   BNZ1  486   2.938   0.597   5.671  0.0255 -0.0166  0.1191
   98BDT   BNZ2  487   2.810   0.641   5.548  0.1607 -0.1092 -0.0554
   98BDT   BNZ3  488   2.765   0.752   5.769 -0.1939 -0.1004 -0.1295
   98BDT    BS1  489   2.910   0.694   5.889 -0.3176  0.0012  0.0664
   98BDT    BS2  490   2.637   0.789   5.623 -0.0240 -0.1982 -0.3051
   99BDT   BNZ1  491   1.829   2.126   1.798  0.2923 -0.2658 -0.0426
   99BDT   BNZ2  492   1.950   2.236   1.878 -0.0342  0.0558  0.0237
   99BDT   BNZ3  493   1.814   2.111   2.049 -0.1505  0.0929 -0.0417
   99BDT    BS1  494   1.689   1.999   1.946  0.2225 -0.2653 -0.1116
   99BDT    BS2  495   1.951   2.236   2.118 -0.4853  0.4166  0.0252
  100BDT   BNZ1  496   1.180   3.206   7.036  0.0686 -0.1287 -0.0636
  100BDT   BNZ2  497   1.338   3.187   6.947 -0.1309 -0.1462 -0.4250
  100BDT   BNZ3  498   1.219   3.397   6.876 -0.1521  0.0029  0.0369
  100BDT    BS1  499   1.052   3.403   6.981  0.0812  0.0077  0.3978
  100BDT    BS2  500   1.393   3.360   6.790 -0.3551 -0.0292 -0.3742
  101BDT   BNZ1  501   3.453   0.791   5.638  0.0435  0.0774  0.0097
  101BDT   BNZ2  502   3.291   0.705   5.639  0.0437  0.0767 -0.0553
  101BDT   BNZ3  503   3.482   0.543   5.604  0.0731  0.0520  0.2150
  101BDT    BS1  504   3.646   0.652   5.607  0.0693  0.0553  0.2664
  101BDT    BS2  505   3.300   0.467   5.607  0.0698  0.0540  0.1259
  102BDT   BNZ1  506   2.704   7.062   1.590 -0.0213 -0.2012 -0.0244
  102BDT   BNZ2  507   2.552   7.149   1.642  0.0051 -0.1568 -0.0213
  102BDT   BNZ3  508   2.747   7.307   1.626  0.0877 -0.2427  0.1309
  102BDT    BS1  509   2.901   7.199   1.570  0.0516 -0.2859  0.1157
  102BDT    BS2  510   2.574   7.385   1.682  0.1079 -0.1905  0.1217
  103BDT   BNZ1  511   0.920   1.789   7.038 -0.0458 -0.3658  0.0176
  103BDT   BNZ2  512   0.900   1.811   6.858  0.1093  0.2159  0.0627
  103BDT   BNZ3  513   0.943   1.570   6.915  0.0175  0.0119 -0.6703
  103BDT    BS1  514   0.962   1.563   7.111 -0.1505 -0.6061 -0.6769
  103BDT    BS2  515   0.919   1.613   6.724  0.1846  0.6392 -0.5562
  104BDT   BNZ1  516   1.824   1.772   6.032 -0.1706  0.0351  0.1872
  104BDT   BNZ2  517   1.918   1.640   6.116 -0.1316  0.0034  0.0944
  104BDT   BNZ3  518   1.951   1.862   6.230  0.0187 -0.0159  0.0905
  104BDT    BS1  519   1.843   1.991   6.128 -0.0365  0.0205  0.1933
  104BDT    BS2  520   2.046   1.707   6.308  0.0462 -0.0470 -0.0059
  105BDT   BNZ1  521   1.933   0.662   0.797 -0.0653 -0.0315 -0.0710
  105BDT   BNZ2  522   1.803   0.748   0.892 -0.0081 -0.1445  0.1141
  105BDT   BNZ3  523   2.031   0.789   0.991  0.0865 -0.0397 -0.1413
  105BDT    BS1  524   2.158   0.689   0.878  0.0126  0.0791 -0.3257
  105BDT    BS2  525   1.878   0.876   1.081  0.1369 -0.1651  0.0706
  106BDT   BNZ1  526   3.852   3.785   6.038  0.1819 -0.0821  0.3266
  106BDT   BNZ2  527   3.954   3.828   5.892 -0.0217 -0.1254  0.1693
  106BDT   BNZ3  528   3.896   4.033   6.025 -0.2322 -0.0239 -0.0761
  106BDT    BS1  529   3.787   3.971   6.177  0.0088  0.0116  0.1184
  106BDT    BS2  530   4.006   4.060   5.864 -0.4292 -0.0824 -0.2146
  107BDT   BNZ1  531   1.352   0.957   6.561  0.1630 -0.1821  0.0257
  107BDT   BNZ2  532   1.523   0.993   6.506  0.1145  0.0740  0.0383
  107BDT   BNZ3  533   1.521   0.829   6.697  0.3478  0.0896  0.0549
  107BDT    BS1  534   1.332   0.802   6.744  0.3847 -0.1947  0.0383
  107BDT    BS2  535   1.698   0.880   6.625  0.2760  0.3535  0.0664
  108BDT   BNZ1  536   6.050   1.566   0.132 -0.0305  0.0834  0.0597
  108BDT   BNZ2  537   6.176   1.671   0.051 -0.0847 -0.0090 -0.1452
  108BDT   BNZ3  538   6.124   1.465  -0.086 -0.1959 -0.1543  0.1112
  108BDT    BS1  539   5.988   1.366   0.015 -0.1254 -0.0379  0.3188
  108BDT    BS2  540   6.259   1.590  -0.159 -0.2433 -0.2373 -0.1201
  109BDT   BNZ1  541   3.767   4.323   6.927  0.2030  0.1527 -0.2327
  109BDT   BNZ2  542   3.711   4.154   6.969 -0.0891  0.2623 -0.1709
  109BDT   BNZ3  543   3.929   4.209   7.083 -0.0882 -0.0036 -0.0413
  109BDT    BS1  544   3.974   4.392   7.028  0.2335 -0.1072 -0.1203
  109BDT    BS2  545   3.853   4.029   7.117 -0.3909  0.1344  0.0104
  110BDT   BNZ1  546   1.704   0.790   5.569  0.0733 -0.0650 -0.1026
  110BDT   BNZ2  547   1.796   0.649   5.640  0.0146 -0.0814 -0.0594
  110BDT   BNZ3  548   1.917   0.866   5.680 -0.0716 -0.0764  0.1877
  110BDT    BS1  549   1.806   1.006   5.597 -0.0013 -0.0592  0.1198
  110BDT    BS2  550   2.002   0.703   5.751 -0.1269 -0.0940  0.2114
  111BDT   BNZ1  551   4.829   3.767   6.784  0.2176  0.1224  0.3059
  111BDT   BNZ2  552   4.912   3.751   6.946  0.0600  0.0496  0.3804
  111BDT   BNZ3  553   4.663   3.771   6.973  0.0337  0.0504  0.1468
  111BDT    BS1  554   4.590   3.788   6.791  0.2124  0.1310  0.0831
  111BDT    BS2  555   4.769   3.752   7.138 -0.1266 -0.0249  0.2418
  112BDT   BNZ1  556   3.347   3.556   0.027 -0.0837 -0.0495  0.2097
  112BDT   BNZ2  557   3.387   3.695  -0.086  0.0607 -0.4462 -0.2470
  112BDT   BNZ3  558   3.555   3.677   0.101  0.0743 -0.0511 -0.2169
  112BDT    BS1  559   3.498   3.524   0.211 -0.0850  0.3700  0.2772
  112BDT    BS2  560   3.583   3.822  -0.030  0.2196 -0.4995 -0.6881
  113BDT   BNZ1  561   4.237   1.442   5.624  0.1786  0.0703  0.1179
  113BDT   BNZ2  562   4.360   1.383   5.746  0.1578 -0.1614  0.0279
  113BDT   BNZ3  563   4.202   1.199   5.679  0.0953 -0.0050 -0.2601
  113BDT    BS1  564   4.077   1.279   5.549  0.1251  0.2416 -0.1369
  113BDT    BS2  565   4.342   1.152   5.810  0.0785 -0.2545 -0.3310
  114BDT   BNZ1  566   2.988   0.292   5.482 -0.2186  0.2007  0.1215
  114BDT   BNZ2  567   2.891   0.326   5.331 -0.1910  0.1094  0.0828
  114BDT   BNZ3  568   2.865   0.086   5.404  0.0147  0.0815  0.0654
  114BDT    BS1  569   2.975   0.067   5.566 -0.0315  0.1860  0.1098
  114BDT    BS2  570   2.767   0.141   5.242  0.0274 -0.0098  0.0275
  115BDT   BNZ1  571   4.369   0.361   6.494  0.2254 -0.0366 -0.5797
  115BDT   BNZ2  572   4.201   0.393   6.428  0.0220  0.1096 -0.0265
  115BDT   BNZ3  573   4.230   0.151   6.490 -0.0334  0.1110  0.0050
  115BDT    BS1  574   4.414   0.134   6.559  0.1925 -0.0481 -0.6135
  115BDT    BS2  575   4.055   0.204   6.416 -0.2235  0.2615  0.5803
  116BDT   BNZ1  576   4.222   3.266   6.765  0.1563 -0.0229 -0.1078
  116BDT   BNZ2  577   4.314   3.398   6.852  0.1761 -0.1937  0.1366
  116BDT   BNZ3  578   4.466   3.266   6.701  0.1630  0.0374 -0.0821
  116BDT    BS1  579   4.353   3.129   6.616  0.1446  0.2137 -0.3333
  116BDT    BS2  580   4.548   3.414   6.803  0.1845 -0.1571  0.1892
  117BDT   BNZ1  581   5.390   2.246   7.245 -0.3615  0.0962 -0.0112
  117BDT   BNZ2  582   5.518   2.196   7.124 -0.1401  0.0964  0.2187
  117BDT   BNZ3  583   5.467   2.442   7.107 -0.4543  0.0093 -0.1887
  117BDT    BS1  584   5.329   2.478   7.243 -0.6688  0.0107 -0.4181
  117BDT    BS2  585   5.604   2.370   6.983 -0.1970  0.0130  0.0804
  118BDT   BNZ1  586   2.650   3.131   7.267  0.1622 -0.1656 -0.0203
  118BDT   BNZ2  587   2.718   2.999   7.161  0.1033 -0.3169  0.1285
  118BDT   BNZ3  588   2.860   3.207   7.149  0.0962 -0.3297 -0.2467
  118BDT    BS1  589   2.773   3.338   7.268  0.1619 -0.1645 -0.3842
  118BDT    BS2  590   2.919   3.053   7.040  0.0347 -0.4868 -0.0622
  119BDT   BNZ1  591   4.454   7.026   6.666 -0.2248 -0.0412  0.0708
  119BDT   BNZ2  592   4.538   7.007   6.827  0.0535  0.0427 -0.0625
  119BDT   BNZ3  593   4.441   6.788   6.748 -0.0015 -0.0190  0.1719
  119BDT    BS1  594   4.355   6.827   6.576 -0.3039 -0.1071  0.3056
  119BDT    BS2  595   4.537   6.786   6.921  0.2903  0.0737  0.0137
  120BDT   BNZ1  596   2.694   3.519   6.979 -0.2982  0.1352 -0.0729
  120BDT   BNZ2  597   2.693   3.399   6.840  0.0072  0.1807 -0.1166
  120BDT   BNZ3  598   2.635   3.631   6.761 -0.0901  0.1552 -0.1199
  120BDT    BS1  599   2.640   3.746   6.921 -0.4214  0.1045 -0.0738
  120BDT    BS2  600   2.639   3.489   6.624  0.2336  0.2058 -0.1630
  121BDT   BNZ1  601   2.197   1.906   2.028 -0.1112  0.0352 -0.2382
  121BDT   BNZ2  602   2.236   2.026   1.895  0.1281  0.0748 -0.1335
  121BDT   BNZ3  603   2.260   2.130   2.124  0.0552 -0.0904 -0.0494
  121BDT    BS1  604   2.214   1.989   2.253 -0.2045 -0.1208 -0.1742
  121BDT    BS2  605   2.299   2.246   1.968  0.3080 -0.0380  0.0531
  122BDT   BNZ1  606   1.508   1.244   0.122 -0.0212 -0.0081  0.2039
  122BDT   BNZ2  607   1.563   1.196   0.290 -0.1075 -0.1894  0.1819
  122BDT   BNZ3  608   1.368   1.055   0.214 -0.0322 -0.1479 -0.0928
  122BDT    BS1  609   1.322   1.119   0.033  0.0592  0.0510 -0.0463
  122BDT    BS2  610   1.440   1.018   0.394 -0.1268 -0.3373 -0.0944
  123BDT   BNZ1  611   1.647   1.986   5.751  0.0479 -0.0091 -0.1267
  123BDT   BNZ2  612   1.580   2.154   5.721  0.0853  0.0676  0.2011
  123BDT   BNZ3  613   1.832   2.157   5.734  0.0897 -0.0255  0.1345
  123BDT    BS1  614   1.886   1.970   5.766  0.0463 -0.1003 -0.2247
  123BDT    BS2  615   1.743   2.330   5.702  0.1289  0.0583  0.4794
  124BDT   BNZ1  616   3.687   2.019   0.782 -0.1428  0.0704  0.1592
  124BDT   BNZ2  617   3.534   2.115   0.815 -0.1946  0.1069 -0.1686
  124BDT   BNZ3  618   3.481   1.883   0.732 -0.0715  0.0655 -0.1326
  124BDT    BS1  619   3.655   1.795   0.702 -0.0258  0.0301  0.2291
  124BDT    BS2  620   3.328   2.000   0.773 -0.1318  0.1052 -0.4750
  125BDT   BNZ1  621   4.385   1.505   0.646 -0.0790 -0.0615  0.1111
  125BDT   BNZ2  622   4.403   1.686   0.667  0.2740 -0.0929  0.1156
  125BDT   BNZ3  623   4.286   1.630   0.451 -0.0809  0.1436  0.2423
  125BDT    BS1  624   4.275   1.434   0.444 -0.4434  0.1687  0.2302
  125BDT    BS2  625   4.314   1.822   0.491  0.3141  0.0931  0.2384
  126BDT   BNZ1  626   4.848   0.246   6.763 -0.0126 -0.1738 -0.1844
  126BDT   BNZ2  627   4.717   0.324   6.661 -0.0240 -0.0629 -0.0859
  126BDT   BNZ3  628   4.911   0.482   6.698 -0.0313 -0.0933  0.0840
  126BDT    BS1  629   5.041   0.383   6.808 -0.0182 -0.2150 -0.0382
  126BDT    BS2  630   4.760   0.550   6.589 -0.0419  0.0224  0.1730
  127BDT   BNZ1  631   2.939   0.325   1.986 -0.2275 -0.2666 -0.0078
  127BDT   BNZ2  632   3.065   0.447   2.038 -0.3503 -0.1452  0.0063
  127BDT   BNZ3  633   3.134   0.331   1.826 -0.2443 -0.0324 -0.0220
  127BDT    BS1  634   2.989   0.204   1.784 -0.1162 -0.1754 -0.0348
  127BDT    BS2  635   3.258   0.467   1.897 -0.3812  0.0834 -0.0050
  128BDT   BNZ1  636   4.667   0.341   0.786 -0.1190  0.1695  0.3328
  128BDT   BNZ2  637   4.645   0.471   0.659 -0.0794  0.1487  0.3045
  128BDT   BNZ3  638   4.888   0.441   0.719 -0.1086  0.2460  0.4775
  128BDT    BS1  639   4.894   0.299   0.855 -0.1509  0.2618  0.4952
  128BDT    BS2  640   4.846   0.578   0.583 -0.0659  0.2167  0.4340
  129BDT   BNZ1  641   4.287   0.417   0.164 -0.1868  0.2096  0.2036
  129BDT   BNZ2  642   4.293   0.515   0.009 -0.1322 -0.0735  0.0230
  129BDT   BNZ3  643   4.502   0.547   0.147 -0.0009 -0.1342 -0.1603
  129BDT    BS1  644   4.479   0.436   0.308 -0.0742  0.1832  0.0542
  129BDT    BS2  645   4.491   0.646  -0.024  0.0421 -0.4270 -0.3265
  130BDT   BNZ1  646   2.050   1.780   5.333 -0.0918  0.1057 -0.1999
  130BDT   BNZ2  647   1.972   1.617   5.305 -0.2092  0.0979  0.1520
  130BDT   BNZ3  648   1.800   1.793   5.359 -0.0626  0.2864  0.0112
  130BDT    BS1  649   1.899   1.960   5.385  0.0546  0.2749 -0.3694
  130BDT    BS2  650   1.733   1.609   5.326 -0.1943  0.2646  0.3867
  131BDT   BNZ1  651   4.572   0.636   6.253  0.3302  0.1148  0.1056
  131BDT   BNZ2  652   4.654   0.474   6.231  0.3185  0.0935  0.2167
  131BDT   BNZ3  653   4.681   0.619   6.027  0.2209 -0.0970  0.0677
  131BDT    BS1  654   4.588   0.787   6.067  0.2414 -0.0596 -0.0431
  131BDT    BS2  655   4.764   0.440   6.021  0.2164 -0.1038  0.1958
  132BDT   BNZ1  656   1.751   1.020   0.564  0.0242 -0.2387  0.2284
  132BDT   BNZ2  657   1.921   1.017   0.631  0.2163  0.2445 -0.1994
  132BDT   BNZ3  658   1.772   1.168   0.767  0.2421  0.1591 -0.0754
  132BDT    BS1  659   1.595   1.160   0.682  0.0389 -0.3713  0.3937
  132BDT    BS2  660   1.960   1.152   0.826  0.4260  0.6655 -0.5338
  133BDT   BNZ1  661   5.137   2.905   6.097  0.1114 -0.0776 -0.1384
  133BDT   BNZ2  662   4.970   2.831   6.085  0.0516 -0.0300  0.3249
  133BDT   BNZ3  663   5.144   2.678   5.987 -0.2718 -0.0173 -0.2981
  133BDT    BS1  664   5.316   2.772   6.008 -0.1986 -0.0738 -0.7628
  133BDT    BS2  665   4.957   2.614   5.983 -0.3135  0.0335  0.2339
  134BDT   BNZ1  666   4.731   1.950   5.976  0.1260 -0.0485  0.0359
  134BDT   BNZ2  667   4.617   1.820   6.035  0.2429 -0.1242  0.0971
  134BDT   BNZ3  668   4.634   1.819   5.784 -0.0081 -0.0118  0.0779
  134BDT    BS1  669   4.760   1.964   5.738 -0.1196  0.0623  0.0129
  134BDT    BS2  670   4.515   1.685   5.865  0.1327 -0.0997  0.1439
  135BDT   BNZ1  671   3.163   3.394   1.463  0.1140  0.1823 -0.1454
  135BDT   BNZ2  672   2.985   3.412   1.423  0.0827  0.1653 -0.0171
  135BDT   BNZ3  673   3.059   3.172   1.403  0.0750  0.1620 -0.0053
  135BDT    BS1  674   3.251   3.170   1.449  0.1102  0.1812 -0.1487
  135BDT    BS2  675   2.870   3.211   1.363  0.0441  0.1448  0.1267
  136BDT   BNZ1  676   3.236   1.893   2.485  0.0603  0.2442  0.1238
  136BDT   BNZ2  677   3.213   1.940   2.310  0.1798  0.0594  0.0561
  136BDT   BNZ3  678   3.437   2.018   2.397  0.2229 -0.0615  0.0535
  136BDT    BS1  679   3.445   1.959   2.585  0.0860  0.1523  0.1292
  136BDT    BS2  680   3.394   2.061   2.209  0.3424 -0.2442 -0.0129
  137BDT   BNZ1  681   1.421   1.800   0.926  0.0373 -0.0995 -0.0358
  137BDT   BNZ2  682   1.597   1.833   0.886  0.0824 -0.1386  0.1282
  137BDT   BNZ3  683   1.562   1.808   1.135 -0.1333 -0.2594  0.0871
  137BDT    BS1  684   1.370   1.774   1.159 -0.1658 -0.2064 -0.0931
  137BDT    BS2  685   1.746   1.844   1.074 -0.0701 -0.2901  0.2590
  138BDT   BNZ1  686   5.165   1.535   7.122  0.0441  0.1324 -0.1931
  138BDT   BNZ2  687   5.280   1.459   7.001 -0.0027 -0.0271 -0.1381
  138BDT   BNZ3  688   5.059   1.514   6.894  0.0652  0.1239 -0.2022
  138BDT    BS1  689   4.948   1.595   7.036  0.1134  0.2884 -0.2595
  138BDT    BS2  690   5.196   1.431   6.778  0.0115 -0.0536 -0.1402
  139BDT   BNZ1  691   4.603   1.000   1.787  0.1553 -0.0511 -0.1743
  139BDT   BNZ2  692   4.739   1.095   1.709  0.0026  0.1208 -0.2343
  139BDT   BNZ3  693   4.586   0.995   1.535 -0.0201  0.0336 -0.1646
  139BDT    BS1  694   4.447   0.897   1.635  0.1526 -0.1494 -0.1040
  139BDT    BS2  695   4.739   1.102   1.469 -0.1773  0.2177 -0.2315
  140BDT   BNZ1  696   2.288   0.307   5.996 -0.0606  0.1887  0.3668
  140BDT   BNZ2  697   2.194   0.458   5.953 -0.0818 -0.0236 -0.4233
  140BDT   BNZ3  698   2.039   0.268   6.012 -0.0980 -0.0414 -0.5235
  140BDT    BS1  699   2.155   0.115   6.054 -0.0727  0.2045  0.3584
  140BDT    BS2  700   1.955   0.440   5.963 -0.0981 -0.2831 -1.3260
  141BDT   BNZ1  701   4.316   0.444   6.944  0.1138 -0.0708  0.2699
  141BDT   BNZ2  702   4.344   0.624   6.926 -0.1920 -0.0550 -0.1165
  141BDT   BNZ3  703   4.559   0.494   6.897  0.0350  0.2421  0.1918
  141BDT    BS1  704   4.511   0.305   6.919  0.3568  0.2152  0.5958
  141BDT    BS2  705   4.570   0.691   6.881 -0.3020  0.2337 -0.2324
  142BDT   BNZ1  706   4.850   3.307   5.802  0.0017 -0.1069 -0.2509
  142BDT   BNZ2  707   4.852   3.221   5.963  0.0223 -0.2629 -0.3334
  142BDT   BNZ3  708   4.661   3.142   5.819 -0.2435  0.1720 -0.2287
  142BDT    BS1  709   4.673   3.244   5.651 -0.2427  0.3112 -0.1400
  142BDT    BS2  710   4.678   3.059   5.998 -0.1974 -0.0241 -0.3189
  143BDT   BNZ1  711   2.508   6.930   7.033 -0.3875 -0.0745  0.0093
  143BDT   BNZ2  712   2.465   7.082   7.126  0.2253 -0.0928  0.3480
  143BDT   BNZ3  713   2.611   7.134   6.927 -0.1653 -0.1720  0.0343
  143BDT    BS1  714   2.647   6.962   6.839 -0.8216 -0.1244 -0.3037
  143BDT    BS2  715   2.555   7.287   7.039  0.5006 -0.1870  0.4091
  144BDT   BNZ1  716   1.660   1.180   1.204  0.0391 -0.0985 -0.3599
  144BDT   BNZ2  717   1.724   1.351   1.195  0.3574 -0.1859  0.0736
  144BDT   BNZ3  718   1.494   1.345   1.298  0.2122  0.0039 -0.2317
  144BDT    BS1  719   1.441   1.156   1.300 -0.1240  0.1002 -0.6902
  144BDT    BS2  720   1.580   1.523   1.280  0.5529 -0.1044  0.2414
  145BDT   BNZ1  721   4.807   1.230   5.821 -0.1057  0.0880 -0.0556
  145BDT   BNZ2  722   4.670   1.271   5.707 -0.0178 -0.0292 -0.2053
  145BDT   BNZ3  723   4.893   1.281   5.590  0.0933  0.0624  0.0117
  145BDT    BS1  724   5.028   1.235   5.726 -0.0154  0.1859  0.1601
  145BDT    BS2  725   4.733   1.323   5.481  0.1745 -0.0665 -0.1600
  146BDT   BNZ1  726   3.684   0.317   0.301  0.1848  0.1055 -0.0216
  146BDT   BNZ2  727   3.795   0.269   0.164 -0.0963  0.0212 -0.2242
  146BDT   BNZ3  728   3.826   0.118   0.363  0.1563  0.0057 -0.2733
  146BDT    BS1  729   3.700   0.182   0.500  0.4516  0.0996 -0.0490
  146BDT    BS2  730   3.938   0.081   0.204 -0.1566 -0.0790 -0.4776
  147BDT   BNZ1  731   3.704   3.136   0.324 -0.1699  0.1762 -0.0981
  147BDT   BNZ2  732   3.725   3.245   0.469  0.0454 -0.0500  0.0446
  147BDT   BNZ3  733   3.854   3.331   0.270  0.4070 -0.1646  0.2246
  147BDT    BS1  734   3.820   3.203   0.125  0.1357  0.0887  0.0523
  147BDT    BS2  735   3.866   3.437   0.436  0.5950 -0.3999  0.3521
  148BDT   BNZ1  736   2.699   1.481   6.054  0.2205 -0.0058 -0.2197
  148BDT   BNZ2  737   2.528   1.435   6.008  0.0628 -0.0399  0.3598
  148BDT   BNZ3  738   2.628   1.595   5.841 -0.5255 -0.0354 -0.0019
  148BDT    BS1  739   2.810   1.634   5.905 -0.3171 -0.0061 -0.6129
  148BDT    BS2  740   2.443   1.534   5.807 -0.6330 -0.0739  0.6362
  149BDT   BNZ1  741   3.110   3.650   6.507 -0.1889 -0.1341 -0.0478
  149BDT   BNZ2  742   3.041   3.686   6.341 -0.0039 -0.1721 -0.1338
  149BDT   BNZ3  743   3.246   3.540   6.326  0.0223 -0.1655  0.1276
  149BDT    BS1  744   3.306   3.511   6.511 -0.1866 -0.1229  0.2020
  149BDT    BS2  745   3.158   3.589   6.155  0.2110 -0.2048  0.0187
  150BDT   BNZ1  746   2.754   2.384   1.363  0.1724 -0.1350 -0.2003
  150BDT   BNZ2  747   2.824   2.551   1.337 -0.1079  0.0301  0.0711
  150BDT   BNZ3  748   2.983   2.404   1.465  0.1398  0.0876 -0.1670
  150BDT    BS1  749   2.893   2.230   1.483  0.4347 -0.0913 -0.4515
  150BDT    BS2  750   3.043   2.588   1.427 -0.1713  0.2529  0.1327
  151BDT   BNZ1  751   4.651   3.455   0.402 -0.1476 -0.2647  0.1060
  151BDT   BNZ2  752   4.690   3.414   0.576  0.0127 -0.0914  0.1129
  151BDT   BNZ3  753   4.850   3.586   0.485 -0.1282 -0.1109 -0.1767
  151BDT    BS1  754   4.794   3.618   0.299 -0.2960 -0.3033 -0.1597
  151BDT    BS2  755   4.877   3.529   0.672  0.0475  0.0689 -0.1469
  152BDT   BNZ1  756   2.104   1.175   1.119 -0.1073 -0.1060 -0.2026
  152BDT   BNZ2  757   2.172   1.017   1.180  0.0521 -0.0071 -0.1184
  152BDT   BNZ3  758   2.116   1.171   1.371 -0.1318  0.0277 -0.1988
  152BDT    BS1  759   2.045   1.335   1.289 -0.2936 -0.0869 -0.2856
  152BDT    BS2  760   2.191   0.994   1.418  0.0481  0.1270 -0.1056
  153BDT   BNZ1  761   3.080   2.677   5.975 -0.0327  0.0730 -0.1957
  153BDT   BNZ2  762   2.980   2.829   5.999  0.2293  0.2016  0.1257
  153BDT   BNZ3  763   2.928   2.657   6.176  0.0682 -0.0137 -0.1273
  153BDT    BS1  764   3.043   2.502   6.136 -0.2158 -0.1304 -0.4636
  153BDT    BS2  765   2.829   2.828   6.185  0.3526  0.1371  0.2252
  154BDT   BNZ1  766   5.050   1.664   5.897 -0.0329 -0.0518 -0.0847
  154BDT   BNZ2  767   5.036   1.654   6.079  0.2286 -0.0702 -0.0648
  154BDT   BNZ3  768   4.832   1.559   5.967 -0.0160  0.1108  0.2202
  154BDT    BS1  769   4.862   1.577   5.773 -0.2853  0.1180  0.1806
  154BDT    BS2  770   4.835   1.556   6.165  0.2766  0.0782  0.2184
  155BDT   BNZ1  771   4.123   2.667   0.918 -0.0934 -0.0368  0.0535
  155BDT   BNZ2  772   4.090   2.602   0.749  0.1505  0.0504 -0.0293
  155BDT   BNZ3  773   3.876   2.631   0.879 -0.0318 -0.1108 -0.2896
  155BDT    BS1  774   3.929   2.700   1.056 -0.2869 -0.1962 -0.1810
  155BDT    BS2  775   3.860   2.561   0.695  0.2376 -0.0071 -0.3534
  156BDT   BNZ1  776   4.192   2.717   6.214 -0.0346  0.1402  0.0277
  156BDT   BNZ2  777   4.010   2.736   6.225 -0.0393  0.1699 -0.0971
  156BDT   BNZ3  778   4.080   2.647   6.000  0.0902  0.0233 -0.0000
  156BDT    BS1  779   4.276   2.632   6.005  0.0844  0.0021  0.1316
  156BDT    BS2  780   3.886   2.673   6.029  0.0747  0.0662 -0.1363
  157BDT   BNZ1  781   5.446   2.193   6.727  0.0333  0.4577  0.0208
  157BDT   BNZ2  782   5.274   2.216   6.670 -0.0861 -0.0992  0.1268
  157BDT   BNZ3  783   5.411   2.093   6.498  0.0530 -0.1516  0.2744
  157BDT    BS1  784   5.592   2.077   6.575  0.1697  0.4725  0.1466
  157BDT    BS2  785   5.222   2.127   6.453 -0.0684 -0.7237  0.3795
  158BDT   BNZ1  786   4.160   2.079   6.920  0.0406  0.0642 -0.0404
  158BDT   BNZ2  787   4.277   2.183   7.014 -0.0889  0.2374 -0.0667
  158BDT   BNZ3  788   4.101   2.323   6.902 -0.3541 -0.0224  0.0169
  158BDT    BS1  789   3.984   2.197   6.806 -0.1874 -0.1960  0.0412
  158BDT    BS2  790   4.237   2.419   7.008 -0.4659  0.1749 -0.0170
  159BDT   BNZ1  791   3.970   0.218   1.310  0.1242  0.0149 -0.1402
  159BDT   BNZ2  792   3.852   0.079   1.292  0.2618 -0.1069 -0.1154
  159BDT   BNZ3  793   3.778   0.240   1.472  0.1277 -0.1739 -0.1097
  159BDT    BS1  794   3.915   0.381   1.478 -0.0151 -0.0345 -0.1381
  159BDT    BS2  795   3.662   0.083   1.439  0.2817 -0.2939 -0.0847
  160BDT   BNZ1  796   2.608   0.279   5.692 -0.1348  0.2542 -0.5514
  160BDT   BNZ2  797   2.579   0.101   5.723 -0.0881  0.3466  0.0847
  160BDT   BNZ3  798   2.363   0.223   5.681 -0.2050  0.2753  0.4614
  160BDT    BS1  799   2.412   0.411   5.650 -0.2376  0.1810 -0.2732
  160BDT    BS2  800   2.350   0.029   5.717 -0.1333  0.4028  1.0849
  161BDT   BNZ1  801   3.458   0.679   0.797  0.1874  0.0321  0.0065
  161BDT   BNZ2  802   3.578   0.745   0.675  0.1563 -0.0278 -0.0575
  161BDT   BNZ3  803   3.592   0.494   0.689 -0.0587 -0.0463 -0.1673
  161BDT    BS1  804   3.458   0.439   0.822 -0.0084  0.0227 -0.0871
  161BDT    BS2  805   3.714   0.584   0.562 -0.0746 -0.1058 -0.2235
  162BDT   BNZ1  806   4.713   1.245   7.000 -0.0957 -0.0785 -0.0101
  162BDT   BNZ2  807   4.705   1.320   6.833  0.1801  0.1010  0.0536
  162BDT   BNZ3  808   4.636   1.484   7.011  0.2344  0.0236  0.1464
  162BDT    BS1  809   4.651   1.388   7.182 -0.0756 -0.1698  0.0666
  162BDT    BS2  810   4.633   1.549   6.824  0.5158  0.2127  0.2089
  163BDT   BNZ1  811   3.730   2.268   1.555 -0.1438 -0.2017  0.1515
  163BDT   BNZ2  812   3.847   2.307   1.691 -0.0553 -0.0593  0.0362
  163BDT   BNZ3  813   3.908   2.091   1.576  0.0856  0.0060 -0.0127
  163BDT    BS1  814   3.773   2.065   1.434 -0.0245 -0.1562  0.1188
  163BDT    BS2  815   4.024   2.148   1.725  0.1630  0.1485 -0.1301
  164BDT   BNZ1  816   5.542   1.613   0.800 -0.0543  0.0851  0.0535
  164BDT   BNZ2  817   5.611   1.773   0.744 -0.2761  0.1300 -0.0971
  164BDT   BNZ3  818   5.564   1.776   0.991  0.0601  0.1706 -0.0313
  164BDT    BS1  819   5.491   1.598   1.034  0.2824  0.1221  0.1281
  164BDT    BS2  820   5.639   1.941   0.913 -0.1962  0.2143 -0.1937
  165BDT   BNZ1  821   3.408   0.883   0.026  0.0200  0.0878  0.0978
  165BDT   BNZ2  822   3.351   0.821  -0.136  0.2697 -0.0011  0.0432
  165BDT   BNZ3  823   3.563   0.955  -0.159  0.2045  0.1431  0.2727
  165BDT    BS1  824   3.610   1.014   0.023 -0.0694  0.2290  0.3131
  165BDT    BS2  825   3.488   0.879  -0.325  0.4674  0.0392  0.1986
  166BDT   BNZ1  826   4.970   2.396   0.068  0.2213  0.1008  0.1690
  166BDT   BNZ2  827   5.050   2.242   0.008 -0.2967 -0.2513  0.3446
  166BDT   BNZ3  828   4.938   2.368  -0.180 -0.1546 -0.2623  0.2521
  166BDT    BS1  829   4.858   2.529  -0.098  0.4146  0.1191  0.0613
  166BDT    BS2  830   5.029   2.200  -0.228 -0.7072 -0.6149  0.4464
  167BDT   BNZ1  831   1.002   0.632   6.611  0.1742  0.2511 -0.0631
  167BDT   BNZ2  832   1.139   0.525   6.552  0.2206  0.1798  0.1688
  167BDT   BNZ3  833   1.058   0.680   6.370  0.0863 -0.3170 -0.2058
  167BDT    BS1  834   0.913   0.786   6.450  0.0485 -0.2049 -0.4291
  167BDT    BS2  835   1.207   0.558   6.324  0.1458 -0.3537  0.0708
  168BDT   BNZ1  836   3.673   7.059   6.834 -0.1508  0.1555 -0.0467
  168BDT   BNZ2  837   3.766   7.187   6.925 -0.1726  0.0773  0.0879
  168BDT   BNZ3  838   3.680   7.009   7.081 -0.0780 -0.1412 -0.1061
  168BDT    BS1  839   3.584   6.880   6.968 -0.0603 -0.0358 -0.2415
  168BDT    BS2  840   3.784   7.157   7.162 -0.1082 -0.2038  0.0470
  169BDT   BNZ1  841   5.057   0.699   7.037 -0.1343  0.2570  0.0423
  169BDT   BNZ2  842   5.181   0.673   6.905 -0.2317 -0.0144  0.0028
  169BDT   BNZ3  843   4.984   0.807   6.821 -0.0456  0.2733  0.0205
  169BDT    BS1  844   4.862   0.826   6.975  0.0528  0.5509  0.0588
  169BDT    BS2  845   5.128   0.768   6.691 -0.1600 -0.0315 -0.0224
  170BDT   BNZ1  846   3.517   2.055   5.167 -0.0627  0.0095  0.0637
  170BDT   BNZ2  847   3.512   2.122   5.338 -0.3662 -0.0288  0.0719
  170BDT   BNZ3  848   3.373   2.261   5.180  0.3892  0.3580 -0.2785
  170BDT    BS1  849   3.390   2.177   5.003  0.6745  0.3667 -0.2436
  170BDT    BS2  850   3.379   2.319   5.369  0.0209  0.2812 -0.2298
  171BDT   BNZ1  851   2.763   1.633   0.634  0.2158  0.0383  0.0806
  171BDT   BNZ2  852   2.942   1.640   0.674  0.2118 -0.2265  0.1571
  171BDT   BNZ3  853   2.816   1.499   0.841 -0.0876  0.0389  0.1604
  171BDT    BS1  854   2.628   1.502   0.783 -0.0550  0.3137  0.0746
  171BDT    BS2  855   3.011   1.519   0.869 -0.0667 -0.2553  0.2375
  172BDT   BNZ1  856   1.996   2.825   1.569 -0.2216 -0.1356 -0.1874
  172BDT   BNZ2  857   2.113   2.725   1.470  0.1139  0.0666 -0.0014
  172BDT   BNZ3  858   2.169   2.716   1.716 -0.1705  0.2881  0.0743
  172BDT    BS1  859   2.034   2.828   1.806 -0.5189  0.0445 -0.1432
  172BDT    BS2  860   2.286   2.614   1.594  0.1945  0.4832  0.2613
  173BDT   BNZ1  861   2.581   2.092   5.311  0.1410 -0.0451  0.0337
  173BDT   BNZ2  862   2.522   2.187   5.456  0.0295  0.0637 -0.0823
  173BDT   BNZ3  863   2.329   2.099   5.319  0.1340 -0.0622 -0.1490
  173BDT    BS1  864   2.410   2.000   5.169  0.2496 -0.1723 -0.0138
  173BDT    BS2  865   2.284   2.204   5.480  0.0109  0.0603 -0.2639
  174BDT   BNZ1  866   2.761   3.509   6.129 -0.1039 -0.1390  0.0941
  174BDT   BNZ2  867   2.607   3.593   6.077  0.2374  0.3025 -0.2496
  174BDT   BNZ3  868   2.641   3.378   5.950 -0.0492  0.2396 -0.2246
  174BDT    BS1  869   2.810   3.301   6.017 -0.4178 -0.2380  0.1515
  174BDT    BS2  870   2.479   3.483   5.907  0.3364  0.6972 -0.5782
  175BDT   BNZ1  871   2.476   1.128   5.032 -0.0684  0.1691 -0.0762
  175BDT   BNZ2  872   2.485   0.992   4.910 -0.0783 -0.0074  0.1171
  175BDT   BNZ3  873   2.715   1.079   4.968 -0.0661 -0.0022  0.0615
  175BDT    BS1  874   2.686   1.223   5.099 -0.0561  0.1919 -0.1500
  175BDT    BS2  875   2.706   0.931   4.838 -0.0775 -0.1835  0.2674
  176BDT   BNZ1  876   1.824   2.555   7.034 -0.1529 -0.0212 -0.0263
  176BDT   BNZ2  877   1.700   2.689   7.025 -0.0806  0.0414 -0.0984
  176BDT   BNZ3  878   1.628   2.509   7.185 -0.2733  0.0675 -0.1535
  176BDT    BS1  879   1.772   2.374   7.183 -0.3387 -0.0031 -0.0698
  176BDT    BS2  880   1.505   2.662   7.163 -0.1824  0.1304 -0.2241
  177BDT   BNZ1  881   2.274   1.433   7.018 -0.2223 -0.0531  0.2844
  177BDT   BNZ2  882   2.430   1.378   7.097 -0.1500 -0.1484  0.0781
  177BDT   BNZ3  883   2.259   1.447   7.269  0.1325 -0.0082  0.3051
  177BDT    BS1  884   2.100   1.503   7.169  0.0340  0.0854  0.5155
  177BDT    BS2  885   2.434   1.384   7.337  0.1851 -0.1185  0.0710
  178BDT   BNZ1  886   2.280   0.605   7.060  0.0682 -0.0938 -0.2718
  178BDT   BNZ2  887   2.383   0.483   7.150  0.1370  0.0568 -0.1453
  178BDT   BNZ3  888   2.157   0.387   7.093  0.1000 -0.0488  0.1693
  178BDT    BS1  889   2.060   0.530   6.998  0.0285 -0.2057  0.0046
  178BDT    BS2  890   2.282   0.270   7.191  0.1746  0.1193  0.2733
  179BDT   BNZ1  891   2.405   0.444   0.282  0.0909 -0.0635 -0.3590
  179BDT   BNZ2  892   2.588   0.439   0.290  0.0804 -0.0451  0.0013
  179BDT   BNZ3  893   2.484   0.297   0.470 -0.2610  0.1356 -0.0475
  179BDT    BS1  894   2.290   0.314   0.448 -0.2198  0.1032 -0.4462
  179BDT    BS2  895   2.682   0.303   0.463 -0.2488  0.1422  0.3263
  180BDT   BNZ1  896   3.754   2.391   7.049  0.0451  0.1520 -0.1083
  180BDT   BNZ2  897   3.642   2.479   6.934 -0.1842 -0.1622 -0.1331
  180BDT   BNZ3  898   3.585   2.531   7.174  0.1226  0.2837 -0.1499
  180BDT    BS1  899   3.714   2.429   7.283  0.3462  0.6034 -0.1313
  180BDT    BS2  900   3.475   2.618   7.035 -0.1410 -0.0764 -0.1789
  181BDT   BNZ1  901   2.550   2.593   7.129  0.0032 -0.0819  0.1338
  181BDT   BNZ2  902   2.432   2.646   7.258  0.1351 -0.0922  0.2601
  181BDT   BNZ3  903   2.566   2.446   7.333  0.0125 -0.2778 -0.0063
  181BDT    BS1  904   2.687   2.403   7.184 -0.1269 -0.2499 -0.1246
  181BDT    BS2  905   2.433   2.517   7.461  0.1577 -0.2720  0.1459
  182BDT   BNZ1  906   2.088   0.471   5.443 -0.1582  0.0899  0.0525
  182BDT   BNZ2  907   2.013   0.450   5.278 -0.1666 -0.0352  0.0714
  182BDT   BNZ3  908   1.940   0.267   5.435  0.2661 -0.2233  0.0577
  182BDT    BS1  909   2.029   0.304   5.606  0.2445 -0.0659  0.0368
  182BDT    BS2  910   1.869   0.260   5.251  0.2252 -0.3332  0.0784
  183BDT   BNZ1  911   5.015   2.675   6.373  0.0645 -0.0793  0.0330
  183BDT   BNZ2  912   5.190   2.723   6.398  0.0523 -0.0303  0.0231
  183BDT   BNZ3  913   5.157   2.477   6.438  0.1885 -0.1051 -0.3070
  183BDT    BS1  914   4.966   2.442   6.408  0.1909 -0.1512 -0.2711
  183BDT    BS2  915   5.340   2.547   6.460  0.1641 -0.0460 -0.2910
  184BDT   BNZ1  916   5.675   0.456   6.715 -0.0529 -0.1159  0.1592
  184BDT   BNZ2  917   5.653   0.599   6.603  0.0855 -0.3200 -0.1361
  184BDT   BNZ3  918   5.455   0.572   6.756 -0.1014 -0.0254 -0.3191
  184BDT    BS1  919   5.495   0.415   6.869 -0.2382  0.1812  0.0187
  184BDT    BS2  920   5.449   0.722   6.628  0.0602 -0.2644 -0.6083
  185BDT   BNZ1  921   3.496   0.060   0.092  0.1008  0.0203  0.1885
  185BDT   BNZ2  922   3.466  -0.111   0.034  0.2237  0.0722 -0.0331
  185BDT   BNZ3  923   3.264  -0.018   0.152  0.0720 -0.1418 -0.1209
  185BDT    BS1  924   3.313   0.164   0.207 -0.0514 -0.1845  0.1307
  185BDT    BS2  925   3.250  -0.203   0.083  0.2134 -0.0687 -0.3428
  186BDT   BNZ1  926   3.156   3.026   5.513  0.5980  0.4533  0.3824
  186BDT   BNZ2  927   3.119   2.959   5.679 -0.0003  0.2582  0.1847
  186BDT   BNZ3  928   3.079   3.207   5.671 -0.3240  0.2103  0.2431
  186BDT    BS1  929   3.123   3.263   5.487  0.3674  0.4239  0.4536
  186BDT    BS2  930   3.045   3.117   5.843 -0.9089  0.0151  0.0064
  187BDT   BNZ1  931   4.181   2.907   0.354  0.0336 -0.2167 -0.2764
  187BDT   BNZ2  932   4.096   2.816   0.488  0.2226 -0.0880 -0.0648
  187BDT   BNZ3  933   3.985   3.038   0.443  0.1108 -0.1663 -0.1797
  187BDT    BS1  934   4.088   3.122   0.298 -0.0924 -0.3053 -0.4023
  187BDT    BS2  935   3.906   2.926   0.585  0.3157 -0.0263  0.0477
  188BDT   BNZ1  936   4.785   7.192   6.522 -0.0225  0.1374  0.1983
  188BDT   BNZ2  937   4.746   7.335   6.415  0.0752  0.0549  0.0508
  188BDT   BNZ3  938   4.976   7.243   6.365 -0.0457 -0.2465  0.0392
  188BDT    BS1  939   5.001   7.091   6.488 -0.1471 -0.1315  0.2049
  188BDT    BS2  940   4.917   7.399   6.258  0.0634 -0.3089 -0.1099
  189BDT   BNZ1  941   1.583   1.768   0.292 -0.0158 -0.1249  0.0310
  189BDT   BNZ2  942   1.510   1.641   0.182 -0.2101  0.1816 -0.2015
  189BDT   BNZ3  943   1.334   1.752   0.324 -0.0649  0.2991 -0.1109
  189BDT    BS1  944   1.428   1.884   0.435  0.1393 -0.0531  0.1371
  189BDT    BS2  945   1.273   1.612   0.199 -0.2735  0.6110 -0.3551
  190BDT   BNZ1  946   1.359   2.160   0.187 -0.0734  0.0506 -0.0995
  190BDT   BNZ2  947   1.301   2.324   0.244 -0.0069  0.0541 -0.0414
  190BDT   BNZ3  948   1.522   2.342   0.124 -0.0379  0.0171 -0.1046
  190BDT    BS1  949   1.569   2.159   0.070 -0.1095  0.0164 -0.1639
  190BDT    BS2  950   1.444   2.510   0.194  0.0334  0.0236 -0.0394
  191BDT   BNZ1  951   4.286   0.594   6.079 -0.0774 -0.0896  0.0044
  191BDT   BNZ2  952   4.202   0.733   6.164  0.0822  0.0520 -0.0677
  191BDT   BNZ3  953   4.219   0.774   5.916 -0.1814 -0.2578 -0.1403
  191BDT    BS1  954   4.311   0.616   5.841 -0.3403 -0.3881 -0.0505
  191BDT    BS2  955   4.131   0.914   6.023  0.0044 -0.0856 -0.2063
  192BDT   BNZ1  956   4.035   2.549   6.529  0.0540 -0.0293 -0.3420
  192BDT   BNZ2  957   4.163   2.441   6.456  0.0767 -0.1297 -0.1547
  192BDT   BNZ3  958   4.159   2.422   6.707 -0.0843  0.1205 -0.1368
  192BDT    BS1  959   4.017   2.544   6.768 -0.0961  0.2119 -0.3481
  192BDT    BS2  960   4.292   2.311   6.612 -0.0485 -0.0029  0.0543
  193BDT   BNZ1  961   4.155   0.919   1.306  0.1943  0.0550  0.0980
  193BDT   BNZ2  962   4.143   1.033   1.163  0.1643  0.2609  0.2622
  193BDT   BNZ3  963   3.949   1.063   1.321  0.0484 -0.1630  0.2069
  193BDT    BS1  964   3.977   0.934   1.467  0.0923 -0.3560  0.0235
  193BDT    BS2  965   3.952   1.178   1.160  0.0286  0.0848  0.3790
  194BDT   BNZ1  966   2.330   7.229   6.429  0.0645  0.1184  0.0844
  194BDT   BNZ2  967   2.239   7.215   6.588 -0.1387 -0.2069 -0.0561
  194BDT   BNZ3  968   2.398   7.022   6.555 -0.1072 -0.1492 -0.2527
  194BDT    BS1  969   2.487   7.053   6.382  0.1135  0.2086 -0.0792
  194BDT    BS2  970   2.292   7.023   6.722 -0.3172 -0.4884 -0.3884
  195BDT   BNZ1  971   5.423   1.845   0.461  0.0136  0.0065  0.0106
  195BDT   BNZ2  972   5.376   1.989   0.358 -0.0688 -0.0037  0.0331
  195BDT   BNZ3  973   5.210   1.801   0.333 -0.0095 -0.0614  0.0721
  195BDT    BS1  974   5.275   1.656   0.450  0.0774 -0.0453  0.0439
  195BDT    BS2  975   5.176   1.965   0.228 -0.0995 -0.0672  0.0923
  196BDT   BNZ1  976   2.391   6.808   0.654 -0.0998 -0.1632  0.0130
  196BDT   BNZ2  977   2.460   6.896   0.509 -0.0756 -0.2067 -0.0021
  196BDT   BNZ3  978   2.643   6.809   0.659 -0.1014 -0.1092  0.0866
  196BDT    BS1  979   2.553   6.718   0.808 -0.1263 -0.0682  0.0960
  196BDT    BS2  980   2.700   6.908   0.497 -0.0744 -0.1619  0.0635
  197BDT   BNZ1  981   4.480   7.084   1.085  0.0370 -0.3475 -0.1681
  197BDT   BNZ2  982   4.386   7.040   0.934 -0.1243 -0.0501 -0.1578
  197BDT   BNZ3  983   4.529   7.245   0.897  0.0323 -0.1267  0.0172
  197BDT    BS1  984   4.622   7.277   1.068  0.1965 -0.4526 -0.0110
  197BDT    BS2  985   4.421   7.183   0.744 -0.1465  0.1870  0.0159
  198BDT   BNZ1  986   1.048   2.961   6.833 -0.1203 -0.0463  0.1766
  198BDT   BNZ2  987   0.921   3.094   6.839  0.0009  0.0694  0.1925
  198BDT   BNZ3  988   0.849   2.905   6.688 -0.0587  0.2734 -0.0365
  198BDT    BS1  989   0.994   2.773   6.693 -0.1872  0.1304 -0.0350
  198BDT    BS2  990   0.724   3.058   6.707  0.0740  0.3764 -0.0001
  199BDT   BNZ1  991   1.703   1.344   5.748 -0.1386 -0.0221 -0.0650
  199BDT   BNZ2  992   1.764   1.237   5.883 -0.2685  0.0115  0.0209
  199BDT   BNZ3  993   1.685   1.460   5.971 -0.1569  0.1144 -0.1370
  199BDT    BS1  994   1.623   1.561   5.813 -0.0207  0.0679 -0.2192
  199BDT    BS2  995   1.754   1.332   6.104 -0.3001  0.1402 -0.0355
  200BDT   BNZ1  996   1.587   1.213   1.817 -0.2710  0.1419  0.0574
  200BDT   BNZ2  997   1.748   1.275   1.758 -0.1310 -0.2998 -0.0436
  200BDT   BNZ3  998   1.557   1.384   1.634  0.1135 -0.2615 -0.3966
  200BDT    BS1  999   1.393   1.306   1.710 -0.0569  0.2227 -0.2539
  200BDT    BS2 1000   1.740   1.439   1.583  0.2307 -0.7289 -0.4647
  201BDT   BNZ1 1001   3.229   3.274   0.902  0.2389 -0.2096  0.4320
  201BDT   BNZ2 1002   3.105   3.181   0.804  0.2728  0.1098  0.0764
  201BDT   BNZ3 1003   3.018   3.234   1.034 -0.1754  0.1474 -0.0975
  201BDT    BS1 1004   3.161   3.333   1.125 -0.1747 -0.2106  0.3047
  201BDT    BS2 1005   2.898   3.133   0.913 -0.0913  0.4808 -0.4497
  202BDT   BNZ1 1006   5.089   2.341   5.711 -0.1682  0.1310 -0.0631
  202BDT   BNZ2 1007   5.070   2.380   5.533  0.1227  0.2120 -0.0780
  202BDT   BNZ3 1008   5.271   2.496   5.632 -0.1051  0.2642  0.3331
  202BDT    BS1 1009   5.275   2.444   5.821 -0.4137  0.1693  0.3128
  202BDT    BS2 1010   5.235   2.527   5.440  0.2115  0.3416  0.2844
  203BDT   BNZ1 1011   2.922   3.623   0.441  0.1898  0.0447  0.0378
  203BDT   BNZ2 1012   2.919   3.780   0.535 -0.0863  0.0778 -0.0209
  203BDT   BNZ3 1013   2.825   3.810   0.303 -0.0125 -0.1452 -0.0812
  203BDT    BS1 1014   2.835   3.634   0.217  0.2886 -0.1628 -0.0092
  203BDT    BS2 1015   2.830   3.971   0.419 -0.3036 -0.0952 -0.1372
  204BDT   BNZ1 1016   3.610   1.152   1.300 -0.1929  0.1542  0.0997
  204BDT   BNZ2 1017   3.580   0.994   1.387  0.0810  0.0176 -0.0454
  204BDT   BNZ3 1018   3.681   1.167   1.541  0.4009 -0.1661 -0.0450
  204BDT    BS1 1019   3.706   1.328   1.432  0.0708  0.0007  0.1096
  204BDT    BS2 1020   3.641   0.989   1.619  0.6579 -0.2857 -0.2047
  205BDT   BNZ1 1021   4.242   4.060   7.237 -0.0756 -0.0836 -0.0894
  205BDT   BNZ2 1022   4.185   4.136   7.080 -0.1033 -0.0524 -0.0643
  205BDT   BNZ3 1023   4.419   4.044   7.058 -0.1261 -0.0925 -0.1386
  205BDT    BS1 1024   4.464   3.967   7.234 -0.0936 -0.1240 -0.1606
  205BDT    BS2 1025   4.341   4.129   6.898 -0.1529 -0.0571 -0.1066
  206BDT   BNZ1 1026   5.342   2.724   0.751  0.0589  0.1156  0.2237
  206BDT   BNZ2 1027   5.257   2.569   0.798 -0.2062  0.1834 -0.0164
  206BDT   BNZ3 1028   5.402   2.536   0.595 -0.2627  0.2487 -0.0675
  206BDT    BS1 1029   5.485   2.711   0.558  0.0350  0.1685  0.2042
  206BDT    BS2 1030   5.303   2.378   0.660 -0.5297  0.3201 -0.3124
  207BDT   BNZ1 1031   1.221   3.282   6.467 -0.3945 -0.0659 -0.4389
  207BDT   BNZ2 1032   1.145   3.132   6.540 -0.3601 -0.0316 -0.3330
  207BDT   BNZ3 1033   1.328   3.071   6.378  0.0009 -0.0984  0.0891
  207BDT    BS1 1034   1.398   3.241   6.309 -0.0686 -0.1249 -0.0582
  207BDT    BS2 1035   1.234   2.922   6.467  0.0040 -0.0506  0.1668
  208BDT   BNZ1 1036   2.152   1.394   5.463  0.2951 -0.1437  0.1235
  208BDT   BNZ2 1037   2.148   1.546   5.566  0.1810  0.0078 -0.1002
  208BDT   BNZ3 1038   1.929   1.422   5.578  0.2773 -0.1469  0.0896
  208BDT    BS1 1039   1.950   1.263   5.463  0.3966 -0.2986  0.3261
  208BDT    BS2 1040   1.943   1.588   5.683  0.1516  0.0226 -0.1572
  209BDT   BNZ1 1041   3.552   3.755   0.753  0.1148  0.1175  0.0719
  209BDT   BNZ2 1042   3.445   3.618   0.698  0.2803 -0.0063  0.0544
  209BDT   BNZ3 1043   3.667   3.533   0.781  0.2622  0.2263  0.3470
  209BDT    BS1 1044   3.769   3.692   0.836  0.0768  0.3452  0.3425
  209BDT    BS2 1045   3.538   3.397   0.718  0.4333  0.0807  0.3046
  210BDT   BNZ1 1046   4.334   0.323   1.436  0.2058 -0.0864 -0.2886
  210BDT   BNZ2 1047   4.227   0.472   1.429  0.1089 -0.1411 -0.0189
  210BDT   BNZ3 1048   4.239   0.358   1.205 -0.0431  0.1144 -0.1591
  210BDT    BS1 1049   4.357   0.202   1.230  0.0745  0.1584 -0.4459
  210BDT    BS2 1050   4.128   0.521   1.217 -0.1296  0.0360  0.1330
  211BDT   BNZ1 1051   5.165   1.155   6.329 -0.1844  0.0068 -0.0450
  211BDT   BNZ2 1052   5.181   1.135   6.148 -0.1813 -0.0768 -0.0360
  211BDT   BNZ3 1053   5.175   1.379   6.213 -0.1444 -0.0461 -0.1447
  211BDT    BS1 1054   5.158   1.381   6.410 -0.1507  0.0439 -0.1466
  211BDT    BS2 1055   5.192   1.339   6.021 -0.1441 -0.1352 -0.1264
  212BDT   BNZ1 1056   1.398   1.797   6.553 -0.1249 -0.0329 -0.0899
  212BDT   BNZ2 1057   1.573   1.768   6.509 -0.1138 -0.0119 -0.0599
  212BDT   BNZ3 1058   1.427   1.574   6.439 -0.0615 -0.0787  0.0159
  212BDT    BS1 1059   1.244   1.622   6.494 -0.0779 -0.0966 -0.0231
  212BDT    BS2 1060   1.620   1.559   6.400 -0.0544 -0.0512  0.0408
  213BDT   BNZ1 1061   4.102   1.333   0.917  0.0360 -0.0400  0.0610
  213BDT   BNZ2 1062   4.134   1.204   0.792 -0.1014  0.1753 -0.2032
  213BDT   BNZ3 1063   4.349   1.290   0.891  0.0159  0.0762 -0.3691
  213BDT    BS1 1064   4.297   1.427   1.022  0.1579 -0.1567 -0.0647
  213BDT    BS2 1065   4.364   1.148   0.753 -0.1386  0.3111 -0.6250
  214BDT   BNZ1 1066   3.794   0.939   5.766 -0.0722 -0.1468  0.0647
  214BDT   BNZ2 1067   3.804   0.991   5.591 -0.2601  0.0185  0.1014
  214BDT   BNZ3 1068   3.928   0.775   5.629  0.1719  0.2171 -0.1398
  214BDT    BS1 1069   3.907   0.734   5.820  0.3447  0.0232 -0.1648
  214BDT    BS2 1070   3.928   0.847   5.445 -0.0602  0.3758 -0.0815
  215BDT   BNZ1 1071   2.353   0.747   1.730 -0.0157 -0.0013  0.0554
  215BDT   BNZ2 1072   2.224   0.819   1.838  0.0440  0.0241  0.1103
  215BDT   BNZ3 1073   2.406   0.710   1.974  0.0680 -0.0326  0.0326
  215BDT    BS1 1074   2.535   0.639   1.844 -0.0004 -0.0563 -0.0222
  215BDT    BS2 1075   2.258   0.793   2.074  0.1278 -0.0017  0.0955
  216BDT   BNZ1 1076   3.547   3.645   5.758  0.1593  0.0857 -0.0584
  216BDT   BNZ2 1077   3.681   3.569   5.856  0.0207 -0.1097 -0.0151
  216BDT   BNZ3 1078   3.584   3.404   5.693  0.0069  0.1070 -0.2284
  216BDT    BS1 1079   3.442   3.500   5.596  0.1645  0.3067 -0.2575
  216BDT    BS2 1080   3.732   3.340   5.808 -0.1350 -0.1118 -0.1656
  217BDT   BNZ1 1081   1.346   1.715   6.904 -0.0023 -0.0591 -0.1533
  217BDT   BNZ2 1082   1.278   1.877   6.850 -0.1255 -0.0711 -0.0357
  217BDT   BNZ3 1083   1.286   1.859   7.102 -0.1339 -0.2574 -0.0480
  217BDT    BS1 1084   1.360   1.681   7.141  0.0034 -0.2295 -0.1784
  217BDT    BS2 1085   1.215   2.027   7.026 -0.2600 -0.2560  0.0741
  218BDT   BNZ1 1086   4.183   1.515   1.408 -0.0302  0.1371  0.0740
  218BDT   BNZ2 1087   4.070   1.420   1.516 -0.0701 -0.0004 -0.0853
  218BDT   BNZ3 1088   4.280   1.290   1.467  0.0489  0.1533  0.0071
  218BDT    BS1 1089   4.389   1.405   1.350  0.0818  0.2927  0.1786
  218BDT    BS2 1090   4.146   1.202   1.583 -0.0025 -0.0013 -0.1650
  219BDT   BNZ1 1091   3.098   1.954   1.338  0.2595 -0.3778 -0.0577
  219BDT   BNZ2 1092   3.175   2.038   1.481  0.1229 -0.3086 -0.0239
  219BDT   BNZ3 1093   3.321   2.054   1.276  0.1173 -0.0202 -0.0085
  219BDT    BS1 1094   3.224   1.959   1.133  0.2674 -0.1201 -0.0465
  219BDT    BS2 1095   3.389   2.139   1.441 -0.0261  0.0265  0.0249
  220BDT   BNZ1 1096   3.022   3.720   6.947  0.0625  0.1420  0.0561
  220BDT   BNZ2 1097   3.091   3.594   6.834 -0.0130  0.2682 -0.1336
  220BDT   BNZ3 1098   3.027   3.493   7.056  0.2126  0.0335 -0.1731
  220BDT    BS1 1099   2.955   3.641   7.164  0.2802 -0.0893  0.0375
  220BDT    BS2 1100   3.104   3.371   6.921  0.1162  0.1845 -0.3671
  221BDT   BNZ1 1101   2.841   2.594   0.506 -0.2759  0.0644 -0.1399
  221BDT   BNZ2 1102   2.892   2.432   0.439  0.2419  0.1528  0.0190
  221BDT   BNZ3 1103   2.816   2.586   0.255  0.0811 -0.1484 -0.1718
  221BDT    BS1 1104   2.765   2.755   0.343 -0.4773 -0.2348 -0.3363
  221BDT    BS2 1105   2.875   2.405   0.201  0.6286 -0.0283  0.0116
  222BDT   BNZ1 1106   2.503   3.173   6.336  0.0659 -0.0003  0.2742
  222BDT   BNZ2 1107   2.399   3.304   6.262  0.0764 -0.0316  0.2042
  222BDT   BNZ3 1108   2.328   3.254   6.498  0.1302  0.1638  0.2622
  222BDT    BS1 1109   2.449   3.112   6.562  0.1146  0.1837  0.3347
  222BDT    BS2 1110   2.226   3.394   6.402  0.1369  0.1155  0.1844
  223BDT   BNZ1 1111   1.808   0.845   7.113  0.0614 -0.2423 -0.0326
  223BDT   BNZ2 1112   1.944   0.883   6.997  0.1666 -0.1233  0.1276
  223BDT   BNZ3 1113   1.906   1.072   7.159  0.0044 -0.2769  0.2712
  223BDT    BS1 1114   1.758   1.015   7.275 -0.0988 -0.3980  0.0806
  223BDT    BS2 1115   2.050   1.097   7.025  0.1252 -0.1429  0.4255
  224BDT   BNZ1 1116   3.631   1.726   6.787 -0.1286 -0.0099 -0.4951
  224BDT   BNZ2 1117   3.655   1.548   6.752 -0.0191 -0.1461  0.2009
  224BDT   BNZ3 1118   3.415   1.598   6.808 -0.0747 -0.0440 -0.1178
  224BDT    BS1 1119   3.406   1.792   6.842 -0.1890  0.0785 -0.8696
  224BDT    BS2 1120   3.460   1.410   6.767  0.0419 -0.1845  0.6296
  225BDT   BNZ1 1121   6.203   1.927   0.351 -0.1538  0.2329  0.1191
  225BDT   BNZ2 1122   6.314   2.056   0.285  0.1123 -0.1725 -0.2572
  225BDT   BNZ3 1123   6.080   2.081   0.194  0.1412  0.0853 -0.2655
  225BDT    BS1 1124   5.975   1.935   0.275 -0.1485  0.5227  0.1494
  225BDT    BS2 1125   6.214   2.213   0.133  0.4085 -0.3630 -0.6495
  226BDT   BNZ1 1126   3.293   3.031   1.790  0.0512  0.1059  0.0397
  226BDT   BNZ2 1127   3.237   3.050   1.963  0.3427  0.0799  0.1400
  226BDT   BNZ3 1128   3.428   3.206   1.911  0.0240  0.3455 -0.2686
  226BDT    BS1 1129   3.475   3.173   1.723 -0.2806  0.3517 -0.3407
  226BDT    BS2 1130   3.354   3.212   2.094  0.3474  0.2943 -0.1293
  227BDT   BNZ1 1131   4.110   3.638   6.679 -0.1554 -0.0677  0.0015
  227BDT   BNZ2 1132   4.003   3.686   6.538  0.2317  0.1153 -0.2391
  227BDT   BNZ3 1133   4.073   3.887   6.674  0.1093 -0.0254  0.0369
  227BDT    BS1 1134   4.186   3.818   6.819 -0.3175 -0.2153  0.2738
  227BDT    BS2 1135   3.956   3.920   6.517  0.5213  0.1741 -0.2323
  228BDT   BNZ1 1136   2.135   1.381   5.976  0.2561 -0.0367  0.0575
  228BDT   BNZ2 1137   2.126   1.289   5.818  0.2292  0.0862 -0.0129
  228BDT   BNZ3 1138   2.112   1.133   6.016 -0.3350 -0.0169 -0.1258
  228BDT    BS1 1139   2.124   1.247   6.176 -0.2610 -0.1392 -0.0425
  228BDT    BS2 1140   2.103   1.051   5.836 -0.3163  0.1253 -0.1919
  229BDT   BNZ1 1141   1.346   3.448   0.031  0.0022 -0.0517  0.0486
  229BDT   BNZ2 1142   1.470   3.313   0.026 -0.3515 -0.3832  0.0120
  229BDT   BNZ3 1143   1.443   3.404   0.259 -0.0705 -0.3363  0.0271
  229BDT    BS1 1144   1.308   3.547   0.247  0.3069  0.0205  0.0657
  229BDT    BS2 1145   1.573   3.257   0.235 -0.4619 -0.6802 -0.0123
  230BDT   BNZ1 1146   1.715   2.503   0.868  0.0581 -0.0002 -0.1058
  230BDT   BNZ2 1147   1.773   2.427   1.024  0.0013 -0.0948 -0.1304
  230BDT   BNZ3 1148   1.742   2.675   1.050 -0.0592 -0.1180  0.0244
  230BDT    BS1 1149   1.679   2.741   0.875  0.0086 -0.0120  0.0396
  230BDT    BS2 1150   1.804   2.576   1.209 -0.1132 -0.2143 -0.0144
  231BDT   BNZ1 1151   4.291   0.098   6.175 -0.1073  0.2720 -0.0268
  231BDT   BNZ2 1152   4.416   0.230   6.152  0.1185  0.0632 -0.0159
  231BDT   BNZ3 1153   4.305   0.171   5.934  0.2003  0.0931 -0.0657
  231BDT    BS1 1154   4.175   0.029   5.975 -0.0557  0.3233 -0.0732
  231BDT    BS2 1155   4.443   0.312   5.929  0.4243 -0.1285 -0.0489
  232BDT   BNZ1 1156   3.021   6.884   1.044 -0.0853  0.1291 -0.3221
  232BDT   BNZ2 1157   2.915   7.007   1.130 -0.0152  0.0620 -0.1375
  232BDT   BNZ3 1158   2.782   6.870   0.966 -0.1529  0.1848 -0.1285
  232BDT    BS1 1159   2.909   6.744   0.884 -0.2204  0.2510 -0.3331
  232BDT    BS2 1160   2.684   7.008   1.068 -0.0681  0.1049  0.0614
  233BDT   BNZ1 1161   2.868   7.264   0.846 -0.1434 -0.0546  0.0336
  233BDT   BNZ2 1162   3.004   7.261   0.724  0.0569 -0.1842  0.2540
  233BDT   BNZ3 1163   2.790   7.170   0.626  0.1091  0.0761 -0.1137
  233BDT    BS1 1164   2.656   7.180   0.770 -0.1103  0.2006 -0.3330
  233BDT    BS2 1165   2.948   7.174   0.507  0.3143 -0.0781  0.1452
  234BDT   BNZ1 1166   3.714   0.590   1.075 -0.1299 -0.0255 -0.0964
  234BDT   BNZ2 1167   3.659   0.762   1.108 -0.4203 -0.1007 -0.1698
  234BDT   BNZ3 1168   3.841   0.756   0.934 -0.2415  0.1482  0.0041
  234BDT    BS1 1169   3.887   0.566   0.911  0.0643  0.2175  0.0740
  234BDT    BS2 1170   3.770   0.934   0.982 -0.5573  0.0501 -0.0850
  235BDT   BNZ1 1171   3.806   2.235   0.307 -0.1841  0.1629  0.0105
  235BDT   BNZ2 1172   3.626   2.203   0.296 -0.0851 -0.4490  0.0005
  235BDT   BNZ3 1173   3.729   2.081   0.491  0.3032 -0.0020  0.0831
  235BDT    BS1 1174   3.921   2.126   0.488  0.1446  0.6417  0.0832
  235BDT    BS2 1175   3.535   2.058   0.464  0.3776 -0.6680  0.0628
  236BDT   BNZ1 1176   2.423   0.009   1.060 -0.0164 -0.0825 -0.0694
  236BDT   BNZ2 1177   2.580   0.104   1.062 -0.0390 -0.0441 -0.0866
  236BDT   BNZ3 1178   2.562  -0.048   1.262 -0.0387  0.0480 -0.0163
  236BDT    BS1 1179   2.389  -0.141   1.244 -0.0137 -0.0016 -0.0029
  236BDT    BS2 1180   2.725   0.061   1.248 -0.0625  0.0802 -0.0401
  237BDT   BNZ1 1181   2.757   6.498   0.329  0.3929  0.0945  0.0649
  237BDT   BNZ2 1182   2.585   6.488   0.388  0.3165 -0.0701 -0.1787
  237BDT   BNZ3 1183   2.747   6.424   0.569  0.1191 -0.0018  0.0254
  237BDT    BS1 1184   2.927   6.440   0.489  0.2149  0.1758  0.2801
  237BDT    BS2 1185   2.555   6.418   0.616  0.0571 -0.1772 -0.2447
  238BDT   BNZ1 1186   2.275   2.830   6.959  0.0633 -0.1044  0.2002
  238BDT   BNZ2 1187   2.317   2.711   6.826 -0.0130 -0.1375  0.2053
  238BDT   BNZ3 1188   2.413   2.939   6.779  0.1005 -0.1911  0.1759
  238BDT    BS1 1189   2.359   3.053   6.930  0.1763 -0.1507  0.1724
  238BDT    BS2 1190   2.449   2.798   6.646  0.0123 -0.2212  0.1836
  239BDT   BNZ1 1191   3.047   7.111   6.075 -0.1397 -0.1026  0.0844
  239BDT   BNZ2 1192   2.944   7.180   5.940 -0.0031  0.1708  0.1160
  239BDT   BNZ3 1193   2.829   7.200   6.164 -0.1616 -0.1362  0.0646
  239BDT    BS1 1194   2.953   7.122   6.296 -0.3043 -0.4134  0.0279
  239BDT    BS2 1195   2.731   7.270   6.007 -0.0077  0.1718  0.0999
  240BDT   BNZ1 1196   4.709   2.917   6.712  0.0648  0.2405 -0.1515
  240BDT   BNZ2 1197   4.758   3.012   6.861 -0.0226  0.0727 -0.0147
  240BDT   BNZ3 1198   4.909   2.814   6.826 -0.0435  0.0738 -0.1116
  240BDT    BS1 1199   4.843   2.724   6.663  0.0553  0.2609 -0.2546
  240BDT    BS2 1200   4.947   2.928   6.983 -0.1327 -0.1004  0.0365
  241BDT   BNZ1 1201   5.598   1.003   0.046  0.0050 -0.0192  0.1098
  241BDT   BNZ2 1202   5.743   1.115   0.060  0.0856 -0.1425  0.2796
  241BDT   BNZ3 1203   5.576   1.158   0.244 -0.0568 -0.0565  0.1320
  241BDT    BS1 1204   5.429   1.031   0.214 -0.1324  0.0756 -0.0451
  241BDT    BS2 1205   5.739   1.270   0.243  0.0386 -0.1909  0.3195
  242BDT   BNZ1 1206   3.741   7.122   0.608 -0.1859  0.0616 -0.0350
  242BDT   BNZ2 1207   3.883   7.209   0.684 -0.2021 -0.0405  0.1146
  242BDT   BNZ3 1208   3.874   7.248   0.436  0.1587 -0.1298  0.0848
  242BDT    BS1 1209   3.717   7.148   0.370  0.1485 -0.0103 -0.0760
  242BDT    BS2 1210   4.021   7.335   0.534  0.1109 -0.2298  0.2440
  243BDT   BNZ1 1211   2.550   1.280   6.699 -0.0053 -0.0751 -0.2845
  243BDT   BNZ2 1212   2.556   1.457   6.654 -0.0258 -0.0106 -0.0410
  243BDT   BNZ3 1213   2.318   1.375   6.670 -0.0153 -0.0730 -0.2009
  243BDT    BS1 1214   2.330   1.185   6.718  0.0068 -0.1366 -0.4595
  243BDT    BS2 1215   2.344   1.565   6.622 -0.0373 -0.0018  0.0641
  244BDT   BNZ1 1216   4.142   0.903   1.966  0.1199 -0.0881  0.0617
  244BDT   BNZ2 1217   4.105   0.828   2.128  0.0032 -0.3000 -0.0608
  244BDT   BNZ3 1218   3.894   0.906   2.013  0.1262  0.2768  0.0887
  244BDT    BS1 1219   3.952   0.983   1.842  0.2488  0.4628  0.2218
  244BDT    BS2 1220   3.873   0.822   2.191 -0.0010  0.0080 -0.0452
  245BDT   BNZ1 1221   4.759   1.910   6.894  0.2868 -0.2362 -0.0944
  245BDT   BNZ2 1222   4.795   1.900   7.074  0.2419 -0.2648 -0.0871
  245BDT   BNZ3 1223   4.547   1.922   7.030  0.2844  0.1667 -0.1283
  245BDT    BS1 1224   4.527   1.932   6.834  0.3344  0.1648 -0.1331
  245BDT    BS2 1225   4.604   1.910   7.219  0.2379  0.1017 -0.1176
  246BDT   BNZ1 1226   4.506   0.909   0.525 -0.1574  0.0224 -0.0338
  246BDT   BNZ2 1227   4.501   0.747   0.441 -0.0443  0.0235 -0.0429
  246BDT   BNZ3 1228   4.692   0.889   0.357  0.0235  0.0541  0.1593
  246BDT    BS1 1229   4.682   1.058   0.457 -0.1081  0.0503  0.1544
  246BDT    BS2 1230   4.671   0.710   0.276  0.1341  0.0533  0.1345
  247BDT   BNZ1 1231   3.041   2.374   1.804 -0.0198 -0.2042 -0.0157
  247BDT   BNZ2 1232   3.167   2.323   1.683  0.2223  0.4361 -0.0549
  247BDT   BNZ3 1233   3.226   2.243   1.915  0.3547  0.1792 -0.1741
  247BDT    BS1 1234   3.081   2.307   2.032  0.0852 -0.5149 -0.1325
  247BDT    BS2 1235   3.352   2.196   1.770  0.5846  0.8667 -0.1977
  248BDT   BNZ1 1236   2.633   0.410   0.818  0.1978 -0.0783 -0.1032
  248BDT   BNZ2 1237   2.609   0.580   0.754  0.3102 -0.0512 -0.0750
  248BDT   BNZ3 1238   2.430   0.423   0.669 -0.0517  0.1763  0.2489
  248BDT    BS1 1239   2.471   0.247   0.747 -0.1445  0.1316  0.1947
  248BDT    BS2 1240   2.420   0.612   0.609  0.0981  0.1880  0.2540
  249BDT   BNZ1 1241   2.538   1.531   5.445 -0.1997 -0.0120 -0.0650
  249BDT   BNZ2 1242   2.441   1.603   5.308 -0.1880  0.0572 -0.0372
  249BDT   BNZ3 1243   2.484   1.357   5.270  0.0742  0.1421 -0.3067
  249BDT    BS1 1244   2.589   1.296   5.425  0.0410  0.0614 -0.3154
  249BDT    BS2 1245   2.380   1.452   5.131  0.0653  0.2093 -0.2543
  250BDT   BNZ1 1246   2.604   1.848   4.897  0.0581  0.2089  0.0170
  250BDT   BNZ2 1247   2.611   1.709   5.016 -0.0358 -0.0458 -0.2708
  250BDT   BNZ3 1248   2.777   1.888   5.076  0.2265 -0.3703 -0.0051
  250BDT    BS1 1249   2.756   2.029   4.940  0.3068 -0.0679  0.2934
  250BDT    BS2 1250   2.770   1.730   5.193  0.1042 -0.6057 -0.3305
  251BDT   BNZ1 1251   1.234   2.779   0.556 -0.1488  0.0775 -0.1431
  251BDT   BNZ2 1252   1.292   2.745   0.386 -0.1935 -0.1807 -0.1084
  251BDT   BNZ3 1253   1.041   2.755   0.395 -0.1812  0.1688 -0.1178
  251BDT    BS1 1254   0.995   2.793   0.583 -0.1298  0.4272 -0.1607
  251BDT    BS2 1255   1.122   2.719   0.219 -0.2270 -0.1269 -0.0824
  252BDT   BNZ1 1256   4.479   0.569   1.106 -0.2080  0.1122  0.5534
  252BDT   BNZ2 1257   4.380   0.561   0.952  0.1412 -0.0755  0.3333
  252BDT   BNZ3 1258   4.335   0.774   1.078  0.1274  0.2613 -0.2223
  252BDT    BS1 1259   4.448   0.767   1.239 -0.2553  0.4343  0.0620
  252BDT    BS2 1260   4.237   0.748   0.909  0.4999  0.0311 -0.3976
  253BDT   BNZ1 1261   4.682   2.279   1.098  0.0305  0.0274  0.1166
  253BDT   BNZ2 1262   4.810   2.410   1.089  0.1699 -0.0908  0.3494
  253BDT   BNZ3 1263   4.791   2.285   0.871  0.2122  0.1511  0.2060
  253BDT    BS1 1264   4.651   2.150   0.897  0.0572  0.2670 -0.0406
  253BDT    BS2 1265   4.926   2.430   0.880  0.3522  0.0088  0.4594
  254BDT   BNZ1 1266   2.079   0.355   6.307 -0.0248 -0.0122 -0.0182
  254BDT   BNZ2 1267   1.957   0.492   6.301 -0.1577 -0.1239  0.0929
  254BDT   BNZ3 1268   2.065   0.475   6.528  0.0745 -0.0198 -0.0076
  254BDT    BS1 1269   2.192   0.324   6.517  0.2015  0.0987 -0.1239
  254BDT    BS2 1270   1.931   0.617   6.503 -0.0827 -0.1432  0.1148
  255BDT   BNZ1 1271   3.145   1.024   1.618 -0.0372  0.0364  0.0350
  255BDT   BNZ2 1272   3.177   1.181   1.531  0.0319  0.0422  0.0701
  255BDT   BNZ3 1273   3.375   1.112   1.670 -0.1330  0.1114  0.3430
  255BDT    BS1 1274   3.325   0.943   1.756 -0.1988  0.0998  0.2821
  255BDT    BS2 1275   3.392   1.281   1.568 -0.0501  0.1116  0.3563
  256BDT   BNZ1 1276   2.719   1.942   1.714  0.1712  0.0272  0.2677
  256BDT   BNZ2 1277   2.573   2.032   1.776  0.2905  0.3259  0.1230
  256BDT   BNZ3 1278   2.786   2.132   1.865  0.4108 -0.1275  0.3594
  256BDT    BS1 1279   2.932   2.024   1.789  0.2592 -0.4209  0.5035
  256BDT    BS2 1280   2.617   2.218   1.922  0.5205  0.2178  0.1899
  257BDT   BNZ1 1281   4.033   0.450   1.883  0.2301 -0.0620 -0.3222
  257BDT   BNZ2 1282   4.198   0.500   1.821  0.1947  0.4223 -0.0431
  257BDT   BNZ3 1283   4.178   0.538   2.070 -0.2484  0.1159 -0.0280
  257BDT    BS1 1284   3.996   0.479   2.119 -0.1654 -0.3958 -0.3473
  257BDT    BS2 1285   4.350   0.587   1.986 -0.2559  0.6387  0.2571
  258BDT   BNZ1 1286   3.807   6.421   7.147 -0.0681 -0.0138  0.2216
  258BDT   BNZ2 1287   3.637   6.370   7.101 -0.0057  0.1021 -0.1470
  258BDT   BNZ3 1288   3.663   6.620   7.094  0.1376  0.0939  0.0609
  258BDT    BS1 1289   3.849   6.657   7.147  0.0518 -0.0364  0.4524
  258BDT    BS2 1290   3.485   6.548   7.047  0.1933  0.2146 -0.3364
  259BDT   BNZ1 1291   4.543   2.885   1.107  0.2439  0.1285  0.0276
  259BDT   BNZ2 1292   4.656   2.754   1.167  0.2100  0.0438 -0.0931
  259BDT   BNZ3 1293   4.756   2.983   1.200  0.2752 -0.0121  0.1046
  259BDT    BS1 1294   4.624   3.111   1.131  0.3081  0.0847  0.2236
  259BDT    BS2 1295   4.865   2.828   1.259  0.2346 -0.0957 -0.0363
  260BDT   BNZ1 1296   2.780   2.913   5.487  0.1538 -0.0903 -0.0046
  260BDT   BNZ2 1297   2.818   3.089   5.455 -0.4459  0.0299 -0.1087
  260BDT   BNZ3 1298   2.760   3.051   5.697  0.0896 -0.1131  0.0043
  260BDT    BS1 1299   2.722   2.859   5.714  0.7190 -0.2123  0.1055
  260BDT    BS2 1300   2.803   3.236   5.644 -0.5737  0.0243 -0.1141
  261BDT   BNZ1 1301   2.461   3.051   0.493 -0.1817  0.1274  0.0496
  261BDT   BNZ2 1302   2.324   3.172   0.511 -0.0992  0.2416 -0.0771
  261BDT   BNZ3 1303   2.354   3.104   0.271  0.0520  0.1989 -0.0472
  261BDT    BS1 1304   2.503   2.975   0.268 -0.0515  0.0759  0.0919
  261BDT    BS2 1305   2.211   3.235   0.310  0.1264  0.3194 -0.1802
  262BDT   BNZ1 1306   1.245   0.689   1.435 -0.6375  0.0094  0.2683
  262BDT   BNZ2 1307   1.380   0.697   1.558 -0.0043 -0.1214 -0.3791
  262BDT   BNZ3 1308   1.315   0.927   1.478 -0.1096 -0.0634 -0.1319
  262BDT    BS1 1309   1.171   0.901   1.347 -0.7845  0.0774  0.5855
  262BDT    BS2 1310   1.460   0.917   1.613  0.5373 -0.2054 -0.8367
  263BDT   BNZ1 1311   2.951   0.710   1.198  0.1594  0.0645 -0.0018
  263BDT   BNZ2 1312   2.966   0.807   1.353 -0.1808  0.0302  0.0576
  263BDT   BNZ3 1313   2.829   0.930   1.181  0.3976  0.1762 -0.3158
  263BDT    BS1 1314   2.822   0.813   1.023  0.7349  0.2058 -0.3391
  263BDT    BS2 1315   2.856   1.020   1.355  0.0024  0.1279 -0.2164
  264BDT   BNZ1 1316   3.787   0.674   1.705  0.1018  0.0167  0.1669
  264BDT   BNZ2 1317   3.676   0.635   1.565  0.0121  0.1885  0.1897
  264BDT   BNZ3 1318   3.564   0.589   1.786  0.0787  0.1157  0.2082
  264BDT    BS1 1319   3.696   0.635   1.925  0.1721 -0.0696  0.1802
  264BDT    BS2 1320   3.458   0.553   1.624 -0.0190  0.2996  0.2307
  265BDT   BNZ1 1321   2.796   2.846   1.512  0.1081  0.2201  0.0658
  265BDT   BNZ2 1322   2.914   2.965   1.587 -0.0848  0.4840 -0.0409
  265BDT   BNZ3 1323   2.732   2.901   1.750  0.3245 -0.1072  0.2037
  265BDT    BS1 1324   2.616   2.775   1.654  0.5204 -0.3444  0.3036
  265BDT    BS2 1325   2.868   3.029   1.814  0.1005  0.2194  0.0711
  266BDT   BNZ1 1326   2.802   0.372   6.049  0.0126  0.0072  0.1875
  266BDT   BNZ2 1327   2.620   0.373   6.070 -0.0357 -0.4622 -0.1325
  266BDT   BNZ3 1328   2.730   0.226   6.242  0.0638 -0.0408  0.1706
  266BDT    BS1 1329   2.924   0.236   6.206  0.0888  0.4485  0.5037
  266BDT    BS2 1330   2.533   0.240   6.249  0.0040 -0.5598 -0.1858
  267BDT   BNZ1 1331   2.509   0.275   6.820 -0.4061  0.0008  0.1113
  267BDT   BNZ2 1332   2.461   0.143   6.702 -0.1699 -0.3447  0.3909
  267BDT   BNZ3 1333   2.707   0.132   6.759 -0.0716  0.4221  0.1837
  267BDT    BS1 1334   2.740   0.279   6.886 -0.3539  0.7346 -0.1234
  267BDT    BS2 1335   2.638  -0.003   6.632  0.1560  0.0016  0.4868
  268BDT   BNZ1 1336   4.563   2.113   6.420  0.1289  0.0451  0.0504
  268BDT   BNZ2 1337   4.474   2.249   6.337 -0.0183 -0.1288 -0.0791
  268BDT   BNZ3 1338   4.696   2.205   6.226  0.0607  0.0506  0.0063
  268BDT    BS1 1339   4.778   2.057   6.327  0.2160  0.2327  0.1417
  268BDT    BS2 1340   4.585   2.349   6.150 -0.0982 -0.1439 -0.1345
  269BDT   BNZ1 1341   4.166   2.257   1.035 -0.0258  0.1472 -0.0299
  269BDT   BNZ2 1342   4.042   2.229   1.165 -0.0174 -0.1130 -0.0762
  269BDT   BNZ3 1343   4.258   2.315   1.262 -0.1491  0.0995  0.0322
  269BDT    BS1 1344   4.379   2.340   1.109 -0.1516  0.3709  0.0779
  269BDT    BS2 1345   4.111   2.278   1.390 -0.1303 -0.1871 -0.0247
  270BDT   BNZ1 1346   1.455   2.590   6.707 -0.0643  0.0854  0.2063
  270BDT   BNZ2 1347   1.394   2.425   6.654  0.2191  0.0358  0.0272
  270BDT   BNZ3 1348   1.233   2.535   6.813  0.0810 -0.4646  0.2419
  270BDT    BS1 1349   1.312   2.709   6.860 -0.2197 -0.3758  0.4195
  270BDT    BS2 1350   1.184   2.356   6.745  0.3908 -0.4740  0.0365
  271BDT   BNZ1 1351   3.869   0.558   7.223 -0.0426  0.0621 -0.0263
  271BDT   BNZ2 1352   3.979   0.413   7.204 -0.0261  0.0766 -0.0421
  271BDT   BNZ3 1353   3.738   0.353   7.157 -0.0741 -0.0338  0.3226
  271BDT    BS1 1354   3.635   0.519   7.181 -0.0864 -0.0401  0.3126
  271BDT    BS2 1355   3.871   0.207   7.141 -0.0508 -0.0086  0.2772
  272BDT   BNZ1 1356   2.553   1.120   1.720  0.1507 -0.1288 -0.0663
  272BDT   BNZ2 1357   2.463   1.051   1.864  0.0195  0.1632 -0.0047
  272BDT   BNZ3 1358   2.711   1.010   1.883 -0.0538 -0.3024  0.0185
  272BDT    BS1 1359   2.791   1.090   1.721  0.0914 -0.5927 -0.0461
  272BDT    BS2 1360   2.598   0.942   2.030 -0.1866  0.0376  0.0809
  273BDT   BNZ1 1361   4.823   3.342   0.069 -0.0663  0.0054 -0.1565
  273BDT   BNZ2 1362   4.838   3.169   0.126 -0.0491 -0.0322 -0.2727
  273BDT   BNZ3 1363   4.735   3.180  -0.103 -0.0792  0.1139 -0.2526
  273BDT    BS1 1364   4.726   3.371  -0.149 -0.0959  0.1437 -0.1246
  273BDT    BS2 1365   4.760   3.000  -0.025 -0.0588  0.0635 -0.3742
  274BDT   BNZ1 1366   4.744   6.902   7.248 -0.2974 -0.0317  0.1494
  274BDT   BNZ2 1367   4.596   6.795   7.249 -0.3538  0.0459  0.1506
  274BDT   BNZ3 1368   4.807   6.659   7.226 -0.4354 -0.0523 -0.0257
  274BDT    BS1 1369   4.955   6.788   7.227 -0.3672 -0.1302 -0.0133
  274BDT    BS2 1370   4.637   6.559   7.229 -0.4874  0.0367 -0.0100
  275BDT   BNZ1 1371   4.669   0.281   0.006 -0.3449  0.1111  0.0029
  275BDT   BNZ2 1372   4.719   0.420  -0.102  0.1017  0.0430  0.1118
  275BDT   BNZ3 1373   4.803   0.452   0.133 -0.0216 -0.2827  0.2028
  275BDT    BS1 1374   4.741   0.295   0.235 -0.5078 -0.1794  0.0695
  275BDT    BS2 1375   4.848   0.593   0.003  0.4468 -0.3337  0.3099
  276BDT   BNZ1 1376   3.349   0.606   6.557  0.0675 -0.1378 -0.1026
  276BDT   BNZ2 1377   3.205   0.667   6.651  0.1015 -0.1406 -0.0485
  276BDT   BNZ3 1378   3.303   0.848   6.505  0.2331 -0.0511  0.1499
  276BDT    BS1 1379   3.456   0.766   6.412  0.1856 -0.0566  0.0748
  276BDT    BS2 1380   3.146   0.897   6.615  0.2580 -0.0630  0.1899
  277BDT   BNZ1 1381   1.496   3.089   5.957  0.0097 -0.0068 -0.0310
  277BDT   BNZ2 1382   1.656   3.175   5.941 -0.1220  0.2089 -0.2245
  277BDT   BNZ3 1383   1.617   3.019   5.748  0.1677 -0.3873  0.1836
  277BDT    BS1 1384   1.441   2.935   5.781  0.3025 -0.5703  0.3721
  277BDT    BS2 1385   1.786   3.121   5.747  0.0138 -0.1083 -0.0441
  278BDT   BNZ1 1386   2.804   1.806   0.968 -0.1554  0.2705 -0.1614
  278BDT   BNZ2 1387   2.847   1.981   1.001  0.0184  0.2321 -0.1800
  278BDT   BNZ3 1388   2.656   1.904   1.147  0.2189  0.3139  0.1299
  278BDT    BS1 1389   2.623   1.716   1.099  0.0129  0.3492  0.1241
  278BDT    BS2 1390   2.716   2.091   1.170  0.3842  0.2650  0.0825
  279BDT   BNZ1 1391   1.473   2.740   6.297  0.2709  0.2348  0.0178
  279BDT   BNZ2 1392   1.532   2.567   6.283  0.0439  0.1605 -0.0328
  279BDT   BNZ3 1393   1.404   2.638   6.078 -0.1255  0.2872  0.1151
  279BDT    BS1 1394   1.349   2.824   6.110  0.1403  0.3601  0.1616
  279BDT    BS2 1395   1.475   2.453   6.079 -0.3468  0.2037  0.0529
  280BDT   BNZ1 1396   1.315   1.276   1.004  0.1335  0.2098 -0.2190
  280BDT   BNZ2 1397   1.238   1.442   1.000 -0.1407  0.1049  0.2843
  280BDT   BNZ3 1398   1.064   1.260   0.981  0.1477 -0.1331 -0.1695
  280BDT    BS1 1399   1.163   1.090   0.987  0.4237  0.0213 -0.6932
  280BDT    BS2 1400   0.999   1.447   0.979 -0.1568 -0.2208  0.3882
  281BDT   BNZ1 1401   5.856   2.063   7.017 -0.0600 -0.0426  0.1384
  281BDT   BNZ2 1402   6.004   1.996   6.934 -0.0569  0.1144  0.0130
  281BDT   BNZ3 1403   6.024   1.979   7.185  0.0047 -0.2160 -0.0110
  281BDT    BS1 1404   5.857   2.056   7.257 -0.0016 -0.3655  0.1272
  281BDT    BS2 1405   6.176   1.911   7.079  0.0028 -0.0267 -0.1404
  282BDT   BNZ1 1406   5.597   2.213   0.537 -0.1486 -0.0346  0.1003
  282BDT   BNZ2 1407   5.703   2.155   0.674  0.0468  0.0075 -0.0315
  282BDT   BNZ3 1408   5.796   2.084   0.451 -0.2607 -0.0466 -0.1433
  282BDT    BS1 1409   5.670   2.153   0.316 -0.4528 -0.0895  0.0151
  282BDT    BS2 1410   5.898   2.029   0.611 -0.0344  0.0019 -0.2695
  283BDT   BNZ1 1411   1.668   6.930   7.095  0.1473 -0.0677  0.0149
  283BDT   BNZ2 1412   1.835   6.856   7.083  0.2762  0.2245 -0.0304
  283BDT   BNZ3 1413   1.777   6.917   7.321  0.1939  0.0356 -0.0013
  283BDT    BS1 1414   1.596   6.994   7.315  0.0620 -0.2761  0.0463
  283BDT    BS2 1415   1.955   6.836   7.290  0.3332  0.3535 -0.0506
  284BDT   BNZ1 1416   3.208   1.697   6.290  0.0896 -0.0495  0.0242
  284BDT   BNZ2 1417   3.149   1.576   6.415  0.0313 -0.3417 -0.2787
  284BDT   BNZ3 1418   2.958   1.670   6.280  0.1395 -0.3848 -0.4631
  284BDT    BS1 1419   3.038   1.796   6.152  0.1986 -0.0577 -0.1118
  284BDT    BS2 1420   2.912   1.538   6.419  0.0766 -0.6770 -0.7676
  285BDT   BNZ1 1421   4.467   6.683   0.316  0.0453  0.0771  0.3824
  285BDT   BNZ2 1422   4.317   6.781   0.353 -0.0279 -0.0730  0.4917
  285BDT   BNZ3 1423   4.525   6.924   0.361 -0.1948  0.2103  0.0006
  285BDT    BS1 1424   4.675   6.804   0.320 -0.1078  0.3531 -0.0823
  285BDT    BS2 1425   4.353   7.014   0.399 -0.2621  0.0291  0.1535
  286BDT   BNZ1 1426   2.935   2.665   1.958 -0.1309  0.0625  0.2965
  286BDT   BNZ2 1427   2.783   2.568   1.927 -0.0714 -0.0181  0.2574
  286BDT   BNZ3 1428   2.914   2.601   1.715 -0.0724  0.1151  0.2776
  286BDT    BS1 1429   3.072   2.707   1.765 -0.1390  0.1939  0.3195
  286BDT    BS2 1430   2.747   2.498   1.701 -0.0110  0.0209  0.2357
  287BDT   BNZ1 1431   3.941   2.342   5.162  0.1275 -0.1382 -0.3157
  287BDT   BNZ2 1432   3.969   2.513   5.103  0.0849 -0.0636 -0.1239
  287BDT   BNZ3 1433   4.162   2.431   5.244  0.0276 -0.1106 -0.0726
  287BDT    BS1 1434   4.115   2.248   5.298  0.0788 -0.1893 -0.2898
  287BDT    BS2 1435   4.176   2.615   5.171 -0.0126 -0.0317  0.1220
  288BDT   BNZ1 1436   3.450   0.467   5.137 -0.0991  0.1896  0.0179
  288BDT   BNZ2 1437   3.501   0.299   5.189 -0.0968  0.1313 -0.1703
  288BDT   BNZ3 1438   3.523   0.463   5.378  0.2465 -0.0078 -0.0859
  288BDT    BS1 1439   3.465   0.637   5.306  0.2172  0.0658  0.1141
  288BDT    BS2 1440   3.574   0.276   5.416  0.2201 -0.0566 -0.2903
  289BDT   BNZ1 1441   3.089   0.514   0.653  0.0186  0.0658  0.0849
  289BDT   BNZ2 1442   3.031   0.343   0.688  0.0131 -0.0204 -0.3157
  289BDT   BNZ3 1443   3.019   0.489   0.894 -0.2226 -0.4342 -0.0301
  289BDT    BS1 1444   3.083   0.666   0.839 -0.1995 -0.3143  0.3885
  289BDT    BS2 1445   2.960   0.301   0.914 -0.2072 -0.4883 -0.4733
  290BDT   BNZ1 1446   3.011   2.290   0.835 -0.1085 -0.1016  0.2042
  290BDT   BNZ2 1447   3.144   2.412   0.866 -0.1518  0.0713 -0.2469
  290BDT   BNZ3 1448   2.941   2.460   1.008 -0.0920  0.3995 -0.2667
  290BDT    BS1 1449   2.809   2.320   0.962 -0.0452  0.1808  0.2325
  290BDT    BS2 1450   3.094   2.582   1.029 -0.1482  0.5410 -0.7368
  291BDT   BNZ1 1451   1.714   2.627   0.391  0.3754 -0.1258 -0.0623
  291BDT   BNZ2 1452   1.744   2.457   0.454  0.1438 -0.1902 -0.1220
  291BDT   BNZ3 1453   1.826   2.483   0.217 -0.0308 -0.2889 -0.1941
  291BDT    BS1 1454   1.787   2.669   0.166  0.2386 -0.2079 -0.1209
  291BDT    BS2 1455   1.850   2.306   0.301 -0.2579 -0.3421 -0.2498
  292BDT   BNZ1 1456   2.214   1.984   4.905  0.0569  0.2218 -0.1159
  292BDT   BNZ2 1457   2.270   2.057   4.747  0.3974 -0.1011 -0.1507
  292BDT   BNZ3 1458   2.334   1.814   4.764 -0.2735 -0.2675  0.1763
  292BDT    BS1 1459   2.267   1.752   4.938 -0.5991  0.1168  0.1807
  292BDT    BS2 1460   2.387   1.909   4.599  0.1299 -0.5799  0.1158
  293BDT   BNZ1 1461   4.604   2.174   0.520 -0.2076 -0.1564  0.0842
  293BDT   BNZ2 1462   4.579   2.126   0.345 -0.1442 -0.2001  0.0871
  293BDT   BNZ3 1463   4.824   2.152   0.399 -0.1816  0.2991  0.0398
  293BDT    BS1 1464   4.832   2.203   0.589 -0.2538  0.3086  0.0396
  293BDT    BS2 1465   4.779   2.100   0.214 -0.1176  0.2130  0.0464
  294BDT   BNZ1 1466   4.110   2.984   1.316  0.1679  0.0431  0.0245
  294BDT   BNZ2 1467   4.117   2.817   1.392  0.3042  0.1428  0.2365
  294BDT   BNZ3 1468   4.235   2.822   1.169 -0.0798 -0.1478  0.0209
  294BDT    BS1 1469   4.218   3.007   1.103 -0.2029 -0.2418 -0.1919
  294BDT    BS2 1470   4.233   2.649   1.265  0.0908 -0.0231  0.2617
  295BDT   BNZ1 1471   4.077   0.419   5.660  0.2399  0.0723 -0.0212
  295BDT   BNZ2 1472   3.931   0.446   5.553  0.1085 -0.0516  0.1238
  295BDT   BNZ3 1473   4.129   0.364   5.420  0.0815  0.2221 -0.0910
  295BDT    BS1 1474   4.275   0.340   5.549  0.2254  0.3394 -0.2366
  295BDT    BS2 1475   3.962   0.398   5.320 -0.0536  0.0724  0.0770
  296BDT   BNZ1 1476   3.247   0.949   1.253  0.0476  0.0040  0.0880
  296BDT   BNZ2 1477   3.236   1.084   1.129  0.3812  0.0459  0.1019
  296BDT   BNZ3 1478   3.322   0.871   1.025  0.0913 -0.0888  0.1339
  296BDT    BS1 1479   3.327   0.738   1.170 -0.2571 -0.1193  0.1116
  296BDT    BS2 1480   3.305   1.028   0.906  0.4597 -0.0339  0.1458
  297BDT   BNZ1 1481   1.898   2.527   5.330  0.2167  0.0819  0.0401
  297BDT   BNZ2 1482   1.959   2.595   5.488  0.2659 -0.0893  0.0957
  297BDT   BNZ3 1483   2.009   2.349   5.469  0.0266 -0.1268 -0.0726
  297BDT    BS1 1484   1.938   2.293   5.294 -0.0094  0.0681 -0.1204
  297BDT    BS2 1485   2.067   2.439   5.635  0.0961 -0.2997 -0.0023
  298BDT   BNZ1 1486   4.171   2.053   0.728 -0.1613 -0.0477 -0.0290
  298BDT   BNZ2 1487   4.035   1.932   0.738 -0.2033  0.0140  0.1702
  298BDT   BNZ3 1488   4.224   1.871   0.893 -0.1062  0.0567  0.0693
  298BDT    BS1 1489   4.360   2.011   0.870 -0.0686 -0.0163 -0.1440
  298BDT    BS2 1490   4.068   1.750   0.891 -0.1571  0.1177  0.2833
  299BDT   BNZ1 1491   4.749   1.520   6.497  0.1587 -0.0228 -0.3484
  299BDT   BNZ2 1492   4.906   1.586   6.564  0.1639 -0.0993 -0.2836
  299BDT   BNZ3 1493   4.754   1.772   6.488 -0.0515  0.0210  0.4083
  299BDT    BS1 1494   4.591   1.684   6.420 -0.0382  0.0856  0.2845
  299BDT    BS2 1495   4.929   1.825   6.563 -0.0268 -0.0793  0.4204
  300BDT   BNZ1 1496   3.369   3.222   6.792 -0.0407 -0.1866  0.1747
  300BDT   BNZ2 1497   3.502   3.104   6.748  0.0664  0.0785 -0.2345
  300BDT   BNZ3 1498   3.593   3.337   6.778 -0.2420  0.1820 -0.0849
  300BDT    BS1 1499   3.438   3.450   6.825 -0.3330 -0.1271  0.3556
  300BDT    BS2 1500   3.723   3.196   6.730 -0.1127  0.4503 -0.5186
  301BDT   BNZ1 1501   3.827   2.451   5.755 -0.0389  0.0345 -0.1347
  301BDT   BNZ2 1502   3.977   2.523   5.679  0.0191  0.0006 -0.0527
  301BDT   BNZ3 1503   3.788   2.511   5.513  0.1381 -0.0538 -0.1865
  301BDT    BS1 1504   3.636   2.433   5.611  0.0651 -0.0121 -0.2666
  301BDT    BS2 1505   3.959   2.586   5.448  0.1883 -0.0847 -0.0901
  302BDT   BNZ1 1506   5.084   1.068   7.009 -0.0631 -0.2518  0.0453
  302BDT   BNZ2 1507   5.057   1.120   6.836 -0.0831 -0.2839  0.0385
  302BDT   BNZ3 1508   5.283   1.014   6.865  0.0729  0.0598  0.1124
  302BDT    BS1 1509   5.296   0.963   7.055  0.0804  0.0700  0.1141
  302BDT    BS2 1510   5.237   1.077   6.684  0.0370 -0.0003  0.0995
  303BDT   BNZ1 1511   1.148   0.899   0.257 -0.3050  0.0168 -0.0650
  303BDT   BNZ2 1512   1.033   1.017   0.177 -0.1891  0.3792  0.2838
  303BDT   BNZ3 1513   0.951   0.950   0.405 -0.0925  0.0280  0.2185
  303BDT    BS1 1514   1.084   0.824   0.477 -0.2352 -0.3394 -0.1697
  303BDT    BS2 1515   0.838   1.077   0.304  0.0227  0.4289  0.5852
  304BDT   BNZ1 1516   5.877   1.690   6.876  0.1871 -0.1442 -0.2364
  304BDT   BNZ2 1517   5.734   1.732   6.769  0.1067 -0.4231 -0.2444
  304BDT   BNZ3 1518   5.949   1.725   6.637  0.1327 -0.0019 -0.2322
  304BDT    BS1 1519   6.090   1.678   6.766  0.2130  0.2768 -0.2275
  304BDT    BS2 1520   5.784   1.770   6.538  0.0446 -0.3242 -0.2418
  305BDT   BNZ1 1521   5.194   0.456   6.510  0.0585  0.0466 -0.1782
  305BDT   BNZ2 1522   5.368   0.401   6.526  0.0736  0.1485  0.0337
  305BDT   BNZ3 1523   5.275   0.350   6.297  0.1854 -0.4611  0.1153
  305BDT    BS1 1524   5.090   0.416   6.297  0.1631 -0.5256 -0.1191
  305BDT    BS2 1525   5.462   0.296   6.331  0.1921 -0.3038  0.3345
  306BDT   BNZ1 1526   3.953   6.767   0.898 -0.2773 -0.3610 -0.3270
  306BDT   BNZ2 1527   3.936   6.890   0.765  0.1200  0.0167 -0.0443
  306BDT   BNZ3 1528   4.163   6.781   0.759  0.0276 -0.1876  0.1365
  306BDT    BS1 1529   4.165   6.652   0.908 -0.4092 -0.5838 -0.1977
  306BDT    BS2 1530   4.126   6.917   0.621  0.4451  0.2117  0.4241
  307BDT   BNZ1 1531   1.884   7.170   0.165  0.0098 -0.0882 -0.0112
  307BDT   BNZ2 1532   1.967   7.311   0.083  0.1878 -0.0018  0.3113
  307BDT   BNZ3 1533   1.799   7.390   0.254 -0.2152 -0.1802  0.0040
  307BDT    BS1 1534   1.720   7.227   0.331 -0.3747 -0.2549 -0.3368
  307BDT    BS2 1535   1.898   7.529   0.156  0.0047 -0.0753  0.3594
  308BDT   BNZ1 1536   4.253   1.110   5.320  0.0287 -0.0384  0.0663
  308BDT   BNZ2 1537   4.392   1.224   5.352  0.0928 -0.0552 -0.1475
  308BDT   BNZ3 1538   4.251   1.303   5.159 -0.0376 -0.1797 -0.1035
  308BDT    BS1 1539   4.107   1.170   5.139 -0.0972 -0.1507  0.1310
  308BDT    BS2 1540   4.406   1.415   5.207  0.0384 -0.1881 -0.3280
  309BDT   BNZ1 1541   3.396   1.469   1.260  0.2135 -0.0594 -0.1994
  309BDT   BNZ2 1542   3.349   1.482   1.083  0.0262 -0.0531 -0.1504
  309BDT   BNZ3 1543   3.487   1.680   1.156  0.1389 -0.0763 -0.3000
  309BDT    BS1 1544   3.528   1.650   1.346  0.3373 -0.0816 -0.3449
  309BDT    BS2 1545   3.428   1.677   0.967 -0.0641 -0.0683 -0.2370
  310BDT   BNZ1 1546   5.136   0.020   6.809  0.1763 -0.1678 -0.0800
  310BDT   BNZ2 1547   5.189   0.075   6.643  0.2305  0.4153  0.1183
  310BDT   BNZ3 1548   5.379  -0.031   6.769  0.2044  0.0257 -0.1611
  310BDT    BS1 1549   5.306  -0.084   6.944  0.1517 -0.5846 -0.3788
  310BDT    BS2 1550   5.418   0.034   6.587  0.2614  0.6602  0.0679
  311BDT   BNZ1 1551   1.490   2.599   5.609  0.1036 -0.1306  0.2221
  311BDT   BNZ2 1552   1.524   2.488   5.467 -0.0092  0.1110  0.0033
  311BDT   BNZ3 1553   1.342   2.395   5.613 -0.0102 -0.0581 -0.1047
  311BDT    BS1 1554   1.318   2.524   5.760  0.1164 -0.3143  0.1437
  311BDT    BS2 1555   1.392   2.288   5.455 -0.1268  0.2086 -0.3196
  312BDT   BNZ1 1556   4.660   0.311   1.225  0.0430 -0.1594 -0.0291
  312BDT   BNZ2 1557   4.802   0.398   1.147  0.1516 -0.1597  0.1655
  312BDT   BNZ3 1558   4.874   0.269   1.352 -0.1576 -0.0322  0.3592
  312BDT    BS1 1559   4.712   0.182   1.422 -0.2557 -0.0402  0.1257
  312BDT    BS2 1560   5.014   0.369   1.255 -0.0238 -0.0427  0.5434
  313BDT   BNZ1 1561   1.784   7.262   6.743 -0.1147 -0.1679  0.2045
  313BDT   BNZ2 1562   1.725   7.245   6.570  0.0343  0.3063  0.0992
  313BDT   BNZ3 1563   1.853   7.041   6.643 -0.4276 -0.0961 -0.1843
  313BDT    BS1 1564   1.909   7.075   6.829 -0.5649 -0.5876 -0.0605
  313BDT    BS2 1565   1.781   7.040   6.459 -0.2387  0.4321 -0.2709
  314BDT   BNZ1 1566   3.679   1.967   7.189 -0.0350  0.1269  0.0796
  314BDT   BNZ2 1567   3.760   2.120   7.248  0.2109  0.0461 -0.0421
  314BDT   BNZ3 1568   3.923   1.927   7.240 -0.0298 -0.1552 -0.1522
  314BDT    BS1 1569   3.820   1.772   7.175 -0.2844 -0.0466 -0.0079
  314BDT    BS2 1570   3.994   2.101   7.302  0.2415 -0.2230 -0.2699
  315BDT   BNZ1 1571   3.180   2.258   0.328  0.0382  0.0354 -0.0718
  315BDT   BNZ2 1572   3.290   2.370   0.234 -0.0225  0.0385 -0.1397
  315BDT   BNZ3 1573   3.326   2.393   0.482 -0.1177  0.2946 -0.1474
  315BDT    BS1 1574   3.201   2.267   0.567 -0.0437  0.2706 -0.0729
  315BDT    BS2 1575   3.437   2.507   0.365 -0.1738  0.2761 -0.2180
  316BDT   BNZ1 1576   2.644   1.769   6.202 -0.1420  0.0029  0.3483
  316BDT   BNZ2 1577   2.523   1.820   6.075  0.1289 -0.2651 -0.0308
  316BDT   BNZ3 1578   2.431   1.636   6.221 -0.1067 -0.1024  0.0301
  316BDT    BS1 1579   2.573   1.593   6.350 -0.3964  0.1860  0.4380
  316BDT    BS2 1580   2.313   1.704   6.078  0.1964 -0.3938 -0.3635
  317BDT   BNZ1 1581   3.802   1.655   1.073  0.3477  0.0325 -0.0034
  317BDT   BNZ2 1582   3.889   1.583   1.216 -0.0242  0.1083  0.2684
  317BDT   BNZ3 1583   3.780   1.802   1.277 -0.2108  0.1270 -0.1230
  317BDT    BS1 1584   3.692   1.865   1.112  0.2202  0.0360 -0.3922
  317BDT    BS2 1585   3.880   1.709   1.420 -0.5825  0.2035  0.1821
  318BDT   BNZ1 1586   2.915   1.501   7.195  0.0410 -0.0116  0.0008
  318BDT   BNZ2 1587   3.055   1.619   7.194 -0.0919  0.1478  0.0476
  318BDT   BNZ3 1588   2.899   1.660   7.001 -0.0186 -0.0983 -0.0659
  318BDT    BS1 1589   2.756   1.526   7.016  0.1261 -0.2542 -0.1085
  318BDT    BS2 1590   3.057   1.779   7.016 -0.1610  0.0868 -0.0077
  319BDT   BNZ1 1591   5.112   0.329   7.244  0.0715  0.2337  0.2413
  319BDT   BNZ2 1592   5.100   0.356   7.425 -0.0775 -0.0081  0.2696
  319BDT   BNZ3 1593   5.264   0.172   7.371 -0.1900 -0.0804  0.1720
  319BDT    BS1 1594   5.265   0.156   7.175 -0.0170  0.1946  0.1477
  319BDT    BS2 1595   5.238   0.215   7.562 -0.3356 -0.3241  0.2041
  320BDT   BNZ1 1596   2.865   1.999   0.088 -0.0064  0.1996 -0.1444
  320BDT   BNZ2 1597   2.927   2.141  -0.010  0.0820  0.1286 -0.1919
  320BDT   BNZ3 1598   2.843   1.956  -0.159  0.2069  0.0246 -0.1347
  320BDT    BS1 1599   2.781   1.813  -0.039  0.0991  0.1116 -0.0853
  320BDT    BS2 1600   2.914   2.117  -0.249  0.2879 -0.0411 -0.1868
  321BDT   BNZ1 1601   3.368   3.220   7.165  0.1558 -0.0012 -0.0949
  321BDT   BNZ2 1602   3.426   3.212   7.339 -0.0859 -0.0302 -0.0141
  321BDT   BNZ3 1603   3.319   2.995   7.268 -0.0838  0.0176 -0.1654
  321BDT    BS1 1604   3.263   3.021   7.081  0.1850  0.0465 -0.2416
  321BDT    BS2 1605   3.387   3.005   7.453 -0.3343 -0.0157 -0.0714
  322BDT   BNZ1 1606   2.079   0.433   1.949  0.0788  0.1284  0.1076
  322BDT   BNZ2 1607   2.005   0.497   1.794 -0.0327  0.2976  0.2277
  322BDT   BNZ3 1608   2.230   0.391   1.752 -0.2182  0.0246 -0.1011
  322BDT    BS1 1609   2.294   0.329   1.927 -0.0844 -0.1396 -0.2110
  322BDT    BS2 1610   2.135   0.465   1.595 -0.3215  0.2231  0.0507
  323BDT   BNZ1 1611   3.554   1.668   0.097 -0.0819 -0.0175  0.0537
  323BDT   BNZ2 1612   3.494   1.728   0.259  0.0793  0.0568  0.0871
  323BDT   BNZ3 1613   3.569   1.488   0.273 -0.2174 -0.0414  0.0417
  323BDT    BS1 1614   3.630   1.440   0.092 -0.3747 -0.1143  0.0107
  323BDT    BS2 1615   3.501   1.570   0.439 -0.0273  0.0449  0.0809
  324BDT   BNZ1 1616   2.786   1.089   6.472  0.0648  0.0067  0.1238
  324BDT   BNZ2 1617   2.714   1.216   6.361  0.1099 -0.3690 -0.3521
  324BDT   BNZ3 1618   2.536   1.102   6.498  0.0498  0.0775 -0.0486
  324BDT    BS1 1619   2.629   0.970   6.610 -0.0030  0.4759  0.4420
  324BDT    BS2 1620   2.476   1.242   6.372  0.1023 -0.3466 -0.5665
  325BDT   BNZ1 1621   1.106   0.313   0.480  0.2055 -0.2216 -0.0773
  325BDT   BNZ2 1622   1.096   0.140   0.541 -0.4717 -0.1188  0.1426
  325BDT   BNZ3 1623   1.067   0.306   0.729  0.0379  0.2442 -0.0857
  325BDT    BS1 1624   1.080   0.484   0.647  0.7491  0.0751 -0.3070
  325BDT    BS2 1625   1.059   0.114   0.777 -0.7032  0.3225  0.1554
  326BDT   BNZ1 1626   1.350   0.460   1.168 -0.0526  0.2576 -0.0895
  326BDT   BNZ2 1627   1.429   0.349   1.291 -0.0245  0.2899 -0.0783
  326BDT   BNZ3 1628   1.291   0.219   1.125 -0.0991  0.2503  0.0143
  326BDT    BS1 1629   1.215   0.351   1.002 -0.1244  0.2177 -0.0050
  326BDT    BS2 1630   1.383   0.115   1.266 -0.0638  0.2871  0.0184
  327BDT   BNZ1 1631   3.677   2.929   7.013 -0.1414 -0.1238 -0.0387
  327BDT   BNZ2 1632   3.808   2.865   6.903 -0.4029 -0.3697 -0.2163
  327BDT   BNZ3 1633   3.869   2.835   7.145  0.1227  0.0617 -0.2853
  327BDT    BS1 1634   3.719   2.908   7.249  0.3799  0.2976 -0.0960
  327BDT    BS2 1635   4.000   2.772   7.012 -0.1898 -0.2280 -0.4707
  328BDT   BNZ1 1636   4.604   2.474   1.444  0.0404  0.0654 -0.3378
  328BDT   BNZ2 1637   4.644   2.296   1.448 -0.1892  0.0169  0.0116
  328BDT   BNZ3 1638   4.840   2.435   1.523 -0.1171 -0.1094  0.0582
  328BDT    BS1 1639   4.781   2.622   1.513  0.1314 -0.0486 -0.3335
  328BDT    BS2 1640   4.866   2.239   1.521 -0.3634 -0.1422  0.4151
  329BDT   BNZ1 1641   4.391   6.956   6.269  0.2172 -0.1019  0.0896
  329BDT   BNZ2 1642   4.498   7.095   6.321 -0.0098  0.0770  0.0833
  329BDT   BNZ3 1643   4.473   7.087   6.070 -0.1505  0.1422  0.0947
  329BDT    BS1 1644   4.357   6.933   6.032  0.1116 -0.0624  0.1022
  329BDT    BS2 1645   4.585   7.232   6.144 -0.3773  0.3174  0.0873
  330BDT   BNZ1 1646   2.827   2.075   0.457 -0.0925 -0.0854  0.0148
  330BDT   BNZ2 1647   2.795   2.000   0.621 -0.1503 -0.1688 -0.0347
  330BDT   BNZ3 1648   2.583   2.090   0.519 -0.1600 -0.3487 -0.1778
  330BDT    BS1 1649   2.635   2.167   0.345 -0.0935 -0.2422 -0.1125
  330BDT    BS2 1650   2.567   2.005   0.697 -0.2173 -0.4200 -0.2187
  331BDT   BNZ1 1651   3.543   1.147   2.037 -0.0216 -0.2438 -0.0420
  331BDT   BNZ2 1652   3.503   1.231   1.880 -0.0034  0.0554  0.1106
  331BDT   BNZ3 1653   3.752   1.228   1.922 -0.0041 -0.0747  0.1055
  331BDT    BS1 1654   3.776   1.134   2.093 -0.0253 -0.3948 -0.0669
  331BDT    BS2 1655   3.690   1.315   1.756  0.0152  0.2441  0.2660
  332BDT   BNZ1 1656   4.083   1.923   6.485 -0.0453  0.1138 -0.0556
  332BDT   BNZ2 1657   4.245   1.906   6.569 -0.0930 -0.0536  0.0037
  332BDT   BNZ3 1658   4.123   1.685   6.558 -0.4371  0.1215  0.2031
  332BDT    BS1 1659   3.953   1.722   6.466 -0.3562  0.2975  0.1217
  332BDT    BS2 1660   4.300   1.685   6.645 -0.4591 -0.0620  0.2470
  333BDT   BNZ1 1661   2.582   2.503   5.708 -0.0154 -0.0439 -0.2946
  333BDT   BNZ2 1662   2.435   2.430   5.789  0.0094 -0.0342 -0.2410
  333BDT   BNZ3 1663   2.639   2.413   5.936 -0.0323  0.3419 -0.1351
  333BDT    BS1 1664   2.786   2.496   5.834 -0.0581  0.3029 -0.2054
  333BDT    BS2 1665   2.471   2.339   6.008 -0.0046  0.3222 -0.0909
  334BDT   BNZ1 1666   2.198   1.760   1.621  0.1953 -0.3360  0.0583
  334BDT   BNZ2 1667   2.345   1.866   1.594 -0.1181  0.1016  0.0139
  334BDT   BNZ3 1668   2.260   1.770   1.377  0.0484 -0.0822  0.0289
  334BDT    BS1 1669   2.104   1.660   1.424  0.3929 -0.5467  0.0753
  334BDT    BS2 1670   2.419   1.887   1.366 -0.2935  0.3823 -0.0173
  335BDT   BNZ1 1671   2.677   4.130   7.224 -0.1115 -0.2331  0.0477
  335BDT   BNZ2 1672   2.849   4.086   7.267 -0.0342  0.0094 -0.0066
  335BDT   BNZ3 1673   2.813   4.081   7.017 -0.0328  0.2123 -0.0121
  335BDT    BS1 1674   2.624   4.130   6.989 -0.1204 -0.0720  0.0505
  335BDT    BS2 1675   2.994   4.036   7.082  0.0417  0.4482 -0.0668
  336BDT   BNZ1 1676   3.678   2.864   6.279 -0.3415 -0.0577 -0.2297
  336BDT   BNZ2 1677   3.721   2.727   6.393  0.0228  0.0835 -0.1897
  336BDT   BNZ3 1678   3.584   2.903   6.510 -0.0079  0.0003 -0.0998
  336BDT    BS1 1679   3.547   3.041   6.375 -0.4086 -0.1531 -0.1493
  336BDT    BS2 1680   3.639   2.747   6.617  0.3705  0.1568 -0.0696
  337BDT   BNZ1 1681   3.131   1.323   5.111  0.2565 -0.1229  0.5127
  337BDT   BNZ2 1682   3.060   1.472   5.189  0.2275  0.0066  0.2455
  337BDT   BNZ3 1683   3.239   1.534   5.022  0.0989 -0.2456  0.0104
  337BDT    BS1 1684   3.305   1.363   4.948  0.1388 -0.3721  0.3270
  337BDT    BS2 1685   3.151   1.683   5.117  0.0790 -0.0976 -0.2470
  338BDT   BNZ1 1686   4.798   1.617   0.737  0.3085 -0.1257  0.1301
  338BDT   BNZ2 1687   4.785   1.570   0.561  0.1654 -0.2490  0.1724
  338BDT   BNZ3 1688   4.700   1.804   0.599  0.0487 -0.2795  0.1025
  338BDT    BS1 1689   4.721   1.838   0.792  0.2169 -0.1412  0.0614
  338BDT    BS2 1690   4.694   1.736   0.414 -0.0893 -0.4047  0.1544
  339BDT   BNZ1 1691   3.188   0.685   0.241 -0.3286 -0.3453  0.2763
  339BDT   BNZ2 1692   3.236   0.640   0.412  0.1084 -0.1298  0.2173
  339BDT   BNZ3 1693   3.326   0.474   0.245  0.1445 -0.0432  0.1508
  339BDT    BS1 1694   3.266   0.537   0.068 -0.3436 -0.2879  0.2244
  339BDT    BS2 1695   3.369   0.442   0.435  0.5893  0.1774  0.0849
  340BDT   BNZ1 1696   3.469   0.166   6.932  0.0776 -0.0531 -0.0779
  340BDT   BNZ2 1697   3.442   0.089   6.769 -0.3745 -0.1787  0.0515
  340BDT   BNZ3 1698   3.335   0.317   6.781 -0.0422 -0.0214  0.0588
  340BDT    BS1 1699   3.374   0.385   6.962  0.4321  0.1000 -0.0966
  340BDT    BS2 1700   3.315   0.218   6.611 -0.5363 -0.1640  0.1933
  341BDT   BNZ1 1701   1.731   1.999   0.472  0.0783 -0.3791 -0.0381
  341BDT   BNZ2 1702   1.632   2.138   0.537  0.1425 -0.2828 -0.1449
  341BDT   BNZ3 1703   1.737   2.006   0.724 -0.1107 -0.3306 -0.0337
  341BDT    BS1 1704   1.839   1.861   0.637 -0.1638 -0.4318  0.0761
  341BDT    BS2 1705   1.627   2.161   0.776 -0.0244 -0.2263 -0.1540
  342BDT   BNZ1 1706   5.074   2.402   0.418 -0.2086  0.1093  0.2750
  342BDT   BNZ2 1707   5.198   2.298   0.332 -0.3464  0.3449 -0.2278
  342BDT   BNZ3 1708   5.288   2.529   0.378 -0.3345  0.2743  0.1185
  342BDT    BS1 1709   5.143   2.626   0.470 -0.1721  0.0092  0.6423
  342BDT    BS2 1710   5.409   2.403   0.285 -0.4805  0.5256 -0.4280
  343BDT   BNZ1 1711   4.106   3.611   7.130 -0.0693  0.0135 -0.0293
  343BDT   BNZ2 1712   4.231   3.490   7.187  0.0040  0.0434 -0.1248
  343BDT   BNZ3 1713   4.040   3.509   7.351  0.0901 -0.0540 -0.0126
  343BDT    BS1 1714   3.916   3.642   7.275  0.0029 -0.0800  0.0846
  343BDT    BS2 1715   4.185   3.383   7.397  0.1589 -0.0149 -0.1210
  344BDT   BNZ1 1716   3.900   2.949   5.359 -0.1795 -0.0026  0.1868
  344BDT   BNZ2 1717   3.822   3.110   5.396 -0.1083  0.0658  0.0424
  344BDT   BNZ3 1718   3.661   2.956   5.278 -0.1178  0.0997  0.0109
  344BDT    BS1 1719   3.760   2.788   5.246 -0.1959  0.0215  0.1737
  344BDT    BS2 1720   3.593   3.135   5.326 -0.0425  0.1663 -0.1361
  345BDT   BNZ1 1721   4.463   7.134   0.060 -0.0126  0.2019 -0.0617
  345BDT   BNZ2 1722   4.357   7.193  -0.077  0.1831  0.3425 -0.1548
  345BDT   BNZ3 1723   4.401   7.376   0.090 -0.0799  0.1636  0.1158
  345BDT    BS1 1724   4.515   7.297   0.229 -0.2803  0.0217  0.1929
  345BDT    BS2 1725   4.288   7.422  -0.066  0.1426  0.3228 -0.0049
  346BDT   BNZ1 1726   4.976   0.772   1.223 -0.1290  0.2726 -0.0881
  346BDT   BNZ2 1727   4.942   0.948   1.187  0.1367  0.3401 -0.0263
  346BDT   BNZ3 1728   5.071   0.923   1.401 -0.3369  0.0315  0.2311
  346BDT    BS1 1729   5.099   0.729   1.425 -0.5992 -0.0134  0.1365
  346BDT    BS2 1730   5.024   1.107   1.346 -0.0267  0.1281  0.2690
  347BDT   BNZ1 1731   1.987   1.296   0.160 -0.0798  0.0190 -0.1686
  347BDT   BNZ2 1732   1.845   1.411   0.164 -0.0204  0.0867  0.0899
  347BDT   BNZ3 1733   1.929   1.362   0.397  0.1960 -0.1813 -0.0425
  347BDT    BS1 1734   2.080   1.239   0.374  0.1107 -0.2336 -0.3213
  347BDT    BS2 1735   1.775   1.485   0.382  0.2406 -0.0902  0.2333
  348BDT   BNZ1 1736   1.694   0.546   1.196 -0.0789 -0.0945  0.0602
  348BDT   BNZ2 1737   1.763   0.437   1.325 -0.1703 -0.1382  0.0729
  348BDT   BNZ3 1738   1.650   0.638   1.426 -0.1318 -0.1079  0.0557
  348BDT    BS1 1739   1.582   0.744   1.275 -0.0332 -0.0620  0.0433
  348BDT    BS2 1740   1.732   0.509   1.552 -0.2294 -0.1555  0.0701
  349BDT   BNZ1 1741   4.272   1.819   1.558  0.2011 -0.1095 -0.0079
  349BDT   BNZ2 1742   4.317   1.990   1.606  0.0997 -0.1269  0.1562
  349BDT   BNZ3 1743   4.435   1.820   1.750  0.1786 -0.1957  0.0120
  349BDT    BS1 1744   4.375   1.644   1.686  0.2855 -0.1690 -0.1585
  349BDT    BS2 1745   4.473   2.011   1.787  0.0671 -0.2081  0.1933
  350BDT   BNZ1 1746   4.648   2.490   0.363  0.3835  0.1263  0.1085
  350BDT   BNZ2 1747   4.783   2.601   0.416  0.4172  0.2441 -0.2106
  350BDT   BNZ3 1748   4.746   2.615   0.167 -0.1252  0.1469 -0.1416
  350BDT    BS1 1749   4.600   2.490   0.127 -0.1180  0.0248  0.2138
  350BDT    BS2 1750   4.889   2.729   0.243 -0.0486  0.2737 -0.4726
  351BDT   BNZ1 1751   3.903   3.437   6.901 -0.0432  0.1694  0.2045
  351BDT   BNZ2 1752   3.743   3.506   6.955  0.0195  0.2568  0.2811
  351BDT   BNZ3 1753   3.816   3.317   7.104 -0.0950  0.1007  0.1421
  351BDT    BS1 1754   3.989   3.255   7.033 -0.1574  0.0169  0.0679
  351BDT    BS2 1755   3.644   3.403   7.148 -0.0215  0.2045  0.2325
  352BDT   BNZ1 1756   4.254   2.889   0.023  0.0451 -0.0506 -0.2980
  352BDT   BNZ2 1757   4.242   3.033  -0.089  0.0067  0.2091  0.0313
  352BDT   BNZ3 1758   4.482   2.964  -0.055  0.0051 -0.0153 -0.3812
  352BDT    BS1 1759   4.477   2.809   0.067  0.0455 -0.2760 -0.7226
  352BDT    BS2 1760   4.450   3.118  -0.174 -0.0360  0.2736 -0.0084
  353BDT   BNZ1 1761   1.684   0.325   6.750 -0.0775 -0.1823 -0.1565
  353BDT   BNZ2 1762   1.570   0.318   6.608 -0.0478 -0.1154 -0.1839
  353BDT   BNZ3 1763   1.619   0.556   6.673 -0.0795 -0.1462 -0.0472
  353BDT    BS1 1764   1.742   0.545   6.827 -0.1103 -0.2183 -0.0277
  353BDT    BS2 1765   1.497   0.529   6.521 -0.0462 -0.0748 -0.0866
  354BDT   BNZ1 1766   2.023   0.225   6.885 -0.0326 -0.0213  0.0021
  354BDT   BNZ2 1767   2.158   0.101   6.875  0.0386  0.0420  0.1640
  354BDT   BNZ3 1768   2.023   0.073   7.087 -0.2408 -0.0580 -0.0239
  354BDT    BS1 1769   1.884   0.213   7.081 -0.2953 -0.1223 -0.1906
  354BDT    BS2 1770   2.174  -0.052   7.059 -0.1430  0.0152  0.1575
  355BDT   BNZ1 1771   2.399   1.003   0.168  0.2245  0.1925  0.0939
  355BDT   BNZ2 1772   2.568   0.974   0.102  0.0615  0.0150 -0.2597
  355BDT   BNZ3 1773   2.417   1.075  -0.073 -0.2639 -0.0456 -0.0198
  355BDT    BS1 1774   2.242   1.099   0.013 -0.0528  0.1539  0.3558
  355BDT    BS2 1775   2.603   1.037  -0.127 -0.4110 -0.2245 -0.3993
  356BDT   BNZ1 1776   1.794   2.699   5.854  0.2770  0.1185 -0.0214
  356BDT   BNZ2 1777   1.715   2.802   5.983  0.0933 -0.1017  0.0454
  356BDT   BNZ3 1778   1.914   2.677   6.074 -0.0209 -0.2371  0.1105
  356BDT    BS1 1779   1.986   2.572   5.924  0.1908  0.0177  0.0290
  356BDT    BS2 1780   1.816   2.794   6.200 -0.2003 -0.4567  0.1684
  357BDT   BNZ1 1781   2.010   7.059   0.605 -0.3839 -0.0207 -0.1242
  357BDT   BNZ2 1782   2.013   6.957   0.757  0.2026  0.0495 -0.0747
  357BDT   BNZ3 1783   2.033   6.813   0.551  0.0819  0.0019 -0.0537
  357BDT    BS1 1784   2.029   6.937   0.398 -0.5595 -0.0772 -0.1016
  357BDT    BS2 1785   2.033   6.720   0.726  0.6981  0.0848 -0.0128
  358BDT   BNZ1 1786   3.930   2.504   1.948  0.2274 -0.2645  0.1494
  358BDT   BNZ2 1787   3.922   2.649   1.837 -0.1378 -0.1913  0.2645
  358BDT   BNZ3 1788   4.112   2.670   2.002  0.0334 -0.0165  0.0500
  358BDT    BS1 1789   4.106   2.507   2.112  0.4241 -0.1067 -0.0657
  358BDT    BS2 1790   4.088   2.819   1.875 -0.3593  0.0426  0.1874
  359BDT   BNZ1 1791   5.250   2.053   0.730 -0.0528 -0.1659  0.2187
  359BDT   BNZ2 1792   5.121   2.077   0.603  0.1120 -0.0925  0.0634
  359BDT   BNZ3 1793   5.132   1.837   0.677 -0.0544 -0.1160  0.0144
  359BDT    BS1 1794   5.274   1.828   0.813 -0.2257 -0.1948  0.1891
  359BDT    BS2 1795   4.997   1.881   0.539  0.1305 -0.0379 -0.1414
  360BDT   BNZ1 1796   4.061   1.164   6.648  0.2640 -0.0850 -0.3779
  360BDT   BNZ2 1797   4.210   1.072   6.700  0.1607 -0.0020  0.0795
  360BDT   BNZ3 1798   4.260   1.317   6.667  0.1864 -0.0233 -0.0419
  360BDT    BS1 1799   4.090   1.400   6.611  0.3047 -0.1175 -0.5380
  360BDT    BS2 1800   4.410   1.202   6.725  0.0722  0.0672  0.4392
  361BDT   BNZ1 1801   4.427   2.932   5.683 -0.2127 -0.0946  0.1348
  361BDT   BNZ2 1802   4.370   3.056   5.561 -0.1920 -0.0623  0.1580
  361BDT   BNZ3 1803   4.319   2.822   5.483  0.2268 -0.0642 -0.1238
  361BDT    BS1 1804   4.386   2.702   5.624  0.1731 -0.0962 -0.1248
  361BDT    BS2 1805   4.265   2.970   5.363  0.2160 -0.0272 -0.0737
  362BDT   BNZ1 1806   3.123   2.738   0.037  0.0553 -0.1573  0.0254
  362BDT   BNZ2 1807   3.209   2.590  -0.029  0.0390 -0.1168 -0.0880
  362BDT   BNZ3 1808   2.959   2.567  -0.049  0.0326 -0.1160 -0.0135
  362BDT    BS1 1809   2.883   2.732   0.025  0.0516 -0.1617  0.1062
  362BDT    BS2 1810   3.068   2.416  -0.116  0.0162 -0.0739 -0.1368
  363BDT   BNZ1 1811   1.420   0.132   6.934  0.3000  0.0004 -0.1164
  363BDT   BNZ2 1812   1.363   0.032   6.791  0.1578 -0.0345 -0.0365
  363BDT   BNZ3 1813   1.533  -0.093   6.928  0.0266 -0.1436  0.0271
  363BDT    BS1 1814   1.583   0.026   7.076  0.1941 -0.0947 -0.0658
  363BDT    BS2 1815   1.460  -0.186   6.769 -0.1098 -0.1684  0.1062
  364BDT   BNZ1 1816   1.375   0.052   0.120  0.0113 -0.1171 -0.0711
  364BDT   BNZ2 1817   1.513   0.167   0.084  0.1209 -0.1763  0.1534
  364BDT   BNZ3 1818   1.454   0.168   0.329 -0.4935  0.0863  0.0156
  364BDT    BS1 1819   1.306   0.040   0.350 -0.5627  0.1343 -0.2313
  364BDT    BS2 1820   1.602   0.286   0.272 -0.3283  0.0038  0.2515
  365BDT   BNZ1 1821   2.826   0.914   5.187  0.0215  0.1407 -0.2363
  365BDT   BNZ2 1822   3.003   0.898   5.230 -0.0292 -0.0331 -0.0867
  365BDT   BNZ3 1823   2.883   0.678   5.255 -0.2964  0.1153 -0.0503
  365BDT    BS1 1824   2.695   0.713   5.205 -0.2179  0.2985 -0.2191
  365BDT    BS2 1825   3.075   0.679   5.298 -0.3287 -0.0743  0.1006
  366BDT   BNZ1 1826   5.481   0.525   0.235  0.1002  0.1819 -0.0024
  366BDT   BNZ2 1827   5.407   0.563   0.398  0.0169  0.0022  0.0026
  366BDT   BNZ3 1828   5.248   0.618   0.211  0.1019  0.1819 -0.0180
  366BDT    BS1 1829   5.342   0.572   0.044  0.1868  0.3679 -0.0195
  366BDT    BS2 1830   5.184   0.652   0.395  0.0088 -0.0185 -0.0106
  367BDT   BNZ1 1831   3.793   7.060   5.991 -0.1532 -0.1315  0.0953
  367BDT   BNZ2 1832   3.871   7.170   6.115  0.0620 -0.2625  0.0783
  367BDT   BNZ3 1833   4.009   6.963   6.076  0.0620 -0.1664 -0.4711
  367BDT    BS1 1834   3.912   6.857   5.941 -0.1810 -0.0234 -0.4094
  367BDT    BS2 1835   4.079   7.093   6.207  0.2788 -0.3070 -0.4462
  368BDT   BNZ1 1836   2.183   1.827   6.822  0.1230  0.1720 -0.1137
  368BDT   BNZ2 1837   2.043   1.746   6.908  0.2979 -0.0572 -0.0378
  368BDT   BNZ3 1838   1.994   1.778   6.663  0.1184 -0.1490 -0.0149
  368BDT    BS1 1839   2.153   1.865   6.587 -0.0628  0.1116 -0.0990
  368BDT    BS2 1840   1.853   1.693   6.772  0.3169 -0.3771  0.0613
  369BDT   BNZ1 1841   4.213   1.776   7.066  0.0840  0.1966 -0.0904
  369BDT   BNZ2 1842   4.337   1.647   7.103 -0.1522  0.0171  0.0976
  369BDT   BNZ3 1843   4.204   1.590   6.896  0.1228  0.2454 -0.1456
  369BDT    BS1 1844   4.077   1.738   6.872  0.3708  0.4206 -0.3325
  369BDT    BS2 1845   4.344   1.461   6.950 -0.1417  0.0401  0.0701
  370BDT   BNZ1 1846   4.799   0.511   5.597 -0.1691 -0.0553 -0.1475
  370BDT   BNZ2 1847   4.620   0.521   5.557 -0.1470  0.0003 -0.2318
  370BDT   BNZ3 1848   4.758   0.664   5.401 -0.0585  0.2122  0.0353
  370BDT    BS1 1849   4.945   0.640   5.457 -0.0908  0.1327  0.1098
  370BDT    BS2 1850   4.563   0.663   5.372 -0.0433  0.2509 -0.0718
  371BDT   BNZ1 1851   2.303   0.071   0.185  0.0118  0.2521  0.1489
  371BDT   BNZ2 1852   2.486   0.082   0.183  0.0362 -0.0740 -0.3113
  371BDT   BNZ3 1853   2.403  -0.032   0.392  0.3563  0.0558 -0.1101
  371BDT    BS1 1854   2.207  -0.036   0.378  0.3165  0.4094  0.3830
  371BDT    BS2 1855   2.599  -0.011   0.373  0.3488 -0.2914 -0.6043
  372BDT   BNZ1 1856   1.429   0.761   0.876 -0.0178 -0.0401 -0.1920
  372BDT   BNZ2 1857   1.319   0.802   0.736 -0.0999  0.0139 -0.1115
  372BDT   BNZ3 1858   1.390   1.009   0.861 -0.5164 -0.0803  0.2961
  372BDT    BS1 1859   1.507   0.947   1.006 -0.3919 -0.1415  0.1756
  372BDT    BS2 1860   1.270   1.035   0.706 -0.5657 -0.0255  0.3472
  373BDT   BNZ1 1861   3.432   1.899   5.814 -0.2216  0.1970 -0.0947
  373BDT   BNZ2 1862   3.593   1.861   5.735 -0.1143  0.3097  0.0680
  373BDT   BNZ3 1863   3.622   2.002   5.942 -0.4029  0.1236  0.2407
  373BDT    BS1 1864   3.441   2.033   6.013 -0.4992  0.0111  0.0441
  373BDT    BS2 1865   3.786   1.951   5.844 -0.2705  0.2541  0.3934
  374BDT   BNZ1 1866   1.638   3.087   0.669 -0.1181  0.2598  0.0718
  374BDT   BNZ2 1867   1.768   3.216   0.655  0.0930  0.0492  0.0558
  374BDT   BNZ3 1868   1.740   3.090   0.438  0.0414 -0.0773  0.1350
  374BDT    BS1 1869   1.599   2.957   0.470 -0.1884  0.1671  0.1478
  374BDT    BS2 1870   1.877   3.233   0.442  0.2606 -0.2876  0.1134
  375BDT   BNZ1 1871   5.350   1.831   6.855 -0.0974  0.1717  0.0863
  375BDT   BNZ2 1872   5.437   1.810   7.014  0.1323  0.3772 -0.0097
  375BDT   BNZ3 1873   5.197   1.875   7.050  0.0284 -0.1290  0.2555
  375BDT    BS1 1874   5.118   1.894   6.871 -0.2105 -0.3200  0.3476
  375BDT    BS2 1875   5.307   1.848   7.212  0.2796  0.1233  0.1355
  376BDT   BNZ1 1876   3.701   1.026   6.606 -0.3624  0.1522 -0.0055
  376BDT   BNZ2 1877   3.524   0.994   6.638 -0.3300  0.0372  0.0596
  376BDT   BNZ3 1878   3.554   1.193   6.486 -0.5195 -0.0179 -0.0526
  376BDT    BS1 1879   3.749   1.213   6.462 -0.5410  0.1131 -0.1155
  376BDT    BS2 1880   3.369   1.144   6.532 -0.4700 -0.1330  0.0243
  377BDT   BNZ1 1881   4.823   1.171   6.304  0.1287 -0.0479 -0.1598
  377BDT   BNZ2 1882   4.844   1.002   6.238 -0.3164 -0.1075 -0.1648
  377BDT   BNZ3 1883   4.906   1.013   6.482  0.0727 -0.1861 -0.2559
  377BDT    BS1 1884   4.878   1.200   6.536  0.5376 -0.1246 -0.2485
  377BDT    BS2 1885   4.923   0.837   6.393 -0.4195 -0.2412 -0.2544
  378BDT   BNZ1 1886   2.628   1.730   2.227  0.0560 -0.2775  0.1361
  378BDT   BNZ2 1887   2.803   1.682   2.201  0.0363 -0.2168 -0.1271
  378BDT   BNZ3 1888   2.749   1.898   2.084 -0.1820 -0.1649  0.0649
  378BDT    BS1 1889   2.559   1.935   2.121 -0.1401 -0.2381  0.3424
  378BDT    BS2 1890   2.934   1.831   2.067 -0.1857 -0.1072 -0.2222
  379BDT   BNZ1 1891   1.882   1.420   6.547  0.4294  0.0768 -0.0397
  379BDT   BNZ2 1892   1.851   1.264   6.457  0.3702  0.1022 -0.0633
  379BDT   BNZ3 1893   2.021   1.232   6.639  0.2588 -0.0218  0.0198
  379BDT    BS1 1894   2.043   1.407   6.726  0.3325 -0.0400  0.0391
  379BDT    BS2 1895   1.975   1.073   6.530  0.2062  0.0152 -0.0117
  380BDT   BNZ1 1896   3.774   1.402   5.000  0.0058 -0.0855 -0.2178
  380BDT   BNZ2 1897   3.713   1.229   5.001  0.0071 -0.0856 -0.0547
  380BDT   BNZ3 1898   3.845   1.281   5.209 -0.0749  0.1408 -0.0576
  380BDT    BS1 1899   3.902   1.469   5.192 -0.0709  0.1230 -0.2396
  380BDT    BS2 1900   3.772   1.099   5.194 -0.0671  0.1234  0.1102
  381BDT   BNZ1 1901   4.438   1.352   1.940  0.0714 -0.0943  0.2147
  381BDT   BNZ2 1902   4.312   1.221   1.919 -0.0733  0.1144 -0.3113
  381BDT   BNZ3 1903   4.208   1.438   1.992  0.0716  0.1226 -0.1245
  381BDT    BS1 1904   4.356   1.566   2.010  0.2130 -0.1185  0.4433
  381BDT    BS2 1905   4.086   1.285   1.965 -0.0839  0.3432 -0.6829
  382BDT   BNZ1 1906   3.725   0.775   6.142 -0.1865 -0.0488  0.0777
  382BDT   BNZ2 1907   3.885   0.741   6.225 -0.1649  0.0521  0.0777
  382BDT   BNZ3 1908   3.782   0.957   6.307 -0.0632  0.2384 -0.2741
  382BDT    BS1 1909   3.613   0.977   6.208 -0.0954  0.1090 -0.2493
  382BDT    BS2 1910   3.956   0.904   6.386 -0.0500  0.3248 -0.2481
  383BDT   BNZ1 1911   1.844   3.038   0.124  0.1034  0.0884  0.1732
  383BDT   BNZ2 1912   1.971   2.969   0.236 -0.0354 -0.1844  0.1657
  383BDT   BNZ3 1913   2.050   2.966  -0.003  0.1824  0.2140  0.2300
  383BDT    BS1 1914   1.903   3.043  -0.109  0.3245  0.4830  0.2401
  383BDT    BS2 1915   2.174   2.895   0.133  0.0222 -0.1015  0.2204
  384BDT   BNZ1 1916   3.794   0.237   6.146  0.1458  0.0223 -0.0698
  384BDT   BNZ2 1917   3.625   0.225   6.076  0.1501 -0.2160 -0.0415
  384BDT   BNZ3 1918   3.764   0.393   5.951 -0.0471 -0.1624 -0.1899
  384BDT    BS1 1919   3.941   0.394   6.038 -0.0386  0.0970 -0.2097
  384BDT    BS2 1920   3.578   0.367   5.889 -0.0256 -0.4140 -0.1473
  385BDT   BNZ1 1921   2.801   0.228   0.013  0.0718 -0.0690 -0.2421
  385BDT   BNZ2 1922   2.888   0.381   0.063 -0.0285 -0.0622 -0.0845
  385BDT   BNZ3 1923   2.977   0.181   0.187 -0.0538 -0.0966 -0.1215
  385BDT    BS1 1924   2.874   0.027   0.122  0.0597 -0.1007 -0.2934
  385BDT    BS2 1925   3.060   0.356   0.228 -0.1562 -0.0878  0.0440
  386BDT   BNZ1 1926   3.069   6.975   6.751  0.0242 -0.0424  0.1868
  386BDT   BNZ2 1927   2.953   6.841   6.706  0.0126  0.0219  0.0239
  386BDT   BNZ3 1928   3.048   6.954   6.501  0.2925  0.0311  0.1558
  386BDT    BS1 1929   3.169   7.094   6.568  0.2823 -0.0425  0.3275
  386BDT    BS2 1930   2.920   6.806   6.471  0.2576  0.0965 -0.0220
  387BDT   BNZ1 1931   1.610   1.266   6.725  0.1503  0.1986 -0.0817
  387BDT   BNZ2 1932   1.735   1.200   6.842 -0.1730  0.1071  0.2188
  387BDT   BNZ3 1933   1.661   1.431   6.908 -0.2988  0.0871  0.1506
  387BDT    BS1 1934   1.529   1.487   6.773  0.0714  0.1877 -0.1770
  387BDT    BS2 1935   1.795   1.344   7.023 -0.6291 -0.0041  0.4600
  388BDT   BNZ1 1936   3.630   2.570   1.013 -0.1758 -0.0741  0.3789
  388BDT   BNZ2 1937   3.506   2.586   0.879  0.2119  0.1217  0.0340
  388BDT   BNZ3 1938   3.647   2.379   0.849  0.1348  0.0313  0.2847
  388BDT    BS1 1939   3.773   2.377   1.000 -0.2979 -0.1776  0.6393
  388BDT    BS2 1940   3.508   2.413   0.713  0.5459  0.2410 -0.0880
  389BDT   BNZ1 1941   3.386   7.115   5.738 -0.0300 -0.1076  0.0754
  389BDT   BNZ2 1942   3.516   7.179   5.849 -0.0165 -0.2521  0.1447
  389BDT   BNZ3 1943   3.509   7.308   5.632  0.0507 -0.0592  0.2554
  389BDT    BS1 1944   3.365   7.226   5.526  0.0314  0.0862  0.1714
  389BDT    BS2 1945   3.645   7.364   5.765  0.0589 -0.2249  0.3186
  390BDT   BNZ1 1946   3.397   3.256   5.899 -0.3661  0.0064  0.0874
  390BDT   BNZ2 1947   3.374   3.166   6.057 -0.0871  0.0159  0.1361
  390BDT   BNZ3 1948   3.432   3.008   5.870 -0.2220  0.0269  0.0842
  390BDT    BS1 1949   3.453   3.120   5.709 -0.5216  0.0140  0.0371
  390BDT    BS2 1950   3.403   2.928   6.048  0.0777  0.0364  0.1377
  391BDT   BNZ1 1951   2.104   2.328   0.034 -0.1794  0.1197 -0.0790
  391BDT   BNZ2 1952   2.167   2.231  -0.108 -0.2696 -0.0339 -0.0149
  391BDT   BNZ3 1953   2.141   2.474  -0.168  0.1660 -0.0066 -0.1108
  391BDT    BS1 1954   2.073   2.563  -0.006  0.2334  0.1576 -0.1750
  391BDT    BS2 1955   2.208   2.354  -0.310  0.0375 -0.1707 -0.0358
  392BDT   BNZ1 1956   2.455   1.109   5.984 -0.0413  0.0568  0.0741
  392BDT   BNZ2 1957   2.619   1.103   6.064 -0.0500  0.0447  0.0908
  392BDT   BNZ3 1958   2.639   1.160   5.819 -0.0203  0.0354  0.0911
  392BDT    BS1 1959   2.455   1.162   5.749 -0.0131  0.0495  0.0725
  392BDT    BS2 1960   2.808   1.149   5.922 -0.0317  0.0237  0.1083
  393BDT   BNZ1 1961   2.911   1.147   6.794 -0.0135 -0.0314  0.0001
  393BDT   BNZ2 1962   2.960   1.298   6.703 -0.2374  0.1769  0.2176
  393BDT   BNZ3 1963   2.978   1.330   6.952  0.1128 -0.2990  0.2614
  393BDT    BS1 1964   2.922   1.160   7.034  0.3363 -0.4864  0.0077
  393BDT    BS2 1965   3.028   1.484   6.838 -0.1473 -0.0446  0.4778
  394BDT   BNZ1 1966   5.419   2.795   6.760  0.2113 -0.2663  0.0256
  394BDT   BNZ2 1967   5.377   2.626   6.815  0.0746 -0.2310  0.0318
  394BDT   BNZ3 1968   5.171   2.771   6.802  0.1677 -0.1129 -0.1358
  394BDT    BS1 1969   5.234   2.948   6.742  0.3128 -0.1622 -0.1296
  394BDT    BS2 1970   5.145   2.584   6.861  0.0198 -0.0860 -0.1159
  395BDT   BNZ1 1971   2.141   1.273   4.834 -0.2446 -0.0009 -0.0701
  395BDT   BNZ2 1972   2.150   1.095   4.876 -0.0756  0.0155 -0.0359
  395BDT   BNZ3 1973   1.927   1.193   4.941 -0.1058 -0.1437  0.1028
  395BDT    BS1 1974   1.934   1.382   4.890 -0.2900 -0.1503  0.0539
  395BDT    BS2 1975   1.955   1.001   4.980  0.0723 -0.1127  0.1263
  396BDT   BNZ1 1976   1.139   2.552   7.105  0.1280  0.2252  0.1057
  396BDT   BNZ2 1977   1.001   2.508   7.216  0.0748 -0.0895 -0.0807
  396BDT   BNZ3 1978   1.179   2.330   7.217  0.4157  0.2467  0.0497
  396BDT    BS1 1979   1.319   2.393   7.094  0.4397  0.5698  0.2517
  396BDT    BS2 1980   1.021   2.299   7.331  0.3304 -0.1043 -0.1532
  397BDT   BNZ1 1981   3.322   2.325   1.139  0.0392 -0.0107 -0.0182
  397BDT   BNZ2 1982   3.453   2.402   1.240  0.2226 -0.1326 -0.1591
  397BDT   BNZ3 1983   3.230   2.410   1.357  0.3127  0.2610 -0.0056
  397BDT    BS1 1984   3.101   2.323   1.236  0.1069  0.3668  0.1389
  397BDT    BS2 1985   3.384   2.489   1.453  0.4969  0.1024 -0.1660
  398BDT   BNZ1 1986   3.062   7.278   7.012  0.1014 -0.1370  0.0252
  398BDT   BNZ2 1987   3.095   7.425   7.117 -0.0227 -0.1247  0.0472
  398BDT   BNZ3 1988   2.996   7.491   6.894  0.0212 -0.1675  0.0149
  398BDT    BS1 1989   2.968   7.323   6.796  0.1557 -0.1773 -0.0066
  398BDT    BS2 1990   3.038   7.637   7.021 -0.1108 -0.1516  0.0401
  399BDT   BNZ1 1991   3.098   0.546   1.610  0.0962  0.0186  0.0839
  399BDT   BNZ2 1992   3.049   0.693   1.707  0.0643 -0.0405  0.1579
  399BDT   BNZ3 1993   2.857   0.607   1.569  0.0202 -0.1427  0.2820
  399BDT    BS1 1994   2.926   0.450   1.472  0.0600 -0.0697  0.1902
  399BDT    BS2 1995   2.822   0.766   1.681 -0.0081 -0.1964  0.3481
  400BDT   BNZ1 1996   4.160   7.251   1.691  0.0591 -0.0264  0.0127
  400BDT   BNZ2 1997   4.219   7.324   1.534  0.0378  0.1437  0.0834
  400BDT   BNZ3 1998   4.130   7.091   1.499 -0.0060  0.1966 -0.1641
  400BDT    BS1 1999   4.072   7.028   1.676  0.0217  0.0054 -0.2237
  400BDT    BS2 2000   4.198   7.186   1.339 -0.0244  0.3689 -0.0695
  401BDT   BNZ1 2001   3.648   3.859   6.683 -0.0576  0.0853  0.2082
  401BDT   BNZ2 2002   3.536   3.794   6.812 -0.1823  0.0512  0.0846
  401BDT   BNZ3 2003   3.479   4.032   6.754 -0.1721  0.0435  0.0429
  401BDT    BS1 2004   3.608   4.086   6.615 -0.0345  0.0816  0.1834
  401BDT    BS2 2005   3.368   3.945   6.893 -0.3007  0.0091 -0.0825
  402BDT   BNZ1 2006   3.930   3.177   6.259 -0.0140 -0.2540 -0.2946
  402BDT   BNZ2 2007   3.900   3.087   6.416 -0.1489  0.3001  0.0095
  402BDT   BNZ3 2008   4.132   3.042   6.327 -0.1528 -0.2036  0.2380
  402BDT    BS1 2009   4.147   3.145   6.160 -0.0094 -0.7869 -0.1015
  402BDT    BS2 2010   4.082   2.953   6.497 -0.2945  0.4153  0.5284
  403BDT   BNZ1 2011   4.493   3.124   0.739 -0.0422 -0.1973 -0.0579
  403BDT   BNZ2 2012   4.553   3.258   0.848 -0.1027 -0.1981 -0.0230
  403BDT   BNZ3 2013   4.333   3.318   0.741 -0.0663 -0.2162 -0.1094
  403BDT    BS1 2014   4.283   3.165   0.629 -0.0018 -0.2137 -0.1413
  403BDT    BS2 2015   4.413   3.452   0.863 -0.1317 -0.2157 -0.0662
  404BDT   BNZ1 2016   5.976   2.529   0.151  0.0856  0.0156 -0.3536
  404BDT   BNZ2 2017   5.872   2.605   0.020 -0.1299 -0.2698 -0.3542
  404BDT   BNZ3 2018   5.735   2.547   0.224  0.2055  0.1822  0.0122
  404BDT    BS1 2019   5.861   2.467   0.353  0.4162  0.4696 -0.0275
  404BDT    BS2 2020   5.639   2.630   0.072 -0.0430 -0.1473 -0.0250
  405BDT   BNZ1 2021   5.171   1.225   0.564  0.0621  0.1884 -0.1818
  405BDT   BNZ2 2022   5.075   1.320   0.687  0.0336 -0.1435  0.0599
  405BDT   BNZ3 2023   5.276   1.450   0.607 -0.2101  0.2648  0.0952
  405BDT    BS1 2024   5.367   1.334   0.477 -0.1662  0.6040 -0.1695
  405BDT    BS2 2025   5.160   1.538   0.741 -0.2213 -0.1142  0.3419
  406BDT   BNZ1 2026   3.085   6.364   0.869  0.0975 -0.1821  0.3798
  406BDT   BNZ2 2027   3.102   6.472   1.016  0.1531  0.0638  0.1945
  406BDT   BNZ3 2028   2.875   6.363   1.009  0.1181  0.1196  0.4159
  406BDT    BS1 2029   2.874   6.251   0.847  0.0603 -0.1555  0.6067
  406BDT    BS2 2030   2.911   6.484   1.161  0.1791  0.3680  0.2038
  407BDT   BNZ1 2031   1.763   2.759   6.561  0.0223  0.0429  0.1500
  407BDT   BNZ2 2032   1.625   2.878   6.550  0.0400  0.0575  0.0880
  407BDT   BNZ3 2033   1.757   2.910   6.762 -0.1166 -0.0264  0.1981
  407BDT    BS1 2034   1.900   2.775   6.759 -0.1246 -0.0361  0.2577
  407BDT    BS2 2035   1.603   3.031   6.733 -0.0860 -0.0046  0.1244
  408BDT   BNZ1 2036   3.042   4.068   6.508  0.0534  0.0150  0.1009
  408BDT   BNZ2 2037   3.175   4.037   6.386 -0.2535 -0.1908 -0.1898
  408BDT   BNZ3 2038   3.217   3.913   6.602  0.1953  0.0197 -0.1517
  408BDT    BS1 2039   3.066   3.958   6.720  0.5100  0.2308  0.1575
  408BDT    BS2 2040   3.351   3.891   6.458 -0.1592 -0.2091 -0.4574
  409BDT   BNZ1 2041   3.364   2.846   1.164  0.0020  0.1107 -0.1460
  409BDT   BNZ2 2042   3.238   2.843   1.296  0.1497 -0.0827 -0.0073
  409BDT   BNZ3 2043   3.140   2.926   1.079 -0.1696 -0.0551  0.1436
  409BDT    BS1 2044   3.288   2.923   0.949 -0.3094  0.1565 -0.0184
  409BDT    BS2 2045   3.017   2.915   1.233  0.0119 -0.2581  0.2751
  410BDT   BNZ1 2046   4.792   1.279   1.112 -0.0815  0.1420  0.2469
  410BDT   BNZ2 2047   4.871   1.317   0.952  0.0513 -0.0048  0.2756
  410BDT   BNZ3 2048   4.662   1.180   0.920  0.1491 -0.1454  0.2346
  410BDT    BS1 2049   4.590   1.148   1.100 -0.0051  0.0288  0.2074
  410BDT    BS2 2050   4.761   1.232   0.756  0.2780 -0.2857  0.2712
  411BDT   BNZ1 2051   1.303   1.042   5.472 -0.0890 -0.2829 -0.0459
  411BDT   BNZ2 2052   1.279   0.995   5.647  0.0247  0.1196  0.0815
  411BDT   BNZ3 2053   1.524   1.014   5.590 -0.0084 -0.2182 -0.1807
  411BDT    BS1 2054   1.531   1.064   5.399 -0.1347 -0.6417 -0.2904
  411BDT    BS2 2055   1.479   0.964   5.776  0.1107  0.2253 -0.0269
  412BDT   BNZ1 2056   3.502   2.432   6.021  0.1622  0.0209 -0.0290
  412BDT   BNZ2 2057   3.433   2.437   6.190 -0.0553  0.0778 -0.1175
  412BDT   BNZ3 2058   3.423   2.664   6.082  0.0681  0.0380 -0.2131
  412BDT    BS1 2059   3.500   2.642   5.902  0.2993 -0.0225 -0.1057
  412BDT    BS2 2060   3.352   2.650   6.266 -0.1663  0.0997 -0.2980
  413BDT   BNZ1 2061   3.614   3.426   1.061 -0.2016  0.1660 -0.1566
  413BDT   BNZ2 2062   3.652   3.335   1.215 -0.2765  0.0134 -0.2272
  413BDT   BNZ3 2063   3.491   3.524   1.258 -0.0092  0.2050 -0.0548
  413BDT    BS1 2064   3.462   3.611   1.083  0.0551  0.3566  0.0125
  413BDT    BS2 2065   3.543   3.415   1.414 -0.1071  0.0298 -0.1413
  414BDT   BNZ1 2066   1.851   2.164   1.253 -0.1581  0.0211 -0.2134
  414BDT   BNZ2 2067   1.668   2.163   1.243 -0.1646 -0.0378 -0.0991
  414BDT   BNZ3 2068   1.748   2.275   1.454 -0.0707 -0.0785 -0.1125
  414BDT    BS1 2069   1.944   2.268   1.448 -0.0711 -0.0101 -0.2385
  414BDT    BS2 2070   1.552   2.265   1.426 -0.0843 -0.1362  0.0065
  415BDT   BNZ1 2071   4.581   1.085   0.116 -0.0135  0.1073 -0.1091
  415BDT   BNZ2 2072   4.563   1.013  -0.051 -0.3529 -0.0921  0.0075
  415BDT   BNZ3 2073   4.386   1.186  -0.006  0.0168  0.2982 -0.0014
  415BDT    BS1 2074   4.419   1.252   0.176  0.3656  0.4827 -0.1419
  415BDT    BS2 2075   4.382   1.098  -0.183 -0.3626  0.0574  0.1173
  416BDT   BNZ1 2076   3.524   1.648   1.698  0.1351  0.1185  0.2053
  416BDT   BNZ2 2077   3.410   1.626   1.840  0.0588  0.0290  0.1312
  416BDT   BNZ3 2078   3.434   1.869   1.777  0.1344  0.0735  0.3309
  416BDT    BS1 2079   3.559   1.874   1.625  0.2123  0.1687  0.3989
  416BDT    BS2 2080   3.315   1.827   1.929  0.0492 -0.0233  0.2383
  417BDT   BNZ1 2081   1.424   1.489   0.547  0.0093  0.0015  0.1871
  417BDT   BNZ2 2082   1.374   1.638   0.640 -0.1169 -0.0142  0.1449
  417BDT   BNZ3 2083   1.177   1.489   0.593 -0.0163 -0.1191  0.0529
  417BDT    BS1 2084   1.248   1.335   0.494  0.1162 -0.0928  0.1072
  417BDT    BS2 2085   1.141   1.655   0.693 -0.1543 -0.1270  0.0166
  418BDT   BNZ1 2086   2.892   1.146   0.080  0.0632  0.2029 -0.0302
  418BDT   BNZ2 2087   2.786   1.231   0.203  0.0803  0.0093  0.1231
  418BDT   BNZ3 2088   3.005   1.159   0.305  0.1397 -0.0613 -0.0513
  418BDT    BS1 2089   3.105   1.069   0.162  0.1146  0.1599 -0.2074
  418BDT    BS2 2090   2.878   1.254   0.423  0.1531 -0.2567  0.1197
  419BDT   BNZ1 2091   4.204   1.642   0.147  0.1670 -0.0756 -0.2894
  419BDT   BNZ2 2092   4.165   1.821   0.148  0.2242 -0.0620 -0.0049
  419BDT   BNZ3 2093   4.413   1.782   0.168  0.1958 -0.1750  0.1335
  419BDT    BS1 2094   4.437   1.586   0.165  0.1329 -0.1821 -0.1931
  419BDT    BS2 2095   4.352   1.970   0.167  0.2567 -0.1572  0.4163
  420BDT   BNZ1 2096   3.107   2.162   6.066  0.0369  0.1883 -0.0954
  420BDT   BNZ2 2097   2.992   2.167   5.924  0.1414  0.0699 -0.1857
  420BDT   BNZ3 2098   2.867   2.141   6.141 -0.0010 -0.0864 -0.2848
  420BDT    BS1 2099   3.005   2.137   6.282 -0.1047  0.0573 -0.1778
  420BDT    BS2 2100   2.758   2.148   5.977  0.1210 -0.1960 -0.3694
  421BDT   BNZ1 2101   3.442   1.657   5.292  0.1214  0.1752  0.2348
  421BDT   BNZ2 2102   3.469   1.504   5.195 -0.3202  0.2664 -0.0515
  421BDT   BNZ3 2103   3.437   1.454   5.440 -0.3031 -0.0833 -0.1184
  421BDT    BS1 2104   3.409   1.628   5.528  0.1867 -0.1606  0.1984
  421BDT    BS2 2105   3.469   1.299   5.321 -0.7625  0.0502 -0.4063
  422BDT   BNZ1 2106   5.465   1.938   1.583  0.0141  0.1348 -0.1650
  422BDT   BNZ2 2107   5.387   1.895   1.423  0.2934 -0.0119 -0.2634
  422BDT   BNZ3 2108   5.404   1.693   1.574 -0.0330  0.1404 -0.0184
  422BDT    BS1 2109   5.488   1.757   1.740 -0.3214  0.2908  0.0635
  422BDT    BS2 2110   5.323   1.665   1.396  0.2815 -0.0228 -0.1427
  423BDT   BNZ1 2111   3.604   2.890   1.489  0.4852  0.1780  0.0469
  423BDT   BNZ2 2112   3.651   2.716   1.522 -0.0408 -0.0429 -0.3174
  423BDT   BNZ3 2113   3.738   2.794   1.298 -0.0727  0.0585 -0.2948
  423BDT    BS1 2114   3.680   2.981   1.280  0.5147  0.2875  0.1113
  423BDT    BS2 2115   3.779   2.607   1.350 -0.6197 -0.1610 -0.6747
  424BDT   BNZ1 2116   3.864   0.775   6.788  0.2234 -0.1542 -0.1800
  424BDT   BNZ2 2117   3.874   0.819   6.965 -0.1269 -0.0944 -0.1726
  424BDT   BNZ3 2118   4.103   0.789   6.866  0.0759 -0.0299  0.2651
  424BDT    BS1 2119   4.075   0.742   6.677  0.4452 -0.0998  0.2284
  424BDT    BS2 2120   4.095   0.837   7.058 -0.3070  0.0265  0.2355
  425BDT   BNZ1 2121   3.844   1.948   2.161 -0.0938  0.0564 -0.1390
  425BDT   BNZ2 2122   3.692   1.898   2.073  0.0069 -0.0089 -0.2779
  425BDT   BNZ3 2123   3.783   2.114   1.981  0.0944 -0.0602 -0.3123
  425BDT    BS1 2124   3.945   2.153   2.086 -0.0240  0.0157 -0.1550
  425BDT    BS2 2125   3.618   2.044   1.898  0.1932 -0.1236 -0.4517
  426BDT   BNZ1 2126   5.525   1.595   0.129 -0.2331  0.0498 -0.0093
  426BDT   BNZ2 2127   5.636   1.737   0.098 -0.2387  0.0499 -0.0292
  426BDT   BNZ3 2128   5.663   1.560  -0.079 -0.1463 -0.0264  0.0610
  426BDT    BS1 2129   5.538   1.416  -0.031 -0.1473 -0.0203  0.0763
  426BDT    BS2 2130   5.776   1.722  -0.096 -0.1596 -0.0198  0.0334
  427BDT   BNZ1 2131   4.440   2.636   1.691  0.0718 -0.3201 -0.0283
  427BDT   BNZ2 2132   4.531   2.684   1.842 -0.0879 -0.2688  0.0533
  427BDT   BNZ3 2133   4.359   2.506   1.891 -0.0566 -0.3402 -0.0930
  427BDT    BS1 2134   4.270   2.468   1.719  0.1192 -0.3909 -0.1710
  427BDT    BS2 2135   4.467   2.569   2.043 -0.2245 -0.2813  0.0028
  428BDT   BNZ1 2136   3.139   6.749   0.224 -0.0716 -0.0642  0.0660
  428BDT   BNZ2 2137   3.165   6.696   0.397  0.1074 -0.1666  0.0083
  428BDT   BNZ3 2138   3.338   6.596   0.243  0.1527  0.1918 -0.1787
  428BDT    BS1 2139   3.295   6.663   0.063 -0.0516  0.2788 -0.0977
  428BDT    BS2 2140   3.352   6.549   0.435  0.3315  0.0587 -0.2232
  429BDT   BNZ1 2141   5.104   2.972   7.278  0.1468  0.2299 -0.1904
  429BDT   BNZ2 2142   5.174   2.812   7.332 -0.0376  0.1289 -0.2485
  429BDT   BNZ3 2143   5.293   3.005   7.442  0.2620 -0.0433 -0.2658
  429BDT    BS1 2144   5.207   3.168   7.373  0.4433  0.0788 -0.2003
  429BDT    BS2 2145   5.355   2.823   7.489  0.0455 -0.1346 -0.3257
  430BDT   BNZ1 2146   2.730   6.982   0.044  0.0957 -0.1269  0.0114
  430BDT   BNZ2 2147   2.822   7.056  -0.096  0.2505  0.1091  0.2330
  430BDT   BNZ3 2148   2.917   6.831  -0.033  0.2571  0.0567  0.0387
  430BDT    BS1 2149   2.808   6.767   0.118  0.0872 -0.1988 -0.1961
  430BDT    BS2 2150   3.004   6.926  -0.183  0.4152  0.3044  0.2856
  431BDT   BNZ1 2151   3.976   1.145   0.437 -0.0389  0.1548  0.2113
  431BDT   BNZ2 2152   3.900   1.220   0.289  0.0639  0.0508  0.1049
  431BDT   BNZ3 2153   4.148   1.188   0.259  0.0894  0.0493  0.3083
  431BDT    BS1 2154   4.213   1.107   0.426 -0.0279  0.1655  0.4096
  431BDT    BS2 2155   4.050   1.268   0.107  0.1932 -0.0583  0.1824
  432BDT   BNZ1 2156   2.158   2.071   6.287 -0.0484  0.1318 -0.0880
  432BDT   BNZ2 2157   2.313   1.980   6.323 -0.0860  0.0230 -0.1983
  432BDT   BNZ3 2158   2.361   2.207   6.223  0.0068  0.1027  0.0238
  432BDT    BS1 2159   2.185   2.290   6.191  0.0429  0.2156  0.1296
  432BDT    BS2 2160   2.517   2.094   6.268 -0.0393 -0.0172 -0.1079
  433BDT   BNZ1 2161   4.982   1.483   0.317 -0.0601 -0.0665  0.0694
  433BDT   BNZ2 2162   5.008   1.639   0.225  0.0029 -0.2276 -0.1898
  433BDT   BNZ3 2163   4.777   1.548   0.186 -0.1872  0.0240  0.3103
  433BDT    BS1 2164   4.766   1.382   0.292 -0.2373  0.1928  0.5552
  433BDT    BS2 2165   4.823   1.716   0.094 -0.1024 -0.1584  0.0003
  434BDT   BNZ1 2166   5.077   3.279   7.042 -0.0443  0.0728 -0.0143
  434BDT   BNZ2 2167   5.037   3.256   6.865  0.3196 -0.0497 -0.0849
  434BDT   BNZ3 2168   5.125   3.488   6.910  0.2447 -0.0246 -0.0651
  434BDT    BS1 2169   5.163   3.495   7.103 -0.1544  0.1085  0.0075
  434BDT    BS2 2170   5.077   3.445   6.723  0.6281 -0.1530 -0.1352
  435BDT   BNZ1 2171   3.740   1.273   6.126 -0.0915 -0.3460 -0.1421
  435BDT   BNZ2 2172   3.800   1.200   5.970 -0.0973 -0.2693 -0.1804
  435BDT   BNZ3 2173   3.972   1.354   6.071 -0.0939 -0.3180 -0.1116
  435BDT    BS1 2174   3.892   1.423   6.237 -0.0877 -0.3995 -0.0749
  435BDT    BS2 2175   4.020   1.266   5.901 -0.1003 -0.2348 -0.1568
  436BDT   BNZ1 2176   5.293   2.117   1.155  0.0142 -0.0208 -0.1389
  436BDT   BNZ2 2177   5.330   2.203   1.313  0.0390 -0.0144 -0.1481
  436BDT   BNZ3 2178   5.187   2.346   1.162  0.1016  0.0211 -0.1741
  436BDT    BS1 2179   5.157   2.240   0.999  0.0694  0.0111 -0.1618
  436BDT    BS2 2180   5.236   2.423   1.337  0.1222  0.0246 -0.1816
  437BDT   BNZ1 2181   3.107   2.705   6.519 -0.0275 -0.3838  0.1971
  437BDT   BNZ2 2182   3.223   2.813   6.610 -0.0493 -0.1841 -0.0057
  437BDT   BNZ3 2183   2.986   2.844   6.691 -0.0361 -0.1889  0.0352
  437BDT    BS1 2184   2.876   2.722   6.583 -0.0115 -0.4091  0.2579
  437BDT    BS2 2185   3.126   2.953   6.779 -0.0614  0.0162 -0.1796
  438BDT   BNZ1 2186   4.345   3.640   6.429 -0.1664  0.1287  0.0450
  438BDT   BNZ2 2187   4.519   3.591   6.453 -0.1591  0.1342  0.0040
  438BDT   BNZ3 2188   4.387   3.407   6.344 -0.1496  0.1774 -0.0798
  438BDT    BS1 2189   4.204   3.475   6.325 -0.1586  0.1682 -0.0279
  438BDT    BS2 2190   4.579   3.371   6.377 -0.1432  0.1798 -0.1153
  439BDT   BNZ1 2191   4.795   7.274   7.103 -0.1434 -0.0530  0.2208
  439BDT   BNZ2 2192   4.753   7.226   6.932 -0.3476 -0.0004  0.2549
  439BDT   BNZ3 2193   4.951   7.096   7.017 -0.1890  0.0362 -0.0505
  439BDT    BS1 2194   4.982   7.159   7.201  0.0235 -0.0247 -0.0675
  439BDT    BS2 2195   4.891   7.057   6.833 -0.4144  0.0887  0.0095
  440BDT   BNZ1 2196   3.097   1.990   6.759  0.0139 -0.2666 -0.0472
  440BDT   BNZ2 2197   3.120   1.896   6.603  0.1090 -0.2619 -0.0363
  440BDT   BNZ3 2198   3.268   2.100   6.610  0.1489 -0.2948  0.0857
  440BDT    BS1 2199   3.231   2.188   6.782  0.0400 -0.2977  0.0645
  440BDT    BS2 2200   3.279   1.987   6.448  0.2435 -0.2873  0.0877
  441BDT   BNZ1 2201   4.533   1.983   1.286 -0.0523 -0.0232 -0.0128
  441BDT   BNZ2 2202   4.361   2.044   1.291 -0.1745 -0.3649  0.1051
  441BDT   BNZ3 2203   4.380   1.834   1.153  0.1242 -0.4021  0.1992
  441BDT    BS1 2204   4.569   1.782   1.159  0.2342 -0.0171  0.0625
  441BDT    BS2 2205   4.200   1.914   1.169 -0.0209 -0.7524  0.3148
  442BDT   BNZ1 2206   4.251   3.552   5.663  0.1661  0.0236  0.3065
  442BDT   BNZ2 2207   4.405   3.512   5.573 -0.1440 -0.0870 -0.1901
  442BDT   BNZ3 2208   4.290   3.713   5.474 -0.1713  0.1822  0.3698
  442BDT    BS1 2209   4.128   3.741   5.582  0.1935  0.2768  0.8691
  442BDT    BS2 2210   4.458   3.656   5.388 -0.4888  0.0431 -0.1875
  443BDT   BNZ1 2211   4.430   0.926   6.466 -0.0671 -0.1826  0.1121
  443BDT   BNZ2 2212   4.584   1.015   6.510 -0.0277 -0.1564 -0.0774
  443BDT   BNZ3 2213   4.571   0.792   6.626 -0.0285  0.0057  0.2378
  443BDT    BS1 2214   4.401   0.711   6.569 -0.0696 -0.0330  0.4237
  443BDT    BS2 2215   4.731   0.902   6.662  0.0130  0.0214  0.0156
  444BDT   BNZ1 2216   3.682   3.666   6.417 -0.0847 -0.1339  0.1525
  444BDT   BNZ2 2217   3.606   3.617   6.258  0.2069 -0.1330  0.0089
  444BDT   BNZ3 2218   3.620   3.421   6.416 -0.1030 -0.1289  0.0445
  444BDT    BS1 2219   3.703   3.490   6.580 -0.4054 -0.1314  0.1951
  444BDT    BS2 2220   3.539   3.387   6.239  0.2235 -0.1279 -0.1075
  445BDT   BNZ1 2221   2.307   1.700   0.562 -0.0200  0.1219  0.1445
  445BDT   BNZ2 2222   2.476   1.745   0.510  0.0561  0.0203  0.3000
  445BDT   BNZ3 2223   2.350   1.631   0.324  0.1671  0.0713  0.1929
  445BDT    BS1 2224   2.172   1.590   0.396  0.0755  0.1806  0.0286
  445BDT    BS2 2225   2.536   1.686   0.285  0.2360 -0.0380  0.3631
  446BDT   BNZ1 2226   2.859   0.736   0.361  0.2839  0.0234 -0.1877
  446BDT   BNZ2 2227   2.681   0.778   0.369  0.2233 -0.2232 -0.2262
  446BDT   BNZ3 2228   2.813   0.912   0.536  0.0230  0.0662 -0.2971
  446BDT    BS1 2229   3.001   0.856   0.514  0.1016  0.3172 -0.2501
  446BDT    BS2 2230   2.618   0.944   0.530 -0.0239 -0.2135 -0.3324
  447BDT   BNZ1 2231   2.495   1.228   1.393 -0.2551 -0.1435 -0.0682
  447BDT   BNZ2 2232   2.479   1.250   1.212  0.1590  0.0195 -0.0893
  447BDT   BNZ3 2233   2.394   1.452   1.337 -0.0288 -0.0492 -0.1053
  447BDT    BS1 2234   2.418   1.411   1.528 -0.4744 -0.2237 -0.0886
  447BDT    BS2 2235   2.385   1.458   1.139  0.4151  0.1245 -0.1221
  448BDT   BNZ1 2236   1.737   3.647   0.103  0.1086  0.0144  0.0004
  448BDT   BNZ2 2237   1.851   3.701  -0.030  0.0500  0.3674  0.0878
  448BDT   BNZ3 2238   1.972   3.674   0.190  0.1323 -0.1428 -0.0137
  448BDT    BS1 2239   1.836   3.616   0.320  0.1969 -0.4916 -0.1131
  448BDT    BS2 2240   2.080   3.732   0.035  0.0658  0.2650  0.0804
  449BDT   BNZ1 2241   2.417   1.827   5.608 -0.2489  0.0552  0.1674
  449BDT   BNZ2 2242   2.260   1.845   5.701 -0.3106  0.2938  0.0229
  449BDT   BNZ3 2243   2.440   1.993   5.796 -0.1734  0.0293  0.1809
  449BDT    BS1 2244   2.600   1.962   5.686 -0.1212 -0.2150  0.3317
  449BDT    BS2 2245   2.263   1.999   5.885 -0.2498  0.2973  0.0189
  450BDT   BNZ1 2246   3.033   3.602   0.824 -0.1227 -0.2728  0.2481
  450BDT   BNZ2 2247   2.926   3.563   0.968 -0.0563 -0.1059  0.3445
  450BDT   BNZ3 2248   3.028   3.793   0.989  0.1643 -0.1842  0.1576
  450BDT    BS1 2249   3.139   3.818   0.829  0.0723 -0.3652  0.0656
  450BDT    BS2 2250   2.909   3.734   1.136  0.2152 -0.0065  0.2713
  451BDT   BNZ1 2251   3.423   4.129   0.134  0.0124 -0.0144 -0.1495
  451BDT   BNZ2 2252   3.265   4.188   0.064 -0.0052  0.1021 -0.0130
  451BDT   BNZ3 2253   3.461   4.272  -0.070 -0.0570 -0.0126 -0.1614
  451BDT    BS1 2254   3.622   4.199   0.018 -0.0354 -0.1324 -0.3021
  451BDT    BS2 2255   3.281   4.327  -0.131 -0.0713  0.1171 -0.0080
  452BDT   BNZ1 2256   1.214   0.555   0.072  0.0507  0.0386 -0.0874
  452BDT   BNZ2 2257   1.088   0.580  -0.058  0.1493  0.2000 -0.1529
  452BDT   BNZ3 2258   1.258   0.766  -0.058  0.3259  0.0402  0.0051
  452BDT    BS1 2259   1.385   0.723   0.086  0.2010 -0.1274  0.0648
  452BDT    BS2 2260   1.113   0.778  -0.192  0.4133  0.2187 -0.0746
  453BDT   BNZ1 2261   2.743   2.338   2.262  0.0897  0.0404  0.1835
  453BDT   BNZ2 2262   2.893   2.244   2.310  0.0659  0.0439  0.2645
  453BDT   BNZ3 2263   2.683   2.112   2.355  0.0586 -0.1047 -0.1784
  453BDT    BS1 2264   2.533   2.227   2.298  0.0893 -0.0953 -0.2345
  453BDT    BS2 2265   2.855   2.026   2.402  0.0379 -0.0871 -0.0593
  454BDT   BNZ1 2266   3.720   6.998   6.451  0.0136  0.0244 -0.2710
  454BDT   BNZ2 2267   3.546   6.942   6.453 -0.0081  0.0949 -0.0864
  454BDT   BNZ3 2268   3.693   6.786   6.585 -0.0014  0.2541  0.0965
  454BDT    BS1 2269   3.875   6.860   6.573  0.0231  0.1657 -0.1238
  454BDT    BS2 2270   3.501   6.741   6.576 -0.0214  0.3170  0.2714
  455BDT   BNZ1 2271   3.943   0.937   0.095  0.0688  0.3345 -0.0054
  455BDT   BNZ2 2272   4.118   0.884   0.108  0.0392  0.2091 -0.1007
  455BDT   BNZ3 2273   3.977   0.774   0.285 -0.0152 -0.0030 -0.2739
  455BDT    BS1 2274   3.793   0.841   0.257  0.0207  0.1546 -0.1569
  455BDT    BS2 2275   4.169   0.729   0.284 -0.0439 -0.1131 -0.3606
  456BDT   BNZ1 2276   1.953   0.179   0.616  0.1821 -0.0043  0.2316
  456BDT   BNZ2 2277   2.105   0.120   0.700  0.0595  0.0055  0.4639
  456BDT   BNZ3 2278   1.898   0.022   0.805 -0.0878 -0.2199 -0.0216
  456BDT    BS1 2279   1.745   0.095   0.704  0.0672 -0.2128 -0.2419
  456BDT    BS2 2280   2.071  -0.031   0.883 -0.1985 -0.1897  0.2562
  457BDT   BNZ1 2281   3.305   1.257   0.356  0.3108  0.0221  0.0224
  457BDT   BNZ2 2282   3.458   1.171   0.304  0.2675 -0.0003 -0.0681
  457BDT   BNZ3 2283   3.335   1.041   0.481  0.1973 -0.1311 -0.2113
  457BDT    BS1 2284   3.175   1.146   0.526  0.2504 -0.0948 -0.1004
  457BDT    BS2 2285   3.503   0.962   0.413  0.1572 -0.1420 -0.2937
  458BDT   BNZ1 2286   4.545   1.389   6.298 -0.2419  0.0610 -0.0412
  458BDT   BNZ2 2287   4.406   1.288   6.363 -0.1277 -0.2425 -0.2568
  458BDT   BNZ3 2288   4.419   1.277   6.111  0.2540 -0.1751 -0.2439
  458BDT    BS1 2289   4.572   1.389   6.059  0.0974  0.1567 -0.0011
  458BDT    BS2 2290   4.274   1.174   6.198  0.3475 -0.4895 -0.4666
  459BDT   BNZ1 2291   2.538   1.569   1.851  0.0683  0.1166  0.1171
  459BDT   BNZ2 2292   2.691   1.469   1.850 -0.0407 -0.0520  0.0406
  459BDT   BNZ3 2293   2.545   1.413   2.048 -0.1011 -0.0415 -0.0007
  459BDT    BS1 2294   2.386   1.528   2.033  0.0251  0.1448  0.0869
  459BDT    BS2 2295   2.715   1.314   2.031 -0.2107 -0.2153 -0.0768
  460BDT   BNZ1 2296   2.230   6.676   0.209  0.0024  0.0357 -0.0943
  460BDT   BNZ2 2297   2.333   6.528   0.178  0.1661  0.0649  0.2764
  460BDT   BNZ3 2298   2.426   6.731   0.060  0.0197 -0.0924 -0.1195
  460BDT    BS1 2299   2.304   6.879   0.104 -0.1449 -0.1228 -0.5016
  460BDT    BS2 2300   2.525   6.561   0.037  0.2012 -0.0519  0.2965
  461BDT   BNZ1 2301   1.321   2.442   0.592 -0.1595 -0.0046 -0.2196
  461BDT   BNZ2 2302   1.328   2.444   0.774 -0.1550 -0.0090 -0.2197
  461BDT   BNZ3 2303   1.091   2.465   0.692 -0.1473  0.1015 -0.2151
  461BDT    BS1 2304   1.101   2.461   0.495 -0.1526  0.0978 -0.2153
  461BDT    BS2 2305   1.118   2.466   0.888 -0.1430  0.0881 -0.2156
  462BDT   BNZ1 2306   2.286   2.412   0.772 -0.1273 -0.0648 -0.1143
  462BDT   BNZ2 2307   2.252   2.288   0.903 -0.0866  0.1248  0.0784
  462BDT   BNZ3 2308   2.499   2.305   0.856 -0.1239 -0.1523 -0.2333
  462BDT    BS1 2309   2.518   2.441   0.715 -0.1689 -0.3457 -0.4182
  462BDT    BS2 2310   2.443   2.176   0.995 -0.0808  0.0649 -0.0069
  463BDT   BNZ1 2311   1.890   2.418   6.290 -0.0657 -0.2463 -0.0391
  463BDT   BNZ2 2312   1.796   2.369   6.439 -0.0743  0.1119  0.0755
  463BDT   BNZ3 2313   1.705   2.256   6.234 -0.2499 -0.1572  0.2985
  463BDT    BS1 2314   1.815   2.318   6.084 -0.2284 -0.5341  0.1602
  463BDT    BS2 2315   1.615   2.215   6.405 -0.2419  0.2371  0.3983
  464BDT   BNZ1 2316   3.675   2.352   2.489  0.1155  0.1334 -0.1405
  464BDT   BNZ2 2317   3.708   2.231   2.356  0.1046  0.0275 -0.0473
  464BDT   BNZ3 2318   3.589   2.435   2.267 -0.0430 -0.1120 -0.1718
  464BDT    BS1 2319   3.562   2.554   2.421 -0.0189  0.0155 -0.2650
  464BDT    BS2 2320   3.633   2.292   2.137 -0.0419 -0.2103 -0.0636
  465BDT   BNZ1 2321   2.930   1.190   0.960  0.0855  0.1368 -0.0067
  465BDT   BNZ2 2322   2.767   1.221   1.037  0.0117 -0.0765 -0.0729
  465BDT   BNZ3 2323   2.743   1.100   0.817  0.2491  0.0630 -0.1779
  465BDT    BS1 2324   2.925   1.075   0.748  0.3106  0.2900 -0.0941
  465BDT    BS2 2325   2.576   1.142   0.915  0.1541 -0.1684 -0.2370
  466BDT   BNZ1 2326   3.053   1.576   5.506  0.0205  0.0513  0.0913
  466BDT   BNZ2 2327   2.885   1.511   5.473  0.1417 -0.1748 -0.0971
  466BDT   BNZ3 2328   2.957   1.463   5.710 -0.1178  0.0604  0.0318
  466BDT    BS1 2329   3.138   1.539   5.728 -0.2388  0.2909  0.2286
  466BDT    BS2 2330   2.777   1.400   5.657  0.0274 -0.1927 -0.1748
  467BDT   BNZ1 2331   3.295   0.094   1.395  0.1687 -0.1027 -0.1922
  467BDT   BNZ2 2332   3.368   0.256   1.438 -0.0999 -0.1046  0.2941
  467BDT   BNZ3 2333   3.265   0.261   1.209  0.0452  0.3606  0.2340
  467BDT    BS1 2334   3.192   0.081   1.178  0.3369  0.3329 -0.2946
  467BDT    BS2 2335   3.348   0.429   1.273 -0.2465  0.3109  0.7440
  468BDT   BNZ1 2336   4.555   2.715   0.817  0.0651  0.2671 -0.0756
  468BDT   BNZ2 2337   4.536   2.540   0.866 -0.0264  0.2985  0.0027
  468BDT   BNZ3 2338   4.376   2.600   0.681  0.2291  0.2145 -0.2482
  468BDT    BS1 2339   4.409   2.790   0.641  0.3120  0.1839 -0.3138
  468BDT    BS2 2340   4.370   2.414   0.747  0.1148  0.2524 -0.1451
  469BDT   BNZ1 2341   5.688   1.364   6.909  0.2033 -0.0147 -0.1677
  469BDT   BNZ2 2342   5.578   1.232   6.845  0.1141  0.0605 -0.1707
  469BDT   BNZ3 2343   5.806   1.141   6.904 -0.0439 -0.1558  0.1223
  469BDT    BS1 2344   5.910   1.294   6.970  0.0649 -0.2208  0.1025
  469BDT    BS2 2345   5.674   1.012   6.833 -0.1253 -0.0581  0.0951
  470BDT   BNZ1 2346   2.372   0.886   6.862  0.1478  0.1278 -0.3510
  470BDT   BNZ2 2347   2.252   0.784   6.770  0.0338  0.0033 -0.0700
  470BDT   BNZ3 2348   2.468   0.660   6.808 -0.0677 -0.0997  0.1822
  470BDT    BS1 2349   2.584   0.784   6.908  0.0659  0.0512 -0.1475
  470BDT    BS2 2350   2.327   0.564   6.709 -0.1742 -0.2119  0.4571
  471BDT   BNZ1 2351   2.503   1.850   6.714  0.0641  0.0022 -0.0763
  471BDT   BNZ2 2352   2.552   1.897   6.544  0.1919 -0.2628 -0.1150
  471BDT   BNZ3 2353   2.753   1.865   6.692  0.0873 -0.2003  0.0428
  471BDT    BS1 2354   2.683   1.815   6.869 -0.0460  0.0899  0.0702
  471BDT    BS2 2355   2.788   1.916   6.504  0.2270 -0.4799 -0.0084
  472BDT   BNZ1 2356   1.915   1.504   0.691  0.0466  0.0317 -0.0188
  472BDT   BNZ2 2357   2.039   1.526   0.824 -0.1339  0.0583  0.1466
  472BDT   BNZ3 2358   1.806   1.508   0.918 -0.2185 -0.3772 -0.1346
  472BDT    BS1 2359   1.687   1.485   0.763 -0.0060 -0.3726 -0.2975
  472BDT    BS2 2360   1.953   1.532   1.048 -0.3949 -0.3141  0.0558
  473BDT   BNZ1 2361   1.783   0.993   1.577  0.0966  0.0756 -0.0148
  473BDT   BNZ2 2362   1.854   0.930   1.420 -0.1764 -0.2704 -0.0052
  473BDT   BNZ3 2363   1.915   0.781   1.614 -0.2256 -0.1001  0.1423
  473BDT    BS1 2364   1.832   0.862   1.773  0.0829  0.2696  0.1150
  473BDT    BS2 2365   1.983   0.728   1.436 -0.5067 -0.4690  0.1445
  474BDT   BNZ1 2366   3.083   1.238   6.205  0.1457 -0.0894  0.0786
  474BDT   BNZ2 2367   3.233   1.145   6.157  0.0311 -0.2732  0.0731
  474BDT   BNZ3 2368   3.207   1.353   6.019  0.2150 -0.3044 -0.0100
  474BDT    BS1 2369   3.043   1.441   6.083  0.3292 -0.0993  0.0026
  474BDT    BS2 2370   3.364   1.240   5.981  0.0806 -0.4919 -0.0082
  475BDT   BNZ1 2371   5.708   0.684   7.211  0.3065  0.0515 -0.1262
  475BDT   BNZ2 2372   5.808   0.532   7.235  0.2569  0.0121 -0.1673
  475BDT   BNZ3 2373   5.719   0.547   7.000  0.0602 -0.0178 -0.0956
  475BDT    BS1 2374   5.615   0.714   6.992  0.1304  0.0288 -0.0546
  475BDT    BS2 2375   5.830   0.389   7.044  0.0247 -0.0553 -0.1432
  476BDT   BNZ1 2376   4.937   1.890   1.206 -0.0089  0.0486 -0.0494
  476BDT   BNZ2 2377   5.007   1.732   1.266 -0.2545 -0.0865 -0.1142
  476BDT   BNZ3 2378   5.071   1.776   1.026  0.2581  0.1783  0.0639
  476BDT    BS1 2379   4.989   1.948   0.979  0.4931  0.2996  0.1291
  476BDT    BS2 2380   5.138   1.609   1.107 -0.0372  0.0131 -0.0122
  477BDT   BNZ1 2381   3.026   0.821   7.197 -0.1033  0.2271 -0.0379
  477BDT   BNZ2 2382   2.902   0.736   7.301  0.1444 -0.1017  0.0000
  477BDT   BNZ3 2383   2.841   0.722   7.057 -0.1794  0.2347  0.0567
  477BDT    BS1 2384   2.984   0.817   6.960 -0.4371  0.5680  0.0186
  477BDT    BS2 2385   2.717   0.636   7.184  0.1023 -0.1335  0.0939
  478BDT   BNZ1 2386   4.274   3.752   0.665  0.2243  0.0219 -0.0543
  478BDT   BNZ2 2387   4.191   3.702   0.510  0.1744 -0.1075  0.0133
  478BDT   BNZ3 2388   4.438   3.733   0.475  0.1262  0.1082 -0.1484
  478BDT    BS1 2389   4.512   3.786   0.650  0.1834  0.2344 -0.2126
  478BDT    BS2 2390   4.332   3.679   0.318  0.0772 -0.0435 -0.0656
  479BDT   BNZ1 2391   2.746   2.709   0.903 -0.2506 -0.1239  0.2520
  479BDT   BNZ2 2392   2.790   2.757   1.074  0.2092  0.2093  0.0509
  479BDT   BNZ3 2393   2.609   2.906   0.981  0.2344  0.2788  0.1130
  479BDT    BS1 2394   2.574   2.841   0.798 -0.2749 -0.0966  0.3363
  479BDT    BS2 2395   2.669   2.943   1.166  0.7056  0.6119 -0.1148
  480BDT   BNZ1 2396   3.011   1.008   2.031 -0.1126  0.2221 -0.2459
  480BDT   BNZ2 2397   3.185   1.047   2.071 -0.1862  0.1876  0.1302
  480BDT   BNZ3 2398   3.139   0.800   2.094 -0.3149  0.2139  0.1592
  480BDT    BS1 2399   2.949   0.776   2.048 -0.2220  0.2520 -0.2603
  480BDT    BS2 2400   3.323   0.861   2.133 -0.3875  0.1760  0.5440
  481BDT   BNZ1 2401   2.117   2.880   5.743  0.0190 -0.0927 -0.0441
  481BDT   BNZ2 2402   2.092   2.930   5.569 -0.2865  0.0242  0.0313
  481BDT   BNZ3 2403   2.300   2.790   5.594 -0.2047  0.0580 -0.4157
  481BDT    BS1 2404   2.312   2.745   5.785  0.1243 -0.0712 -0.4685
  481BDT    BS2 2405   2.256   2.853   5.412 -0.5299  0.1774 -0.2987
  482BDT   BNZ1 2406   2.452   1.963   0.062 -0.1443 -0.2692 -0.1446
  482BDT   BNZ2 2407   2.527   2.114  -0.008 -0.0349 -0.2347  0.0417
  482BDT   BNZ3 2408   2.409   1.979  -0.185 -0.0028 -0.0094 -0.1536
  482BDT    BS1 2409   2.336   1.821  -0.094 -0.1254 -0.0631 -0.3447
  482BDT    BS2 2410   2.495   2.147  -0.244  0.1079  0.0076  0.0565
  483BDT   BNZ1 2411   3.982   1.218   7.007 -0.0625  0.3960 -0.2460
  483BDT   BNZ2 2412   3.816   1.142   7.001  0.0243  0.2029 -0.2317
  483BDT   BNZ3 2413   3.802   1.386   7.063 -0.2107  0.0394  0.3947
  483BDT    BS1 2414   3.988   1.451   7.065 -0.2845  0.2578  0.3279
  483BDT    BS2 2415   3.632   1.287   7.052 -0.0952 -0.1546  0.3561
  484BDT   BNZ1 2416   2.340   2.562   1.209 -0.1189  0.0425  0.2254
  484BDT   BNZ2 2417   2.305   2.386   1.248  0.3490 -0.1143 -0.0264
  484BDT   BNZ3 2418   2.474   2.483   1.408  0.0366  0.1353  0.1581
  484BDT    BS1 2419   2.500   2.671   1.353 -0.4623  0.2736  0.4263
  484BDT    BS2 2420   2.425   2.294   1.435  0.5456 -0.0464 -0.1180
  485BDT   BNZ1 2421   5.094   1.819   1.674 -0.1681  0.1480 -0.0458
  485BDT   BNZ2 2422   4.976   1.899   1.559 -0.3014 -0.0697 -0.0632
  485BDT   BNZ3 2423   4.855   1.776   1.742 -0.0945 -0.0323  0.0997
  485BDT    BS1 2424   4.996   1.697   1.856  0.0360  0.2082  0.1039
  485BDT    BS2 2425   4.743   1.868   1.608 -0.2480 -0.2606  0.0684
  486BDT   BNZ1 2426   2.947   2.479   5.498 -0.0009 -0.1544  0.1215
  486BDT   BNZ2 2427   3.051   2.419   5.636  0.1499 -0.0086  0.0732
  486BDT   BNZ3 2428   3.149   2.627   5.532 -0.0893  0.0200 -0.0981
  486BDT    BS1 2429   3.026   2.678   5.386 -0.2381 -0.1457 -0.0297
  486BDT    BS2 2430   3.248   2.548   5.683  0.0847  0.1676 -0.1344
  487BDT   BNZ1 2431   2.205   3.235   7.179 -0.1756  0.0965  0.0290
  487BDT   BNZ2 2432   2.368   3.311   7.144 -0.2022  0.1117 -0.0630
  487BDT   BNZ3 2433   2.231   3.455   7.299 -0.0416 -0.0072  0.1938
  487BDT    BS1 2434   2.061   3.360   7.326 -0.0226 -0.0154  0.2747
  487BDT    BS2 2435   2.410   3.522   7.250 -0.0809  0.0174  0.0767
  488BDT   BNZ1 2436   3.949   2.915   5.720 -0.1901  0.1801 -0.3166
  488BDT   BNZ2 2437   3.955   2.987   5.888  0.0578 -0.5308  0.0015
  488BDT   BNZ3 2438   3.717   2.960   5.809 -0.0559  0.0261  0.1287
  488BDT    BS1 2439   3.729   2.882   5.628 -0.3188  0.7843 -0.2054
  488BDT    BS2 2440   3.742   3.037   5.989  0.2120 -0.7578  0.4400
  489BDT   BNZ1 2441   3.807   3.010   1.784  0.0524 -0.0327  0.2217
  489BDT   BNZ2 2442   3.870   3.049   1.617 -0.1748  0.1459  0.1757
  489BDT   BNZ3 2443   3.986   3.187   1.794 -0.1656  0.1958  0.1312
  489BDT    BS1 2444   3.907   3.132   1.965  0.0857 -0.0066  0.1844
  489BDT    BS2 2445   4.042   3.217   1.607 -0.4031  0.3751  0.0906
  490BDT   BNZ1 2446   2.437   0.771   1.146 -0.2875  0.4070  0.1187
  490BDT   BNZ2 2447   2.552   0.885   1.231  0.1740 -0.0354  0.1126
  490BDT   BNZ3 2448   2.398   0.770   1.395 -0.0323  0.3003  0.1594
  490BDT    BS1 2449   2.283   0.653   1.288 -0.5162  0.7775  0.1714
  490BDT    BS2 2450   2.530   0.898   1.470  0.4591 -0.1872  0.1469
  491BDT   BNZ1 2451   4.311   1.654   6.197 -0.2726 -0.1665  0.1222
  491BDT   BNZ2 2452   4.258   1.829   6.208  0.1293 -0.0349  0.0423
  491BDT   BNZ3 2453   4.122   1.703   6.038 -0.1325  0.2112  0.0665
  491BDT    BS1 2454   4.191   1.519   6.038 -0.5588  0.0532  0.1551
  491BDT    BS2 2455   4.078   1.894   6.063  0.3068  0.3239 -0.0170
  492BDT   BNZ1 2456   3.005   2.002   5.349 -0.0791  0.0809 -0.0171
  492BDT   BNZ2 2457   2.883   1.943   5.473 -0.0911  0.0261 -0.0547
  492BDT   BNZ3 2458   3.119   1.917   5.557 -0.0954 -0.0978 -0.0801
  492BDT    BS1 2459   3.236   1.984   5.413 -0.0819 -0.0271 -0.0370
  492BDT    BS2 2460   2.975   1.858   5.678 -0.1074 -0.1440 -0.1177
  493BDT   BNZ1 2461   4.253   1.961   5.672 -0.0587  0.1967 -0.1818
  493BDT   BNZ2 2462   4.368   1.951   5.529 -0.1778  0.0789 -0.2707
  493BDT   BNZ3 2463   4.291   1.722   5.601  0.2414  0.1009  0.2799
  493BDT    BS1 2464   4.170   1.750   5.753  0.3454  0.2371  0.3315
  493BDT    BS2 2465   4.416   1.730   5.447  0.0870 -0.0154  0.1404
  494BDT   BNZ1 2466   2.573   2.443   5.037 -0.0095  0.1549 -0.0999
  494BDT   BNZ2 2467   2.392   2.415   5.032  0.0625 -0.3576 -0.0684
  494BDT   BNZ3 2468   2.469   2.474   5.265 -0.0855  0.0671 -0.1224
  494BDT    BS1 2469   2.664   2.501   5.252 -0.1701  0.6003 -0.1544
  494BDT    BS2 2470   2.276   2.440   5.241  0.0005 -0.4978 -0.0862
  495BDT   BNZ1 2471   4.834   0.927   5.589 -0.2048  0.3748  0.0304
  495BDT   BNZ2 2472   4.663   0.974   5.544 -0.3223 -0.2731 -0.2623
  495BDT   BNZ3 2473   4.666   0.817   5.741 -0.0583 -0.2285 -0.2282
  495BDT    BS1 2474   4.855   0.777   5.776  0.0408  0.4918  0.0889
  495BDT    BS2 2475   4.489   0.879   5.678 -0.1838 -0.9053 -0.5315
  496BDT   BNZ1 2476   2.015   0.366   0.989 -0.2289 -0.0606  0.0455
  496BDT   BNZ2 2477   1.923   0.270   1.115 -0.1622 -0.0632  0.0922
  496BDT   BNZ3 2478   2.171   0.226   1.128 -0.1346  0.0860  0.0887
  496BDT    BS1 2479   2.254   0.335   0.987 -0.2113  0.0776  0.0370
  496BDT    BS2 2480   2.056   0.130   1.258 -0.0682  0.0715  0.1368
  497BDT   BNZ1 2481   2.438   3.131   5.844  0.0281 -0.1379  0.0861
  497BDT   BNZ2 2482   2.280   3.187   5.918 -0.0151 -0.1981  0.0402
  497BDT   BNZ3 2483   2.271   3.195   5.667  0.1270 -0.0055  0.0402
  497BDT    BS1 2484   2.446   3.133   5.604  0.1634  0.0466  0.0922
  497BDT    BS2 2485   2.109   3.253   5.764  0.0705 -0.0833 -0.0063
  498BDT   BNZ1 2486   2.857   3.262   0.482 -0.2278 -0.0608 -0.0128
  498BDT   BNZ2 2487   2.787   3.252   0.313  0.1810  0.2536 -0.2086
  498BDT   BNZ3 2488   2.634   3.378   0.469 -0.1770  0.0045 -0.3531
  498BDT    BS1 2489   2.724   3.378   0.645 -0.6075 -0.3268 -0.1392
  498BDT    BS2 2490   2.574   3.358   0.282  0.2773  0.3491 -0.5420
  499BDT   BNZ1 2491   1.275   1.827   6.181  0.1512 -0.0790 -0.0558
  499BDT   BNZ2 2492   1.108   1.786   6.117  0.0930  0.0233  0.0294
  499BDT   BNZ3 2493   1.287   1.656   5.996 -0.0304  0.0868 -0.2234
  499BDT    BS1 2494   1.458   1.712   6.075  0.0424 -0.0307 -0.2976
  499BDT    BS2 2495   1.100   1.624   5.940 -0.0808  0.1885 -0.1134
  500BDT   BNZ1 2496   3.168   1.575   2.307  0.0162  0.0805 -0.1377
  500BDT   BNZ2 2497   3.111   1.401   2.319 -0.0454  0.1168  0.1421
  500BDT   BNZ3 2498   3.361   1.417   2.342 -0.0687  0.0909  0.4269
  500BDT    BS1 2499   3.405   1.609   2.327 -0.0011  0.0561  0.0938
  500BDT    BS2 2500   3.282   1.237   2.352 -0.1316  0.1387  0.6923
  501W        W 2501   6.605   1.458   5.219  0.2593  0.2765 -0.2217
  502W        W 2502   5.191   3.885   0.606  0.3728 -0.0105  0.1453
  503W        W 2503   7.287   6.526   3.610  0.1487  0.0422 -0.4417
  504W        W 2504   1.147   1.146   4.262  0.0035 -0.2801  0.0144
  505W        W 2505   3.016   6.075   0.188 -0.0416 -0.1363  0.2651
  506W        W 2506   2.584   0.106   4.814 -0.0273  0.2853 -0.2122
  507W        W 2507   3.344   4.095   3.818 -0.1249 -0.0674  0.0696
  508W        W 2508   1.160   4.031   4.720  0.1068  0.0997 -0.2103
  509W        W 2509   1.164   6.693   5.489 -0.0107  0.1517 -0.0303
  510W        W 2510   1.405   2.302   2.705  0.1564  0.0101 -0.0048
  511W        W 2511   0.713   0.298   3.249  0.0864  0.1118  0.0576
  512W        W 2512   6.390   4.615   0.646 -0.1510  0.0218 -0.0382
  513W        W 2513   0.041   0.157   3.303 -0.2139 -0.0866 -0.1162
  514W        W 2514   3.510   2.425   3.594  0.2359  0.0769  0.1818
  515W        W 2515   4.631   6.917   4.348 -0.3074  0.0895  0.1575
  516W        W 2516   2.056   2.157   3.880  0.4894  0.1893  0.4650
  517W        W 2517   7.122   2.219   6.250  0.0843  0.1338  0.3730
  518W        W 2518   6.731   4.762   4.560  0.0987 -0.1373  0.2932
  519W        W 2519   1.031   1.180   2.756  0.0551  0.2343  0.2062
  520W        W 2520   0.923   6.159   1.212 -0.2288  0.1005  0.3010
  521W        W 2521   0.502   3.460   1.045  0.3236 -0.1055  0.0438
  522W        W 2522   1.465   5.367   4.707  0.0943 -0.3356 -0.0612
  523W        W 2523   3.482   1.418   4.569 -0.1067 -0.1914 -0.1184
  524W        W 2524   0.401   0.045   6.515 -0.2251 -0.0985  0.2158
  525W        W 2525   0.667   2.335   4.352 -0.0749 -0.1621 -0.0448
  526W        W 2526   6.810   0.592   1.035  0.3890 -0.0419 -0.0854
  527W        W 2527   4.805   5.260   2.801  0.1792  0.0456  0.2109
  528W        W 2528   2.041   1.137   3.774 -0.1890  0.1297 -0.1248
  529W        W 2529   2.961   6.214   2.157 -0.2106  0.2551  0.0131
  530W        W 2530   2.173   5.301   6.181 -0.3230  0.1750 -0.1186
  531W        W 2531   6.681   1.070   2.969 -0.0305 -0.0028 -0.1102
  532W        W 2532   6.086   5.419   2.269 -0.0216 -0.4445 -0.2672
  533W        W 2533   7.062   1.586   5.106  0.0946  0.1486 -0.1657
  534W        W 2534   5.840   1.905   5.676  0.0107  0.1446 -0.0572
  535W        W 2535   5.861   4.154   3.618  0.3057 -0.3551  0.0442
  536W        W 2536   0.899   6.201   3.394 -0.2936  0.0275 -0.0419
  537W        W 2537   5.522   0.179   3.257  0.4187  0.0357  0.1339
  538W        W 2538   4.947   5.929   1.383 -0.0129  0.1280  0.1276
  539W        W 2539   1.146   3.539   4.863 -0.1511 -0.0925  0.2586
  540W        W 2540   0.364   1.119   5.590  0.0449  0.1571 -0.2015
  541W        W 2541   3.638   1.772   4.923 -0.1865 -0.2183 -0.0479
  542W        W 2542   6.186   2.861   5.439  0.1211  0.0842 -0.1129
  543W        W 2543   6.614   1.071   3.983 -0.4628 -0.0268 -0.2780
  544W        W 2544   6.892   2.077   1.765 -0.2571 -0.0094 -0.2523
  545W        W 2545   6.054   2.390   3.137 -0.0328  0.3806 -0.0696
  546W        W 2546   6.467   1.860   2.710  0.0649 -0.1461  0.0713
  547W        W 2547   2.783   4.538   1.336  0.0240  0.3526 -0.1285
  548W        W 2548   0.494   3.589   0.318  0.1092  0.0599 -0.1777
  549W        W 2549   6.198   1.281   1.201  0.1464  0.1840 -0.0977
  550W        W 2550   2.740   0.790   4.099 -0.1223 -0.0157 -0.1896
  551W        W 2551   0.317   0.354   0.053 -0.2598  0.0402  0.2201
  552W        W 2552   3.771   6.762   2.680  0.0057  0.2692  0.0044
  553W        W 2553   2.835   4.947   4.364 -0.2057 -0.0053  0.2102
  554W        W 2554   0.164   5.175   1.058 -0.4250  0.2812  0.0949
  555W        W 2555   3.619   3.498   3.364  0.2679 -0.1392 -0.1591
  556W        W 2556   3.912   5.668   2.390 -0.0624 -0.0900  0.0532
  557W        W 2557   0.677   2.223   0.186  0.3388 -0.0068 -0.1503
  558W        W 2558   1.222   6.722   1.879 -0.2686  0.2482  0.0531
  559W        W 2559   0.982   1.589   2.333  0.2269 -0.1271  0.0498
  560W        W 2560   3.165   6.374   3.895 -0.0637  0.0820 -0.3625
  561W        W 2561   0.364   6.797   6.845 -0.0016 -0.0898  0.1610
  562W        W 2562   3.833   3.495   2.617 -0.2461  0.1244  0.4088
  563W        W 2563   5.128   2.817   3.035 -0.2154  0.1102  0.0233
  564W        W 2564   5.507   6.928   6.683  0.1092  0.1938  0.3258
  565W        W 2565   0.465   4.729   0.953 -0.0539 -0.1155  0.0640
  566W        W 2566   0.724   2.751   0.326  0.0113  0.0628 -0.0107
  567W        W 2567   3.010   0.785   3.654  0.0827  0.0612  0.1392
  568W        W 2568   7.226   4.235   6.684 -0.1354 -0.0728  0.1117
  569W        W 2569   1.042   0.882   1.721  0.0236 -0.0385  0.1473
  570W        W 2570   3.900   3.099   4.291 -0.1636  0.2829 -0.1778
  571W        W 2571   0.154   5.499   6.725 -0.1019 -0.1331  0.3269
  572W        W 2572   3.582   5.973   3.661  0.0028  0.1030  0.2722
  573W        W 2573   4.882   5.481   6.269 -0.0847  0.0567 -0.2418
  574W        W 2574   6.540   0.845   1.416  0.2040  0.3780 -0.1485
  575W        W 2575   5.711   1.375   4.611 -0.4486  0.0481  0.0088
  576W        W 2576   4.479   2.267   3.523  0.0445  0.1067 -0.1116
  577W        W 2577   5.821   4.891   6.334 -0.0077 -0.0109  0.1423
  578W        W 2578   0.378   3.102   0.205  0.1789  0.0744 -0.0076
  579W        W 2579   6.168   4.970   4.684  0.4039  0.1944  0.2745
  580W        W 2580   3.011   6.481   7.168  0.0874 -0.3431 -0.1510
  581W        W 2581   1.347   4.487   4.614 -0.3224  0.2843 -0.1903
  582W        W 2582   6.912   1.396   3.210  0.0609  0.1165 -0.1921
  583W        W 2583   7.202   3.759   5.932  0.2124  0.5555  0.0996
  584W        W 2584   1.415   5.748   5.806  0.1134 -0.1537 -0.2893
  585W        W 2585   5.848   6.252   4.518 -0.0230  0.2389  0.2485
  586W        W 2586   6.796   0.376   0.210 -0.0591  0.0116 -0.0155
  587W        W 2587   1.745   4.571   4.317  0.0865  0.0483  0.4453
  588W        W 2588   0.173   4.002   3.591 -0.2515 -0.1477 -0.3686
  589W        W 2589   1.906   3.926   3.791  0.0714  0.2384 -0.0958
  590W        W 2590   0.864   3.223   3.653  0.5167 -0.0264  0.0551
  591W        W 2591   3.948   5.544   4.498  0.0180  0.1693  0.0085
  592W        W 2592   0.424   6.133   3.748  0.0085  0.1519 -0.0739
  593W        W 2593   1.428   1.928   2.356 -0.0663 -0.1123  0.2653
  594W        W 2594   3.309   2.328   2.682  0.5180 -0.3992 -0.0711
  595W        W 2595   4.488   6.321   3.714  0.0010  0.1782 -0.1740
  596W        W 2596   0.929   3.678   5.616 -0.0984 -0.0303  0.3333
  597W        W 2597   7.088   4.473   7.087 -0.0577  0.2200  0.2290
  598W        W 2598   1.521   4.376   0.123 -0.0336  0.1883 -0.0852
  599W        W 2599   3.196   4.589   1.685  0.1336  0.0588 -0.0339
  600W        W 2600   6.942   0.632   6.781 -0.0119  0.2987 -0.0849
  601W        W 2601   0.250   3.132   3.495  0.1357 -0.0453 -0.3009
  602W        W 2602   2.529   5.775   4.696  0.1450  0.0350 -0.1311
  603W        W 2603   2.751   4.478   4.511  0.2090 -0.0460  0.1166
  604W        W 2604   6.605   0.925   0.677 -0.0199  0.0584  0.2086
  605W        W 2605   5.843   6.473   1.530 -0.2593 -0.3128  0.3229
  606W        W 2606   0.828   6.404   3.868 -0.3665 -0.0284  0.1883
  607W        W 2607   0.498   6.556   5.416  0.1266  0.2551  0.1731
  608W        W 2608   5.894   6.156   3.385  0.0503  0.2852  0.1402
  609W        W 2609   4.739   3.461   2.037 -0.1531  0.1452 -0.1855
  610W        W 2610   2.174   6.494   3.979  0.0912  0.1616  0.1467
  611W        W 2611   4.899   6.261   6.164 -0.0053  0.0819  0.1895
  612W        W 2612   4.554   4.233   4.264  0.0604  0.0349  0.1809
  613W        W 2613   1.568   1.917   3.776  0.1010  0.2665  0.2166
  614W        W 2614   2.203   6.392   0.824  0.1091 -0.0409 -0.1434
  615W        W 2615   0.209   0.332   1.555 -0.0847  0.0581  0.1090
  616W        W 2616   0.102   4.361   3.964  0.0844  0.2154  0.2255
  617W        W 2617   2.945   3.482   4.093 -0.0770 -0.1122  0.2661
  618W        W 2618   6.570   6.857   0.586 -0.1280  0.3133  0.1328
  619W        W 2619   0.708   3.898   3.612  0.0482 -0.1383 -0.1247
  620W        W 2620   0.545   3.230   2.003  0.2261 -0.0035  0.0261
  621W        W 2621   6.215   0.656   1.867  0.1524  0.1462 -0.1439
  622W        W 2622   3.322   4.497   3.450 -0.3403 -0.1225 -0.0400
  623W        W 2623   6.616   1.586   5.756  0.1274 -0.4780 -0.0812
  624W        W 2624   6.766   4.400   0.187 -0.0055  0.1713 -0.2096
  625W        W 2625   2.707   4.967   4.970 -0.1031 -0.4285  0.0806
  626W        W 2626   6.738   4.365   5.266  0.0319  0.0797 -0.1603
  627W        W 2627   6.445   1.219   3.443  0.1821 -0.0292 -0.0372
  628W        W 2628   6.641   0.571   4.330  0.0518  0.2954 -0.1415
  629W        W 2629   0.042   1.571   3.808  0.0830 -0.1857 -0.0749
  630W        W 2630   2.921   5.426   6.634 -0.0693  0.0507  0.0595
  631W        W 2631   1.964   2.636   2.286 -0.1810 -0.1005  0.1268
  632W        W 2632   2.211   4.617   2.101 -0.1533  0.2128  0.0323
  633W        W 2633   7.280   6.627   2.104  0.0612  0.0451 -0.0999
  634W        W 2634   7.275   6.939   3.214  0.1113  0.3694  0.1117
  635W        W 2635   0.581   6.514   0.297  0.1087  0.3277  0.0428
  636W        W 2636   7.196   6.443   3.094 -0.4853 -0.0619  0.1876
  637W        W 2637   6.394   3.787   7.059 -0.2835  0.1767  0.0684
  638W        W 2638   0.652   4.308   4.311  0.0819 -0.1152 -0.3586
  639W        W 2639   0.141   5.158   7.157 -0.0817 -0.0970  0.3077
  640W        W 2640   0.230   2.471   2.530 -0.1610  0.2866  0.1226
  641W        W 2641   2.307   5.791   6.019 -0.2784 -0.2269 -0.0064
  642W        W 2642   1.803   3.576   5.255  0.0712 -0.1094  0.1740
  643W        W 2643   3.246   7.137   2.075 -0.0747 -0.1378 -0.1774
  644W        W 2644   7.156   0.593   2.977 -0.0607 -0.0032 -0.3131
  645W        W 2645   0.721   0.671   0.277  0.1700  0.1481  0.1864
  646W        W 2646   7.041   6.437   5.656  0.1317 -0.2161  0.2663
  647W        W 2647   0.473   2.399   2.998 -0.4309 -0.2499  0.2595
  648W        W 2648   5.062   0.901   1.797  0.3791  0.2224  0.0062
  649W        W 2649   5.234   3.506   4.883  0.0164 -0.1252  0.1527
  650W        W 2650   1.817   5.024   4.622 -0.1999 -0.0729 -0.1267
  651W        W 2651   0.486   1.168   2.898  0.1748 -0.1844 -0.2328
  652W        W 2652   4.289   1.810   3.882 -0.1588  0.2522 -0.0853
  653W        W 2653   6.040   5.515   2.859 -0.3854  0.0310  0.1024
  654W        W 2654   4.259   2.594   2.647  0.2276 -0.0780 -0.0067
  655W        W 2655   4.432   3.564   2.557 -0.0595  0.2763 -0.0263
  656W        W 2656   5.708   5.358   3.895 -0.0250 -0.0968  0.2724
  657W        W 2657   0.836   6.962   0.071  0.1062 -0.1556  0.0560
  658W        W 2658   4.447   5.602   4.521 -0.0558  0.0990 -0.0621
  659W        W 2659   0.417   7.059   1.275 -0.0031  0.0701  0.1933
  660W        W 2660   6.700   5.784   2.950 -0.1139  0.2961  0.1939
  661W        W 2661   7.148   1.307   5.597  0.0731  0.1235  0.1025
  662W        W 2662   5.500   1.596   3.185 -0.0591  0.2459 -0.1132
  663W        W 2663   6.487   5.915   0.716  0.1757  0.0920  0.5942
  664W        W 2664   2.220   3.524   2.307 -0.0509  0.0216 -0.2780
  665W        W 2665   0.085   5.628   0.723 -0.0986 -0.0446 -0.1329
  666W        W 2666   1.752   6.796   5.267 -0.5239  0.1161 -0.1218
  667W        W 2667   5.370   5.250   6.656  0.0554  0.0036  0.1605
  668W        W 2668   4.092   0.426   3.676 -0.2072  0.0832  0.1520
  669W        W 2669   0.413   1.344   0.181 -0.0543 -0.0744  0.1279
  670W        W 2670   4.023   5.808   1.046  0.2193 -0.0507 -0.0624
  671W        W 2671   0.705   1.899   1.863  0.2210  0.0435 -0.0843
  672W        W 2672   1.181   4.476   5.802 -0.1480  0.3516 -0.2577
  673W        W 2673   6.034   5.268   6.692 -0.0969  0.1751  0.2675
  674W        W 2674   0.734   4.864   3.740  0.1717  0.1471  0.2263
  675W        W 2675   6.605   2.513   1.899  0.1406 -0.0291  0.4403
  676W        W 2676   7.130   7.191   6.035 -0.0193 -0.1360 -0.0247
  677W        W 2677   6.278   3.112   1.360 -0.0921  0.1816  0.1178
  678W        W 2678   0.428   4.532   2.849  0.1963 -0.1454 -0.0529
  679W        W 2679   1.120   2.684   2.477 -0.4098  0.1292 -0.2157
  680W        W 2680   7.135   3.474   2.817  0.0667  0.0627  0.1682
  681W        W 2681   3.345   5.230   6.827 -0.0337  0.0201  0.1733
  682W        W 2682   0.359   0.080   1.994 -0.1538 -0.0252  0.1784
  683W        W 2683   0.959   2.615   2.918  0.1207 -0.0883  0.1329
  684W        W 2684   2.453   6.058   5.628 -0.0269  0.0811 -0.0651
  685W        W 2685   4.969   4.376   6.341  0.1249 -0.0112  0.1359
  686W        W 2686   0.407   4.486   3.479 -0.1565 -0.3239 -0.2100
  687W        W 2687   5.370   3.617   2.904 -0.1358 -0.2008 -0.1405
  688W        W 2688   6.277   6.466   4.850  0.0862  0.1851 -0.1378
  689W        W 2689   0.696   3.481   2.962 -0.1377  0.0862  0.5320
  690W        W 2690   1.235   6.596   0.915  0.2217  0.0536 -0.0348
  691W        W 2691   6.067   3.244   3.322 -0.0952 -0.0416 -0.1088
  692W        W 2692   5.338   0.650   2.239 -0.2853  0.2320 -0.0072
  693W        W 2693   3.255   2.333   4.458  0.0554 -0.1930  0.0917
  694W        W 2694   3.305   5.790   3.112  0.0439  0.0982  0.0093
  695W        W 2695   2.141   3.279   1.696  0.0790 -0.0754  0.0508
  696W        W 2696   6.177   4.182   0.697  0.0391 -0.0830 -0.0246
  697W        W 2697   1.591   6.516   7.221  0.1551 -0.1429 -0.2988
  698W        W 2698   7.164   0.980   6.388  0.0713  0.2423  0.1830
  699W        W 2699   4.680   5.956   5.398  0.1059 -0.2249 -0.2630
  700W        W 2700   4.512   6.422   1.077 -0.2543 -0.3318  0.2941
  701W        W 2701   4.684   0.647   4.599  0.2180 -0.0155  0.1058
  702W        W 2702   2.876   1.147   4.504  0.0743  0.0706 -0.1801
  703W        W 2703   0.838   5.662   0.087 -0.1214  0.2863  0.2689
  704W        W 2704   0.255   0.322   2.846  0.1470  0.2799  0.2109
  705W        W 2705   2.371   3.964   5.992  0.1321  0.1468  0.2701
  706W        W 2706   6.964   3.814   0.967  0.0101  0.3279  0.3021
  707W        W 2707   7.136   6.582   0.762  0.1592  0.2864  0.0062
  708W        W 2708   4.098   5.003   2.843 -0.1450 -0.2020  0.2458
  709W        W 2709   1.500   2.379   2.165  0.0889 -0.1452  0.2428
  710W        W 2710   0.581   1.782   0.025 -0.0718  0.1979  0.1043
  711W        W 2711   2.446   6.091   3.209  0.3697 -0.0020 -0.1974
  712W        W 2712   5.179   0.994   5.352  0.1906 -0.1181 -0.2187
  713W        W 2713   0.387   4.941   5.386  0.0180  0.0255  0.2044
  714W        W 2714   2.411   3.140   3.153 -0.2767 -0.0415 -0.0833
  715W        W 2715   6.637   4.966   1.644  0.2314  0.0305  0.2037
  716W        W 2716   3.911   6.062   7.095  0.0272  0.3014 -0.3448
  717W        W 2717   3.972   2.886   4.867 -0.2923 -0.0083 -0.0053
  718W        W 2718   7.068   7.128   4.171  0.1057 -0.1694 -0.1489
  719W        W 2719   1.841   1.518   3.309  0.1836  0.1400  0.0603
  720W        W 2720   0.183   0.761   5.382  0.1266  0.1496  0.0459
  721W        W 2721   6.116   2.938   2.312  0.0927 -0.1103 -0.3441
  722W        W 2722   4.328   6.881   1.960  0.1446 -0.2968 -0.4457
  723W        W 2723   1.537   7.242   3.605  0.0424  0.3000  0.2532
  724W        W 2724   4.116   4.965   7.276 -0.3096 -0.3057 -0.1406
  725W        W 2725   5.980   6.773   4.655 -0.1150  0.1320  0.0021
  726W        W 2726   1.974   2.836   3.033 -0.0503  0.0983 -0.0677
  727W        W 2727   1.119   6.416   0.072 -0.0112 -0.2495  0.0993
  728W        W 2728   5.692   4.863   4.515  0.2587 -0.0878  0.0486
  729W        W 2729   6.137   0.273   5.727  0.2756  0.0813  0.0081
  730W        W 2730   5.684   6.955   1.558 -0.2890 -0.2834 -0.1253
  731W        W 2731   1.082   7.190   5.979 -0.2972  0.2639  0.1656
  732W        W 2732   2.998   4.585   0.111 -0.3249  0.3632  0.2391
  733W        W 2733   4.740   4.813   0.599  0.2601 -0.1051 -0.0394
  734W        W 2734   0.976   1.857   3.183  0.0817 -0.1467 -0.0020
  735W        W 2735   5.695   4.909   6.864  0.0741 -0.0056 -0.1474
  736W        W 2736   6.409   6.672   0.064 -0.0947 -0.1715 -0.0596
  737W        W 2737   0.042   1.578   3.013  0.3524  0.1276  0.0315
  738W        W 2738   5.951   3.422   1.131  0.2252  0.4370 -0.0440
  739W        W 2739   3.366   4.196   0.824  0.0060 -0.0221  0.1525
  740W        W 2740   1.953   4.697   0.893  0.0600 -0.2436 -0.0995
  741W        W 2741   2.399   4.258   3.643  0.1362  0.2569  0.0665
  742W        W 2742   4.848   5.083   5.321 -0.1782  0.1026 -0.0218
  743W        W 2743   5.580   0.974   4.342 -0.2319  0.2660 -0.1478
  744W        W 2744   4.651   1.892   3.135 -0.1067  0.0475  0.1334
  745W        W 2745   5.676   1.567   5.344 -0.0616  0.0173  0.2585
  746W        W 2746   2.740   2.600   4.562 -0.0367  0.1035  0.2050
  747W        W 2747   4.698   4.495   5.329 -0.2923 -0.1299 -0.2522
  748W        W 2748   4.360   5.405   4.120  0.1085  0.0746 -0.1175
  749W        W 2749   6.029   7.284   0.072  0.1964 -0.0568  0.0402
  750W        W 2750   7.239   1.448   6.613  0.0340 -0.0760 -0.1479
  751W        W 2751   2.343   6.597   5.133 -0.0587  0.0092  0.0582
  752W        W 2752   0.417   6.721   0.748  0.0067  0.2932  0.1219
  753W        W 2753   4.430   6.372   5.185 -0.0384 -0.1740  0.0065
  754W        W 2754   6.857   0.514   6.214 -0.0763  0.1506 -0.4923
  755W        W 2755   7.002   3.966   4.213  0.1301 -0.2042  0.0201
  756W        W 2756   6.299   3.488   3.952  0.1466  0.1895 -0.0727
  757W        W 2757   4.473   6.417   2.163  0.1631  0.0264  0.1322
  758W        W 2758   2.186   6.954   4.833 -0.1268 -0.2792 -0.0859
  759W        W 2759   0.321   7.024   5.387  0.0845  0.1683 -0.0993
  760W        W 2760   1.664   4.199   6.446  0.2076  0.0913 -0.2329
  761W        W 2761   2.271   6.822   2.437  0.0532 -0.1996  0.3128
  762W        W 2762   5.133   3.543   3.843  0.0464 -0.1100 -0.2984
  763W        W 2763   4.966   6.235   6.959  0.2545 -0.0414 -0.2225
  764W        W 2764   4.026   2.823   2.283 -0.1023  0.0215  0.2015
  765W        W 2765   1.149   4.402   0.609  0.1913  0.3736 -0.1492
  766W        W 2766   2.554   6.069   5.080 -0.0671 -0.0563 -0.0630
  767W        W 2767   6.813   2.967   5.451 -0.2355  0.1057 -0.1778
  768W        W 2768   4.235   4.910   2.076  0.1199 -0.2173 -0.0426
  769W        W 2769   6.101   4.479   3.286  0.2361 -0.1521 -0.2809
  770W        W 2770   3.883   1.152   4.607 -0.4079  0.2009 -0.1351
  771W        W 2771   2.319   6.653   6.382 -0.0418  0.3033 -0.3159
  772W        W 2772   6.407   2.987   1.822  0.1742 -0.3019  0.2085
  773W        W 2773   0.040   2.158   2.166 -0.0829 -0.1542  0.2608
  774W        W 2774   6.952   0.654   2.225  0.1193  0.0210  0.0675
  775W        W 2775   1.383   5.547   0.569  0.0120  0.0708 -0.0954
  776W        W 2776   5.374   4.417   0.281 -0.1417 -0.0385 -0.1395
  777W        W 2777   2.874   4.480   6.260 -0.1441 -0.1371  0.1001
  778W        W 2778   5.988   5.508   0.872 -0.1455 -0.1051  0.0991
  779W        W 2779   4.969   5.953   3.880 -0.2712 -0.0408 -0.0195
  780W        W 2780   5.655   3.491   4.637  0.2110 -0.2020 -0.1879
  781W        W 2781   6.612   5.366   0.888 -0.1656 -0.2486  0.0915
  782W        W 2782   0.722   2.383   3.883  0.2552 -0.3762 -0.1494
  783W        W 2783   5.758   1.724   3.609 -0.0144  0.0713  0.1583
  784W        W 2784   3.064   2.607   3.632  0.0140 -0.0605  0.3070
  785W        W 2785   3.216   5.513   3.578 -0.0034 -0.2783  0.0365
  786W        W 2786   5.437   6.175   0.752  0.1016 -0.1065 -0.0662
  787W        W 2787   0.002   0.456   6.464 -0.0099 -0.1457  0.0099
  788W        W 2788   4.500   3.034   2.278  0.0118  0.2932 -0.0339
  789W        W 2789   4.728   1.765   3.608 -0.0968 -0.3518  0.0375
  790W        W 2790   1.006   2.726   3.672 -0.1933  0.1502  0.1036
  791W        W 2791   0.001   1.617   1.532 -0.0152 -0.0289  0.3140
  792W        W 2792   6.657   5.929   0.138 -0.2134  0.2322 -0.1053
  793W        W 2793   2.712   6.047   7.057 -0.0275 -0.0386 -0.1539
  794W        W 2794   4.061   3.376   4.719 -0.1352  0.0907  0.0541
  795W        W 2795   2.483   5.196   3.296 -0.2038 -0.0860  0.0434
  796W        W 2796   5.887   5.506   1.366  0.3014  0.2496  0.3009
  797W        W 2797   3.182   4.820   1.231 -0.1337  0.3632 -0.2562
  798W        W 2798   6.451   0.632   5.951 -0.1575 -0.0177 -0.0537
  799W        W 2799   6.493   0.833   2.384  0.0561  0.2159 -0.0190
  800W        W 2800   5.165   5.012   4.325 -0.2328  0.2321 -0.2457
  801W        W 2801   3.414   4.407   5.390  0.3168 -0.0092 -0.0202
  802W        W 2802   5.243   1.552   3.657  0.0193 -0.3800 -0.2288
  803W        W 2803   6.166   2.129   3.572  0.2097 -0.1433  0.0381
  804W        W 2804   0.741   4.938   1.295  0.0575  0.0476  0.2807
  805W        W 2805   5.140   6.145   5.616 -0.0058  0.1403 -0.0618
  806W        W 2806   1.401   1.515   2.060  0.1102  0.1205  0.0206
  807W        W 2807   0.149   4.364   0.674 -0.0925 -0.2454  0.2017
  808W        W 2808   5.306   1.127   3.376 -0.3990 -0.0888 -0.0401
  809W        W 2809   6.832   2.804   3.362  0.0667 -0.1810  0.2621
  810W        W 2810   2.844   2.649   2.419 -0.0220 -0.0638 -0.1045
  811W        W 2811   4.683   5.179   2.319  0.1339 -0.0726  0.2117
  812W        W 2812   0.726   2.883   3.283 -0.1701 -0.0835 -0.1059
  813W        W 2813   0.265   1.937   4.970  0.2229  0.0361  0.1018
  814W        W 2814   2.805   3.855   5.473 -0.1086  0.1189  0.1927
  815W        W 2815   2.963   3.016   3.998  0.1976  0.2318 -0.1715
  816W        W 2816   0.529   7.147   0.507 -0.1206  0.0058 -0.1725
  817W        W 2817   6.678   6.126   1.317 -0.0914 -0.1749 -0.1733
  818W        W 2818   4.542   4.778   2.989  0.2236  0.0377 -0.1056
  819W        W 2819   6.758   1.406   6.458  0.0833 -0.2301  0.2933
  820W        W 2820   0.604   7.089   2.948  0.0859  0.0728  0.0536
  821W        W 2821   6.662   3.899   5.014  0.1787 -0.1277 -0.3502
  822W        W 2822   5.618   0.760   4.883  0.0505 -0.0541  0.1121
  823W        W 2823   3.227   6.457   1.433 -0.1871  0.3871  0.1286
  824W        W 2824   6.033   6.596   5.559  0.1173  0.1813 -0.1008
  825W        W 2825   0.840   0.822   3.065  0.0862  0.0686 -0.1606
  826W        W 2826   7.108   6.651   4.180 -0.1295 -0.0018 -0.1435
  827W        W 2827   6.296   5.872   2.277  0.1192 -0.0615  0.2393
  828W        W 2828   5.899   5.711   4.175 -0.0095 -0.0834 -0.1871
  829W        W 2829   6.669   2.120   3.681 -0.1657  0.1015 -0.1192
  830W        W 2830   5.646   2.232   4.666 -0.1905 -0.0262 -0.3231
  831W        W 2831   6.310   5.506   3.872 -0.0572 -0.2525 -0.1144
  832W        W 2832   7.186   1.110   0.405  0.0445  0.0544 -0.0450
  833W        W 2833   5.975   0.121   2.609  0.0463  0.0785  0.0213
  834W        W 2834   3.252   6.162   2.587  0.2210  0.2099  0.2103
  835W        W 2835   1.150   3.281   5.799 -0.1462 -0.1189 -0.0399
  836W        W 2836   0.011   0.934   4.430  0.4415 -0.2517 -0.0758
  837W        W 2837   5.036   4.937   6.242 -0.0294  0.1208  0.0162
  838W        W 2838   4.613   5.442   3.694  0.1263 -0.2108 -0.0170
  839W        W 2839   3.369   2.607   4.052 -0.0783 -0.0160  0.2159
  840W        W 2840   2.099   3.534   6.035 -0.0511 -0.0148 -0.0317
  841W        W 2841   1.066   2.104   4.717 -0.0641  0.0659  0.0370
  842W        W 2842   6.854   5.253   3.735  0.1508 -0.1182  0.2021
  843W        W 2843   5.344   6.976   5.516  0.2385 -0.1445 -0.2600
  844W        W 2844   5.440   1.076   1.484  0.1077 -0.0993 -0.1327
  845W        W 2845   5.438   1.225   2.345 -0.3351  0.0557  0.2015
  846W        W 2846   0.070   6.765   1.169  0.3351 -0.4825 -0.3810
  847W        W 2847   7.074   2.322   4.273 -0.0794 -0.1146 -0.0914
  848W        W 2848   6.274   2.580   2.674 -0.1057  0.1564 -0.0494
  849W        W 2849   0.838   4.761   4.219  0.0837 -0.3590  0.2981
  850W        W 2850   4.495   6.251   4.380  0.1692  0.0660 -0.1286
  851W        W 2851   3.182   4.303   4.926 -0.2245 -0.1028  0.0937
  852W        W 2852   6.753   0.065   6.538 -0.2433 -0.0319 -0.2518
  853W        W 2853   3.404   6.545   2.325  0.0474  0.1628  0.2652
  854W        W 2854   5.806   3.816   1.604 -0.2851 -0.0742 -0.0986
  855W        W 2855   1.273   0.729   2.792 -0.0084  0.4393 -0.1330
  856W        W 2856   7.150   0.986   0.904  0.2588 -0.1134  0.0768
  857W        W 2857   5.164   5.573   3.612 -0.1807  0.1717  0.1034
  858W        W 2858   6.533   1.732   0.882 -0.0569 -0.3565  0.0493
  859W        W 2859   6.992   6.926   4.667 -0.2197 -0.0265  0.2448
  860W        W 2860   5.388   5.705   1.607 -0.2844 -0.1796 -0.1879
  861W        W 2861   0.572   2.791   2.209  0.2622 -0.0809  0.0491
  862W        W 2862   5.431   5.944   7.149  0.0748 -0.0508 -0.3815
  863W        W 2863   6.134   2.376   1.837 -0.0718 -0.1510 -0.0727
  864W        W 2864   6.494   1.801   1.854  0.0824 -0.1748 -0.0105
  865W        W 2865   1.315   4.287   3.175  0.0853  0.2005 -0.1391
  866W        W 2866   7.049   0.720   0.014 -0.1650  0.1022  0.0123
  867W        W 2867   3.220   6.381   5.890  0.1698  0.1340 -0.0567
  868W        W 2868   5.597   6.687   1.150  0.1256 -0.0317 -0.0928
  869W        W 2869   0.473   5.235   1.611 -0.3468  0.0675  0.0170
  870W        W 2870   0.425   0.187   4.310 -0.0636  0.1126  0.0682
  871W        W 2871   4.169   1.309   4.232 -0.1536  0.0268 -0.2892
  872W        W 2872   5.650   4.344   5.246  0.1472 -0.0361 -0.0526
  873W        W 2873   7.006   5.705   2.037  0.3622  0.1635 -0.2456
  874W        W 2874   5.097   6.849   1.584 -0.0714  0.1831  0.1891
  875W        W 2875   5.534   5.353   4.419  0.0205 -0.1242 -0.1520
  876W        W 2876   0.771   4.175   5.833 -0.3171 -0.2245  0.2395
  877W        W 2877   2.098   7.208   4.276  0.0149  0.0754  0.1542
  878W        W 2878   1.637   5.291   1.005  0.2443 -0.0592 -0.1383
  879W        W 2879   0.811   6.314   5.702  0.1780  0.1542 -0.0426
  880W        W 2880   7.229   3.754   6.492 -0.2211 -0.3022 -0.0432
  881W        W 2881   3.377   4.629   2.585 -0.2604 -0.2495  0.0731
  882W        W 2882   3.362   6.323   5.287 -0.0341  0.2806 -0.1673
  883W        W 2883   0.905   6.293   1.698 -0.1544 -0.2828 -0.0543
  884W        W 2884   0.461   3.499   1.556 -0.4781 -0.1193  0.1625
  885W        W 2885   4.928   0.764   3.514  0.1382  0.1113 -0.0868
  886W        W 2886   0.148   0.798   6.809  0.1730 -0.1712 -0.0724
  887W        W 2887   5.066   3.579   0.995 -0.1193  0.0318  0.3297
  888W        W 2888   6.989   2.629   6.019 -0.0509 -0.0123 -0.0886
  889W        W 2889   4.026   5.673   6.369  0.2558  0.0514  0.0423
  890W        W 2890   7.118   0.072   7.283 -0.2132  0.1581  0.2176
  891W        W 2891   3.271   2.826   2.691 -0.1518 -0.1539 -0.0510
  892W        W 2892   2.000   6.119   1.212 -0.2285  0.1237 -0.0139
  893W        W 2893   2.332   5.181   4.655 -0.2339 -0.1465 -0.0271
  894W        W 2894   2.202   5.380   3.891  0.2269  0.4430 -0.1262
  895W        W 2895   2.992   4.922   6.970  0.1919  0.0473 -0.0909
  896W        W 2896   0.473   0.635   6.377 -0.1909  0.0805  0.3596
  897W        W 2897   5.451   4.686   1.700 -0.2403  0.0205 -0.2504
  898W        W 2898   0.076   5.099   6.288 -0.0140  0.0164  0.0679
  899W        W 2899   6.461   2.409   4.111  0.0036 -0.1337 -0.2578
  900W        W 2900   0.267   4.721   0.087 -0.0628  0.0272 -0.0688
  901W        W 2901   1.845   1.702   2.132  0.0094 -0.1867 -0.1180
  902W        W 2902   6.164   4.291   1.505  0.1940  0.0611 -0.1816
  903W        W 2903   3.953   5.107   3.456  0.1820  0.2793 -0.1263
  904W        W 2904   3.435   5.032   4.222  0.1680 -0.0673 -0.0310
  905W        W 2905   1.514   2.588   5.020  0.2054  0.0251  0.3508
  906W        W 2906   2.812   0.585   4.560  0.0027  0.0706  0.1184
  907W        W 2907   1.191   0.461   4.968 -0.2069 -0.1011 -0.1593
  908W        W 2908   3.841   4.533   0.084  0.1759 -0.0596 -0.0352
  909W        W 2909   2.565   2.872   3.608 -0.2244  0.1285  0.1490
  910W        W 2910   6.391   4.311   2.820 -0.0849 -0.0174  0.0845
  911W        W 2911   4.780   4.570   2.088  0.0775 -0.0668  0.0129
  912W        W 2912   6.503   0.490   6.563 -0.0394  0.0555 -0.0816
  913W        W 2913   4.978   5.508   1.109 -0.0208 -0.3198 -0.0444
  914W        W 2914   4.872   5.400   4.126 -0.0379  0.3044 -0.2212
  915W        W 2915   3.669   1.164   2.556  0.3474 -0.0577 -0.0119
  916W        W 2916   6.089   4.390   6.187 -0.3737 -0.0752 -0.0094
  917W        W 2917   0.006   3.202   1.653  0.1892 -0.1218 -0.1692
  918W        W 2918   3.771   5.338   2.878  0.1987  0.1942 -0.0956
  919W        W 2919   6.350   4.649   1.830  0.0937 -0.0846 -0.1954
  920W        W 2920   5.964   5.165   7.204 -0.0637 -0.1286  0.1843
  921W        W 2921   3.040   3.137   2.369 -0.1354 -0.0083 -0.0516
  922W        W 2922   6.736   1.466   3.762 -0.1495 -0.2139  0.0609
  923W        W 2923   6.770   0.099   3.847 -0.1816  0.1397 -0.0477
  924W        W 2924   2.122   6.283   5.996 -0.0810  0.0979 -0.1266
  925W        W 2925   2.674   4.420   0.519  0.1479  0.0207  0.3249
  926W        W 2926   6.359   4.374   4.629 -0.3016 -0.3441  0.1189
  927W        W 2927   0.361   3.875   0.804  0.2066  0.2567 -0.1111
  928W        W 2928   4.734   5.494   4.973  0.1049 -0.3862 -0.0486
  929W        W 2929   4.225   3.613   3.470 -0.0750 -0.3466 -0.2692
  930W        W 2930   4.825   4.146   5.903 -0.0998 -0.0693  0.0261
  931W        W 2931   0.129   0.373   5.948 -0.2808 -0.0020  0.0372
  932W        W 2932   4.270   3.088   3.554 -0.1528 -0.0595 -0.1580
  933W        W 2933   1.845   6.669   4.346 -0.3715  0.0336 -0.2032
  934W        W 2934   4.107   2.804   3.095  0.1512 -0.0889  0.2365
  935W        W 2935   1.653   6.807   1.236  0.0561 -0.2856  0.1797
  936W        W 2936   0.441   2.333   1.506  0.0027 -0.2572  0.1733
  937W        W 2937   0.783   6.650   1.145 -0.1324 -0.0267  0.0578
  938W        W 2938   1.662   4.195   2.365  0.3462  0.0297 -0.2051
  939W        W 2939   1.853   0.070   2.312  0.3954 -0.1272  0.1452
  940W        W 2940   6.933   5.121   6.918 -0.3128  0.2234 -0.0340
  941W        W 2941   5.618   3.060   7.284  0.1241  0.1356  0.1912
  942W        W 2942   6.052   2.590   4.441 -0.2580  0.2407  0.1500
  943W        W 2943   2.068   3.251   4.471  0.1034 -0.0936 -0.1258
  944W        W 2944   3.217   3.901   2.492  0.0213 -0.1646  0.0333
  945W        W 2945   0.449   6.965   3.375 -0.1237 -0.2254  0.0922
  946W        W 2946   3.599   7.139   2.416  0.0073  0.0239 -0.0382
  947W        W 2947   5.314   2.556   3.864  0.0554 -0.1518 -0.0037
  948W        W 2948   2.933   5.985   5.393 -0.2849 -0.3308 -0.1299
  949W        W 2949   5.995   4.588   2.774 -0.0986  0.2781 -0.2114
  950W        W 2950   6.072   1.834   3.168 -0.0206  0.5263  0.1678
  951W        W 2951   3.638   6.596   5.630 -0.0420  0.2878  0.1322
  952W        W 2952   0.606   5.599   4.456  0.0174 -0.0328  0.0510
  953W        W 2953   6.309   3.864   6.419 -0.0402 -0.6047  0.2714
  954W        W 2954   0.745   0.943   6.049  0.0699  0.0828 -0.0212
  955W        W 2955   6.202   0.533   2.725 -0.0499  0.0635 -0.0958
  956W        W 2956   5.861   2.691   6.880 -0.3272  0.0128 -0.0281
  957W        W 2957   1.274   6.071   7.058  0.0952 -0.0918 -0.1331
  958W        W 2958   3.667   0.811   4.355  0.1266  0.0777 -0.0203
  959W        W 2959   1.585   6.135   6.091 -0.0542  0.0754 -0.0164
  960W        W 2960   2.573   5.564   6.955 -0.4076  0.2519 -0.0118
  961W        W 2961   6.870   2.376   6.945 -0.1434 -0.0139  0.0784
  962W        W 2962   2.593   5.136   3.849  0.1901  0.1621 -0.0158
  963W        W 2963   3.795   6.273   2.581  0.2089 -0.1559  0.3443
  964W        W 2964   1.236   4.854   6.112  0.2211 -0.4963 -0.4568
  965W        W 2965   4.986   6.718   3.016 -0.0158  0.1695 -0.0917
  966W        W 2966   0.316   6.887   6.346  0.0359 -0.1911 -0.1119
  967W        W 2967   1.273   5.743   1.495  0.0308 -0.1005  0.0852
  968W        W 2968   2.891   6.124   3.028  0.0663 -0.2502  0.0642
  969W        W 2969   6.156   4.623   5.132 -0.0061 -0.1548 -0.2309
  970W        W 2970   4.997   4.584   4.410  0.3240 -0.0848 -0.2548
  971W        W 2971   0.546   5.773   3.292 -0.0584 -0.2198 -0.0268
  972W        W 2972   5.491   4.266   0.818  0.1767  0.2529 -0.1215
  973W        W 2973   0.183   4.057   5.143  0.1187 -0.0071  0.1829
  974W        W 2974   2.370   4.124   5.424  0.0358 -0.1356  0.0039
  975W        W 2975   6.340   5.772   1.325 -0.3274  0.0970  0.2227
  976W        W 2976   2.126   5.587   7.105  0.0485 -0.0181 -0.1553
  977W        W 2977   0.870   4.987   5.221  0.1514  0.3481  0.0945
  978W        W 2978   1.251   5.889   4.006  0.1525 -0.0725  0.3212
  979W        W 2979   6.721   0.218   7.012 -0.0666 -0.0849 -0.1787
  980W        W 2980   6.322   5.240   1.288 -0.2312  0.1979  0.1341
  981W        W 2981   0.490   1.935   3.448  0.0583  0.3005 -0.1433
  982W        W 2982   5.689   6.741   5.192  0.1430 -0.3214  0.1044
  983W        W 2983   1.356   4.056   2.783 -0.2439  0.0474 -0.3232
  984W        W 2984   6.651   6.392   4.290 -0.1910 -0.3620  0.0467
  985W        W 2985   3.892   6.784   3.915  0.0300  0.0968 -0.0088
  986W        W 2986   5.018   6.299   1.687 -0.0317 -0.1571 -0.0388
  987W        W 2987   3.272   5.897   4.139 -0.1515 -0.0759 -0.3712
  988W        W 2988   2.452   5.289   1.556  0.2872  0.0775 -0.0133
  989W        W 2989   2.240   6.804   1.157  0.0720  0.1930  0.2596
  990W        W 2990   2.683   5.063   5.439 -0.2049 -0.1964  0.4296
  991W        W 2991   2.045   3.712   0.797 -0.2413  0.0549 -0.2402
  992W        W 2992   0.108   2.078   3.140  0.1274  0.0312 -0.4398
  993W        W 2993   5.734   3.446   4.071  0.1263  0.1966 -0.0608
  994W        W 2994   1.184   5.300   7.241  0.0965 -0.3150  0.0357
  995W        W 2995   2.674   4.997   0.991  0.0973 -0.1875 -0.1240
  996W        W 2996   2.404   2.878   4.834  0.2304  0.2183  0.0498
  997W        W 2997   4.854   0.474   2.266 -0.2587 -0.1151  0.0903
  998W        W 2998   6.467   6.338   5.272 -0.3061  0.0478 -0.0342
  999W        W 2999   2.596   4.171   2.440 -0.3468  0.2749  0.1693
 1000W        W 3000   4.276   3.901   3.937 -0.2040 -0.1005  0.0031
 1001W        W 3001   7.238   3.955   7.056 -0.0818  0.0254  0.1464
 1002W        W 3002   7.148   5.192   5.670  0.0472 -0.1813 -0.1205
 1003W        W 3003   2.680   0.710   3.223  0.0572 -0.1486  0.1062
 1004W        W 3004   5.636   4.104   5.870 -0.3040 -0.0582  0.0026
 1005W        W 3005   0.333   4.063   0.300  0.1098  0.2095  0.4360
 1006W        W 3006   3.254   0.716   3.157 -0.5368 -0.2516  0.0202
 1007W        W 3007   2.239   6.411   1.609  0.0358  0.1063  0.0713
 1008W        W 3008   4.164   3.074   2.677  0.0711 -0.1581  0.0279
 1009W        W 3009   0.316   7.192   5.873  0.0221 -0.1814 -0.0414
 1010W        W 3010   6.997   6.076   0.691 -0.3532 -0.1049  0.0194
 1011W        W 3011   6.861   0.145   4.780  0.2428 -0.1546  0.0507
 1012W        W 3012   1.157   3.887   1.422  0.1882 -0.2353 -0.0689
 1013W        W 3013   4.900   4.504   0.042  0.0542  0.0267  0.0102
 1014W        W 3014   6.646   6.042   4.715  0.2084  0.1183 -0.1735
 1015W        W 3015   4.990   2.148   2.326  0.2687  0.1283 -0.3840
 1016W        W 3016   5.135   6.757   0.599 -0.0547  0.0438 -0.0271
 1017W        W 3017   5.758   2.071   1.948 -0.1166 -0.1301 -0.2968
 1018W        W 3018   1.035   7.234   3.925 -0.0932 -0.0245 -0.0623
 1019W        W 3019   0.726   6.846   3.762  0.4519 -0.2850 -0.0599
 1020W        W 3020   5.963   3.322   5.475  0.2296 -0.1308 -0.3184
 1021W        W 3021   6.228   3.611   6.001  0.0025 -0.1125 -0.3013
 1022W        W 3022   2.598   4.089   6.563 -0.1919 -0.3192 -0.0342
 1023W        W 3023   3.269   3.477   2.678 -0.2047 -0.0531  0.1184
 1024W        W 3024   1.938   7.179   2.737 -0.1329  0.3015 -0.0552
 1025W        W 3025   5.331   6.641   4.580 -0.1908 -0.1555 -0.2477
 1026W        W 3026   5.642   2.348   5.677  0.1041 -0.1588  0.2324
 1027W        W 3027   5.887   5.221   5.741  0.4039  0.0193  0.3124
 1028W        W 3028   0.360   5.162   5.882  0.5097 -0.0991 -0.1451
 1029W        W 3029   6.331   4.832   5.487  0.3001  0.0938 -0.1194
 1030W        W 3030   4.916   2.560   1.955 -0.3369 -0.0905 -0.0947
 1031W        W 3031   5.984   1.699   0.916  0.0789 -0.1190 -0.2145
 1032W        W 3032   5.021   3.331   5.449 -0.0099  0.1370  0.0359
 1033W        W 3033   7.158   4.761   5.901 -0.1877  0.0482  0.1186
 1034W        W 3034   0.178   3.451   6.796  0.2248 -0.1188  0.1959
 1035W        W 3035   1.181   5.186   1.202  0.2788  0.2295  0.3442
 1036W        W 3036   5.193   2.638   2.440  0.1173  0.1209  0.2352
 1037W        W 3037   1.401   5.273   6.721 -0.2840  0.3268  0.2746
 1038W        W 3038   1.563   1.287   5.016  0.0081 -0.1101 -0.0664
 1039W        W 3039   6.839   1.149   6.026  0.0972 -0.0272 -0.3118
 1040W        W 3040   5.223   6.595   6.401 -0.3632 -0.1405 -0.0786
 1041W        W 3041   1.223   6.832   4.469  0.3340 -0.1972 -0.1706
 1042W        W 3042   4.109   6.602   6.359  0.1988  0.1919 -0.0861
 1043W        W 3043   4.662   4.237   4.857 -0.1325  0.0567  0.2238
 1044W        W 3044   0.189   1.379   2.536  0.0851  0.1567  0.3104
 1045W        W 3045   1.883   2.030   3.431  0.0741 -0.1288 -0.0100
 1046W        W 3046   3.582   6.455   3.684 -0.0915  0.2357 -0.1351
 1047W        W 3047   5.938   3.934   5.514 -0.0623  0.1348  0.0224
 1048W        W 3048   1.098   5.753   5.364 -0.3070 -0.0436 -0.2334
 1049W        W 3049   6.242   5.892   6.059  0.0258  0.0937  0.2486
 1050W        W 3050   5.208   7.036   6.118 -0.0496 -0.1032  0.1016
 1051W        W 3051   2.945   4.352   2.718 -0.0113  0.0854 -0.0098
 1052W        W 3052   6.659   0.993   5.603  0.1078 -0.1687 -0.1172
 1053W        W 3053   0.306   0.618   3.259 -0.1425  0.3016 -0.3360
 1054W        W 3054   4.018   4.994   5.936 -0.1620 -0.1921 -0.1641
 1055W        W 3055   7.273   2.327   5.709 -0.0157 -0.0395  0.0173
 1056W        W 3056   0.308   4.287   7.162 -0.3158 -0.2826  0.0077
 1057W        W 3057   6.472   5.151   7.010 -0.0747 -0.1375  0.1487
 1058W        W 3058   5.114   4.918   0.221  0.0867 -0.3376  0.0429
 1059W        W 3059   5.758   1.136   1.868 -0.2616  0.2064 -0.2440
 1060W        W 3060   5.158   4.288   5.155  0.1105 -0.0670  0.0416
 1061W        W 3061   0.403   5.817   4.868  0.0067 -0.1988  0.2999
 1062W        W 3062   0.009   2.636   6.401  0.1034  0.0995 -0.1761
 1063W        W 3063   4.143   6.063   5.421  0.1826 -0.2797 -0.5036
 1064W        W 3064   2.290   0.055   5.186  0.0145  0.4302 -0.0469
 1065W        W 3065   5.389   6.321   6.053 -0.2694 -0.1117 -0.2201
 1066W        W 3066   6.901   3.332   5.977  0.1139 -0.0845  0.0400
 1067W        W 3067   5.985   4.367   0.289 -0.0904  0.1435 -0.0561
 1068W        W 3068   1.593   7.220   5.146 -0.0879  0.1123 -0.1285
 1069W        W 3069   3.841   1.738   4.413 -0.1691 -0.0824  0.2809
 1070W        W 3070   1.049   0.123   6.541  0.0732 -0.1477  0.1909
 1071W        W 3071   0.302   4.326   1.172 -0.0639 -0.1532 -0.0858
 1072W        W 3072   1.029   4.207   5.383  0.1430 -0.3118  0.3253
 1073W        W 3073   2.810   1.621   4.230  0.0668  0.1681 -0.0649
 1074W        W 3074   5.639   5.230   1.704 -0.1530  0.1598  0.1400
 1075W        W 3075   1.494   4.907   0.165  0.1045  0.0602  0.0254
 1076W        W 3076   0.123   6.476   6.515 -0.2513 -0.2028  0.1620
 1077W        W 3077   3.888   4.638   5.339  0.1225 -0.2532 -0.0927
 1078W        W 3078   5.504   5.309   1.120 -0.0162 -0.0122 -0.0609
 1079W        W 3079   0.832   0.090   2.076 -0.2475  0.1043 -0.1984
 1080W        W 3080   6.445   3.178   0.652 -0.1901 -0.2101  0.3273
 1081W        W 3081   7.188   1.065   2.942 -0.1808 -0.0827  0.1866
 1082W        W 3082   5.591   1.566   4.051  0.2774 -0.0259  0.0574
 1083W        W 3083   4.082   6.896   3.112  0.2057  0.3067  0.0426
 1084W        W 3084   4.048   2.501   3.489 -0.2788  0.1530  0.0399
 1085W        W 3085   4.284   4.108   0.869 -0.1011  0.0768  0.0310
 1086W        W 3086   0.816   4.386   3.804 -0.2358  0.1807  0.0555
 1087W        W 3087   0.789   2.639   1.298  0.0115  0.1521  0.0564
 1088W        W 3088   6.127   2.585   1.272 -0.1552  0.1156  0.0703
 1089W        W 3089   6.798   4.026   6.402 -0.0730  0.2059  0.1561
 1090W        W 3090   2.172   5.159   5.345 -0.1577  0.0679  0.2712
 1091W        W 3091   6.204   5.317   6.119  0.0099  0.1278  0.0783
 1092W        W 3092   5.082   1.318   4.063  0.0300  0.0008 -0.0916
 1093W        W 3093   1.615   4.903   5.759  0.0638 -0.0578  0.3441
 1094W        W 3094   2.788   6.882   2.309 -0.1141  0.0297  0.0037
 1095W        W 3095   0.363   3.821   2.122 -0.2440  0.1779 -0.1252
 1096W        W 3096   1.885   4.755   2.718  0.0296 -0.1909  0.6025
 1097W        W 3097   6.668   0.472   1.788 -0.2077 -0.1809  0.1492
 1098W        W 3098   5.087   0.409   3.061  0.0855 -0.0891  0.2679
 1099W        W 3099   5.005   3.286   3.173  0.1587  0.0602 -0.0013
 1100W        W 3100   1.422   6.406   0.463 -0.1500 -0.1269  0.0624
 1101W        W 3101   6.016   4.136   2.364  0.1697  0.0690  0.0286
 1102W        W 3102   4.222   1.271   3.750 -0.2555  0.1853  0.1698
 1103W        W 3103   2.293   4.659   5.438 -0.1068  0.0520  0.0708
 1104W        W 3104   1.560   1.181   3.801 -0.2803  0.0018  0.1871
 1105W        W 3105   4.550   7.040   2.902 -0.0759 -0.0299  0.1299
 1106W        W 3106   6.408   6.579   3.769 -0.3750 -0.3007 -0.2606
 1107W        W 3107   6.882   1.573   7.176 -0.0502 -0.2645  0.0001
 1108W        W 3108   3.978   3.830   2.188  0.3466  0.1782  0.1585
 1109W        W 3109   1.182   6.565   2.748 -0.2089  0.2286  0.0803
 1110W        W 3110   2.895   4.865   2.624 -0.0843  0.3082  0.1026
 1111W        W 3111   1.731   3.307   3.038 -0.2637 -0.0719  0.1733
 1112W        W 3112   0.165   1.287   5.153  0.3907 -0.5786  0.2857
 1113W        W 3113   3.740   2.239   4.664 -0.0795  0.3209 -0.0841
 1114W        W 3114   5.589   1.225   5.667 -0.0636  0.0416  0.1221
 1115W        W 3115   0.794   4.154   0.261 -0.0556 -0.1279 -0.1466
 1116W        W 3116   0.238   5.686   5.645  0.0849 -0.2653  0.0891
 1117W        W 3117   3.204   5.972   0.654  0.0124 -0.0080 -0.0285
 1118W        W 3118   4.600   3.000   2.869  0.5764  0.3825 -0.0734
 1119W        W 3119   0.944   1.164   7.113 -0.1549  0.4410 -0.1527
 1120W        W 3120   0.528   0.574   5.715  0.2920 -0.2986  0.0319
 1121W        W 3121   3.972   5.124   4.055 -0.0760 -0.4170  0.0539
 1122W        W 3122   5.350   6.291   5.118 -0.0844  0.2186  0.0773
 1123W        W 3123   2.636   3.573   1.401  0.0298  0.0580 -0.1275
 1124W        W 3124   5.042   4.085   1.079  0.1397 -0.0076  0.0886
 1125W        W 3125   5.984   6.633   2.519 -0.0579  0.1677 -0.3630
 1126W        W 3126   5.910   4.402   4.146 -0.0807  0.0181 -0.1305
 1127W        W 3127   5.588   5.412   2.620 -0.1207  0.0027  0.1358
 1128W        W 3128   1.656   6.498   1.673 -0.1703  0.0742 -0.1772
 1129W        W 3129   0.679   3.850   1.207  0.3341 -0.2989 -0.2188
 1130W        W 3130   4.930   4.774   2.552  0.2166 -0.1405 -0.0375
 1131W        W 3131   0.122   0.227   5.497  0.1519 -0.1766  0.3962
 1132W        W 3132   7.200   2.987   2.562 -0.2314 -0.0787  0.2576
 1133W        W 3133   5.191   3.435   1.783  0.1770  0.2626 -0.1925
 1134W        W 3134   2.578   3.404   1.975  0.0660 -0.0844  0.2135
 1135W        W 3135   3.971   3.269   3.080 -0.0654 -0.1565  0.1344
 1136W        W 3136   2.409   1.642   2.931  0.3119 -0.3148  0.2882
 1137W        W 3137   0.788   6.988   6.369 -0.3921 -0.0538 -0.1237
 1138W        W 3138   1.546   3.825   3.301 -0.0924 -0.2367  0.1714
 1139W        W 3139   0.947   5.203   4.546  0.1761  0.1934  0.1177
 1140W        W 3140   0.059   3.366   5.590 -0.1520 -0.0262  0.0440
 1141W        W 3141   0.557   7.149   2.389  0.1401 -0.1476 -0.1374
 1142W        W 3142   0.894   2.815   4.235 -0.1717  0.1359 -0.0218
 1143W        W 3143   7.274   6.463   0.257 -0.2602 -0.0365 -0.1436
 1144W        W 3144   1.461   4.926   1.881  0.3862  0.0199  0.1802
 1145W        W 3145   0.990   2.108   2.200  0.3299  0.0310  0.1946
 1146W        W 3146   7.243   2.845   5.269  0.0717  0.1422  0.0613
 1147W        W 3147   6.345   6.393   1.621 -0.1135  0.1989  0.0203
 1148W        W 3148   0.729   4.747   3.255  0.0814  0.2209 -0.3099
 1149W        W 3149   5.355   3.860   1.516  0.1957  0.1871 -0.4978
 1150W        W 3150   0.209   5.569   2.873  0.0806  0.1499 -0.0677
 1151W        W 3151   5.869   6.306   5.088  0.0236 -0.0774  0.2891
 1152W        W 3152   3.506   6.818   6.057 -0.3565 -0.0274 -0.0673
 1153W        W 3153   5.183   2.557   4.789  0.2135 -0.2963 -0.2262
 1154W        W 3154   3.522   4.603   4.001  0.2565  0.2257 -0.0564
 1155W        W 3155   3.507   6.359   1.868  0.2988 -0.1334  0.3219
 1156W        W 3156   5.434   1.757   4.531  0.1297  0.3764 -0.0139
 1157W        W 3157   5.667   3.752   5.151  0.6680  0.4282  0.1605
 1158W        W 3158   1.059   0.977   2.292 -0.1246  0.3771  0.3742
 1159W        W 3159   6.161   7.120   3.013  0.0207 -0.0308  0.1066
 1160W        W 3160   3.457   4.431   0.387 -0.2783  0.2353  0.0850
 1161W        W 3161   1.077   5.701   3.200  0.2554 -0.0018 -0.1975
 1162W        W 3162   6.271   4.744   4.258  0.1067 -0.0038 -0.0030
 1163W        W 3163   6.146   6.801   6.353 -0.2159 -0.1167  0.2442
 1164W        W 3164   5.899   2.638   4.971  0.0678 -0.1443 -0.0885
 1165W        W 3165   6.520   1.704   6.779  0.0951 -0.0272 -0.0900
 1166W        W 3166   7.258   2.046   2.680 -0.2095 -0.0968 -0.0543
 1167W        W 3167   4.617   1.505   4.069  0.1510 -0.2187  0.2101
 1168W        W 3168   6.205   5.674   0.372  0.0779 -0.0599  0.1074
 1169W        W 3169   3.395   5.661   2.621 -0.3035  0.0781 -0.1960
 1170W        W 3170   7.073   7.082   5.552 -0.5104 -0.0928 -0.1035
 1171W        W 3171   5.816   4.925   1.395  0.1842 -0.2628  0.1767
 1172W        W 3172   1.480   4.297   1.396 -0.0895  0.1896 -0.0140
 1173W        W 3173   5.652   5.072   2.175 -0.0150 -0.2360 -0.0450
 1174W        W 3174   4.189   2.104   4.314  0.1365 -0.0240 -0.1670
 1175W        W 3175   0.008   5.907   0.205  0.3827  0.1131  0.0034
 1176W        W 3176   3.379   6.824   3.966 -0.4645  0.1161  0.0011
 1177W        W 3177   0.301   2.720   4.932  0.3206  0.0353  0.1387
 1178W        W 3178   5.168   2.319   4.350  0.0047  0.1683 -0.1665
 1179W        W 3179   3.302   6.567   2.882 -0.3177  0.0848  0.1896
 1180W        W 3180   0.718   5.842   5.828 -0.0925 -0.0829 -0.0523
 1181W        W 3181   5.192   6.844   5.002  0.0139 -0.0427  0.0590
 1182W        W 3182   7.275   2.596   2.991 -0.3740 -0.1707  0.0997
 1183W        W 3183   3.382   5.554   1.631  0.3663  0.1802 -0.3514
 1184W        W 3184   5.586   3.803   1.013  0.0560 -0.0056  0.1011
 1185W        W 3185   0.089   2.053   1.696  0.0440  0.1730  0.2201
 1186W        W 3186   0.779   3.796   4.452 -0.2802  0.0060 -0.0065
 1187W        W 3187   5.383   4.495   3.891  0.0527 -0.0291 -0.3398
 1188W        W 3188   6.217   1.987   4.050  0.1731  0.1644 -0.0282
 1189W        W 3189   5.443   3.361   1.275 -0.0849  0.2081  0.1900
 1190W        W 3190   0.350   6.604   4.003 -0.1128 -0.0811 -0.1429
 1191W        W 3191   0.942   5.368   2.498  0.0468  0.1267 -0.0233
 1192W        W 3192   2.116   4.000   3.273 -0.1813 -0.3087 -0.3713
 1193W        W 3193   2.876   4.980   1.623 -0.1276  0.0590 -0.2469
 1194W        W 3194   1.049   5.955   0.439 -0.0864 -0.0238  0.3422
 1195W        W 3195   6.329   0.172   3.578  0.2211  0.1311 -0.1492
 1196W        W 3196   3.151   4.900   5.587  0.2158 -0.0190  0.2969
 1197W        W 3197   0.266   6.979   4.315  0.2933 -0.2268  0.1126
 1198W        W 3198   6.665   5.891   4.178 -0.0669  0.0718  0.0196
 1199W        W 3199   6.194   3.842   0.210 -0.0656 -0.0332 -0.0687
 1200W        W 3200   7.154   0.482   4.350 -0.1873  0.0311 -0.0520
 1201W        W 3201   6.557   0.512   5.358  0.1501  0.2821 -0.1395
 1202W        W 3202   2.375   4.006   4.630 -0.3879 -0.3400  0.3281
 1203W        W 3203   4.843   3.336   2.566 -0.2208  0.1182 -0.1277
 1204W        W 3204   4.968   3.866   4.496  0.0283  0.3238  0.0328
 1205W        W 3205   3.732   2.759   2.761 -0.0502 -0.0323 -0.2994
 1206W        W 3206   5.207   5.482   0.316 -0.0741  0.1241  0.1456
 1207W        W 3207   6.156   4.790   6.807  0.3993  0.1538  0.0627
 1208W        W 3208   2.081   4.506   1.405  0.1580 -0.1452 -0.1183
 1209W        W 3209   0.676   4.997   6.208  0.1411 -0.0823 -0.2320
 1210W        W 3210   3.117   4.718   5.145  0.0159  0.0439  0.0196
 1211W        W 3211   6.280   6.395   0.493  0.0540 -0.0961 -0.0928
 1212W        W 3212   1.576   4.869   3.603 -0.0924  0.0206 -0.0780
 1213W        W 3213   6.464   0.354   1.332 -0.2114 -0.0540 -0.0038
 1214W        W 3214   1.652   3.504   6.344 -0.2569 -0.1773  0.3071
 1215W        W 3215   3.195   5.124   4.749 -0.1140  0.0157 -0.1667
 1216W        W 3216   0.017   7.005   3.762  0.0679 -0.1535 -0.0321
 1217W        W 3217   3.331   1.880   4.365  0.2533  0.4891  0.0257
 1218W        W 3218   1.752   4.525   1.805  0.1764  0.1445  0.3526
 1219W        W 3219   6.939   3.784   1.528  0.0988 -0.3308 -0.1111
 1220W        W 3220   5.144   4.285   1.772  0.2679  0.1880 -0.2639
 1221W        W 3221   3.946   0.119   3.139 -0.3392  0.0635  0.0023
 1222W        W 3222   2.414   5.408   0.654 -0.0455 -0.1760  0.3618
 1223W        W 3223   1.316   0.063   2.107  0.1792 -0.1060 -0.0159
 1224W        W 3224   5.558   3.093   5.815 -0.1307 -0.0722  0.1532
 1225W        W 3225   0.995   1.958   5.330 -0.2664  0.1490  0.3613
 1226W        W 3226   0.305   0.816   1.132  0.2045 -0.0512  0.2162
 1227W        W 3227   0.538   5.498   6.347  0.0417 -0.1690  0.0254
 1228W        W 3228   0.769   6.644   4.297 -0.0612 -0.0710 -0.0905
 1229W        W 3229   5.787   2.906   0.456 -0.0501  0.1034 -0.2728
 1230W        W 3230   6.326   6.964   3.458 -0.2525 -0.3177  0.0415
 1231W        W 3231   3.090   7.275   5.132  0.1607 -0.2162 -0.2834
 1232W        W 3232   5.372   3.560   0.246  0.0763 -0.1114 -0.0386
 1233W        W 3233   0.338   3.164   2.973  0.2294 -0.0026 -0.3711
 1234W        W 3234   6.391   2.815   6.677 -0.3388 -0.0476  0.0460
 1235W        W 3235   0.421   1.944   2.434  0.0433 -0.2183 -0.2088
 1236W        W 3236   6.127   1.235   2.220  0.2446  0.0232 -0.0728
 1237W        W 3237   0.323   1.108   3.823  0.0246  0.1106  0.0467
 1238W        W 3238   2.051   3.834   5.636 -0.3084 -0.0780  0.1248
 1239W        W 3239   0.427   4.355   2.004  0.2107  0.2056 -0.0127
 1240W        W 3240   3.507   6.815   5.104 -0.0596 -0.0651 -0.1765
 1241W        W 3241   5.124   0.871   4.866 -0.2409 -0.0572 -0.1086
 1242W        W 3242   3.440   0.199   3.316 -0.1450 -0.1314  0.0015
 1243W        W 3243   6.858   2.531   3.759 -0.1076 -0.2847 -0.0726
 1244W        W 3244   6.061   7.083   5.923  0.3852 -0.0871  0.3976
 1245W        W 3245   4.075   6.365   0.231 -0.0458  0.1353 -0.0938
 1246W        W 3246   4.641   4.637   6.057 -0.0417  0.2058 -0.1757
 1247W        W 3247   0.770   0.704   2.570 -0.0463  0.0631 -0.1767
 1248W        W 3248   3.363   3.775   4.211 -0.1817 -0.1647 -0.3324
 1249W        W 3249   5.515   6.503   2.374 -0.1442 -0.0188 -0.0109
 1250W        W 3250   6.001   4.093   6.891 -0.0636 -0.1377  0.2141
 1251W        W 3251   5.026   7.165   4.630 -0.3484  0.1339 -0.0419
 1252W        W 3252   4.297   5.478   2.084 -0.0747  0.0090 -0.3896
 1253W        W 3253   5.997   6.000   0.758 -0.1586  0.0412 -0.1034
 1254W        W 3254   6.480   0.501   4.760  0.0492  0.2466  0.0928
 1255W        W 3255   2.094   6.073   5.201 -0.0781 -0.1357  0.3502
 1256W        W 3256   2.607   5.908   2.532 -0.0125 -0.1917  0.0429
 1257W        W 3257   4.018   5.974   3.351  0.2686 -0.3212  0.1375
 1258W        W 3258   5.424   6.195   1.438  0.2549 -0.0324 -0.2008
 1259W        W 3259   0.451   4.091   3.112 -0.3100 -0.1196  0.0284
 1260W        W 3260   0.763   1.171   3.663 -0.2041  0.3511 -0.1357
 1261W        W 3261   6.729   4.374   4.222 -0.2994 -0.0772 -0.2779
 1262W        W 3262   0.750   0.139   5.695  0.5444 -0.1048  0.2967
 1263W        W 3263   5.488   6.667   2.828 -0.3469  0.3984 -0.0850
 1264W        W 3264   3.635   4.507   4.931 -0.0756  0.1458 -0.1261
 1265W        W 3265   0.621   1.439   5.927 -0.1204 -0.2257  0.1447
 1266W        W 3266   5.606   2.102   6.115 -0.3163 -0.3172  0.3734
 1267W        W 3267   2.372   4.905   0.530  0.1579 -0.1619 -0.1194
 1268W        W 3268   5.044   6.649   5.801  0.1141  0.1260 -0.1585
 1269W        W 3269   3.582   4.944   0.113 -0.0856 -0.0209  0.0865
 1270W        W 3270   2.635   1.131   2.945 -0.1230  0.2672 -0.1493
 1271W        W 3271   3.899   3.857   4.660  0.1032 -0.2186  0.2996
 1272W        W 3272   5.449   5.802   1.106  0.0638 -0.1410 -0.0657
 1273W        W 3273   2.505   2.856   2.050 -0.1147 -0.1189 -0.3899
 1274W        W 3274   5.986   5.140   4.233  0.0424 -0.1268  0.0369
 1275W        W 3275   2.916   3.945   1.718 -0.0207  0.2621 -0.0192
 1276W        W 3276   4.347   4.627   0.832  0.0924 -0.1008  0.0301
 1277W        W 3277   7.216   5.175   0.295  0.2075 -0.0668 -0.1729
 1278W        W 3278   2.168   4.848   4.954  0.0242  0.3357 -0.2390
 1279W        W 3279   5.320   4.740   5.338  0.0103  0.1860  0.0256
 1280W        W 3280   7.218   4.955   4.552 -0.0589  0.1565  0.0228
 1281W        W 3281   1.362   6.795   4.958  0.0926 -0.0765 -0.1031
 1282W        W 3282   0.142   0.379   4.995  0.2568 -0.1379 -0.0161
 1283W        W 3283   5.885   5.807   5.292 -0.1638  0.2632  0.1330
 1284W        W 3284   1.921   5.145   3.151 -0.1166  0.0222 -0.0468
 1285W        W 3285   6.520   3.129   4.279 -0.4437  0.7873 -0.0526
 1286W        W 3286   5.753   5.561   0.138  0.1080  0.2262  0.0747
 1287W        W 3287   3.391   5.748   5.362 -0.0569  0.2755 -0.2665
 1288W        W 3288   6.664   2.132   5.065  0.1765 -0.1272 -0.2061
 1289W        W 3289   0.076   1.691   0.685 -0.0065 -0.3041  0.2359
 1290W        W 3290   4.623   5.971   1.019 -0.1173 -0.1785  0.0534
 1291W        W 3291   1.413   5.144   2.807  0.1826 -0.0364 -0.0222
 1292W        W 3292   0.714   0.277   0.573 -0.1509 -0.0312 -0.5100
 1293W        W 3293   6.278   4.453   3.818 -0.0510  0.3036 -0.0068
 1294W        W 3294   5.475   3.262   5.252 -0.1869 -0.2645  0.0652
 1295W        W 3295   6.943   4.475   3.750 -0.1081  0.1528  0.3820
 1296W        W 3296   4.074   5.849   0.445  0.3173 -0.0044  0.0665
 1297W        W 3297   3.881   5.520   1.432  0.2352  0.1194 -0.0868
 1298W        W 3298   6.657   2.262   1.203  0.0514  0.2853  0.2875
 1299W        W 3299   6.451   1.988   4.552 -0.1556 -0.0700 -0.1903
 1300W        W 3300   4.464   2.882   3.917  0.2317 -0.1781  0.2860
 1301W        W 3301   6.364   2.795   3.108 -0.2067 -0.1102  0.1578
 1302W        W 3302   2.066   0.518   3.414 -0.1072  0.1185 -0.1095
 1303W        W 3303   0.520   4.003   1.686 -0.0587 -0.0615  0.1382
 1304W        W 3304   6.805   3.336   2.395 -0.0852  0.1431 -0.3096
 1305W        W 3305   6.497   2.785   5.817  0.2331  0.0729  0.1700
 1306W        W 3306   1.646   5.851   4.386 -0.0661 -0.1251  0.1643
 1307W        W 3307   3.786   1.626   3.898 -0.1617 -0.0406  0.1508
 1308W        W 3308   6.034   0.902   3.498  0.1018  0.0618  0.2599
 1309W        W 3309   6.922   1.121   6.900 -0.0175 -0.2485 -0.7915
 1310W        W 3310   5.318   0.033   5.066 -0.1754 -0.3379  0.0428
 1311W        W 3311   4.666   4.138   1.696 -0.0224  0.0776  0.0096
 1312W        W 3312   3.809   5.806   2.865 -0.1420  0.1455  0.0195
 1313W        W 3313   0.189   3.873   1.264  0.2899 -0.3815 -0.2330
 1314W        W 3314   3.610   4.330   1.542  0.0326 -0.1124 -0.0369
 1315W        W 3315   0.549   4.430   5.398 -0.1912 -0.2754 -0.0552
 1316W        W 3316   2.570   4.035   1.412 -0.1397 -0.2803 -0.0355
 1317W        W 3317   2.076   5.497   1.933 -0.1193  0.0517 -0.2442
 1318W        W 3318   4.963   2.395   3.476  0.0043 -0.0768  0.3075
 1319W        W 3319   0.324   6.200   5.852 -0.0585  0.0344 -0.1036
 1320W        W 3320   5.615   0.160   5.829  0.0363 -0.0599 -0.1911
 1321W        W 3321   3.737   4.302   3.653 -0.0163 -0.4534 -0.2039
 1322W        W 3322   0.997   1.635   4.544  0.0403  0.0058 -0.0694
 1323W        W 3323   5.680   5.879   3.017 -0.2420  0.0740 -0.0605
 1324W        W 3324   4.560   5.891   6.990 -0.0118 -0.0502 -0.0366
 1325W        W 3325   2.964   1.224   3.932  0.0267 -0.0731  0.0253
 1326W        W 3326   2.813   4.345   3.202 -0.0951  0.4476 -0.0451
 1327W        W 3327   2.784   1.036   2.365  0.0751 -0.1765 -0.3621
 1328W        W 3328   5.845   4.462   6.618  0.2686 -0.1349  0.0528
 1329W        W 3329   6.089   5.891   4.840 -0.0873  0.1186  0.0124
 1330W        W 3330   0.935   5.214   6.819 -0.1064  0.0134  0.3383
 1331W        W 3331   5.221   6.935   2.444  0.1588  0.0421  0.0308
 1332W        W 3332   3.605   5.167   5.572  0.0601 -0.2086  0.1935
 1333W        W 3333   3.584   4.211   2.324 -0.3743 -0.0461  0.0894
 1334W        W 3334   3.657   3.106   2.440 -0.0318 -0.0879  0.0044
 1335W        W 3335   3.292   6.464   6.435  0.0194 -0.1284 -0.2136
 1336W        W 3336   1.312   3.786   2.357  0.2199  0.4619 -0.1406
 1337W        W 3337   4.637   2.505   3.077  0.1087  0.0227 -0.0706
 1338W        W 3338   5.530   2.587   2.793 -0.0433 -0.2107  0.0132
 1339W        W 3339   0.674   5.980   4.096  0.1161  0.2036 -0.0584
 1340W        W 3340   6.562   4.683   2.567  0.0165 -0.4265 -0.0831
 1341W        W 3341   2.082   1.650   3.753 -0.2492 -0.1186  0.1488
 1342W        W 3342   2.032   2.462   4.857  0.1291 -0.1373 -0.2486
 1343W        W 3343   4.552   3.915   2.174 -0.1164  0.2084 -0.2801
 1344W        W 3344   2.839   5.658   3.306  0.0366  0.2794  0.0802
 1345W        W 3345   5.993   0.322   3.146 -0.2425  0.0846  0.0676
 1346W        W 3346   3.960   4.221   1.876  0.2007  0.0607  0.2842
 1347W        W 3347   3.899   4.888   0.558  0.2051 -0.1102 -0.0606
 1348W        W 3348   0.011   3.382   2.141  0.0708 -0.1865  0.0256
 1349W        W 3349   6.618   2.845   2.261  0.1036  0.1154 -0.1493
 1350W        W 3350   1.580   7.045   4.121  0.1845  0.0222 -0.0896
 1351W        W 3351   2.505   6.400   2.198 -0.1616  0.0312  0.0732
 1352W        W 3352   4.426   5.637   0.760 -0.1709  0.1180  0.0804
 1353W        W 3353   6.405   1.910   5.426  0.2654  0.1606 -0.0511
 1354W        W 3354   2.538   1.055   3.627  0.0241  0.0562 -0.0296
 1355W        W 3355   5.822   7.103   5.518 -0.0038 -0.2789  0.1019
 1356W        W 3356   1.515   4.720   3.133  0.0004 -0.1194  0.0672
 1357W        W 3357   4.812   6.636   2.568  0.3090 -0.0266  0.0043
 1358W        W 3358   5.457   6.521   5.556  0.0982  0.1444  0.0100
 1359W        W 3359   1.895   6.923   3.404 -0.0059  0.2280 -0.2052
 1360W        W 3360   3.857   3.266   3.778  0.1179  0.2386 -0.0458
 1361W        W 3361   4.189   6.495   4.726 -0.2052  0.2253  0.1087
 1362W        W 3362   0.960   1.323   3.231 -0.0999  0.4160  0.2011
 1363W        W 3363   4.878   7.282   3.913 -0.1270  0.0330  0.1208
 1364W        W 3364   6.053   1.238   4.212  0.2298  0.0524  0.1049
 1365W        W 3365   4.244   4.478   5.642  0.1157  0.0485 -0.1379
 1366W        W 3366   3.204   1.080   2.760  0.1932  0.4012  0.0341
 1367W        W 3367   4.056   6.243   1.918 -0.1200  0.1367  0.1679
 1368W        W 3368   0.028   3.539   0.094 -0.1479  0.0248 -0.1821
 1369W        W 3369   2.139   5.936   0.604 -0.0999  0.2803  0.2541
 1370W        W 3370   3.776   0.426   4.091  0.1878  0.0850  0.1046
 1371W        W 3371   1.902   4.069   5.174 -0.1386  0.0771 -0.1341
 1372W        W 3372   0.657   4.779   7.034 -0.0747 -0.2063  0.1074
 1373W        W 3373   4.004   7.275   2.115 -0.0992 -0.1462  0.0307
 1374W        W 3374   3.090   3.363   4.586  0.0054 -0.2050  0.0944
 1375W        W 3375   5.468   3.001   3.970 -0.1206  0.1836  0.2100
 1376W        W 3376   3.618   5.713   0.593 -0.1221  0.0373  0.3152
 1377W        W 3377   1.822   1.725   4.813 -0.0951 -0.2428 -0.1022
 1378W        W 3378   3.038   0.060   4.605  0.0398 -0.1831 -0.1080
 1379W        W 3379   6.613   4.836   3.841  0.3772  0.1646 -0.2347
 1380W        W 3380   1.154   0.514   2.329 -0.0888 -0.2554 -0.0899
 1381W        W 3381   2.804   2.556   2.987  0.1238 -0.2389  0.1797
 1382W        W 3382   3.961   5.372   0.804  0.2212  0.0671 -0.0229
 1383W        W 3383   6.714   2.504   6.456  0.0691  0.0188 -0.1462
 1384W        W 3384   6.651   1.007   1.947  0.0951 -0.3285 -0.1500
 1385W        W 3385   6.614   3.629   3.595 -0.1918  0.0383 -0.2307
 1386W        W 3386   2.670   2.969   2.712  0.0381  0.0774  0.0959
 1387W        W 3387   4.878   4.699   4.907  0.0114 -0.0157  0.1541
 1388W        W 3388   3.819   4.210   4.178  0.0461 -0.1847 -0.0012
 1389W        W 3389   0.665   4.260   0.838 -0.0007 -0.0881 -0.3573
 1390W        W 3390   1.264   2.393   3.274  0.3605  0.0105  0.1976
 1391W        W 3391   5.691   6.142   5.730 -0.1536 -0.0004  0.2820
 1392W        W 3392   5.083   5.790   0.729  0.0370  0.0181  0.1666
 1393W        W 3393   3.687   2.641   4.403  0.0186  0.1761  0.1094
 1394W        W 3394   0.889   4.806   2.769 -0.0583 -0.0848 -0.4050
 1395W        W 3395   2.683   6.525   3.144  0.4471  0.4332 -0.1425
 1396W        W 3396   6.218   4.373   5.615 -0.2049 -0.1047 -0.2728
 1397W        W 3397   5.368   4.137   6.588 -0.1506 -0.0031  0.1670
 1398W        W 3398   4.143   3.753   2.990  0.0327 -0.2005  0.0476
 1399W        W 3399   5.358   4.705   6.547 -0.0332 -0.0228  0.1253
 1400W        W 3400   5.167   1.922   3.339  0.1212 -0.2987  0.2976
 1401W        W 3401   0.461   4.169   2.505  0.0718 -0.2165  0.0731
 1402W        W 3402   6.214   3.278   6.391 -0.3208  0.2492  0.1645
 1403W        W 3403   0.989   4.242   1.726 -0.2784 -0.0611 -0.1797
 1404W        W 3404   4.511   6.751   3.339 -0.0256  0.1456  0.2701
 1405W        W 3405   5.185   0.358   3.629  0.1129 -0.0974 -0.0099
 1406W        W 3406   6.483   3.102   3.716  0.3822  0.1154  0.2490
 1407W        W 3407   5.292   0.079   1.515 -0.1570 -0.0008 -0.0463
 1408W        W 3408   5.016   1.755   4.259  0.0049  0.3454 -0.0402
 1409W        W 3409   6.801   6.255   3.819  0.0272 -0.0862  0.0876
 1410W        W 3410   5.679   2.196   3.668  0.1489 -0.0201  0.1180
 1411W        W 3411   0.079   3.444   0.645  0.1512  0.1084 -0.4182
 1412W        W 3412   0.813   6.723   3.150 -0.0442 -0.3587  0.0807
 1413W        W 3413   2.332   4.564   2.567 -0.0980  0.2434  0.0402
 1414W        W 3414   2.881   3.925   4.986  0.0478  0.0869 -0.1022
 1415W        W 3415   3.704   4.873   6.281 -0.1180  0.2494 -0.1978
 1416W        W 3416   6.234   0.342   7.165 -0.0048  0.0244 -0.3293
 1417W        W 3417   2.866   5.688   1.560  0.0168  0.1970  0.0092
 1418W        W 3418   6.823   5.566   5.891 -0.2561 -0.2180 -0.4654
 1419W        W 3419   5.427   1.716   5.882 -0.0598 -0.1821 -0.0214
 1420W        W 3420   2.696   5.461   6.162  0.0834 -0.1182 -0.3280
 1421W        W 3421   2.478   7.281   3.820  0.0694  0.2485  0.0999
 1422W        W 3422   4.152   4.694   4.211 -0.2221 -0.0224  0.3651
 1423W        W 3423   6.178   0.904   5.442 -0.2347  0.1839 -0.1619
 1424W        W 3424   2.431   4.200   2.909 -0.0961  0.0617 -0.0996
 1425W        W 3425   6.582   1.070   4.471  0.0500 -0.2731  0.1138
 1426W        W 3426   2.305   6.571   3.486  0.2433  0.1724 -0.1136
 1427W        W 3427   0.581   2.695   7.143 -0.1179  0.1958  0.2319
 1428W        W 3428   0.635   6.832   5.888  0.0028 -0.1581  0.0301
 1429W        W 3429   5.198   2.035   3.810  0.0258 -0.1876  0.1962
 1430W        W 3430   4.526   5.560   6.576 -0.0617 -0.2028  0.0538
 1431W        W 3431   3.955   5.034   1.153  0.2746  0.2102  0.0385
 1432W        W 3432   3.617   5.418   5.999  0.1901 -0.4528  0.1650
 1433W        W 3433   0.717   2.400   2.476  0.1125 -0.4685 -0.3103
 1434W        W 3434   2.116   4.112   2.503  0.0537 -0.1890 -0.2223
 1435W        W 3435   6.515   0.213   3.056  0.1778 -0.0542  0.2453
 1436W        W 3436   5.898   3.593   2.968 -0.2557  0.0691  0.2648
 1437W        W 3437   0.365   3.044   0.729 -0.3789 -0.0912 -0.0374
 1438W        W 3438   5.818   0.751   2.973 -0.0925 -0.1614 -0.0742
 1439W        W 3439   6.723   4.145   7.003 -0.1301  0.1848 -0.1035
 1440W        W 3440   0.112   1.363   6.002 -0.0772 -0.2189  0.1390
 1441W        W 3441   5.425   7.215   3.713 -0.0569  0.2144  0.0233
 1442W        W 3442   0.252   4.484   4.851 -0.0825  0.2512  0.0463
 1443W        W 3443   2.258   4.991   4.141  0.2518  0.2740  0.0697
 1444W        W 3444   1.108   4.396   1.122 -0.1352  0.2209 -0.0061
 1445W        W 3445   1.861   7.154   5.613  0.1775  0.0439  0.0917
 1446W        W 3446   4.696   5.833   5.986  0.1074  0.1913 -0.0301
 1447W        W 3447   2.204   0.011   3.407  0.0189  0.0200 -0.1595
 1448W        W 3448   4.083   6.558   3.511 -0.1016  0.0131 -0.0155
 1449W        W 3449   6.854   6.456   6.083  0.1764  0.0964 -0.0595
 1450W        W 3450   3.738   3.544   5.138 -0.3006  0.1502 -0.1227
 1451W        W 3451   4.187   0.717   5.015  0.1478 -0.1167 -0.1542
 1452W        W 3452   1.606   5.667   6.967  0.1711  0.0562 -0.0175
 1453W        W 3453   5.752   3.586   6.115  0.2884 -0.0264  0.0700
 1454W        W 3454   1.752   0.945   2.757 -0.1267 -0.3639 -0.0374
 1455W        W 3455   6.697   2.225   5.945 -0.0525  0.4543 -0.4801
 1456W        W 3456   6.398   4.860   0.113  0.0268 -0.1083  0.0109
 1457W        W 3457   2.419   0.899   4.478 -0.1167  0.0046  0.0033
 1458W        W 3458   2.178   5.635   5.414 -0.1241  0.0474  0.0100
 1459W        W 3459   5.161   1.629   2.271  0.1373  0.3448 -0.2197
 1460W        W 3460   6.454   3.403   0.141 -0.0664  0.2175 -0.3819
 1461W        W 3461   6.363   7.195   4.799  0.0194 -0.1248  0.2350
 1462W        W 3462   0.775   6.089   7.168  0.0012  0.1250 -0.2638
 1463W        W 3463   0.505   5.188   2.696  0.2955  0.2597 -0.1300
 1464W        W 3464   0.990   7.142   3.315  0.0265 -0.0064 -0.1834
 1465W        W 3465   1.038   6.422   4.726  0.1428  0.2060  0.3850
 1466W        W 3466   1.850   4.519   4.842 -0.0008  0.1774 -0.4356
 1467W        W 3467   3.105   5.313   4.012 -0.1476 -0.0256  0.2306
 1468W        W 3468   2.003   4.159   2.021 -0.2080 -0.2234  0.2562
 1469W        W 3469   4.682   4.324   2.523 -0.0023 -0.0337  0.0149
 1470W        W 3470   6.293   6.282   6.390  0.3672  0.0597 -0.1290
 1471W        W 3471   6.631   5.818   5.386  0.2663  0.0206  0.2019
 1472W        W 3472   5.357   5.698   6.461 -0.3239  0.2527  0.0531
 1473W        W 3473   5.648   7.047   0.705 -0.0187 -0.1889  0.2785
 1474W        W 3474   0.434   6.245   1.126 -0.1299  0.1535  0.3439
 1475W        W 3475   0.833   7.127   4.392 -0.0737  0.0412 -0.1207
 1476W        W 3476   3.263   2.601   3.191 -0.0745  0.1246  0.0993
 1477W        W 3477   3.209   2.161   3.926 -0.1812  0.0074 -0.0433
 1478W        W 3478   4.211   4.016   1.424  0.0578  0.0637  0.0833
 1479W        W 3479   6.039   1.586   2.709  0.2904 -0.1110  0.0146
 1480W        W 3480   5.863   6.707   3.247 -0.1027  0.3305 -0.0677
 1481W        W 3481   0.262   6.285   7.200  0.1624  0.0851  0.0921
 1482W        W 3482   0.796   3.536   2.336  0.4118  0.1125  0.1440
 1483W        W 3483   1.215   7.173   5.491  0.0961 -0.0474 -0.2137
 1484W        W 3484   6.918   6.258   1.808 -0.0906  0.1086  0.2416
 1485W        W 3485   4.903   4.677   1.586  0.1005  0.1062  0.0699
 1486W        W 3486   2.066   3.199   2.686 -0.2870 -0.0195  0.1935
 1487W        W 3487   0.678   1.189   2.460  0.0032  0.0308  0.1297
 1488W        W 3488   1.393   5.737   0.132  0.0779 -0.1392  0.0140
 1489W        W 3489   2.854   5.356   2.423  0.1775  0.3999  0.2666
 1490W        W 3490   3.574   5.598   6.618  0.2427  0.2175 -0.0257
 1491W        W 3491   1.741   2.879   4.541 -0.0440  0.3421 -0.0747
 1492W        W 3492   5.540   3.137   2.142  0.0311  0.1628  0.0196
 1493W        W 3493   7.160   0.336   2.538  0.2974  0.0589  0.0348
 1494W        W 3494   4.054   0.883   3.990 -0.0849  0.1574 -0.2451
 1495W        W 3495   3.438   1.229   3.628 -0.0978  0.1593  0.1720
 1496W        W 3496   6.080   3.736   3.535  0.2587 -0.1533 -0.3363
 1497W        W 3497   4.805   5.193   5.854  0.2538 -0.0756 -0.1354
 1498W        W 3498   5.856   7.162   3.423 -0.3307 -0.1258 -0.0446
 1499W        W 3499   0.852   1.151   6.600 -0.0174  0.1450 -0.5316
 1500W        W 3500   4.451   5.440   5.410 -0.2503  0.1162  0.2463
 1501W        W 3501   0.485   5.160   4.151  0.1475 -0.1039  0.0605
 1502W        W 3502   3.776   6.782   4.484  0.0614  0.0981 -0.1195
 1503W        W 3503   6.834   4.613   1.900 -0.0081  0.0249 -0.0610
 1504W        W 3504   0.269   6.095   3.024  0.2208  0.2416  0.0723
 1505W        W 3505   2.082   0.685   4.027  0.3803 -0.0070 -0.0385
 1506W        W 3506   6.668   3.267   3.253 -0.4222 -0.2576  0.1315
 1507W        W 3507   0.062   1.110   3.396  0.0253  0.0087 -0.0216
 1508W        W 3508   2.771   4.113   0.952  0.2413  0.0299 -0.1565
 1509W        W 3509   1.103   0.847   3.767  0.0541  0.1278  0.1828
 1510W        W 3510   3.869   0.300   4.585  0.1770 -0.1418 -0.0782
 1511W        W 3511   0.446   2.842   6.121  0.0338 -0.0275 -0.1074
 1512W        W 3512   0.254   2.215   6.525 -0.1661 -0.0060 -0.1610
 1513W        W 3513   6.617   2.948   7.221 -0.2281 -0.1664 -0.1216
 1514W        W 3514   7.266   5.099   2.770  0.3270  0.0967  0.0557
 1515W        W 3515   0.850   1.121   1.307 -0.1141 -0.2772 -0.0815
 1516W        W 3516   5.825   6.235   3.960  0.2121  0.0427 -0.0925
 1517W        W 3517   2.068   4.425   0.495  0.1464 -0.0166  0.2091
 1518W        W 3518   6.217   7.287   6.628 -0.1925 -0.1258 -0.2448
 1519W        W 3519   5.583   3.907   4.304 -0.1201 -0.0750  0.0610
 1520W        W 3520   5.204   3.427   4.372  0.3247  0.0505  0.0393
 1521W        W 3521   3.596   5.415   3.896 -0.0850  0.2594 -0.0535
 1522W        W 3522   0.259   4.784   1.414  0.0351 -0.0444 -0.2185
 1523W        W 3523   0.077   3.737   1.751  0.3408 -0.1718  0.2440
 1524W        W 3524   5.706   4.026   0.122  0.0253  0.3791  0.1819
 1525W        W 3525   6.200   5.944   3.002 -0.0313 -0.0839  0.1047
 1526W        W 3526   2.298   3.672   2.761 -0.0742  0.1501  0.1193
 1527W        W 3527   2.202   5.279   0.237  0.1517 -0.2668 -0.1029
 1528W        W 3528   1.644   6.218   5.271  0.0223 -0.2284  0.1118
 1529W        W 3529   7.052   4.209   4.904  0.0168 -0.0619  0.1112
 1530W        W 3530   6.996   1.612   2.588 -0.2140  0.0802 -0.3126
 1531W        W 3531   6.598   3.776   2.185  0.1824 -0.1269 -0.0289
 1532W        W 3532   2.228   2.653   3.866 -0.0506  0.0394 -0.1914
 1533W        W 3533   1.190   1.635   2.817 -0.2125  0.1936 -0.0362
 1534W        W 3534   3.452   1.251   4.085  0.0509  0.1120  0.1021
 1535W        W 3535   5.882   6.352   2.896  0.1650 -0.0291  0.1361
 1536W        W 3536   0.807   0.196   0.094  0.1571  0.1652  0.2330
 1537W        W 3537   7.132   5.180   5.026 -0.0210 -0.0360  0.2597
 1538W        W 3538   1.298   6.224   5.662 -0.0461  0.2579  0.0513
 1539W        W 3539   4.568   1.008   4.135  0.2371  0.1005 -0.1127
 1540W        W 3540   7.120   0.235   0.901  0.0022  0.1257 -0.1487
 1541W        W 3541   6.441   1.571   4.204 -0.0715 -0.3341  0.1694
 1542W        W 3542   1.800   0.290   4.297 -0.0236  0.0763  0.0729
 1543W        W 3543   2.809   1.692   3.250  0.3003  0.1221 -0.0181
 1544W        W 3544   4.575   7.084   1.502  0.3011 -0.0630 -0.0086
 1545W        W 3545   6.347   0.322   0.515 -0.0226  0.1450 -0.3960
 1546W        W 3546   0.938   4.755   6.592 -0.0238 -0.0881  0.2987
 1547W        W 3547   5.794   0.489   0.914  0.0638 -0.1692  0.1927
 1548W        W 3548   0.031   0.325   6.918  0.1968  0.1510 -0.2236
 1549W        W 3549   5.769   5.479   6.324 -0.3162  0.0843 -0.0366
 1550W        W 3550   0.943   5.246   1.659  0.0152 -0.0375 -0.1049
 1551W        W 3551   2.679   5.694   3.846 -0.0858 -0.2702  0.3597
 1552W        W 3552   0.166   4.802   3.155  0.0361 -0.5593 -0.2114
 1553W        W 3553   3.764   4.112   1.105  0.2409 -0.3133  0.1605
 1554W        W 3554   1.028   2.096   1.397  0.0217  0.3346 -0.1039
 1555W        W 3555   2.613   2.097   3.872  0.0009 -0.0044 -0.0474
 1556W        W 3556   0.908   4.799   0.759  0.0215  0.2882 -0.1550
 1557W        W 3557   6.901   5.193   1.252 -0.1145 -0.0533  0.2943
 1558W        W 3558   6.246   2.911   4.754 -0.0482 -0.1531  0.1937
 1559W        W 3559   2.211   7.188   1.991 -0.0269  0.2711 -0.0568
 1560W        W 3560   0.539   3.271   4.052 -0.0788  0.0771  0.0716
 1561W        W 3561   0.897   5.812   1.892  0.2450 -0.2198  0.0522
 1562W        W 3562   6.313   6.253   2.572 -0.2439  0.0487  0.0361
 1563W        W 3563   5.108   4.164   4.131  0.2602 -0.0043  0.2054
 1564W        W 3564   6.893   2.983   1.926 -0.0740 -0.1954  0.1185
 1565W        W 3565   0.574   6.616   2.098 -0.0849  0.1151  0.0032
 1566W        W 3566   0.826   4.766   1.832 -0.2420  0.1137  0.1685
 1567W        W 3567   7.025   5.515   2.546 -0.1482  0.0210 -0.0209
 1568W        W 3568   0.411   5.588   3.826  0.0351 -0.0443 -0.3031
 1569W        W 3569   5.679   6.746   0.275 -0.0746 -0.0937  0.0589
 1570W        W 3570   6.871   3.892   3.153 -0.3261 -0.0479  0.3242
 1571W        W 3571   2.170   5.846   2.712  0.0082  0.2304 -0.2143
 1572W        W 3572   2.894   3.828   3.676  0.1935 -0.4702 -0.0129
 1573W        W 3573   3.293   3.908   5.522  0.0183  0.2101  0.2130
 1574W        W 3574   1.097   5.676   6.894  0.1944 -0.0289  0.2450
 1575W        W 3575   1.470   5.307   1.596  0.0412  0.1487 -0.2698
 1576W        W 3576   3.544   4.129   5.900 -0.0672  0.0349  0.0102
 1577W        W 3577   0.105   1.920   1.121 -0.1454 -0.2674 -0.0297
 1578W        W 3578   0.830   1.541   6.330  0.1426 -0.0540 -0.3463
 1579W        W 3579   7.250   2.870   0.456 -0.1947 -0.1206  0.4444
 1580W        W 3580   0.775   0.752   0.936  0.1954  0.2341  0.5229
 1581W        W 3581   4.273   5.942   2.767  0.0646 -0.1884 -0.0774
 1582W        W 3582   0.887   0.832   4.679  0.1448 -0.3061  0.1675
 1583W        W 3583   5.600   3.108   3.112 -0.0419 -0.1536 -0.0028
 1584W        W 3584   3.314   3.579   3.754 -0.1671 -0.0373 -0.0446
 1585W        W 3585   1.862   5.971   0.039  0.0599  0.1011  0.0035
 1586W        W 3586   0.038   5.713   3.464  0.2270 -0.3978  0.2847
 1587W        W 3587   5.080   2.268   2.887  0.0367 -0.0537  0.1790
 1588W        W 3588   6.507   5.322   2.725 -0.0410 -0.0723 -0.1520
 1589W        W 3589   0.022   3.065   6.010 -0.1983  0.1690  0.0640
 1590W        W 3590   6.104   5.162   0.412 -0.0887  0.1873 -0.0643
 1591W        W 3591   0.275   4.599   6.289 -0.1073 -0.0680 -0.1479
 1592W        W 3592   3.771   0.759   2.974 -0.0185 -0.0508 -0.2927
 1593W        W 3593   1.892   5.393   2.732  0.0476 -0.0592  0.0033
 1594W        W 3594   4.435   2.988   4.656 -0.0575  0.1632  0.0999
 1595W        W 3595   5.329   5.315   6.159 -0.0526 -0.2289  0.0230
 1596W        W 3596   0.687   5.012   0.180  0.4157 -0.0247  0.1853
 1597W        W 3597   6.848   1.480   2.072  0.0773 -0.0445 -0.2985
 1598W        W 3598   1.380   3.277   5.353 -0.0339 -0.1567 -0.2571
 1599W        W 3599   0.465   7.250   7.067  0.0152 -0.0952  0.3081
 1600W        W 3600   2.475   1.438   4.575  0.0627  0.1821 -0.3336
 1601W        W 3601   3.521   3.959   5.066  0.0047 -0.0711 -0.2829
 1602W        W 3602   7.227   1.580   0.189 -0.1521 -0.2726  0.1540
 1603W        W 3603   0.021   6.239   4.021  0.0286 -0.2109 -0.0077
 1604W        W 3604   3.764   7.182   5.387 -0.1526  0.0960 -0.2559
 1605W        W 3605   2.914   3.877   4.468  0.5057  0.0110  0.0538
 1606W        W 3606   5.533   0.666   3.334  0.1338  0.1983  0.1860
 1607W        W 3607   5.233   4.678   0.659  0.4269 -0.2624 -0.1831
 1608W        W 3608   4.460   6.980   2.413 -0.0081  0.0278  0.1592
 1609W        W 3609   7.025   4.794   2.346 -0.2051  0.1734 -0.2240
 1610W        W 3610   2.352   1.378   3.357 -0.0054  0.0736  0.1974
 1611W        W 3611   0.912   4.320   2.845 -0.4343 -0.0564 -0.2618
 1612W        W 3612   2.256   2.819   4.371  0.3564  0.0366 -0.0796
 1613W        W 3613   0.511   5.973   1.571  0.0064 -0.1047  0.1333
 1614W        W 3614   5.169   5.167   0.712 -0.1694  0.0474  0.2488
 1615W        W 3615   5.329   3.633   6.478 -0.1290  0.0026  0.2789
 1616W        W 3616   7.099   5.612   5.362  0.0089  0.0590 -0.0320
 1617W        W 3617   6.186   0.772   4.151  0.4210  0.3674  0.1463
 1618W        W 3618   5.921   6.078   6.834 -0.3416  0.1245 -0.1988
 1619W        W 3619   0.173   6.172   1.938  0.0574 -0.0899  0.2101
 1620W        W 3620   3.269   3.531   5.121 -0.0402  0.1064  0.0356
 1621W        W 3621   5.980   3.581   2.089 -0.3126  0.1242  0.1988
 1622W        W 3622   5.316   1.184   0.985 -0.1116 -0.0895 -0.1912
 1623W        W 3623   1.416   1.912   4.400 -0.0840 -0.2356  0.1198
 1624W        W 3624   6.017   3.886   4.067 -0.0935  0.1683 -0.3928
 1625W        W 3625   4.736   3.346   4.454  0.1053  0.2171 -0.1392
 1626W        W 3626   0.389   5.796   7.210  0.1461 -0.0378  0.3454
 1627W        W 3627   6.710   2.983   6.280  0.0609 -0.3092 -0.3043
 1628W        W 3628   3.508   5.623   7.197  0.3915 -0.1774 -0.1707
 1629W        W 3629   6.506   1.691   0.263 -0.2184  0.3036  0.1617
 1630W        W 3630   1.417   1.223   2.498 -0.1763  0.2937  0.0097
 1631W        W 3631   3.554   5.924   4.568  0.0769 -0.0013 -0.1413
 1632W        W 3632   1.276   6.286   3.689 -0.2430  0.2019  0.0812
 1633W        W 3633   7.247   1.835   4.331  0.0898 -0.1404  0.1159
 1634W        W 3634   3.146   1.931   4.828  0.3984 -0.1910 -0.2010
 1635W        W 3635   1.621   5.980   0.516 -0.2172  0.1472  0.2501
 1636W        W 3636   4.917   0.277   4.938  0.2496  0.0216  0.3275
 1637W        W 3637   1.864   5.943   5.671 -0.3478 -0.1371 -0.0936
 1638W        W 3638   6.491   6.397   2.105 -0.0357  0.1581  0.0484
 1639W        W 3639   1.281   0.619   4.338 -0.2204 -0.2898  0.2978
 1640W        W 3640   1.633   0.533   3.650  0.4025 -0.1606  0.4548
 1641W        W 3641   0.309   0.683   0.580 -0.4661  0.1157  0.0521
 1642W        W 3642   4.591   4.346   1.218  0.0456  0.0816 -0.0741
 1643W        W 3643   1.890   6.314   3.524 -0.1213  0.1161 -0.3722
 1644W        W 3644   1.087   5.988   6.096 -0.3963 -0.0297 -0.2990
 1645W        W 3645   7.246   4.327   0.220 -0.0849  0.0772  0.0967
 1646W        W 3646   2.524   3.770   3.322 -0.3355  0.1292 -0.0659
 1647W        W 3647   5.149   4.876   6.989  0.2116 -0.3711 -0.1769
 1648W        W 3648   5.557   4.841   0.080 -0.0941 -0.1866 -0.0801
 1649W        W 3649   1.151   3.591   3.491  0.1244  0.1833 -0.0808
 1650W        W 3650   1.664   5.599   5.304 -0.1226 -0.0113  0.1106
 1651W        W 3651   4.355   3.445   1.393  0.2090 -0.1925  0.0452
 1652W        W 3652   3.928   4.737   3.740 -0.0422 -0.2833 -0.2237
 1653W        W 3653   0.232   0.677   1.953 -0.1137 -0.1232 -0.0761
 1654W        W 3654   4.543   5.236   3.241  0.0891 -0.0552 -0.1846
 1655W        W 3655   4.414   0.785   3.714 -0.0576  0.2608  0.1619
 1656W        W 3656   6.750   1.591   4.717 -0.2781  0.0652 -0.0287
 1657W        W 3657   4.658   4.977   1.859 -0.0108 -0.0033  0.0747
 1658W        W 3658   3.517   6.183   0.241 -0.1527 -0.0007  0.1629
 1659W        W 3659   1.369   6.103   1.905  0.0018  0.1319 -0.3256
 1660W        W 3660   2.135   6.463   7.117 -0.1232 -0.1594 -0.0287
 1661W        W 3661   6.577   3.269   6.751  0.2003 -0.1395  0.0611
 1662W        W 3662   0.992   6.927   2.267  0.1738 -0.1148 -0.0396
 1663W        W 3663   1.192   0.310   3.626 -0.1162  0.0730 -0.1065
 1664W        W 3664   6.366   3.259   2.821 -0.0985 -0.0992  0.1827
 1665W        W 3665   0.853   0.377   4.119 -0.2182 -0.0795  0.2257
 1666W        W 3666   4.670   5.732   0.324 -0.1582  0.0174 -0.0657
 1667W        W 3667   7.190   3.847   0.453 -0.0226 -0.0417 -0.1047
 1668W        W 3668   0.583   0.138   5.201 -0.1768  0.0516  0.0336
 1669W        W 3669   0.734   3.896   5.174  0.2143 -0.1647  0.1139
 1670W        W 3670   5.477   1.768   2.721 -0.0078 -0.0861  0.0305
 1671W        W 3671   6.208   3.663   4.957  0.3109  0.1857  0.1015
 1672W        W 3672   0.621   0.631   3.672 -0.3824  0.0563 -0.4224
 1673W        W 3673   3.187   6.853   5.491  0.0447  0.0347 -0.0507
 1674W        W 3674   3.491   4.174   4.527 -0.0367  0.0480  0.2165
 1675W        W 3675   5.001   3.067   2.124 -0.2018 -0.0528 -0.0040
 1676W        W 3676   1.547   3.333   2.531  0.0383  0.2002  0.2963
 1677W        W 3677   3.520   1.179   3.098  0.0856  0.0613 -0.1571
 1678W        W 3678   4.696   7.041   5.765 -0.0024 -0.2939 -0.0241
 1679W        W 3679   5.165   5.848   5.986 -0.0620  0.0325  0.1598
 1680W        W 3680   0.107   0.804   2.562 -0.2243 -0.1446  0.1109
 1681W        W 3681   6.655   3.547   6.360  0.0002  0.2818 -0.2034
 1682W        W 3682   5.879   6.854   7.152 -0.4173 -0.1047 -0.0811
 1683W        W 3683   0.627   1.895   5.819  0.2640 -0.2014 -0.0136
 1684W        W 3684   0.023   6.685   5.967 -0.0683  0.1069 -0.0394
 1685W        W 3685   2.603   0.595   2.741 -0.2979 -0.0893 -0.0599
 1686W        W 3686   4.422   0.283   5.150  0.2350 -0.0135  0.1381
 1687W        W 3687   1.822   5.366   5.714 -0.1874  0.0494 -0.1100
 1688W        W 3688   1.605   3.373   4.806 -0.0844  0.0439  0.2717
 1689W        W 3689   5.476   4.409   4.381 -0.0444 -0.3397  0.1983
 1690W        W 3690   0.290   5.676   1.155  0.1954  0.0547 -0.0458
 1691W        W 3691   5.827   0.892   2.457  0.0076 -0.1584  0.1105
 1692W        W 3692   2.899   6.497   2.588 -0.2933 -0.2356  0.1044
 1693W        W 3693   6.676   6.666   1.432  0.0651  0.0720 -0.0786
 1694W        W 3694   6.044   5.260   3.383  0.1691  0.0361 -0.0278
 1695W        W 3695   0.927   6.583   6.600 -0.0797  0.0593  0.1718
 1696W        W 3696   6.681   5.903   6.359 -0.0297 -0.1011 -0.2182
 1697W        W 3697   0.010   0.071   4.583 -0.0894  0.1560  0.0148
 1698W        W 3698   5.765   4.914   3.132 -0.1252  0.0231 -0.1214
 1699W        W 3699   1.692   7.283   3.111 -0.2841 -0.0585 -0.2007
 1700W        W 3700   6.486   4.828   6.396 -0.0242  0.0488 -0.1902
 1701W        W 3701   5.636   2.100   3.182  0.2344  0.2015 -0.2388
 1702W        W 3702   5.115   5.523   4.673  0.2187  0.0585 -0.2624
 1703W        W 3703   4.777   5.090   4.642 -0.0055  0.0573 -0.3087
 1704W        W 3704   6.901   3.276   0.303  0.0899 -0.0499  0.0240
 1705W        W 3705   6.301   6.854   1.749  0.2202  0.2103 -0.1066
 1706W        W 3706   1.219   4.125   3.617  0.3812 -0.0852 -0.2415
 1707W        W 3707   4.655   3.914   3.491  0.0310  0.1064 -0.0292
 1708W        W 3708   4.777   2.206   4.677 -0.0090  0.1987  0.2679
 1709W        W 3709   0.923   1.973   4.157 -0.0459  0.2227 -0.1890
 1710W        W 3710   5.842   3.081   4.423 -0.2009  0.2045 -0.2565
 1711W        W 3711   1.812   3.981   0.435  0.0314  0.1347  0.1752
 1712W        W 3712   7.108   0.593   0.533  0.4574 -0.1380 -0.1987
 1713W        W 3713   3.852   5.847   4.137  0.2814 -0.0690  0.2520
 1714W        W 3714   4.798   5.679   2.395  0.0668  0.0849  0.0442
 1715W        W 3715   6.954   1.934   5.570  0.1214 -0.1389  0.1621
 1716W        W 3716   6.033   0.894   4.619  0.0473  0.0928  0.2098
 1717W        W 3717   0.808   4.549   6.153  0.0554 -0.1226 -0.2355
 1718W        W 3718   4.241   6.992   4.614 -0.3479  0.0345 -0.0997
 1719W        W 3719   2.976   5.047   3.460  0.1956  0.0776  0.0330
 1720W        W 3720   1.600   3.545   5.772  0.0207 -0.1074  0.0402
 1721W        W 3721   0.547   5.076   2.132  0.0410 -0.2223  0.0524
 1722W        W 3722   5.571   2.593   4.294 -0.0948  0.0674  0.3432
 1723W        W 3723   3.004   1.141   3.269  0.0967  0.0328  0.0482
 1724W        W 3724   6.557   3.885   4.513  0.0694 -0.0158  0.3509
 1725W        W 3725   5.383   0.703   3.944  0.1514 -0.4237  0.0645
 1726W        W 3726   4.450   5.093   4.997 -0.0918  0.0240 -0.0108
 1727W        W 3727   0.843   3.239   0.537 -0.1023 -0.0385  0.0616
 1728W        W 3728   1.410   0.229   4.061 -0.1792 -0.1387  0.0787
 1729W        W 3729   5.670   6.015   0.297  0.4279 -0.2518 -0.0259
 1730W        W 3730   0.639   6.081   2.195  0.1111 -0.0088 -0.1173
 1731W        W 3731   5.397   3.061   2.624 -0.0721  0.0010 -0.0199
 1732W        W 3732   1.789   1.625   4.145 -0.0375 -0.1488 -0.0793
 1733W        W 3733   1.952   3.154   2.174 -0.1441 -0.3697  0.0273
 1734W        W 3734   0.495   3.777   5.703 -0.2007  0.0793 -0.2362
 1735W        W 3735   6.445   1.735   3.432  0.1551  0.0495  0.3217
 1736W        W 3736   4.810   6.221   0.603  0.1194 -0.1656  0.2329
 1737W        W 3737   5.756   4.629   3.654  0.1884 -0.0151 -0.1220
 1738W        W 3738   1.315   3.544   2.936 -0.3800 -0.2535 -0.4082
 1739W        W 3739   3.905   4.453   6.572  0.2562  0.2914 -0.0281
 1740W        W 3740   6.556   0.722   7.064  0.1280 -0.1514  0.1103
 1741W        W 3741   4.271   5.197   0.417  0.2784  0.0710 -0.1687
 1742W        W 3742   3.018   0.479   4.988 -0.0725  0.0094 -0.0563
 1743W        W 3743   0.242   2.596   1.107 -0.3583  0.1805  0.0218
 1744W        W 3744   7.182   4.737   0.479 -0.0395  0.0545  0.1270
 1745W        W 3745   2.984   5.994   1.153 -0.2138 -0.2438  0.1283
 1746W        W 3746   0.198   2.501   0.201  0.1109  0.2553  0.0743
 1747W        W 3747   5.079   5.656   6.895 -0.1309  0.0119 -0.0677
 1748W        W 3748   5.967   6.280   2.126  0.2881  0.3191 -0.1554
 1749W        W 3749   4.392   0.208   2.868  0.0067  0.0244 -0.0232
 1750W        W 3750   1.651   3.580   1.651  0.1542  0.2260 -0.1099
 1751W        W 3751   5.223   4.985   2.910 -0.1016  0.1914 -0.3964
 1752W        W 3752   3.019   4.764   3.885  0.2243 -0.1204  0.2020
 1753W        W 3753   3.813   1.616   2.948 -0.3316  0.1098 -0.0452
 1754W        W 3754   3.339   1.540   2.697  0.0094 -0.2622  0.3044
 1755W        W 3755   4.991   2.167   5.109  0.0509 -0.0506  0.0420
 1756W        W 3756   0.401   2.350   5.978  0.0690 -0.3355 -0.1745
 1757W        W 3757   6.213   0.072   5.261 -0.0859 -0.2289 -0.0978
 1758W        W 3758   4.214   2.701   4.334  0.0095 -0.3115 -0.0959
 1759W        W 3759   5.203   4.361   5.708  0.0348 -0.3502 -0.2986
 1760W        W 3760   1.703   6.155   6.868 -0.0732  0.2449  0.1156
 1761W        W 3761   0.186   2.241   4.575 -0.0928  0.2597 -0.2703
 1762W        W 3762   7.039   4.785   4.106  0.2301  0.1470  0.2737
 1763W        W 3763   3.072   4.786   3.053  0.0101 -0.3026 -0.0336
 1764W        W 3764   4.465   4.297   6.535 -0.0338  0.0654 -0.0098
 1765W        W 3765   2.086   4.532   3.304 -0.0258 -0.2147 -0.0278
 1766W        W 3766   2.165   3.417   1.254  0.0713  0.0290  0.4124
 1767W        W 3767   6.910   0.689   4.752 -0.1081 -0.0585  0.3020
 1768W        W 3768   6.189   7.176   1.365  0.0209 -0.1288 -0.1494
 1769W        W 3769   5.750   3.907   0.572 -0.2284 -0.2725 -0.1017
 1770W        W 3770   5.378   6.128   4.461  0.0917 -0.2420  0.3154
 1771W        W 3771   1.570   5.187   2.339 -0.2992  0.1866  0.0930
 1772W        W 3772   4.454   0.962   3.199 -0.1307 -0.1433 -0.1131
 1773W        W 3773   6.759   3.516   5.459  0.1585 -0.4013 -0.0627
 1774W        W 3774   6.612   5.150   4.194 -0.0023 -0.0043  0.1491
 1775W        W 3775   5.837   0.054   2.009 -0.4576  0.1929 -0.2969
 1776W        W 3776   1.264   4.487   2.115 -0.0846 -0.5303  0.0014
 1777W        W 3777   5.364   6.977   3.270 -0.1462  0.0678 -0.1692
 1778W        W 3778   2.255   6.744   2.990 -0.0382 -0.1617  0.0922
 1779W        W 3779   4.343   4.435   3.821  0.2544  0.1327 -0.0764
 1780W        W 3780   0.934   3.844   2.661 -0.4677  0.1995 -0.2854
 1781W        W 3781   0.432   4.125   6.176 -0.2028 -0.5391  0.0015
 1782W        W 3782   0.589   0.595   1.564 -0.2823  0.2643  0.2625
 1783W        W 3783   3.047   6.700   1.945  0.1974 -0.0229 -0.1133
 1784W        W 3784   1.722   4.874   1.377 -0.4189 -0.0957  0.2434
 1785W        W 3785   0.095   3.006   4.032  0.1308 -0.0917  0.0834
 1786W        W 3786   5.168   4.559   1.194 -0.0600  0.1053 -0.0566
 1787W        W 3787   5.734   2.841   3.502 -0.0401  0.2470  0.1576
 1788W        W 3788   4.053   6.019   4.589 -0.0737  0.3169  0.0164
 1789W        W 3789   2.532   4.279   1.981  0.0018 -0.0257 -0.0199
 1790W        W 3790   7.158   6.067   2.774 -0.0210  0.0054  0.0704
 1791W        W 3791   5.687   7.141   2.911  0.2846  0.0577 -0.1238
 1792W        W 3792   6.347   7.018   7.045  0.1229  0.2295 -0.2556
 1793W        W 3793   1.926   5.493   0.646  0.0706  0.0836  0.0208
 1794W        W 3794   6.831   4.950   2.855  0.1343  0.2396  0.1920
 1795W        W 3795   6.290   5.649   4.439 -0.2124  0.1950  0.0940
 1796W        W 3796   0.816   0.956   5.523 -0.2153 -0.0372  0.3639
 1797W        W 3797   0.126   1.689   7.043  0.2317  0.1185 -0.2486
 1798W        W 3798   2.304   5.839   4.210  0.3179  0.3027 -0.1275
 1799W        W 3799   6.179   3.519   4.443  0.2614  0.0012 -0.0235
 1800W        W 3800   3.238   4.998   2.231  0.0945 -0.2349  0.1126
 1801W        W 3801   2.362   6.088   3.725 -0.0570 -0.1532 -0.1852
 1802W        W 3802   3.443   4.744   0.761  0.2344  0.1046  0.1219
 1803W        W 3803   3.028   5.355   1.908  0.0578 -0.0451 -0.2028
 1804W        W 3804   6.113   0.056   0.847 -0.0577 -0.0381  0.1487
 1805W        W 3805   2.708   2.573   4.031  0.0239 -0.1826  0.0251
 1806W        W 3806   1.512   6.999   2.526  0.0819 -0.1295  0.0863
 1807W        W 3807   5.175   2.834   5.197 -0.1545  0.1774 -0.1439
 1808W        W 3808   6.780   7.235   3.406  0.0013 -0.0612  0.0582
 1809W        W 3809   1.132   6.290   4.272 -0.4445 -0.2822 -0.1154
 1810W        W 3810   1.599   3.267   4.264  0.2034 -0.0565 -0.1080
 1811W        W 3811   4.847   3.829   5.102 -0.1157  0.0202 -0.0531
 1812W        W 3812   6.732   3.780   5.942 -0.0088 -0.0595 -0.0850
 1813W        W 3813   4.862   6.145   4.783  0.1173 -0.2419 -0.1418
 1814W        W 3814   6.647   6.882   4.316 -0.2555  0.3632  0.0322
 1815W        W 3815   3.539   6.692   1.043  0.1722  0.2608  0.0005
 1816W        W 3816   0.453   5.080   6.627  0.0675 -0.0950 -0.3161
 1817W        W 3817   5.468   5.802   3.940  0.0946  0.0119 -0.0955
 1818W        W 3818   6.171   5.230   5.222 -0.0322  0.4563 -0.0277
 1819W        W 3819   4.865   7.180   2.074  0.3167  0.1007 -0.1184
 1820W        W 3820   1.705   6.374   0.908 -0.3854  0.0956 -0.0155
 1821W        W 3821   5.409   5.714   5.530  0.1628 -0.2575 -0.1871
 1822W        W 3822   1.595   0.738   5.113  0.1235  0.2292 -0.1459
 1823W        W 3823   2.218   5.150   6.972 -0.1953  0.3120  0.0286
 1824W        W 3824   2.387   0.570   4.924 -0.0880  0.0227 -0.1262
 1825W        W 3825   0.609   5.785   6.766  0.0136  0.1250  0.1636
 1826W        W 3826   3.952   0.928   3.425  0.3263  0.1001 -0.0333
 1827W        W 3827   3.447   0.413   2.837  0.0103  0.0736  0.0758
 1828W        W 3828   1.968   5.443   4.920  0.1292  0.1865 -0.1893
 1829W        W 3829   4.963   1.480   3.175 -0.0547 -0.0281  0.0932
 1830W        W 3830   4.090   6.110   6.650 -0.0799  0.2959  0.2337
 1831W        W 3831   4.353   0.420   2.438 -0.2006 -0.0099 -0.0447
 1832W        W 3832   1.224   4.688   1.549  0.0208 -0.0204 -0.0722
 1833W        W 3833   6.845   4.162   2.458  0.0070  0.0649 -0.1944
 1834W        W 3834   6.027   2.369   0.762 -0.3108 -0.2080 -0.0433
 1835W        W 3835   4.880   0.019   5.348 -0.1894  0.1304  0.1211
 1836W        W 3836   0.388   3.619   3.316 -0.0294 -0.0868  0.0551
 1837W        W 3837   4.498   4.237   2.992 -0.1089  0.0681 -0.1466
 1838W        W 3838   6.867   7.113   2.469 -0.0276 -0.0809  0.0789
 1839W        W 3839   5.519   2.942   4.818  0.1425 -0.0479  0.0103
 1840W        W 3840   0.857   0.323   4.667  0.2250 -0.1507 -0.1619
 1841W        W 3841   6.405   3.264   5.689  0.2719 -0.3821 -0.5329
 1842W        W 3842   4.869   6.692   6.729 -0.4147 -0.1205  0.0312
 1843W        W 3843   6.776   6.512   4.813  0.1184  0.0088  0.0612
 1844W        W 3844   3.081   5.729   2.195  0.0334 -0.0112 -0.1024
 1845W        W 3845   6.797   6.871   3.795  0.0670  0.1916  0.0358
 1846W        W 3846   6.531   2.713   0.950 -0.0494  0.1035 -0.0557
 1847W        W 3847   0.884   3.300   4.443 -0.0094  0.1234 -0.0143
 1848W        W 3848   5.380   4.559   4.829 -0.3617 -0.0509 -0.0267
 1849W        W 3849   3.894   5.739   1.887  0.0080  0.2157 -0.1792
 1850W        W 3850   6.351   1.496   6.245 -0.6395  0.1117  0.0478
 1851W        W 3851   1.315   6.897   0.277  0.2354  0.0724  0.1078
 1852W        W 3852   0.769   1.401   0.662 -0.3958  0.1368 -0.1084
 1853W        W 3853   1.957   1.976   4.437 -0.0089  0.2540 -0.0327
 1854W        W 3854   6.675   6.058   5.877 -0.0202 -0.2647  0.3214
 1855W        W 3855   0.224   2.442   4.078 -0.1803  0.0417  0.0099
 1856W        W 3856   1.401   5.636   2.534  0.3398 -0.0181 -0.0928
 1857W        W 3857   3.885   6.401   1.221  0.2078  0.0128 -0.1140
 1858W        W 3858   7.044   6.160   4.452 -0.2598  0.1367  0.2319
 1859W        W 3859   3.046   2.124   3.378 -0.2100 -0.1613  0.0950
 1860W        W 3860   3.360   5.067   1.672 -0.1271  0.3132 -0.0514
 1861W        W 3861   5.351   0.582   1.155 -0.2194  0.3728 -0.3447
 1862W        W 3862   4.528   3.418   5.033  0.0136 -0.0000 -0.2527
 1863W        W 3863   5.104   3.880   5.570  0.1406 -0.1003 -0.0571
 1864W        W 3864   7.157   2.877   1.279  0.0049 -0.2664  0.0441
 1865W        W 3865   1.216   4.889   4.877 -0.0239 -0.0452 -0.0336
 1866W        W 3866   4.231   6.046   2.315 -0.0565 -0.4147 -0.0352
 1867W        W 3867   6.292   2.366   6.232 -0.0917  0.0420  0.1181
 1868W        W 3868   1.692   4.985   6.995 -0.2326  0.1557  0.0801
 1869W        W 3869   1.715   6.558   2.760  0.3576  0.0508  0.2071
 1870W        W 3870   5.119   4.025   0.062  0.1705 -0.0125  0.0556
 1871W        W 3871   2.763   5.534   5.488  0.2792 -0.2895  0.3226
 1872W        W 3872   6.170   4.682   2.276  0.1202  0.0127  0.1969
 1873W        W 3873   4.847   0.615   3.968  0.0740  0.1027  0.0687
 1874W        W 3874   3.686   2.886   3.397 -0.1470  0.1364  0.1629
 1875W        W 3875   3.390   7.007   3.464  0.0414 -0.0034  0.0562
 1876W        W 3876   0.904   5.805   4.949 -0.0165 -0.1641 -0.0793
 1877W        W 3877   0.335   4.632   4.331 -0.3087  0.0998 -0.1857
 1878W        W 3878   5.387   0.325   4.669  0.0156 -0.2470  0.0119
 1879W        W 3879   6.208   3.813   1.311 -0.0242  0.0680 -0.1082
 1880W        W 3880   3.899   5.253   1.849  0.1551 -0.0295  0.0175
 1881W        W 3881   5.381   7.064   1.972  0.3477  0.2349 -0.7254
 1882W        W 3882   1.480   5.792   6.491  0.1288  0.0036  0.1475
 1883W        W 3883   3.877   6.415   5.209 -0.1426  0.1151  0.1426
 1884W        W 3884   2.559   6.830   1.886 -0.1022 -0.2322 -0.3338
 1885W        W 3885   0.075   7.065   0.796  0.1272 -0.2286  0.0537
 1886W        W 3886   1.315   2.049   1.812  0.3191 -0.0036 -0.0480
 1887W        W 3887   2.427   6.114   0.169  0.3171 -0.1683 -0.0045
 1888W        W 3888   0.158   6.177   0.713 -0.0091  0.0127 -0.1911
 1889W        W 3889   0.105   1.562   4.733  0.1703  0.1404 -0.0193
 1890W        W 3890   7.289   6.645   5.229 -0.5790 -0.3751 -0.3925
 1891W        W 3891   2.339   5.518   2.371  0.0286  0.0403  0.2431
 1892W        W 3892   5.843   4.793   5.539  0.2752  0.2078 -0.0373
 1893W        W 3893   6.182   4.855   6.014  0.1961 -0.0168  0.0267
 1894W        W 3894   3.230   5.628   0.300 -0.0097  0.1783  0.0444
 1895W        W 3895   4.795   5.291   1.517  0.1006 -0.2023 -0.4052
 1896W        W 3896   4.644   2.114   4.082  0.1177  0.2528 -0.2634
 1897W        W 3897   5.249   0.143   2.312  0.3126  0.0103 -0.0238
 1898W        W 3898   7.153   3.557   3.397 -0.0996 -0.1182  0.2855
 1899W        W 3899   6.929   0.606   3.885  0.0777  0.2103  0.1739
 1900W        W 3900   2.262   5.980   2.173 -0.3373 -0.2434 -0.1558
 1901W        W 3901   6.435   3.204   5.125  0.0196  0.2270  0.1556
 1902W        W 3902   2.632   6.369   5.994  0.2082 -0.1390  0.0420
 1903W        W 3903   0.648   4.151   4.754 -0.2370  0.0483 -0.0675
 1904W        W 3904   2.402   2.545   2.611  0.0820 -0.0938  0.1827
 1905W        W 3905   1.236   3.825   6.966  0.1227 -0.2627 -0.0948
 1906W        W 3906   5.252   1.328   1.867  0.1179  0.3571 -0.0406
 1907W        W 3907   1.170   6.669   3.492  0.4332 -0.1182 -0.0848
 1908W        W 3908   3.889   1.421   3.405 -0.1995 -0.1276 -0.0461
 1909W        W 3909   3.076   0.621   2.596  0.2195 -0.0393  0.1504
 1910W        W 3910   0.553   5.392   7.060  0.0135 -0.2075  0.1170
 1911W        W 3911   6.129   5.594   1.831 -0.1939 -0.4079 -0.1794
 1912W        W 3912   3.543   6.198   3.144  0.1561  0.2392  0.0010
 1913W        W 3913   5.877   5.393   4.784  0.0342  0.1226  0.0383
 1914W        W 3914   1.067   6.237   5.168  0.5099  0.0423  0.0107
 1915W        W 3915   5.624   5.186   0.493  0.1028  0.3258 -0.2433
 1916W        W 3916   1.700   5.936   2.823 -0.1060  0.1342  0.0427
 1917W        W 3917   4.391   1.198   4.827 -0.1771 -0.0751 -0.0447
 1918W        W 3918   3.148   6.432   3.366 -0.0641 -0.0043  0.0111
 1919W        W 3919   1.142   4.684   3.467 -0.2550  0.2607 -0.0812
 1920W        W 3920   6.957   6.842   0.081  0.0454  0.2847 -0.1002
 1921W        W 3921   3.699   5.090   4.680  0.0206  0.0929 -0.3189
 1922W        W 3922   4.828   4.887   1.046  0.0525  0.2265 -0.2159
 1923W        W 3923   6.872   4.221   5.779  0.1466  0.2779  0.0991
 1924W        W 3924   0.037   4.344   1.620  0.2076  0.1643 -0.0883
 1925W        W 3925   1.053   4.506   0.068  0.1114 -0.0217 -0.3229
 1926W        W 3926   2.909   4.981   6.411  0.1508  0.1045  0.1503
 1927W        W 3927   0.104   2.801   2.156 -0.2840  0.0103 -0.2308
 1928W        W 3928   1.733   4.494   7.005  0.0946 -0.2939 -0.2700
 1929W        W 3929   1.892   6.394   0.304  0.2429  0.3542  0.2952
 1930W        W 3930   1.215   4.187   6.274  0.0514 -0.1414  0.2112
 1931W        W 3931   2.934   3.019   4.920  0.0525 -0.0636 -0.1949
 1932W        W 3932   6.598   0.124   0.884  0.2298  0.1131  0.0865
 1933W        W 3933   2.057   4.336   5.740 -0.0905 -0.2871  0.0163
 1934W        W 3934   4.241   0.511   3.232 -0.0428  0.0161 -0.0221
 1935W        W 3935   2.670   5.974   0.681 -0.1721  0.3121  0.2315
 1936W        W 3936   5.025   6.499   1.172  0.2766 -0.0611 -0.1758
 1937W        W 3937   3.713   5.608   3.316  0.1377 -0.0466 -0.3267
 1938W        W 3938   1.037   0.480   5.468  0.0301 -0.1142  0.1652
 1939W        W 3939   3.034   6.921   3.111  0.3931  0.1041  0.2044
 1940W        W 3940   5.192   1.492   5.426 -0.0901 -0.0622  0.0898
 1941W        W 3941   1.284   4.727   5.409  0.2567  0.0389  0.1329
 1942W        W 3942   0.526   2.801   2.711  0.0667 -0.2120 -0.0332
 1943W        W 3943   3.674   6.374   4.774  0.1096 -0.0249  0.0665
 1944W        W 3944   1.076   2.544   6.370  0.3004 -0.1194  0.1141
 1945W        W 3945   5.782   6.008   6.339  0.0305  0.0017  0.0620
 1946W        W 3946   1.957   6.128   6.454 -0.0398 -0.0098  0.0974
 1947W        W 3947   7.135   2.330   1.333  0.2696  0.0967  0.0161
 1948W        W 3948   2.729   3.328   3.566 -0.1248 -0.0408  0.0645
 1949W        W 3949   4.415   3.097   1.750  0.0050 -0.0148  0.0480
 1950W        W 3950   5.874   3.168   4.996  0.0971 -0.2135 -0.0222
 1951W        W 3951   1.022   6.434   2.235  0.2561  0.0039  0.0461
 1952W        W 3952   2.340   1.801   4.185 -0.1002 -0.2696  0.0914
 1953W        W 3953   5.637   6.809   5.975  0.0167 -0.3736  0.1258
 1954W        W 3954   4.224   6.096   1.453  0.2335  0.1502 -0.1859
 1955W        W 3955   6.338   2.223   6.774  0.0298  0.4044  0.1755
 1956W        W 3956   3.706   6.023   1.521  0.2379  0.2270  0.3003
 1957W        W 3957   3.273   6.988   1.499 -0.0545  0.4270  0.0406
 1958W        W 3958   4.521   5.812   3.328 -0.3581  0.1455  0.1932
 1959W        W 3959   4.552   1.157   2.713 -0.3093  0.1655 -0.0825
 1960W        W 3960   5.697   7.018   2.407  0.1357 -0.1155  0.0352
 1961W        W 3961   3.519   7.164   2.930  0.1167  0.3363  0.1410
 1962W        W 3962   3.239   5.379   6.246  0.1551 -0.0184  0.2991
 1963W        W 3963   1.658   6.645   6.711  0.0517  0.3167 -0.2380
 1964W        W 3964   2.141   5.666   1.085 -0.0382  0.2482 -0.2764
 1965W        W 3965   6.414   0.649   3.717 -0.0141  0.0876 -0.0120
 1966W        W 3966   2.571   6.816   3.958 -0.0091  0.1290  0.1111
 1967W        W 3967   4.285   3.870   4.973  0.1318 -0.0044 -0.1605
 1968W        W 3968   6.329   0.364   2.278  0.2582 -0.0133  0.1993
 1969W        W 3969   6.761   7.205   5.230 -0.0318 -0.2099  0.2492
 1970W        W 3970   3.904   4.141   5.384  0.2801  0.0663  0.0183
 1971W        W 3971   4.785   1.779   5.405  0.4514  0.0104 -0.0237
 1972W        W 3972   6.361   3.490   1.664  0.0706  0.0881 -0.1359
 1973W        W 3973   3.765   4.129   3.210  0.2731  0.0632 -0.2178
 1974W        W 3974   3.512   5.419   2.221  0.2204 -0.0431 -0.0813
 1975W        W 3975   4.761   1.248   4.505  0.0004  0.2524 -0.1676
 1976W        W 3976   4.711   1.824   2.105  0.0240 -0.1523  0.3670
 1977W        W 3977   3.922   4.395   0.725  0.3523 -0.0968  0.2831
 1978W        W 3978   1.831   2.936   3.964  0.2847  0.2925  0.3778
 1979W        W 3979   1.852   3.018   5.043 -0.0162 -0.0199 -0.0776
 1980W        W 3980   5.501   0.310   2.742 -0.0384  0.0898  0.2699
 1981W        W 3981   6.791   3.237   1.438 -0.2569 -0.0004 -0.0077
 1982W        W 3982   2.115   4.307   6.665 -0.1507  0.0029 -0.2694
 1983W        W 3983   5.202   5.744   2.041 -0.0590  0.1265 -0.0025
 1984W        W 3984   2.728   3.609   2.439  0.1131 -0.0268 -0.3144
 1985W        W 3985   1.110   5.363   5.026 -0.4134  0.2058 -0.0520
 1986W        W 3986   7.006   2.598   0.886 -0.0476 -0.1529  0.0665
 1987W        W 3987   5.599   3.379   3.531  0.0321 -0.0764 -0.1033
 1988W        W 3988   1.687   6.222   4.036  0.0620 -0.2704 -0.0175
 1989W        W 3989   0.517   1.784   4.494  0.0512 -0.5684 -0.1954
 1990W        W 3990   0.780   4.046   6.527 -0.3335  0.1631 -0.1977
 1991W        W 3991   5.334   2.951   1.683  0.1500  0.0733  0.0164
 1992W        W 3992   4.107   4.530   2.864 -0.2759 -0.0082 -0.1039
 1993W        W 3993   3.001   5.749   4.955 -0.4175  0.2281 -0.0419
 1994W        W 3994   5.962   2.929   0.916 -0.0287 -0.0293  0.2085
 1995W        W 3995   4.296   6.439   7.012  0.3994 -0.0230  0.0181
 1996W        W 3996   6.173   1.472   3.770 -0.0527 -0.0211  0.0816
 1997W        W 3997   2.271   3.249   5.113  0.1910 -0.0013  0.0049
 1998W        W 3998   0.927   1.593   1.372 -0.0206 -0.1932 -0.0355
 1999W        W 3999   1.308   3.743   5.279 -0.1814 -0.1403  0.4751
 2000W        W 4000   5.413   2.561   3.326 -0.2327 -0.1113  0.1418
 2001W        W 4001   2.802   6.496   5.422  0.0218  0.1681 -0.2290
 2002W        W 4002   0.710   6.580   7.113  0.2403 -0.0555 -0.0436
 2003W        W 4003   3.820   5.414   0.252 -0.1677 -0.0533 -0.1417
 2004W        W 4004   1.762   4.286   2.945 -0.0921 -0.1282 -0.1559
 2005W        W 4005   4.034   6.202   3.843  0.1518 -0.0883 -0.1792
 2006W        W 4006   3.536   0.036   4.810  0.2734  0.1826  0.0030
 2007W        W 4007   0.138   0.140   0.429 -0.0814 -0.0611 -0.1619
 2008W        W 4008   2.034   3.640   4.791  0.0129  0.1198 -0.0391
 2009W        W 4009   0.506   2.836   3.850 -0.0016  0.1478  0.3551
 2010W        W 4010   4.841   1.248   2.151 -0.0465  0.1485  0.0933
 2011W        W 4011   2.427   4.730   1.672 -0.3547 -0.1286  0.0636
 2012W        W 4012   2.180   6.320   4.452 -0.0656 -0.2134  0.2081
 2013W        W 4013   2.023   4.800   6.665 -0.0138 -0.2543  0.0133
 2014W        W 4014   1.435   0.823   2.019 -0.0303  0.0377 -0.1553
 2015W        W 4015   6.449   5.064   2.189  0.2875  0.1276 -0.1869
 2016W        W 4016   6.592   6.672   6.552  0.1447  0.0311 -0.0999
 2017W        W 4017   3.926   3.660   1.228  0.1803  0.0129  0.0678
 2018W        W 4018   6.553   2.652   5.118 -0.0811  0.2652  0.2790
 2019W        W 4019   5.003   1.336   5.014 -0.1942 -0.1281  0.0855
 2020W        W 4020   1.092   7.262   5.008  0.0444 -0.1567 -0.2974
 2021W        W 4021   6.439   6.034   6.813 -0.0879 -0.2641 -0.0714
 2022W        W 4022   1.250   4.380   6.737  0.1372  0.2533 -0.1535
 2023W        W 4023   0.790   6.831   1.636 -0.1138  0.3115  0.0729
 2024W        W 4024   0.936   6.829   0.535 -0.0523  0.1426  0.0436
 2025W        W 4025   3.442   3.207   4.093  0.0176  0.1768 -0.0191
 2026W        W 4026   4.872   7.220   3.316 -0.3955  0.2535  0.1640
 2027W        W 4027   1.862   3.970   1.510  0.0968  0.1574 -0.0972
 2028W        W 4028   3.081   5.995   3.585 -0.0591 -0.2192  0.0555
 2029W        W 4029   5.165   5.256   2.440 -0.0810 -0.3310  0.0171
 2030W        W 4030   0.596   1.093   5.072  0.1131 -0.3098  0.0970
 2031W        W 4031   6.344   1.243   0.005 -0.1001  0.1285 -0.0340
 2032W        W 4032   4.666   0.982   5.138  0.1231 -0.3230  0.2443
 2033W        W 4033   0.545   1.789   6.746  0.2007 -0.0296 -0.1323
 2034W        W 4034   4.096   4.098   0.329  0.2852 -0.3064 -0.3367
 2035W        W 4035   2.885   1.543   2.667  0.4057  0.2796  0.0210
 2036W        W 4036   4.531   6.910   3.783  0.1666 -0.1351 -0.2134
 2037W        W 4037   6.921   1.876   0.401 -0.3211  0.1418  0.0054
 2038W        W 4038   0.180   4.056   4.462  0.0669  0.1625  0.0500
 2039W        W 4039   2.643   1.585   3.728  0.3147 -0.1607 -0.2046
 2040W        W 4040   4.698   2.911   3.367 -0.2981  0.1778 -0.3789
 2041W        W 4041   1.644   0.388   1.988  0.0034  0.1471  0.1884
 2042W        W 4042   2.377   5.638   3.476  0.2202 -0.0592 -0.1089
 2043W        W 4043   1.193   6.729   3.966  0.0235 -0.0858  0.1367
 2044W        W 4044   6.407   3.767   3.100  0.0265  0.2020  0.1319
 2045W        W 4045   4.562   2.116   2.570  0.2373 -0.0001  0.0338
 2046W        W 4046   2.985   0.392   4.022 -0.1286  0.1677 -0.0387
 2047W        W 4047   0.475   4.406   6.721 -0.0118 -0.2013 -0.0006
 2048W        W 4048   6.035   0.695   6.831 -0.2801 -0.0619  0.0133
 2049W        W 4049   6.762   4.741   0.915  0.1812 -0.2717  0.3091
 2050W        W 4050   6.689   5.326   5.368  0.1813  0.1251  0.0557
 2051W        W 4051   4.970   4.780   5.696 -0.1404  0.0218 -0.3136
 2052W        W 4052   6.709   6.929   2.960  0.0409  0.0964 -0.1223
 2053W        W 4053   6.792   6.955   6.893  0.3478  0.1079  0.1637
 2054W        W 4054   5.852   4.458   4.775 -0.0280 -0.0557 -0.3957
 2055W        W 4055   4.076   5.616   6.843 -0.1876  0.0351  0.2350
 2056W        W 4056   5.901   0.849   1.436 -0.0809  0.1283  0.0814
 2057W        W 4057   6.071   7.116   4.349  0.0647  0.3247 -0.1562
 2058W        W 4058   5.509   4.874   5.917 -0.0446  0.1305  0.0052
 2059W        W 4059   4.158   6.498   5.616  0.1086 -0.1254  0.1518
 2060W        W 4060   5.420   6.555   1.839  0.0160  0.2353 -0.1035
 2061W        W 4061   7.016   3.270   4.500 -0.0112  0.0464  0.1499
 2062W        W 4062   6.745   7.161   1.581 -0.0175 -0.4132  0.1249
 2063W        W 4063   6.841   1.438   0.614  0.1880 -0.0162  0.1904
 2064W        W 4064   1.335   5.539   3.675 -0.3075  0.3116  0.0672
 2065W        W 4065   3.260   4.011   3.326 -0.0218  0.2212 -0.1981
 2066W        W 4066   5.677   5.377   5.262 -0.1161  0.0267 -0.3380
 2067W        W 4067   7.024   2.010   4.773 -0.1665  0.0538  0.6047
 2068W        W 4068   6.419   6.494   5.799  0.2437  0.0624 -0.0140
 2069W        W 4069   2.437   5.321   5.786 -0.3057  0.1102 -0.0355
 2070W        W 4070   3.920   4.757   1.589 -0.3221 -0.2206 -0.0263
 2071W        W 4071   6.937   6.061   3.298  0.1919 -0.2466  0.1781
 2072W        W 4072   0.778   6.347   0.716 -0.1533 -0.0094  0.0775
 2073W        W 4073   1.236   6.125   0.862  0.0163 -0.2960  0.0187
 2074W        W 4074   0.897   3.733   0.026  0.2674  0.3170  0.0565
 2075W        W 4075   6.309   1.926   5.937 -0.0651 -0.0937  0.0170
 2076W        W 4076   0.564   6.297   4.962  0.0926  0.3870 -0.2559
 2077W        W 4077   6.245   2.557   7.113 -0.0240  0.0744  0.0240
 2078W        W 4078   5.552   7.209   0.062 -0.1934  0.0920  0.1567
 2079W        W 4079   4.883   5.183   6.713 -0.0429 -0.0793 -0.0379
 2080W        W 4080   6.544   4.196   3.438  0.4566 -0.2447  0.2365
 2081W        W 4081   1.231   3.963   0.303 -0.2486  0.0595 -0.4106
 2082W        W 4082   0.573   3.263   5.895 -0.1716 -0.1363  0.3718
 2083W        W 4083   6.263   0.099   1.818 -0.0346 -0.2010  0.0123
 2084W        W 4084   2.804   6.732   1.447 -0.0729 -0.0239 -0.0807
 2085W        W 4085   1.562   5.512   3.125  0.1763  0.0448  0.3799
 2086W        W 4086   7.240   7.037   6.970  0.1391 -0.1951 -0.0618
 2087W        W 4087   1.228   0.253   3.125  0.1902  0.2887 -0.1748
 2088W        W 4088   0.000   1.189   7.167 -0.1829  0.0880  0.1492
 2089W        W 4089   5.041   0.792   4.374 -0.0605 -0.2388  0.0040
 2090W        W 4090   1.495   6.131   2.401  0.1435 -0.1057 -0.1720
 2091W        W 4091   0.725   0.670   2.034  0.0582 -0.0657  0.0634
 2092W        W 4092   6.989   2.493   2.342 -0.2160  0.0552 -0.0766
 2093W        W 4093   2.080   7.040   6.133 -0.0921  0.1388  0.0536
 2094W        W 4094   5.060   3.885   2.585 -0.1670  0.0393 -0.0034
 2095W        W 4095   5.210   4.993   1.363  0.4214 -0.0786  0.0066
 2096W        W 4096   5.842   0.497   2.181 -0.1042  0.2069 -0.0559
 2097W        W 4097   1.520   2.897   2.312  0.1416  0.1033  0.0812
 2098W        W 4098   5.288   1.990   5.527  0.2529 -0.0021  0.6025
 2099W        W 4099   4.271   5.608   0.026 -0.0249  0.0429  0.1020
 2100W        W 4100   6.262   6.870   0.993 -0.0700  0.0382 -0.0696
 2101W        W 4101   2.747   6.426   3.674  0.1499  0.3088  0.0864
 2102W        W 4102   3.558   5.985   2.223 -0.2204  0.3008  0.1841
 2103W        W 4103   1.488   6.358   3.177  0.0051 -0.1061  0.3212
 2104W        W 4104   4.696   2.631   2.454  0.2426  0.0635  0.0301
 2105W        W 4105   6.001   1.218   5.024  0.2442 -0.1446 -0.1627
 2106W        W 4106   5.798   5.675   5.834  0.1075 -0.1266  0.1738
 2107W        W 4107   5.810   4.020   6.359  0.0869  0.1040  0.1809
 2108W        W 4108   0.488   7.206   4.697  0.0509  0.0908  0.1851
 2109W        W 4109   5.461   6.359   3.208  0.5038 -0.1351 -0.1586
 2110W        W 4110   1.770   3.944   6.042  0.0800 -0.0694  0.0489
 2111W        W 4111   5.241   1.190   4.552  0.3770 -0.0652  0.2211
 2112W        W 4112   0.127   7.136   2.794  0.0858  0.0177  0.0096
 2113W        W 4113   1.406   4.740   1.005  0.0544  0.2760  0.1721
 2114W        W 4114   4.234   2.382   3.923  0.1684 -0.1282  0.0871
 2115W        W 4115   1.271   4.544   4.076  0.1277  0.1250  0.1337
 2116W        W 4116   2.863   3.863   2.869 -0.0637  0.1515  0.0509
 2117W        W 4117   1.976   5.440   4.385 -0.0649  0.3501 -0.4395
 2118W        W 4118   4.574   6.407   2.991 -0.0661  0.0719  0.1969
 2119W        W 4119   6.801   0.244   5.712 -0.0017  0.0570  0.3982
 2120W        W 4120   5.308   5.856   2.596  0.0437 -0.2012  0.1403
 2121W        W 4121   5.747   6.382   7.212 -0.3585  0.1441  0.0189
 2122W        W 4122   5.064   0.182   5.773  0.1645 -0.1439 -0.2157
 2123W        W 4123   1.452   4.036   1.917  0.0410 -0.0393  0.1388
 2124W        W 4124   3.808   5.967   5.041 -0.0823  0.3057 -0.0680
 2125W        W 4125   0.650   5.331   0.951 -0.1241  0.1885  0.2193
 2126W        W 4126   2.093   4.953   3.572 -0.1054 -0.0211  0.0834
 2127W        W 4127   4.064   2.106   2.478 -0.4066  0.0170  0.3103
 2128W        W 4128   2.189   0.270   2.964 -0.4484 -0.3803 -0.0995
 2129W        W 4129   1.580   2.790   3.368 -0.2154 -0.0574  0.0767
 2130W        W 4130   0.452   3.783   7.114 -0.1459 -0.1094 -0.1610
 2131W        W 4131   6.248   2.709   0.463 -0.2051  0.5165  0.0327
 2132W        W 4132   6.547   5.932   1.747  0.0873  0.0606  0.1552
 2133W        W 4133   1.463   4.764   6.571  0.0071  0.0631  0.3062
 2134W        W 4134   4.425   5.208   6.898  0.3619 -0.5057  0.1164
 2135W        W 4135   0.768   5.640   1.392 -0.0643 -0.1251 -0.0872
 2136W        W 4136   4.357   4.537   1.736 -0.1514  0.0821 -0.0062
 2137W        W 4137   1.989   3.549   3.341 -0.0757  0.0431 -0.0493
 2138W        W 4138   2.195   6.056   6.904  0.0609 -0.1381  0.0877
 2139W        W 4139   5.010   5.892   0.084 -0.0920  0.0304 -0.0257
 2140W        W 4140   6.599   4.135   1.034 -0.0342 -0.1041  0.3657
 2141W        W 4141   3.095   4.357   5.785 -0.1382  0.1572 -0.0449
 2142W        W 4142   1.242   1.565   4.055  0.1301  0.0830  0.0842
 2143W        W 4143   0.838   5.338   3.530  0.2643 -0.0669 -0.1645
 2144W        W 4144   5.314   6.569   7.062  0.0834 -0.3589  0.1523
 2145W        W 4145   1.994   4.802   0.117  0.2918  0.2851 -0.1421
 2146W        W 4146   0.912   3.537   1.813 -0.0387  0.1416 -0.1413
 2147W        W 4147   5.154   4.729   3.476  0.0002  0.0156 -0.0810
 2148W        W 4148   3.494   3.815   1.420  0.0473 -0.2037  0.3561
 2149W        W 4149   6.510   6.729   2.528 -0.1019 -0.2590 -0.2625
 2150W        W 4150   0.904   3.642   3.989 -0.0817 -0.1672  0.2535
 2151W        W 4151   3.439   6.093   6.902 -0.2089  0.4443  0.1188
 2152W        W 4152   2.409   4.544   0.920  0.0093  0.0952  0.1395
 2153W        W 4153   0.645   2.508   6.693 -0.2992  0.1067  0.1858
 2154W        W 4154   0.668   5.719   2.804  0.0413  0.0770  0.0406
 2155W        W 4155   7.268   4.387   2.256  0.2041  0.2342  0.1487
 2156W        W 4156   7.266   1.658   2.097 -0.0429 -0.1498 -0.0011
 2157W        W 4157   4.883   7.165   0.283 -0.1115 -0.0918  0.2074
 2158W        W 4158   0.052   0.703   3.674 -0.0060 -0.0579  0.0137
 2159W        W 4159   4.314   6.229   0.673  0.0894 -0.1042  0.0328
 2160W        W 4160   6.484   7.130   5.596 -0.0443 -0.0307 -0.2379
 2161W        W 4161   2.683   6.961   5.234  0.2965  0.1692 -0.3138
 2162W        W 4162   2.661   7.135   2.875  0.1021 -0.1540  0.1040
 2163W        W 4163   4.116   4.459   1.228  0.0668  0.1207 -0.3097
 2164W        W 4164   6.032   0.233   4.585  0.0550 -0.2500 -0.1009
 2165W        W 4165   2.816   4.753   2.108 -0.1311 -0.1606 -0.1694
 2166W        W 4166   5.380   0.743   5.741  0.0513 -0.1181 -0.1509
 2167W        W 4167   7.065   3.974   5.394 -0.1297 -0.1134  0.0867
 2168W        W 4168   0.051   6.227   4.832 -0.1945  0.2432  0.0105
 2169W        W 4169   3.508   7.233   4.289 -0.2913 -0.0737  0.1250
 2170W        W 4170   3.346   0.379   4.477  0.0774 -0.0978 -0.1173
 2171W        W 4171   5.198   3.450   5.944  0.1145 -0.1274 -0.0415
 2172W        W 4172   6.997   5.664   1.025  0.1540 -0.4140  0.0304
 2173W        W 4173   2.343   6.802   4.387 -0.0735 -0.2217  0.1188
 2174W        W 4174   6.945   6.325   6.636 -0.0682 -0.0281  0.0058
 2175W        W 4175   0.490   3.567   4.893 -0.1427  0.0330  0.0726
 2176W        W 4176   0.771   0.873   4.114 -0.1090 -0.1774 -0.0122
 2177W        W 4177   5.115   5.868   5.131  0.0505  0.4058 -0.1815
 2178W        W 4178   2.003   5.711   3.193  0.2538  0.0067  0.0596
 2179W        W 4179   4.112   3.361   2.201 -0.0139  0.1290 -0.2682
 2180W        W 4180   7.162   5.953   5.746 -0.0008  0.2300 -0.0234
 2181W        W 4181   5.998   6.449   6.011  0.1260  0.0829  0.1599
 2182W        W 4182   2.073   6.957   3.871 -0.1742  0.3246 -0.0126
 2183W        W 4183   6.210   6.545   6.867 -0.0716  0.0105 -0.0533
 2184W        W 4184   0.764   4.572   2.338  0.0219 -0.1129  0.0594
 2185W        W 4185   0.062   5.214   3.569 -0.0420  0.3608 -0.0213
 2186W        W 4186   2.948   0.297   2.939 -0.1203 -0.0248  0.0456
 2187W        W 4187   6.617   2.004   7.199 -0.3743 -0.0592  0.3903
 2188W        W 4188   6.543   0.914   5.032 -0.2257  0.2242 -0.3158
 2189W        W 4189   4.374   3.830   4.473 -0.1144  0.0204 -0.2580
 2190W        W 4190   6.722   2.438   4.655 -0.2499 -0.0607 -0.2263
 2191W        W 4191   5.945   4.476   1.042 -0.0005  0.1099 -0.2858
 2192W        W 4192   3.387   3.999   1.879  0.2922 -0.2968 -0.0169
 2193W        W 4193   2.739   2.107   4.404  0.1833 -0.1432  0.0324
 2194W        W 4194   6.378   1.215   6.762  0.1739 -0.0610 -0.1086
 2195W        W 4195   3.437   5.846   5.960  0.3545  0.2142 -0.1088
 2196W        W 4196   5.524   2.326   5.116  0.0663  0.0399 -0.0638
 2197W        W 4197   1.623   0.529   2.455 -0.0497 -0.0285  0.0394
 2198W        W 4198   0.841   2.714   5.748  0.3310  0.2965 -0.1622
 2199W        W 4199   7.058   2.368   0.417 -0.1441  0.0177  0.1798
 2200W        W 4200   4.227   0.819   2.717 -0.0569 -0.0152  0.2328
 2201W        W 4201   1.454   1.261   3.062 -0.2082  0.0568  0.3766
 2202W        W 4202   5.074   4.223   3.610  0.1176 -0.1098 -0.2041
 2203W        W 4203   3.919   6.343   4.265 -0.3865 -0.0890  0.2314
 2204W        W 4204   6.879   1.813   1.338 -0.0998  0.0810  0.0749
 2205W        W 4205   1.086   2.632   4.662 -0.0160 -0.2389 -0.2879
 2206W        W 4206   0.441   2.807   4.420  0.1018  0.1838 -0.0420
 2207W        W 4207   4.307   3.651   1.827  0.0820 -0.1917  0.0742
 2208W        W 4208   1.059   6.666   6.057  0.0071  0.1411 -0.3592
 2209W        W 4209   4.510   4.957   3.678 -0.2583  0.0839 -0.3750
 2210W        W 4210   1.892   5.463   6.645  0.1213  0.0161 -0.1720
 2211W        W 4211   4.946   1.017   3.029 -0.2893 -0.0558 -0.1818
 2212W        W 4212   1.256   3.015   4.869  0.0009 -0.0548  0.1199
 2213W        W 4213   4.872   4.575   3.949 -0.1329 -0.1081  0.0732
 2214W        W 4214   7.254   1.106   2.072 -0.0134  0.1150 -0.4997
 2215W        W 4215   1.206   6.626   1.401 -0.0821 -0.1331 -0.1738
 2216W        W 4216   5.420   4.078   4.801  0.0390 -0.2240 -0.0257
 2217W        W 4217   0.697   4.774   4.710  0.3169  0.1190  0.1994
 2218W        W 4218   1.758   3.780   2.819  0.1738  0.1345  0.1834
 2219W        W 4219   0.472   1.503   2.131  0.3860 -0.0754  0.0744
 2220W        W 4220   5.563   3.876   3.295 -0.1195 -0.0217 -0.1191
 2221W        W 4221   6.559   4.768   3.392 -0.0347  0.0469  0.1048
 2222W        W 4222   2.528   5.406   5.105 -0.2767  0.1789  0.0473
 2223W        W 4223   5.707   0.304   5.294  0.0037  0.0808  0.1636
 2224W        W 4224   3.310   3.063   3.624  0.3756 -0.1800  0.1577
 2225W        W 4225   0.235   2.300   5.290  0.1218 -0.1116 -0.0418
 2226W        W 4226   1.818   5.019   0.525  0.0896  0.3012 -0.1164
 2227W        W 4227   3.529   0.649   2.420  0.0919 -0.1816  0.1262
 2228W        W 4228   0.770   0.351   6.131  0.1095  0.0986  0.3416
 2229W        W 4229   5.776   1.871   4.951 -0.1220 -0.0379  0.1217
 2230W        W 4230   4.609   3.589   3.102 -0.3165 -0.1876  0.0403
 2231W        W 4231   6.789   2.982   2.819  0.1750  0.3274  0.0341
 2232W        W 4232   1.867   0.970   2.288 -0.2496  0.1185 -0.0616
 2233W        W 4233   6.445   1.487   3.026 -0.0668 -0.2051  0.1924
 2234W        W 4234   4.065   4.475   6.066  0.2649  0.1769  0.2315
 2235W        W 4235   2.571   5.177   2.078 -0.2793  0.1036  0.1125
 2236W        W 4236   0.116   5.343   2.295  0.0774  0.0664  0.4286
 2237W        W 4237   0.720   6.071   4.551  0.1040 -0.0851  0.0455
 2238W        W 4238   1.468   2.023   4.961  0.1425  0.1887 -0.1067
 2239W        W 4239   2.676   3.162   4.402 -0.0007 -0.2086 -0.1909
 2240W        W 4240   4.663   0.614   2.838 -0.2422 -0.4457 -0.0716
 2241W        W 4241   5.309   0.230   4.153 -0.0022 -0.0378 -0.0123
 2242W        W 4242   7.267   7.232   1.286 -0.1847 -0.0145 -0.2476
 2243W        W 4243   7.054   2.655   0.001  0.1072  0.0873 -0.1409
 2244W        W 4244   6.318   0.608   0.952  0.0383 -0.1218  0.3419
 2245W        W 4245   0.193   6.153   5.339 -0.3248  0.0210 -0.2167
 2246W        W 4246   4.108   1.926   3.437  0.1599  0.0855 -0.1116
 2247W        W 4247   5.198   4.300   2.338  0.2882 -0.2480 -0.0636
 2248W        W 4248   2.354   5.881   1.578 -0.3055 -0.0570 -0.0738
 2249W        W 4249   6.286   1.316   0.559 -0.0540 -0.3091  0.1281
 2250W        W 4250   0.330   3.209   5.207  0.0209 -0.1904 -0.0562
 2251W        W 4251   3.429   4.996   3.686 -0.2378 -0.0631 -0.1616
 2252W        W 4252   6.792   6.770   1.945  0.1213 -0.1197  0.0995
 2253W        W 4253   0.026   2.729   3.516  0.0155 -0.0221  0.1284
 2254W        W 4254   1.501   6.170   1.335  0.2589  0.0372  0.0277
 2255W        W 4255   5.668   1.189   2.832  0.3775 -0.1820  0.0787
 2256W        W 4256   0.702   6.909   5.041  0.0260  0.0352  0.2070
 2257W        W 4257   4.332   5.440   2.594 -0.0117 -0.0701 -0.2529
 2258W        W 4258   2.527   4.636   6.615  0.3050 -0.2235 -0.0356
 2259W        W 4259   2.386   3.663   4.253  0.0529 -0.0997  0.0627
 2260W        W 4260   4.397   4.799   2.508  0.1262 -0.0302  0.1209
 2261W        W 4261   6.159   5.749   6.563  0.0888 -0.0366  0.2778
 2262W        W 4262   0.157   4.766   6.872  0.1352 -0.0707  0.1631
 2263W        W 4263   2.469   5.148   6.546  0.0917 -0.3237 -0.0471
 2264W        W 4264   2.767   0.005   2.029  0.0481 -0.0545 -0.0811
 2265W        W 4265   2.490   1.915   2.543 -0.1221  0.2099  0.3478
 2266W        W 4266   1.527   0.359   5.416 -0.2512 -0.0721  0.3125
 2267W        W 4267   5.644   4.317   1.396  0.1265 -0.0789  0.1046
 2268W        W 4268   3.474   0.089   3.837 -0.2062  0.1101  0.2014
 2269W        W 4269   5.585   5.704   0.635 -0.1789  0.0897  0.0422
 2270W        W 4270   0.636   2.753   5.280  0.4309  0.1658  0.1797
 2271W        W 4271   2.054   6.563   2.026 -0.0151 -0.2252 -0.0642
 2272W        W 4272   2.375   5.677   6.487 -0.2491  0.1762 -0.0115
 2273W        W 4273   5.459   2.594   2.008 -0.0476  0.0196 -0.1622
 2274W        W 4274   5.131   6.236   2.290  0.2984  0.0847  0.1205
 2275W        W 4275   4.351   7.251   3.407 -0.1886  0.0602  0.2953
 2276W        W 4276   7.004   4.097   1.918  0.1262  0.0720  0.2222
 2277W        W 4277   3.087   3.530   2.091  0.0087  0.2300 -0.3182
 2278W        W 4278   1.827   5.685   1.482  0.2330  0.1465 -0.2231
 2279W        W 4279   6.781   6.407   0.304  0.0597  0.0815 -0.0202
 2280W        W 4280   2.531   2.384   3.500 -0.2716 -0.0358 -0.3082
 2281W        W 4281   0.699   0.106   1.613 -0.0867  0.0117  0.1491
 2282W        W 4282   1.158   7.045   1.156 -0.1504 -0.3358  0.0060
 2283W        W 4283   4.572   7.147   4.962 -0.1331  0.1390  0.2375
 2284W        W 4284   5.814   4.722   0.572  0.0634 -0.1184 -0.0641
 2285W        W 4285   5.824   5.989   2.572  0.1748  0.2265 -0.0717
 2286W        W 4286   2.191   1.544   2.488 -0.0715 -0.1119 -0.2473
 2287W        W 4287   0.787   0.241   2.728 -0.1681 -0.3629  0.0474
 2288W        W 4288   1.763   4.676   5.287 -0.1683  0.3208 -0.0421
 2289W        W 4289   5.508   3.838   6.976 -0.2218 -0.2704  0.1278
 2290W        W 4290   3.246   5.206   2.722  0.1775 -0.0047 -0.3608
 2291W        W 4291   7.245   3.576   3.922 -0.0257 -0.0328  0.1191
 2292W        W 4292   2.916   4.416   6.840  0.0130 -0.1728 -0.1729
 2293W        W 4293   0.766   2.999   1.595  0.1235  0.2980 -0.1552
 2294W        W 4294   1.176   3.215   1.585 -0.1966  0.1767 -0.0616
 2295W        W 4295   4.181   4.846   6.768 -0.3578 -0.1118  0.4093
 2296W        W 4296   4.938   3.993   3.054  0.1302  0.1365  0.0097
 2297W        W 4297   6.770   0.099   2.086 -0.0744  0.3431  0.0399
 2298W        W 4298   2.764   4.942   5.887  0.3320  0.0159  0.0116
 2299W        W 4299   5.750   0.213   0.495 -0.1513  0.2419  0.1338
 2300W        W 4300   0.997   3.926   3.142 -0.1431  0.1114 -0.1667
 2301W        W 4301   2.645   0.540   2.227  0.1793 -0.0103 -0.2672
 2302W        W 4302   0.885   3.239   5.283 -0.0670  0.2498 -0.1594
 2303W        W 4303   0.210   6.921   0.087 -0.4252  0.5374 -0.1690
 2304W        W 4304   5.872   0.383   6.353  0.0787 -0.2331  0.1982
 2305W        W 4305   1.366   6.338   6.462 -0.0721  0.0065 -0.1017
 2306W        W 4306   6.824   2.749   4.200  0.0532 -0.2951  0.1045
 2307W        W 4307   4.838   0.250   4.318 -0.0164 -0.1248 -0.0178
 2308W        W 4308   6.559   7.211   0.165 -0.2533  0.1656  0.2073
 2309W        W 4309   5.627   3.348   0.736  0.1578  0.0199  0.4789
 2310W        W 4310   1.191   2.335   4.228  0.0627  0.3192 -0.0866
 2311W        W 4311   1.157   1.007   5.115 -0.1738 -0.2040 -0.0214
 2312W        W 4312   1.118   4.939   2.299 -0.1696  0.1315 -0.0813
 2313W        W 4313   4.049   5.597   3.727 -0.0006 -0.0075 -0.1368
 2314W        W 4314   1.550   5.662   1.985  0.3324  0.2848  0.0394
 2315W        W 4315   1.708   5.366   0.091 -0.2921 -0.2897  0.2010
 2316W        W 4316   1.049   2.442   5.139 -0.1273  0.1120  0.0273
 2317W        W 4317   1.214   6.755   6.968 -0.0199  0.0007  0.0823
 2318W        W 4318   5.580   4.911   4.022 -0.4830  0.1611  0.0929
 2319W        W 4319   1.205   5.032   3.913  0.0299 -0.0706  0.4413
 2320W        W 4320   3.440   4.365   6.271 -0.0248 -0.3972  0.3131
 2321W        W 4321   3.753   6.322   0.678  0.0019 -0.0742  0.2086
 2322W        W 4322   4.970   0.943   2.501 -0.2409 -0.1010 -0.1988
 2323W        W 4323   0.192   4.817   3.807 -0.0105 -0.1564  0.0121
 2324W        W 4324   1.862   5.710   2.348  0.3279  0.0076  0.1813
 2325W        W 4325   6.184   6.100   5.601 -0.0922 -0.1498  0.2091
 2326W        W 4326   1.975   6.244   2.469 -0.0036 -0.0874 -0.0231
 2327W        W 4327   5.377   4.350   7.061  0.0505  0.3485 -0.0627
 2328W        W 4328   0.311   0.625   4.144  0.0027  0.1621 -0.4422
 2329W        W 4329   7.230   0.321   1.982 -0.2175 -0.4231 -0.2318
 2330W        W 4330   5.310   5.246   5.591 -0.0836 -0.0863  0.3399
 2331W        W 4331   2.579   3.552   4.714 -0.2289 -0.1441  0.0033
 2332W        W 4332   5.352   0.784   2.761  0.0413  0.1125 -0.0226
 2333W        W 4333   5.183   1.387   2.755  0.0966 -0.2522  0.0925
 2334W        W 4334   5.650   5.605   2.058  0.0180 -0.2208  0.1607
 2335W        W 4335   5.940   0.988   0.817  0.1769 -0.0511  0.0306
 2336W        W 4336   5.374   6.055   3.563 -0.0896 -0.0702  0.2315
 2337W        W 4337   4.391   4.521   0.304  0.3213  0.0355  0.1897
 2338W        W 4338   2.192   0.785   3.012 -0.0302  0.0941  0.0974
 2339W        W 4339   2.821   6.424   6.642 -0.1096 -0.0604 -0.2774
 2340W        W 4340   4.161   5.508   4.940 -0.1055 -0.0723 -0.1409
 2341W        W 4341   6.873   3.675   6.864  0.0462  0.1181  0.0772
 2342W        W 4342   5.216   4.814   2.164  0.0916  0.0541  0.3189
 2343W        W 4343   2.928   5.006   0.438 -0.0683  0.0232  0.2150
 2344W        W 4344   4.428   1.677   4.470  0.0400 -0.0985 -0.0168
 2345W        W 4345   7.112   1.516   1.033 -0.0060 -0.1364  0.3440
 2346W        W 4346   1.785   2.552   1.762  0.2503 -0.1294  0.2634
 2347W        W 4347   0.501   1.148   4.525 -0.1472 -0.0560  0.2104
 2348W        W 4348   5.725   4.861   5.039 -0.0265 -0.2082  0.0361
 2349W        W 4349   6.176   1.443   5.491 -0.3839 -0.0426 -0.0387
 2350W        W 4350   2.062   1.275   2.915 -0.0598 -0.0138 -0.1382
 2351W        W 4351   0.761   2.369   3.414 -0.4173 -0.0828  0.1375
 2352W        W 4352   3.532   4.969   5.132  0.0550  0.0425  0.3933
 2353W        W 4353   0.169   3.022   7.063 -0.0406  0.0892  0.1919
 2354W        W 4354   5.636   2.105   4.147 -0.2062  0.1836  0.0320
 2355W        W 4355   3.547   3.157   4.741 -0.0493 -0.1896  0.0940
 2356W        W 4356   6.734   2.435   2.824 -0.3007  0.0314 -0.1985
 2357W        W 4357   1.781   3.642   2.147 -0.0905  0.0241 -0.2763
 2358W        W 4358   2.336   0.401   4.329 -0.2346 -0.0156 -0.1667
 2359W        W 4359   6.002   1.766   4.466  0.4594  0.0143  0.0016
 2360W        W 4360   0.023   3.556   5.058  0.3457 -0.2342 -0.0231
 2361W        W 4361   3.496   5.457   4.405  0.0443 -0.3411 -0.0991
 2362W        W 4362   5.871   2.817   1.850  0.0488  0.3182 -0.0113
 2363W        W 4363   4.782   5.409   7.223 -0.0923 -0.1037 -0.0907
 2364W        W 4364   2.563   4.470   5.831  0.2076  0.4297 -0.1875
 2365W        W 4365   3.187   4.176   1.314 -0.3295  0.0147  0.1681
 2366W        W 4366   0.607   5.952   5.381  0.1930  0.0573 -0.1540
 2367W        W 4367   6.573   0.940   6.397 -0.2261  0.2922 -0.0958
 2368W        W 4368   2.475   4.563   4.053  0.2732 -0.1347 -0.0088
 2369W        W 4369   5.176   2.898   4.395  0.1012 -0.0972  0.3696
 2370W        W 4370   0.986   4.462   4.965 -0.0596 -0.2010  0.0546
 2371W        W 4371   4.378   0.068   3.857  0.2435 -0.2315  0.3126
 2372W        W 4372   5.742   7.165   6.340  0.2472  0.2630  0.1696
 2373W        W 4373   2.294   1.020   2.546  0.5231 -0.1998  0.1266
 2374W        W 4374   7.052   4.730   6.539  0.0808 -0.0030  0.2388
 2375W        W 4375   6.669   1.209   1.069 -0.2190  0.0009  0.3634
 2376W        W 4376   3.698   2.407   3.109 -0.0711 -0.0943 -0.1649
 2377W        W 4377   6.258   4.919   3.054 -0.1324 -0.4539  0.1348
 2378W        W 4378   1.634   6.666   3.799 -0.0921 -0.0727 -0.2101
 2379W        W 4379   0.800   3.738   6.132 -0.0691  0.3133  0.1242
 2380W        W 4380   0.862   7.054   6.841 -0.1657 -0.1689  0.3235
 2381W        W 4381   2.946   2.986   3.215  0.0390 -0.0165 -0.2780
 2382W        W 4382   3.197   5.449   5.736  0.4295 -0.0404 -0.1380
 2383W        W 4383   1.788   6.619   6.243  0.0706  0.3033 -0.4953
 2384W        W 4384   7.265   0.216   3.917 -0.3736 -0.0887  0.0512
 2385W        W 4385   0.357   2.217   7.092 -0.0486 -0.0817 -0.0343
 2386W        W 4386   5.440   1.719   6.356  0.0667 -0.1008  0.0632
 2387W        W 4387   6.788   3.817   0.100  0.1427 -0.1285  0.1544
 2388W        W 4388   2.495   0.114   2.462 -0.1468  0.0398  0.0778
 2389W        W 4389   5.627   0.054   1.146 -0.3021  0.1297 -0.1840
 2390W        W 4390   2.520   5.415   4.270 -0.0643 -0.1713 -0.6172
 2391W        W 4391   6.092   3.182   6.859  0.3751 -0.1558 -0.0843
 2392W        W 4392   1.147   6.076   2.904 -0.1707  0.1809 -0.0497
 2393W        W 4393   1.778   5.052   4.066  0.4529  0.0677  0.4365
 2394W        W 4394   5.244   3.910   6.073 -0.2919 -0.0759 -0.1149
 2395W        W 4395   5.692   2.464   1.602 -0.0965  0.0224  0.1902
 2396W        W 4396   3.971   3.272   0.851 -0.2839 -0.1652 -0.0354
 2397W        W 4397   7.196   2.728   4.570 -0.2838  0.1529  0.1392
 2398W        W 4398   6.385   2.598   3.550  0.2808 -0.0382  0.1138
 2399W        W 4399   2.075   3.815   6.496 -0.0246 -0.0231  0.0622
 2400W        W 4400   6.821   6.058   2.413 -0.1548  0.0214 -0.0851
 2401W        W 4401   1.980   6.264   3.047  0.1194 -0.1117  0.1490
 2402W        W 4402   7.209   2.159   3.769  0.1754 -0.0989 -0.3915
 2403W        W 4403   2.362   3.810   5.089  0.0115 -0.1833  0.2725
 2404W        W 4404   0.646   3.006   4.860 -0.0866  0.0084  0.0174
 2405W        W 4405   0.533   1.676   2.925  0.0972 -0.0015 -0.2254
 2406W        W 4406   6.672   6.487   6.998  0.1629 -0.0893 -0.3997
 2407W        W 4407   0.275   3.045   6.534 -0.3901  0.0148 -0.2698
 2408W        W 4408   3.572   5.470   4.938  0.4917  0.1180 -0.3202
 2409W        W 4409   2.071   5.865   4.626 -0.1602 -0.1278  0.2727
 2410W        W 4410   3.049   5.260   0.012 -0.0034  0.3025 -0.2410
 2411W        W 4411   3.185   2.896   4.434 -0.0689 -0.3072 -0.0091
 2412W        W 4412   3.930   6.609   1.674  0.2654 -0.3590 -0.1837
 2413W        W 4413   1.972   1.242   4.473 -0.2166  0.0121 -0.0313
 2414W        W 4414   6.006   4.084   2.979  0.2592  0.0125  0.1568
 2415W        W 4415   3.507   5.165   1.022  0.1414  0.0353  0.0400
 2416W        W 4416   1.588   6.568   2.207 -0.2938  0.0408 -0.1280
 2417W        W 4417   7.004   0.992   5.242 -0.0078 -0.3021  0.2280
 2418W        W 4418   5.019   3.894   2.008 -0.2503  0.4353 -0.0135
 2419W        W 4419   4.274   4.356   5.127 -0.3079  0.1693 -0.2122
 2420W        W 4420   0.911   5.393   5.937 -0.0148  0.2645  0.1001
 2421W        W 4421   5.600   4.394   3.157 -0.1457  0.0724  0.0218
 2422W        W 4422   0.060   1.070   1.431  0.1572  0.1363 -0.1897
 2423W        W 4423   6.636   6.426   0.909 -0.3090  0.1730  0.0202
 2424W        W 4424   1.105   3.183   3.192  0.1966  0.4241  0.1916
 2425W        W 4425   5.328   6.354   0.298 -0.1448 -0.1894  0.1763
 2426W        W 4426   0.179   1.391   4.238 -0.0926 -0.1424 -0.1697
 2427W        W 4427   5.011   5.185   3.298 -0.0784  0.0018 -0.5397
 2428W        W 4428   7.242   4.324   3.314  0.1823  0.2765 -0.2505
 2429W        W 4429   3.665   7.032   1.814 -0.3687 -0.1450  0.0537
 2430W        W 4430   3.935   5.845   5.829 -0.3754 -0.0755  0.1846
 2431W        W 4431   5.547   0.574   1.727 -0.1055  0.3052 -0.1667
 2432W        W 4432   5.925   5.975   1.536  0.3489 -0.2535 -0.0294
 2433W        W 4433   1.572   4.118   4.120  0.1206  0.2714 -0.1104
 2434W        W 4434   5.147   3.711   3.400 -0.0880  0.0221 -0.1572
 2435W        W 4435   6.906   1.090   2.542  0.0235  0.0323 -0.3081
 2436W        W 4436   2.607   7.276   4.305  0.0734 -0.3476 -0.2501
 2437W        W 4437   4.761   5.769   2.846  0.1336  0.0224  0.0083
 2438W        W 4438   0.226   5.648   1.920 -0.1498 -0.1267 -0.0772
 2439W        W 4439   1.166   2.188   3.727  0.1045 -0.1101  0.0910
 2440W        W 4440   5.015   6.849   3.615  0.0602  0.2589  0.5316
 2441W        W 4441   3.006   7.229   4.060 -0.0770 -0.1156  0.2088
 2442W        W 4442   0.082   5.775   4.347 -0.1532  0.3265 -0.4279
 2443W        W 4443   1.717   4.114   0.917 -0.2117 -0.0328  0.2681
 2444W        W 4444   6.995   2.083   0.845 -0.2255 -0.0001 -0.1213
 2445W        W 4445   4.303   6.606   4.102  0.2084  0.1375 -0.0206
 2446W        W 4446   0.418   1.872   4.022  0.0050 -0.1137 -0.0192
 2447W        W 4447   7.160   4.469   4.491 -0.0110  0.2488 -0.1756
 2448W        W 4448   1.431   5.857   4.960 -0.1485 -0.4927 -0.4686
 2449W        W 4449   4.918   6.461   5.297  0.1375  0.0622  0.1793
 2450W        W 4450   1.229   5.269   5.592 -0.0397  0.1767  0.2691
 2451W        W 4451   1.485   0.151   2.711  0.0928 -0.0157  0.3842
 2452W        W 4452   5.249   5.355   5.111 -0.1423  0.2256 -0.3939
 2453W        W 4453   5.988   2.072   1.464 -0.1702 -0.2349  0.0092
 2454W        W 4454   1.225   7.169   1.648  0.1131 -0.0202 -0.0187
 2455W        W 4455   6.072   6.982   0.458 -0.0830  0.3806 -0.0701
 2456W        W 4456   0.451   1.300   1.650  0.0173 -0.3249  0.1501
 2457W        W 4457   5.650   3.786   2.519  0.2726  0.2583  0.0686
 2458W        W 4458   4.880   7.003   1.069  0.1937 -0.4837  0.0740
 2459W        W 4459   5.889   4.537   7.122  0.3065  0.2680  0.0613
 2460W        W 4460   7.065   3.725   4.684  0.2476 -0.2383 -0.3619
 2461W        W 4461   6.031   2.200   5.282 -0.0053  0.2520  0.2593
 2462W        W 4462   0.672   1.461   4.111  0.0972  0.0391  0.0828
 2463W        W 4463   1.638   5.808   1.038 -0.1530 -0.4493  0.1481
 2464W        W 4464   1.663   2.442   3.734  0.0432  0.1662  0.0703
 2465W        W 4465   2.970   6.835   3.709  0.0582 -0.0453 -0.0578
 2466W        W 4466   0.269   2.737   5.624  0.0379  0.1590 -0.3729
 2467W        W 4467   5.746   6.492   6.440 -0.1137  0.3330 -0.0387
 2468W        W 4468   5.754   0.520   4.227  0.1553  0.2224 -0.0835
 2469W        W 4469   5.661   6.680   4.183  0.2108  0.1248  0.1056
 2470W        W 4470   6.671   4.961   0.510  0.2065 -0.1581 -0.4000
 2471W        W 4471   6.488   4.026   3.902  0.1396  0.1640 -0.1167
 2472W        W 4472   0.352   3.714   2.659 -0.0191  0.1564 -0.1595
 2473W        W 4473   4.627   6.330   5.711 -0.1446 -0.2048  0.4069
 2474W        W 4474   1.690   3.692   1.147  0.1674 -0.0547  0.2519
 2475W        W 4475   0.960   2.031   6.553  0.0760 -0.0105  0.1869
 2476W        W 4476   1.717   4.717   2.261  0.1172  0.0165 -0.2800
 2477W        W 4477   4.131   1.695   4.892 -0.5041  0.0731  0.1071
 2478W        W 4478   2.276   3.925   6.986  0.1436  0.1933 -0.0588
 2479W        W 4479   2.331   6.885   5.562 -0.1868 -0.3601  0.1877
 2480W        W 4480   1.173   5.393   2.068  0.2268 -0.0094  0.0321
 2481W        W 4481   4.320   5.998   6.206 -0.1066  0.3912  0.0518
 2482W        W 4482   5.289   1.770   5.049  0.2916  0.0448  0.0705
 2483W        W 4483   0.799   0.246   1.162 -0.0769 -0.0446  0.1506
 2484W        W 4484   4.151   6.854   5.084  0.3356  0.1767 -0.4390
 2485W        W 4485   6.680   2.738   1.453 -0.0328  0.0507 -0.0238
 2486W        W 4486   4.038   5.114   5.264  0.0214  0.1381  0.2027
 2487W        W 4487   6.100   5.102   1.804  0.1381 -0.0036  0.4533
 2488W        W 4488   2.600   6.360   4.682 -0.0551 -0.2055 -0.0165
 2489W        W 4489   6.769   6.393   2.898  0.0772 -0.5079 -0.1805
 2490W        W 4490   2.993   6.697   4.253 -0.0040 -0.1440 -0.1138
 2491W        W 4491   7.022   0.290   1.456 -0.0006  0.0445  0.0548
 2492W        W 4492   5.456   5.276   7.147 -0.1987 -0.2685 -0.0605
 2493W        W 4493   5.741   0.061   6.823  0.0070  0.1151  0.0677
 2494W        W 4494   5.553   3.835   2.038 -0.0665 -0.2800 -0.4165
 2495W        W 4495   6.125   3.007   0.070 -0.2295  0.0091 -0.2807
 2496W        W 4496   1.601   3.120   1.090 -0.0501  0.2460  0.1008
 2497W        W 4497   0.256   0.822   0.094 -0.1086 -0.1021  0.0216
 2498W        W 4498   2.330   3.158   4.021  0.0259  0.2504 -0.1041
 2499W        W 4499   5.453   3.315   6.914  0.0831 -0.0227  0.0942
 2500W        W 4500   7.024   0.439   5.279 -0.2112  0.0057 -0.2216
 2501W        W 4501   6.133   6.597   4.199  0.0990 -0.0361  0.1238
 2502W        W 4502   3.843   6.327   5.964 -0.2530  0.0213  0.2620
 2503W        W 4503   6.008   0.882   6.313 -0.1573 -0.4068  0.1163
 2504W        W 4504   5.256   2.058   1.919 -0.3608 -0.1580 -0.0786
 2505W        W 4505   6.823   0.497   3.426 -0.0762  0.0234 -0.0037
 2506W        W 4506   0.877   3.075   6.275  0.1730  0.2091  0.2471
 2507W        W 4507   5.239   2.961   3.557 -0.2807 -0.0340  0.0820
 2508W        W 4508   4.744   0.079   2.535  0.1612  0.0445  0.4158
 2509W        W 4509   3.239   1.668   3.883  0.0535  0.2270  0.0024
 2510W        W 4510   1.711   3.998   7.026 -0.4038 -0.3742  0.0872
 2511W        W 4511   3.672   6.677   3.214 -0.2995 -0.0968  0.3954
 2512W        W 4512   6.684   5.292   0.126 -0.0241  0.0251 -0.0076
 2513W        W 4513   2.595   0.261   3.307  0.0096  0.0215 -0.1286
 2514W        W 4514   7.119   5.824   3.894 -0.0945  0.0575  0.0657
 2515W        W 4515   1.672   4.329   3.558 -0.1620 -0.0355  0.0285
 2516W        W 4516   4.571   4.928   4.179 -0.1499  0.1386 -0.0729
 2517W        W 4517   1.726   1.010   3.398  0.3560 -0.2767 -0.2024
 2518W        W 4518   7.267   5.268   1.599  0.1249  0.3646  0.0937
 2519W        W 4519   1.641   0.329   4.782  0.4600  0.3754 -0.3384
 2520W        W 4520   6.695   5.460   1.643 -0.2313  0.0972  0.1344
 2521W        W 4521   6.984   5.614   6.659  0.0591  0.0342  0.1773
 2522W        W 4522   6.779   3.533   4.047 -0.1061  0.1404  0.3129
 2523W        W 4523   7.287   4.734   0.973  0.2688 -0.2373 -0.3436
 2524W        W 4524   6.764   6.726   5.341 -0.0008  0.0452 -0.0709
 2525W        W 4525   2.527   4.720   3.512 -0.0838 -0.0980  0.1638
 2526W        W 4526   1.870   5.668   6.146 -0.2314  0.0797 -0.1392
 2527W        W 4527   4.599   4.953   7.266  0.0679  0.1243 -0.0221
 2528W        W 4528   2.987   5.500   4.445 -0.1672 -0.1030 -0.2329
 2529W        W 4529   6.545   0.078   4.346  0.0024 -0.2237  0.0329
 2530W        W 4530   0.892   1.680   3.735 -0.0530  0.2420 -0.1943
 2531W        W 4531   6.698   4.665   5.975  0.3269  0.0282  0.2968
 2532W        W 4532   6.663   6.959   6.078 -0.0427 -0.3570 -0.0100
 2533W        W 4533   1.284   6.904   6.383  0.0170  0.2568 -0.2888
 2534W        W 4534   4.243   2.379   4.801 -0.2815 -0.0690  0.0909
 2535W        W 4535   6.652   4.237   1.627  0.1447 -0.1682 -0.2365
 2536W        W 4536   6.263   7.075   2.205 -0.0886  0.1102  0.1780
 2537W        W 4537   1.425   3.665   3.927 -0.0742  0.0674  0.2851
 2538W        W 4538   6.029   1.324   3.172 -0.2481  0.2406 -0.3027
 2539W        W 4539   2.254   4.515   6.217 -0.0736 -0.4602 -0.0891
 2540W        W 4540   7.212   6.563   7.020  0.1323  0.0085  0.1191
 2541W        W 4541   6.537   1.392   2.465  0.0779 -0.2888 -0.4171
 2542W        W 4542   5.479   1.212   5.051  0.0294 -0.1444  0.0529
 2543W        W 4543   7.018   4.713   4.959  0.2219  0.0740  0.1621
 2544W        W 4544   4.867   6.511   4.161 -0.0555  0.6093  0.2236
 2545W        W 4545   4.611   6.569   1.583 -0.2868  0.2470  0.0553
 2546W        W 4546   4.804   4.685   6.681  0.0409 -0.0050  0.1872
 2547W        W 4547   5.423   4.442   6.166 -0.0426  0.0703  0.3836
 2548W        W 4548   1.937   6.480   4.913 -0.1188  0.1214  0.0472
 2549W        W 4549   0.398   0.405   2.375 -0.0076 -0.1309 -0.1791
 2550W        W 4550   2.258   4.567   4.515  0.0474 -0.0545 -0.0913
 2551W        W 4551   0.609   2.283   4.972  0.3657  0.1528 -0.0833
 2552W        W 4552   4.662   4.532   3.434 -0.0303  0.0971  0.2641
 2553W        W 4553   3.945   6.704   2.228  0.2161 -0.1487 -0.3722
 2554W        W 4554   7.064   6.791   6.446  0.1767  0.2240  0.0581
 2555W        W 4555   6.275   0.767   0.256 -0.0280 -0.2010  0.1584
 2556W        W 4556   1.262   2.757   1.855 -0.1726  0.0614 -0.0613
 2557W        W 4557   5.216   6.884   4.085 -0.1460  0.0214 -0.3341
 2558W        W 4558   0.046   5.591   6.170 -0.2707  0.2777 -0.1027
 2559W        W 4559   7.149   5.384   4.120  0.1948  0.2236 -0.1566
 2560W        W 4560   3.020   6.644   4.986  0.2807  0.1923  0.0265
 2561W        W 4561   6.089   0.588   5.042  0.1801  0.2262  0.0076
 2562W        W 4562   5.577   5.815   4.875  0.0092 -0.1139 -0.2484
 2563W        W 4563   2.512   6.207   1.182  0.0225  0.2006  0.2692
 2564W        W 4564   6.122   5.661   7.108 -0.2479 -0.1889  0.1172
 2565W        W 4565   7.002   6.151   5.237 -0.0041  0.1529  0.0006
 2566W        W 4566   0.349   4.619   5.784  0.2879 -0.2939  0.3294
 2567W        W 4567   1.208   2.837   5.423  0.0232  0.2753  0.3226
 2568W        W 4568   0.390   5.973   6.279  0.6342 -0.0353 -0.2551
 2569W        W 4569   6.535   5.314   3.255 -0.2421  0.0663 -0.2475
 2570W        W 4570   6.272   3.956   1.866 -0.1474  0.2826 -0.1218
 2571W        W 4571   4.345   4.378   2.202  0.4226 -0.4132 -0.0581
 2572W        W 4572   5.770   7.184   4.981 -0.1114  0.1645  0.2402
 2573W        W 4573   4.888   5.946   6.539  0.2202  0.2761  0.1269
 2574W        W 4574   4.950   0.346   1.737 -0.0399 -0.2018  0.0375
 2575W        W 4575   3.227   1.914   2.973 -0.1147  0.2719  0.1055
 2576W        W 4576   5.907   0.664   5.874 -0.0015 -0.0901 -0.1002
 2577W        W 4577   3.045   5.348   0.810 -0.1317  0.3466 -0.0420
 2578W        W 4578   0.135   0.880   4.912  0.0530  0.1099 -0.0260
 2579W        W 4579   4.433   5.468   1.217 -0.1997 -0.0603 -0.0562
 2580W        W 4580   4.609   6.765   0.693  0.2166 -0.2382  0.1534
 2581W        W 4581   7.025   5.153   2.003  0.0215  0.0822 -0.0447
 2582W        W 4582   6.599   5.609   7.007 -0.2575  0.0147 -0.0239
 2583W        W 4583   2.468   5.573   2.949 -0.0525 -0.0250  0.0914
 2584W        W 4584   3.103   5.283   5.281 -0.2714 -0.0429 -0.1432
 2585W        W 4585   0.462   2.301   2.050  0.1468 -0.3496 -0.4700
 2586W        W 4586   3.677   4.629   1.164 -0.2039  0.0713  0.1279
 2587W        W 4587   0.162   4.157   5.724 -0.0980 -0.1669 -0.3217
 2588W        W 4588   1.655   4.570   6.110  0.1629 -0.2705  0.0325
 2589W        W 4589   0.417   3.511   6.360 -0.1023  0.3003 -0.2339
 2590W        W 4590   0.652   6.435   6.240  0.1369  0.0385  0.0899
 2591W        W 4591   6.668   5.776   3.658  0.1131 -0.0449  0.0006
 2592W        W 4592   7.162   6.309   1.194  0.0064 -0.1962 -0.0115
 2593W        W 4593   0.229   5.410   5.223 -0.0482  0.0533  0.1720
 2594W        W 4594   0.189   1.738   5.408  0.1872  0.1487 -0.2553
 2595W        W 4595   5.273   0.145   0.730 -0.2403 -0.0701  0.0791
 2596W        W 4596   2.361   1.942   3.385 -0.1099  0.0997 -0.0927
 2597W        W 4597   2.367   4.010   0.472 -0.2056  0.4592  0.0224
 2598W        W 4598   6.874   5.115   6.150  0.2573  0.1892  0.2248
 2599W        W 4599   5.730   6.219   1.100 -0.1036  0.1347 -0.1844
 2600W        W 4600   6.559   2.306   0.678  0.1104 -0.1273 -0.1229
 2601W        W 4601   4.248   1.625   2.718 -0.1096  0.0145 -0.3758
 2602W        W 4602   7.021   4.864   3.470  0.1145 -0.2656 -0.0514
 2603W        W 4603   4.635   3.788   1.064  0.3115  0.0575 -0.4320
 2604W        W 4604   6.172   6.173   0.084  0.0645  0.0275  0.0976
 2605W        W 4605   4.100   4.292   4.573 -0.0096 -0.3446  0.1883
 2606W        W 4606   0.017   7.135   5.062 -0.0958  0.0730  0.0478
 2607W        W 4607   0.180   2.304   0.705  0.1419 -0.2653  0.0180
 2608W        W 4608   6.514   5.146   5.809  0.1289 -0.3060 -0.1171
 2609W        W 4609   6.815   4.819   5.514 -0.1713 -0.1819  0.0635
 2610W        W 4610   0.134   5.842   2.388  0.0443 -0.1850  0.0232
 2611W        W 4611   2.650   4.097   4.088 -0.0118 -0.1404 -0.2580
 2612W        W 4612   4.007   0.116   5.017  0.1485 -0.3822  0.2409
 2613W        W 4613   5.508   2.150   2.395  0.2083  0.0697 -0.1548
 2614W        W 4614   2.272   2.271   3.047 -0.1098 -0.1016 -0.0842
 2615W        W 4615   3.470   6.200   1.095  0.0042  0.0456  0.0106
 2616W        W 4616   6.201   1.724   2.277 -0.0042 -0.1896  0.3082
 2617W        W 4617   5.965   2.527   3.952  0.1143  0.0282 -0.1041
 2618W        W 4618   5.904   0.349   1.442  0.3331 -0.0568 -0.0704
 2619W        W 4619   6.116   4.989   0.886  0.0162 -0.1045 -0.0768
 2620W        W 4620   1.408   2.829   2.874 -0.1367  0.1285 -0.2278
 2621W        W 4621   0.644   2.538   0.789 -0.0958  0.0687  0.1255
 2622W        W 4622   4.483   0.877   2.219 -0.1976 -0.0687  0.0513
 2623W        W 4623   3.200   6.946   2.621 -0.1684 -0.3352 -0.3158
 2624W        W 4624   6.782   1.176   0.135 -0.1396  0.0479 -0.3160
 2625W        W 4625   0.484   1.784   1.420 -0.0681  0.1447 -0.0193
 2626W        W 4626   5.525   4.273   2.679  0.1895  0.0762 -0.0480
 2627W        W 4627   2.456   6.350   2.697 -0.1684  0.0092 -0.1657
 2628W        W 4628   6.456   7.280   2.609 -0.1260 -0.4020  0.3304
 2629W        W 4629   5.151   7.256   2.786 -0.2346  0.2438 -0.0079
 2630W        W 4630   4.836   1.748   4.842 -0.0767 -0.0568  0.1157
 2631W        W 4631   0.894   5.776   3.698  0.1067 -0.0960  0.3503
 2632W        W 4632   0.921   5.271   3.022 -0.1712 -0.0300 -0.0027
 2633W        W 4633   1.430   5.417   4.203  0.0058  0.0646  0.2250
 2634W        W 4634   6.247   1.116   5.928 -0.4622 -0.0882 -0.3168
 2635W        W 4635   2.952   5.896   6.466  0.0339 -0.2910 -0.1234
 2636W        W 4636   1.188   0.391   1.742  0.1747 -0.2823 -0.1798
 2637W        W 4637   4.207   4.105   3.418 -0.1707  0.2230 -0.2239
 2638W        W 4638   6.347   7.078   3.941  0.2251 -0.0410  0.1035
 2639W        W 4639   1.185   3.179   4.036  0.2703 -0.3712  0.0394
 2640W        W 4640   2.679   5.612   0.228  0.1650 -0.0669  0.3653
 2641W        W 4641   7.205   6.121   6.209  0.0065 -0.1304  0.3071
 2642W        W 4642   4.884   3.113   4.000 -0.1179 -0.0086  0.0295
 2643W        W 4643   1.195   3.702   6.442 -0.2142 -0.2038 -0.1837
 2644W        W 4644   4.385   1.478   3.336 -0.0696  0.0564 -0.0608
 2645W        W 4645   5.881   2.491   2.322  0.1487 -0.2529  0.0532
 2646W        W 4646   0.918   3.106   2.652  0.2621  0.0478 -0.1427
 2647W        W 4647   3.894   4.634   2.408 -0.1874 -0.0480 -0.3749
 2648W        W 4648   7.002   1.683   6.109 -0.1073  0.2498  0.0254
 2649W        W 4649   0.814   3.089   0.988 -0.0959  0.1282  0.1177
 2650W        W 4650   5.742   1.458   1.306  0.1953 -0.1541  0.1304
 2651W        W 4651   1.004   3.073   2.166  0.1440  0.2428 -0.0965
 2652W        W 4652   0.043   4.073   2.816  0.0243 -0.0771 -0.0530
 2653W        W 4653   3.719   4.749   6.964  0.0328 -0.1570  0.2415
 2654W        W 4654   7.092   5.434   3.075 -0.1026  0.0201  0.1060
 2655W        W 4655   5.316   5.041   4.777  0.0014  0.4174  0.3132
 2656W        W 4656   3.870   5.590   5.394 -0.3904 -0.0891 -0.1461
 2657W        W 4657   4.828   3.742   1.527 -0.2306  0.0310 -0.0202
 2658W        W 4658   5.649   4.561   2.203 -0.1315  0.0834  0.0523
 2659W        W 4659   4.357   5.405   5.963  0.2532  0.0774 -0.2764
 2660W        W 4660   5.957   5.097   2.621  0.0917 -0.3450 -0.1499
 2661W        W 4661   6.338   6.478   3.282 -0.0858 -0.1433 -0.0902
 2662W        W 4662   7.061   1.828   3.438  0.1745 -0.2855  0.1216
 2663W        W 4663   2.313   3.600   3.738  0.0994 -0.1415  0.0967
 2664W        W 4664   6.450   4.645   1.268 -0.1148 -0.3546 -0.3394
 2665W        W 4665   3.245   4.792   6.064  0.2761  0.3570  0.0238
 2666W        W 4666   1.393   4.597   2.668  0.4260  0.0235  0.0569
 2667W        W 4667   4.371   0.495   4.159  0.1895 -0.0897  0.0140
 2668W        W 4668   7.141   5.581   7.148  0.0040 -0.1682  0.1161
 2669W        W 4669   1.537   2.346   4.598  0.1619  0.2082  0.0806
 2670W        W 4670   4.929   5.889   4.379 -0.0135 -0.1968 -0.0088
 2671W        W 4671   0.446   0.102   3.742  0.2383  0.0882  0.2892
 2672W        W 4672   0.689   6.291   2.853 -0.0477 -0.1856 -0.0602
 2673W        W 4673   1.366   4.901   4.389 -0.0079 -0.1179  0.0169
 2674W        W 4674   6.625   3.437   4.700  0.2326  0.1860 -0.0027
 2675W        W 4675   6.920   5.612   0.454 -0.0902 -0.2385 -0.0513
 2676W        W 4676   2.268   3.715   1.731  0.4230 -0.0860 -0.2967
 2677W        W 4677   1.470   5.348   6.092  0.3372  0.0321  0.0528
 2678W        W 4678   3.555   3.789   2.923  0.3179 -0.0724  0.3080
 2679W        W 4679   2.808   5.205   2.958 -0.1604  0.3109  0.0455
 2680W        W 4680   0.614   2.125   1.075  0.1203 -0.3210  0.2620
 2681W        W 4681   1.166   1.540   5.009 -0.1150  0.0087 -0.3136
 2682W        W 4682   6.862   6.933   0.984  0.0682  0.0822  0.1872
 2683W        W 4683   5.940   3.635   6.658 -0.0842  0.0601 -0.2137
 2684W        W 4684   4.731   3.723   4.057  0.2455 -0.2236  0.0237
 2685W        W 4685   3.983   5.212   6.511  0.0787 -0.0793  0.3512
 2686W        W 4686   3.590   4.677   1.985 -0.0828 -0.0404  0.0399
 2687W        W 4687   4.882   3.216   1.500  0.1806  0.2813 -0.0321
 2688W        W 4688   3.850   3.618   4.229 -0.1060  0.1039 -0.2065
 2689W        W 4689   2.722   3.455   5.170 -0.1881 -0.1070  0.0116
 2690W        W 4690   4.450   4.674   4.614 -0.0927  0.2995  0.3064
 2691W        W 4691   2.825   4.405   5.331  0.1975 -0.0131  0.0444
 2692W        W 4692   6.832   3.438   1.907 -0.3457 -0.4777  0.1640
 2693W        W 4693   0.542   4.576   0.440 -0.3073  0.0414 -0.3401
 2694W        W 4694   1.297   5.034   0.604  0.2186 -0.1743  0.2877
 2695W        W 4695   7.196   4.212   6.166  0.1841 -0.0529  0.0805
 2696W        W 4696   7.190   6.651   1.607  0.0177  0.3163 -0.0239
 2697W        W 4697   1.152   3.394   1.131 -0.0761 -0.3013  0.0250
 2698W        W 4698   6.175   4.156   5.076 -0.3261  0.2880  0.0225
 2699W        W 4699   1.411   3.302   2.047  0.2135  0.1942  0.1490
 2700W        W 4700   6.627   4.616   6.906 -0.0118 -0.1166 -0.0681
 2701W        W 4701   0.692   5.872   0.886  0.0233 -0.1549  0.0411
 2702W        W 4702   5.498   6.649   3.633  0.0367 -0.1721 -0.1946
 2703W        W 4703   5.923   1.398   6.559 -0.0630 -0.1384  0.1984
 2704W        W 4704   1.596   5.099   5.143  0.2044  0.3590  0.5091
 2705W        W 4705   3.646   4.636   5.781  0.1254 -0.0812 -0.1124
 2706W        W 4706   1.423   0.888   4.689  0.3716 -0.1250 -0.0823
 2707W        W 4707   1.978   6.855   1.623 -0.0928 -0.2982 -0.1672
 2708W        W 4708   7.084   3.285   6.501  0.0485 -0.1259 -0.1604
 2709W        W 4709   4.669   0.355   3.559  0.2208 -0.0220  0.2212
 2710W        W 4710   4.297   5.217   1.602  0.0338 -0.0538  0.0157
 2711W        W 4711   0.575   5.582   2.274 -0.0248 -0.0155 -0.0500
 2712W        W 4712   3.435   3.194   3.041 -0.0753  0.0864 -0.1156
 2713W        W 4713   2.431   6.168   6.466 -0.3077  0.0372  0.2763
 2714W        W 4714   1.899   2.105   2.518  0.3955  0.0648  0.0324
 2715W        W 4715   4.410   5.872   3.993 -0.1226  0.0060  0.0111
 2716W        W 4716   1.263   0.712   3.305 -0.0949 -0.0677  0.1345
 2717W        W 4717   4.906   6.307   3.311  0.2098  0.0347  0.1178
 2718W        W 4718   0.458   5.199   3.200 -0.1461 -0.3374 -0.5814
 2719W        W 4719   1.755   5.313   3.633  0.0814 -0.1651  0.0013
 2720W        W 4720   0.379   1.109   6.419 -0.1291  0.1116  0.2933
 2721W        W 4721   5.992   3.377   0.357 -0.1266 -0.1771 -0.0016
 2722W        W 4722   4.703   3.405   3.603 -0.1391 -0.3640  0.3246
 2723W        W 4723   2.848   3.980   5.977  0.2243 -0.0424  0.2360
 2724W        W 4724   6.199   3.693   2.539  0.2107 -0.1254 -0.3423
 2725W        W 4725   5.961   1.607   1.775 -0.2306  0.1879 -0.0454
 2726W        W 4726   4.119   1.248   2.361 -0.0411 -0.0587 -0.1201
 2727W        W 4727   4.624   2.530   5.082 -0.1797 -0.0166  0.0259
 2728W        W 4728   4.726   2.652   4.476 -0.0090 -0.3457  0.2370
 2729W        W 4729   3.231   0.801   4.113 -0.0457 -0.0571 -0.0082
 2730W        W 4730   3.598   1.963   3.412 -0.2005 -0.0641 -0.1917
 2731W        W 4731   1.896   5.802   3.866 -0.2294  0.2987  0.1069
 2732W        W 4732   4.600   6.612   6.124  0.2414 -0.0411  0.3388
 2733W        W 4733   3.770   3.821   3.723 -0.2550 -0.3162  0.0158
 2734W        W 4734   5.903   1.527   6.039  0.0522  0.0454  0.1635
 2735W        W 4735   3.697   6.135   5.526  0.0967  0.0947 -0.1437
 2736W        W 4736   1.593   5.930   3.459  0.2117  0.0706  0.1530
 2737W        W 4737   1.428   4.252   5.114 -0.2925  0.2977  0.3497
 2738W        W 4738   4.540   6.316   6.594  0.0425  0.0263 -0.2142
 2739W        W 4739   1.306   3.427   0.616 -0.0821  0.0450 -0.0614
 2740W        W 4740   4.404   5.723   1.654  0.2694  0.2903 -0.2642
 2741W        W 4741   1.886   3.426   3.855 -0.1406  0.2203  0.1867
 2742W        W 4742   3.768   5.248   7.072 -0.3352  0.1361 -0.2975
 2743W        W 4743   6.394   3.340   2.156  0.0148  0.0708 -0.2445
 2744W        W 4744   5.679   2.762   5.376  0.1856  0.0135  0.0182
 2745W        W 4745   6.465   4.175   6.019  0.0021  0.0489  0.3465
 2746W        W 4746   2.016   0.177   3.831  0.2537  0.0376 -0.0897
 2747W        W 4747   1.177   5.772   4.533 -0.0516 -0.1470 -0.0202
 2748W        W 4748   6.081   1.902   6.349  0.3980 -0.0960 -0.0040
 2749W        W 4749   0.322   0.299   1.025 -0.0779  0.0294 -0.1640
 2750W        W 4750   6.480   0.141   6.144  0.3034 -0.1823 -0.2495
 2751W        W 4751   7.219   4.571   2.748 -0.0943  0.3173  0.2401
 2752W        W 4752   2.794   6.224   4.183  0.0425  0.0155  0.1290
 2753W        W 4753   2.652   5.561   1.122  0.0038 -0.0841 -0.0866
 2754W        W 4754   3.701   2.193   4.101  0.0583  0.1324  0.1714
 2755W        W 4755   1.620   7.009   0.737  0.2207  0.1260  0.1633
 2756W        W 4756   4.405   0.176   4.600 -0.1209  0.2098  0.1923
 2757W        W 4757   3.427   5.212   0.519 -0.0113  0.5254  0.0970
 2758W        W 4758   5.892   6.587   0.725 -0.1229 -0.1347 -0.3764
 2759W        W 4759   6.024   2.755   6.331  0.1691  0.1847  0.0121
 2760W        W 4760   6.263   2.342   4.850 -0.0384 -0.1534 -0.0671
 2761W        W 4761   7.131   2.076   7.246  0.0188  0.0517 -0.3156
 2762W        W 4762   3.634   4.743   3.154  0.0352  0.0275 -0.3236
 2763W        W 4763   3.922   7.177   3.613 -0.0321  0.2241 -0.1081
 2764W        W 4764   6.958   2.328   3.310 -0.3092 -0.1319  0.0176
 2765W        W 4765   1.294   5.162   3.350  0.0119 -0.3512  0.1917
 2766W        W 4766   0.875   2.448   1.765 -0.0248 -0.2669 -0.4386
 2767W        W 4767   2.588   5.082   7.285 -0.0388 -0.0194  0.0372
 2768W        W 4768   0.457   1.414   3.367 -0.0927 -0.0018  0.3418
 2769W        W 4769   5.270   0.543   5.186  0.4362  0.1039 -0.2195
 2770W        W 4770   3.076   6.059   4.612  0.0245  0.0156  0.2344
 2771W        W 4771   7.177   7.170   1.795  0.1026 -0.0161  0.0532
 2772W        W 4772   0.522   5.981   0.381 -0.0823  0.1995 -0.2035
 2773W        W 4773   6.585   3.838   0.568  0.1443  0.1617  0.1736
 2774W        W 4774   7.071   5.178   0.743 -0.0652 -0.1689  0.1680
 2775W        W 4775   6.288   2.214   2.317  0.1143 -0.2292  0.1662
 2776W        W 4776   5.987   6.805   3.781  0.0824  0.0991 -0.0607
 2777W        W 4777   1.367   1.506   3.503 -0.0867  0.0448  0.0184
 2778W        W 4778   0.452   3.867   4.114  0.1140 -0.1545 -0.1520
 2779W        W 4779   6.917   4.856   0.048 -0.0632  0.1280  0.1747
 2780W        W 4780   0.143   5.385   4.649  0.2646  0.2815  0.2172
 2781W        W 4781   1.582   0.963   4.226  0.2625  0.0187  0.1784
 2782W        W 4782   6.195   3.630   0.738  0.1851 -0.0902  0.3148
 2783W        W 4783   3.123   3.545   3.218  0.0630  0.2325 -0.0434
 2784W        W 4784   5.832   4.228   1.872 -0.0633 -0.0679 -0.3314
 2785W        W 4785   4.734   4.341   0.698 -0.2406  0.1109 -0.0531
 2786W        W 4786   5.427   6.198   6.706 -0.1174  0.0061 -0.0658
 2787W        W 4787   6.303   2.340   5.668  0.1408 -0.1266 -0.0157
 2788W        W 4788   3.000   0.030   3.509 -0.1770  0.0066  0.0058
 2789W        W 4789   2.100   5.106   1.189  0.2618  0.0286 -0.3631
 2790W        W 4790   2.314   2.293   4.418  0.1377  0.0367 -0.2002
 2791W        W 4791   4.513   5.030   6.378 -0.0069 -0.0250  0.0560
 2792W        W 4792   6.123   4.984   3.792  0.0762 -0.1023  0.0727
 2793W        W 4793   0.181   1.992   0.296  0.0421 -0.0139 -0.2013
 2794W        W 4794   1.443   1.393   4.533 -0.1479  0.1924  0.0915
 2795W        W 4795   4.681   6.151   2.531 -0.0839 -0.2121  0.0776
 2796W        W 4796   2.889   5.852   5.883  0.3070 -0.1751 -0.3263
 2797W        W 4797   2.100   0.175   4.725 -0.1816  0.1331  0.2273
 2798W        W 4798   1.611   4.230   5.593  0.0020 -0.3461 -0.2087
 2799W        W 4799   2.941   5.671   2.823  0.1258  0.0778 -0.3259
 2800W        W 4800   1.942   0.721   4.537 -0.0478  0.2368 -0.3631
 2801W        W 4801   0.651   2.241   5.532  0.0962 -0.1115 -0.1152
 2802W        W 4802   5.552   4.836   2.587  0.1517 -0.1852  0.1818
 2803W        W 4803   1.891   3.683   4.290  0.4091 -0.1843  0.3848
 2804W        W 4804   4.713   1.585   2.563 -0.0859 -0.1916 -0.1832
 2805W        W 4805   5.178   5.228   1.916 -0.0391  0.4675  0.0643
 2806W        W 4806   7.245   4.491   5.397  0.2445  0.0518 -0.1595
 2807W        W 4807   5.699   1.227   3.685 -0.3213  0.1983  0.0586
 2808W        W 4808   5.700   5.638   6.809  0.3037  0.2611  0.1989
 2809W        W 4809   6.264   5.579   5.628 -0.1311 -0.1636  0.1498
 2810W        W 4810   0.066   4.783   1.869 -0.1767 -0.1605  0.1478
 2811W        W 4811   6.483   3.968   5.566 -0.2312  0.0129  0.3439
 2812W        W 4812   5.512   3.593   5.626  0.0221 -0.2163  0.0619
 2813W        W 4813   0.624   0.620   5.118  0.1367 -0.5184 -0.0476
 2814W        W 4814   4.093   1.198   2.955 -0.0683 -0.0229 -0.0038
 2815W        W 4815   2.910   4.323   3.699  0.1660  0.0022  0.0777
 2816W        W 4816   6.997   1.391   4.352 -0.2337 -0.1594  0.1454
 2817W        W 4817   1.444   6.858   3.080 -0.1903  0.0161  0.0372
 2818W        W 4818   5.606   2.514   1.095 -0.1951 -0.0829 -0.2055
 2819W        W 4819   3.913   0.358   2.617  0.2572 -0.0756 -0.0716
 2820W        W 4820   6.205   0.292   4.055 -0.1114 -0.0960  0.3515
 2821W        W 4821   0.373   6.330   4.426  0.2315  0.0857  0.3982
 2822W        W 4822   2.985   0.062   2.472  0.0777  0.1070 -0.2258
 2823W        W 4823   0.832   4.167   7.023  0.0669 -0.2581  0.2267
 2824W        W 4824   3.818   3.539   1.702 -0.3081 -0.0223 -0.0186
 2825W        W 4825   6.968   2.876   6.761  0.1606  0.3401  0.1170
 2826W        W 4826   0.299   2.346   3.515  0.3679 -0.1474  0.1212
 2827W        W 4827   2.752   6.915   4.664  0.1813  0.0822 -0.0989
 2828W        W 4828   4.465   0.212   1.930  0.0833  0.0940 -0.4047
 2829W        W 4829   6.442   0.743   3.191 -0.0559 -0.1897 -0.1590
 2830W        W 4830   7.229   3.813   2.402  0.0990  0.0749  0.4609
 2831W        W 4831   0.340   3.955   6.675  0.0441  0.0145 -0.1227
 2832W        W 4832   0.062   6.002   6.714  0.1032 -0.0111  0.0267
 2833W        W 4833   4.450   4.976   5.623  0.2013  0.1726  0.0990
 2834W        W 4834   5.977   2.906   2.807 -0.2068  0.1005  0.1146
 2835W        W 4835   5.791   0.029   4.017  0.3452  0.0077 -0.0326
 2836W        W 4836   7.142   1.089   3.971 -0.1688  0.0102  0.2648
 2837W        W 4837   1.411   3.719   4.396  0.1097 -0.0875 -0.1557
 2838W        W 4838   6.489   2.189   3.199  0.0448  0.0395  0.1369
 2839W        W 4839   3.860   2.768   3.917  0.0081 -0.0486  0.1347
 2840W        W 4840   4.249   6.550   2.667  0.2800  0.2600 -0.1306
 2841W        W 4841   7.150   2.543   1.816 -0.2152 -0.0958 -0.0799
 2842W        W 4842   6.981   3.076   3.760 -0.0663  0.0653  0.2932
 2843W        W 4843   0.610   0.703   7.013 -0.1962  0.1905 -0.1100
 2844W        W 4844   1.839   2.497   4.221 -0.0928  0.2935  0.3840
 2845W        W 4845   6.616   5.494   2.236 -0.0232  0.3687  0.1018
 2846W        W 4846   0.322   3.070   1.251 -0.1220  0.3579  0.1040
 2847W        W 4847   6.992   4.277   0.721  0.1029  0.2265  0.1260
 2848W        W 4848   6.973   1.162   4.786 -0.0866 -0.0191 -0.1527
 2849W        W 4849   4.766   3.908   6.383  0.0495 -0.1216  0.1603
 2850W        W 4850   1.687   4.061   4.597 -0.1045 -0.2064  0.0551
 2851W        W 4851   6.608   4.955   5.034  0.1773 -0.2670  0.2882
 2852W        W 4852   6.525   5.422   6.572  0.0973 -0.1491  0.0262
 2853W        W 4853   6.349   4.263   7.245 -0.1250  0.1064  0.1520
 2854W        W 4854   6.216   5.737   3.450 -0.1553  0.1991 -0.1021
 2855W        W 4855   4.402   4.847   1.311  0.3704 -0.0633 -0.0726
 2856W        W 4856   1.530   1.938   3.093  0.2770 -0.1396 -0.0892
 2857W        W 4857   2.616   6.978   3.401  0.2019 -0.1795  0.0842
 2858W        W 4858   2.423   5.111   2.651  0.1192 -0.0689 -0.1025
 2859W        W 4859   0.789   3.584   6.707 -0.0634 -0.1752  0.0798
 2860W        W 4860   5.694   3.328   1.723  0.1804 -0.0135  0.2092
 2861W        W 4861   1.030   5.950   2.420  0.0336  0.2716  0.1378
 2862W        W 4862   0.702   4.464   1.386  0.1708 -0.2179  0.0100
 2863W        W 4863   5.156   5.854   3.122  0.1667 -0.1710  0.3356
 2864W        W 4864   4.647   6.700   4.794 -0.0047 -0.1301  0.0124
 2865W        W 4865   0.952   2.072   2.740 -0.1039 -0.2453 -0.0314
 2866W        W 4866   0.921   1.379   1.824 -0.1694 -0.0487  0.2906
 2867W        W 4867   3.111   4.298   2.151  0.1450  0.1485  0.0893
 2868W        W 4868   4.774   5.272   0.419 -0.2103 -0.0341  0.0433
 2869W        W 4869   0.938   5.429   4.033  0.0352  0.2937  0.0394
 2870W        W 4870   6.543   5.634   4.930 -0.0539 -0.2547 -0.0239
 2871W        W 4871   5.848   3.295   2.549 -0.4747 -0.0571 -0.4402
 2872W        W 4872   1.714   6.492   5.773  0.1305  0.1812  0.3018
 2873W        W 4873   1.059   4.121   4.160  0.0733 -0.2721  0.4691
 2874W        W 4874   2.517   4.504   4.965 -0.2162  0.0465  0.0028
 2875W        W 4875   1.774   5.046   6.280 -0.0560 -0.1229 -0.0438
 2876W        W 4876   0.316   5.003   0.571  0.3014 -0.0163  0.1308
 2877W        W 4877   6.776   5.314   4.656  0.5116 -0.1828  0.0857
 2878W        W 4878   3.303   6.833   4.613 -0.2032 -0.1418 -0.0495
 2879W        W 4879   7.135   2.438   4.988 -0.1862 -0.0065 -0.1528
 2880W        W 4880   0.924   1.471   0.207  0.0013  0.1514 -0.1441
 2881W        W 4881   5.113   5.038   3.849  0.1886  0.1710 -0.2211
 2882W        W 4882   6.756   2.828   0.460 -0.4457  0.1721 -0.0983
 2883W        W 4883   3.126   5.344   1.318 -0.0581 -0.2284  0.2741
 2884W        W 4884   0.336   2.753   1.708  0.0745  0.1802 -0.2351
 2885W        W 4885   0.305   6.899   1.768  0.0372  0.1454  0.0614
 2886W        W 4886   7.033   3.207   7.110 -0.1970 -0.3579  0.1785
 2887W        W 4887   2.454   4.521   7.278  0.0507  0.0077  0.0255
 2888W        W 4888   0.179   0.898   5.987 -0.2837  0.3029  0.0395
 2889W        W 4889   5.006   4.439   3.059 -0.0936  0.1085 -0.0239
 2890W        W 4890   6.954   7.234   0.554  0.0169 -0.1985 -0.3083
 2891W        W 4891   0.406   1.288   6.881 -0.2595  0.1256 -0.2643
 2892W        W 4892   0.300   1.221   0.691 -0.1103 -0.0368  0.0335
 2893W        W 4893   7.111   5.742   4.789 -0.0464 -0.1056  0.1897
 2894W        W 4894   6.360   1.357   1.678  0.3409 -0.1696  0.3859
 2895W        W 4895   0.087   2.536   6.905 -0.0677  0.2965  0.0152
 2896W        W 4896   6.002   3.122   5.958  0.0507  0.0326  0.2762
 2897W        W 4897   6.846   1.921   2.964  0.0231 -0.0095 -0.0288
 2898W        W 4898   4.017   7.239   4.225  0.0764 -0.0145 -0.0550
 2899W        W 4899   1.779   2.357   3.063 -0.2539 -0.0484 -0.3355
 2900W        W 4900   4.426   5.113   0.865 -0.0291 -0.3009  0.1935
 2901W        W 4901   2.396   1.306   4.094 -0.0235  0.0831 -0.0092
 2902W        W 4902   4.234   5.135   4.550 -0.3318 -0.2998 -0.0901
 2903W        W 4903   0.519   6.315   6.775 -0.1445  0.0727 -0.0471
 2904W        W 4904   2.072   4.888   5.885 -0.1429 -0.2787  0.0253
 2905W        W 4905   0.967   6.082   6.615  0.1603  0.4050 -0.1787
 2906W        W 4906   0.164   3.528   4.402 -0.1340 -0.1031  0.2753
 2907W        W 4907   0.321   1.367   1.166 -0.1371  0.0473 -0.0482
 2908W        W 4908   6.980   3.943   3.716 -0.1591 -0.0277  0.2612
 2909W        W 4909   4.188   0.755   4.550 -0.0645 -0.3203  0.2594
 2910W        W 4910   4.623   6.824   5.306  0.0769 -0.0170  0.4887
 2911W        W 4911   6.272   1.404   4.635  0.0954 -0.0220  0.0405
 2912W        W 4912   4.198   2.259   3.002 -0.1261  0.0869  0.3442
 2913W        W 4913   1.946   6.044   1.824  0.1402 -0.0154 -0.2078
 2914W        W 4914   1.448   3.236   3.597  0.0902 -0.0223 -0.0677
 2915W        W 4915   4.966   6.678   2.088  0.1080  0.0172 -0.1820
 2916W        W 4916   2.078   4.230   4.173 -0.1370 -0.1087 -0.0686
 2917W        W 4917   3.753   6.479   6.727  0.3252  0.1616  0.0650
 2918W        W 4918   5.898   3.562   7.174  0.0943 -0.1469  0.3342
 2919W        W 4919   6.765   2.043   2.298 -0.3077  0.1543 -0.1615
 2920W        W 4920   0.118   3.189   4.756 -0.0777  0.0303 -0.1948
 2921W        W 4921   3.442   6.408   4.317  0.0929 -0.0936 -0.0017
 2922W        W 4922   5.504   5.404   3.104 -0.0628  0.0419  0.1059
 2923W        W 4923   1.976   1.899   2.971 -0.0564  0.0509 -0.0407
 2924W        W 4924   1.065   7.119   2.811 -0.1017  0.0945  0.3148
 2925W        W 4925   1.253   0.057   4.504  0.2561  0.1837  0.2026
 2926W        W 4926   1.713   0.509   3.014 -0.2305 -0.2328  0.2461
 2927W        W 4927   3.250   0.826   4.619  0.0414 -0.1918  0.0187
 2928W        W 4928   0.324   6.665   2.934  0.1702  0.1645  0.1216
 2929W        W 4929   1.038   5.517   6.442 -0.0305 -0.0895  0.1073
 2930W        W 4930   4.185   4.657   3.356 -0.2687  0.0956  0.1070
 2931W        W 4931   4.781   1.236   3.647 -0.0301 -0.1650 -0.2866
 2932W        W 4932   1.513   6.892   5.907 -0.2490  0.0965 -0.2966
 2933W        W 4933   6.819   6.615   3.377 -0.1814  0.0746  0.0644
 2934W        W 4934   3.528   0.573   3.591 -0.1187  0.1079 -0.3940
 2935W        W 4935   2.009   5.003   1.831 -0.2926  0.0294  0.0185
 2936W        W 4936   4.421   5.920   4.981  0.2199  0.1650  0.1309
 2937W        W 4937   5.541   7.178   4.426  0.2162 -0.1432  0.1308
 2938W        W 4938   3.044   5.709   7.131 -0.0562  0.0268 -0.0668
 2939W        W 4939   4.043   4.804   4.877 -0.0231  0.0142  0.2532
 2940W        W 4940   5.896   2.082   2.692  0.0548 -0.2399  0.2260
 2941W        W 4941   1.744   1.642   2.621 -0.1892 -0.0634 -0.2947
 2942W        W 4942   4.235   6.802   1.296  0.0300 -0.0941 -0.1157
 2943W        W 4943   7.099   4.206   1.240  0.2932 -0.2096 -0.1148
 2944W        W 4944   4.354   7.211   5.408 -0.0694 -0.1171  0.1244
 2945W        W 4945   4.897   3.012   4.836 -0.1048 -0.2161 -0.1198
 2946W        W 4946   5.148   6.279   2.814 -0.2662 -0.2824 -0.4011
 2947W        W 4947   5.727   2.966   1.336 -0.2778  0.3416 -0.1354
 2948W        W 4948   2.979   4.611   0.876 -0.0189  0.2769  0.1253
 2949W        W 4949   3.792   1.635   2.436 -0.2150  0.1595  0.1035
 2950W        W 4950   6.896   0.994   3.502  0.1179  0.1938  0.2477
 2951W        W 4951   1.339   1.457   5.497  0.0420  0.1101  0.2503
 2952W        W 4952   5.449   3.917   3.841  0.3092 -0.0061  0.0352
 2953W        W 4953   1.535   6.351   4.634 -0.1163 -0.2823  0.2195
 2954W        W 4954   3.373   5.225   3.189 -0.0113 -0.3380 -0.0117
 2955W        W 4955   0.592   3.227   7.048 -0.2726  0.2567 -0.1370
 2956W        W 4956   6.853   2.491   5.520  0.2531 -0.2745  0.2620
 2957W        W 4957   2.145   0.509   2.391 -0.0080 -0.0514  0.0151
 2958W        W 4958   4.206   5.571   3.077 -0.4041  0.1966 -0.0551
 2959W        W 4959   7.201   3.457   1.236  0.0383 -0.2324  0.0456
 2960W        W 4960   3.927   5.163   2.392  0.0010 -0.0418 -0.0893
 2961W        W 4961   0.729   5.408   5.438 -0.1852 -0.1240  0.2719
 2962W        W 4962   1.219   4.861   7.005  0.0986  0.0228  0.2182
 2963W        W 4963   5.498   0.912   0.643  0.2174  0.0847  0.2206
 2964W        W 4964   2.782   3.379   2.906  0.3248 -0.1028 -0.2200
 2965W        W 4965   6.630   2.369   0.191 -0.0601 -0.2882 -0.1124
 2966W        W 4966   6.353   4.323   6.576 -0.1095  0.0604 -0.0099
 2967W        W 4967   2.058   2.541   3.429 -0.1381 -0.1861  0.1012
 2968W        W 4968   3.386   4.328   2.960  0.0711 -0.0397  0.0522
 2969W        W 4969   0.512   1.914   0.636 -0.1112  0.2662 -0.2203
 2970W        W 4970   1.381   2.735   4.012 -0.2805 -0.1451 -0.0690
 2971W        W 4971   1.967   4.581   3.864  0.1875  0.3540 -0.0107
 2972W        W 4972   5.496   6.111   2.030 -0.1484 -0.0643 -0.2600
 2973W        W 4973   6.317   6.031   3.864 -0.0355 -0.2939 -0.0061
 2974W        W 4974   6.479   4.292   2.181  0.0145 -0.1985  0.0235
 2975W        W 4975   0.270   1.708   6.332 -0.4732  0.0850 -0.0281
 2976W        W 4976   6.767   1.955   4.159 -0.0917 -0.1168 -0.0794
 2977W        W 4977   1.261   3.926   5.865  0.1501  0.1224 -0.0296
 2978W        W 4978   0.478   6.459   1.550 -0.2070 -0.3100 -0.1339
 2979W        W 4979   2.036   3.041   3.493 -0.0104 -0.0373 -0.0889
 2980W        W 4980   0.178   6.726   4.744 -0.0611 -0.0758  0.2234
 2981W        W 4981   2.725   6.188   1.691  0.2631 -0.2262 -0.2397
 2982W        W 4982   0.230   4.803   2.402 -0.1647  0.3032 -0.1473
 2983W        W 4983   0.884   3.972   2.160  0.0718 -0.0481 -0.1805
 2984W        W 4984   2.570   5.631   1.945  0.2142  0.0786  0.0005
 2985W        W 4985   6.015   3.041   3.944 -0.0141 -0.2418  0.1109
 2986W        W 4986   5.473   5.081   3.511 -0.3580  0.0631  0.3009
 2987W        W 4987   6.964   4.713   1.402 -0.0152  0.0602 -0.0110
 2988W        W 4988   2.778   2.077   2.944  0.2476 -0.0185  0.1162
 2989W        W 4989   0.459   0.645   4.627  0.0685 -0.3081  0.0074
 2990W        W 4990   0.741   6.703   2.627 -0.1275 -0.2231  0.1200
 2991W        W 4991   5.573   4.794   1.011  0.1806  0.0319 -0.1730
 2992W        W 4992   2.500   4.736   2.972  0.1473 -0.0577  0.1038
 2993W        W 4993   2.449   0.513   3.733 -0.0161  0.4607  0.0422
 2994W        W 4994   1.609   4.521   0.599 -0.1325 -0.1688 -0.3513
 2995W        W 4995   6.748   0.601   2.713 -0.3607  0.0187 -0.2333
 2996W        W 4996   3.263   4.694   6.602  0.0779 -0.0045 -0.0753
 2997W        W 4997   1.708   7.126   4.655 -0.1515 -0.0725  0.0166
 2998W        W 4998   6.206   6.401   1.146 -0.0500 -0.1680 -0.3119
 2999W        W 4999   4.916   4.200   6.831 -0.0543  0.2589 -0.1177
 3000W        W 5000   6.297   1.797   4.975 -0.2481  0.0566  0.0692
 3001W        W 5001   4.341   3.425   4.176 -0.1312 -0.1587  0.1123
 3002W        W 5002   4.589   6.192   0.140  0.0576 -0.1094  0.1296
 3003W        W 5003   6.383   1.857   1.347 -0.1798  0.2349 -0.3405
 3004W        W 5004   0.920   5.374   0.499 -0.1109  0.0979  0.1707
 3005W        W 5005   6.026   3.989   4.562 -0.2908 -0.1121  0.1199
 3006W        W 5006   3.214   6.010   1.755  0.5893  0.0647  0.0259
 3007W        W 5007   3.394   5.668   1.068  0.0960 -0.3415 -0.5725
 3008W        W 5008   4.049   7.177   2.653  0.1683  0.3589 -0.2641
 3009W        W 5009   3.240   1.561   3.298 -0.0091 -0.1766  0.0535
 3010W        W 5010   7.070   5.837   1.541  0.0884 -0.1308  0.1327
 3011W        W 5011   0.701   1.718   4.980  0.0409  0.1423 -0.2876
 3012W        W 5012   6.820   2.972   4.896 -0.2810  0.0007  0.0539
 3013W        W 5013   5.246   3.502   2.306 -0.0472 -0.2457  0.0013
 3014W        W 5014   2.016   4.243   0.057 -0.1365  0.1286  0.0697
 3015W        W 5015   0.390   5.471   0.325  0.0131  0.2230 -0.0279
 3016W        W 5016   7.115   6.753   2.661  0.2512 -0.0133 -0.3343
 3017W        W 5017   0.290   4.992   4.879 -0.1269  0.1791  0.0370
 3018W        W 5018   4.748   5.492   1.949  0.1615 -0.3206 -0.4008
 3019W        W 5019   2.069   5.048   2.325  0.0927  0.0720 -0.0416
 3020W        W 5020   0.893   4.830   5.719  0.3110  0.3233 -0.0403
 3021W        W 5021   4.469   4.524   6.992 -0.0821 -0.2624 -0.1062
 3022W        W 5022   6.174   1.076   2.729  0.0562  0.1002 -0.0386
 3023W        W 5023   3.462   3.690   4.660 -0.2948  0.0505  0.2633
 3024W        W 5024   3.091   4.299   4.200 -0.2335 -0.0387 -0.0160
 3025W        W 5025   5.843   0.374   3.661  0.0160  0.0245 -0.2645
 3026W        W 5026   4.867   2.637   4.020  0.1279 -0.1736 -0.2886
 3027W        W 5027   7.215   7.254   6.553  0.2470  0.0706 -0.4656
 3028W        W 5028   7.012   6.137   7.166 -0.1271  0.3648  0.2704
 3029W        W 5029   4.716   6.000   2.005  0.4470 -0.0690 -0.0218
 3030W        W 5030   7.004   0.075   2.937 -0.2119 -0.0282  0.0686
 3031W        W 5031   4.932   5.535   5.500 -0.3263  0.2465 -0.3573
 3032W        W 5032   4.017   6.327   3.018  0.4371  0.0648 -0.0377
 3033W        W 5033   5.738   1.652   2.270  0.1146 -0.0428  0.1431
 3034W        W 5034   4.257   4.050   2.615 -0.2282 -0.1367 -0.0947
 3035W        W 5035   5.705   5.691   3.483 -0.1272 -0.1076  0.2208
 3036W        W 5036   6.664   1.978   6.354  0.0738  0.1545 -0.2211
 3037W        W 5037   1.663   3.035   1.685  0.0041  0.2462 -0.4081
 3038W        W 5038   5.913   6.770   1.984  0.3155  0.0854 -0.0525
 3039W        W 5039   7.157   3.102   3.148  0.0422 -0.0337  0.0966
 3040W        W 5040   4.477   4.053   5.480 -0.3113 -0.1149  0.0264
 3041W        W 5041   0.843   3.695   0.701 -0.0127  0.1888 -0.0161
 3042W        W 5042   5.705   0.815   5.342 -0.2698 -0.1063 -0.1867
 3043W        W 5043   7.105   1.998   6.685  0.2318 -0.2251  0.0977
 3044W        W 5044   3.215   4.678   4.513  0.2243 -0.0614 -0.0609
 3045W        W 5045   4.438   2.047   5.149 -0.0462 -0.0811  0.3111
 3046W        W 5046   6.265   6.145   4.343 -0.0577  0.1569  0.0665
 3047W        W 5047   6.974   3.150   0.867 -0.0316 -0.1906 -0.1277
 3048W        W 5048   2.220   4.124   0.986  0.0264 -0.0900 -0.0600
 3049W        W 5049   2.405   3.578   5.530  0.0324 -0.1271  0.1049
 3050W        W 5050   0.143   1.895   5.854 -0.0376  0.4711  0.0702
 3051W        W 5051   6.811   4.479   3.077  0.2639 -0.1343  0.0180
 3052W        W 5052   0.619   5.319   4.920  0.0904  0.5922  0.0935
 3053W        W 5053   1.266   3.930   0.825  0.0379  0.2196 -0.1072
 3054W        W 5054   6.282   6.867   5.184 -0.0721  0.2656 -0.0420
 3055W        W 5055   1.159   5.643   1.023 -0.1376 -0.0401  0.1693
 3056W        W 5056   1.703   7.024   1.962  0.0231  0.0938 -0.1832
 3057W        W 5057   3.731   4.640   4.447  0.0195 -0.0462 -0.0831
 3058W        W 5058   7.064   0.730   5.787  0.0321 -0.0448 -0.2423
 3059W        W 5059   3.640   6.066   6.420 -0.1481  0.1269 -0.1579
 3060W        W 5060   7.123   0.749   1.707 -0.0023 -0.0073  0.1214
 3061W        W 5061   6.661   3.781   2.675 -0.0196 -0.0290 -0.0377
 3062W        W 5062   5.328   6.318   3.995 -0.2757  0.1081  0.3538
 3063W        W 5063   0.047   7.137   2.279 -0.0912 -0.3405  0.0742
 3064W        W 5064   0.485   6.477   3.471  0.0339 -0.3231  0.1045
 3065W        W 5065   0.812   2.168   7.031  0.2500  0.1741  0.0201
 3066W        W 5066   0.408   3.238   2.466  0.0560 -0.2589 -0.0620
 3067W        W 5067   0.623   1.487   5.410 -0.1136 -0.2217  0.1855
 3068W        W 5068   6.557   3.540   1.036 -0.2481  0.0911 -0.1822
 3069W        W 5069   6.874   1.275   1.506 -0.1616  0.4200 -0.0889
 3070W        W 5070   0.265   6.391   2.510 -0.1238 -0.0957 -0.0958
 3071W        W 5071   5.744   3.238   6.445  0.0531  0.0216 -0.0035
   7.28895   7.28895   7.28895
