; reactants 1
[moleculetype]
A 1
[atoms]
1 W 1 A A 1 0
[moleculetype]
B 1
[atoms]
1 W 1 B B 1 0
[moleculetype]
C 1
[atoms]
1 W 1 C C 1 0
; reactant 2
[moleculetype]
D 1
[atoms]
1 W 1 D D 1 0

; solvent
[moleculetype]
W 1
[atoms]
1 W 1 W W 1 0

#ifdef DAEMON
[graph]
name A
atom 1 A *

[graph]
name B
atom 1 B *

[graph]
name C
atom 1 C *

[graph]
name D
atom 1 D *

[reaction]
a
[reactant]
D A
[condition]
r_max 1:1 2:1 0.55
rate 1
[rename]
1:1 W
2:1 W

[reaction]
b
[reactant]
D B
[condition]
r_max 1:1 2:1 0.5
rate 1
[rename]
1:1 W
2:1 W

[reaction]
c
[reactant]
D C
[condition]
r_max 1:1 2:1 0.45
rate 1
[rename]
1:1 W
2:1 W

#endif
