10x10 board
   100
    0OFF   OFF1    0   0.500   0.500   0.500
    0OFF   OFF1    1   1.500   0.500   0.500
    0OFF   OFF1    2   2.500   0.500   0.500
    0OFF   OFF1    3   3.500   0.500   0.500
    0OFF   OFF1    4   4.500   0.500   0.500
    0OFF   OFF1    5   5.500   0.500   0.500
    0OFF   OFF1    6   6.500   0.500   0.500
    0OFF   OFF1    7   7.500   0.500   0.500
    0OFF   OFF1    8   8.500   0.500   0.500
    0OFF   OFF1    9   9.500   0.500   0.500
    0OFF   OFF1   10   0.500   1.500   0.500
    0OFF   OFF1   11   1.500   1.500   0.500
    0OFF   OFF1   12   2.500   1.500   0.500
    0OFF   OFF1   13   3.500   1.500   0.500
    0OFF   OFF1   14   4.500   1.500   0.500
    0OFF   OFF1   15   5.500   1.500   0.500
    0OFF   OFF1   16   6.500   1.500   0.500
    0OFF   OFF1   17   7.500   1.500   0.500
    0OFF   OFF1   18   8.500   1.500   0.500
    0OFF   OFF1   19   9.500   1.500   0.500
    0OFF   OFF1   20   0.500   2.500   0.500
    0OFF   OFF1   21   1.500   2.500   0.500
    0OFF   OFF1   22   2.500   2.500   0.500
    0OFF   OFF1   23   3.500   2.500   0.500
    0OFF   OFF1   24   4.500   2.500   0.500
    0OFF   OFF1   25   5.500   2.500   0.500
    0OFF   OFF1   26   6.500   2.500   0.500
    0OFF   OFF1   27   7.500   2.500   0.500
    0OFF   OFF1   28   8.500   2.500   0.500
    0OFF   OFF1   29   9.500   2.500   0.500
    0OFF   OFF1   30   0.500   3.500   0.500
    0OFF   OFF1   31   1.500   3.500   0.500
    0OFF   OFF1   32   2.500   3.500   0.500
    0OFF   OFF1   33   3.500   3.500   0.500
    0OFF   OFF1   34   4.500   3.500   0.500
    0OFF   OFF1   35   5.500   3.500   0.500
    0OFF   OFF1   36   6.500   3.500   0.500
    0OFF   OFF1   37   7.500   3.500   0.500
    0OFF   OFF1   38   8.500   3.500   0.500
    0OFF   OFF1   39   9.500   3.500   0.500
    0OFF   OFF1   40   0.500   4.500   0.500
    0OFF   OFF1   41   1.500   4.500   0.500
    0OFF   OFF1   42   2.500   4.500   0.500
    0OFF   OFF1   43   3.500   4.500   0.500
    0OFF   OFF1   44   4.500   4.500   0.500
    0OFF   OFF1   45   5.500   4.500   0.500
    0OFF   OFF1   46   6.500   4.500   0.500
    0OFF   OFF1   47   7.500   4.500   0.500
    0OFF   OFF1   48   8.500   4.500   0.500
    0OFF   OFF1   49   9.500   4.500   0.500
    0OFF   OFF1   50   0.500   5.500   0.500
    0OFF   OFF1   51   1.500   5.500   0.500
    0OFF   OFF1   52   2.500   5.500   0.500
    0OFF   OFF1   53   3.500   5.500   0.500
    0OFF   OFF1   54   4.500   5.500   0.500
    0OFF   OFF1   55   5.500   5.500   0.500
    0OFF   OFF1   56   6.500   5.500   0.500
    0OFF   OFF1   57   7.500   5.500   0.500
    0OFF   OFF1   58   8.500   5.500   0.500
    0OFF   OFF1   59   9.500   5.500   0.500
    0OFF   OFF1   60   0.500   6.500   0.500
    0OFF   OFF1   61   1.500   6.500   0.500
    0OFF   OFF1   62   2.500   6.500   0.500
    0OFF   OFF1   63   3.500   6.500   0.500
    0OFF   OFF1   64   4.500   6.500   0.500
    0OFF   OFF1   65   5.500   6.500   0.500
    0OFF   OFF1   66   6.500   6.500   0.500
    0OFF   OFF1   67   7.500   6.500   0.500
    0OFF   OFF1   68   8.500   6.500   0.500
    0OFF   OFF1   69   9.500   6.500   0.500
    0OFF   OFF1   70   0.500   7.500   0.500
    0OFF   OFF1   71   1.500   7.500   0.500
    0OFF   OFF1   72   2.500   7.500   0.500
    0OFF   OFF1   73   3.500   7.500   0.500
    0OFF   OFF1   74   4.500   7.500   0.500
    0OFF   OFF1   75   5.500   7.500   0.500
    0OFF   OFF1   76   6.500   7.500   0.500
    0OFF   OFF1   77   7.500   7.500   0.500
    0OFF   OFF1   78   8.500   7.500   0.500
    0OFF   OFF1   79   9.500   7.500   0.500
    0OFF   OFF1   80   0.500   8.500   0.500
    0OFF   OFF1   81   1.500   8.500   0.500
    0OFF   OFF1   82   2.500   8.500   0.500
    0OFF   OFF1   83   3.500   8.500   0.500
    0OFF   OFF1   84   4.500   8.500   0.500
    0OFF   OFF1   85   5.500   8.500   0.500
    0OFF   OFF1   86   6.500   8.500   0.500
    0OFF   OFF1   87   7.500   8.500   0.500
    0OFF   OFF1   88   8.500   8.500   0.500
    0OFF   OFF1   89   9.500   8.500   0.500
    0OFF   OFF1   90   0.500   9.500   0.500
    0OFF   OFF1   91   1.500   9.500   0.500
    0OFF   OFF1   92   2.500   9.500   0.500
    0OFF   OFF1   93   3.500   9.500   0.500
    0OFF   OFF1   94   4.500   9.500   0.500
    0OFF   OFF1   95   5.500   9.500   0.500
    0OFF   OFF1   96   6.500   9.500   0.500
    0OFF   OFF1   97   7.500   9.500   0.500
    0OFF   OFF1   98   8.500   9.500   0.500
    0OFF   OFF1   99   9.500   9.500   0.500
  10.00000  10.00000  10.00000
