t=10200.0 ps
400
    1W        W    1   2.397   3.148   1.501  0.1661  0.2173 -0.0695
    2W        W    2   2.760   2.192   1.704  0.1045 -0.0652  0.2183
    3W        W    3   3.282   2.386   1.594 -0.0918 -0.1192 -0.1537
    4W        W    4   3.272   1.837   1.346 -0.2559 -0.0936 -0.0161
    5W        W    5   2.263   2.205   1.692 -0.2025  0.1271 -0.2496
    6W        W    6   2.760   2.039   1.480 -0.0140  0.0213 -0.0419
    7W        W    7   2.712   2.140   2.234 -0.1516  0.0906  0.0275
    8W        W    8   2.763   3.170   1.813 -0.1781 -0.0747 -0.4051
    9W        W    9   2.617   2.582   1.462 -0.2211 -0.0251 -0.2994
   10W        W   10   2.737   2.951   2.036 -0.1117 -0.0638  0.0326
   11W        W   11   2.895   1.504   1.562  0.3081 -0.1633  0.0702
   12W        W   12   3.054   2.426   2.058 -0.2044 -0.1755 -0.0797
   13W        W   13   2.276   2.074   1.414  0.1280  0.1413 -0.1625
   14W        W   14   2.836   1.690   2.022 -0.0492  0.1279  0.0689
   15W        W   15   2.673   2.585   2.504  0.2861  0.0527  0.0358
   16W        W   16   2.783   2.154   1.222 -0.1845 -0.1951 -0.0852
   17W        W   17   2.884   2.597   1.399  0.0354 -0.2787 -0.0360
   18W        W   18   0.623   2.131   0.659  0.1748  0.0189  0.0962
   19W        W   19   2.994   1.548   1.841 -0.0221 -0.1384  0.1281
   20W        W   20   2.470   2.278   1.820 -0.2556  0.0661  0.1636
   21W        W   21   2.260   2.909   1.379  0.0584 -0.1944  0.2055
   22W        W   22   3.089   2.568   1.611 -0.1823 -0.0977 -0.0714
   23W        W   23   2.968   2.171   2.146 -0.2267  0.0277 -0.0537
   24W        W   24   2.470   1.690   1.690 -0.1486 -0.0560 -0.2787
   25W        W   25   2.559   2.375   2.325 -0.1524  0.0414  0.0419
   26W        W   26   0.543   0.220   2.769 -0.0127  0.0669 -0.0032
   27W        W   27   3.266   2.057   1.171  0.0113 -0.2412 -0.1775
   28W        W   28   2.624   1.524   1.527  0.0806 -0.2339  0.2105
   29W        W   29   2.546   1.741   1.949  0.0050 -0.2062  0.1388
   30W        W   30   2.425   2.670   1.298  0.0601  0.1552 -0.2268
   31W        W   31   2.660   3.134   1.547  0.0417 -0.3057  0.0534
   32W        W   32   2.621   2.727   1.978 -0.2225  0.1215  0.0576
   33W        W   33   3.281   2.143   1.756 -0.0223  0.0972  0.1302
   34W        W   34   2.182   2.885   1.908 -0.3495  0.3455 -0.1763
   35W        W   35   3.129   2.619   2.231  0.0370  0.4518  0.0115
   36W        W   36   3.278   1.910   1.665 -0.2811  0.0182  0.1698
   37W        W   37   2.922   2.658   2.505 -0.0967 -0.1919  0.0497
   38W        W   38   2.323   2.742   1.842 -0.1517 -0.0452 -0.0709
   39W        W   39   2.249   2.210   1.197  0.1799 -0.1058 -0.2034
   40W        W   40   3.004   2.211   1.124  0.0192 -0.1518 -0.0590
   41MEO    MEO   41   2.384   1.743   0.463 -0.0267  0.3056  0.1772
   42MEO    MEO   42   1.772   2.687   1.811 -0.1789 -0.0592  0.3281
   43MEO    MEO   43   0.426   2.330   1.496  0.1031  0.1932 -0.2482
   44MEO    MEO   44   2.054   2.407   2.010  0.1175 -0.0886  0.4997
   45MEO    MEO   45   2.819   1.300   2.771 -0.2205 -0.2163 -0.0092
   46MEO    MEO   46   1.116   0.368   0.606 -0.1397  0.0060  0.1795
   47MEO    MEO   47   2.993   0.838   2.827 -0.0358 -0.0341 -0.2782
   48MEO    MEO   48   2.032   1.718   1.648 -0.0567 -0.2316  0.1803
   49MEO    MEO   49   2.543   0.560   2.230 -0.2167 -0.0342  0.4011
   50MEO    MEO   50   1.776   1.637   2.320  0.2278 -0.0861  0.3791
   51MEO    MEO   51   1.778   2.145   1.625 -0.0979 -0.0157 -0.0574
   52MEO    MEO   52   1.949   0.904   1.209  0.0873 -0.0521  0.0630
   53MEO    MEO   53   0.731   2.810   2.363  0.1968  0.4018  0.1709
   54MEO    MEO   54   2.715   2.026   3.083  0.1175  0.2791 -0.0670
   55MEO    MEO   55   0.242   0.850   0.093 -0.0216 -0.1148 -0.3031
   56MEO    MEO   56   1.903   0.242   0.035 -0.1095  0.1158 -0.2631
   57MEO    MEO   57   1.959   1.239   0.037  0.1660 -0.0381  0.1463
   58MEO    MEO   58   1.502   1.579   0.497  0.1077  0.0116  0.2898
   59MEO    MEO   59   1.426   0.824   1.499 -0.0697  0.1192  0.5437
   60MEO    MEO   60   2.189   1.314   1.709  0.0546  0.2349 -0.0604
   61MEO    MEO   61   0.025   0.454   2.417 -0.1077  0.2299 -0.4259
   62MEO    MEO   62   0.724   2.655   0.849 -0.2075 -0.2121  0.0449
   63MEO    MEO   63   1.645   2.214   0.402  0.2096  0.0469 -0.2100
   64MEO    MEO   64   0.336   1.383   0.775 -0.2105  0.1168 -0.0700
   65MEO    MEO   65   1.699   0.667   0.925 -0.0987 -0.2218  0.1996
   66MEO    MEO   66   3.143   2.019   0.083 -0.5858 -0.1395  0.0544
   67MEO    MEO   67   0.063   2.519   0.223 -0.0519  0.2333 -0.0888
   68MEO    MEO   68   3.121   2.244   2.560  0.0305 -0.1743  0.2108
   69MEO    MEO   69   1.219   2.182   3.089  0.3195  0.0592  0.0175
   70MEO    MEO   70   0.675   1.791   0.181 -0.0509 -0.2913  0.3473
   71MEO    MEO   71   2.127   2.855   2.743 -0.0890 -0.2034 -0.2110
   72MEO    MEO   72   0.666   0.823   3.121  0.0668  0.0572 -0.2997
   73MEO    MEO   73   2.233   2.694   2.303  0.4022 -0.2509  0.2805
   74MEO    MEO   74   0.724   1.688   1.918  0.3193 -0.0380 -0.4237
   75MEO    MEO   75   1.269   1.347   2.006 -0.2056  0.4079  0.1770
   76MEO    MEO   76   2.512   2.923   0.229  0.1522 -0.0823 -0.3328
   77MEO    MEO   77   0.272   1.825   3.227 -0.0183  0.5644 -0.0983
   78MEO    MEO   78   2.951   2.783   0.324  0.0765 -0.0293  0.0615
   79MEO    MEO   79   2.284   0.931   0.874  0.0638 -0.3384 -0.2038
   80MEO    MEO   80   1.165   2.620   0.570 -0.2113  0.1384 -0.0544
   81MEO    MEO   81   0.081   2.858   2.602 -0.0070 -0.3773  0.2412
   82MEO    MEO   82   2.566   0.783   0.425 -0.0114 -0.3490 -0.0749
   83MEO    MEO   83   2.955   0.456   1.087  0.0975 -0.5380 -0.2225
   84MEO    MEO   84   0.662   0.603   0.595  0.1593  0.2102  0.0829
   85MEO    MEO   85   2.845   2.424   2.909 -0.3202  0.2660  0.0250
   86MEO    MEO   86   2.016   2.494   3.111 -0.0475 -0.1555 -0.1825
   87MEO    MEO   87   0.485   0.641   2.785  0.0622 -0.2718  0.5583
   88MEO    MEO   88   1.599   2.345   2.016 -0.8837  0.2267 -0.3011
   89MEO    MEO   89   2.057   1.273   0.879 -0.1350 -0.1984  0.0041
   90MEO    MEO   90   0.573   2.542   3.189 -0.1431 -0.0058  0.1068
   91MEO    MEO   91   0.100   3.271   2.470  0.1014  0.3531 -0.2830
   92MEO    MEO   92   2.828   0.104   2.700 -0.1019  0.0020 -0.1361
   93MEO    MEO   93   2.516   2.987   2.393  0.2770  0.1314  0.3664
   94MEO    MEO   94   1.610   2.881   2.137 -0.2289  0.3133 -0.2508
   95MEO    MEO   95   0.982   3.168   1.266  0.0194 -0.1816  0.1772
   96MEO    MEO   96   0.571   1.148   0.193 -0.1120 -0.1835  0.1136
   97MEO    MEO   97   0.418   0.242   0.541  0.1031 -0.2147 -0.0525
   98MEO    MEO   98   2.880   0.703   1.557  0.2584  0.4564  0.3135
   99MEO    MEO   99   2.153   1.854   0.829  0.0102 -0.3499  0.0646
  100MEO    MEO  100   3.187   0.232   0.725 -0.0575  0.0865 -0.0614
  101MEO    MEO  101   2.211   1.547   2.513 -0.1760 -0.1143  0.1505
  102MEO    MEO  102   1.366   2.571   2.858  0.2676  0.3234 -0.2456
  103MEO    MEO  103   1.032   1.159   2.963 -0.0081 -0.0113 -0.2591
  104MEO    MEO  104   1.882   1.301   0.484 -0.0854  0.2986 -0.0598
  105MEO    MEO  105   2.012   2.554   1.486  0.3777 -0.0153  0.3138
  106MEO    MEO  106   1.662   1.644   0.061 -0.1575 -0.2820 -0.2872
  107MEO    MEO  107   2.082   1.649   0.014 -0.0307  0.0791  0.2848
  108MEO    MEO  108   0.134   2.081   2.180  0.2736 -0.3553  0.0597
  109MEO    MEO  109   0.086   1.204   2.125 -0.1260 -0.1655  0.1560
  110MEO    MEO  110   0.527   1.199   2.447  0.1060 -0.0768 -0.4827
  111MEO    MEO  111   3.193   1.368   0.752 -0.0788 -0.0273 -0.1038
  112MEO    MEO  112   1.558   1.048   1.132 -0.1884 -0.0382  0.2157
  113MEO    MEO  113   1.014   1.504   0.409  0.2252  0.0185 -0.3964
  114MEO    MEO  114   1.928   1.315   1.377  0.4419 -0.0196  0.0073
  115MEO    MEO  115   1.698   2.147   0.009  0.3043  0.1006  0.2457
  116MEO    MEO  116   0.985   0.887   1.499  0.3235 -0.0354 -0.0954
  117MEO    MEO  117   1.481   1.101   0.677 -0.2348  0.0961 -0.1692
  118MEO    MEO  118   0.975   1.833   3.212  0.2774 -0.3541  0.2120
  119MEO    MEO  119   0.736   1.667   0.709 -0.1329 -0.1829 -0.1997
  120MEO    MEO  120   1.365   2.392   0.170 -0.1524 -0.0912 -0.5921
  121MEO    MEO  121   0.309   0.935   0.504 -0.0221 -0.3477  0.0106
  122MEO    MEO  122   1.048   2.403   1.031  0.1158 -0.0545 -0.3749
  123MEO    MEO  123   0.293   2.482   1.982 -0.4426  0.1490  0.0516
  124MEO    MEO  124   0.158   3.174   0.482  0.1195  0.2461 -0.3083
  125MEO    MEO  125   1.902   2.624   0.546  0.2244 -0.0148  0.0262
  126MEO    MEO  126   3.073   0.622   0.684 -0.4794  0.2041  0.2505
  127MEO    MEO  127   2.238   0.656   0.167  0.0669  0.2742  0.0850
  128MEO    MEO  128   1.356   0.036   1.517  0.0593  0.0239 -0.2696
  129MEO    MEO  129   0.278   2.107   2.641 -0.3428 -0.1802  0.7460
  130MEO    MEO  130   1.860   1.789   2.955  0.0324  0.4453  0.2873
  131MEO    MEO  131   2.152   1.602   2.081 -0.0694  0.0629 -0.0287
  132MEO    MEO  132   2.016   0.441   2.973  0.0454 -0.0279  0.1273
  133MEO    MEO  133   1.275   2.631   1.990  0.0963  0.0708 -0.4434
  134MEO    MEO  134   1.204   1.320   1.203  0.0595  0.2563 -0.1309
  135MEO    MEO  135   0.944   0.603   1.938 -0.0646  0.3003 -0.0999
  136MEO    MEO  136   0.618   3.139   2.159  0.1776 -0.1390  0.1644
  137MEO    MEO  137   2.272   2.091   0.122 -0.1870  0.1846 -0.3327
  138MEO    MEO  138   2.416   2.508   0.282  0.0016  0.2285 -0.1226
  139MEO    MEO  139   2.223   1.132   2.140  0.1554 -0.0093  0.2696
  140MEO    MEO  140   3.120   2.025   0.651  0.0240  0.0315 -0.0933
  141MEO    MEO  141   0.320   1.480   1.197 -0.0876 -0.1034 -0.1281
  142MEO    MEO  142   3.137   0.832   1.151 -0.0532 -0.1980 -0.0695
  143MEO    MEO  143   2.423   1.252   0.592  0.0422  0.0115  0.3197
  144MEO    MEO  144   1.571   2.757   0.228 -0.0154 -0.1939  0.0069
  145MEO    MEO  145   1.329   1.917   0.289  0.3156 -0.0132 -0.1247
  146MEO    MEO  146   2.713   1.989   0.763  0.1423  0.0341  0.2420
  147MEO    MEO  147   2.731   2.797   0.724 -0.0759  0.4079 -0.1848
  148MEO    MEO  148   1.175   1.079   0.372 -0.1813 -0.3491  0.0307
  149MEO    MEO  149   0.379   3.153   3.089  0.1137 -0.1586  0.5242
  150MEO    MEO  150   1.795   0.745   0.113  0.3860 -0.0212 -0.0881
  151MEO    MEO  151   2.772   3.237   3.205 -0.0271  0.0752  0.0030
  152MEO    MEO  152   0.225   2.482   2.422 -0.0413  0.0945  0.3032
  153MEO    MEO  153   3.221   1.327   1.210  0.2698 -0.3957  0.1350
  154MEO    MEO  154   0.667   0.207   0.938 -0.1905 -0.4061  0.0643
  155MEO    MEO  155   2.971   0.536   2.059  0.0008  0.1773 -0.4508
  156MEO    MEO  156   1.937   3.164   1.574  0.3178 -0.0358 -0.2853
  157MEO    MEO  157   1.170   1.361   0.755  0.2805  0.0208  0.2190
  158MEO    MEO  158   0.732   2.725   1.418 -0.2980  0.0227  0.0348
  159MEO    MEO  159   1.824   0.151   1.273  0.0823  0.2437  0.1068
  160MEO    MEO  160   1.463   2.450   1.610  0.0234 -0.1314  0.0065
  161MEO    MEO  161   2.016   2.310   0.797  0.1819 -0.1454  0.1968
  162MEO    MEO  162   0.435   0.358   2.278 -0.1191 -0.0203  0.1690
  163MEO    MEO  163   1.544   0.112   2.997 -0.0094  0.0629 -0.0804
  164MEO    MEO  164   0.450   2.545   1.126  0.2463  0.1996  0.2845
  165MEO    MEO  165   2.348   0.174   2.552 -0.0939  0.0187  0.2293
  166MEO    MEO  166   0.531   2.476   0.382  0.4559 -0.0519  0.1552
  167MEO    MEO  167   1.428   0.955   3.245  0.1315 -0.0634  0.0491
  168MEO    MEO  168   3.133   1.122   2.491  0.2567  0.0234  0.2493
  169MEO    MEO  169   2.246   0.745   1.451 -0.2390 -0.2859 -0.1649
  170MEO    MEO  170   2.137   0.670   1.897 -0.0821 -0.4607  0.1827
  171MEO    MEO  171   0.199   1.789   0.763  0.1209  0.2064 -0.0981
  172MEO    MEO  172   0.903   3.226   2.545 -0.2026 -0.3293  0.0316
  173MEO    MEO  173   2.783   2.389   0.579  0.0691  0.0268  0.0212
  174MEO    MEO  174   2.554   0.454   1.368  0.3310  0.2651  0.1659
  175MEO    MEO  175   3.263   2.863   1.892 -0.4245 -0.3620  0.2259
  176MEO    MEO  176   2.884   1.635   3.251 -0.0877  0.1374 -0.0569
  177MEO    MEO  177   2.607   0.752   1.861  0.0718 -0.2272 -0.2256
  178MEO    MEO  178   2.337   2.696   0.646  0.1392 -0.0618  0.1039
  179MEO    MEO  179   0.489   3.099   2.579  0.4009 -0.1058  0.3029
  180MEO    MEO  180   2.031   2.614   1.045 -0.1748  0.2757  0.1682
  181MEO    MEO  181   1.515   0.317   0.137 -0.0070 -0.1571  0.1797
  182MEO    MEO  182   2.988   0.673   0.167  0.0085  0.2182  0.0525
  183MEO    MEO  183   2.709   3.017   2.761  0.3775 -0.1672 -0.1670
  184MEO    MEO  184   2.466   2.698   2.972 -0.1489 -0.1477 -0.3099
  185MEO    MEO  185   2.612   0.589   2.792 -0.4910 -0.1271 -0.2455
  186MEO    MEO  186   0.127   1.680   2.074 -0.0215 -0.2334 -0.1781
  187MEO    MEO  187   1.585   2.944   2.820  0.0007  0.0148 -0.3323
  188MEO    MEO  188   2.796   1.402   0.385 -0.2194 -0.2323 -0.0302
  189MEO    MEO  189   2.278   2.040   2.155  0.5977  0.1575  0.2740
  190MEO    MEO  190   2.665   1.334   2.370 -0.4655 -0.0066  0.1964
  191MEO    MEO  191   0.524   1.188   2.925 -0.1113  0.1704 -0.1109
  192MEO    MEO  192   3.044   1.789   2.790  0.0247 -0.1395  0.1997
  193MEO    MEO  193   2.247   0.933   3.093 -0.1002 -0.1445  0.0613
  194MEO    MEO  194   0.588   0.183   1.357 -0.4584  0.2019  0.2725
  195MEO    MEO  195   0.155   1.385   2.674  0.2418  0.0262 -0.4783
  196MEO    MEO  196   2.299   0.474   0.597 -0.1239  0.1483 -0.0332
  197MEO    MEO  197   1.026   2.390   1.637  0.1073 -0.0689 -0.0358
  198MEO    MEO  198   1.041   0.756   0.066 -0.0979  0.2098 -0.1787
  199MEO    MEO  199   3.267   2.635   3.047  0.4014  0.1810  0.1102
  200MEO    MEO  200   1.258   1.493   0.010 -0.2788  0.3396  0.2254
  201MEO    MEO  201   0.932   1.817   1.095 -0.3433  0.0147  0.0644
  202MEO    MEO  202   0.433   1.415   2.087  0.0507  0.2781  0.1619
  203MEO    MEO  203   1.491   1.974   2.235  0.1349 -0.0222  0.2133
  204MEO    MEO  204   1.320   1.907   1.787 -0.5136  0.1277 -0.0146
  205MEO    MEO  205   3.247   2.200   2.949  0.1694  0.2884 -0.1697
  206MEO    MEO  206   2.104   2.896   0.286  0.0881 -0.1844 -0.1882
  207MEO    MEO  207   2.973   2.398   0.058  0.0773  0.1211 -0.0371
  208MEO    MEO  208   3.226   2.678   0.669  0.2805  0.2431  0.0202
  209MEO    MEO  209   0.802   1.975   1.622  0.2135  0.0283  0.3118
  210MEO    MEO  210   0.471   2.571   2.782 -0.2563  0.2127  0.3290
  211MEO    MEO  211   0.944   0.454   2.922  0.1900 -0.0320  0.1691
  212MEO    MEO  212   2.850   0.371   3.072  0.0103  0.4859  0.2959
  213MEO    MEO  213   2.804   3.190   0.512  0.1764  0.1318 -0.0576
  214MEO    MEO  214   0.181   2.971   1.268 -0.0590  0.1747  0.5161
  215MEO    MEO  215   0.553   0.298   1.874  0.0941 -0.0412 -0.2332
  216MEO    MEO  216   1.977   1.793   0.394  0.3405  0.3231  0.1543
  217MEO    MEO  217   0.520   1.283   1.662 -0.1227  0.3206 -0.0685
  218MEO    MEO  218   3.052   0.095   2.095 -0.1825  0.0493 -0.2288
  219MEO    MEO  219   0.436   1.518   0.362  0.1792  0.2794 -0.1307
  220MEO    MEO  220   1.077   3.261   0.849 -0.1805 -0.0762 -0.0053
  221MEO    MEO  221   1.354   0.451   1.813 -0.2554 -0.2210  0.0877
  222MEO    MEO  222   3.158   3.068   0.862  0.1092 -0.0670 -0.1427
  223MEO    MEO  223   0.804   3.241   3.090 -0.2398  0.0046  0.0503
  224MEO    MEO  224   2.304   0.131   1.162 -0.4803 -0.4382  0.1375
  225MEO    MEO  225   2.284   0.003   1.925 -0.2909 -0.1029 -0.2966
  226MEO    MEO  226   0.147   2.277   0.779 -0.1839 -0.0025  0.4036
  227MEO    MEO  227   1.799   0.582   1.429 -0.0228 -0.2210  0.2087
  228MEO    MEO  228   0.127   1.027   0.892 -0.2848 -0.1042 -0.2152
  229MEO    MEO  229   0.902   1.384   1.481 -0.0969  0.0488 -0.2714
  230MEO    MEO  230   0.690   3.056   1.733  0.1983 -0.2126 -0.2422
  231MEO    MEO  231   2.854   2.795   3.148  0.0621  0.2754  0.1217
  232MEO    MEO  232   2.430   0.271   2.970  0.0472  0.2486  0.0753
  233MEO    MEO  233   0.183   1.283   0.019 -0.2775 -0.1924 -0.4036
  234MEO    MEO  234   0.561   0.754   2.096 -0.4521  0.2268 -0.3012
  235MEO    MEO  235   3.143   0.054   1.227  0.2430 -0.2875  0.0637
  236MEO    MEO  236   1.566   1.632   1.512 -0.0854 -0.2260 -0.0507
  237MEO    MEO  237   2.119   0.562   1.011 -0.0189  0.2794 -0.0799
  238MEO    MEO  238   0.492   2.077   1.892 -0.1046  0.1495 -0.0027
  239MEO    MEO  239   0.836   1.099   1.847 -0.0309  0.2466 -0.4128
  240MEO    MEO  240   2.025   1.759   1.176 -0.1706 -0.1549 -0.1940
  241MEO    MEO  241   3.017   1.625   2.430  0.0715  0.2176  0.2211
  242MEO    MEO  242   1.620   1.470   0.905 -0.0629 -0.0472 -0.1150
  243MEO    MEO  243   3.244   3.022   0.026 -0.1966  0.0004  0.4894
  244MEO    MEO  244   1.467   2.339   0.919 -0.2220 -0.2454  0.4252
  245MEO    MEO  245   2.318   1.354   1.219  0.0309 -0.0467 -0.0127
  246MEO    MEO  246   1.914   2.095   2.464 -0.4157  0.2703  0.0698
  247MEO    MEO  247   1.282   2.801   3.189  0.1177 -0.1270  0.1952
  248MEO    MEO  248   1.439   1.107   2.659  0.3736  0.0923  0.0404
  249MEO    MEO  249   0.720   0.208   0.153 -0.2404  0.2770 -0.1916
  250MEO    MEO  250   1.677   1.274   2.999  0.1938  0.2705 -0.0342
  251MEO    MEO  251   0.119   0.417   1.229  0.0203  0.1425  0.2132
  252MEO    MEO  252   1.238   0.745   2.833 -0.1332  0.2850 -0.2406
  253MEO    MEO  253   1.848   2.961   1.207 -0.3275  0.0905 -0.2292
  254MEO    MEO  254   1.467   3.077   0.492 -0.0664 -0.1434 -0.3252
  255MEO    MEO  255   2.070   3.129   2.362 -0.0548 -0.1944  0.1247
  256MEO    MEO  256   2.955   1.079   1.458  0.3325 -0.0270 -0.0809
  257MEO    MEO  257   2.083   1.343   2.945  0.0841 -0.0623 -0.0733
  258MEO    MEO  258   0.260   2.063   0.335 -0.0728 -0.0830 -0.1483
  259MEO    MEO  259   1.561   0.207   0.678 -0.1847 -0.0106 -0.0596
  260MEO    MEO  260   0.232   0.054   1.557  0.1767  0.2838  0.2327
  261MEO    MEO  261   0.573   0.857   1.642 -0.0395  0.1867  0.0199
  262MEO    MEO  262   0.432   3.035   0.205 -0.0463 -0.2612 -0.1275
  263MEO    MEO  263   1.671   2.532   1.238 -0.3380  0.0475  0.1729
  264MEO    MEO  264   0.143   0.991   2.836  0.0561 -0.0316  0.0105
  265MEO    MEO  265   1.770   0.263   1.792 -0.1306  0.0397 -0.0800
  266MEO    MEO  266   1.420   2.238   2.599  0.0346  0.0244 -0.0353
  267MEO    MEO  267   2.503   1.035   1.561 -0.1205 -0.2129 -0.3287
  268MEO    MEO  268   3.065   0.204   0.150 -0.0533  0.1062  0.5242
  269MEO    MEO  269   0.641   2.301   2.432  0.0189  0.2177  0.2309
  270MEO    MEO  270   1.279   0.852   1.933 -0.2221 -0.1113 -0.1582
  271MEO    MEO  271   1.616   1.096   2.212  0.0283  0.0115 -0.1932
  272MEO    MEO  272   0.850   1.459   2.270  0.2564  0.0904  0.2800
  273MEO    MEO  273   2.227   0.763   2.666  0.1011  0.0987 -0.2131
  274MEO    MEO  274   1.116   0.225   3.236 -0.4738  0.2141  0.0202
  275MEO    MEO  275   0.623   2.128   3.253 -0.3887 -0.3126  0.0877
  276MEO    MEO  276   0.652   1.933   2.869  0.1319 -0.1513 -0.2943
  277MEO    MEO  277   0.753   1.448   3.187 -0.2675  0.0010 -0.0477
  278MEO    MEO  278   1.938   0.468   0.436 -0.0669 -0.1332 -0.1786
  279MEO    MEO  279   1.203   3.138   2.901  0.1356  0.1745  0.0521
  280MEO    MEO  280   0.626   3.067   1.048  0.4531  0.2402 -0.1209
  281MEO    MEO  281   3.140   1.077   0.384  0.3640  0.1687  0.1981
  282MEO    MEO  282   0.493   1.776   2.383  0.1610 -0.5232 -0.0143
  283MEO    MEO  283   3.219   1.619   0.352 -0.0278  0.2225 -0.0532
  284MEO    MEO  284   0.009   0.865   1.609 -0.2626  0.2742 -0.0716
  285MEO    MEO  285   1.094   2.919   1.668 -0.3873 -0.1359 -0.0130
  286MEO    MEO  286   2.601   2.488   0.958 -0.0158  0.0893  0.0162
  287MEO    MEO  287   1.378   1.500   2.388  0.1335 -0.0721 -0.4241
  288MEO    MEO  288   2.761   1.990   0.280  0.1087  0.3936 -0.6144
  289MEO    MEO  289   1.624   1.923   1.215  0.1474 -0.3026  0.0511
  290MEO    MEO  290   1.738   0.863   1.784 -0.1133  0.0347  0.2021
  291MEO    MEO  291   1.948   0.110   0.868 -0.2795 -0.0195  0.0150
  292MEO    MEO  292   1.660   0.505   2.146  0.1197  0.0952  0.1738
  293MEO    MEO  293   1.729   1.949   0.815 -0.0512  0.0781 -0.0432
  294MEO    MEO  294   1.690   2.611   2.558 -0.0429 -0.3940  0.0704
  295MEO    MEO  295   3.005   3.071   2.456 -0.0805  0.0742 -0.2043
  296MEO    MEO  296   2.611   0.568   0.875 -0.1990 -0.2012  0.4300
  297MEO    MEO  297   0.806   1.151   0.691 -0.1455 -0.4311  0.0849
  298MEO    MEO  298   2.575   0.305   1.798 -0.2242 -0.2972 -0.0053
  299MEO    MEO  299   1.152   1.103   2.337  0.0076 -0.0466 -0.0327
  300MEO    MEO  300   0.352   2.738   1.654  0.0820 -0.1906 -0.1769
  301MEO    MEO  301   1.552   2.751   0.876 -0.1127  0.2033  0.2567
  302MEO    MEO  302   2.839   0.946   0.824 -0.0195  0.2518  0.2987
  303MEO    MEO  303   2.211   2.384   2.683  0.0839 -0.0670  0.1055
  304MEO    MEO  304   0.775   2.830   2.870 -0.1625 -0.2123 -0.0092
  305MEO    MEO  305   2.943   0.236   1.604 -0.0871 -0.3330 -0.0240
  306MEO    MEO  306   1.985   2.953   0.795 -0.1000  0.1018  0.2192
  307MEO    MEO  307   2.530   2.114   2.691 -0.2294 -0.1488  0.1788
  308MEO    MEO  308   1.018   0.118   1.777  0.1525 -0.1973 -0.2320
  309MEO    MEO  309   2.064   0.494   2.287 -0.0305 -0.2452 -0.0025
  310MEO    MEO  310   2.587   1.762   2.396  0.0530  0.1916 -0.0526
  311MEO    MEO  311   2.728   1.271   1.180  0.4434 -0.0906  0.2746
  312MEO    MEO  312   2.401   3.034   0.959  0.2795 -0.4553  0.0566
  313MEO    MEO  313   0.030   0.607   3.038  0.0300  0.1659 -0.1514
  314MEO    MEO  314   0.448   1.950   1.211  0.1769  0.3376  0.1334
  315MEO    MEO  315   2.628   0.841   1.182  0.1901 -0.1212 -0.0160
  316MEO    MEO  316   1.661   1.515   1.893 -0.2173  0.1355 -0.2364
  317MEO    MEO  317   2.391   2.215   0.587 -0.0329  0.2785 -0.0974
  318MEO    MEO  318   2.519   1.271   3.076 -0.1740 -0.1314 -0.3391
  319MEO    MEO  319   1.503   3.223   0.989  0.3862 -0.0073 -0.2724
  320MEO    MEO  320   0.277   0.091   1.008  0.3922  0.2957  0.1559
  321MEO    MEO  321   0.912   2.943   0.201  0.0839  0.0135 -0.0798
  322MEO    MEO  322   1.421   0.354   1.123  0.1761  0.3969 -0.1753
  323MEO    MEO  323   1.013   2.221   2.061  0.2007 -0.1260  0.1150
  324MEO    MEO  324   2.440   1.756   1.150  0.1759  0.0452  0.0177
  325MEO    MEO  325   3.218   2.649   1.150  0.1582  0.1256 -0.3777
  326MEO    MEO  326   2.800   0.406   0.424  0.2530  0.2815  0.2354
  327MEO    MEO  327   0.413   1.714   1.586 -0.0675  0.0821  0.4971
  328MEO    MEO  328   2.607   1.674   2.813  0.1296 -0.3008 -0.0175
  329MEO    MEO  329   2.953   0.949   2.044  0.0500 -0.1781 -0.4376
  330MEO    MEO  330   0.231   0.148   0.110 -0.3357 -0.2105 -0.2685
  331MEO    MEO  331   1.240   2.156   1.375 -0.1069  0.1314  0.0538
  332MEO    MEO  332   1.104   2.225   0.466 -0.1982 -0.0600 -0.0664
  333MEO    MEO  333   0.749   2.531   1.970 -0.0041 -0.1991  0.3838
  334MEO    MEO  334   0.279   0.622   0.849 -0.0416 -0.1345 -0.2532
  335MEO    MEO  335   2.682   0.115   2.265 -0.0673 -0.1913  0.1178
  336MEO    MEO  336   0.529   0.624   1.234  0.0227 -0.4078  0.0365
  337MEO    MEO  337   0.901   2.407   2.892  0.1425 -0.4167  0.0900
  338MEO    MEO  338   0.772   0.493   2.499  0.0793 -0.0229  0.0454
  339MEO    MEO  339   2.191   0.344   1.578  0.0852 -0.2786  0.3764
  340MEO    MEO  340   2.342   0.196   0.184  0.0293 -0.3395 -0.0946
  341MEO    MEO  341   1.285   1.494   2.876  0.2235 -0.4062  0.0128
  342MEO    MEO  342   1.927   0.918   0.630 -0.2116  0.1329 -0.0331
  343MEO    MEO  343   0.771   2.204   1.268  0.2351  0.0593 -0.0646
  344MEO    MEO  344   0.664   3.160   0.606  0.2575  0.3075 -0.3273
  345MEO    MEO  345   2.492   1.652   0.077  0.1065  0.1208 -0.0956
  346MEO    MEO  346   1.791   2.269   2.798 -0.0697 -0.0427  0.0702
  347MEO    MEO  347   2.905   0.452   2.526 -0.1236 -0.2594 -0.0906
  348MEO    MEO  348   0.179   3.235   1.960 -0.1471 -0.2447 -0.0400
  349MEO    MEO  349   1.724   0.784   2.582 -0.0646  0.1386  0.0960
  350MEO    MEO  350   0.107   0.209   3.002  0.3222  0.3476  0.3259
  351MEO    MEO  351   1.099   3.013   2.166  0.1481 -0.0724 -0.3433
  352MEO    MEO  352   2.873   1.714   1.157  0.1672 -0.2400 -0.0650
  353MEO    MEO  353   3.153   3.111   2.903  0.3083 -0.0902 -0.0178
  354MEO    MEO  354   1.558   1.214   1.594 -0.1541 -0.1526 -0.5173
  355MEO    MEO  355   1.780   3.060   3.247 -0.3448 -0.1286 -0.0678
  356MEO    MEO  356   0.450   0.458   3.231 -0.0165 -0.3724  0.1275
  357MEO    MEO  357   1.402   0.636   0.378  0.0052 -0.2307  0.1613
  358MEO    MEO  358   1.398   3.140   0.042 -0.2650  0.0828 -0.1742
  359MEO    MEO  359   0.319   2.846   2.205  0.2124 -0.0896 -0.1354
  360MEO    MEO  360   0.268   1.079   1.300  0.0526  0.1148 -0.2866
  361MEO    MEO  361   1.560   0.556   3.031 -0.4434  0.1339 -0.2426
  362MEO    MEO  362   0.026   0.384   1.796  0.3835 -0.1252 -0.0069
  363MEO    MEO  363   0.348   2.770   0.620 -0.1992  0.1979 -0.0698
  364MEO    MEO  364   1.549   2.897   1.496 -0.3116  0.0835 -0.0292
  365MEO    MEO  365   1.244   0.249   2.666  0.0692  0.1695  0.1263
  366MEO    MEO  366   0.047   1.282   1.623 -0.3146 -0.1796 -0.4497
  367MEO    MEO  367   1.824   0.878   2.989 -0.2326  0.3527  0.1066
  368MEO    MEO  368   2.328   3.239   0.584  0.2139 -0.0130 -0.0895
  369MEO    MEO  369   1.537   1.267   0.227  0.0181 -0.1867  0.0720
  370MEO    MEO  370   0.883   0.915   2.597 -0.0401  0.1397  0.2457
  371MEO    MEO  371   1.936   3.251   2.787  0.2480 -0.0830  0.0767
  372MEO    MEO  372   1.887   1.946   1.984 -0.2447  0.1067 -0.4937
  373MEO    MEO  373   3.071   2.998   1.487 -0.0102  0.0434  0.0611
  374MEO    MEO  374   2.754   2.914   1.162 -0.3802 -0.0361 -0.1082
  375MEO    MEO  375   2.171   2.084   2.986  0.0055 -0.2379  0.0092
  376MEO    MEO  376   2.759   0.922   2.443 -0.0235  0.1550  0.0801
  377MEO    MEO  377   2.653   1.289   1.956 -0.1079 -0.0950 -0.0102
  378MEO    MEO  378   2.663   0.785   3.143 -0.0838  0.4983 -0.2599
  379MEO    MEO  379   1.010   0.417   1.456 -0.2028 -0.2005  0.1928
  380MEO    MEO  380   1.240   2.776   1.191  0.1484  0.0391  0.2819
  381MEO    MEO  381   2.212   3.222   3.107  0.1940 -0.4551  0.0715
  382MEO    MEO  382   1.042   0.021   0.359 -0.1040 -0.3652  0.0265
  383MEO    MEO  383   0.112   0.496   0.351 -0.0501 -0.2511  0.0937
  384MEO    MEO  384   1.791   0.297   2.592 -0.3256  0.2100  0.1656
  385MEO    MEO  385   2.687   1.544   0.827  0.0659  0.0631  0.0245
  386MEO    MEO  386   1.029   1.858   2.574 -0.3744  0.0836  0.2232
  387MEO    MEO  387   2.794   0.040   0.972  0.0931  0.0723  0.0252
  388MEO    MEO  388   0.704   1.112   1.173  0.0091  0.1151  0.1685
  389MEO    MEO  389   1.082   2.467   2.454 -0.1148  0.1959  0.0615
  390MEO    MEO  390   3.135   1.049   3.165  0.2875 -0.1156 -0.2424
  391MEO    MEO  391   0.918   0.232   2.213  0.0237  0.2818  0.0134
  392MEO    MEO  392   0.932   0.771   0.931 -0.2006 -0.1645  0.0002
  393MEO    MEO  393   1.170   1.774   0.712 -0.3849  0.0088  0.0131
  394MEO    MEO  394   1.888   0.000   0.390 -0.0682 -0.3161 -0.0708
  395MEO    MEO  395   0.836   1.497   2.771 -0.0038 -0.3297  0.1215
  396MEO    MEO  396   0.936   2.371   0.063 -0.0863 -0.2460 -0.0260
  397MEO    MEO  397   1.528   1.843   2.654  0.0910 -0.3089  0.3918
  398MEO    MEO  398   1.170   0.631   2.393 -0.0806 -0.1244  0.0234
  399MEO    MEO  399   1.942   1.157   2.559  0.0979  0.2382  0.2222
  400MEO    MEO  400   2.383   1.143   2.649 -0.0957  0.4651  0.3447
3.2833 3.2833 3.2833 0.0000 0.0000 0.0000 0.0000 0.0000 0.0000
