BDT dimerization
 4349
    1BDT   BNZ1    1   0.959   1.000   2.193  0.0815  0.3793  0.0663
    1BDT   BNZ2    2   0.874   1.082   2.332 -0.0894  0.1870  0.0808
    1BDT   BNZ3    3   0.816   0.837   2.322  0.1063  0.1471 -0.1890
    1BDT    BS1    4   0.915   0.765   2.168  0.2801  0.3694 -0.1812
    1BDT    BS2    5   0.732   0.943   2.467 -0.0836 -0.0463 -0.1549
    2BDT   BNZ1    6   5.534   1.004   5.541  0.1358 -0.2670  0.0117
    2BDT   BNZ2    7   5.700   1.025   5.615  0.1444 -0.0625 -0.0576
    2BDT   BNZ3    8   5.623   1.237   5.503 -0.0821 -0.2137 -0.1967
    2BDT    BS1    9   5.445   1.198   5.429 -0.0707 -0.4317 -0.1063
    2BDT    BS2   10   5.801   1.240   5.588 -0.0562  0.0070 -0.2566
    3BDT   BNZ1   11   2.434   3.914   4.538  0.1967  0.1484  0.0333
    3BDT   BNZ2   12   2.350   4.076   4.525 -0.2210 -0.0325  0.2979
    3BDT   BNZ3   13   2.291   3.927   4.331 -0.2806 -0.0565  0.3341
    3BDT    BS1   14   2.389   3.758   4.360  0.1869  0.1525  0.0411
    3BDT    BS2   15   2.208   4.106   4.334 -0.6936 -0.2638  0.6104
    4BDT   BNZ1   16   0.258   5.707   0.185 -0.0564 -0.0542  0.1635
    4BDT   BNZ2   17   0.095   5.693   0.267 -0.2296  0.1643 -0.1230
    4BDT   BNZ3   18   0.231   5.880   0.367 -0.1880  0.0426  0.0537
    4BDT    BS1   19   0.401   5.882   0.268 -0.0116 -0.1917  0.3641
    4BDT    BS2   20   0.051   5.850   0.443 -0.3664  0.2787 -0.2590
    5BDT   BNZ1   21   0.077   0.640   5.110  0.0034 -0.3723 -0.1865
    5BDT   BNZ2   22   0.028   0.723   4.954  0.0168 -0.2268 -0.1155
    5BDT   BNZ3   23  -0.157   0.732   5.125  0.1436 -0.0301  0.0143
    5BDT    BS1   24  -0.088   0.640   5.285  0.1239 -0.2091 -0.0737
    5BDT    BS2   25  -0.193   0.817   4.950  0.1529  0.1006  0.0805
    6BDT   BNZ1   26   0.517   5.253   0.025 -0.1302 -0.0631 -0.2449
    6BDT   BNZ2   27   0.651   5.255  -0.100 -0.1382  0.0839 -0.2530
    6BDT   BNZ3   28   0.682   5.438   0.069 -0.0748 -0.1705  0.0192
    6BDT    BS1   29   0.532   5.422   0.196 -0.0692 -0.3172  0.0019
    6BDT    BS2   30   0.817   5.425  -0.074 -0.0883 -0.0011 -0.0147
    7BDT   BNZ1   31   1.933   2.445   4.120 -0.1468  0.1033 -0.3819
    7BDT   BNZ2   32   2.004   2.346   3.983  0.0992  0.3480 -0.4399
    7BDT   BNZ3   33   2.183   2.421   4.144 -0.1914  0.0094  0.0682
    7BDT    BS1   34   2.090   2.525   4.283 -0.4440 -0.2497  0.0715
    7BDT    BS2   35   2.242   2.313   3.990  0.0791  0.2844 -0.0439
    8BDT   BNZ1   36   1.839   4.107   1.711 -0.1807 -0.1346  0.0618
    8BDT   BNZ2   37   1.687   4.206   1.734 -0.1296 -0.0331 -0.0303
    8BDT   BNZ3   38   1.788   4.140   1.956 -0.2602 -0.0284  0.0312
    8BDT    BS1   39   1.949   4.035   1.913 -0.3085 -0.1403  0.1284
    8BDT    BS2   40   1.622   4.248   1.961 -0.1963  0.0761 -0.0697
    9BDT   BNZ1   41   0.860   2.222   2.728 -0.0605 -0.0504  0.2076
    9BDT   BNZ2   42   0.686   2.241   2.676 -0.0321 -0.0111  0.1255
    9BDT   BNZ3   43   0.781   2.459   2.761 -0.0101 -0.0221  0.1290
    9BDT    BS1   44   0.967   2.420   2.812 -0.0436 -0.0648  0.2197
    9BDT    BS2   45   0.593   2.461   2.700  0.0181  0.0192  0.0440
   10BDT   BNZ1   46   0.691   1.355   5.584  0.0746  0.4411  0.2930
   10BDT   BNZ2   47   0.559   1.293   5.693 -0.0474 -0.0038 -0.0734
   10BDT   BNZ3   48   0.467   1.361   5.469  0.2907  0.1330 -0.1765
   10BDT    BS1   49   0.621   1.425   5.364  0.3909  0.6089  0.2541
   10BDT    BS2   50   0.338   1.291   5.601  0.1574 -0.3318 -0.5556
   11BDT   BNZ1   51   4.064   2.576   2.185  0.3291 -0.0502 -0.1243
   11BDT   BNZ2   52   4.208   2.665   2.116  0.1433  0.1872 -0.2224
   11BDT   BNZ3   53   4.026   2.826   2.185 -0.1300 -0.1104 -0.2290
   11BDT    BS1   54   3.880   2.714   2.256  0.1047 -0.3540 -0.1226
   11BDT    BS2   55   4.190   2.905   2.109 -0.3018  0.1505 -0.3286
   12BDT   BNZ1   56   0.901   1.454   0.380 -0.0721 -0.0910 -0.0561
   12BDT   BNZ2   57   0.744   1.535   0.335 -0.1762 -0.2736 -0.0296
   12BDT   BNZ3   58   0.818   1.602   0.566 -0.1521 -0.0966 -0.0872
   12BDT    BS1   59   0.987   1.507   0.599 -0.0430  0.0946 -0.1138
   12BDT    BS2   60   0.649   1.680   0.501 -0.2617 -0.3001 -0.0554
   13BDT   BNZ1   61   3.792   1.411   3.353 -0.0437 -0.1057  0.2305
   13BDT   BNZ2   62   3.745   1.289   3.481 -0.1949 -0.2380  0.0548
   13BDT   BNZ3   63   3.832   1.175   3.274  0.1289 -0.0233  0.0661
   13BDT    BS1   64   3.877   1.320   3.148  0.2680  0.1024  0.2698
   13BDT    BS2   65   3.777   1.058   3.423 -0.0553 -0.1763 -0.1130
   14BDT   BNZ1   66   1.616   4.105   2.924  0.2059  0.1571  0.2072
   14BDT   BNZ2   67   1.731   3.966   2.897  0.0689  0.0803 -0.0010
   14BDT   BNZ3   68   1.516   3.934   2.769 -0.2554  0.1423  0.5008
   14BDT    BS1   69   1.405   4.091   2.809 -0.0644  0.2211  0.6992
   14BDT    BS2   70   1.652   3.792   2.751 -0.3621  0.0625  0.2519
   15BDT   BNZ1   71   2.755   4.388   1.183 -0.0858 -0.0846  0.0824
   15BDT   BNZ2   72   2.591   4.467   1.205 -0.1416 -0.1581 -0.0553
   15BDT   BNZ3   73   2.726   4.583   1.026  0.0218 -0.0029  0.1624
   15BDT    BS1   74   2.897   4.486   1.015  0.0651  0.0678  0.3006
   15BDT    BS2   75   2.545   4.655   1.063 -0.0522 -0.0917  0.0041
   16BDT   BNZ1   76   5.396   3.301   2.175 -0.0654 -0.1048  0.0158
   16BDT   BNZ2   77   5.523   3.397   2.265 -0.1268 -0.0917  0.0897
   16BDT   BNZ3   78   5.613   3.174   2.188 -0.0016 -0.0008 -0.0301
   16BDT    BS1   79   5.465   3.085   2.094  0.0576 -0.0207 -0.1017
   16BDT    BS2   80   5.738   3.292   2.287 -0.0754  0.0066  0.0565
   17BDT   BNZ1   81   2.479   0.099   1.022  0.3640 -0.3619 -0.0155
   17BDT   BNZ2   82   2.412  -0.055   0.948  0.0083 -0.1407 -0.1818
   17BDT   BNZ3   83   2.407   0.136   0.783  0.2121  0.1122  0.0933
   17BDT    BS1   84   2.481   0.292   0.878  0.5873 -0.1672  0.2569
   17BDT    BS2   85   2.338  -0.038   0.720 -0.1674  0.3259 -0.0911
   18BDT   BNZ1   86   5.038   1.040   5.190  0.0240 -0.0111 -0.2053
   18BDT   BNZ2   87   5.054   0.867   5.133  0.1571 -0.0361 -0.0982
   18BDT   BNZ3   88   4.825   0.912   5.228  0.0812 -0.1175 -0.2382
   18BDT    BS1   89   4.826   1.101   5.284 -0.0597 -0.0865 -0.3474
   18BDT    BS2   90   4.859   0.729   5.162  0.2256 -0.1366 -0.1162
   19BDT   BNZ1   91   2.223   3.174   4.303 -0.1102  0.0650 -0.0121
   19BDT   BNZ2   92   2.184   2.996   4.315  0.1480  0.0250  0.6676
   19BDT   BNZ3   93   2.433   3.035   4.319  0.1003  0.4087  0.4227
   19BDT    BS1   94   2.457   3.230   4.305 -0.1965  0.3870 -0.3103
   19BDT    BS2   95   2.372   2.848   4.331  0.3706  0.3603  1.1436
   20BDT   BNZ1   96   1.953   0.140   1.042 -0.2970 -0.0803 -0.0350
   20BDT   BNZ2   97   1.782   0.146   0.976 -0.1990  0.2058 -0.2833
   20BDT   BNZ3   98   1.949   0.231   0.807  0.1830  0.0167 -0.0147
   20BDT    BS1   99   2.126   0.217   0.894  0.0291 -0.2888  0.2421
   20BDT    BS2  100   1.760   0.230   0.752  0.2544  0.3248 -0.2848
   21BDT   BNZ1  101   4.017   3.717   3.340  0.0241  0.0206 -0.0782
   21BDT   BNZ2  102   4.032   3.548   3.271  0.2679  0.0044  0.0047
   21BDT   BNZ3  103   4.038   3.722   3.089  0.2426 -0.0658 -0.0639
   21BDT    BS1  104   4.021   3.896   3.180 -0.0257 -0.0459 -0.1513
   21BDT    BS2  105   4.053   3.533   3.032  0.4965 -0.0731  0.0297
   22BDT   BNZ1  106   1.543   1.857   3.942  0.1359  0.0375 -0.0703
   22BDT   BNZ2  107   1.667   1.724   3.928  0.0953 -0.0310  0.1764
   22BDT   BNZ3  108   1.433   1.631   3.920  0.0570  0.0807 -0.1248
   22BDT    BS1  109   1.313   1.787   3.936  0.1134  0.1414 -0.3761
   22BDT    BS2  110   1.580   1.501   3.906  0.0211 -0.0000  0.1548
   23BDT   BNZ1  111   2.480   3.847   0.121 -0.0348 -0.1323  0.0746
   23BDT   BNZ2  112   2.388   3.804  -0.031  0.0005 -0.2922  0.0970
   23BDT   BNZ3  113   2.608   3.915  -0.085 -0.1835  0.0596  0.0425
   23BDT    BS1  114   2.692   3.955   0.088 -0.2152  0.2065  0.0180
   23BDT    BS2  115   2.495   3.861  -0.238 -0.1372 -0.1368  0.0690
   24BDT   BNZ1  116   4.531   2.139   3.653  0.0756 -0.3015  0.0124
   24BDT   BNZ2  117   4.608   1.973   3.659 -0.1186 -0.3968 -0.0425
   24BDT   BNZ3  118   4.431   1.985   3.480  0.1143 -0.0293 -0.2616
   24BDT    BS1  119   4.359   2.168   3.487  0.3197  0.0424 -0.1780
   24BDT    BS2  120   4.525   1.812   3.501 -0.1002 -0.1581 -0.2951
   25BDT   BNZ1  121   5.544   0.842   3.419  0.0945  0.2659  0.0468
   25BDT   BNZ2  122   5.365   0.860   3.387  0.0691 -0.0966 -0.0607
   25BDT   BNZ3  123   5.489   1.073   3.336 -0.2868  0.0617 -0.3053
   25BDT    BS1  124   5.678   1.036   3.375 -0.2397  0.4440 -0.1659
   25BDT    BS2  125   5.293   1.074   3.307 -0.2761 -0.3354 -0.3924
   26BDT   BNZ1  126   3.891   3.911   1.653  0.0581 -0.2458 -0.0513
   26BDT   BNZ2  127   3.882   4.093   1.661  0.0864 -0.2170 -0.4753
   26BDT   BNZ3  128   4.071   4.005   1.802 -0.0883  0.0509 -0.0559
   26BDT    BS1  129   4.066   3.809   1.783 -0.1121  0.0222  0.3795
   26BDT    BS2  130   4.046   4.201   1.799 -0.0495  0.0615 -0.5320
   27BDT   BNZ1  131   3.066   5.361   3.977  0.1685 -0.3130  0.0274
   27BDT   BNZ2  132   2.924   5.247   3.960 -0.1812  0.1095 -0.0959
   27BDT   BNZ3  133   3.041   5.281   3.739  0.0384 -0.1310 -0.0225
   27BDT    BS1  134   3.189   5.406   3.775  0.3861 -0.6001  0.1059
   27BDT    BS2  135   2.885   5.160   3.739 -0.3358  0.3299 -0.1553
   28BDT   BNZ1  136   3.021   3.620   3.479 -0.3103  0.1831  0.0094
   28BDT   BNZ2  137   3.106   3.603   3.640 -0.0265  0.1147 -0.1417
   28BDT   BNZ3  138   2.891   3.472   3.636  0.0904 -0.0945  0.0956
   28BDT    BS1  139   2.813   3.502   3.458 -0.2278  0.0008  0.2453
   28BDT    BS2  140   2.996   3.465   3.803  0.3742 -0.1438 -0.0906
   29BDT   BNZ1  141   3.861   0.243   1.255 -0.2591 -0.0745 -0.0459
   29BDT   BNZ2  142   3.732   0.132   1.189 -0.1473 -0.1793 -0.0929
   29BDT   BNZ3  143   3.844   0.261   1.004 -0.2493 -0.0144 -0.0426
   29BDT    BS1  144   3.979   0.374   1.091 -0.3685  0.0865  0.0047
   29BDT    BS2  145   3.701   0.135   0.951 -0.1263 -0.1370 -0.0950
   30BDT   BNZ1  146   1.458   1.486   0.024  0.0254 -0.0414  0.1375
   30BDT   BNZ2  147   1.453   1.472   0.207  0.2258  0.0038  0.1501
   30BDT   BNZ3  148   1.587   1.672   0.135 -0.4268  0.4035 -0.0439
   30BDT    BS1  149   1.583   1.673  -0.061 -0.6106  0.3046 -0.0313
   30BDT    BS2  150   1.570   1.641   0.330 -0.1781  0.4005 -0.0090
   31BDT   BNZ1  151   4.222   0.130   1.279  0.1630 -0.0175  0.1502
   31BDT   BNZ2  152   4.118   0.099   1.427 -0.3006 -0.0696 -0.1651
   31BDT   BNZ3  153   4.162   0.345   1.397  0.0380 -0.0754  0.1939
   31BDT    BS1  154   4.273   0.361   1.235  0.5046 -0.0258  0.5467
   31BDT    BS2  155   4.051   0.293   1.552 -0.4698 -0.1312 -0.1607
   32BDT   BNZ1  156   4.443   0.123   2.903  0.0465 -0.0605  0.0269
   32BDT   BNZ2  157   4.613   0.142   2.838  0.0452 -0.1278  0.0036
   32BDT   BNZ3  158   4.608  -0.010   3.039  0.0004 -0.1992 -0.0507
   32BDT    BS1  159   4.420  -0.019   3.096  0.0046 -0.1186 -0.0210
   32BDT    BS2  160   4.784   0.022   2.956  0.0014 -0.2627 -0.0705
   33BDT   BNZ1  161   0.414   4.575   3.749 -0.1406 -0.3379 -0.0965
   33BDT   BNZ2  162   0.400   4.457   3.888 -0.2114 -0.1456  0.0641
   33BDT   BNZ3  163   0.179   4.569   3.839 -0.1818 -0.1919 -0.1899
   33BDT    BS1  164   0.212   4.691   3.689 -0.1048 -0.4069 -0.3429
   33BDT    BS2  165   0.182   4.437   3.987 -0.2562  0.0106 -0.0035
   34BDT   BNZ1  166   5.584   0.395   1.191  0.1613  0.1589 -0.0405
   34BDT   BNZ2  167   5.666   0.513   1.304 -0.0497  0.1196  0.1623
   34BDT   BNZ3  168   5.807   0.307   1.268  0.1845  0.2938  0.0500
   34BDT    BS1  169   5.704   0.192   1.145  0.4043  0.3321 -0.1598
   34BDT    BS2  170   5.881   0.446   1.388 -0.0537  0.2404  0.2693
   35BDT   BNZ1  171   5.164   5.281   5.255 -0.2381 -0.1479  0.3667
   35BDT   BNZ2  172   5.055   5.171   5.158 -0.0688  0.1524 -0.2100
   35BDT   BNZ3  173   5.283   5.190   5.052  0.2424  0.2788  0.4361
   35BDT    BS1  174   5.387   5.311   5.169 -0.0064 -0.0888  1.0119
   35BDT    BS2  175   5.152   5.075   4.961  0.3870  0.5866 -0.1990
   36BDT   BNZ1  176   0.882   5.213   4.984 -0.0840 -0.1093 -0.1174
   36BDT   BNZ2  177   0.868   5.187   5.165 -0.2303 -0.1724 -0.1359
   36BDT   BNZ3  178   1.101   5.135   5.082 -0.1436 -0.0788  0.0432
   36BDT    BS1  179   1.098   5.168   4.888  0.0106 -0.0161  0.0530
   36BDT    BS2  180   1.068   5.113   5.276 -0.3032 -0.1513  0.0095
   37BDT   BNZ1  181   4.796   0.552   2.481  0.2192  0.1332  0.0050
   37BDT   BNZ2  182   4.890   0.507   2.631 -0.0529 -0.1638  0.0975
   37BDT   BNZ3  183   4.691   0.650   2.688  0.2283  0.3232 -0.0776
   37BDT    BS1  184   4.602   0.689   2.517  0.5278  0.6047 -0.1456
   37BDT    BS2  185   4.805   0.591   2.839 -0.0670 -0.0291  0.0371
   38BDT   BNZ1  186   5.787   5.348   1.644  0.2695  0.2217  0.3665
   38BDT   BNZ2  187   5.863   5.458   1.519 -0.0757  0.1067  0.0363
   38BDT   BNZ3  188   5.974   5.232   1.520  0.1142  0.1977  0.1491
   38BDT    BS1  189   5.881   5.127   1.659  0.4908  0.3304  0.4933
   38BDT    BS2  190   6.043   5.364   1.391 -0.2617  0.0665 -0.1959
   39BDT   BNZ1  191   2.756   4.660   2.914  0.1485  0.0514 -0.0369
   39BDT   BNZ2  192   2.720   4.680   3.092  0.3596  0.0861  0.0051
   39BDT   BNZ3  193   2.844   4.465   3.048 -0.0589 -0.1336 -0.1624
   39BDT    BS1  194   2.875   4.460   2.853 -0.2661 -0.1483 -0.1855
   39BDT    BS2  195   2.796   4.504   3.236  0.1893 -0.0737 -0.1003
   40BDT   BNZ1  196   3.519   1.742   3.229  0.1122 -0.0689  0.1475
   40BDT   BNZ2  197   3.510   1.560   3.248  0.1375 -0.0625  0.2272
   40BDT   BNZ3  198   3.581   1.625   3.015  0.0320 -0.1522  0.1692
   40BDT    BS1  199   3.585   1.822   3.012  0.0118 -0.1534  0.0860
   40BDT    BS2  200   3.565   1.431   3.053  0.0667 -0.1384  0.2569
   41BDT   BNZ1  201   4.010   0.857   1.514 -0.0048  0.1031 -0.1317
   41BDT   BNZ2  202   4.077   0.705   1.438  0.0148  0.0288  0.0300
   41BDT   BNZ3  203   4.053   0.889   1.268  0.3017 -0.0508 -0.1027
   41BDT    BS1  204   3.981   1.044   1.365  0.2584  0.0341 -0.2692
   41BDT    BS2  205   4.125   0.717   1.203  0.2978 -0.1217  0.0796
   42BDT   BNZ1  206   4.372   3.854   4.675  0.0004 -0.0329  0.0692
   42BDT   BNZ2  207   4.224   3.819   4.575  0.0581  0.0795 -0.0592
   42BDT   BNZ3  208   4.432   3.729   4.465  0.1048  0.0701  0.0361
   42BDT    BS1  209   4.581   3.775   4.585  0.0352 -0.0542  0.1703
   42BDT    BS2  210   4.261   3.699   4.370  0.1617  0.1877 -0.1033
   43BDT   BNZ1  211   2.054   4.636   5.337 -0.2302  0.1510 -0.1109
   43BDT   BNZ2  212   2.085   4.685   5.164 -0.0172  0.2573 -0.0466
   43BDT   BNZ3  213   2.275   4.547   5.254 -0.1472  0.1648  0.0900
   43BDT    BS1  214   2.226   4.503   5.440 -0.3738  0.0558  0.0032
   43BDT    BS2  215   2.291   4.609   5.068  0.0822  0.2822  0.1474
   44BDT   BNZ1  216   0.911   5.587   3.990 -0.0093 -0.2160 -0.0614
   44BDT   BNZ2  217   1.006   5.574   4.147 -0.2083 -0.3573  0.0521
   44BDT   BNZ3  218   0.762   5.622   4.191 -0.1778  0.1423 -0.2395
   44BDT    BS1  219   0.676   5.632   4.014  0.0558  0.2578 -0.3364
   44BDT    BS2  220   0.880   5.605   4.349 -0.3754 -0.0465 -0.0990
   45BDT   BNZ1  221   5.351   3.202   2.521 -0.2377 -0.0291 -0.2148
   45BDT   BNZ2  222   5.514   3.238   2.598 -0.2205 -0.1476 -0.1937
   45BDT   BNZ3  223   5.381   3.449   2.561 -0.2700 -0.0907  0.2526
   45BDT    BS1  224   5.211   3.393   2.479 -0.2832  0.0283  0.1948
   45BDT    BS2  225   5.560   3.469   2.643 -0.2477 -0.2262  0.2375
   46BDT   BNZ1  226   0.030   1.645   0.424 -0.0139 -0.0656  0.1592
   46BDT   BNZ2  227  -0.038   1.566   0.274  0.0559 -0.0625  0.1253
   46BDT   BNZ3  228   0.179   1.683   0.225 -0.0421  0.1459  0.1758
   46BDT    BS1  229   0.238   1.762   0.395 -0.1139  0.1253  0.2097
   46BDT    BS2  230   0.091   1.591   0.074  0.0364  0.1314  0.1375
   47BDT   BNZ1  231   2.501   0.937   0.314 -0.0788  0.0190  0.0867
   47BDT   BNZ2  232   2.622   0.801   0.334 -0.2853 -0.1685  0.0995
   47BDT   BNZ3  233   2.644   0.911   0.109  0.0810 -0.0191  0.2005
   47BDT    BS1  234   2.508   1.053   0.104  0.2893  0.1671  0.1830
   47BDT    BS2  235   2.767   0.761   0.147 -0.1609 -0.2286  0.2090
   48BDT   BNZ1  236   3.996   1.325   1.600 -0.0044  0.2577  0.2678
   48BDT   BNZ2  237   3.890   1.238   1.721 -0.1445  0.1513  0.0743
   48BDT   BNZ3  238   3.752   1.352   1.544  0.0603  0.1167 -0.1117
   48BDT    BS1  239   3.880   1.440   1.423  0.2025  0.2355  0.1204
   48BDT    BS2  240   3.653   1.253   1.684 -0.0941  0.0113 -0.2991
   49BDT   BNZ1  241   0.374   3.964   0.326 -0.1482 -0.0060  0.0474
   49BDT   BNZ2  242   0.502   3.961   0.195  0.1478 -0.2209  0.3254
   49BDT   BNZ3  243   0.437   4.197   0.255  0.1375 -0.1162 -0.0746
   49BDT    BS1  244   0.301   4.182   0.395 -0.1752  0.1104 -0.3674
   49BDT    BS2  245   0.575   4.175   0.114  0.4421 -0.3503  0.2480
   50BDT   BNZ1  246   2.772   2.706   3.557  0.0289  0.1146 -0.2675
   50BDT   BNZ2  247   2.627   2.701   3.669  0.0232 -0.0732 -0.2789
   50BDT   BNZ3  248   2.715   2.936   3.642 -0.0137 -0.0144  0.0703
   50BDT    BS1  249   2.869   2.922   3.521 -0.0070  0.1847  0.0571
   50BDT    BS2  250   2.558   2.912   3.759 -0.0159 -0.2181  0.0287
   51BDT   BNZ1  251   5.548   5.152   3.869  0.0013  0.1047  0.1100
   51BDT   BNZ2  252   5.650   5.281   3.949  0.2257 -0.0214  0.0338
   51BDT   BNZ3  253   5.571   5.355   3.722  0.0770  0.1072  0.1253
   51BDT    BS1  254   5.464   5.207   3.651 -0.1558  0.2428  0.2066
   51BDT    BS2  255   5.684   5.482   3.823  0.3211 -0.0341  0.0392
   52BDT   BNZ1  256   5.049   3.546   0.401  0.0844  0.0690  0.0389
   52BDT   BNZ2  257   4.960   3.701   0.358  0.0063  0.0469  0.1168
   52BDT   BNZ3  258   5.155   3.660   0.203  0.0491  0.2413  0.1174
   52BDT    BS1  259   5.238   3.492   0.263  0.1310  0.2516  0.0317
   52BDT    BS2  260   5.048   3.823   0.171 -0.0359  0.2021  0.1991
   53BDT   BNZ1  261   4.562   1.000   0.368 -0.0174  0.0722 -0.2229
   53BDT   BNZ2  262   4.670   0.864   0.312  0.0658  0.1594 -0.2767
   53BDT   BNZ3  263   4.460   0.775   0.419  0.2274 -0.0136 -0.0934
   53BDT    BS1  264   4.356   0.933   0.473  0.1258 -0.0961 -0.0496
   53BDT    BS2  265   4.589   0.642   0.352  0.3024  0.0930 -0.1649
   54BDT   BNZ1  266   3.123   2.871   4.841  0.0868  0.1531 -0.3090
   54BDT   BNZ2  267   3.286   2.826   4.769  0.1622 -0.0171 -0.0461
   54BDT   BNZ3  268   3.313   2.977   4.969 -0.0240  0.1878 -0.1716
   54BDT    BS1  269   3.130   3.015   5.033 -0.0833  0.3571 -0.4593
   54BDT    BS2  270   3.478   2.919   4.878  0.0681 -0.0056  0.1096
   55BDT   BNZ1  271   1.017   1.738   4.770 -0.1256  0.0766 -0.0743
   55BDT   BNZ2  272   0.965   1.634   4.629 -0.0837 -0.2100  0.1146
   55BDT   BNZ3  273   0.955   1.506   4.847  0.3388  0.0639  0.3072
   55BDT    BS1  274   1.014   1.632   4.986  0.2595  0.3658  0.0702
   55BDT    BS2  275   0.903   1.408   4.683  0.3516 -0.2419  0.4854
   56BDT   BNZ1  276   3.630   1.939   1.803  0.3579 -0.1174 -0.1464
   56BDT   BNZ2  277   3.494   1.823   1.764  0.1899  0.0107  0.0366
   56BDT   BNZ3  278   3.653   1.848   1.569 -0.0536 -0.1342 -0.1873
   56BDT    BS1  279   3.792   1.974   1.628  0.1462 -0.2674 -0.3694
   56BDT    BS2  280   3.500   1.726   1.544 -0.2062  0.0137  0.0258
   57BDT   BNZ1  281   1.891   4.331   4.678 -0.1509 -0.0019 -0.1097
   57BDT   BNZ2  282   1.827   4.286   4.843  0.0896 -0.0889 -0.0356
   57BDT   BNZ3  283   1.874   4.533   4.827 -0.0778 -0.0557 -0.0269
   57BDT    BS1  284   1.941   4.563   4.645 -0.3342  0.0364 -0.1037
   57BDT    BS2  285   1.803   4.466   4.999  0.1851 -0.1482  0.0476
   58BDT   BNZ1  286   5.354   4.672   2.891 -0.2827 -0.1922 -0.0827
   58BDT   BNZ2  287   5.481   4.555   2.832  0.0685 -0.0165  0.2765
   58BDT   BNZ3  288   5.522   4.788   2.744 -0.2609 -0.0320  0.0644
   58BDT    BS1  289   5.378   4.900   2.817 -0.6051 -0.2456 -0.3269
   58BDT    BS2  290   5.651   4.648   2.689  0.1260  0.1524  0.4550
   59BDT   BNZ1  291   5.491   5.372   0.340  0.0634 -0.0986  0.0223
   59BDT   BNZ2  292   5.599   5.337   0.197  0.1598 -0.0063  0.0713
   59BDT   BNZ3  293   5.364   5.391   0.123  0.1607 -0.1487 -0.0396
   59BDT    BS1  294   5.262   5.425   0.288  0.0558 -0.2407 -0.0870
   59BDT    BS2  295   5.495   5.351  -0.019  0.2609 -0.0418  0.0204
   60BDT   BNZ1  296   4.107   3.545   0.933  0.2119 -0.1529 -0.1232
   60BDT   BNZ2  297   4.142   3.716   0.880 -0.0380 -0.1077 -0.1508
   60BDT   BNZ3  298   3.997   3.596   0.712 -0.0338 -0.2793 -0.0336
   60BDT    BS1  299   3.970   3.415   0.784  0.2448 -0.3126 -0.0114
   60BDT    BS2  300   4.044   3.783   0.671 -0.2924 -0.2222 -0.0690
   61BDT   BNZ1  301   2.636   0.333   2.538 -0.1369  0.1389 -0.0743
   61BDT   BNZ2  302   2.736   0.199   2.611  0.1307  0.1933 -0.3207
   61BDT   BNZ3  303   2.554   0.273   2.768  0.2432 -0.1620 -0.0062
   61BDT    BS1  304   2.457   0.416   2.675 -0.0516 -0.2037  0.2409
   61BDT    BS2  305   2.672   0.128   2.832  0.5129 -0.0738 -0.2950
   62BDT   BNZ1  306   0.613   3.620   3.564 -0.0184 -0.0653 -0.1454
   62BDT   BNZ2  307   0.723   3.544   3.690  0.0482  0.1474 -0.0708
   62BDT   BNZ3  308   0.640   3.373   3.525  0.1773 -0.0877  0.1028
   62BDT    BS1  309   0.524   3.470   3.399  0.0967 -0.3044  0.0114
   62BDT    BS2  310   0.760   3.308   3.668  0.2351  0.1551  0.1662
   63BDT   BNZ1  311   2.678   1.174   5.273 -0.1566  0.1764 -0.0866
   63BDT   BNZ2  312   2.510   1.203   5.339 -0.0937  0.2711  0.0350
   63BDT   BNZ3  313   2.685   1.220   5.520  0.0831  0.5466 -0.1536
   63BDT    BS1  314   2.857   1.187   5.432 -0.0025  0.4192 -0.2799
   63BDT    BS2  315   2.497   1.249   5.575  0.1346  0.6208 -0.0197
   64BDT   BNZ1  316   5.588   1.966   5.690 -0.2800 -0.0636  0.1477
   64BDT   BNZ2  317   5.543   1.978   5.513 -0.0812 -0.0447  0.0959
   64BDT   BNZ3  318   5.551   1.738   5.588 -0.3194 -0.0466  0.1238
   64BDT    BS1  319   5.600   1.743   5.779 -0.5231 -0.0662  0.1730
   64BDT    BS2  320   5.504   1.771   5.399 -0.0947 -0.0262  0.0666
   65BDT   BNZ1  321   4.765   2.939   0.414  0.2271 -0.0602 -0.0939
   65BDT   BNZ2  322   4.811   2.921   0.238  0.1214  0.2139 -0.1541
   65BDT   BNZ3  323   4.594   2.803   0.288  0.1973  0.0595 -0.1846
   65BDT    BS1  324   4.560   2.832   0.480  0.3110 -0.2335 -0.1232
   65BDT    BS2  325   4.659   2.794   0.102  0.0813  0.3559 -0.2421
   66BDT   BNZ1  326   4.628   3.654   0.924 -0.1130 -0.1066  0.1989
   66BDT   BNZ2  327   4.775   3.653   1.032 -0.0238  0.0930  0.0862
   66BDT   BNZ3  328   4.838   3.607   0.793 -0.1798 -0.0576  0.0722
   66BDT    BS1  329   4.670   3.612   0.691 -0.2621 -0.2674  0.2027
   66BDT    BS2  330   4.985   3.609   0.925 -0.0758  0.1612 -0.0429
   67BDT   BNZ1  331   4.499   3.992   3.409  0.0458 -0.0449  0.1836
   67BDT   BNZ2  332   4.437   3.946   3.575 -0.1135  0.0532  0.1531
   67BDT   BNZ3  333   4.311   3.825   3.393 -0.1965  0.2288  0.0918
   67BDT    BS1  334   4.390   3.886   3.223 -0.0105  0.1088  0.1300
   67BDT    BS2  335   4.257   3.787   3.579 -0.3503  0.3195  0.0611
   68BDT   BNZ1  336   3.885   5.746   5.672  0.0174  0.1317  0.1305
   68BDT   BNZ2  337   3.839   5.591   5.758 -0.0990  0.1205  0.0504
   68BDT   BNZ3  338   3.635   5.718   5.682 -0.0004  0.1776 -0.1250
   68BDT    BS1  339   3.702   5.880   5.593  0.1229  0.1846 -0.0219
   68BDT    BS2  340   3.604   5.547   5.777 -0.1264  0.1626 -0.1942
   69BDT   BNZ1  341   3.238   5.590   3.163  0.0481  0.1856 -0.1303
   69BDT   BNZ2  342   3.417   5.619   3.143  0.0514  0.1836 -0.1034
   69BDT   BNZ3  343   3.366   5.373   3.162  0.0798  0.1972  0.2112
   69BDT    BS1  344   3.171   5.360   3.182  0.0725  0.2024  0.1570
   69BDT    BS2  345   3.556   5.424   3.140  0.0793  0.1980  0.2134
   70BDT   BNZ1  346   1.673   0.504   0.420 -0.3317  0.0692 -0.2246
   70BDT   BNZ2  347   1.663   0.322   0.400 -0.3261  0.0445 -0.0241
   70BDT   BNZ3  348   1.477   0.408   0.547 -0.2841  0.1920 -0.0557
   70BDT    BS1  349   1.502   0.603   0.558 -0.2930  0.2056 -0.2766
   70BDT    BS2  350   1.482   0.213   0.514 -0.2808  0.1567  0.1540
   71BDT   BNZ1  351   3.043   4.019   2.926  0.0791 -0.0544  0.1004
   71BDT   BNZ2  352   3.158   4.160   2.936  0.0906 -0.0658  0.1327
   71BDT   BNZ3  353   2.959   4.194   3.086 -0.0836  0.0762 -0.1217
   71BDT    BS1  354   2.846   4.035   3.064 -0.0796  0.0770 -0.1405
   71BDT    BS2  355   3.095   4.338   3.084 -0.0545  0.0519 -0.0703
   72BDT   BNZ1  356   0.537   0.441   3.995  0.3518 -0.1154 -0.0984
   72BDT   BNZ2  357   0.574   0.587   4.098  0.0297 -0.1030  0.0093
   72BDT   BNZ3  358   0.569   0.647   3.854  0.3136 -0.0286  0.0182
   72BDT    BS1  359   0.529   0.480   3.758  0.6518 -0.0382 -0.0938
   72BDT    BS2  360   0.608   0.793   3.981 -0.0428 -0.0227  0.1296
   73BDT   BNZ1  361   4.744   3.626   5.691 -0.0535  0.0102  0.1045
   73BDT   BNZ2  362   4.676   3.623   5.861 -0.0251 -0.1399  0.1146
   73BDT   BNZ3  363   4.759   3.853   5.799 -0.5891  0.0696  0.0805
   73BDT    BS1  364   4.828   3.838   5.615 -0.5818  0.2076  0.0757
   73BDT    BS2  365   4.682   3.831   5.980 -0.5174 -0.1149  0.0951
   74BDT   BNZ1  366   4.162   1.564   2.581 -0.0367  0.2177  0.1045
   74BDT   BNZ2  367   4.115   1.668   2.724 -0.2311  0.0938  0.1339
   74BDT   BNZ3  368   3.988   1.450   2.723  0.0124 -0.0526 -0.0454
   74BDT    BS1  369   4.050   1.352   2.564  0.2103  0.1020 -0.0611
   74BDT    BS2  370   3.949   1.575   2.871 -0.2060 -0.1669 -0.0022
   75BDT   BNZ1  371   0.365   4.267   3.258 -0.0541 -0.0917  0.4523
   75BDT   BNZ2  372   0.481   4.404   3.295 -0.2016  0.2001 -0.0627
   75BDT   BNZ3  373   0.603   4.185   3.265  0.0853  0.2850  0.3819
   75BDT    BS1  374   0.464   4.051   3.226  0.2469 -0.0138  0.9269
   75BDT    BS2  375   0.713   4.344   3.305 -0.0984  0.5789 -0.1879
   76BDT   BNZ1  376   1.205   2.007   5.278  0.1821 -0.2031  0.2254
   76BDT   BNZ2  377   1.036   1.937   5.267  0.1667 -0.1586  0.1756
   76BDT   BNZ3  378   1.037   2.154   5.395  0.1640 -0.0897  0.0602
   76BDT    BS1  379   1.224   2.215   5.398  0.1824 -0.1450  0.1239
   76BDT    BS2  380   0.862   2.064   5.373  0.1498 -0.0497  0.0176
   77BDT   BNZ1  381   5.176   3.029   5.778  0.0834 -0.4098 -0.1081
   77BDT   BNZ2  382   5.288   3.156   5.709  0.1171 -0.2559  0.2125
   77BDT   BNZ3  383   5.145   3.053   5.529  0.1416  0.1817 -0.0726
   77BDT    BS1  384   5.032   2.920   5.620  0.1107 -0.0163 -0.3987
   77BDT    BS2  385   5.273   3.193   5.473  0.1736  0.3016  0.2952
   78BDT   BNZ1  386   4.332   5.355   3.983 -0.2214  0.0872  0.3272
   78BDT   BNZ2  387   4.212   5.309   3.853  0.1234 -0.1583  0.0744
   78BDT   BNZ3  388   4.137   5.514   3.980 -0.3542 -0.0593 -0.3362
   78BDT    BS1  389   4.276   5.549   4.114 -0.7027  0.1895 -0.0401
   78BDT    BS2  390   4.018   5.450   3.835  0.0572 -0.3299 -0.5603
   79BDT   BNZ1  391   2.772   2.291   3.771 -0.1202  0.2620 -0.3744
   79BDT   BNZ2  392   2.785   2.216   3.605  0.1647 -0.4528 -0.0701
   79BDT   BNZ3  393   2.625   2.088   3.751  0.0730  0.0313  0.2773
   79BDT    BS1  394   2.623   2.181   3.924 -0.2256  0.7739 -0.1363
   79BDT    BS2  395   2.651   2.020   3.567  0.3799 -0.7279  0.5875
   80BDT   BNZ1  396   3.230   1.505   1.089 -0.3060  0.2933  0.1284
   80BDT   BNZ2  397   3.306   1.625   1.205 -0.0270  0.0506  0.2097
   80BDT   BNZ3  398   3.435   1.612   0.989 -0.1498  0.0096  0.1377
   80BDT    BS1  399   3.341   1.479   0.878 -0.4474  0.2871  0.0589
   80BDT    BS2  400   3.503   1.737   1.126  0.1444 -0.2439  0.2229
   81BDT   BNZ1  401   1.587   4.528   1.606  0.1249 -0.1746  0.1166
   81BDT   BNZ2  402   1.413   4.563   1.648  0.1988  0.3713  0.0410
   81BDT   BNZ3  403   1.443   4.529   1.400  0.2015  0.2694  0.0549
   81BDT    BS1  404   1.634   4.492   1.373  0.1035 -0.3253  0.1428
   81BDT    BS2  405   1.259   4.568   1.463  0.2966  0.8387 -0.0278
   82BDT   BNZ1  406   1.377   2.334   3.835 -0.1366 -0.0195  0.0017
   82BDT   BNZ2  407   1.487   2.297   3.977 -0.0529 -0.0464 -0.0688
   82BDT   BNZ3  408   1.583   2.208   3.762 -0.0500  0.2197 -0.1819
   82BDT    BS1  409   1.454   2.256   3.621 -0.1451  0.2305 -0.0925
   82BDT    BS2  410   1.688   2.177   3.926  0.0334  0.1722 -0.2445
   83BDT   BNZ1  411   3.821   5.679   2.194  0.1549 -0.1055  0.1847
   83BDT   BNZ2  412   3.703   5.725   2.326 -0.1307 -0.1427 -0.0479
   83BDT   BNZ3  413   3.842   5.923   2.255  0.0130 -0.1178  0.2872
   83BDT    BS1  414   3.962   5.857   2.114  0.3073 -0.0760  0.5316
   83BDT    BS2  415   3.708   5.954   2.398 -0.2951 -0.1599  0.0199
   84BDT   BNZ1  416   2.022   2.115   4.490  0.1209 -0.0577  0.0036
   84BDT   BNZ2  417   2.004   1.939   4.535  0.0590 -0.0402  0.0490
   84BDT   BNZ3  418   2.246   2.003   4.513  0.0794 -0.1768 -0.1563
   84BDT    BS1  419   2.248   2.194   4.465  0.1444 -0.1868 -0.1905
   84BDT    BS2  420   2.208   1.815   4.561  0.0118 -0.1482 -0.0924
   85BDT   BNZ1  421   2.703   0.682   5.274  0.2443  0.1862  0.2866
   85BDT   BNZ2  422   2.572   0.700   5.401 -0.1875  0.3063 -0.1464
   85BDT   BNZ3  423   2.756   0.869   5.434  0.0312 -0.0394  0.6346
   85BDT    BS1  424   2.887   0.836   5.291  0.4416 -0.1518  1.0909
   85BDT    BS2  425   2.605   0.874   5.562 -0.4525  0.1025  0.1277
   86BDT   BNZ1  426   4.579   4.901   5.160 -0.1512  0.0299 -0.0511
   86BDT   BNZ2  427   4.641   4.784   5.286 -0.1548  0.0332 -0.0463
   86BDT   BNZ3  428   4.824   4.937   5.205 -0.1038 -0.1027 -0.1931
   86BDT    BS1  429   4.741   5.055   5.071 -0.1052 -0.0966 -0.1869
   86BDT    BS2  430   4.873   4.803   5.343 -0.1130 -0.0890 -0.1761
   87BDT   BNZ1  431   0.739   4.539   0.735  0.2620 -0.3646 -0.0445
   87BDT   BNZ2  432   0.725   4.682   0.847  0.1858 -0.3175 -0.1128
   87BDT   BNZ3  433   0.741   4.466   0.976  0.2304 -0.2539 -0.0105
   87BDT    BS1  434   0.755   4.324   0.841  0.3114 -0.3099  0.0577
   87BDT    BS2  435   0.726   4.633   1.082  0.1479 -0.2102 -0.0900
   88BDT   BNZ1  436   5.730   4.914   5.441  0.1121  0.1021  0.0745
   88BDT   BNZ2  437   5.678   5.079   5.380  0.1298  0.0611 -0.0539
   88BDT   BNZ3  438   5.839   4.968   5.220 -0.0382 -0.1659 -0.0711
   88BDT    BS1  439   5.884   4.794   5.301 -0.0469 -0.1027  0.0757
   88BDT    BS2  440   5.773   5.147   5.170 -0.0077 -0.1915 -0.1987
   89BDT   BNZ1  441   0.633   4.902   3.307 -0.1647 -0.2186  0.0544
   89BDT   BNZ2  442   0.510   5.035   3.338 -0.0822 -0.0990 -0.1168
   89BDT   BNZ3  443   0.527   4.878   3.535 -0.2261  0.1083  0.0650
   89BDT    BS1  444   0.662   4.743   3.486 -0.3083 -0.0365  0.2384
   89BDT    BS2  445   0.399   5.028   3.550 -0.1269  0.2149 -0.1304
   90BDT   BNZ1  446   3.383   4.798   3.708 -0.3711 -0.1215  0.2246
   90BDT   BNZ2  447   3.419   4.644   3.801  0.0923 -0.1782 -0.0185
   90BDT   BNZ3  448   3.524   4.845   3.911  0.0137 -0.1295 -0.0309
   90BDT    BS1  449   3.476   5.000   3.800 -0.4927 -0.0826  0.2456
   90BDT    BS2  450   3.553   4.670   3.998  0.4947 -0.1770 -0.2920
   91BDT   BNZ1  451   2.897   5.174   2.446 -0.0478 -0.0801 -0.1643
   91BDT   BNZ2  452   3.010   5.033   2.416 -0.1151 -0.1892  0.0692
   91BDT   BNZ3  453   2.963   5.062   2.662 -0.3498  0.0481  0.0011
   91BDT    BS1  454   2.841   5.216   2.676 -0.2540  0.1477 -0.2577
   91BDT    BS2  455   3.084   4.915   2.611 -0.4026 -0.0809  0.2444
   92BDT   BNZ1  456   2.982   2.829   2.637  0.0406 -0.1757 -0.2947
   92BDT   BNZ2  457   2.984   2.858   2.456  0.4907  0.3481 -0.2335
   92BDT   BNZ3  458   2.839   3.027   2.574  0.0795 -0.0804 -0.0942
   92BDT    BS1  459   2.847   2.982   2.765 -0.3854 -0.6224 -0.2297
   92BDT    BS2  460   2.853   3.043   2.377  0.5806  0.4934 -0.0432
   93BDT   BNZ1  461   5.145   2.048   5.450  0.1706 -0.0200 -0.2872
   93BDT   BNZ2  462   5.197   2.053   5.625 -0.2742  0.0508 -0.1452
   93BDT   BNZ3  463   5.174   1.816   5.543  0.1000  0.0174 -0.1699
   93BDT    BS1  464   5.119   1.829   5.355  0.5719 -0.0569 -0.3013
   93BDT    BS2  465   5.230   1.840   5.731 -0.3908  0.0943 -0.0220
   94BDT   BNZ1  466   3.835   4.910   4.363  0.0994  0.0805 -0.0398
   94BDT   BNZ2  467   3.983   4.909   4.255  0.1981  0.0755  0.0915
   94BDT   BNZ3  468   3.826   4.719   4.200  0.1996  0.1286 -0.1024
   94BDT    BS1  469   3.675   4.735   4.324  0.0930  0.1306 -0.2348
   94BDT    BS2  470   3.991   4.733   4.092  0.3021  0.1198  0.0493
   95BDT   BNZ1  471   1.608   3.315   1.687  0.2375 -0.3090  0.1757
   95BDT   BNZ2  472   1.555   3.140   1.680 -0.1684 -0.1880 -0.2137
   95BDT   BNZ3  473   1.357   3.296   1.670  0.1989  0.2978 -0.2611
   95BDT    BS1  474   1.432   3.478   1.679  0.6298  0.1036  0.1748
   95BDT    BS2  475   1.318   3.102   1.663 -0.2306  0.3980 -0.6582
   96BDT   BNZ1  476   3.995   4.829   4.703  0.0090  0.0055  0.0596
   96BDT   BNZ2  477   3.874   4.893   4.823  0.1023  0.1633  0.0723
   96BDT   BNZ3  478   4.086   5.029   4.826  0.1863  0.0402 -0.1220
   96BDT    BS1  479   4.204   4.947   4.692  0.0732 -0.1259 -0.1199
   96BDT    BS2  480   3.943   5.085   4.950  0.2754  0.2114 -0.0945
   97BDT   BNZ1  481   3.729   2.718   4.572 -0.1308 -0.1566 -0.1854
   97BDT   BNZ2  482   3.571   2.756   4.489 -0.0555  0.0757 -0.2298
   97BDT   BNZ3  483   3.646   2.948   4.634 -0.0231 -0.1963  0.1270
   97BDT    BS1  484   3.816   2.891   4.715 -0.1177 -0.4359  0.1417
   97BDT    BS2  485   3.476   2.972   4.535  0.0500  0.0616  0.0485
   98BDT   BNZ1  486   3.205   2.897   2.916  0.1972  0.0657 -0.1195
   98BDT   BNZ2  487   3.275   2.843   2.756  0.0617  0.2226 -0.2355
   98BDT   BNZ3  488   3.205   3.085   2.749 -0.0912  0.1894  0.0121
   98BDT    BS1  489   3.132   3.126   2.927  0.0727  0.0137  0.1201
   98BDT    BS2  490   3.284   3.010   2.584 -0.2197  0.3523 -0.1239
   99BDT   BNZ1  491   4.374   4.204   5.548  0.0234 -0.0953  0.1797
   99BDT   BNZ2  492   4.340   4.261   5.719  0.2121  0.2724  0.1045
   99BDT   BNZ3  493   4.535   4.101   5.712 -0.0672 -0.0889  0.2736
   99BDT    BS1  494   4.557   4.050   5.524 -0.2623 -0.4590  0.3672
   99BDT    BS2  495   4.484   4.173   5.889  0.1471  0.3243  0.1860
  100BDT   BNZ1  496   5.322   3.671   0.574 -0.0767  0.1329 -0.0093
  100BDT   BNZ2  497   5.447   3.588   0.679  0.0253 -0.0388 -0.2581
  100BDT   BNZ3  498   5.313   3.756   0.811  0.2456 -0.1418  0.1079
  100BDT    BS1  499   5.185   3.835   0.685  0.1233  0.0492  0.3555
  100BDT    BS2  500   5.453   3.656   0.909  0.3330 -0.3131 -0.1862
  101BENZ    R1  501   0.169   3.813   2.581  0.1675 -0.1591  0.0724
  101BENZ    R2  502   0.039   4.072   2.593 -0.1879 -0.3235 -0.0964
  101BENZ    R3  503   0.310   4.041   2.693 -0.0712  0.1514 -0.2409
  102BENZ    R1  504   3.738   5.385   1.687 -0.3262  0.0411 -0.0499
  102BENZ    R2  505   3.831   5.649   1.614 -0.0910 -0.0803 -0.2025
  102BENZ    R3  506   3.609   5.620   1.797  0.4463  0.2288  0.5515
  103BENZ    R1  507   4.681   0.900   4.698 -0.3323  0.1113  0.1107
  103BENZ    R2  508   4.603   1.118   4.524 -0.1468  0.2407  0.1870
  103BENZ    R3  509   4.880   1.032   4.533 -0.1768  0.1568  0.3310
  104BENZ    R1  510   4.951   0.453   4.805 -0.0434  0.3492 -0.1392
  104BENZ    R2  511   5.116   0.565   5.016  0.3013 -0.0142 -0.2025
  104BENZ    R3  512   5.107   0.693   4.756 -0.1226  0.4337  0.0166
  105BENZ    R1  513   4.554   1.685   5.596  0.3020  0.0135  0.1440
  105BENZ    R2  514   4.473   1.786   5.336 -0.1646  0.1414  0.3289
  105BENZ    R3  515   4.723   1.874   5.454  0.2448 -0.2045 -0.2274
  106BENZ    R1  516   1.234   5.681   3.090 -0.0495 -0.4340  0.3168
  106BENZ    R2  517   1.516   5.625   3.049 -0.0882 -0.3316 -0.1563
  106BENZ    R3  518   1.427   5.757   3.292  0.2925 -0.1987 -0.0835
  107BENZ    R1  519   1.667   0.773   1.318 -0.0718 -0.0940 -0.1586
  107BENZ    R2  520   1.653   1.000   1.138 -0.0401  0.2721  0.2824
  107BENZ    R3  521   1.555   1.024   1.410  0.0888 -0.2069  0.3803
  108BENZ    R1  522   1.970   2.399   5.354 -0.0640 -0.1106 -0.1923
  108BENZ    R2  523   1.841   2.473   5.603  0.4014  0.1882 -0.0283
  108BENZ    R3  524   1.917   2.197   5.556  0.1941  0.1067  0.1002
  109BENZ    R1  525   3.730   3.261   2.480  0.0194  0.3061 -0.1592
  109BENZ    R2  526   3.483   3.204   2.340 -0.0844  0.0949  0.1003
  109BENZ    R3  527   3.475   3.312   2.608  0.1084  0.1932  0.0679
  110BENZ    R1  528   2.426   5.200   1.547  0.1587 -0.0479 -0.0310
  110BENZ    R2  529   2.684   5.303   1.464  0.2450 -0.1801  0.0703
  110BENZ    R3  530   2.545   5.424   1.687  0.3085 -0.2289  0.1371
  111BENZ    R1  531   5.622   5.203   4.605  0.6203 -0.1422  0.5364
  111BENZ    R2  532   5.466   5.326   4.816  0.1913 -0.2327  0.2836
  111BENZ    R3  533   5.547   5.049   4.838 -0.1019 -0.3276  0.2079
  112BENZ    R1  534   4.360   2.864   1.733 -0.0943 -0.0976 -0.2300
  112BENZ    R2  535   4.557   2.678   1.629  0.2663  0.0187  0.2132
  112BENZ    R3  536   4.320   2.578   1.763  0.2485 -0.1215  0.0798
  113BENZ    R1  537   0.802   1.660   5.623 -0.2801 -0.2828  0.3529
  113BENZ    R2  538   0.947   1.529   5.408 -0.4007 -0.2203  0.2312
  113BENZ    R3  539   1.024   1.484   5.684 -0.0724 -0.0943  0.1660
  114BENZ    R1  540   0.385   5.748   0.554 -0.1776  0.1882 -0.0843
  114BENZ    R2  541   0.574   5.583   0.699  0.0289  0.1566 -0.3810
  114BENZ    R3  542   0.517   5.852   0.791 -0.3001 -0.0625  0.0985
  115BENZ    R1  543   1.627   2.488   1.799 -0.2472 -0.2675 -0.1696
  115BENZ    R2  544   1.736   2.708   1.645 -0.1092 -0.1104  0.1433
  115BENZ    R3  545   1.526   2.757   1.839 -0.2755 -0.3042  0.0157
  116BENZ    R1  546   0.268   0.740   1.247  0.1466  0.1803  0.2078
  116BENZ    R2  547   0.451   0.925   1.119  0.1435 -0.0092 -0.0795
  116BENZ    R3  548   0.427   0.654   1.020 -0.0571 -0.0822  0.1605
  117BENZ    R1  549   4.939   2.389   5.684 -0.0326  0.3933 -0.0360
  117BENZ    R2  550   4.899   2.411   5.970  0.3699  0.0396  0.0581
  117BENZ    R3  551   4.970   2.645   5.815  0.2524  0.2142  0.2625
  118BENZ    R1  552   0.377   5.779   2.400  0.2342 -0.1046  0.1496
  118BENZ    R2  553   0.305   5.498   2.410  0.4643 -0.1904 -0.3130
  118BENZ    R3  554   0.240   5.656   2.175  0.0739  0.2299  0.0578
  119BENZ    R1  555   4.634   5.405   2.345  0.1920  0.1407 -0.2792
  119BENZ    R2  556   4.611   5.445   2.631 -0.1424 -0.3299 -0.2286
  119BENZ    R3  557   4.870   5.394   2.513  0.0241  0.0416 -0.0438
  120BENZ    R1  558   0.221   1.203   2.442  0.0468  0.4880  0.1646
  120BENZ    R2  559  -0.058   1.282   2.429 -0.1436 -0.1654 -0.1282
  120BENZ    R3  560   0.062   1.218   2.685 -0.4193 -0.3713 -0.0445
  121BENZ    R1  561   2.157   1.613   4.851  0.2888  0.1673 -0.3820
  121BENZ    R2  562   2.399   1.478   4.763  0.0941 -0.2644 -0.2842
  121BENZ    R3  563   2.139   1.384   4.674 -0.0526  0.0369 -0.1892
  122BENZ    R1  564   4.485   2.095   0.929 -0.2385  0.2642 -0.0575
  122BENZ    R2  565   4.310   1.897   0.811 -0.2290  0.4592 -0.4141
  122BENZ    R3  566   4.206   2.083   1.007 -0.1946 -0.0048  0.0676
  123BENZ    R1  567   5.722   1.683   1.905  0.3560  0.4430 -0.1249
  123BENZ    R2  568   5.761   1.587   1.634  0.1271  0.2638 -0.0986
  123BENZ    R3  569   5.595   1.820   1.683  0.7587  0.7578 -0.1711
  124BENZ    R1  570   3.276   0.110   2.033 -0.2163  0.2784 -0.1753
  124BENZ    R2  571   3.558   0.065   1.980 -0.1906  0.2184  0.0034
  124BENZ    R3  572   3.406  -0.130   2.132 -0.3630  0.1851 -0.2061
  125BENZ    R1  573   5.264   5.180   5.578  0.0721  0.1809 -0.0186
  125BENZ    R2  574   5.081   4.955   5.594 -0.3032  0.4905  0.2095
  125BENZ    R3  575   5.287   4.960   5.389 -0.1067 -0.1816  0.3657
  126BENZ    R1  576   0.676   1.757   5.248  0.0846  0.3123  0.0539
  126BENZ    R2  577   0.442   1.631   5.133  0.0519  0.3363  0.0935
  126BENZ    R3  578   0.676   1.682   4.968  0.2513 -0.2141  0.1847
  127BENZ    R1  579   1.738   5.613   2.588 -0.1429  0.2443 -0.1168
  127BENZ    R2  580   1.602   5.425   2.415 -0.0151 -0.0474  0.0904
  127BENZ    R3  581   1.502   5.474   2.682  0.0308  0.0793  0.0850
  128BENZ    R1  582   3.808   3.542   2.740  0.2165 -0.1184  0.0337
  128BENZ    R2  583   3.732   3.611   2.469 -0.0759  0.0299  0.1492
  128BENZ    R3  584   3.651   3.781   2.690 -0.0160 -0.1989  0.3506
  129BENZ    R1  585   0.753   3.512   1.263  0.2828 -0.2080  0.0955
  129BENZ    R2  586   0.824   3.773   1.158  0.0766 -0.0839  0.2553
  129BENZ    R3  587   0.558   3.666   1.114  0.2453 -0.3972 -0.0544
  130BENZ    R1  588   5.289   0.509   0.201 -0.0961  0.0540 -0.0432
  130BENZ    R2  589   5.155   0.604   0.440 -0.0992  0.0764 -0.0537
  130BENZ    R3  590   5.112   0.739   0.187  0.0751  0.1896 -0.0247
  131BENZ    R1  591   2.653   2.591   4.077  0.0337 -0.2444 -0.0309
  131BENZ    R2  592   2.528   2.456   4.301 -0.0477 -0.1808 -0.0371
  131BENZ    R3  593   2.681   2.699   4.345  0.2628 -0.3767  0.0011
  132BENZ    R1  594   5.592   4.757   3.966 -0.1369  0.1288 -0.1365
  132BENZ    R2  595   5.648   4.514   4.116  0.1955  0.2428 -0.0664
  132BENZ    R3  596   5.682   4.518   3.828  0.1382  0.1929 -0.0742
  133BENZ    R1  597   0.482   3.675   0.757  0.0671 -0.1643 -0.1225
  133BENZ    R2  598   0.301   3.538   0.938 -0.0712  0.2947  0.1029
  133BENZ    R3  599   0.219   3.595   0.665  0.0907 -0.2900 -0.0820
  134BENZ    R1  600   0.849   5.209   3.125 -0.3322  0.2263 -0.1665
  134BENZ    R2  601   1.072   5.349   3.003 -0.0262  0.0095  0.1243
  134BENZ    R3  602   0.835   5.290   2.847  0.0126  0.4604 -0.1224
  135BENZ    R1  603   1.380   1.670   0.692 -0.0241  0.1635 -0.2585
  135BENZ    R2  604   1.368   1.430   0.528 -0.2647  0.2305 -0.3435
  135BENZ    R3  605   1.267   1.682   0.425 -0.2665  0.3100 -0.1533
  136BENZ    R1  606   3.992   2.619   1.816 -0.1345  0.0963 -0.0350
  136BENZ    R2  607   3.772   2.454   1.724 -0.1341  0.1339 -0.1044
  136BENZ    R3  608   3.993   2.513   1.546  0.0048 -0.0250  0.0118
  137BENZ    R1  609   2.177   4.498   1.279 -0.0062  0.2593 -0.2371
  137BENZ    R2  610   1.943   4.394   1.414  0.4016 -0.6035 -0.1316
  137BENZ    R3  611   2.109   4.593   1.544  0.1022 -0.4850  0.0799
  138BENZ    R1  612   5.706   1.936   3.421  0.1801 -0.1135  0.0037
  138BENZ    R2  613   5.464   1.784   3.370  0.1701  0.0061 -0.3285
  138BENZ    R3  614   5.449   2.040   3.506  0.1658 -0.1939  0.0599
  139BENZ    R1  615   5.214   4.141   5.001  0.1605  0.0295  0.1744
  139BENZ    R2  616   5.101   4.043   4.753  0.3718 -0.0256  0.0979
  139BENZ    R3  617   5.279   3.875   4.908  0.1599 -0.0306  0.3423
  140BENZ    R1  618   2.118   4.221   0.350 -0.0226 -0.1417  0.2305
  140BENZ    R2  619   1.872   4.209   0.196  0.0588  0.0828  0.0767
  140BENZ    R3  620   2.126   4.144   0.070  0.1158  0.1745  0.1431
  141BENZ    R1  621   2.954   2.351   0.501  0.2042  0.2529 -0.0563
  141BENZ    R2  622   2.677   2.326   0.416  0.1389  0.0538  0.2015
  141BENZ    R3  623   2.888   2.357   0.219 -0.0559  0.1027 -0.0024
  142BENZ    R1  624   3.606   3.694   1.433  0.0702 -0.0237  0.3848
  142BENZ    R2  625   3.410   3.534   1.575  0.0414 -0.2005  0.1508
  142BENZ    R3  626   3.672   3.424   1.516 -0.0481 -0.2445 -0.1907
  143BENZ    R1  627   4.047   5.715   3.117 -0.0798 -0.0404  0.0712
  143BENZ    R2  628   3.878   5.490   3.047 -0.2814  0.0391  0.2879
  143BENZ    R3  629   3.780   5.694   3.227 -0.1892  0.4260 -0.0839
  144BENZ    R1  630   5.465   4.474   0.289  0.4347  0.4471  0.2559
  144BENZ    R2  631   5.293   4.662   0.426 -0.0518  0.0504  0.2174
  144BENZ    R3  632   5.179   4.429   0.296  0.4984 -0.0949 -0.0344
  145BENZ    R1  633   4.359   1.247   4.744 -0.0853 -0.0339  0.0080
  145BENZ    R2  634   4.111   1.162   4.870 -0.0927  0.3363  0.2604
  145BENZ    R3  635   4.218   1.427   4.923  0.2345  0.2724 -0.0361
  146BENZ    R1  636   2.657   3.361   1.065  0.3263  0.0190  0.3465
  146BENZ    R2  637   2.804   3.288   0.826  0.2324  0.4810  0.1367
  146BENZ    R3  638   2.877   3.173   1.082  0.2074 -0.1757 -0.1335
  147BENZ    R1  639   5.010   3.177   4.612  0.2345  0.4404  0.0835
  147BENZ    R2  640   5.053   3.331   4.370 -0.0562  0.1260 -0.1773
  147BENZ    R3  641   5.212   3.094   4.422 -0.0983  0.1065 -0.1365
  148BENZ    R1  642   4.829   2.686   1.176 -0.0004 -0.0477 -0.1442
  148BENZ    R2  643   4.954   2.536   1.390 -0.0146  0.2410  0.0723
  148BENZ    R3  644   4.668   2.518   1.349  0.0186  0.0055 -0.0742
  149BENZ    R1  645   3.346   0.216   1.032  0.3662 -0.0821  0.2184
  149BENZ    R2  646   3.444   0.467   0.924 -0.1193  0.0417  0.0397
  149BENZ    R3  647   3.266   0.467   1.154  0.0453 -0.1560  0.1706
  150BENZ    R1  648   5.696   1.986   4.386  0.0720  0.0760  0.1361
  150BENZ    R2  649   5.576   2.046   4.644 -0.3422 -0.1802  0.0129
  150BENZ    R3  650   5.660   1.775   4.583 -0.0622 -0.0819 -0.0541
  151BENZ    R1  651   4.551   2.268   2.809  0.0800  0.0483 -0.0547
  151BENZ    R2  652   4.515   2.126   3.060 -0.0374 -0.0828 -0.1442
  151BENZ    R3  653   4.551   1.978   2.813 -0.0416  0.0446 -0.2223
  152BENZ    R1  654   1.145   3.430   2.509  0.2290  0.0744 -0.4799
  152BENZ    R2  655   1.107   3.176   2.643 -0.3524  0.2920 -0.2024
  152BENZ    R3  656   1.210   3.183   2.372  0.0903 -0.2025 -0.0624
  153BENZ    R1  657   1.342   3.443   0.042  0.2115 -0.0608 -0.0303
  153BENZ    R2  658   1.374   3.224  -0.145 -0.0287 -0.3226  0.2249
  153BENZ    R3  659   1.181   3.203   0.070  0.0301  0.0955  0.3258
  154BENZ    R1  660   3.454   2.332   1.929 -0.1801 -0.1807  0.2314
  154BENZ    R2  661   3.422   2.405   2.208  0.3121  0.0595  0.2373
  154BENZ    R3  662   3.685   2.412   2.086  0.1714 -0.4433 -0.1299
  155BENZ    R1  663   4.999   4.569   1.653 -0.0880 -0.2218 -0.1515
  155BENZ    R2  664   5.185   4.474   1.452  0.4146 -0.0081  0.1904
  155BENZ    R3  665   5.265   4.683   1.636 -0.1834  0.1079  0.3416
  156BENZ    R1  666   3.663   2.151   3.135  0.0588  0.2943 -0.2409
  156BENZ    R2  667   3.566   2.127   3.408  0.0820 -0.0074 -0.2554
  156BENZ    R3  668   3.649   2.386   3.305  0.1839  0.0903  0.0606
  157BENZ    R1  669   4.869   4.267   1.474 -0.1780  0.0336 -0.1412
  157BENZ    R2  670   4.826   4.362   1.203 -0.2089 -0.2095 -0.2242
  157BENZ    R3  671   4.603   4.344   1.388 -0.2021 -0.1181 -0.2070
  158BENZ    R1  672   0.281   5.165   4.838 -0.3479  0.0515  0.5705
  158BENZ    R2  673   0.337   4.890   4.909 -0.1973 -0.0301  0.1641
  158BENZ    R3  674   0.063   4.977   4.873 -0.2363 -0.1889  0.0661
  159BENZ    R1  675   4.934   0.022   1.854  0.1302  0.2514  0.6764
  159BENZ    R2  676   5.019   0.296   1.895  0.0905  0.3589  0.1210
  159BENZ    R3  677   4.747   0.239   1.812  0.2113  0.1908 -0.1760
  160BENZ    R1  678   0.680   4.779   2.068  0.0184  0.2446  0.2544
  160BENZ    R2  679   0.479   4.953   1.952 -0.1900  0.0590  0.3289
  160BENZ    R3  680   0.410   4.781   2.175  0.0389 -0.0480  0.3204
  161BENZ    R1  681   3.743   4.406   1.496 -0.2523  0.0429  0.2279
  161BENZ    R2  682   3.463   4.482   1.514 -0.2221  0.0739  0.6995
  161BENZ    R3  683   3.543   4.207   1.562 -0.2432 -0.1292 -0.2247
  162BENZ    R1  684   4.663   3.906   4.108  0.0163 -0.1330 -0.4069
  162BENZ    R2  685   4.776   4.165   4.042 -0.0101  0.0885  0.3258
  162BENZ    R3  686   4.553   4.061   3.889  0.3351  0.2402 -0.3144
  163BENZ    R1  687   5.337   2.537   5.788  0.0514 -0.0898 -0.3304
  163BENZ    R2  688   5.427   2.328   5.608 -0.4100 -0.4890 -0.1184
  163BENZ    R3  689   5.218   2.512   5.525  0.2401  0.1531 -0.4435
  164BENZ    R1  690   4.157   1.854   4.567 -0.1740 -0.1431 -0.3422
  164BENZ    R2  691   4.021   1.609   4.642 -0.3269  0.0113 -0.1010
  164BENZ    R3  692   4.306   1.637   4.687 -0.3298 -0.0801 -0.0231
  165BENZ    R1  693   1.160   1.798   2.685 -0.3705 -0.2110 -0.2329
  165BENZ    R2  694   1.434   1.836   2.598 -0.2142 -0.1134  0.2645
  165BENZ    R3  695   1.237   2.044   2.551 -0.0890  0.0186  0.3164
  166BENZ    R1  696   5.140   2.255   1.038 -0.1971  0.2952 -0.2228
  166BENZ    R2  697   4.869   2.355   1.014 -0.1977  0.2899 -0.2387
  166BENZ    R3  698   4.920   2.070   0.996 -0.2151  0.2728 -0.0383
  167BENZ    R1  699   4.821   5.504   1.562  0.3305  0.2061 -0.0106
  167BENZ    R2  700   4.877   5.265   1.717 -0.2066 -0.0949 -0.2513
  167BENZ    R3  701   4.733   5.486   1.837 -0.0834 -0.0676 -0.1516
  168BENZ    R1  702   5.700   5.005   3.374 -0.2666  0.0198  0.1002
  168BENZ    R2  703   5.803   5.103   3.627 -0.6142  0.0865  0.2210
  168BENZ    R3  704   5.675   4.843   3.613 -0.0705 -0.1838 -0.0140
  169BENZ    R1  705   3.891   4.916   2.377  0.3690 -0.0047 -0.2891
  169BENZ    R2  706   3.720   5.149   2.399  0.0798 -0.2222 -0.1604
  169BENZ    R3  707   3.888   5.070   2.622 -0.0461 -0.3044 -0.0939
  170BENZ    R1  708   0.038   4.642   0.683 -0.1358 -0.3511  0.1700
  170BENZ    R2  709   0.077   4.460   0.461 -0.0976  0.0693 -0.1838
  170BENZ    R3  710  -0.127   4.665   0.445  0.0635  0.2547  0.0726
  171BENZ    R1  711   4.790   0.374   2.117 -0.0197 -0.0139  0.1203
  171BENZ    R2  712   4.504   0.385   2.072  0.0136  0.1803 -0.0625
  171BENZ    R3  713   4.634   0.129   2.115 -0.1762  0.0844 -0.0451
  172BENZ    R1  714   2.168   4.773   3.504  0.1172  0.3226  0.1476
  172BENZ    R2  715   2.384   4.899   3.650  0.2643  0.2682 -0.0203
  172BENZ    R3  716   2.442   4.730   3.421  0.0507  0.1512  0.0093
  173BENZ    R1  717   5.053   1.373   1.593 -0.5655 -0.0948 -0.1194
  173BENZ    R2  718   4.902   1.568   1.745 -0.3891  0.3251 -0.4610
  173BENZ    R3  719   4.775   1.323   1.656 -0.5699  0.1966  0.1119
  174BENZ    R1  720   2.104   0.685   5.556  0.2043 -0.0407 -0.0637
  174BENZ    R2  721   2.165   0.857   5.782 -0.4235 -0.1632  0.2210
  174BENZ    R3  722   2.139   0.970   5.516  0.3377 -0.0191  0.1859
  175BENZ    R1  723   3.429   4.159   0.014  0.2316 -0.1023 -0.0504
  175BENZ    R2  724   3.328   4.008  -0.211 -0.4352  0.2008  0.0233
  175BENZ    R3  725   3.348   4.297  -0.228 -0.0236  0.1875  0.1915
  176BENZ    R1  726   0.586   2.211   5.492  0.4776 -0.3920 -0.2262
  176BENZ    R2  727   0.448   2.109   5.259  0.1815 -0.0149 -0.2262
  176BENZ    R3  728   0.433   2.391   5.324  0.3793 -0.0895  0.1716
  177BENZ    R1  729   1.144   1.289   3.477 -0.1380  0.0224  0.0440
  177BENZ    R2  730   1.349   1.197   3.293 -0.0047 -0.0540  0.2269
  177BENZ    R3  731   1.149   1.012   3.392  0.0115 -0.0477  0.2715
  178BENZ    R1  732   4.036   5.446   3.415 -0.1034 -0.1008  0.0711
  178BENZ    R2  733   3.793   5.363   3.549 -0.2178 -0.1743 -0.1748
  178BENZ    R3  734   3.983   5.164   3.457 -0.1042 -0.1209 -0.0586
  179BENZ    R1  735   5.118   5.405   4.887 -0.1866 -0.0097 -0.0389
  179BENZ    R2  736   4.844   5.501   4.895 -0.1994 -0.0518  0.0446
  179BENZ    R3  737   5.044   5.619   5.069 -0.1266  0.0923 -0.1331
  180BENZ    R1  738   4.916   5.107   2.326  0.2161  0.1804  0.0530
  180BENZ    R2  739   4.834   4.828   2.321  0.1397  0.2041 -0.0696
  180BENZ    R3  740   4.665   5.027   2.447  0.1579  0.2068 -0.0492
  181BENZ    R1  741   2.731   2.794   2.203  0.1109 -0.3599  0.1263
  181BENZ    R2  742   2.669   2.896   1.938 -0.0208 -0.2885  0.1841
  181BENZ    R3  743   2.639   2.613   1.995  0.1968 -0.3370  0.0676
  182BENZ    R1  744   2.982   3.081   3.817 -0.0887  0.1291  0.0055
  182BENZ    R2  745   3.178   2.894   3.919  0.0959  0.4065  0.1742
  182BENZ    R3  746   2.895   2.834   3.942  0.1523 -0.0426 -0.1565
  183BENZ    R1  747   0.128   0.544   3.102 -0.0369  0.3886 -0.2164
  183BENZ    R2  748   0.210   0.392   2.869  0.1845  0.1122  0.0336
  183BENZ    R3  749   0.380   0.605   2.971  0.2534  0.0090  0.1371
  184BENZ    R1  750   5.269   0.027   4.290  0.2989  0.2120 -0.1216
  184BENZ    R2  751   5.321   0.146   4.030 -0.0180 -0.0687 -0.3225
  184BENZ    R3  752   5.251  -0.135   4.049  0.3063 -0.1303  0.1014
  185BENZ    R1  753   3.341   0.671   4.557 -0.1633 -0.1855  0.2380
  185BENZ    R2  754   3.126   0.681   4.752 -0.3590 -0.1125  0.0224
  185BENZ    R3  755   3.124   0.861   4.524  0.0486  0.0434  0.1338
  186BENZ    R1  756   3.283   1.523   0.225 -0.2950  0.0519 -0.1173
  186BENZ    R2  757   3.300   1.789   0.340  0.3063  0.0288 -0.1215
  186BENZ    R3  758   3.192   1.570   0.497  0.3623  0.1575  0.1020
  187BENZ    R1  759   5.006   5.154   0.621  0.1462  0.0121 -0.0090
  187BENZ    R2  760   5.281   5.226   0.676  0.2239  0.0027 -0.3574
  187BENZ    R3  761   5.217   5.070   0.441 -0.0514 -0.2456 -0.1263
  188BENZ    R1  762   4.123   5.332   4.476  0.1514  0.1270  0.2311
  188BENZ    R2  763   3.855   5.382   4.574  0.1729  0.4982  0.1155
  188BENZ    R3  764   4.074   5.352   4.762  0.0618  0.2361  0.2088
  189BENZ    R1  765   1.778   2.097   1.693 -0.1188 -0.0446 -0.0269
  189BENZ    R2  766   1.860   1.825   1.635 -0.0243 -0.0328  0.0490
  189BENZ    R3  767   2.052   2.016   1.739 -0.0925  0.0605  0.0059
  190BENZ    R1  768   4.399   3.848   5.269  0.4679  0.2839 -0.0231
  190BENZ    R2  769   4.545   4.019   5.086  0.3316  0.2164 -0.1979
  190BENZ    R3  770   4.265   3.961   5.039  0.2373  0.3645  0.1475
  191BENZ    R1  771   0.223   2.588   2.800  0.1927  0.1817  0.0041
  191BENZ    R2  772   0.222   2.705   3.066  0.6426  0.1990  0.0056
  191BENZ    R3  773   0.075   2.833   2.851  0.2803  0.1885  0.2390
  192BENZ    R1  774   5.132   1.991   3.563 -0.1758  0.3734 -0.1339
  192BENZ    R2  775   4.958   2.045   3.338 -0.4142  0.5660  0.0898
  192BENZ    R3  776   5.179   2.223   3.396  0.0113  0.2011 -0.3263
  193BENZ    R1  777   1.673   0.144   2.526  0.2048  0.0102  0.0792
  193BENZ    R2  778   1.440   0.315   2.517  0.0263 -0.2172  0.2491
  193BENZ    R3  779   1.698   0.418   2.435 -0.1616 -0.0152 -0.1170
  194BENZ    R1  780   3.519   2.815   2.461  0.0189  0.2725  0.0211
  194BENZ    R2  781   3.393   2.581   2.577 -0.0054  0.3492  0.1508
  194BENZ    R3  782   3.282   2.702   2.338  0.0607  0.1741  0.0295
  195BENZ    R1  783   3.448   1.839   5.291  0.1614  0.0688  0.1199
  195BENZ    R2  784   3.723   1.875   5.206  0.1380 -0.0246  0.0012
  195BENZ    R3  785   3.658   1.870   5.489  0.2232  0.2458  0.0286
  196BENZ    R1  786   2.250   2.695   5.081 -0.3048  0.1882  0.3582
  196BENZ    R2  787   2.386   2.524   5.272  0.0989  0.0391 -0.0458
  196BENZ    R3  788   2.485   2.546   5.000 -0.4155  0.3063 -0.2248
  197BENZ    R1  789   3.998   0.860   2.878 -0.1745 -0.2041 -0.0307
  197BENZ    R2  790   3.966   0.590   2.779 -0.1503 -0.3019  0.2212
  197BENZ    R3  791   4.165   0.647   2.982  0.0856 -0.0273 -0.0765
  198BENZ    R1  792   5.333   5.631   3.201  0.0798  0.0177 -0.0309
  198BENZ    R2  793   5.475   5.407   3.085  0.0007  0.0192 -0.1321
  198BENZ    R3  794   5.335   5.375   3.337 -0.0903 -0.0723 -0.1933
  199BENZ    R1  795   1.356   4.956   0.252  0.0511  0.2017  0.0430
  199BENZ    R2  796   1.458   5.217   0.328  0.3247  0.0665  0.1544
  199BENZ    R3  797   1.576   5.074   0.105 -0.0075  0.1526 -0.0854
  200BENZ    R1  798   5.330   3.616   5.734 -0.0837 -0.1805  0.1557
  200BENZ    R2  799   5.168   3.584   5.495  0.0526 -0.1441  0.0573
  200BENZ    R3  800   5.406   3.750   5.488 -0.0849  0.0704  0.2885
  201BENZ    R1  801   3.152   0.846   1.789  0.1091  0.1536  0.0424
  201BENZ    R2  802   3.209   0.995   1.547  0.2107  0.2498  0.1242
  201BENZ    R3  803   2.961   1.040   1.690 -0.0108 -0.0571 -0.1475
  202BENZ    R1  804   0.444   3.357   0.631  0.1178 -0.1697 -0.3409
  202BENZ    R2  805   0.720   3.405   0.708  0.1084 -0.4559 -0.1098
  202BENZ    R3  806   0.621   3.134   0.683 -0.2146 -0.3580  0.0408
  203BENZ    R1  807   1.159   0.791   3.089 -0.2706  0.0062 -0.2049
  203BENZ    R2  808   0.920   0.794   3.253 -0.0547  0.2526  0.1191
  203BENZ    R3  809   0.899   0.763   2.965 -0.4516 -0.0378  0.1713
  204BENZ    R1  810   0.432   2.746   0.769  0.3344  0.2095  0.0158
  204BENZ    R2  811   0.209   2.714   0.951  0.0389  0.2243 -0.3330
  204BENZ    R3  812   0.477   2.750   1.056 -0.0574 -0.1980  0.0927
  205BENZ    R1  813   5.362   0.749   1.467  0.3868 -0.0267 -0.1377
  205BENZ    R2  814   5.299   0.494   1.346  0.0847  0.0964 -0.2500
  205BENZ    R3  815   5.405   0.709   1.183 -0.0203  0.1615 -0.2329
  206BENZ    R1  816   5.115   0.290   0.866  0.1051 -0.0409 -0.5434
  206BENZ    R2  817   5.405   0.298   0.878  0.1029 -0.3501  0.0541
  206BENZ    R3  818   5.252   0.203   1.106 -0.4794 -0.1192 -0.2196
  207BENZ    R1  819   4.672   4.422   1.721 -0.0808 -0.0472 -0.0275
  207BENZ    R2  820   4.593   4.399   2.000 -0.1684  0.1541 -0.0343
  207BENZ    R3  821   4.687   4.653   1.896 -0.1828  0.0924 -0.2010
  208BENZ    R1  822   5.128   1.557   0.620 -0.0995  0.0329 -0.0066
  208BENZ    R2  823   5.371   1.611   0.472 -0.1663 -0.1851 -0.2011
  208BENZ    R3  824   5.189   1.404   0.381 -0.1814 -0.3664  0.2189
  209BENZ    R1  825   5.363   4.283   0.930  0.2338 -0.1128 -0.0072
  209BENZ    R2  826   5.444   4.013   0.860 -0.0892 -0.2452  0.1109
  209BENZ    R3  827   5.641   4.226   0.870  0.1047 -0.3892 -0.3781
  210BENZ    R1  828   2.589   1.375   2.702 -0.0716 -0.1109  0.0962
  210BENZ    R2  829   2.348   1.279   2.574  0.0435  0.0580 -0.2613
  210BENZ    R3  830   2.344   1.529   2.720 -0.1170 -0.1921  0.1855
  211BENZ    R1  831   2.493   4.716   0.264 -0.3648 -0.1326 -0.1137
  211BENZ    R2  832   2.264   4.551   0.196 -0.4883 -0.0458  0.0809
  211BENZ    R3  833   2.228   4.834   0.248 -0.3782 -0.0791  0.3571
  212BENZ    R1  834   0.127   4.375   1.032 -0.3300  0.1756 -0.3870
  212BENZ    R2  835   0.152   4.663   1.011 -0.0949  0.2048  0.1318
  212BENZ    R3  836   0.389   4.497   1.013 -0.2197  0.0221  0.0325
  213BENZ    R1  837   1.740   5.601   0.907  0.2715  0.0874  0.1042
  213BENZ    R2  838   1.521   5.757   0.800  0.1799  0.1429  0.3649
  213BENZ    R3  839   1.579   5.495   0.690  0.1666  0.2465  0.1032
  214BENZ    R1  840   0.404   2.554   0.116 -0.2504  0.0169 -0.1899
  214BENZ    R2  841   0.397   2.299   0.255  0.3589  0.0820 -0.0142
  214BENZ    R3  842   0.259   2.529   0.367 -0.4242 -0.2131 -0.3097
  215BENZ    R1  843   0.691   4.176   2.784  0.2928 -0.2410  0.4112
  215BENZ    R2  844   0.904   4.081   2.612  0.1573  0.0286  0.0826
  215BENZ    R3  845   0.854   4.365   2.638 -0.2468 -0.0325  0.0453
  216BENZ    R1  846   2.532   0.855   2.128  0.1372  0.1925 -0.2295
  216BENZ    R2  847   2.639   0.586   2.131 -0.2067  0.0512 -0.1712
  216BENZ    R3  848   2.546   0.709   2.377 -0.0494  0.2263 -0.1972
  217BENZ    R1  849   1.999   2.547   1.430 -0.2047 -0.0856  0.4529
  217BENZ    R2  850   2.161   2.385   1.252 -0.0016  0.4206  0.1582
  217BENZ    R3  851   1.972   2.258   1.430  0.1806 -0.1359 -0.0245
  218BENZ    R1  852   5.492   4.190   2.465  0.1266  0.1144 -0.1700
  218BENZ    R2  853   5.362   4.252   2.716  0.4203 -0.3947  0.1271
  218BENZ    R3  854   5.260   4.038   2.550  0.2456 -0.0797 -0.1859
  219BENZ    R1  855   4.709   3.714   2.945 -0.3345  0.4087 -0.1802
  219BENZ    R2  856   4.707   3.661   3.230 -0.0899  0.0917 -0.2318
  219BENZ    R3  857   4.959   3.706   3.093 -0.1856  0.0124 -0.4369
  220BENZ    R1  858   4.256   3.200   4.658 -0.2119 -0.0769 -0.0078
  220BENZ    R2  859   4.129   3.457   4.704 -0.1966 -0.0576 -0.0733
  220BENZ    R3  860   3.967   3.224   4.645 -0.2171 -0.0847  0.0877
  221BENZ    R1  861   3.005   1.292   2.742  0.2284  0.0229  0.0070
  221BENZ    R2  862   2.908   1.047   2.864 -0.1326  0.0024 -0.2995
  221BENZ    R3  863   3.191   1.079   2.807 -0.0196 -0.1637  0.1249
  222BENZ    R1  864   0.667   1.732   1.418 -0.1375 -0.2265 -0.0136
  222BENZ    R2  865   0.911   1.591   1.354 -0.0966 -0.2013  0.0858
  222BENZ    R3  866   0.904   1.774   1.579 -0.1169  0.0402 -0.1069
  223BENZ    R1  867   1.418   4.637   3.245  0.1661 -0.0404 -0.0640
  223BENZ    R2  868   1.604   4.675   3.026 -0.6586 -0.0357 -0.8204
  223BENZ    R3  869   1.630   4.444   3.199  0.3333  0.2386 -0.5367
  224BENZ    R1  870   1.619   2.587   0.985 -0.2081  0.0613 -0.2093
  224BENZ    R2  871   1.374   2.596   0.830 -0.5055 -0.3229  0.2136
  224BENZ    R3  872   1.429   2.803   1.026 -0.3746 -0.1138 -0.0380
  225BENZ    R1  873   1.617   3.042   5.028  0.3001  0.2622  0.1263
  225BENZ    R2  874   1.489   2.923   4.797 -0.2566  0.7538  0.1587
  225BENZ    R3  875   1.773   2.979   4.792 -0.1632  0.3082 -0.2055
  226BENZ    R1  876   1.173   4.406   4.742  0.1702  0.1812 -0.6509
  226BENZ    R2  877   0.999   4.233   4.588  0.1116 -0.0829 -0.2996
  226BENZ    R3  878   1.192   4.119   4.771 -0.1586  0.2158  0.1947
  227BENZ    R1  879   0.026   0.128   3.959  0.1242  0.2751  0.2794
  227BENZ    R2  880  -0.157   0.133   4.184  0.2800  0.0352  0.4162
  227BENZ    R3  881  -0.003  -0.106   4.128 -0.2440 -0.1595 -0.3441
  228BENZ    R1  882   3.626   0.886   0.829  0.0800  0.1725 -0.3874
  228BENZ    R2  883   3.718   1.138   0.939 -0.0632  0.0324  0.0794
  228BENZ    R3  884   3.883   0.901   0.963  0.0269  0.0537 -0.2700
  229BENZ    R1  885   2.928   2.407   2.018 -0.2263  0.1608 -0.1936
  229BENZ    R2  886   2.932   2.118   2.039 -0.0222  0.1610 -0.2140
  229BENZ    R3  887   2.684   2.262   2.079 -0.0572  0.0105  0.1521
  230BENZ    R1  888   4.767   2.930   1.483 -0.0941  0.0828 -0.5281
  230BENZ    R2  889   4.739   3.146   1.675  0.0492 -0.1238 -0.2697
  230BENZ    R3  890   4.535   3.104   1.473 -0.1723  0.0143 -0.0789
  231BENZ    R1  891   5.361   2.836   3.729  0.1733  0.2719 -0.1865
  231BENZ    R2  892   5.313   3.059   3.908  0.1297  0.0309  0.1098
  231BENZ    R3  893   5.089   2.917   3.791  0.1563  0.0898 -0.0141
  232BENZ    R1  894   2.570   2.506   3.305  0.0338  0.1910  0.0171
  232BENZ    R2  895   2.830   2.378   3.287  0.0366  0.1492  0.3047
  232BENZ    R3  896   2.654   2.382   3.057  0.0356 -0.3744  0.2845
  233BENZ    R1  897   3.689   3.227   3.622  0.0054 -0.1933  0.0242
  233BENZ    R2  898   3.418   3.222   3.726 -0.1860 -0.0396 -0.4385
  233BENZ    R3  899   3.609   3.415   3.827 -0.2028 -0.2310 -0.0195
  234BENZ    R1  900   0.275   4.707   1.720  0.1439 -0.0866  0.3968
  234BENZ    R2  901   0.216   4.770   1.443  0.1901 -0.0744  0.3897
  234BENZ    R3  902   0.301   4.502   1.515 -0.2453 -0.2019  0.4554
  235BENZ    R1  903   1.229   2.365   1.919  0.2953  0.1543 -0.0389
  235BENZ    R2  904   1.471   2.279   2.053  0.3198  0.0796 -0.1301
  235BENZ    R3  905   1.380   2.141   1.815  0.0825 -0.0172  0.0129
  236BENZ    R1  906   0.842   2.829   1.073  0.2372  0.4196 -0.2966
  236BENZ    R2  907   1.083   2.672   1.039  0.1684  0.2786 -0.1484
  236BENZ    R3  908   1.100   2.960   1.070  0.3312  0.2523  0.0250
  237BENZ    R1  909   5.026   3.739   2.606 -0.0093 -0.1977 -0.0615
  237BENZ    R2  910   4.937   3.911   2.821 -0.0998 -0.1606 -0.1279
  237BENZ    R3  911   5.210   3.812   2.818  0.0018  0.1115 -0.1729
  238BENZ    R1  912   1.286   5.378   3.292 -0.0947  0.2230  0.2063
  238BENZ    R2  913   1.503   5.258   3.443  0.1145 -0.0294 -0.2723
  238BENZ    R3  914   1.448   5.169   3.173 -0.6011  0.0222 -0.1634
  239BENZ    R1  915   1.805   0.806   2.170  0.1479 -0.1754  0.0424
  239BENZ    R2  916   1.932   0.577   2.044  0.2376 -0.0389 -0.1197
  239BENZ    R3  917   1.948   0.839   1.920 -0.0701  0.0121 -0.0617
  240BENZ    R1  918   4.914   0.060   3.511 -0.2960  0.2240 -0.4447
  240BENZ    R2  919   5.011  -0.001   3.244  0.0595 -0.0131 -0.2692
  240BENZ    R3  920   4.979  -0.214   3.439 -0.3540  0.1333 -0.1662
  241BENZ    R1  921   1.317   1.647   1.060 -0.3850 -0.0710 -0.2527
  241BENZ    R2  922   1.067   1.787   1.104 -0.3022 -0.0768  0.3155
  241BENZ    R3  923   1.252   1.748   1.324  0.2570  0.0230 -0.1135
  242BENZ    R1  924   2.100   2.124   5.116 -0.5221  0.3961 -0.1009
  242BENZ    R2  925   2.256   2.021   4.894 -0.0730 -0.0712  0.4041
  242BENZ    R3  926   2.271   2.302   4.963  0.2948 -0.0433  0.2362
  243BENZ    R1  927   2.734   5.786   5.435 -0.0346  0.2090  0.1532
  243BENZ    R2  928   2.486   5.756   5.583 -0.2173  0.6585 -0.0449
  243BENZ    R3  929   2.691   5.938   5.678 -0.0796  0.4985 -0.0310
  244BENZ    R1  930   0.836   1.282   1.469  0.0385  0.1516 -0.1942
  244BENZ    R2  931   0.770   1.004   1.516 -0.1008  0.1556 -0.3585
  244BENZ    R3  932   0.637   1.212   1.668 -0.0734  0.1374 -0.3096
  245BENZ    R1  933   2.218   1.249   5.064  0.3030  0.0558  0.0500
  245BENZ    R2  934   2.012   1.207   5.264  0.3118 -0.6027 -0.0564
  245BENZ    R3  935   2.246   1.364   5.329  0.1297 -0.4710  0.3134
  246BENZ    R1  936   0.335   4.040   2.307  0.0526 -0.2360  0.0423
  246BENZ    R2  937   0.291   3.896   2.060  0.4491 -0.0388 -0.1527
  246BENZ    R3  938   0.562   3.942   2.154  0.3340  0.5003 -0.0545
  247BENZ    R1  939   4.416   4.074   4.376 -0.1547  0.0028  0.4722
  247BENZ    R2  940   4.491   4.351   4.417  0.1920 -0.0588  0.2898
  247BENZ    R3  941   4.684   4.140   4.464  0.0266 -0.2494  0.1313
  248BENZ    R1  942   1.850   3.224   3.637  0.0309  0.0018 -0.0338
  248BENZ    R2  943   1.976   3.396   3.833 -0.1485 -0.0890  0.1656
  248BENZ    R3  944   1.749   3.492   3.679  0.1284  0.0598 -0.1631
  249BENZ    R1  945   3.844   4.198   2.502  0.3492 -0.1507  0.2123
  249BENZ    R2  946   3.712   4.064   2.282  0.2166  0.2493  0.0375
  249BENZ    R3  947   3.990   4.142   2.258  0.3604 -0.1742  0.2243
  250BENZ    R1  948   3.975   2.226   3.685  0.0280 -0.0210 -0.0301
  250BENZ    R2  949   4.024   2.271   3.967  0.0780  0.0611 -0.0514
  250BENZ    R3  950   4.214   2.119   3.809  0.0942  0.0904 -0.0602
  251BENZ    R1  951   5.566   4.316   1.910  0.3116 -0.1386 -0.2290
  251BENZ    R2  952   5.549   4.434   1.645 -0.0547  0.1069 -0.1036
  251BENZ    R3  953   5.372   4.216   1.719  0.1014 -0.0148 -0.0856
  252BENZ    R1  954   1.801   1.349   4.456 -0.1779 -0.0405  0.0557
  252BENZ    R2  955   1.947   1.589   4.382 -0.0453 -0.1288  0.0262
  252BENZ    R3  956   1.768   1.463   4.191 -0.4124  0.1602  0.1682
  253BENZ    R1  957   4.392   3.468   5.641 -0.0749 -0.1139  0.0620
  253BENZ    R2  958   4.109   3.434   5.696 -0.0260 -0.2689  0.2264
  253BENZ    R3  959   4.279   3.202   5.659  0.0833 -0.1769  0.1443
  254BENZ    R1  960   3.422   4.636   5.002 -0.1548 -0.2666  0.1209
  254BENZ    R2  961   3.474   4.578   5.281 -0.1106 -0.2085  0.1248
  254BENZ    R3  962   3.624   4.441   5.074 -0.0628 -0.1682  0.1323
  255BENZ    R1  963   5.334   0.285   1.605  0.0311 -0.1516 -0.1390
  255BENZ    R2  964   5.357  -0.004   1.626  0.1172 -0.1157  0.3850
  255BENZ    R3  965   5.568   0.149   1.500  0.1861 -0.2607  0.3223
  256BENZ    R1  966   1.768   4.934   4.283 -0.1411  0.0346 -0.0900
  256BENZ    R2  967   1.971   5.138   4.241 -0.3406  0.2129 -0.2092
  256BENZ    R3  968   1.971   4.980   4.484  0.2137 -0.1111 -0.4029
  257BENZ    R1  969   2.881   2.663   5.085 -0.0943 -0.1417 -0.0686
  257BENZ    R2  970   2.674   2.797   5.237  0.0005 -0.0546 -0.0150
  257BENZ    R3  971   2.766   2.533   5.317 -0.0593 -0.0752 -0.0136
  258BENZ    R1  972   4.887   0.270   0.336  0.2246 -0.2021 -0.0132
  258BENZ    R2  973   4.901   0.427   0.579 -0.1851 -0.1503 -0.0160
  258BENZ    R3  974   5.138   0.292   0.480  0.0140 -0.0826  0.3481
  259BENZ    R1  975   2.747   4.840   3.721 -0.1142 -0.1617 -0.1163
  259BENZ    R2  976   2.868   4.729   3.482  0.3263 -0.2370  0.1320
  259BENZ    R3  977   3.004   4.708   3.737  0.0932  0.2666  0.3112
  260BENZ    R1  978   3.109   1.876   0.609 -0.1205 -0.1891  0.0324
  260BENZ    R2  979   3.352   1.819   0.757 -0.1720 -0.2952  0.0771
  260BENZ    R3  980   3.094   1.761   0.875 -0.2247 -0.0352  0.0942
  261BENZ    R1  981   2.474   5.333   4.856  0.0571  0.1741  0.1256
  261BENZ    R2  982   2.445   5.291   5.141 -0.3202  0.0273  0.0718
  261BENZ    R3  983   2.345   5.093   4.955  0.3030 -0.0872 -0.1665
  262BENZ    R1  984   2.580   1.203   4.666  0.0832  0.2113  0.1563
  262BENZ    R2  985   2.722   1.438   4.572  0.2047 -0.0137 -0.2493
  262BENZ    R3  986   2.466   1.367   4.456  0.1614 -0.0747 -0.1183
  263BENZ    R1  987   0.219   3.872   4.941  0.1039 -0.1455  0.1232
  263BENZ    R2  988   0.165   3.831   5.223  0.1881 -0.0131  0.1595
  263BENZ    R3  989  -0.047   3.921   5.047  0.1515 -0.0328  0.1931
  264BENZ    R1  990   4.572   1.042   2.272  0.1671 -0.0243 -0.0999
  264BENZ    R2  991   4.738   0.811   2.214  0.1100 -0.0225 -0.2794
  264BENZ    R3  992   4.500   0.862   2.056  0.1119  0.1498 -0.2291
  265BENZ    R1  993   4.449   5.242   2.971 -0.0659  0.0654  0.3682
  265BENZ    R2  994   4.319   5.403   3.174 -0.4404  0.1568  0.0695
  265BENZ    R3  995   4.160   5.275   2.968 -0.0602  0.1867 -0.2540
  266BENZ    R1  996   2.188   2.402   0.222  0.0268  0.0571  0.1441
  266BENZ    R2  997   1.913   2.431   0.133  0.1226  0.2842 -0.0893
  266BENZ    R3  998   1.972   2.286   0.377 -0.1847  0.0416 -0.1538
  267BENZ    R1  999   4.748   1.915   5.040  0.3465 -0.1415  0.0557
  267BENZ    R2 1000   4.738   1.948   4.752 -0.2528  0.2501  0.1036
  267BENZ    R3 1001   4.959   1.806   4.874 -0.1755 -0.2588 -0.5719
  268BENZ    R1 1002   3.519   1.136   2.897  0.0030 -0.3386  0.1398
  268BENZ    R2 1003   3.560   0.911   2.718  0.5274 -0.1203 -0.0346
  268BENZ    R3 1004   3.775   1.099   2.766  0.0042  0.5511 -0.1714
  269BENZ    R1 1005   4.463   1.253   5.185 -0.0771 -0.0557 -0.1528
  269BENZ    R2 1006   4.511   1.332   5.459 -0.0972 -0.1673 -0.1166
  269BENZ    R3 1007   4.261   1.403   5.329 -0.0515 -0.0384 -0.1350
  270BENZ    R1 1008   3.636   2.510   5.583 -0.1272  0.4802  0.1274
  270BENZ    R2 1009   3.417   2.699   5.596 -0.4863  0.1173 -0.2933
  270BENZ    R3 1010   3.639   2.746   5.416 -0.5086  0.1993 -0.2998
  271BENZ    R1 1011   1.847   2.955   0.626 -0.2537  0.1502 -0.0372
  271BENZ    R2 1012   1.921   3.114   0.394 -0.0117  0.0036 -0.0637
  271BENZ    R3 1013   1.794   2.855   0.359  0.0656 -0.0387 -0.0349
  272BENZ    R1 1014   3.475   5.169   0.450  0.0944  0.1432 -0.1771
  272BENZ    R2 1015   3.643   5.146   0.685  0.4570  0.7158 -0.3575
  272BENZ    R3 1016   3.701   4.987   0.450  0.2853  0.3748 -0.1774
  273BENZ    R1 1017   5.179   5.499   1.409 -0.0858  0.1431  0.1004
  273BENZ    R2 1018   5.400   5.527   1.223  0.0165 -0.3777  0.1288
  273BENZ    R3 1019   5.449   5.440   1.496 -0.1931 -0.1742  0.2350
  274BENZ    R1 1020   0.811   3.144   4.286 -0.0223  0.1658  0.0724
  274BENZ    R2 1021   0.626   3.045   4.485  0.0722  0.0720  0.1141
  274BENZ    R3 1022   0.557   3.031   4.204  0.1493 -0.2651  0.1068
  275BENZ    R1 1023   4.045   0.182   5.439  0.1267  0.0939 -0.0573
  275BENZ    R2 1024   4.111   0.451   5.525  0.5232  0.0087 -0.0799
  275BENZ    R3 1025   4.158   0.226   5.702 -0.1907 -0.0182  0.1036
  276BENZ    R1 1026   4.407   3.054   0.791 -0.0751  0.1006 -0.3275
  276BENZ    R2 1027   4.569   3.263   0.910 -0.3660  0.2205 -0.1292
  276BENZ    R3 1028   4.696   3.040   0.775 -0.0301  0.2005  0.2029
  277BENZ    R1 1029   2.095   2.073   1.153  0.1983 -0.4222  0.2178
  277BENZ    R2 1030   1.961   1.847   1.031  0.0549 -0.3390  0.2188
  277BENZ    R3 1031   1.907   1.914   1.307  0.0466 -0.2639  0.1992
  278BENZ    R1 1032   4.005   4.588   5.045 -0.0827  0.0444 -0.0507
  278BENZ    R2 1033   3.988   4.482   4.776  0.2389  0.2279 -0.1494
  278BENZ    R3 1034   4.237   4.597   4.870  0.1780  0.0252  0.2828
  279BENZ    R1 1035   3.184   2.213   4.131  0.1193  0.0384  0.0554
  279BENZ    R2 1036   3.102   2.424   3.950 -0.1071 -0.1845 -0.1100
  279BENZ    R3 1037   2.958   2.381   4.198  0.0512 -0.0345  0.0107
  280BENZ    R1 1038   0.399   0.795   0.406 -0.1175 -0.1366 -0.0194
  280BENZ    R2 1039   0.435   0.682   0.671  0.1200  0.1051  0.0560
  280BENZ    R3 1040   0.314   0.944   0.640 -0.1427 -0.0293 -0.0959
  281BENZ    R1 1041   4.404   0.506   0.967  0.0230  0.3357  0.0627
  281BENZ    R2 1042   4.219   0.638   0.787 -0.1493  0.4287  0.3039
  281BENZ    R3 1043   4.431   0.790   0.914  0.1844  0.2968 -0.0746
  282BENZ    R1 1044   5.663   5.671   5.378  0.4444 -0.0143  0.5981
  282BENZ    R2 1045   5.637   5.949   5.301  0.0018 -0.1798  0.0888
  282BENZ    R3 1046   5.899   5.837   5.354  0.1807  0.3434  0.3798
  283BENZ    R1 1047   1.370   2.681   5.007  0.2259 -0.0209  0.1179
  283BENZ    R2 1048   1.524   2.448   5.086 -0.0126 -0.2288 -0.0160
  283BENZ    R3 1049   1.471   2.498   4.806  0.0065 -0.0311  0.0144
  284BENZ    R1 1050   1.260   0.698   5.163  0.1427  0.3531 -0.0188
  284BENZ    R2 1051   1.229   0.463   5.331  0.3423  0.3287 -0.0134
  284BENZ    R3 1052   1.123   0.719   5.418  0.1941  0.2576  0.0174
  285BENZ    R1 1053   3.435   4.216   1.195 -0.1865 -0.1180 -0.5516
  285BENZ    R2 1054   3.638   4.012   1.229 -0.1994 -0.0511  0.0305
  285BENZ    R3 1055   3.611   4.150   0.975  0.4097 -0.1329 -0.0941
  286BENZ    R1 1056   0.042   4.093   1.926 -0.0386  0.0079  0.1261
  286BENZ    R2 1057   0.181   4.336   2.005 -0.1515  0.1649 -0.1442
  286BENZ    R3 1058   0.089   4.303   1.731 -0.0825 -0.2121 -0.1280
  287BENZ    R1 1059   2.514   3.691   1.658 -0.0247  0.1669  0.1092
  287BENZ    R2 1060   2.702   3.473   1.697  0.2223  0.3760  0.1107
  287BENZ    R3 1061   2.608   3.537   1.430 -0.2386 -0.0429  0.1582
  288BENZ    R1 1062   1.869   5.762   2.224  0.2276 -0.2944  0.1300
  288BENZ    R2 1063   2.158   5.750   2.198  0.2459  0.1322  0.0642
  288BENZ    R3 1064   2.012   5.978   2.093 -0.1025 -0.0109  0.2211
  289BENZ    R1 1065   2.919   5.081   1.340  0.1014  0.3227 -0.0779
  289BENZ    R2 1066   3.113   4.902   1.459  0.0396  0.3274  0.0323
  289BENZ    R3 1067   3.054   4.885   1.176 -0.3252 -0.1652  0.1258
  290BENZ    R1 1068   5.263   0.964   3.855 -0.3520  0.0634 -0.2737
  290BENZ    R2 1069   5.531   0.875   3.790 -0.2676  0.2021 -0.1240
  290BENZ    R3 1070   5.315   0.682   3.813 -0.1034  0.0423  0.1308
  291BENZ    R1 1071   0.067   0.665   0.904 -0.1007  0.2142 -0.3893
  291BENZ    R2 1072  -0.217   0.615   0.933 -0.0206 -0.1994 -0.2482
  291BENZ    R3 1073  -0.056   0.444   0.762  0.1746 -0.0732 -0.1942
  292BENZ    R1 1074   2.111   3.851   0.319  0.1104 -0.3763 -0.1828
  292BENZ    R2 1075   2.084   3.694   0.561  0.2401 -0.0282  0.0661
  292BENZ    R3 1076   1.949   3.950   0.538  0.1512 -0.1003 -0.2727
  293BENZ    R1 1077   5.008   3.773   5.235  0.0472 -0.3478 -0.2848
  293BENZ    R2 1078   4.721   3.735   5.252  0.0032 -0.1510 -0.5189
  293BENZ    R3 1079   4.835   3.997   5.298  0.1651 -0.2608 -0.2673
  294BENZ    R1 1080   4.861   3.605   1.785  0.0044 -0.0729 -0.0535
  294BENZ    R2 1081   4.851   3.794   1.565 -0.2166  0.0412  0.0512
  294BENZ    R3 1082   4.609   3.728   1.711 -0.1253 -0.2546  0.0762
  295BENZ    R1 1083   1.780   1.357   4.834  0.4736  0.0541 -0.0567
  295BENZ    R2 1084   1.561   1.544   4.865  0.3518 -0.0858 -0.0603
  295BENZ    R3 1085   1.741   1.494   5.087  0.2751 -0.0999 -0.0006
  296BENZ    R1 1086   2.380   1.809   3.590  0.3611  0.0677 -0.3226
  296BENZ    R2 1087   2.174   1.970   3.714 -0.0353 -0.1838 -0.6295
  296BENZ    R3 1088   2.412   1.899   3.864 -0.1654  0.1115 -0.2661
  297BENZ    R1 1089   0.604   5.641   3.255  0.1853  0.1264  0.0094
  297BENZ    R2 1090   0.726   5.711   3.002  0.0674 -0.3761 -0.1987
  297BENZ    R3 1091   0.893   5.657   3.233  0.1701  0.2556 -0.1075
  298BENZ    R1 1092   1.544   5.323   5.398  0.1495 -0.2680  0.3157
  298BENZ    R2 1093   1.744   5.434   5.576  0.1356  0.3659 -0.0376
  298BENZ    R3 1094   1.539   5.605   5.462 -0.1205 -0.1093 -0.3248
  299BENZ    R1 1095   5.081   5.518   2.867  0.0725  0.0313 -0.1431
  299BENZ    R2 1096   5.256   5.750   2.880  0.0321  0.0507  0.1114
  299BENZ    R3 1097   5.060   5.727   2.666 -0.0441  0.3098  0.1498
  300BENZ    R1 1098   1.964   5.493   1.897  0.0275  0.0651  0.3567
  300BENZ    R2 1099   1.710   5.426   1.776  0.2261 -0.6348  0.2829
  300BENZ    R3 1100   1.723   5.493   2.057 -0.1381  0.2868  0.1148
  301BENZ    R1 1101   3.053   0.827   3.282  0.0606  0.2700 -0.3880
  301BENZ    R2 1102   3.318   0.827   3.400  0.1010  0.0218 -0.4725
  301BENZ    R3 1103   3.209   0.583   3.289 -0.4318 -0.0522  0.1581
  302BENZ    R1 1104   3.423   4.083   3.858  0.3068  0.2611  0.0283
  302BENZ    R2 1105   3.260   4.158   3.631  0.0462  0.0002  0.1220
  302BENZ    R3 1106   3.547   4.133   3.601  0.0081 -0.1013 -0.1971
  303BENZ    R1 1107   2.133   0.778   4.402 -0.4101 -0.0070  0.0758
  303BENZ    R2 1108   2.260   0.525   4.341 -0.0552  0.1535  0.1231
  303BENZ    R3 1109   1.983   0.570   4.266 -0.1150 -0.2339  0.0882
  304BENZ    R1 1110   3.366   0.484   0.516 -0.0513 -0.1332 -0.2875
  304BENZ    R2 1111   3.547   0.278   0.611  0.0735  0.1140  0.0260
  304BENZ    R3 1112   3.263   0.223   0.590  0.1003 -0.0776  0.1447
  305BENZ    R1 1113   5.689   4.182   3.690 -0.1354 -0.2312 -0.0599
  305BENZ    R2 1114   5.977   4.150   3.709 -0.0854  0.0876 -0.2120
  305BENZ    R3 1115   5.849   4.162   3.449 -0.1725  0.4290 -0.1580
  306BENZ    R1 1116   0.696   3.007   2.326 -0.0073  0.0965  0.1509
  306BENZ    R2 1117   0.770   3.143   2.571 -0.1641  0.2284  0.1269
  306BENZ    R3 1118   0.837   3.259   2.314  0.1535  0.0055  0.1036
  307BENZ    R1 1119   2.241   2.306   5.596  0.1098  0.0257 -0.2703
  307BENZ    R2 1120   2.373   2.157   5.807 -0.1202  0.1171 -0.0557
  307BENZ    R3 1121   2.530   2.305   5.613  0.1132 -0.3568 -0.2476
  308BENZ    R1 1122   3.092   5.078   1.923  0.1236  0.0111  0.4137
  308BENZ    R2 1123   3.168   5.338   1.820  0.0564 -0.0499  0.2047
  308BENZ    R3 1124   3.180   5.286   2.105  0.3099  0.1013  0.2247
  309BENZ    R1 1125   2.903   2.561   1.005 -0.5405 -0.1299  0.1815
  309BENZ    R2 1126   2.970   2.279   0.985 -0.1082 -0.0115 -0.2036
  309BENZ    R3 1127   3.047   2.431   1.220 -0.0185 -0.1335 -0.1534
  310BENZ    R1 1128   1.331   4.929   2.869 -0.1808  0.0417  0.4124
  310BENZ    R2 1129   1.281   5.194   2.762 -0.2090 -0.1848 -0.1691
  310BENZ    R3 1130   1.059   5.025   2.839 -0.2003 -0.1289 -0.0175
  311BENZ    R1 1131   4.213   2.641   0.522 -0.1120  0.0311  0.0536
  311BENZ    R2 1132   3.974   2.788   0.452 -0.0872  0.0554  0.0197
  311BENZ    R3 1133   4.227   2.926   0.473 -0.0573  0.0117 -0.0479
  312BENZ    R1 1134   2.072   0.227   5.099  0.2392 -0.0669 -0.1439
  312BENZ    R2 1135   2.292   0.282   5.281  0.0791 -0.2554  0.1138
  312BENZ    R3 1136   2.036   0.414   5.318  0.2010  0.1256 -0.3117
  313BENZ    R1 1137   0.534   5.270   5.359  0.0363 -0.4243  0.0685
  313BENZ    R2 1138   0.330   5.111   5.228  0.2043 -0.4392 -0.1812
  313BENZ    R3 1139   0.442   5.342   5.094  0.2346 -0.3333  0.0227
  314BENZ    R1 1140   1.557   5.564   1.493 -0.0338 -0.1068 -0.1896
  314BENZ    R2 1141   1.831   5.486   1.438 -0.0320 -0.1553 -0.1141
  314BENZ    R3 1142   1.626   5.284   1.470 -0.0592 -0.1225 -0.0795
  315BENZ    R1 1143   0.199   5.417   4.178 -0.1761 -0.0512 -0.0517
  315BENZ    R2 1144   0.370   5.183   4.187  0.0480  0.1160  0.2925
  315BENZ    R3 1145   0.376   5.359   3.956  0.1071 -0.0470  0.1676
  316BENZ    R1 1146   2.308   1.678   1.009 -0.1250 -0.1284  0.1182
  316BENZ    R2 1147   2.262   1.765   1.282  0.0055  0.4079 -0.0184
  316BENZ    R3 1148   2.525   1.795   1.162  0.0244 -0.0840 -0.1217
  317BENZ    R1 1149   4.199   2.397   5.411 -0.0923  0.3889 -0.1462
  317BENZ    R2 1150   4.451   2.506   5.319  0.0391  0.0774 -0.1666
  317BENZ    R3 1151   4.444   2.247   5.449 -0.2321  0.2195  0.1156
  318BENZ    R1 1152   1.861   3.683   1.799 -0.3087  0.1284  0.3263
  318BENZ    R2 1153   1.651   3.849   1.687 -0.3236 -0.0019  0.1568
  318BENZ    R3 1154   1.737   3.610   1.547 -0.0801  0.0352  0.2379
  319BENZ    R1 1155   2.154   0.187   3.728  0.2151  0.1228 -0.0346
  319BENZ    R2 1156   2.249   0.000   3.928 -0.1042  0.0734  0.0768
  319BENZ    R3 1157   2.279  -0.062   3.646  0.3687  0.1538  0.1008
  320BENZ    R1 1158   0.558   0.678   5.516 -0.0978  0.1147  0.0235
  320BENZ    R2 1159   0.623   0.396   5.501 -0.4887  0.0161  0.0627
  320BENZ    R3 1160   0.689   0.547   5.739 -0.3787 -0.0686  0.0870
  321BENZ    R1 1161   5.678   4.540   5.639 -0.0195  0.1706 -0.2383
  321BENZ    R2 1162   5.749   4.350   5.432 -0.2215  0.0090 -0.1633
  321BENZ    R3 1163   5.722   4.261   5.706  0.0381  0.2203 -0.0648
  322BENZ    R1 1164   2.870   1.641   4.884  0.1392  0.1381  0.5827
  322BENZ    R2 1165   2.695   1.419   4.949  0.1254 -0.0804 -0.1188
  322BENZ    R3 1166   2.598   1.691   4.971 -0.0857 -0.1691  0.0987
  323BENZ    R1 1167   1.849   5.730   3.579  0.0883 -0.3547  0.0847
  323BENZ    R2 1168   1.848   5.668   3.296  0.1238  0.1429 -0.0334
  323BENZ    R3 1169   2.020   5.878   3.397 -0.0577  0.1259  0.3237
  324BENZ    R1 1170   5.734   2.343   2.692 -0.1558  0.5905 -0.3401
  324BENZ    R2 1171   5.783   2.122   2.511  0.0118  0.3453 -0.0066
  324BENZ    R3 1172   5.963   2.349   2.514 -0.0334  0.3859 -0.1935
  325BENZ    R1 1173   5.760   3.561   1.728 -0.0197 -0.1996 -0.0592
  325BENZ    R2 1174   5.473   3.521   1.735 -0.0439  0.0000  0.2780
  325BENZ    R3 1175   5.638   3.427   1.954  0.0906  0.2904  0.3064
  326BENZ    R1 1176   2.222   1.018   2.282 -0.2013  0.1566  0.0460
  326BENZ    R2 1177   2.254   0.896   2.543  0.4974  0.3450  0.0685
  326BENZ    R3 1178   2.214   0.729   2.310  0.6280  0.1242  0.2010
  327BENZ    R1 1179   1.780   1.587   1.171  0.0040 -0.0852 -0.1607
  327BENZ    R2 1180   1.530   1.472   1.262 -0.0135  0.0785  0.0064
  327BENZ    R3 1181   1.675   1.350   1.041 -0.2736  0.0219 -0.1371
  328BENZ    R1 1182   0.849   0.958   4.297  0.3197  0.1823 -0.1418
  328BENZ    R2 1183   0.956   1.089   4.533  0.0935 -0.4274  0.3255
  328BENZ    R3 1184   1.093   0.859   4.420  0.0045 -0.3634  0.0818
  329BENZ    R1 1185   4.333   3.812   5.720 -0.2673 -0.0470 -0.2484
  329BENZ    R2 1186   4.131   3.999   5.629 -0.2144  0.0846 -0.1009
  329BENZ    R3 1187   4.158   3.942   5.912 -0.3452 -0.2829 -0.1571
  330BENZ    R1 1188   3.761   2.855   1.481 -0.0077  0.1184  0.0775
  330BENZ    R2 1189   3.771   2.687   1.245  0.1251  0.0023  0.1647
  330BENZ    R3 1190   3.587   2.624   1.459  0.2812 -0.1244  0.2645
  331BENZ    R1 1191   4.912   4.096   3.241 -0.3232  0.0277 -0.1383
  331BENZ    R2 1192   5.037   4.139   3.499 -0.2166 -0.0011 -0.1843
  331BENZ    R3 1193   4.849   3.921   3.463 -0.4007  0.1361 -0.0739
  332BENZ    R1 1194   1.899   5.643   5.350  0.1322 -0.3947  0.2724
  332BENZ    R2 1195   2.157   5.679   5.224 -0.0461  0.0716  0.0154
  332BENZ    R3 1196   2.052   5.884   5.400 -0.1730 -0.1915  0.2548
  333BENZ    R1 1197   1.083   3.908   3.823  0.1298 -0.0046  0.1498
  333BENZ    R2 1198   1.295   3.907   4.021  0.4049 -0.0752 -0.1369
  333BENZ    R3 1199   1.349   3.997   3.751  0.1066 -0.2399 -0.2569
  334BENZ    R1 1200   4.147   1.831   4.186  0.1654  0.0288 -0.3081
  334BENZ    R2 1201   4.155   1.580   4.040  0.0697 -0.1018 -0.0951
  334BENZ    R3 1202   3.981   1.608   4.270 -0.1016  0.2406 -0.2577
  335BENZ    R1 1203   3.990   1.594   1.057 -0.3333 -0.2344  0.1912
  335BENZ    R2 1204   3.981   1.348   0.904 -0.1598 -0.0690 -0.0961
  335BENZ    R3 1205   3.787   1.558   0.853 -0.1528 -0.0460 -0.0290
  336BENZ    R1 1206   1.956   1.905   4.170  0.0414  0.1229 -0.0809
  336BENZ    R2 1207   2.234   1.827   4.151 -0.0706 -0.2392 -0.3256
  336BENZ    R3 1208   2.052   1.771   3.932 -0.3181  0.0822 -0.2096
  337BENZ    R1 1209   4.266   4.926   5.501  0.2847 -0.0013 -0.0858
  337BENZ    R2 1210   4.244   4.834   5.227  0.2584 -0.0263 -0.0753
  337BENZ    R3 1211   4.007   4.917   5.372  0.2898  0.1210 -0.1062
  338BENZ    R1 1212   3.833   4.042   3.823  0.1681 -0.1568  0.0282
  338BENZ    R2 1213   3.899   3.820   3.650 -0.1244 -0.1896 -0.0470
  338BENZ    R3 1214   3.670   3.802   3.827 -0.0178 -0.0323  0.1100
  339BENZ    R1 1215   2.076   3.774   4.612 -0.3206  0.1326 -0.1066
  339BENZ    R2 1216   1.848   3.837   4.779 -0.0892  0.0447  0.2532
  339BENZ    R3 1217   2.081   3.708   4.894  0.0349 -0.1209 -0.1649
  340BENZ    R1 1218   1.836   4.675   4.011 -0.0960  0.2034  0.0033
  340BENZ    R2 1219   2.015   4.601   4.227 -0.1047 -0.0875 -0.0849
  340BENZ    R3 1220   1.806   4.418   4.142 -0.5567  0.3108  0.1240
  341BENZ    R1 1221   4.400   0.901   4.256 -0.1146 -0.1992 -0.0965
  341BENZ    R2 1222   4.185   0.772   4.402 -0.1106  0.0025  0.0927
  341BENZ    R3 1223   4.206   0.738   4.114 -0.1772 -0.3182  0.1221
  342BENZ    R1 1224   2.195   4.150   1.003  0.0238  0.1040  0.0136
  342BENZ    R2 1225   1.977   4.338   1.041 -0.0307  0.1567 -0.4875
  342BENZ    R3 1226   2.058   4.262   0.773 -0.0057 -0.5354 -0.3031
  343BENZ    R1 1227   1.094   1.867   4.282  0.0463 -0.0658  0.1123
  343BENZ    R2 1228   1.173   1.998   4.528  0.2578 -0.0735  0.0500
  343BENZ    R3 1229   0.894   1.938   4.479  0.1794  0.1879  0.1600
  344BENZ    R1 1230   4.785   1.580   3.042 -0.3637  0.0249 -0.2359
  344BENZ    R2 1231   4.691   1.819   3.176 -0.0483  0.0655 -0.0781
  344BENZ    R3 1232   4.971   1.794   3.104 -0.0926 -0.2261 -0.1613
  345BENZ    R1 1233   4.449   3.418   4.490  0.1701 -0.4730  0.2158
  345BENZ    R2 1234   4.524   3.445   4.211 -0.3185 -0.0954  0.1069
  345BENZ    R3 1235   4.701   3.309   4.396  0.4866  0.4859 -0.1793
  346BENZ    R1 1236   2.167   4.737   2.048 -0.0297  0.2767 -0.1824
  346BENZ    R2 1237   1.987   4.893   2.214  0.0814 -0.0057  0.2166
  346BENZ    R3 1238   2.074   4.630   2.300 -0.1087 -0.3071 -0.4440
  347BENZ    R1 1239   4.544   4.933   3.077 -0.3625 -0.0770 -0.2480
  347BENZ    R2 1240   4.530   4.644   3.072  0.1261 -0.1169  0.0063
  347BENZ    R3 1241   4.722   4.776   3.244 -0.1161  0.3655 -0.0765
  348BENZ    R1 1242   4.395   0.618   1.780  0.2445 -0.0878  0.0451
  348BENZ    R2 1243   4.468   0.521   1.516 -0.1115  0.5754 -0.3233
  348BENZ    R3 1244   4.670   0.542   1.723  0.0979 -0.3306 -0.3907
  349BENZ    R1 1245   2.926   3.513   4.136 -0.1258 -0.2537 -0.1552
  349BENZ    R2 1246   2.724   3.340   4.021 -0.3704 -0.0955  0.0257
  349BENZ    R3 1247   2.645   3.573   4.174 -0.0470  0.1161 -0.1192
  350BENZ    R1 1248   3.895   2.007   2.538 -0.1772 -0.1794  0.2349
  350BENZ    R2 1249   3.731   2.242   2.581  0.0044 -0.0216  0.0872
  350BENZ    R3 1250   3.649   1.986   2.690 -0.1579  0.1228  0.3147
  351BENZ    R1 1251   0.663   0.227   3.452 -0.0005 -0.1698  0.2543
  351BENZ    R2 1252   0.926   0.123   3.516  0.0731 -0.1499 -0.0059
  351BENZ    R3 1253   0.844   0.381   3.619  0.1169 -0.1998  0.1565
  352BENZ    R1 1254   1.391   3.977   0.981  0.3374 -0.3599  0.1330
  352BENZ    R2 1255   1.152   3.907   0.832  0.0482  0.2917  0.2542
  352BENZ    R3 1256   1.333   3.699   0.923 -0.3722 -0.2051  0.0070
  353BENZ    R1 1257   0.774   3.533   4.683  0.1423  0.1005  0.1066
  353BENZ    R2 1258   0.584   3.326   4.753 -0.2165  0.4481  0.1943
  353BENZ    R3 1259   0.617   3.405   4.476  0.3130 -0.0819  0.0873
  354BENZ    R1 1260   1.680   1.141   2.359  0.3710 -0.0108 -0.2504
  354BENZ    R2 1261   1.545   1.014   2.136  0.0597 -0.2007  0.0350
  354BENZ    R3 1262   1.444   1.263   2.244  0.2517 -0.0720 -0.0745
  355BENZ    R1 1263   2.699   1.916   5.748  0.0562  0.1346  0.4175
  355BENZ    R2 1264   2.771   2.014   6.011  0.0485 -0.1052  0.5115
  355BENZ    R3 1265   2.593   1.787   5.985 -0.0019 -0.0431  0.2969
  356BENZ    R1 1266   4.194   0.702   2.040  0.0837 -0.1054  0.0029
  356BENZ    R2 1267   3.938   0.837   2.059  0.0783 -0.1372  0.1784
  356BENZ    R3 1268   4.102   0.803   2.296  0.3407  0.0658  0.0314
  357BENZ    R1 1269   2.502   1.801   3.225  0.2031 -0.0655  0.3693
  357BENZ    R2 1270   2.446   1.519   3.193 -0.0269  0.0095  0.0629
  357BENZ    R3 1271   2.616   1.609   3.410  0.0177 -0.3575  0.1879
  358BENZ    R1 1272   3.792   4.021   0.443  0.2901  0.0064  0.1566
  358BENZ    R2 1273   3.646   4.263   0.377 -0.5606 -0.5016  0.0258
  358BENZ    R3 1274   3.814   4.136   0.177  0.1238  0.0956  0.1803
  359BENZ    R1 1275   4.315   5.089   3.595  0.0705  0.0344  0.0583
  359BENZ    R2 1276   4.485   5.307   3.510 -0.1303  0.2087  0.0945
  359BENZ    R3 1277   4.439   5.082   3.333 -0.0059  0.2446  0.0146
  360BENZ    R1 1278   1.490   1.793   5.342 -0.0111 -0.0893 -0.0826
  360BENZ    R2 1279   1.307   1.578   5.278  0.0732 -0.1728 -0.0446
  360BENZ    R3 1280   1.299   1.701   5.540  0.2133 -0.3211  0.0308
  361BENZ    R1 1281   3.000   1.614   4.156 -0.0076 -0.2160  0.1922
  361BENZ    R2 1282   3.109   1.874   4.223  0.0826 -0.2127  0.0368
  361BENZ    R3 1283   3.219   1.724   4.001 -0.1315 -0.2763 -0.0284
  362BENZ    R1 1284   4.579   0.849   5.046 -0.1059  0.2771  0.2969
  362BENZ    R2 1285   4.292   0.830   5.076 -0.1614  0.1462 -0.2272
  362BENZ    R3 1286   4.453   0.933   5.294 -0.5774  0.0283  0.1529
  363BENZ    R1 1287   5.488   1.651   2.223 -0.1371 -0.0486 -0.0265
  363BENZ    R2 1288   5.577   1.402   2.105  0.3076  0.0641  0.0514
  363BENZ    R3 1289   5.412   1.398   2.343 -0.1692 -0.1550 -0.2654
  364BENZ    R1 1290   2.966   4.950   4.603 -0.3654 -0.3963  0.0829
  364BENZ    R2 1291   2.783   4.806   4.776 -0.4192  0.1594  0.5191
  364BENZ    R3 1292   2.738   5.086   4.719  0.3647  0.3600  0.7620
  365BENZ    R1 1293   3.991   2.599   5.170 -0.1401  0.0239 -0.0850
  365BENZ    R2 1294   3.874   2.367   5.299 -0.1598 -0.0582 -0.2482
  365BENZ    R3 1295   4.069   2.333   5.086 -0.1652  0.0747 -0.2755
  366BENZ    R1 1296   3.829   0.722   5.492  0.1447  0.1181 -0.1140
  366BENZ    R2 1297   3.542   0.712   5.455  0.0873  0.1249  0.2870
  366BENZ    R3 1298   3.656   0.660   5.716  0.4680 -0.0870  0.0866
  367BENZ    R1 1299   3.649   4.341   4.763 -0.1672 -0.1289  0.1332
  367BENZ    R2 1300   3.732   4.364   4.486 -0.1976 -0.3688  0.1022
  367BENZ    R3 1301   3.470   4.458   4.567 -0.0421  0.0606  0.1298
  368BENZ    R1 1302   3.298   2.340   0.626 -0.0238  0.1238 -0.0119
  368BENZ    R2 1303   3.273   2.509   0.861 -0.1049  0.0902  0.0038
  368BENZ    R3 1304   3.324   2.225   0.890 -0.0373  0.0995 -0.0212
  369BENZ    R1 1305   3.141   0.734   2.690  0.1839  0.5209 -0.0657
  369BENZ    R2 1306   3.280   0.530   2.843  0.2202  0.3200 -0.3590
  369BENZ    R3 1307   3.200   0.778   2.971 -0.1339 -0.0132  0.0995
  370BENZ    R1 1308   1.654   3.864   1.261 -0.0091  0.0948 -0.0238
  370BENZ    R2 1309   1.830   4.085   1.195  0.1550  0.0491  0.2471
  370BENZ    R3 1310   1.643   4.108   1.416  0.2291 -0.1090  0.3285
  371BENZ    R1 1311   4.372   0.287   4.772  0.3690 -0.0857  0.2657
  371BENZ    R2 1312   4.097   0.301   4.864  0.1899 -0.1595 -0.2311
  371BENZ    R3 1313   4.156   0.313   4.580  0.7261  0.1521 -0.1190
  372BENZ    R1 1314   1.076   3.031   0.426  0.1061 -0.0333  0.0868
  372BENZ    R2 1315   0.848   2.990   0.251  0.0829  0.3331  0.0224
  372BENZ    R3 1316   1.022   2.768   0.318 -0.2212  0.0741 -0.0240
  373BENZ    R1 1317   1.275   3.360   4.624  0.1328  0.1799 -0.0092
  373BENZ    R2 1318   1.233   3.353   4.911 -0.2554  0.1526 -0.0603
  373BENZ    R3 1319   1.503   3.347   4.803 -0.1106 -0.5351  0.2840
  374BENZ    R1 1320   1.494   2.088   3.046  0.0781  0.0430 -0.1466
  374BENZ    R2 1321   1.389   2.237   3.272 -0.2646 -0.2811 -0.0816
  374BENZ    R3 1322   1.521   2.377   3.054 -0.2458  0.0717  0.1485
  375BENZ    R1 1323   5.204   5.117   3.118  0.2415  0.0888  0.1300
  375BENZ    R2 1324   5.338   5.011   3.353  0.2974 -0.1811 -0.0201
  375BENZ    R3 1325   5.091   4.890   3.258  0.2653 -0.0624 -0.0904
  376BENZ    R1 1326   2.552   1.349   1.890  0.3940  0.3341  0.0335
  376BENZ    R2 1327   2.692   1.097   1.924  0.2122  0.2193 -0.0574
  376BENZ    R3 1328   2.542   1.149   1.681  0.3285  0.4563 -0.0815
  377BENZ    R1 1329   3.791   3.652   5.565  0.0429 -0.0701 -0.1328
  377BENZ    R2 1330   3.707   3.374   5.562  0.0948 -0.0864 -0.0890
  377BENZ    R3 1331   3.557   3.569   5.715  0.2726 -0.1599  0.1856
  378BENZ    R1 1332   5.546   2.045   2.086  0.1889  0.2203 -0.1575
  378BENZ    R2 1333   5.368   2.043   1.858  0.4040  0.3038 -0.3294
  378BENZ    R3 1334   5.597   2.220   1.861  0.5900  0.0656 -0.1949
  379BENZ    R1 1335   0.808   0.573   2.504  0.0538  0.1364 -0.1144
  379BENZ    R2 1336   0.559   0.445   2.579  0.2087 -0.1916 -0.1435
  379BENZ    R3 1337   0.675   0.648   2.750  0.1209 -0.3183  0.0699
  380BENZ    R1 1338   4.566   4.290   1.007 -0.0784  0.0743  0.1507
  380BENZ    R2 1339   4.462   4.560   1.027 -0.0756  0.1047 -0.1976
  380BENZ    R3 1340   4.335   4.345   1.174 -0.2973  0.2347 -0.1931
  381BENZ    R1 1341   0.662   4.664   1.716  0.1727  0.0279 -0.0253
  381BENZ    R2 1342   0.898   4.738   1.564  0.0791  0.1078 -0.1340
  381BENZ    R3 1343   0.639   4.729   1.434  0.0681 -0.3033 -0.0974
  382BENZ    R1 1344   3.201   1.003   0.098 -0.2498 -0.1293  0.0336
  382BENZ    R2 1345   2.985   1.083   0.273 -0.2346 -0.3416  0.1533
  382BENZ    R3 1346   3.065   1.254   0.053 -0.2710 -0.0833  0.3364
  383BENZ    R1 1347   3.429   0.683   0.225 -0.2255 -0.0614  0.3142
  383BENZ    R2 1348   3.149   0.672   0.300 -0.2472  0.2373  0.2906
  383BENZ    R3 1349   3.325   0.863   0.428 -0.1715  0.4082 -0.0559
  384BENZ    R1 1350   1.160   5.709   5.412 -0.4466  0.2401  0.2555
  384BENZ    R2 1351   1.115   5.509   5.206 -0.1841  0.2287  0.2054
  384BENZ    R3 1352   1.118   5.432   5.486 -0.1585  0.1756  0.1905
  385BENZ    R1 1353   2.006   2.516   3.480  0.2042 -0.0709 -0.0682
  385BENZ    R2 1354   2.006   2.747   3.656 -0.0044 -0.1409  0.0263
  385BENZ    R3 1355   2.220   2.553   3.672  0.2129  0.0823 -0.1056
  386BENZ    R1 1356   1.021   4.342   1.133 -0.0556 -0.0100  0.4714
  386BENZ    R2 1357   1.197   4.565   1.076 -0.0900 -0.1088 -0.0735
  386BENZ    R3 1358   1.309   4.303   1.130 -0.0619 -0.0733  0.0428
  387BENZ    R1 1359   4.335   3.405   2.229 -0.4934 -0.3046  0.0654
  387BENZ    R2 1360   4.388   3.123   2.270 -0.2288 -0.2530  0.0964
  387BENZ    R3 1361   4.608   3.309   2.240 -0.4020 -0.0759 -0.1161
  388BENZ    R1 1362   0.747   5.537   2.616 -0.0024 -0.0459 -0.1590
  388BENZ    R2 1363   0.653   5.811   2.610  0.1031 -0.0017  0.0890
  388BENZ    R3 1364   0.767   5.692   2.371 -0.0154  0.1425 -0.0424
  389BENZ    R1 1365   1.913   0.727   2.655  0.3512 -0.0881 -0.3377
  389BENZ    R2 1366   1.929   0.980   2.515  0.0863  0.0999 -0.0401
  389BENZ    R3 1367   1.677   0.836   2.526  0.0909  0.1092  0.2698
  390BENZ    R1 1368   5.089   1.308   5.453  0.1544 -0.3139  0.0768
  390BENZ    R2 1369   4.970   1.509   5.281 -0.1454 -0.3940  0.1836
  390BENZ    R3 1370   4.959   1.540   5.570 -0.0330 -0.4758  0.1974
  391BENZ    R1 1371   2.508   4.555   1.995 -0.1097 -0.0657  0.0645
  391BENZ    R2 1372   2.323   4.362   1.883  0.2746 -0.1743 -0.4196
  391BENZ    R3 1373   2.554   4.447   1.729  0.7553 -0.2086  0.2419
  392BENZ    R1 1374   5.363   2.315   2.972  0.2246  0.3094 -0.0606
  392BENZ    R2 1375   5.362   2.378   2.689  0.3497  0.2617 -0.0721
  392BENZ    R3 1376   5.371   2.591   2.885  0.7347  0.2882 -0.1108
  393BENZ    R1 1377   2.275   0.439   1.122  0.3991 -0.1959 -0.0044
  393BENZ    R2 1378   2.152   0.381   1.378  0.1127  0.1185 -0.0626
  393BENZ    R3 1379   2.390   0.547   1.365  0.3503 -0.2047  0.0228
  394BENZ    R1 1380   5.112   3.066   1.788 -0.0093 -0.0911  0.0885
  394BENZ    R2 1381   5.150   3.333   1.683 -0.2083 -0.0940  0.0035
  394BENZ    R3 1382   5.164   3.104   1.505 -0.4154 -0.1093  0.0055
  395BENZ    R1 1383   2.023   5.257   3.684 -0.3171  0.0659 -0.0188
  395BENZ    R2 1384   1.906   5.441   3.875 -0.2486 -0.0822  0.1696
  395BENZ    R3 1385   2.181   5.477   3.790 -0.3140  0.0510  0.0078
  396BENZ    R1 1386   2.433   2.331   2.776 -0.0913 -0.5214  0.5514
  396BENZ    R2 1387   2.147   2.376   2.802 -0.1427 -0.1185 -0.3355
  396BENZ    R3 1388   2.248   2.195   2.599  0.2435 -0.0609 -0.2037
  397BENZ    R1 1389   2.866   0.471   2.976 -0.0310  0.2441 -0.1232
  397BENZ    R2 1390   2.802   0.753   3.007  0.2408  0.3307 -0.3129
  397BENZ    R3 1391   2.757   0.621   2.753  0.1175  0.2020 -0.2255
  398BENZ    R1 1392   0.445   3.792   2.907  0.0067 -0.1854  0.1152
  398BENZ    R2 1393   0.315   3.556   2.800  0.2173 -0.2552  0.0088
  398BENZ    R3 1394   0.343   3.589   3.087 -0.0645 -0.2216  0.0347
  399BENZ    R1 1395   4.898   2.329   1.683  0.2223 -0.0718  0.2552
  399BENZ    R2 1396   4.629   2.331   1.791  0.3761  0.1692  0.6597
  399BENZ    R3 1397   4.680   2.217   1.529 -0.1157  0.1254  0.5734
  400BENZ    R1 1398   3.442   4.119   5.034  0.2925 -0.1305 -0.1205
  400BENZ    R2 1399   3.292   4.200   4.799 -0.1025 -0.2376  0.0856
  400BENZ    R3 1400   3.300   3.921   4.877  0.3440 -0.2577 -0.0086
  401BENZ    R1 1401   3.471   5.506   2.792 -0.0020  0.1396 -0.1709
  401BENZ    R2 1402   3.688   5.493   2.600 -0.1473 -0.1438 -0.3216
  401BENZ    R3 1403   3.463   5.670   2.553  0.0376  0.1382 -0.1732
  402BENZ    R1 1404   0.308   0.707   2.575  0.1860  0.1438 -0.0044
  402BENZ    R2 1405   0.101   0.504   2.568  0.2253  0.0989  0.1047
  402BENZ    R3 1406   0.047   0.762   2.691  0.0803  0.2661 -0.2910
  403BENZ    R1 1407   3.823   4.946   0.055 -0.4075 -0.2690  0.0030
  403BENZ    R2 1408   3.647   4.915  -0.173  0.0601  0.0885 -0.4302
  403BENZ    R3 1409   3.752   5.176  -0.105  0.0250 -0.0314  0.1364
  404BENZ    R1 1410   1.788   0.488   5.516  0.0146  0.1009  0.3861
  404BENZ    R2 1411   1.725   0.255   5.677 -0.2068  0.0498  0.2297
  404BENZ    R3 1412   1.530   0.358   5.488 -0.0876  0.3265  0.2530
  405BENZ    R1 1413   2.750   3.524   2.086  0.0053 -0.0348 -0.0391
  405BENZ    R2 1414   3.028   3.604   2.062 -0.0202  0.0899  0.0728
  405BENZ    R3 1415   2.856   3.733   2.257 -0.0772 -0.2006  0.2199
  406BENZ    R1 1416   5.236   0.020   0.682  0.0824 -0.2212 -0.1350
  406BENZ    R2 1417   5.186  -0.266   0.673 -0.0892 -0.1941 -0.0845
  406BENZ    R3 1418   5.008  -0.083   0.537 -0.1622 -0.0903  0.1461
  407BENZ    R1 1419   0.226   5.272   3.264  0.0264  0.1240  0.2360
  407BENZ    R2 1420  -0.038   5.370   3.334  0.0049  0.3287 -0.1099
  407BENZ    R3 1421   0.148   5.543   3.194  0.1249  0.0129 -0.3528
  408BENZ    R1 1422   1.371   4.074   1.675  0.0503 -0.0844 -0.2165
  408BENZ    R2 1423   1.123   3.959   1.769 -0.0611  0.1821 -0.1758
  408BENZ    R3 1424   1.242   4.182   1.911  0.6849 -0.4995  0.3605
  409BENZ    R1 1425   4.557   1.517   3.266  0.0269  0.3459 -0.1693
  409BENZ    R2 1426   4.379   1.497   3.039 -0.1379  0.1534 -0.0267
  409BENZ    R3 1427   4.281   1.601   3.291 -0.0309  0.1052  0.0353
  410BENZ    R1 1428   0.241   2.724   3.490  0.0241  0.2191  0.4104
  410BENZ    R2 1429   0.051   2.577   3.652 -0.1232  0.0541  0.0982
  410BENZ    R3 1430  -0.032   2.819   3.516 -0.0403  0.1147  0.1547
  411BENZ    R1 1431   2.611   1.291   3.504 -0.1119  0.4066  0.2456
  411BENZ    R2 1432   2.430   1.089   3.399  0.0877  0.3490  0.0025
  411BENZ    R3 1433   2.705   1.020   3.461  0.0388  0.4425  0.3441
  412BENZ    R1 1434   2.760   4.154   0.397  0.1681 -0.1450  0.0028
  412BENZ    R2 1435   2.740   4.017   0.652 -0.4424 -0.1362 -0.0275
  412BENZ    R3 1436   2.948   4.214   0.610  0.0050 -0.5231  0.2651
  413BENZ    R1 1437   1.917   0.916   2.912 -0.1805  0.0835  0.2269
  413BENZ    R2 1438   1.858   0.978   3.189  0.2124  0.3389  0.2601
  413BENZ    R3 1439   2.130   0.997   3.091  0.1161  0.0242 -0.0902
  414BENZ    R1 1440   5.020   0.159   2.289 -0.2562  0.1260  0.0538
  414BENZ    R2 1441   4.779   0.203   2.445 -0.3979 -0.0538 -0.1086
  414BENZ    R3 1442   4.854  -0.066   2.368 -0.2160  0.0142 -0.1743
  415BENZ    R1 1443   2.048   1.335   2.911  0.3385  0.4405 -0.2459
  415BENZ    R2 1444   1.772   1.276   2.843  0.3006  0.0384  0.2038
  415BENZ    R3 1445   1.969   1.310   2.633 -0.0129 -0.0535 -0.1155
  416BENZ    R1 1446   4.865   3.537   4.577 -0.2124  0.1198  0.1022
  416BENZ    R2 1447   4.865   3.392   4.828 -0.0412 -0.1686 -0.0578
  416BENZ    R3 1448   4.816   3.678   4.825 -0.4388 -0.2246  0.2610
  417BENZ    R1 1449   5.220   2.632   4.999 -0.0206 -0.1029 -0.0715
  417BENZ    R2 1450   5.206   2.897   4.884  0.0369 -0.1412 -0.1685
  417BENZ    R3 1451   5.463   2.783   4.951 -0.0012 -0.0804  0.0926
  418BENZ    R1 1452   1.371   1.596   4.274  0.0625 -0.1257  0.2594
  418BENZ    R2 1453   1.441   1.736   4.518 -0.0224  0.2209  0.0918
  418BENZ    R3 1454   1.615   1.753   4.286  0.0421 -0.0813  0.1138
  419BENZ    R1 1455   2.205   1.886   0.705 -0.0155 -0.1867 -0.1268
  419BENZ    R2 1456   2.155   1.846   0.422  0.1576 -0.0255 -0.1818
  419BENZ    R3 1457   2.279   2.091   0.514  0.2428 -0.1414  0.0182
  420BENZ    R1 1458   5.211   2.470   4.178 -0.2489  0.1268  0.1007
  420BENZ    R2 1459   5.339   2.281   4.356 -0.1759  0.1048  0.0257
  420BENZ    R3 1460   5.118   2.195   4.188 -0.1052  0.0709 -0.0507
  421BENZ    R1 1461   1.637   4.189   0.837 -0.0635 -0.1415 -0.3491
  421BENZ    R2 1462   1.636   4.406   1.030  0.1328 -0.1858 -0.2967
  421BENZ    R3 1463   1.469   4.422   0.794  0.1391  0.0187 -0.2886
  422BENZ    R1 1464   2.265   3.445   5.812  0.2375  0.0930 -0.3793
  422BENZ    R2 1465   2.503   3.478   5.650  0.1843  0.1379 -0.4490
  422BENZ    R3 1466   2.251   3.592   5.562  0.0805 -0.1244 -0.5027
  423BENZ    R1 1467   3.787   1.708   0.012 -0.1615  0.2212 -0.1532
  423BENZ    R2 1468   3.514   1.670  -0.080 -0.1219 -0.2599 -0.0947
  423BENZ    R3 1469   3.577   1.886   0.103 -0.4067  0.0247 -0.3218
  424BENZ    R1 1470   1.059   5.255   0.535 -0.1119  0.0365 -0.0832
  424BENZ    R2 1471   0.871   5.475   0.552  0.2697  0.3598  0.1195
  424BENZ    R3 1472   1.037   5.408   0.780  0.2196 -0.0919  0.0319
  425BENZ    R1 1473   1.879   1.025   4.544 -0.0614  0.3434  0.1187
  425BENZ    R2 1474   2.159   1.054   4.616  0.0128 -0.0248  0.0041
  425BENZ    R3 1475   1.957   1.031   4.823  0.0222  0.5374  0.0928
  426BENZ    R1 1476   2.279   5.730   1.823  0.4300  0.0925  0.3150
  426BENZ    R2 1477   2.192   5.996   1.746  0.1398 -0.1301 -0.1728
  426BENZ    R3 1478   2.473   5.926   1.732  0.1646  0.0135 -0.5092
  427BENZ    R1 1479   0.402   5.578   4.718  0.0825 -0.1460 -0.1254
  427BENZ    R2 1480   0.584   5.770   4.601 -0.2303  0.0707 -0.2724
  427BENZ    R3 1481   0.320   5.854   4.685 -0.2429 -0.2226  0.0002
  428BENZ    R1 1482   0.374   2.585   4.470  0.1332  0.1790  0.1767
  428BENZ    R2 1483   0.451   2.776   4.674 -0.1228  0.3256  0.1396
  428BENZ    R3 1484   0.349   2.869   4.419 -0.2195  0.1404  0.1089
  429BENZ    R1 1485   0.597   2.951   1.907  0.2532  0.0578  0.0803
  429BENZ    R2 1486   0.703   3.209   1.986 -0.2071  0.1507  0.4418
  429BENZ    R3 1487   0.470   3.194   1.813  0.2147 -0.0460 -0.1433
  430BENZ    R1 1488   0.486   4.253   1.321 -0.2935  0.1109 -0.1215
  430BENZ    R2 1489   0.519   3.966   1.291  0.1942  0.1534 -0.0733
  430BENZ    R3 1490   0.712   4.147   1.173  0.0497  0.4542  0.1364
  431BENZ    R1 1491   3.807   0.750   0.219 -0.1243  0.1488 -0.6279
  431BENZ    R2 1492   3.700   1.009   0.145  0.0228  0.5516  0.4016
  431BENZ    R3 1493   3.690   0.922   0.421  0.2375 -0.4407  0.1351
  432BENZ    R1 1494   3.172   4.993   3.933 -0.1968 -0.1596 -0.0112
  432BENZ    R2 1495   3.366   4.965   4.147 -0.2080  0.0992  0.0356
  432BENZ    R3 1496   3.083   4.960   4.207 -0.2111  0.1895  0.0297
  433BENZ    R1 1497   2.818   3.275   0.183 -0.1051  0.4845  0.0600
  433BENZ    R2 1498   3.034   3.378   0.020  0.2646 -0.3176 -0.0032
  433BENZ    R3 1499   2.828   3.213  -0.100 -0.2412  0.1973  0.1141
  434BENZ    R1 1500   4.869   1.104   5.653 -0.1162  0.1402 -0.1743
  434BENZ    R2 1501   4.843   1.180   5.932 -0.0288 -0.6107  0.0626
  434BENZ    R3 1502   4.607   1.113   5.777 -0.0713 -0.2559 -0.0362
  435BENZ    R1 1503   0.656   0.472   5.157 -0.2142 -0.1360 -0.0141
  435BENZ    R2 1504   0.710   0.370   4.891  0.1204 -0.1340  0.0496
  435BENZ    R3 1505   0.885   0.301   5.112  0.0803  0.1914  0.1894
  436BENZ    R1 1506   1.080   4.760   2.121 -0.3584 -0.2749  0.1381
  436BENZ    R2 1507   1.073   4.627   1.864  0.0309 -0.0689  0.0116
  436BENZ    R3 1508   0.969   4.896   1.891 -0.1332 -0.1400  0.1057
  437BENZ    R1 1509   0.487   3.023   1.293 -0.3802  0.2758  0.1128
  437BENZ    R2 1510   0.702   3.163   1.158 -0.0970 -0.0813  0.1802
  437BENZ    R3 1511   0.654   3.209   1.440 -0.1114  0.0008  0.1646
  438BENZ    R1 1512   4.797   5.319   5.370  0.0330  0.2223 -0.1506
  438BENZ    R2 1513   4.640   5.087   5.444 -0.0342  0.2538 -0.1937
  438BENZ    R3 1514   4.520   5.299   5.286  0.1390  0.1330 -0.4950
  439BENZ    R1 1515   0.018   1.723   4.148  0.0893  0.0781 -0.2721
  439BENZ    R2 1516   0.163   1.473   4.125  0.2008  0.1222 -0.0705
  439BENZ    R3 1517   0.257   1.708   3.984  0.3270  0.1505  0.0592
  440BENZ    R1 1518   2.458   3.794   5.030  0.0904 -0.1686 -0.1827
  440BENZ    R2 1519   2.721   3.713   5.121  0.0037 -0.1717  0.0735
  440BENZ    R3 1520   2.490   3.674   5.292 -0.1892 -0.3149 -0.2115
  441BENZ    R1 1521   5.204   5.176   1.210  0.0995  0.5049  0.0698
  441BENZ    R2 1522   4.926   5.242   1.257 -0.0651 -0.0633 -0.0255
  441BENZ    R3 1523   5.032   5.245   0.987  0.0680  0.2863  0.0244
  442BENZ    R1 1524   3.171   4.610   1.872 -0.3779  0.1242 -0.1481
  442BENZ    R2 1525   3.160   4.640   2.160 -0.4949 -0.1402 -0.1218
  442BENZ    R3 1526   2.925   4.553   2.015 -0.3481 -0.3191 -0.2575
  443BENZ    R1 1527   4.889   4.483   3.271  0.0881  0.0322  0.2081
  443BENZ    R2 1528   4.881   4.374   3.002 -0.3452  0.1169  0.1787
  443BENZ    R3 1529   5.088   4.563   3.077 -0.0570 -0.1161 -0.0071
  444BENZ    R1 1530   1.122   0.177   1.747  0.1306 -0.3614 -0.0119
  444BENZ    R2 1531   1.066   0.217   1.465 -0.1595  0.0954  0.1004
  444BENZ    R3 1532   1.338   0.237   1.563 -0.0500 -0.1147 -0.1485
  445BENZ    R1 1533   2.752   5.007   4.333  0.0057  0.0187  0.1121
  445BENZ    R2 1534   2.877   5.266   4.372 -0.0217  0.0631 -0.0835
  445BENZ    R3 1535   2.647   5.241   4.197 -0.1137 -0.0677  0.0535
  446BENZ    R1 1536   0.140   0.742   5.598  0.2099  0.3648 -0.0573
  446BENZ    R2 1537   0.216   0.580   5.826 -0.0507  0.0439 -0.1902
  446BENZ    R3 1538   0.127   0.853   5.866 -0.0318  0.0131  0.0838
  447BENZ    R1 1539   1.693   3.503   2.136  0.1102 -0.3533 -0.0335
  447BENZ    R2 1540   1.712   3.726   2.320  0.0004  0.0602 -0.4988
  447BENZ    R3 1541   1.924   3.678   2.128  0.0108 -0.2276 -0.4199
  448BENZ    R1 1542   0.758   4.705   2.829  0.3026  0.1174  0.1186
  448BENZ    R2 1543   0.635   4.475   2.955  0.1205  0.0155 -0.2317
  448BENZ    R3 1544   0.795   4.658   3.113 -0.0069 -0.1648  0.1188
  449BENZ    R1 1545   5.401   3.303   3.354 -0.0419 -0.0670  0.4511
  449BENZ    R2 1546   5.394   3.566   3.477  0.1076  0.0191  0.2809
  449BENZ    R3 1547   5.229   3.510   3.245  0.1738  0.0047  0.2369
  450BENZ    R1 1548   2.306   3.614   1.266  0.0250  0.4825  0.0798
  450BENZ    R2 1549   2.042   3.593   1.148  0.1198 -0.5743 -0.0411
  450BENZ    R3 1550   2.071   3.677   1.424 -0.2552  0.2047 -0.2105
  451BENZ    R1 1551   1.314   0.968   2.858 -0.0006 -0.2121  0.2392
  451BENZ    R2 1552   1.123   1.061   2.661 -0.0008 -0.1043  0.2895
  451BENZ    R3 1553   1.394   1.164   2.659  0.0685 -0.2853  0.1945
  452BENZ    R1 1554   3.434   5.478   3.471  0.0657 -0.1031  0.1229
  452BENZ    R2 1555   3.491   5.550   3.746 -0.1399  0.2204  0.0856
  452BENZ    R3 1556   3.448   5.757   3.547 -0.0218 -0.0098 -0.1869
  453BENZ    R1 1557   2.599   2.300   0.877 -0.1772  0.5408 -0.3074
  453BENZ    R2 1558   2.400   2.167   1.041  0.2496 -0.1178 -0.2845
  453BENZ    R3 1559   2.361   2.443   0.960 -0.4780 -0.1082  0.0223
  454BENZ    R1 1560   2.271   2.190   2.270 -0.4347 -0.0951  0.2262
  454BENZ    R2 1561   2.363   2.437   2.148 -0.1676 -0.0958  0.4191
  454BENZ    R3 1562   2.225   2.239   1.987  0.1294 -0.0748  0.1268
  455BENZ    R1 1563   4.213   3.451   0.230 -0.4349  0.0857 -0.1401
  455BENZ    R2 1564   4.065   3.309   0.435 -0.0460  0.0100  0.1010
  455BENZ    R3 1565   4.308   3.451   0.505  0.0437  0.0631 -0.2957
  456BENZ    R1 1566   1.258   1.238   4.029  0.2277  0.4411 -0.2909
  456BENZ    R2 1567   1.053   1.281   4.229  0.2649  0.1580 -0.1871
  456BENZ    R3 1568   1.021   1.391   3.963  0.1620  0.4428 -0.0611
  457BENZ    R1 1569   5.055   3.685   1.276  0.2329 -0.0570 -0.0953
  457BENZ    R2 1570   4.927   3.478   1.433  0.2983  0.2195  0.3393
  457BENZ    R3 1571   5.196   3.438   1.333  0.0676 -0.1712 -0.1729
  458BENZ    R1 1572   4.463   2.772   4.973 -0.0696 -0.0453 -0.2291
  458BENZ    R2 1573   4.236   2.951   4.992 -0.0104  0.0554 -0.4406
  458BENZ    R3 1574   4.270   2.784   4.757 -0.1542 -0.3621 -0.1762
  459BENZ    R1 1575   4.785   4.887   4.451  0.1338 -0.1686 -0.0020
  459BENZ    R2 1576   4.901   4.689   4.629  0.0388 -0.0638  0.1802
  459BENZ    R3 1577   4.620   4.755   4.650  0.0248 -0.0544 -0.0156
  460BENZ    R1 1578   5.712   4.921   4.258  0.0303  0.2365 -0.1538
  460BENZ    R2 1579   5.900   4.957   4.476 -0.3710  0.0846  0.2324
  460BENZ    R3 1580   5.833   5.181   4.305  0.2402  0.1131  0.0068
  461BENZ    R1 1581   1.407   4.357   5.366 -0.0708 -0.2177  0.0780
  461BENZ    R2 1582   1.443   4.580   5.548  0.0847 -0.0535 -0.1484
  461BENZ    R3 1583   1.208   4.567   5.378 -0.0370 -0.1825  0.0260
  462BENZ    R1 1584   2.312   5.396   2.759  0.0405 -0.1164  0.1566
  462BENZ    R2 1585   2.496   5.277   2.569  0.2491  0.3538  0.0493
  462BENZ    R3 1586   2.288   5.457   2.477 -0.2091 -0.0846  0.1822
  463BENZ    R1 1587   0.556   3.823   4.525 -0.1773  0.4373  0.3057
  463BENZ    R2 1588   0.471   3.728   4.785 -0.2536  0.1845  0.1918
  463BENZ    R3 1589   0.305   3.681   4.552 -0.0180  0.0872  0.0391
  464BENZ    R1 1590   1.683   5.235   2.827  0.0153 -0.0776 -0.0022
  464BENZ    R2 1591   1.737   5.104   2.574 -0.0450 -0.3068  0.1008
  464BENZ    R3 1592   1.739   4.951   2.820  0.0292 -0.0831  0.2430
  465BENZ    R1 1593   4.862   4.215   0.181  0.4110 -0.4465 -0.2479
  465BENZ    R2 1594   4.999   4.145   0.426 -0.1962 -0.1339  0.2075
  465BENZ    R3 1595   4.722   4.069   0.389 -0.2101  0.1043 -0.2468
  466BENZ    R1 1596   0.698   2.039   4.788 -0.0790 -0.0173  0.0277
  466BENZ    R2 1597   0.618   2.242   4.978  0.3611  0.3695 -0.1785
  466BENZ    R3 1598   0.800   2.032   5.059  0.1823  0.2583 -0.0575
  467BENZ    R1 1599   1.540   3.648   4.528  0.0093 -0.2909 -0.2269
  467BENZ    R2 1600   1.324   3.718   4.349  0.0906  0.1940 -0.1483
  467BENZ    R3 1601   1.479   3.927   4.478  0.1933 -0.1434  0.2988
  468BENZ    R1 1602   0.102   2.969   2.459  0.5467  0.1979  0.0515
  468BENZ    R2 1603   0.312   2.802   2.568  0.4306 -0.1385 -0.2216
  468BENZ    R3 1604   0.069   2.681   2.467  0.2937  0.2089 -0.3226
  469BENZ    R1 1605   4.541   0.389   3.932 -0.0093 -0.0551  0.4817
  469BENZ    R2 1606   4.728   0.589   4.029  0.2712 -0.1216  0.1027
  469BENZ    R3 1607   4.718   0.327   4.153  0.4144 -0.1095  0.1412
  470BENZ    R1 1608   0.547   2.942   5.072  0.0088  0.2023  0.3445
  470BENZ    R2 1609   0.373   2.711   5.085  0.1400  0.0230 -0.5158
  470BENZ    R3 1610   0.659   2.678   5.117  0.1123  0.1716 -0.0540
  471BENZ    R1 1611   1.849   5.705   0.581  0.0681  0.1668  0.1331
  471BENZ    R2 1612   2.014   5.943   0.555  0.1604  0.0710 -0.1975
  471BENZ    R3 1613   1.913   5.809   0.318  0.3160 -0.3612 -0.0294
  472BENZ    R1 1614   1.572   3.791   5.534  0.1602 -0.1860 -0.2586
  472BENZ    R2 1615   1.833   3.912   5.495  0.1283 -0.0175  0.0211
  472BENZ    R3 1616   1.599   4.031   5.373  0.1642 -0.1014 -0.1330
  473BENZ    R1 1617   0.607   0.884   4.608 -0.4958 -0.1075  0.2902
  473BENZ    R2 1618   0.457   0.907   4.361 -0.3094  0.0354  0.1877
  473BENZ    R3 1619   0.512   0.645   4.473  0.0849 -0.0713 -0.2262
  474BENZ    R1 1620   2.630   1.368   2.360  0.1619  0.5589  0.3717
  474BENZ    R2 1621   2.876   1.216   2.373 -0.1816 -0.0541  0.1453
  474BENZ    R3 1622   2.623   1.088   2.436 -0.5152  0.3645 -0.2735
  475BENZ    R1 1623   1.170   2.501   4.188 -0.1094 -0.1719  0.1046
  475BENZ    R2 1624   1.061   2.373   4.425  0.0174 -0.0915  0.2082
  475BENZ    R3 1625   1.122   2.215   4.189 -0.1849 -0.1594  0.1996
  476BENZ    R1 1626   5.690   0.980   4.176 -0.0624 -0.1184  0.0710
  476BENZ    R2 1627   5.715   0.757   4.361 -0.2553 -0.2647 -0.0758
  476BENZ    R3 1628   5.876   0.995   4.398  0.1062 -0.5090 -0.0349
  477BENZ    R1 1629   3.111   3.209   3.534  0.1628 -0.1616 -0.0498
  477BENZ    R2 1630   3.238   2.951   3.574  0.4600 -0.0101  0.0170
  477BENZ    R3 1631   3.364   3.150   3.405  0.0774 -0.0162 -0.2906
  478BENZ    R1 1632   1.070   0.979   0.905 -0.4046  0.3060  0.1209
  478BENZ    R2 1633   1.144   1.227   0.775  0.3580  0.0503  0.0148
  478BENZ    R3 1634   0.954   1.048   0.648  0.0306  0.4273 -0.0517
  479BENZ    R1 1635   3.866   0.449   5.227  0.1815  0.0188  0.2221
  479BENZ    R2 1636   3.667   0.601   5.081  0.2214 -0.0530  0.0913
  479BENZ    R3 1637   3.587   0.432   5.303  0.1376 -0.0735  0.0459
  480BENZ    R1 1638   4.436   3.612   4.947 -0.0913 -0.0358 -0.0829
  480BENZ    R2 1639   4.339   3.377   5.087  0.2061 -0.1204 -0.0108
  480BENZ    R3 1640   4.484   3.348   4.837  0.4097 -0.0296  0.0942
  481BENZ    R1 1641   4.685   0.771   1.437  0.1756  0.0979 -0.0404
  481BENZ    R2 1642   4.634   0.974   1.637 -0.0029 -0.4233  0.4711
  481BENZ    R3 1643   4.423   0.895   1.455  0.0466 -0.2083  0.3161
  482BENZ    R1 1644   2.250   2.762   0.711  0.1016  0.1569  0.1623
  482BENZ    R2 1645   2.178   2.492   0.633  0.0981  0.1951  0.0315
  482BENZ    R3 1646   2.192   2.702   0.434  0.0330  0.3071  0.1431
  483BENZ    R1 1647   1.798   3.374   4.497  0.0429  0.0828  0.1551
  483BENZ    R2 1648   1.837   3.194   4.273 -0.0557  0.3107 -0.0485
  483BENZ    R3 1649   1.634   3.136   4.471 -0.0899  0.2005 -0.1150
  484BENZ    R1 1650   5.059   1.390   3.125  0.3386  0.0810  0.0369
  484BENZ    R2 1651   5.101   1.123   3.022  0.1869 -0.0727  0.3588
  484BENZ    R3 1652   5.298   1.329   2.973  0.1264 -0.1339 -0.2223
  485BENZ    R1 1653   4.502   1.191   3.705 -0.0080  0.0094  0.3482
  485BENZ    R2 1654   4.452   1.447   3.578  0.3257 -0.1300 -0.0897
  485BENZ    R3 1655   4.335   1.388   3.837  0.0377  0.3613 -0.0956
  486BENZ    R1 1656   3.254   3.956   2.523  0.1517 -0.3896 -0.0207
  486BENZ    R2 1657   3.432   3.998   2.749  0.0441 -0.2004  0.0314
  486BENZ    R3 1658   3.249   3.773   2.748 -0.0520 -0.1252  0.1980
  487BENZ    R1 1659   4.611   0.510   4.707 -0.5350  0.2014  0.1866
  487BENZ    R2 1660   4.726   0.608   4.460 -0.1741 -0.1891  0.1875
  487BENZ    R3 1661   4.474   0.465   4.456  0.0223 -0.5434 -0.0216
  488BENZ    R1 1662   2.700   5.577   2.803  0.2719 -0.2277  0.0040
  488BENZ    R2 1663   2.627   5.411   3.030 -0.1905 -0.3171 -0.1974
  488BENZ    R3 1664   2.904   5.488   2.989 -0.0997 -0.2788  0.4036
  489BENZ    R1 1665   5.012   1.464   4.721 -0.0470 -0.0788  0.3603
  489BENZ    R2 1666   5.044   1.238   4.900  0.3979 -0.1942  0.1507
  489BENZ    R3 1667   5.244   1.291   4.696 -0.1610 -0.1583 -0.4206
  490BENZ    R1 1668   3.051   3.277   0.540 -0.2193  0.1300  0.0371
  490BENZ    R2 1669   3.139   3.442   0.761 -0.0693  0.0300  0.0533
  490BENZ    R3 1670   3.119   3.155   0.794 -0.2134  0.0318 -0.0114
  491BENZ    R1 1671   0.460   1.295   1.330 -0.2481 -0.2353 -0.0680
  491BENZ    R2 1672   0.248   1.193   1.499 -0.2661  0.0639  0.0978
  491BENZ    R3 1673   0.365   1.452   1.554 -0.0190  0.0068 -0.1350
  492BENZ    R1 1674   3.319   3.542   4.304 -0.0663 -0.0450 -0.1765
  492BENZ    R2 1675   3.220   3.311   4.160  0.1318  0.0144 -0.4150
  492BENZ    R3 1676   3.163   3.341   4.442 -0.0746 -0.2169 -0.4289
  493BENZ    R1 1677   3.841   5.253   4.212 -0.0629  0.1016  0.0282
  493BENZ    R2 1678   3.811   5.135   3.949  0.0150 -0.0485  0.0854
  493BENZ    R3 1679   3.687   5.390   4.009 -0.2052 -0.1279 -0.0221
  494BENZ    R1 1680   5.483   4.098   5.217  0.1956 -0.4666 -0.2562
  494BENZ    R2 1681   5.618   4.020   5.462  0.3683 -0.0004 -0.1921
  494BENZ    R3 1682   5.422   4.234   5.466  0.1179 -0.2176 -0.4075
  495BENZ    R1 1683   3.118   1.457   4.686  0.2663  0.0678  0.2007
  495BENZ    R2 1684   3.211   1.498   4.958  0.0850 -0.1438  0.2982
  495BENZ    R3 1685   3.399   1.506   4.737  0.2304  0.0497  0.4253
  496BENZ    R1 1686   3.770   0.559   1.400  0.1295  0.2292  0.2586
  496BENZ    R2 1687   3.606   0.786   1.472 -0.2325  0.0270  0.0959
  496BENZ    R3 1688   3.555   0.643   1.225  0.0563 -0.1709  0.1462
  497BENZ    R1 1689   0.136   2.349   3.972 -0.0513  0.0015 -0.2223
  497BENZ    R2 1690   0.359   2.164   3.970 -0.0577 -0.0061 -0.3633
  497BENZ    R3 1691   0.367   2.402   3.805  0.1104  0.3147  0.0864
  498BENZ    R1 1692   4.712   1.000   0.736  0.0863  0.1843  0.2177
  498BENZ    R2 1693   4.774   0.736   0.837  0.1008  0.0198 -0.2027
  498BENZ    R3 1694   4.960   0.871   0.659  0.0318  0.2585 -0.0971
  499BENZ    R1 1695   0.890   2.796   0.711  0.1208 -0.0360 -0.0768
  499BENZ    R2 1696   1.176   2.800   0.662  0.1447 -0.0322  0.0575
  499BENZ    R3 1697   1.028   2.552   0.637  0.1413 -0.0146 -0.1098
  500BENZ    R1 1698   2.026   4.288   2.094 -0.0126 -0.3254 -0.3068
  500BENZ    R2 1699   1.898   4.098   2.272  0.2373  0.1713  0.4504
  500BENZ    R3 1700   1.860   4.383   2.311  0.2681  0.3090 -0.3478
  501BENZ    R1 1701   3.073   0.105   2.637 -0.1088 -0.1087 -0.3627
  501BENZ    R2 1702   3.120   0.376   2.544  0.1435 -0.0152  0.0135
  501BENZ    R3 1703   3.330   0.231   2.682 -0.1369 -0.2313  0.2250
  502BENZ    R1 1704   1.780   3.669   0.132  0.2131  0.1224  0.4896
  502BENZ    R2 1705   2.018   3.713  -0.029  0.0565 -0.2623  0.1340
  502BENZ    R3 1706   1.818   3.921  -0.005  0.0828 -0.1971 -0.1756
  503BENZ    R1 1707   0.160   4.811   4.063 -0.0009  0.3296  0.2911
  503BENZ    R2 1708   0.122   5.085   3.977  0.1242  0.2203 -0.1367
  503BENZ    R3 1709   0.372   4.949   3.921 -0.0292 -0.0615 -0.1549
  504BENZ    R1 1710   2.232   0.135   4.544  0.1988  0.0192  0.0828
  504BENZ    R2 1711   2.003   0.098   4.718  0.1502 -0.3102 -0.0436
  504BENZ    R3 1712   2.132   0.358   4.701  0.3066 -0.3198  0.6604
  505BENZ    R1 1713   2.709   3.637   0.557 -0.0546 -0.0782 -0.0362
  505BENZ    R2 1714   2.901   3.723   0.757 -0.1849  0.6222 -0.1869
  505BENZ    R3 1715   2.990   3.664   0.487 -0.0569 -0.0131 -0.0209
  506BENZ    R1 1716   1.996   5.111   0.159  0.1391  0.0805  0.1874
  506BENZ    R2 1717   2.235   5.094  -0.005 -0.0399  0.0467 -0.0767
  506BENZ    R3 1718   2.243   5.233   0.250  0.2613  0.0383 -0.0779
  507BENZ    R1 1719   0.479   5.663   5.431 -0.0436 -0.0160  0.0721
  507BENZ    R2 1720   0.471   5.605   5.715 -0.2034 -0.2778  0.0180
  507BENZ    R3 1721   0.665   5.794   5.610 -0.4419  0.1774  0.3600
  508BENZ    R1 1722   1.027   5.811   2.800  0.1568  0.2416  0.1466
  508BENZ    R2 1723   0.878   6.055   2.753  0.1366  0.1379 -0.3921
  508BENZ    R3 1724   1.141   6.021   2.637  0.3657  0.1037  0.1104
  509BENZ    R1 1725   3.084   4.335   2.344  0.0411  0.0606 -0.0012
  509BENZ    R2 1726   3.357   4.432   2.335  0.0580 -0.0060 -0.3587
  509BENZ    R3 1727   3.287   4.184   2.203 -0.1362 -0.1005 -0.0883
  510BENZ    R1 1728   3.375   4.987   2.098  0.1311  0.0350  0.2088
  510BENZ    R2 1729   3.539   5.202   1.994 -0.0886  0.1704  0.1351
  510BENZ    R3 1730   3.648   4.934   2.017  0.0348  0.1827 -0.2384
  511BENZ    R1 1731   2.024   0.250   2.454  0.3379  0.2726 -0.1271
  511BENZ    R2 1732   2.109   0.279   2.730 -0.2445  0.1222  0.0852
  511BENZ    R3 1733   2.141   0.499   2.544  0.3802  0.1419  0.1945
  512BENZ    R1 1734   5.124   2.130   4.910 -0.2285  0.2662 -0.1499
  512BENZ    R2 1735   5.234   2.309   4.710  0.3289  0.0463 -0.0585
  512BENZ    R3 1736   5.158   2.039   4.637 -0.1963  0.2011 -0.1244
  513BENZ    R1 1737   4.028   2.251   1.899  0.0407  0.4738 -0.1463
  513BENZ    R2 1738   4.152   2.004   1.812 -0.1448  0.2804  0.1209
  513BENZ    R3 1739   4.252   2.258   1.716  0.0401  0.1035 -0.1698
  514BENZ    R1 1740   0.812   2.930   5.374  0.1259  0.0779 -0.2296
  514BENZ    R2 1741   1.096   2.874   5.378  0.0972 -0.0798 -0.3272
  514BENZ    R3 1742   0.979   3.009   5.150  0.0942 -0.0106 -0.2849
  515BENZ    R1 1743   3.598   3.857   0.729 -0.4655  0.1178  0.1332
  515BENZ    R2 1744   3.761   3.672   0.882  0.2257  0.3229 -0.3040
  515BENZ    R3 1745   3.493   3.739   0.972  0.4739  0.2083  0.6307
  516BENZ    R1 1746   0.380   0.817   3.423  0.1042 -0.0632 -0.2695
  516BENZ    R2 1747   0.434   0.533   3.449 -0.0706 -0.0963 -0.2532
  516BENZ    R3 1748   0.636   0.727   3.525 -0.1557 -0.2069  0.2931
  517BENZ    R1 1749   0.627   0.073   3.818  0.2530 -0.1881  0.5347
  517BENZ    R2 1750   0.351  -0.007   3.853 -0.0239  0.2296 -0.3782
  517BENZ    R3 1751   0.525  -0.161   3.680  0.3020  0.0307  0.1074
  518BENZ    R1 1752   3.019   5.519   0.659 -0.1589 -0.0417 -0.0293
  518BENZ    R2 1753   3.284   5.433   0.740 -0.2114 -0.0855  0.0986
  518BENZ    R3 1754   3.153   5.306   0.514 -0.2229 -0.2341  0.1874
  519BENZ    R1 1755   1.351   3.039   1.311  0.0112 -0.3036 -0.4433
  519BENZ    R2 1756   1.603   2.894   1.313  0.2413  0.0751  0.0725
  519BENZ    R3 1757   1.601   3.184   1.306 -0.1810  0.0816  0.1442
  520BENZ    R1 1758   4.665   0.427   3.181  0.0834  0.0515 -0.2505
  520BENZ    R2 1759   4.784   0.400   3.444 -0.1677  0.2251 -0.1149
  520BENZ    R3 1760   4.654   0.172   3.319 -0.1376  0.1688 -0.0444
  521BENZ    R1 1761   3.056   2.233   5.429 -0.3695  0.0703  0.0336
  521BENZ    R2 1762   2.795   2.114   5.470 -0.4765  0.2558 -0.0939
  521BENZ    R3 1763   2.915   2.113   5.206 -0.3415  0.1606 -0.0334
  522BENZ    R1 1764   1.482   0.865   3.164  0.3364 -0.0251  0.2598
  522BENZ    R2 1765   1.665   0.655   3.084  0.2243 -0.1078  0.2160
  522BENZ    R3 1766   1.446   0.595   3.264 -0.0867 -0.1390 -0.1600
  523BENZ    R1 1767   4.090   3.083   0.112 -0.2485 -0.1953  0.2419
  523BENZ    R2 1768   4.365   3.080   0.204 -0.2767  0.4816  0.4015
  523BENZ    R3 1769   4.241   2.835   0.111  0.6455  0.2870 -0.5015
  524BENZ    R1 1770   0.712   2.578   5.656  0.4266 -0.2734  0.5791
  524BENZ    R2 1771   0.997   2.619   5.623  0.3312  0.1118  0.1233
  524BENZ    R3 1772   0.839   2.816   5.765  0.1870  0.2853 -0.2644
  525BENZ    R1 1773   2.035   3.741   2.807  0.4144 -0.3376  0.1744
  525BENZ    R2 1774   1.872   3.503   2.775  0.1449 -0.1415  0.0544
  525BENZ    R3 1775   2.146   3.505   2.681  0.1478 -0.4013  0.0522
  526BENZ    R1 1776   0.662   1.673   3.357 -0.0349 -0.2571 -0.0501
  526BENZ    R2 1777   0.571   1.522   3.126 -0.2609  0.0795 -0.1906
  526BENZ    R3 1778   0.758   1.741   3.092 -0.0985 -0.0280 -0.0167
  527BENZ    R1 1779   5.194   3.840   3.349  0.1200 -0.5768 -0.1439
  527BENZ    R2 1780   5.423   3.972   3.468 -0.0467 -0.1003 -0.3265
  527BENZ    R3 1781   5.419   3.918   3.183 -0.0579 -0.3449 -0.2824
  528BENZ    R1 1782   1.174   2.102   2.906  0.1307  0.2167  0.2789
  528BENZ    R2 1783   1.096   2.300   3.103  0.0760 -0.0758  0.5598
  528BENZ    R3 1784   1.131   2.023   3.182 -0.0145 -0.2138  0.1416
  529BENZ    R1 1785   3.354   2.559   2.977 -0.1219  0.0604 -0.1214
  529BENZ    R2 1786   3.343   2.331   2.799  0.0734 -0.1217  0.0940
  529BENZ    R3 1787   3.192   2.329   3.046 -0.0953  0.0764 -0.0046
  530BENZ    R1 1788   5.795   3.607   2.877  0.3974 -0.3907  0.0454
  530BENZ    R2 1789   5.762   3.430   3.105 -0.1570  0.0055  0.2975
  530BENZ    R3 1790   5.593   3.664   3.078  0.0841  0.1241 -0.3887
  531BENZ    R1 1791   3.931   2.199   0.829  0.0849  0.3254  0.0033
  531BENZ    R2 1792   3.836   2.396   1.020  0.3411  0.2516  0.2132
  531BENZ    R3 1793   4.085   2.439   0.879  0.3434  0.1281  0.1780
  532BENZ    R1 1794   5.510   0.741   0.036  0.2220  0.0760  0.0490
  532BENZ    R2 1795   5.391   0.975   0.160 -0.2377 -0.1006 -0.0377
  532BENZ    R3 1796   5.271   0.860  -0.078  0.1557 -0.2532 -0.1712
  533BENZ    R1 1797   2.318   5.446   0.607  0.1602 -0.2722 -0.1094
  533BENZ    R2 1798   2.090   5.458   0.786 -0.0140  0.3062 -0.3463
  533BENZ    R3 1799   2.137   5.221   0.625  0.0019 -0.1229  0.2570
  534BENZ    R1 1800   5.042   3.031   1.162 -0.1984  0.2871  0.3819
  534BENZ    R2 1801   4.771   3.132   1.186 -0.1695  0.4322  0.1299
  534BENZ    R3 1802   4.983   3.306   1.090 -0.0216  0.2687  0.1551
  535BENZ    R1 1803   0.922   2.687   3.366 -0.0622 -0.3968 -0.0920
  535BENZ    R2 1804   0.731   2.800   3.178 -0.1689 -0.3558  0.0388
  535BENZ    R3 1805   0.929   2.607   3.087 -0.0125 -0.0997 -0.1798
  536BENZ    R1 1806   1.124   1.096   1.309  0.2349 -0.1633  0.2390
  536BENZ    R2 1807   0.948   1.234   1.125  0.0741 -0.0603  0.4657
  536BENZ    R3 1808   1.232   1.293   1.126  0.1888 -0.5017 -0.1682
  537BENZ    R1 1809   3.266   5.728   1.172 -0.1354 -0.0404  0.2284
  537BENZ    R2 1810   3.107   5.510   1.066 -0.2122  0.0723  0.1091
  537BENZ    R3 1811   3.140   5.753   0.912 -0.2184  0.1884  0.2887
  538BENZ    R1 1812   2.308   0.924   1.166  0.2229  0.2911  0.0469
  538BENZ    R2 1813   2.056   1.059   1.118 -0.1802 -0.4024  0.0835
  538BENZ    R3 1814   2.181   0.906   0.906  0.2195 -0.0686  0.0677
  539BENZ    R1 1815   3.993   4.392   0.772 -0.1284  0.0344 -0.0242
  539BENZ    R2 1816   3.990   4.107   0.716  0.6875 -0.0782  0.3595
  539BENZ    R3 1817   4.208   4.272   0.619  0.2315  0.4353  0.1486
  540BENZ    R1 1818   5.611   2.389   5.081 -0.0686  0.0930 -0.0110
  540BENZ    R2 1819   5.373   2.226   5.111  0.0033 -0.0289 -0.0925
  540BENZ    R3 1820   5.636   2.103   5.117  0.0451  0.0095 -0.6293
  541BENZ    R1 1821   3.093   2.832   0.152  0.3870  0.3875  0.5217
  541BENZ    R2 1822   3.206   2.614   0.305  0.0669 -0.0669  0.1375
  541BENZ    R3 1823   3.377   2.774   0.135  0.2533 -0.2588  0.1394
  542BENZ    R1 1824   3.807   1.599   2.409 -0.0917  0.3345 -0.3187
  542BENZ    R2 1825   3.529   1.648   2.477 -0.1591  0.1292 -0.4382
  542BENZ    R3 1826   3.701   1.505   2.662 -0.1628  0.1572 -0.4129
  543BENZ    R1 1827   4.403   1.438   4.408  0.0505  0.0358  0.2498
  543BENZ    R2 1828   4.561   1.312   4.200 -0.0863 -0.0979  0.2245
  543BENZ    R3 1829   4.692   1.431   4.430  0.0547 -0.1245  0.1592
  544BENZ    R1 1830   3.332   4.082   3.236  0.1389  0.1641 -0.1570
  544BENZ    R2 1831   3.278   3.806   3.165  0.1218  0.1938 -0.2612
  544BENZ    R3 1832   3.087   3.954   3.326  0.2883  0.0422  0.0867
  545BENZ    R1 1833   4.484   0.985   3.089 -0.1264 -0.2482  0.1672
  545BENZ    R2 1834   4.261   1.167   3.121 -0.1441 -0.2428  0.0164
  545BENZ    R3 1835   4.474   1.165   3.317 -0.3277 -0.3230  0.2197
  546BENZ    R1 1836   4.105   1.753   0.449 -0.3381 -0.1882 -0.3089
  546BENZ    R2 1837   4.103   1.590   0.688 -0.2647 -0.1842 -0.3056
  546BENZ    R3 1838   4.241   1.497   0.451 -0.0891 -0.0581 -0.2549
  547BENZ    R1 1839   4.016   1.803   3.677  0.1893  0.1810 -0.2725
  547BENZ    R2 1840   4.133   1.548   3.602 -0.0853 -0.0148 -0.0572
  547BENZ    R3 1841   4.291   1.743   3.746  0.0441 -0.1807  0.0288
  548BENZ    R1 1842   4.140   0.838   5.419 -0.0256  0.2660  0.1882
  548BENZ    R2 1843   4.182   0.742   5.690  0.0405 -0.2496  0.0046
  548BENZ    R3 1844   4.362   0.661   5.477 -0.1725 -0.0776 -0.2472
  549BENZ    R1 1845   3.818   4.874   3.307  0.1900 -0.0198 -0.0565
  549BENZ    R2 1846   3.621   5.077   3.373 -0.2667 -0.3048 -0.4691
  549BENZ    R3 1847   3.778   5.101   3.130  0.2270 -0.0818 -0.1450
  550BENZ    R1 1848   0.079   4.001   0.098 -0.1316  0.0416 -0.1553
  550BENZ    R2 1849   0.234   4.058  -0.140 -0.2354  0.0240 -0.2276
  550BENZ    R3 1850   0.211   4.258   0.069 -0.0917  0.0160 -0.2030
  551BENZ    R1 1851   3.946   3.102   5.031  0.2561  0.0152 -0.0579
  551BENZ    R2 1852   3.695   3.054   5.169  0.4806 -0.2621  0.2726
  551BENZ    R3 1853   3.711   3.257   4.962  0.0273 -0.1312  0.3558
  552BENZ    R1 1854   2.445   0.459   0.235  0.0777 -0.2713 -0.1549
  552BENZ    R2 1855   2.187   0.581   0.187  0.1338  0.0450  0.2886
  552BENZ    R3 1856   2.402   0.617  -0.003 -0.0091  0.1846  0.1507
  553BENZ    R1 1857   1.397   4.866   1.984  0.0975 -0.0464  0.1537
  553BENZ    R2 1858   1.265   5.084   2.123  0.3311  0.0378  0.2498
  553BENZ    R3 1859   1.554   5.064   2.127  0.3148 -0.2531  0.2084
  554BENZ    R1 1860   0.927   4.707   4.646  0.0980  0.1316 -0.2540
  554BENZ    R2 1861   0.841   4.983   4.625 -0.2629  0.0344 -0.1205
  554BENZ    R3 1862   0.850   4.853   4.884  0.1563 -0.0070 -0.1490
  555BENZ    R1 1863   0.194   0.639   2.247  0.1881 -0.1487  0.0983
  555BENZ    R2 1864   0.422   0.614   2.069  0.0034 -0.3818 -0.1135
  555BENZ    R3 1865   0.237   0.835   2.037  0.3783  0.0078  0.2800
  556BENZ    R1 1866   5.755   3.752   4.731  0.4159 -0.1735 -0.1355
  556BENZ    R2 1867   5.780   4.039   4.700  0.1614 -0.1426 -0.0756
  556BENZ    R3 1868   5.546   3.902   4.597 -0.0322 -0.2351  0.4535
  557BENZ    R1 1869   5.375   5.260   2.702 -0.3364  0.0774  0.4276
  557BENZ    R2 1870   5.290   5.488   2.545  0.3770 -0.1465 -0.3586
  557BENZ    R3 1871   5.185   5.224   2.486  0.1734 -0.1500 -0.0062
  558BENZ    R1 1872   4.735   1.641   0.382 -0.0218 -0.0596  0.0298
  558BENZ    R2 1873   4.719   1.528   0.115  0.1958  0.1687 -0.0847
  558BENZ    R3 1874   4.606   1.384   0.341 -0.2283  0.0943 -0.3322
  559BENZ    R1 1875   1.624   4.486   3.819  0.1457  0.0701 -0.0763
  559BENZ    R2 1876   1.708   4.217   3.885  0.0086  0.0837  0.1628
  559BENZ    R3 1877   1.577   4.270   3.632  0.0477 -0.0710  0.1092
  560BENZ    R1 1878   1.609   2.846   2.163 -0.3359 -0.3274  0.2286
  560BENZ    R2 1879   1.321   2.840   2.127 -0.3761  0.5401  0.2010
  560BENZ    R3 1880   1.471   3.079   2.059  0.3642  0.1126  0.2226
  561BENZ    R1 1881   4.574   1.497   2.436  0.2649  0.2041 -0.2762
  561BENZ    R2 1882   4.766   1.331   2.576  0.0920  0.2180 -0.0157
  561BENZ    R3 1883   4.682   1.584   2.691  0.1127  0.3374 -0.2556
  562BENZ    R1 1884   3.333   2.238   1.355  0.1158  0.2513 -0.3917
  562BENZ    R2 1885   3.289   2.071   1.589 -0.3285  0.1938 -0.5082
  562BENZ    R3 1886   3.497   2.273   1.592 -0.1782  0.0413 -0.1486
  563BENZ    R1 1887   1.977   0.914   1.513  0.2892  0.2624 -0.0501
  563BENZ    R2 1888   2.046   0.642   1.585 -0.2837  0.0979 -0.0696
  563BENZ    R3 1889   2.063   0.728   1.308  0.2174  0.1949 -0.0193
  564BENZ    R1 1890   0.278   1.582   1.906 -0.0675  0.3270  0.1438
  564BENZ    R2 1891   0.362   1.813   1.751  0.1179  0.0593 -0.1664
  564BENZ    R3 1892   0.551   1.600   1.808  0.0123  0.0820  0.3117
  565BENZ    R1 1893   5.814   5.635   2.635 -0.1206 -0.1284 -0.2010
  565BENZ    R2 1894   5.706   5.651   2.904 -0.2721 -0.1795 -0.2575
  565BENZ    R3 1895   5.724   5.394   2.770  0.1166 -0.2027 -0.1720
  566BENZ    R1 1896   5.026   4.272   2.526 -0.1491  0.1838 -0.2845
  566BENZ    R2 1897   5.004   4.513   2.366  0.4619  0.2199 -0.3380
  566BENZ    R3 1898   5.085   4.530   2.645  0.4188  0.0829 -0.3164
  567BENZ    R1 1899   4.590   2.463   5.012 -0.1141 -0.1462  0.1156
  567BENZ    R2 1900   4.366   2.409   4.836 -0.1153 -0.5062  0.2187
  567BENZ    R3 1901   4.537   2.192   4.924  0.4468 -0.2068 -0.0773
  568BENZ    R1 1902   0.504   5.162   2.214  0.3336 -0.0732  0.2698
  568BENZ    R2 1903   0.703   5.035   2.383  0.1165 -0.1957  0.4398
  568BENZ    R3 1904   0.770   5.110   2.111  0.3335 -0.4172  0.4287
  569BENZ    R1 1905   5.733   2.116   0.877  0.3119  0.3341 -0.2563
  569BENZ    R2 1906   5.708   2.196   0.599  0.1142 -0.0303 -0.3489
  569BENZ    R3 1907   5.515   2.289   0.794 -0.0115 -0.1330 -0.4222
  570BENZ    R1 1908   3.834   2.358   4.544 -0.0867  0.2106 -0.0922
  570BENZ    R2 1909   3.951   2.457   4.791 -0.2886  0.0944  0.0529
  570BENZ    R3 1910   4.051   2.213   4.670 -0.0655  0.2504 -0.0827
  571BENZ    R1 1911   0.428   4.337   2.527 -0.4348 -0.2118  0.2931
  571BENZ    R2 1912   0.310   4.597   2.582 -0.4458 -0.0950 -0.2258
  571BENZ    R3 1913   0.550   4.578   2.420 -0.3125 -0.3997 -0.0035
  572BENZ    R1 1914   2.660   4.989   5.171  0.0185 -0.0074 -0.1471
  572BENZ    R2 1915   2.582   4.766   5.339 -0.0746 -0.0786 -0.2827
  572BENZ    R3 1916   2.434   5.015   5.350  0.0804  0.0071 -0.0706
  573BENZ    R1 1917   2.502   1.749   2.536  0.1458  0.1181  0.1507
  573BENZ    R2 1918   2.582   2.023   2.590  0.1086  0.1114  0.2405
  573BENZ    R3 1919   2.672   1.808   2.763  0.2352  0.0513  0.1016
  574BENZ    R1 1920   4.254   4.894   1.914  0.0993 -0.1755 -0.1711
  574BENZ    R2 1921   3.994   4.825   1.805 -0.1028  0.3346 -0.0388
  574BENZ    R3 1922   4.213   4.893   1.627  0.0642 -0.4491 -0.1680
  575BENZ    R1 1923   3.390   3.286   0.506 -0.0590 -0.1461 -0.1371
  575BENZ    R2 1924   3.437   3.572   0.497 -0.1866 -0.1165  0.0713
  575BENZ    R3 1925   3.624   3.398   0.635 -0.0927 -0.1385 -0.0820
  576BENZ    R1 1926   0.398   4.862   4.406  0.2522 -0.1186  0.3684
  576BENZ    R2 1927   0.653   4.723   4.396  0.4415  0.2256 -0.4199
  576BENZ    R3 1928   0.473   4.711   4.169 -0.4107 -0.2462  0.2207
  577BENZ    R1 1929   2.122   1.297   3.359 -0.0699 -0.1089 -0.1351
  577BENZ    R2 1930   2.123   1.501   3.566 -0.0057 -0.2221 -0.0226
  577BENZ    R3 1931   2.120   1.220   3.639 -0.0081 -0.2630 -0.1762
  578BENZ    R1 1932   2.763   4.168   4.585  0.0179  0.1095  0.1671
  578BENZ    R2 1933   2.908   4.142   4.835 -0.0611 -0.3547  0.1736
  578BENZ    R3 1934   3.040   4.081   4.584 -0.0536 -0.1224  0.1180
  579BENZ    R1 1935   5.693   3.437   1.068  0.4822  0.0890 -0.1254
  579BENZ    R2 1936   5.757   3.714   1.122  0.1107  0.1282  0.1562
  579BENZ    R3 1937   5.605   3.561   1.315 -0.1176 -0.1282 -0.2137
  580BENZ    R1 1938   4.497   3.073   1.955 -0.2297  0.1088  0.2137
  580BENZ    R2 1939   4.549   2.825   2.094  0.1946 -0.1134 -0.3063
  580BENZ    R3 1940   4.770   2.986   1.997 -0.0826  0.1684 -0.4884
  581BENZ    R1 1941   4.736   2.613   0.732 -0.1780 -0.3503  0.1171
  581BENZ    R2 1942   4.971   2.459   0.661 -0.0816 -0.1126 -0.0918
  581BENZ    R3 1943   4.762   2.503   0.465 -0.2527 -0.2324  0.0607
  582BENZ    R1 1944   4.386   1.161   0.784  0.1387  0.0190 -0.1451
  582BENZ    R2 1945   4.329   1.295   1.035  0.1756 -0.1388 -0.0512
  582BENZ    R3 1946   4.208   1.038   0.976 -0.0520  0.0227 -0.3160
  583BENZ    R1 1947   1.199   5.605   3.823 -0.1472  0.1900 -0.0595
  583BENZ    R2 1948   1.204   5.371   3.652 -0.1667  0.1447  0.0018
  583BENZ    R3 1949   1.403   5.579   3.618 -0.1235  0.0994 -0.0248
  584BENZ    R1 1950   0.777   3.996   0.852  0.0067  0.2033  0.0030
  584BENZ    R2 1951   0.840   3.773   0.678 -0.3121 -0.0190  0.1639
  584BENZ    R3 1952   0.723   4.014   0.568 -0.0057  0.0572 -0.0048
  585BENZ    R1 1953   0.821   4.342   0.446  0.4106 -0.3278 -0.0475
  585BENZ    R2 1954   1.076   4.334   0.585  0.2400  0.0664  0.3105
  585BENZ    R3 1955   0.976   4.585   0.478  0.3578 -0.2166 -0.5449
  586BENZ    R1 1956   5.034   0.655   1.514 -0.1961  0.0182 -0.0120
  586BENZ    R2 1957   4.912   0.580   1.262  0.4524 -0.0103 -0.3384
  586BENZ    R3 1958   5.002   0.852   1.304 -0.4826  0.2562  0.2447
  587BENZ    R1 1959   2.965   1.761   5.413  0.4632 -0.0578  0.1935
  587BENZ    R2 1960   3.139   1.698   5.189  0.0408 -0.1485 -0.1228
  587BENZ    R3 1961   2.916   1.524   5.253 -0.0490  0.0614  0.1567
  588BENZ    R1 1962   2.843   5.701   0.091  0.1805  0.0289  0.0349
  588BENZ    R2 1963   3.000   5.932   0.169  0.2639 -0.0909  0.2262
  588BENZ    R3 1964   2.931   5.729   0.365 -0.0050 -0.1150  0.1116
  589BENZ    R1 1965   1.152   4.453   3.453  0.0737 -0.0538 -0.0477
  589BENZ    R2 1966   1.099   4.204   3.591 -0.0064 -0.0173 -0.0121
  589BENZ    R3 1967   1.291   4.211   3.374  0.4923  0.0201  0.4087
  590BENZ    R1 1968   3.301   5.323   2.486 -0.1865 -0.3165 -0.1530
  590BENZ    R2 1969   3.196   5.272   2.752  0.0722  0.3009  0.0883
  590BENZ    R3 1970   3.378   5.082   2.628 -0.1894 -0.0794  0.2670
  591BENZ    R1 1971   3.588   2.994   1.726  0.2407 -0.2832 -0.1016
  591BENZ    R2 1972   3.523   3.017   2.007 -0.0603  0.0811 -0.1927
  591BENZ    R3 1973   3.709   2.813   1.918 -0.1211 -0.1766  0.2393
  592BENZ    R1 1974   0.522   4.448   5.319  0.0964 -0.1616 -0.0712
  592BENZ    R2 1975   0.529   4.295   5.565  0.2814  0.2001  0.1573
  592BENZ    R3 1976   0.558   4.160   5.310  0.1067 -0.1780  0.3289
  593BENZ    R1 1977   2.608   1.491   0.796  0.1376 -0.0525  0.0185
  593BENZ    R2 1978   2.610   1.393   0.524 -0.0690 -0.1582  0.0527
  593BENZ    R3 1979   2.362   1.481   0.644 -0.0217 -0.3259  0.2815
  594BENZ    R1 1980   5.146   2.170   2.199 -0.1107 -0.2529  0.3920
  594BENZ    R2 1981   4.873   2.269   2.216 -0.1240 -0.1351 -0.2479
  594BENZ    R3 1982   4.961   2.125   1.979  0.4750  0.1678 -0.2287
  595BENZ    R1 1983   3.758   0.210   4.237 -0.0849  0.0454 -0.3444
  595BENZ    R2 1984   3.473   0.170   4.277  0.0097 -0.1488  0.2463
  595BENZ    R3 1985   3.596   0.423   4.349  0.0688 -0.2572  0.5409
  596BENZ    R1 1986   1.322   3.981   2.308 -0.3556  0.1882 -0.0419
  596BENZ    R2 1987   1.490   3.937   2.076  0.0278  0.0766  0.2450
  596BENZ    R3 1988   1.243   3.788   2.107  0.0497 -0.0197 -0.0137
  597BENZ    R1 1989   1.165   0.423   4.256 -0.0477  0.2771  0.2065
  597BENZ    R2 1990   1.275   0.678   4.175  0.2948  0.1482  0.2486
  597BENZ    R3 1991   1.434   0.496   4.335  0.0797 -0.1196  0.1650
  598BENZ    R1 1992   5.713   0.108   5.795  0.2692 -0.3544  0.1270
  598BENZ    R2 1993   5.703   0.380   5.895 -0.0909 -0.1836 -0.3379
  598BENZ    R3 1994   5.935   0.214   5.949  0.0698  0.1584  0.0786
  599BENZ    R1 1995   0.899   2.380   1.075 -0.1140  0.1604  0.0732
  599BENZ    R2 1996   0.640   2.447   0.964 -0.0120  0.0515 -0.2411
  599BENZ    R3 1997   0.829   2.293   0.808  0.0960 -0.2066  0.1314
  600BENZ    R1 1998   1.176   2.006   1.593  0.1667 -0.1940 -0.0555
  600BENZ    R2 1999   1.033   2.103   1.360  0.1796 -0.7092 -0.2908
  600BENZ    R3 2000   0.930   2.156   1.626 -0.1580 -0.6158 -0.4344
  601BENZ    R1 2001   3.127   0.193   4.142  0.0545  0.0260 -0.0976
  601BENZ    R2 2002   3.065  -0.089   4.124  0.1586 -0.0273  0.2770
  601BENZ    R3 2003   3.208   0.042   3.908 -0.2626 -0.1549 -0.0963
  602BENZ    R1 2004   3.272   0.887   5.551 -0.2317 -0.0400 -0.0794
  602BENZ    R2 2005   3.044   0.732   5.643 -0.1215 -0.3459 -0.3017
  602BENZ    R3 2006   3.311   0.619   5.655  0.0711  0.1140  0.2226
  603BENZ    R1 2007   0.208   3.465   1.566  0.0769 -0.1468  0.1393
  603BENZ    R2 2008   0.390   3.685   1.619  0.0678 -0.2215  0.5096
  603BENZ    R3 2009   0.273   3.654   1.356 -0.1918  0.4134  0.5338
  604BENZ    R1 2010   5.469   5.080   2.131 -0.1300 -0.0430  0.1967
  604BENZ    R2 2011   5.407   5.346   2.227 -0.0925  0.0861 -0.1239
  604BENZ    R3 2012   5.196   5.175   2.127 -0.1164 -0.0061  0.0805
  605BENZ    R1 2013   0.092   0.448   3.687  0.1609  0.0161 -0.2176
  605BENZ    R2 2014   0.001   0.525   3.423  0.1421  0.1789 -0.1645
  605BENZ    R3 2015   0.002   0.719   3.639  0.5077  0.1516 -0.1358
  606BENZ    R1 2016   4.156   3.635   5.414  0.1438  0.1689  0.1426
  606BENZ    R2 2017   4.027   3.384   5.347 -0.0522  0.2425  0.2373
  606BENZ    R3 2018   4.059   3.588   5.144  0.1472  0.1261  0.1487
  607BENZ    R1 2019   1.343   3.637   2.779 -0.0198 -0.2071  0.0285
  607BENZ    R2 2020   1.214   3.789   2.990 -0.1215 -0.0085 -0.1723
  607BENZ    R3 2021   1.113   3.803   2.718  0.0987 -0.1429 -0.2643
  608BENZ    R1 2022   2.016   4.929   1.004 -0.1144  0.1443  0.2269
  608BENZ    R2 2023   2.222   4.874   1.201  0.0243 -0.1250  0.0148
  608BENZ    R3 2024   1.952   4.773   1.240  0.1233 -0.4327 -0.0681
  609BENZ    R1 2025   4.439   2.074   2.422  0.0248  0.1800  0.0000
  609BENZ    R2 2026   4.286   1.951   2.635  0.0271  0.0913 -0.0489
  609BENZ    R3 2027   4.499   1.803   2.506  0.0861  0.1773 -0.0513
  610BENZ    R1 2028   5.625   2.549   2.182 -0.0142  0.0325 -0.0698
  610BENZ    R2 2029   5.519   2.321   2.326  0.0125 -0.1001 -0.2555
  610BENZ    R3 2030   5.340   2.495   2.178  0.0385 -0.2742 -0.4982
  611BENZ    R1 2031   2.391   3.441   3.303  0.0247  0.1005 -0.3880
  611BENZ    R2 2032   2.166   3.501   3.130 -0.2515  0.4215  0.0616
  611BENZ    R3 2033   2.156   3.572   3.411  0.2258  0.0049  0.1985
  612BENZ    R1 2034   0.287   5.376   0.610  0.3124  0.0379 -0.1555
  612BENZ    R2 2035   0.148   5.300   0.367  0.2645 -0.1185 -0.0799
  612BENZ    R3 2036   0.383   5.153   0.452  0.1015 -0.2646  0.1309
  613BENZ    R1 2037   3.088   5.815   2.322  0.0922 -0.1341  0.0521
  613BENZ    R2 2038   2.831   5.884   2.207  0.0117  0.0725  0.3439
  613BENZ    R3 2039   2.985   5.664   2.098  0.0312  0.3737 -0.2791
  614BENZ    R1 2040   5.233   2.822   3.109 -0.2061 -0.0890 -0.0202
  614BENZ    R2 2041   5.175   2.780   3.390  0.1112 -0.3767  0.0095
  614BENZ    R3 2042   5.158   2.558   3.204 -0.0925 -0.1889 -0.2022
  615BENZ    R1 2043   4.008   4.411   5.715  0.0852  0.0472 -0.0326
  615BENZ    R2 2044   3.801   4.580   5.603 -0.1614 -0.0644  0.2421
  615BENZ    R3 2045   4.048   4.538   5.457 -0.2959  0.1350 -0.0543
  616BENZ    R1 2046   0.785   2.004   1.161 -0.2320 -0.0328  0.0210
  616BENZ    R2 2047   0.711   2.228   1.329 -0.0495  0.0096  0.0472
  616BENZ    R3 2048   0.507   2.045   1.234 -0.1887  0.1364  0.0960
  617BENZ    R1 2049   4.867   1.691   3.656  0.1032  0.0089  0.4926
  617BENZ    R2 2050   5.012   1.445   3.608 -0.2936 -0.0983 -0.3351
  617BENZ    R3 2051   5.082   1.685   3.462 -0.2000  0.1757  0.1386
  618BENZ    R1 2052   4.317   4.271   3.524 -0.1997  0.0935 -0.0035
  618BENZ    R2 2053   4.402   4.361   3.262 -0.0532 -0.2206 -0.0689
  618BENZ    R3 2054   4.410   4.543   3.487 -0.0012 -0.0022 -0.2434
  619BENZ    R1 2055   1.837   2.032   0.737  0.0955 -0.0047 -0.2889
  619BENZ    R2 2056   1.549   2.006   0.750  0.1076  0.0358  0.3866
  619BENZ    R3 2057   1.707   1.799   0.624 -0.2196  0.1274 -0.2104
  620BENZ    R1 2058   1.771   3.418   5.640 -0.0166  0.0513 -0.0412
  620BENZ    R2 2059   1.939   3.233   5.786 -0.0619 -0.2227 -0.3260
  620BENZ    R3 2060   1.671   3.290   5.880  0.1530  0.1628  0.0911
  621BENZ    R1 2061   1.480   3.021   5.357  0.0807  0.0364 -0.1646
  621BENZ    R2 2062   1.305   3.014   5.126  0.1382  0.3395 -0.2225
  621BENZ    R3 2063   1.252   3.200   5.342  0.0373  0.0024  0.0525
  622BENZ    R1 2064   2.781   3.223   3.046 -0.0463  0.0413 -0.4023
  622BENZ    R2 2065   2.619   3.142   3.273  0.1342  0.0188 -0.2792
  622BENZ    R3 2066   2.498   3.169   3.010  0.0113 -0.3831 -0.2706
  623BENZ    R1 2067   3.310   1.173   5.229 -0.0508 -0.0590 -0.0879
  623BENZ    R2 2068   3.216   1.266   5.488  0.0919 -0.2127  0.0213
  623BENZ    R3 2069   3.335   1.453   5.301 -0.1992 -0.0630 -0.0187
  624BENZ    R1 2070   5.620   4.493   2.211 -0.2994 -0.0953 -0.3212
  624BENZ    R2 2071   5.796   4.356   2.397 -0.2829 -0.0025 -0.2682
  624BENZ    R3 2072   5.885   4.599   2.265 -0.3316 -0.0139 -0.3222
  625BENZ    R1 2073   1.191   3.233   1.969 -0.1737 -0.1332  0.0393
  625BENZ    R2 2074   1.386   3.425   2.065 -0.1618 -0.0510 -0.1459
  625BENZ    R3 2075   1.102   3.479   2.094 -0.1611  0.0931 -0.3805
  626BENZ    R1 2076   3.771   3.561   2.106  0.1210 -0.1492 -0.4817
  626BENZ    R2 2077   4.054   3.583   2.046  0.1113  0.2358 -0.4119
  626BENZ    R3 2078   3.906   3.816   2.134 -0.0628 -0.1122  0.2853
  627BENZ    R1 2079   3.085   2.583   3.462  0.0486 -0.3339 -0.0003
  627BENZ    R2 2080   3.309   2.464   3.320 -0.1422 -0.2639 -0.3723
  627BENZ    R3 2081   3.144   2.301   3.495  0.2521 -0.2945 -0.0135
  628BENZ    R1 2082   1.186   0.196   3.214  0.1549 -0.2650 -0.2490
  628BENZ    R2 2083   1.033   0.419   3.319 -0.0993 -0.5891  0.0969
  628BENZ    R3 2084   1.120   0.421   3.043  0.1123  0.0387  0.1503
  629BENZ    R1 2085   4.545   2.433   2.158  0.2583  0.1977  0.3091
  629BENZ    R2 2086   4.497   2.392   2.441  0.3542 -0.6128  0.2315
  629BENZ    R3 2087   4.294   2.319   2.248  0.2635 -0.0049  0.0770
  630BENZ    R1 2088   0.894   2.129   3.640 -0.0832  0.3458  0.1348
  630BENZ    R2 2089   0.981   2.400   3.697  0.3061  0.2455  0.0492
  630BENZ    R3 2090   1.017   2.288   3.432  0.1535  0.1053  0.0855
  631BENZ    R1 2091   5.683   4.451   1.284 -0.0433 -0.0812  0.0828
  631BENZ    R2 2092   5.408   4.499   1.204 -0.0098 -0.1069 -0.0501
  631BENZ    R3 2093   5.477   4.257   1.349 -0.0890 -0.0088  0.1564
  632BENZ    R1 2094   3.504   5.380   5.287  0.0995 -0.3547 -0.6437
  632BENZ    R2 2095   3.438   5.110   5.368 -0.0831 -0.1130  0.0918
  632BENZ    R3 2096   3.703   5.170   5.266 -0.1015 -0.5930 -0.2770
  633BENZ    R1 2097   4.118   2.570   1.201  0.0221  0.3793  0.0818
  633BENZ    R2 2098   4.334   2.511   1.386  0.0514  0.2030 -0.0067
  633BENZ    R3 2099   4.144   2.304   1.313  0.0609  0.2609 -0.2014
  634BENZ    R1 2100   1.567   2.200   5.632  0.0300  0.0963  0.3466
  634BENZ    R2 2101   1.528   2.317   5.895 -0.5911 -0.0421  0.3336
  634BENZ    R3 2102   1.299   2.240   5.736 -0.2246 -0.0589 -0.2146
  635BENZ    R1 2103   0.706   4.908   3.829  0.1546 -0.1114  0.0713
  635BENZ    R2 2104   0.680   5.129   4.015  0.3670 -0.1726  0.1768
  635BENZ    R3 2105   0.939   5.063   3.903  0.2569 -0.1961 -0.0702
  636BENZ    R1 2106   2.981   0.465   3.560 -0.0876  0.1273 -0.4397
  636BENZ    R2 2107   2.870   0.733   3.554 -0.1263  0.1213 -0.1461
  636BENZ    R3 2108   3.027   0.647   3.781 -0.5160 -0.2613 -0.0076
  637BENZ    R1 2109   3.105   2.052   0.240  0.1346  0.1761 -0.0432
  637BENZ    R2 2110   3.044   1.823   0.074 -0.1681 -0.0509  0.3632
  637BENZ    R3 2111   3.070   2.086  -0.045  0.3346 -0.3054 -0.1345
  638BENZ    R1 2112   3.119   2.295   4.857  0.1508  0.1229 -0.5060
  638BENZ    R2 2113   2.979   2.530   4.759  0.0948  0.2604 -0.1164
  638BENZ    R3 2114   2.833   2.321   4.897  0.2208  0.2376 -0.0159
  639BENZ    R1 2115   0.446   1.121   2.144  0.0350 -0.1043  0.2419
  639BENZ    R2 2116   0.684   1.257   2.049 -0.1928  0.0438 -0.1410
  639BENZ    R3 2117   0.664   0.969   2.028 -0.0092  0.0189 -0.0087
  640BENZ    R1 2118   5.541   4.817   0.745  0.1525  0.1016  0.6374
  640BENZ    R2 2119   5.595   4.589   0.916  0.1408 -0.1216  0.3514
  640BENZ    R3 2120   5.325   4.692   0.892  0.0824 -0.3025  0.2134
  641BENZ    R1 2121   1.920   3.307   2.025  0.3378 -0.1862 -0.0865
  641BENZ    R2 2122   1.926   3.240   1.743 -0.0505 -0.3597 -0.0592
  641BENZ    R3 2123   2.038   3.057   1.938  0.0794 -0.3108 -0.0870
  642BENZ    R1 2124   2.937   1.541   2.122 -0.0965 -0.1386  0.2147
  642BENZ    R2 2125   3.100   1.572   2.361  0.2834  0.4222 -0.0952
  642BENZ    R3 2126   2.847   1.714   2.337 -0.0714 -0.1228  0.2125
  643BENZ    R1 2127   3.171   2.765   0.681 -0.2907 -0.0142  0.3621
  643BENZ    R2 2128   3.389   2.934   0.590 -0.5329  0.0726 -0.0820
  643BENZ    R3 2129   3.359   2.875   0.872  0.0541  0.0667 -0.0103
  644BENZ    R1 2130   5.504   3.127   1.528  0.0241 -0.0792  0.4296
  644BENZ    R2 2131   5.706   3.181   1.729  0.2874  0.0483  0.1404
  644BENZ    R3 2132   5.771   3.209   1.448 -0.0361 -0.2511  0.0287
  645BENZ    R1 2133   5.446   3.120   4.765  0.0088  0.3435  0.3233
  645BENZ    R2 2134   5.409   3.134   5.053  0.3749  0.1859  0.3836
  645BENZ    R3 2135   5.673   3.083   4.942  0.2128  0.0989  0.0220
  646BENZ    R1 2136   2.536   4.037   5.234 -0.5699 -0.2245  0.1849
  646BENZ    R2 2137   2.683   4.150   5.457 -0.1914  0.2710 -0.2868
  646BENZ    R3 2138   2.405   4.220   5.416 -0.2217  0.2921 -0.0568
  647BENZ    R1 2139   5.711   1.611   2.545  0.0588  0.1766  0.2076
  647BENZ    R2 2140   5.498   1.808   2.548 -0.1573 -0.0452 -0.0810
  647BENZ    R3 2141   5.716   1.833   2.359 -0.0075  0.0929  0.1056
  648BENZ    R1 2142   2.796   3.072   5.067 -0.1932  0.0264  0.1006
  648BENZ    R2 2143   2.877   3.212   5.307 -0.2069  0.0531  0.0898
  648BENZ    R3 2144   2.942   3.322   5.047 -0.0589 -0.0528  0.0807
  649BENZ    R1 2145   3.614   1.241   4.981  0.3625 -0.3306  0.1099
  649BENZ    R2 2146   3.666   1.515   5.060  0.3014 -0.3275  0.1400
  649BENZ    R3 2147   3.835   1.387   4.863 -0.0196 -0.0719 -0.3221
  650BENZ    R1 2148   4.611   5.663   3.541  0.0653 -0.0600  0.0812
  650BENZ    R2 2149   4.341   5.608   3.634  0.0737  0.1009  0.2040
  650BENZ    R3 2150   4.558   5.635   3.825  0.1831 -0.0542  0.1040
  651BENZ    R1 2151   0.390   0.137   2.097  0.0719  0.1343 -0.0754
  651BENZ    R2 2152   0.305   0.307   2.317  0.0525 -0.0343  0.0494
  651BENZ    R3 2153   0.150   0.297   2.072  0.2214  0.3626 -0.0815
  652BENZ    R1 2154   1.048   1.759   0.061 -0.3387  0.3735 -0.2338
  652BENZ    R2 2155   1.318   1.862   0.042 -0.1860  0.0859  0.2029
  652BENZ    R3 2156   1.119   1.939  -0.154  0.1514  0.4727 -0.0037
  653BENZ    R1 2157   4.026   2.043   5.441 -0.1865  0.1636 -0.0023
  653BENZ    R2 2158   4.242   2.066   5.249  0.0815 -0.0381  0.2664
  653BENZ    R3 2159   4.105   1.813   5.284 -0.3954  0.1557 -0.0989
  654BENZ    R1 2160   2.337   2.585   1.831 -0.2554  0.1488 -0.3380
  654BENZ    R2 2161   2.264   2.847   1.931 -0.4951  0.1302 -0.4556
  654BENZ    R3 2162   2.371   2.819   1.663  0.2980  0.1999 -0.1738
  655BENZ    R1 2163   3.615   3.963   1.901 -0.0110 -0.1403 -0.0873
  655BENZ    R2 2164   3.406   3.775   1.974 -0.2774 -0.0146 -0.4897
  655BENZ    R3 2165   3.616   3.694   1.790  0.0288 -0.1341 -0.1022
  656BENZ    R1 2166   2.395   4.251   1.402 -0.1991  0.2990  0.2300
  656BENZ    R2 2167   2.176   4.203   1.585 -0.1859 -0.0058  0.1708
  656BENZ    R3 2168   2.419   4.046   1.605 -0.1489  0.0207 -0.0498
  657BENZ    R1 2169   3.824   3.345   1.801  0.0482  0.2856 -0.1108
  657BENZ    R2 2170   3.919   3.156   1.999  0.8125  0.4508 -0.2870
  657BENZ    R3 2171   3.948   3.097   1.717 -0.4501  0.1222 -0.4131
  658BENZ    R1 2172   2.640   3.220   2.174 -0.0445  0.1527 -0.1748
  658BENZ    R2 2173   2.414   3.253   1.995 -0.2732 -0.0147  0.0751
  658BENZ    R3 2174   2.404   3.054   2.205  0.1849 -0.1545 -0.0250
  659BENZ    R1 2175   2.466   1.054   3.024 -0.2485  0.0182  0.1061
  659BENZ    R2 2176   2.587   1.010   2.765 -0.0275  0.1979  0.1761
  659BENZ    R3 2177   2.399   0.817   2.871 -0.2949  0.2331 -0.2144
  660BENZ    R1 2178   0.598   5.371   3.537 -0.0111  0.0434 -0.3926
  660BENZ    R2 2179   0.810   5.175   3.565 -0.2852 -0.1705  0.5828
  660BENZ    R3 2180   0.850   5.445   3.661 -0.1243  0.1071 -0.1957
  661BENZ    R1 2181   5.642   2.580   3.255  0.0634  0.0404 -0.0724
  661BENZ    R2 2182   5.603   2.296   3.301  0.0764  0.0660  0.1035
  661BENZ    R3 2183   5.734   2.387   3.059  0.1766 -0.0842  0.0997
  662BENZ    R1 2184   0.956   5.045   0.828  0.1320 -0.3200  0.1333
  662BENZ    R2 2185   0.682   5.090   0.744  0.0913 -0.3970  0.2229
  662BENZ    R3 2186   0.863   4.942   0.573  0.0934 -0.2981  0.1383
  663BENZ    R1 2187   0.626   5.625   5.029 -0.2402  0.0677 -0.0372
  663BENZ    R2 2188   0.771   5.789   5.219 -0.3012 -0.1623  0.2153
  663BENZ    R3 2189   0.573   5.909   5.043  0.0838  0.1315 -0.0341
  664BENZ    R1 2190   5.343   5.277   1.812  0.1974  0.2456 -0.3355
  664BENZ    R2 2191   5.235   5.007   1.812  0.1828  0.2445  0.0928
  664BENZ    R3 2192   5.469   5.070   1.652 -0.0309  0.0749 -0.3004
  665BENZ    R1 2193   3.585   2.811   3.325 -0.1718 -0.2893 -0.1298
  665BENZ    R2 2194   3.498   3.004   3.126 -0.4285 -0.0926  0.1633
  665BENZ    R3 2195   3.305   2.828   3.252 -0.2861 -0.1448  0.3127
  666BENZ    R1 2196   3.656   1.160   4.479 -0.2087 -0.2748 -0.3130
  666BENZ    R2 2197   3.403   1.084   4.600 -0.1027  0.0788  0.1595
  666BENZ    R3 2198   3.651   0.971   4.699 -0.0377  0.1042  0.0283
  667BENZ    R1 2199   4.567   4.155   4.770 -0.0285  0.0446 -0.0083
  667BENZ    R2 2200   4.832   4.266   4.811 -0.1037  0.2294 -0.0160
  667BENZ    R3 2201   4.615   4.437   4.722 -0.1631  0.0246 -0.2761
  668BENZ    R1 2202   2.871   1.086   4.144  0.1988  0.1296  0.0752
  668BENZ    R2 2203   2.731   1.338   4.165  0.1799  0.1120  0.1663
  668BENZ    R3 2204   2.894   1.245   4.386  0.1943  0.0490  0.1291
  669BENZ    R1 2205   0.595   0.862   2.994  0.0315 -0.1547 -0.0109
  669BENZ    R2 2206   0.779   1.083   2.955  0.0388 -0.1756 -0.0969
  669BENZ    R3 2207   0.551   1.051   2.779  0.0976 -0.2978 -0.1524
  670BENZ    R1 2208   2.169   2.627   5.787  0.1362  0.0244 -0.1562
  670BENZ    R2 2209   2.246   2.861   5.939  0.3558 -0.3391  0.3202
  670BENZ    R3 2210   2.428   2.637   5.916  0.1399 -0.4825 -0.1038
  671BENZ    R1 2211   4.724   3.380   5.488  0.1585  0.3548  0.2235
  671BENZ    R2 2212   4.924   3.177   5.436 -0.4346 -0.2082  0.0022
  671BENZ    R3 2213   4.906   3.410   5.265 -0.2224 -0.3487 -0.2195
  672BENZ    R1 2214   0.338   1.867   3.702  0.0142  0.0281 -0.0229
  672BENZ    R2 2215   0.319   1.843   3.414 -0.2817 -0.0988  0.0029
  672BENZ    R3 2216   0.247   2.092   3.543  0.1823  0.0756 -0.0537
  673BENZ    R1 2217   3.079   1.105   0.885 -0.0416 -0.1980 -0.0066
  673BENZ    R2 2218   2.979   1.376   0.861  0.1301 -0.1241  0.0906
  673BENZ    R3 2219   2.879   1.202   1.071  0.0377 -0.1286  0.0434
  674BENZ    R1 2220   0.838   0.029   4.818 -0.4584 -0.2492 -0.1652
  674BENZ    R2 2221   0.927  -0.246   4.788 -0.3106 -0.2250  0.0331
  674BENZ    R3 2222   1.074  -0.064   4.959 -0.0953  0.1254 -0.4980
  675BENZ    R1 2223   0.322   0.472   5.186 -0.8922  0.4841 -0.2800
  675BENZ    R2 2224   0.329   0.324   4.937 -0.3355  0.1935 -0.1077
  675BENZ    R3 2225   0.106   0.290   5.120 -0.3707 -0.1992 -0.2131
  676BENZ    R1 2226   2.859   0.440   0.307 -0.1297 -0.0278  0.2128
  676BENZ    R2 2227   2.743   0.426   0.041 -0.0654  0.0440  0.1806
  676BENZ    R3 2228   3.027   0.475   0.073 -0.1165  0.3017  0.2663
  677BENZ    R1 2229   3.715   1.244   2.380 -0.0191 -0.0754  0.2783
  677BENZ    R2 2230   3.908   1.168   2.178 -0.0788 -0.2251  0.2758
  677BENZ    R3 2231   3.774   0.963   2.334 -0.1055 -0.1147  0.3995
  678BENZ    R1 2232   0.020   1.468   1.191  0.1407 -0.3198 -0.1278
  678BENZ    R2 2233   0.069   1.750   1.233 -0.3243 -0.2448 -0.0330
  678BENZ    R3 2234   0.049   1.645   0.964  0.2697 -0.2771 -0.0792
  679BENZ    R1 2235   2.180   3.914   5.372  0.3611 -0.0220  0.1259
  679BENZ    R2 2236   2.139   3.674   5.215  0.0648  0.0046  0.1557
  679BENZ    R3 2237   1.974   3.907   5.168  0.1318  0.0928  0.3480
  680BENZ    R1 2238   3.007   4.887   5.320  0.4984  0.0270  0.1683
  680BENZ    R2 2239   2.869   4.654   5.423  0.0567  0.0568 -0.3168
  680BENZ    R3 2240   2.916   4.882   5.595 -0.0971 -0.1317 -0.0166
  681BENZ    R1 2241   1.996   3.891   4.054  0.0073 -0.0459 -0.2232
  681BENZ    R2 2242   2.132   3.747   3.843  0.0575 -0.0725 -0.1732
  681BENZ    R3 2243   2.155   3.656   4.117  0.4196  0.2588 -0.0841
  682BENZ    R1 2244   4.258   0.398   0.227  0.1823  0.2147  0.3440
  682BENZ    R2 2245   4.141   0.661   0.260 -0.2267  0.0843  0.0164
  682BENZ    R3 2246   4.054   0.441   0.428 -0.1086  0.0883  0.0838
  683BENZ    R1 2247   5.194   0.962   0.981 -0.0654  0.1120 -0.2184
  683BENZ    R2 2248   5.465   0.929   0.885 -0.0194  0.1687 -0.1106
  683BENZ    R3 2249   5.413   1.096   1.116 -0.1297  0.0450 -0.0447
  684BENZ    R1 2250   3.491   1.294   1.159 -0.1108  0.3949  0.4347
  684BENZ    R2 2251   3.477   1.130   1.398 -0.5742  0.2379  0.3125
  684BENZ    R3 2252   3.243   1.160   1.230 -0.1543 -0.0033 -0.3560
  685BENZ    R1 2253   0.728   0.025   0.524 -0.1806 -0.0177 -0.0062
  685BENZ    R2 2254   0.760   0.309   0.473 -0.2160  0.0015  0.0770
  685BENZ    R3 2255   0.841   0.197   0.728 -0.1656 -0.0703  0.0300
  686BENZ    R1 2256   3.150   5.519   4.656  0.3148 -0.2299 -0.0764
  686BENZ    R2 2257   3.125   5.280   4.818 -0.1546 -0.3094 -0.2512
  686BENZ    R3 2258   2.889   5.435   4.750  0.0630 -0.1410 -0.6535
  687BENZ    R1 2259   4.762   1.513   5.036 -0.2746  0.0414 -0.1086
  687BENZ    R2 2260   4.714   1.602   4.765  0.1887 -0.3184 -0.3230
  687BENZ    R3 2261   4.706   1.320   4.828 -0.2852 -0.2186  0.1298
  688BENZ    R1 2262   2.564   5.558   0.294  0.0513 -0.2202  0.2208
  688BENZ    R2 2263   2.578   5.293   0.175  0.0561 -0.0874 -0.0826
  688BENZ    R3 2264   2.573   5.529   0.006  0.0149  0.1077  0.1830
  689BENZ    R1 2265   2.759   4.015   1.009  0.1994  0.2205  0.6415
  689BENZ    R2 2266   2.563   3.947   1.211 -0.3315 -0.0323  0.0767
  689BENZ    R3 2267   2.571   3.799   0.962  0.3704  0.1988 -0.0601
  690BENZ    R1 2268   4.697   2.954   2.974 -0.1110 -0.1026 -0.0478
  690BENZ    R2 2269   4.932   2.824   2.867 -0.0722 -0.0759  0.0044
  690BENZ    R3 2270   4.943   2.951   3.127 -0.2584 -0.4340  0.1954
  691BENZ    R1 2271   2.246   3.894   2.016 -0.0112 -0.5795  0.2961
  691BENZ    R2 2272   2.396   3.728   2.201  0.3604 -0.6064 -0.0164
  691BENZ    R3 2273   2.307   3.618   1.947  0.1351 -0.4794  0.0054
  692BENZ    R1 2274   3.467   1.522   1.881  0.2125  0.1707 -0.1161
  692BENZ    R2 2275   3.444   1.511   2.170 -0.1212  0.1956 -0.1380
  692BENZ    R3 2276   3.705   1.502   2.045  0.0239  0.1351  0.1610
  693BENZ    R1 2277   0.247   1.988   2.329  0.0908 -0.1815 -0.0602
  693BENZ    R2 2278   0.437   1.950   2.113  0.3224  0.2525  0.0556
  693BENZ    R3 2279   0.153   1.921   2.063  0.3750  0.2997 -0.2963
  694BENZ    R1 2280   5.026   3.225   0.219  0.0547 -0.1237  0.1608
  694BENZ    R2 2281   4.995   3.394  -0.014  0.0256 -0.2662  0.0603
  694BENZ    R3 2282   4.762   3.278   0.112  0.0067  0.0980  0.3789
  695BENZ    R1 2283   0.149   3.558   4.018 -0.3655  0.2733  0.0631
  695BENZ    R2 2284  -0.131   3.583   4.091 -0.3108 -0.0005  0.3963
  695BENZ    R3 2285   0.071   3.552   4.298 -0.1198 -0.5800  0.1449
  696BENZ    R1 2286   0.559   2.653   4.165 -0.0810  0.1206  0.2602
  696BENZ    R2 2287   0.769   2.496   4.289 -0.2105  0.0016  0.3309
  696BENZ    R3 2288   0.836   2.736   4.141  0.0479 -0.3864 -0.2181
  697BENZ    R1 2289   1.109   3.459   0.751  0.4151  0.0540  0.0040
  697BENZ    R2 2290   1.252   3.594   0.538  0.2474  0.0858 -0.0900
  697BENZ    R3 2291   1.090   3.362   0.478 -0.0817  0.3011 -0.0598
  698BENZ    R1 2292   4.921   1.514   0.963 -0.1642 -0.0267 -0.1232
  698BENZ    R2 2293   4.940   1.229   0.911  0.0266  0.0265 -0.3627
  698BENZ    R3 2294   4.720   1.383   0.800 -0.2837 -0.0865  0.0684
  699BENZ    R1 2295   4.266   0.611   3.317 -0.2554 -0.2769  0.2154
  699BENZ    R2 2296   4.299   0.342   3.215 -0.2654 -0.1849 -0.0377
  699BENZ    R3 2297   4.050   0.419   3.342 -0.0889 -0.4354  0.4919
  700BENZ    R1 2298   2.576   3.386   5.055  0.3667 -0.4861 -0.1075
  700BENZ    R2 2299   2.354   3.374   4.868  0.0307 -0.2272  0.2559
  700BENZ    R3 2300   2.304   3.360   5.153  0.4986 -0.2613  0.3452
  701BENZ    R1 2301   0.654   2.258   5.806 -0.0279 -0.2673  0.3140
  701BENZ    R2 2302   0.828   2.027   5.826  0.0148 -0.2667  0.0092
  701BENZ    R3 2303   0.920   2.266   5.690 -0.2412 -0.2859 -0.2075
  702BENZ    R1 2304   1.858   3.926   3.711 -0.2393  0.0258  0.1957
  702BENZ    R2 2305   1.822   3.895   3.425 -0.0783  0.1331  0.1628
  702BENZ    R3 2306   1.930   4.142   3.532 -0.1085  0.0819  0.3140
  703BENZ    R1 2307   0.813   3.541   0.165 -0.0030  0.0338 -0.0448
  703BENZ    R2 2308   0.673   3.598   0.412  0.1525  0.3286 -0.0192
  703BENZ    R3 2309   0.653   3.335   0.291 -0.2195  0.2898  0.1110
  704BENZ    R1 2310   1.417   5.150   4.631  0.3766  0.0468 -0.1236
  704BENZ    R2 2311   1.146   5.138   4.528  0.3251  0.2175 -0.0117
  704BENZ    R3 2312   1.270   4.900   4.637  0.1272  0.1937  0.1679
  705BENZ    R1 2313   5.730   2.571   5.558  0.0688 -0.2112 -0.2045
  705BENZ    R2 2314   5.830   2.329   5.681  0.2141  0.0406  0.1925
  705BENZ    R3 2315   5.982   2.575   5.700  0.1072  0.1525 -0.2724
  706BENZ    R1 2316   4.278   4.940   0.096 -0.0896  0.0312 -0.0575
  706BENZ    R2 2317   4.099   5.148   0.191 -0.1108 -0.0525  0.0884
  706BENZ    R3 2318   4.172   4.928   0.365  0.3464  0.1183  0.1266
  707BENZ    R1 2319   4.322   4.434   1.742  0.3203 -0.3613 -0.2286
  707BENZ    R2 2320   4.149   4.392   1.513 -0.2624 -0.1962  0.1577
  707BENZ    R3 2321   4.371   4.579   1.495 -0.1891 -0.3150 -0.3133
  708BENZ    R1 2322   2.169   3.000   3.034 -0.1742 -0.0371 -0.5191
  708BENZ    R2 2323   2.355   2.801   3.134 -0.5348 -0.0600  0.1625
  708BENZ    R3 2324   2.171   2.732   2.921 -0.0971 -0.1786 -0.1934
  709BENZ    R1 2325   3.487   1.818   4.271  0.2827 -0.1292 -0.1183
  709BENZ    R2 2326   3.489   1.787   4.560  0.0026 -0.1501 -0.1156
  709BENZ    R3 2327   3.647   1.609   4.394  0.3517  0.0104  0.0334
  710BENZ    R1 2328   3.647   0.765   4.125 -0.0807 -0.2351 -0.0575
  710BENZ    R2 2329   3.885   0.769   4.290 -0.2437 -0.3281  0.1847
  710BENZ    R3 2330   3.828   0.538   4.125  0.1046 -0.0914 -0.2884
  711BENZ    R1 2331   5.004   4.184   1.936  0.2601  0.0268 -0.0045
  711BENZ    R2 2332   5.034   4.063   2.198  0.1420  0.0658  0.0275
  711BENZ    R3 2333   4.835   3.962   2.013  0.2208  0.0423 -0.0455
  712BENZ    R1 2334   1.916   0.807   3.945 -0.0936 -0.2610 -0.3224
  712BENZ    R2 2335   1.982   0.577   3.782  0.1166 -0.3654 -0.0966
  712BENZ    R3 2336   2.194   0.740   3.895 -0.0171 -0.4238  0.2494
  713BENZ    R1 2337   4.129   2.325   4.277 -0.0817  0.2008  0.0736
  713BENZ    R2 2338   4.308   2.158   4.434 -0.1253  0.1746  0.0956
  713BENZ    R3 2339   4.310   2.141   4.144 -0.0442  0.2234  0.0929
  714BENZ    R1 2340   0.602   3.924   5.577 -0.2362 -0.0617 -0.0018
  714BENZ    R2 2341   0.790   3.703   5.575 -0.4383 -0.2370 -0.0901
  714BENZ    R3 2342   0.615   3.745   5.348 -0.3953  0.0225 -0.0780
  715BENZ    R1 2343   2.516   0.005   1.359 -0.0751  0.1914  0.3740
  715BENZ    R2 2344   2.240   0.044   1.279  0.0101  0.0038 -0.0364
  715BENZ    R3 2345   2.311  -0.179   1.450 -0.1385  0.2668  0.3841
  716BENZ    R1 2346   3.923   3.909   4.861  0.0126  0.1142 -0.0371
  716BENZ    R2 2347   3.899   4.021   4.594 -0.3071 -0.1905 -0.1448
  716BENZ    R3 2348   3.661   3.949   4.742 -0.1357  0.0255  0.2522
  717BENZ    R1 2349   2.250   5.691   4.280 -0.0719 -0.1221 -0.3111
  717BENZ    R2 2350   2.059   5.472   4.288 -0.0386 -0.1455  0.3234
  717BENZ    R3 2351   2.158   5.588   4.535  0.2468  0.3317  0.0022
  718BENZ    R1 2352   4.325   3.487   1.279 -0.0943 -0.0557 -0.1822
  718BENZ    R2 2353   4.481   3.726   1.226 -0.2104  0.0168 -0.2002
  718BENZ    R3 2354   4.578   3.529   1.416 -0.0788  0.0422 -0.2400
  719BENZ    R1 2355   1.323   0.135   5.215  0.1694  0.2757 -0.0504
  719BENZ    R2 2356   1.428   0.360   5.065  0.1226  0.0356 -0.4580
  719BENZ    R3 2357   1.607   0.151   5.157  0.1233  0.0820 -0.3528
  720BENZ    R1 2358   5.480   4.416   5.034  0.3621  0.3622  0.0825
  720BENZ    R2 2359   5.694   4.558   5.169  0.2317  0.2101  0.4639
  720BENZ    R3 2360   5.425   4.667   5.170  0.2822  0.3570  0.0603
  721BENZ    R1 2361   5.062   4.080   4.297  0.3952  0.0743  0.0296
  721BENZ    R2 2362   4.932   3.836   4.386  0.0898  0.1609 -0.1656
  721BENZ    R3 2363   5.218   3.839   4.342  0.1749 -0.0231  0.3087
  722BENZ    R1 2364   4.682   1.015   2.742  0.3292  0.2593 -0.0919
  722BENZ    R2 2365   4.429   0.877   2.773  0.3828  0.2308  0.2528
  722BENZ    R3 2366   4.443   1.121   2.617  0.2184  0.0387 -0.0711
  723BENZ    R1 2367   5.226   5.622   1.946 -0.3231  0.1335  0.0399
  723BENZ    R2 2368   5.270   5.712   2.218  0.1104  0.2972 -0.0749
  723BENZ    R3 2369   5.055   5.527   2.159 -0.2623  0.5888  0.3051
  724BENZ    R1 2370   0.191   2.219   2.886 -0.2538  0.0666 -0.1793
  724BENZ    R2 2371   0.280   2.369   3.118  0.2019 -0.1527 -0.1996
  724BENZ    R3 2372   0.179   2.099   3.150 -0.3523  0.0416 -0.1949
  725BENZ    R1 2373   4.422   3.711   2.088 -0.1233 -0.0739 -0.2202
  725BENZ    R2 2374   4.405   3.963   1.947 -0.2078 -0.1040 -0.2645
  725BENZ    R3 2375   4.246   3.920   2.186 -0.0503 -0.0460 -0.1475
  726BENZ    R1 2376   3.301   5.610   0.137  0.0799  0.0711  0.4046
  726BENZ    R2 2377   3.090   5.425   0.209 -0.0831  0.1914  0.2444
  726BENZ    R3 2378   3.357   5.326   0.156 -0.1248  0.0249  0.3378
  727BENZ    R1 2379   2.847   2.362   2.339  0.3167  0.4044 -0.6976
  727BENZ    R2 2380   3.081   2.485   2.458  0.0494  0.4180 -0.1557
  727BENZ    R3 2381   3.085   2.204   2.388  0.1019  0.3134  0.2423
  728BENZ    R1 2382   5.699   0.882   1.488  0.0130 -0.3893 -0.0864
  728BENZ    R2 2383   5.799   0.730   1.714  0.1659 -0.0726  0.0665
  728BENZ    R3 2384   5.557   0.888   1.741  0.1309 -0.1103 -0.0228
  729BENZ    R1 2385   5.311   4.996   4.140 -0.1938 -0.0298  0.1145
  729BENZ    R2 2386   5.095   4.816   4.068 -0.2685  0.0968  0.0184
  729BENZ    R3 2387   5.243   4.955   3.861  0.2887 -0.4228  0.0382
  730BENZ    R1 2388   3.424   3.257   5.784  0.3357 -0.3936 -0.1293
  730BENZ    R2 2389   3.268   3.158   6.007 -0.0483  0.0566 -0.1823
  730BENZ    R3 2390   3.347   3.437   5.998  0.3704 -0.0608 -0.3875
  731BENZ    R1 2391   1.791   1.717   4.653 -0.0940 -0.0592  0.1484
  731BENZ    R2 2392   1.701   1.992   4.668  0.1656  0.0321  0.0892
  731BENZ    R3 2393   1.848   1.875   4.889 -0.2215 -0.1657  0.2521
  732BENZ    R1 2394   1.382   2.877   5.642 -0.0534  0.0878  0.0923
  732BENZ    R2 2395   1.351   2.598   5.715 -0.0147  0.0432 -0.0593
  732BENZ    R3 2396   1.407   2.671   5.440  0.0897  0.1934  0.0004
  733BENZ    R1 2397   1.735   1.934   2.266  0.4827 -0.1991  0.4143
  733BENZ    R2 2398   1.883   2.100   2.080  0.2317  0.0951  0.4699
  733BENZ    R3 2399   2.014   1.877   2.211  0.4950  0.0701  0.1756
  734BENZ    R1 2400   0.315   4.171   4.169  0.1809  0.1140 -0.0228
  734BENZ    R2 2401   0.187   3.914   4.214  0.1024  0.2118  0.3486
  734BENZ    R3 2402   0.253   4.085   4.439  0.3939  0.4053  0.1247
  735BENZ    R1 2403   0.204   3.791   3.531  0.2748  0.2615  0.1062
  735BENZ    R2 2404  -0.038   3.701   3.397  0.3676 -0.1702  0.2148
  735BENZ    R3 2405   0.162   3.850   3.250  0.1888 -0.1017  0.0372
  736BENZ    R1 2406   3.547   4.710   2.382  0.1697 -0.0024 -0.0841
  736BENZ    R2 2407   3.674   4.752   2.639 -0.0200  0.0587  0.0011
  736BENZ    R3 2408   3.713   4.502   2.498 -0.0579 -0.0466  0.1734
  737BENZ    R1 2409   0.462   1.988   4.403  0.0959  0.3194 -0.2309
  737BENZ    R2 2410   0.296   2.210   4.320  0.0579  0.3896  0.0265
  737BENZ    R3 2411   0.482   2.242   4.540 -0.0530  0.1261  0.1628
  738BENZ    R1 2412   1.278   2.697   3.089  0.2397  0.1978 -0.0813
  738BENZ    R2 2413   1.203   2.902   3.280  0.0786  0.2061 -0.1516
  738BENZ    R3 2414   1.337   2.661   3.371  0.0962  0.2562 -0.0429
  739BENZ    R1 2415   4.879   4.946   0.177  0.1890 -0.0775 -0.0203
  739BENZ    R2 2416   4.953   4.666   0.183  0.1492 -0.0864  0.0692
  739BENZ    R3 2417   4.887   4.804   0.429  0.2234  0.0166  0.0322
  740BENZ    R1 2418   5.221   4.464   4.821  0.0712  0.1967 -0.0214
  740BENZ    R2 2419   5.195   4.748   4.874 -0.1003  0.2069 -0.1506
  740BENZ    R3 2420   5.431   4.647   4.740  0.1664  0.2278  0.2830
  741BENZ    R1 2421   1.335   5.634   1.835  0.0246 -0.5255 -0.0381
  741BENZ    R2 2422   1.225   5.696   1.574  0.1033 -0.0644  0.0286
  741BENZ    R3 2423   1.048   5.662   1.801  0.0436 -0.3375 -0.0539
  742BENZ    R1 2424   2.628   3.136   1.680  0.1259 -0.1711  0.0841
  742BENZ    R2 2425   2.658   2.936   1.473 -0.0432  0.0126 -0.1221
  742BENZ    R3 2426   2.831   3.169   1.475 -0.0893  0.0467 -0.0996
  743BENZ    R1 2427   4.978   0.078   1.253 -0.6376 -0.0627  0.0632
  743BENZ    R2 2428   4.883   0.015   1.519 -0.1723  0.0142  0.2567
  743BENZ    R3 2429   5.012   0.269   1.468  0.0161 -0.1224  0.0332
  744BENZ    R1 2430   3.437   3.829   3.522 -0.4594 -0.0076 -0.4227
  744BENZ    R2 2431   3.501   3.552   3.466  0.2225 -0.0364  0.3244
  744BENZ    R3 2432   3.640   3.764   3.326  0.0927 -0.0713  0.1393
  745BENZ    R1 2433   1.629   2.225   4.284 -0.3191  0.2723  0.1635
  745BENZ    R2 2434   1.394   2.063   4.232 -0.1152  0.0798 -0.1958
  745BENZ    R3 2435   1.377   2.288   4.414 -0.5182 -0.0636 -0.0441
  746BENZ    R1 2436   5.663   4.762   1.736 -0.1745  0.1008  0.0042
  746BENZ    R2 2437   5.822   4.605   1.921  0.0007 -0.0211 -0.2428
  746BENZ    R3 2438   5.721   4.865   2.000  0.3594  0.0771 -0.0921
  747BENZ    R1 2439   0.198   1.956   0.909 -0.0761 -0.2503 -0.1608
  747BENZ    R2 2440   0.072   1.929   0.649 -0.1419  0.2203 -0.1867
  747BENZ    R3 2441   0.356   1.876   0.679 -0.0675  0.4585 -0.4273
  748BENZ    R1 2442   0.503   5.005   2.930 -0.3128  0.2124 -0.0526
  748BENZ    R2 2443   0.285   4.934   2.752 -0.3293 -0.3156  0.1607
  748BENZ    R3 2444   0.392   4.737   2.937  0.2715 -0.0422  0.1278
  749BENZ    R1 2445   5.661   5.177   0.665  0.3728  0.1676 -0.1105
  749BENZ    R2 2446   5.886   4.998   0.624  0.0952 -0.1456 -0.3171
  749BENZ    R3 2447   5.783   5.043   0.892  0.5104  0.1450 -0.1965
  750BENZ    R1 2448   3.587   4.396   2.088 -0.1915 -0.2805  0.3392
  750BENZ    R2 2449   3.643   4.538   1.842 -0.5514 -0.0846  0.3634
  750BENZ    R3 2450   3.861   4.436   2.003 -0.3082 -0.1175  0.0238
  751BENZ    R1 2451   4.206   1.215   2.266 -0.1484 -0.1460 -0.0312
  751BENZ    R2 2452   4.184   1.497   2.201 -0.3155 -0.1565 -0.0245
  751BENZ    R3 2453   4.441   1.363   2.183 -0.1807  0.0581  0.2264
  752BENZ    R1 2454   4.462   2.346   0.539 -0.2456  0.1488  0.3336
  752BENZ    R2 2455   4.227   2.185   0.591 -0.1756 -0.0762 -0.0139
  752BENZ    R3 2456   4.418   2.101   0.390 -0.0059  0.3151 -0.0242
  753BENZ    R1 2457   1.748   3.534   5.321  0.0749 -0.0491 -0.0359
  753BENZ    R2 2458   1.793   3.417   5.059 -0.0688 -0.3486  0.0680
  753BENZ    R3 2459   1.944   3.323   5.288  0.3024  0.1451  0.0442
  754BENZ    R1 2460   0.533   1.639   0.836  0.1065  0.0263 -0.0762
  754BENZ    R2 2461   0.685   1.583   1.076  0.3760 -0.4329 -0.3390
  754BENZ    R3 2462   0.804   1.739   0.863  0.1227  0.0087 -0.1711
  755BENZ    R1 2463   2.347   4.094   0.674 -0.0531  0.2332  0.0207
  755BENZ    R2 2464   2.425   4.336   0.535 -0.0720  0.3067  0.1365
  755BENZ    R3 2465   2.444   4.323   0.824  0.0087  0.1399  0.1244
  756BENZ    R1 2466   2.784   1.968   4.739 -0.1615  0.0693 -0.2858
  756BENZ    R2 2467   3.018   1.882   4.591  0.0209  0.1057 -0.0262
  756BENZ    R3 2468   2.933   2.159   4.579  0.2736  0.2008  0.2431
  757BENZ    R1 2469   5.746   3.181   3.490  0.2183 -0.3385  0.0542
  757BENZ    R2 2470   5.978   3.315   3.599  0.1075 -0.1433  0.0547
  757BENZ    R3 2471   5.712   3.410   3.664  0.0380 -0.0340 -0.3658
  758BENZ    R1 2472   5.198   3.702   1.604  0.0343 -0.0178 -0.2767
  758BENZ    R2 2473   5.418   3.872   1.522  0.0694  0.1181  0.0813
  758BENZ    R3 2474   5.147   3.973   1.514  0.0543  0.0702 -0.0307
  759BENZ    R1 2475   0.777   1.514   4.206  0.1171 -0.1877  0.1325
  759BENZ    R2 2476   0.543   1.371   4.111 -0.1007 -0.0250  0.4091
  759BENZ    R3 2477   0.512   1.624   4.250  0.2320 -0.0579  0.5524
  760BENZ    R1 2478   0.564   1.178   0.909 -0.2231 -0.1886 -0.1219
  760BENZ    R2 2479   0.618   1.105   0.634  0.1232  0.2249 -0.1736
  760BENZ    R3 2480   0.715   1.358   0.739  0.0700  0.0375  0.3549
  761BENZ    R1 2481   5.441   1.178   3.632  0.1085  0.1886  0.0037
  761BENZ    R2 2482   5.425   1.462   3.580 -0.3198  0.0894 -0.4887
  761BENZ    R3 2483   5.311   1.353   3.823 -0.0654  0.3423 -0.2489
  762BENZ    R1 2484   5.138   4.357   0.656 -0.1481 -0.2880 -0.0576
  762BENZ    R2 2485   5.328   4.190   0.515 -0.1187 -0.1207 -0.2215
  762BENZ    R3 2486   5.417   4.435   0.643 -0.1638 -0.2194  0.0043
  763BENZ    R1 2487   2.716   3.892   4.294  0.2029 -0.0912 -0.1069
  763BENZ    R2 2488   2.714   4.164   4.192  0.2000  0.0293  0.2034
  763BENZ    R3 2489   2.920   3.978   4.106  0.1340  0.0907 -0.1003
  764BENZ    R1 2490   5.719   4.552   4.533 -0.0618  0.1744  0.0297
  764BENZ    R2 2491   5.938   4.398   4.644 -0.1116 -0.1070 -0.2484
  764BENZ    R3 2492   5.954   4.498   4.372 -0.2245  0.0911 -0.1843
  765BENZ    R1 2493   3.863   5.350   0.495  0.0740 -0.4098  0.0751
  765BENZ    R2 2494   4.001   5.498   0.287  0.2125 -0.6024  0.0274
  765BENZ    R3 2495   3.736   5.391   0.238 -0.1212  0.0694  0.2354
  766BENZ    R1 2496   2.300   0.695   0.511 -0.2940  0.0093 -0.1668
  766BENZ    R2 2497   2.120   0.613   0.722  0.1867  0.0181  0.2670
  766BENZ    R3 2498   2.237   0.414   0.547  0.1204 -0.0386  0.2864
  767BENZ    R1 2499   2.288   1.241   0.356 -0.2324  0.0086  0.2703
  767BENZ    R2 2500   2.091   1.392   0.205 -0.1108  0.1096  0.2117
  767BENZ    R3 2501   2.336   1.520   0.295  0.1286 -0.1215 -0.0875
  768BENZ    R1 2502   2.469   4.254   3.637  0.4954 -0.0650  0.0362
  768BENZ    R2 2503   2.514   4.334   3.912 -0.3559  0.4410  0.0659
  768BENZ    R3 2504   2.607   4.502   3.695  0.0072  0.2189  0.0404
  769BENZ    R1 2505   1.437   2.209   0.454  0.0066  0.3587  0.0249
  769BENZ    R2 2506   1.222   2.299   0.282  0.0661  0.1580 -0.1593
  769BENZ    R3 2507   1.312   2.466   0.501 -0.1481  0.3267 -0.1963
  770BENZ    R1 2508   4.500   4.448   5.125 -0.1581  0.2071 -0.0403
  770BENZ    R2 2509   4.784   4.508   5.124 -0.0806 -0.1233 -0.4251
  770BENZ    R3 2510   4.682   4.297   5.294 -0.1129  0.0473 -0.2284
  771BENZ    R1 2511   0.962   3.447   2.894 -0.0674  0.2193  0.0644
  771BENZ    R2 2512   0.674   3.413   2.892 -0.0653  0.2010 -0.0818
  771BENZ    R3 2513   0.789   3.676   2.852 -0.0615  0.2123  0.0011
  772BENZ    R1 2514   5.241   1.867   0.815 -0.2646 -0.0307 -0.3284
  772BENZ    R2 2515   5.503   1.857   0.693  0.1069  0.0559  0.4048
  772BENZ    R3 2516   5.409   1.633   0.851 -0.1952  0.0950  0.2863
  773BENZ    R1 2517   5.282   5.562   5.493 -0.2054  0.0507 -0.1318
  773BENZ    R2 2518   5.355   5.840   5.528 -0.1720  0.0678 -0.3246
  773BENZ    R3 2519   5.122   5.770   5.370 -0.2425 -0.0105 -0.1877
  774BENZ    R1 2520   0.852   3.806   4.062  0.1744 -0.0637 -0.1438
  774BENZ    R2 2521   0.760   3.657   4.293 -0.2101  0.3031 -0.0471
  774BENZ    R3 2522   0.993   3.567   4.146 -0.1377 -0.1059  0.2970
  775BENZ    R1 2523   0.915   3.931   4.759  0.1947 -0.4023  0.1698
  775BENZ    R2 2524   0.910   3.926   4.469  0.0647  0.1427  0.1515
  775BENZ    R3 2525   1.070   3.733   4.615 -0.1183 -0.3472 -0.2647
  776BENZ    R1 2526   3.028   5.488   2.369  0.1071  0.3053 -0.1246
  776BENZ    R2 2527   3.044   5.560   2.650 -0.0970 -0.1172  0.0042
  776BENZ    R3 2528   2.814   5.640   2.492 -0.0191  0.0533 -0.0254
  777BENZ    R1 2529   3.075   1.608   2.824 -0.1373 -0.2915 -0.1127
  777BENZ    R2 2530   3.246   1.775   2.659 -0.0910 -0.0498  0.1719
  777BENZ    R3 2531   3.336   1.511   2.741 -0.0979 -0.1566 -0.1488
  778BENZ    R1 2532   0.411   2.217   0.888 -0.3257 -0.2701 -0.3306
  778BENZ    R2 2533   0.344   2.404   0.677 -0.1925  0.4138  0.1966
  778BENZ    R3 2534   0.146   2.334   0.876 -0.3496 -0.3064 -0.1794
  779BENZ    R1 2535   0.113   3.190   4.186  0.0397  0.1928  0.0600
  779BENZ    R2 2536   0.284   3.101   3.970 -0.2490 -0.1177 -0.0492
  779BENZ    R3 2537   0.142   2.907   4.132 -0.3646  0.1275  0.1503
  780BENZ    R1 2538   0.699   0.953   0.289 -0.2608 -0.1320  0.2737
  780BENZ    R2 2539   0.759   0.674   0.240 -0.3663 -0.0861 -0.1536
  780BENZ    R3 2540   0.968   0.853   0.332 -0.2278 -0.2452 -0.1536
  781BENZ    R1 2541   2.755   5.311   0.499 -0.3019 -0.1788  0.2693
  781BENZ    R2 2542   2.825   5.084   0.664 -0.2224 -0.1249  0.3103
  781BENZ    R3 2543   2.547   5.156   0.628 -0.2715 -0.4309  0.0254
  782BENZ    R1 2544   3.962   5.227   1.454  0.1609 -0.0663  0.1531
  782BENZ    R2 2545   3.791   5.027   1.574 -0.1153  0.2149  0.2431
  782BENZ    R3 2546   3.690   5.194   1.360  0.3627 -0.2703 -0.4025
  783BENZ    R1 2547   0.787   0.111   4.205 -0.0149  0.1029  0.0329
  783BENZ    R2 2548   0.869   0.275   3.980  0.2609 -0.0431  0.0231
  783BENZ    R3 2549   0.831   0.395   4.241 -0.1289  0.1404 -0.1107
  784BENZ    R1 2550   1.969   2.530   1.947  0.0892 -0.1039  0.1089
  784BENZ    R2 2551   1.803   2.418   2.156  0.0314 -0.1067  0.0620
  784BENZ    R3 2552   1.922   2.681   2.190 -0.2761  0.0523 -0.0500
  785BENZ    R1 2553   5.805   1.867   3.731 -0.1099  0.2664 -0.4112
  785BENZ    R2 2554   5.874   1.630   3.579 -0.2387  0.0166 -0.0904
  785BENZ    R3 2555   5.715   1.607   3.820 -0.2697  0.4348 -0.0636
  786BENZ    R1 2556   1.379   3.211   0.964  0.1362  0.2388  0.0323
  786BENZ    R2 2557   1.649   3.112   0.925  0.0912  0.0044  0.2784
  786BENZ    R3 2558   1.605   3.390   0.997  0.2505  0.0941  0.0451
  787BENZ    R1 2559   3.040   5.484   3.467  0.2256 -0.0137 -0.1730
  787BENZ    R2 2560   3.082   5.762   3.535  0.3349 -0.0757  0.0182
  787BENZ    R3 2561   2.918   5.693   3.306  0.6049  0.1532 -0.2535
  788BENZ    R1 2562   5.459   0.531   1.848  0.1856 -0.0847 -0.2155
  788BENZ    R2 2563   5.675   0.350   1.918  0.0020 -0.1711  0.1546
  788BENZ    R3 2564   5.401   0.276   1.975 -0.0873  0.1634  0.1788
  789BENZ    R1 2565   4.845   4.026   1.101 -0.0821 -0.1515  0.3675
  789BENZ    R2 2566   5.056   4.050   0.904 -0.3560 -0.2338  0.0545
  789BENZ    R3 2567   5.109   4.113   1.182  0.0117 -0.0172 -0.0581
  790BENZ    R1 2568   1.747   0.517   4.964  0.0160 -0.0004 -0.1998
  790BENZ    R2 2569   1.834   0.546   4.689  0.3485 -0.2197 -0.1240
  790BENZ    R3 2570   1.728   0.293   4.781 -0.0480 -0.0597 -0.1207
  791BENZ    R1 2571   1.043   3.778   0.304 -0.2749 -0.3213  0.0549
  791BENZ    R2 2572   0.964   4.017   0.160  0.0445 -0.0823  0.2616
  791BENZ    R3 2573   1.088   4.040   0.421  0.0984 -0.4764  0.2760
  792BENZ    R1 2574   5.146   1.071   0.446 -0.1402 -0.3115  0.1588
  792BENZ    R2 2575   4.940   1.235   0.567 -0.0754 -0.1088  0.0014
  792BENZ    R3 2576   5.203   1.220   0.688  0.0082  0.1435 -0.1428
  793BENZ    R1 2577   1.708   0.310   4.187 -0.0751  0.0342 -0.1699
  793BENZ    R2 2578   1.881   0.278   4.418 -0.0196  0.1078 -0.2008
  793BENZ    R3 2579   1.598   0.217   4.439 -0.0320  0.1995 -0.0884
  794BENZ    R1 2580   3.898   1.805   4.911 -0.3059  0.0866  0.1713
  794BENZ    R2 2581   3.823   1.959   4.677 -0.2063  0.0725  0.1298
  794BENZ    R3 2582   3.807   2.078   4.940  0.0926  0.2364  0.0791
  795BENZ    R1 2583   4.381   4.241   2.834 -0.5117 -0.2700 -0.0335
  795BENZ    R2 2584   4.542   4.018   2.741  0.2082  0.1317  0.1667
  795BENZ    R3 2585   4.575   4.118   3.012 -0.4901  0.1630  0.2594
  796BENZ    R1 2586   2.532   4.252   3.266  0.1965  0.1738  0.0726
  796BENZ    R2 2587   2.579   4.359   3.001  0.0282  0.3551  0.1131
  796BENZ    R3 2588   2.341   4.436   3.148 -0.1556 -0.1590  0.1042
  797BENZ    R1 2589   2.113   1.311   1.571 -0.0700  0.0052  0.3941
  797BENZ    R2 2590   2.127   1.407   1.298 -0.4984 -0.4884  0.1817
  797BENZ    R3 2591   2.081   1.594   1.515 -0.3273 -0.1099 -0.0962
  798BENZ    R1 2592   5.199   3.489   1.986  0.0860 -0.0397  0.1308
  798BENZ    R2 2593   5.189   3.621   2.244  0.0510  0.0627  0.0775
  798BENZ    R3 2594   4.944   3.529   2.119  0.0952 -0.2626  0.2203
  799BENZ    R1 2595   1.731   4.969   1.827 -0.5435 -0.1943  0.0945
  799BENZ    R2 2596   1.760   4.729   1.986 -0.1044 -0.1722  0.0610
  799BENZ    R3 2597   1.868   4.738   1.717 -0.3035 -0.0047 -0.0161
  800BENZ    R1 2598   2.877   4.485   1.490 -0.1523 -0.0765  0.0378
  800BENZ    R2 2599   3.129   4.554   1.364 -0.3020  0.1391 -0.1520
  800BENZ    R3 2600   3.067   4.277   1.422  0.0390  0.0964  0.0333
  801BENZ    R1 2601   1.793   5.195   0.668 -0.3834 -0.1670  0.0761
  801BENZ    R2 2602   1.740   5.068   0.412 -0.0027 -0.0927 -0.0456
  801BENZ    R3 2603   1.844   5.338   0.421  0.0896 -0.1338  0.1850
  802BENZ    R1 2604   5.369   5.343   4.169  0.3304 -0.1157 -0.0398
  802BENZ    R2 2605   5.464   5.560   4.337 -0.3497  0.1727  0.0039
  802BENZ    R3 2606   5.331   5.331   4.456  0.0746 -0.1243 -0.0718
  803BENZ    R1 2607   2.824   1.965   0.932  0.0089  0.0154 -0.0666
  803BENZ    R2 2608   2.543   1.929   0.866 -0.0514 -0.2824  0.3162
  803BENZ    R3 2609   2.743   1.931   0.655 -0.3605  0.2352  0.0078
  804BENZ    R1 2610   4.223   1.091   5.591 -0.3539  0.2155 -0.3122
  804BENZ    R2 2611   3.959   1.009   5.681 -0.1164 -0.1685  0.0730
  804BENZ    R3 2612   4.152   1.113   5.872  0.1228 -0.2031 -0.1444
  805BENZ    R1 2613   3.085   5.001   3.347  0.1158  0.0066  0.0336
  805BENZ    R2 2614   3.009   5.061   3.073  0.1269  0.4481  0.1194
  805BENZ    R3 2615   2.806   4.989   3.267  0.1022  0.2732  0.0307
  806BENZ    R1 2616   2.643   0.152   0.240  0.0738  0.0505  0.1057
  806BENZ    R2 2617   2.415   0.106   0.413 -0.0751 -0.3498 -0.1821
  806BENZ    R3 2618   2.674   0.166   0.528 -0.3260  0.1730  0.1490
  807BENZ    R1 2619   1.729   0.578   3.493 -0.2651 -0.2388  0.0188
  807BENZ    R2 2620   1.761   0.386   3.278  0.1866 -0.1763  0.0200
  807BENZ    R3 2621   1.724   0.294   3.550  0.0613 -0.2570 -0.0236
  808BENZ    R1 2622   3.667   3.376   3.136 -0.1970 -0.1540  0.0325
  808BENZ    R2 2623   3.463   3.302   2.944  0.0004 -0.1912 -0.1671
  808BENZ    R3 2624   3.534   3.581   2.979 -0.1415 -0.1705 -0.0370
  809BENZ    R1 2625   3.027   4.146   5.486 -0.3406  0.2963 -0.2123
  809BENZ    R2 2626   2.959   4.088   5.210 -0.1182  0.1048 -0.2300
  809BENZ    R3 2627   3.208   4.222   5.273 -0.2197  0.2483 -0.1279
  810BENZ    R1 2628   1.261   5.619   2.454 -0.2528 -0.0804 -0.1079
  810BENZ    R2 2629   1.390   5.854   2.344  0.2170 -0.2431  0.0694
  810BENZ    R3 2630   1.101   5.829   2.334  0.1669  0.2724 -0.0750
  811BENZ    R1 2631   2.774   0.976   3.817  0.3377  0.1265  0.2152
  811BENZ    R2 2632   2.490   1.020   3.856  0.2976  0.1410 -0.0707
  811BENZ    R3 2633   2.592   0.751   3.818  0.3140  0.1418 -0.0327
  812BENZ    R1 2634   5.292   3.511   5.009 -0.5238 -0.1261  0.0892
  812BENZ    R2 2635   5.505   3.466   4.817 -0.0862  0.2041  0.4749
  812BENZ    R3 2636   5.228   3.449   4.733  0.0875  0.0993 -0.1202
  813BENZ    R1 2637   3.741   3.075   3.983  0.2810 -0.3448  0.1820
  813BENZ    R2 2638   3.639   3.238   4.200  0.1732 -0.1189 -0.0325
  813BENZ    R3 2639   3.732   2.968   4.252 -0.0267 -0.1365  0.2605
  814BENZ    R1 2640   0.749   4.826   5.747 -0.1380  0.1319 -0.0499
  814BENZ    R2 2641   0.937   4.695   5.925  0.2365  0.5153 -0.1456
  814BENZ    R3 2642   0.752   4.892   6.030 -0.0058  0.2600 -0.0800
  815BENZ    R1 2643   1.010   5.091   5.629  0.0268 -0.0796 -0.0482
  815BENZ    R2 2644   1.184   4.861   5.661  0.0922 -0.0423 -0.1327
  815BENZ    R3 2645   1.290   5.128   5.694  0.1306 -0.0059 -0.5029
  816BENZ    R1 2646   1.204   0.745   0.628 -0.0606 -0.0106  0.0494
  816BENZ    R2 2647   1.135   0.467   0.677 -0.5964  0.1117  0.0514
  816BENZ    R3 2648   1.307   0.609   0.863  0.0960 -0.3427 -0.2040
  817BENZ    R1 2649   2.800   3.195   4.728  0.2866  0.0031 -0.0691
  817BENZ    R2 2650   2.750   3.331   4.476 -0.1659 -0.1006 -0.0442
  817BENZ    R3 2651   2.730   3.042   4.492 -0.1561 -0.0938  0.1144
  818BENZ    R1 2652   0.964   4.001   3.325 -0.0863 -0.2772 -0.0671
  818BENZ    R2 2653   0.705   3.894   3.401  0.0040 -0.1984  0.3817
  818BENZ    R3 2654   0.947   3.768   3.498  0.1362 -0.2100  0.0489
  819BENZ    R1 2655   1.419   0.699   2.734 -0.2583  0.0008  0.2468
  819BENZ    R2 2656   1.147   0.676   2.638 -0.0529  0.0449 -0.3976
  819BENZ    R3 2657   1.346   0.813   2.477  0.4508 -0.3637 -0.1501
  820BENZ    R1 2658   5.510   0.370   3.369 -0.1319 -0.1078  0.1959
  820BENZ    R2 2659   5.295   0.211   3.481 -0.2519 -0.0051  0.1130
  820BENZ    R3 2660   5.561   0.195   3.595 -0.2596 -0.2715  0.1002
  821BENZ    R1 2661   2.447   2.984   5.026  0.0794 -0.3990 -0.1764
  821BENZ    R2 2662   2.503   3.071   4.755  0.1198  0.1212 -0.0125
  821BENZ    R3 2663   2.631   2.833   4.860  0.4461  0.1587 -0.3058
  822BENZ    R1 2664   3.612   3.719   4.486  0.1312  0.2051  0.3587
  822BENZ    R2 2665   3.544   3.439   4.523  0.0446  0.1991  0.1687
  822BENZ    R3 2666   3.474   3.634   4.726  0.1409  0.0783  0.3203
  823BENZ    R1 2667   3.042   5.648   5.031 -0.0748 -0.0067  0.1443
  823BENZ    R2 2668   2.946   5.922   5.017 -0.0879 -0.0108  0.1545
  823BENZ    R3 2669   3.053   5.818   5.266  0.3444  0.1294  0.0355
  824BENZ    R1 2670   5.085   0.011   0.126 -0.1986  0.2594  0.3858
  824BENZ    R2 2671   5.005   0.105  -0.136 -0.0438 -0.1461  0.1839
  824BENZ    R3 2672   5.107   0.292   0.060 -0.2658  0.1800 -0.0018
  825BENZ    R1 2673   4.413   4.832   2.580  0.3588  0.1262  0.2784
  825BENZ    R2 2674   4.325   5.098   2.656  0.3636  0.2125 -0.0078
  825BENZ    R3 2675   4.262   4.994   2.392  0.5583  0.0192  0.0190
  826BENZ    R1 2676   2.919   0.003   1.207  0.2200 -0.1098 -0.0819
  826BENZ    R2 2677   2.839   0.118   0.954 -0.1161 -0.0013  0.0675
  826BENZ    R3 2678   2.940   0.289   1.165 -0.0259 -0.0654  0.0767
  827BENZ    R1 2679   0.966   0.605   4.657  0.2175  0.1914  0.0342
  827BENZ    R2 2680   1.110   0.556   4.903  0.2171  0.2068  0.0375
  827BENZ    R3 2681   1.223   0.471   4.650 -0.0647 -0.3858  0.0943
  828BENZ    R1 2682   2.068   1.339   3.989  0.0926 -0.0476 -0.2249
  828BENZ    R2 2683   2.173   1.071   4.029  0.3043  0.0335 -0.2229
  828BENZ    R3 2684   1.986   1.184   4.220  0.2987 -0.0715 -0.1657
  829BENZ    R1 2685   5.075   0.456   4.200 -0.1174 -0.0603  0.1960
  829BENZ    R2 2686   5.061   0.735   4.124 -0.1294 -0.0508  0.2330
  829BENZ    R3 2687   5.079   0.662   4.404  0.2826 -0.0717  0.2073
  830BENZ    R1 2688   0.345   3.889   3.850 -0.1162  0.1128  0.1257
  830BENZ    R2 2689   0.527   4.001   3.654  0.0968 -0.0604  0.2203
  830BENZ    R3 2690   0.534   4.095   3.928  0.1848 -0.2087  0.2698
  831BENZ    R1 2691   3.488   2.601   3.633 -0.2517 -0.0281  0.1061
  831BENZ    R2 2692   3.417   2.373   3.797 -0.0321 -0.0632  0.1551
  831BENZ    R3 2693   3.695   2.423   3.730 -0.0660  0.2476  0.2303
  832BENZ    R1 2694   1.374   1.033   0.589  0.2867 -0.1902  0.0566
  832BENZ    R2 2695   1.527   0.895   0.794  0.0674  0.0069  0.3631
  832BENZ    R3 2696   1.557   1.182   0.759  0.3376 -0.0667 -0.1037
  833BENZ    R1 2697   0.473   4.850   5.399  0.0352 -0.3071 -0.1738
  833BENZ    R2 2698   0.639   4.922   5.172 -0.0758  0.1955 -0.1085
  833BENZ    R3 2699   0.761   4.875   5.431 -0.0203  0.4710 -0.0818
  834BENZ    R1 2700   0.826   4.274   3.828 -0.0072 -0.1458 -0.1774
  834BENZ    R2 2701   1.061   4.389   3.955 -0.1573 -0.0299 -0.0001
  834BENZ    R3 2702   0.846   4.561   3.864 -0.2521 -0.1484 -0.0033
  835BENZ    R1 2703   4.527   3.066   5.378 -0.0853  0.1223 -0.1431
  835BENZ    R2 2704   4.662   2.867   5.541 -0.2342 -0.0133 -0.1828
  835BENZ    R3 2705   4.600   3.128   5.652 -0.1288 -0.0239 -0.0972
  836BENZ    R1 2706   0.180   0.313   5.604  0.1679 -0.1006  0.2200
  836BENZ    R2 2707   0.377   0.200   5.425 -0.0489 -0.0397 -0.0637
  836BENZ    R3 2708   0.304   0.059   5.667  0.2829 -0.0998  0.0064
  837BENZ    R1 2709   4.699   3.010   2.645  0.0711 -0.1030 -0.0534
  837BENZ    R2 2710   4.863   3.244   2.598  0.1660 -0.1311  0.1291
  837BENZ    R3 2711   4.643   3.256   2.787 -0.1583 -0.0431 -0.2426
  838BENZ    R1 2712   0.632   0.366   1.020 -0.1716 -0.0278 -0.0605
  838BENZ    R2 2713   0.707   0.336   1.298  0.2417  0.2850 -0.1274
  838BENZ    R3 2714   0.427   0.358   1.225  0.1294  0.2388  0.2642
  839BENZ    R1 2715   3.510   1.536   3.878  0.1129  0.0998  0.4483
  839BENZ    R2 2716   3.730   1.578   3.693  0.1661 -0.1496  0.4518
  839BENZ    R3 2717   3.552   1.797   3.759 -0.0561 -0.1300 -0.1532
  840BENZ    R1 2718   5.567   0.405   5.554  0.3788  0.4308  0.1824
  840BENZ    R2 2719   5.294   0.423   5.651  0.3203  0.1372  0.0821
  840BENZ    R3 2720   5.401   0.630   5.478 -0.1056 -0.1174 -0.5235
  841BENZ    R1 2721   1.795   1.384   0.028 -0.1351  0.0613 -0.0790
  841BENZ    R2 2722   1.976   1.298  -0.181  0.1549 -0.1810  0.2600
  841BENZ    R3 2723   1.701   1.207  -0.182  0.1403 -0.1441 -0.0353
  842BENZ    R1 2724   0.144   5.414   5.801  0.2562 -0.0957 -0.1183
  842BENZ    R2 2725   0.081   5.486   5.527 -0.6833 -0.2179  0.0322
  842BENZ    R3 2726  -0.075   5.597   5.745  0.1780  0.0438  0.5620
  843BENZ    R1 2727   2.639   1.393   0.175 -0.1811  0.1964  0.2073
  843BENZ    R2 2728   2.864   1.506   0.031 -0.2668  0.1287  0.0178
  843BENZ    R3 2729   2.883   1.462   0.317  0.0205 -0.0237 -0.0212
  844BENZ    R1 2730   4.249   0.393   2.375  0.1942  0.2204 -0.3627
  844BENZ    R2 2731   4.460   0.303   2.554 -0.0691  0.0174 -0.1463
  844BENZ    R3 2732   4.268   0.501   2.644  0.0285  0.2055 -0.3440
  845BENZ    R1 2733   1.632   3.536   0.478  0.0564  0.0852  0.1281
  845BENZ    R2 2734   1.768   3.381   0.682 -0.1093 -0.0094  0.1692
  845BENZ    R3 2735   1.630   3.626   0.753 -0.2108 -0.0696  0.1809
  846BENZ    R1 2736   4.841   0.485   0.055 -0.0322 -0.1607 -0.3069
  846BENZ    R2 2737   4.700   0.277  -0.091 -0.3135 -0.3015  0.1462
  846BENZ    R3 2738   4.566   0.527  -0.028 -0.0637 -0.0818 -0.1661
  847BENZ    R1 2739   2.490   2.461   4.673 -0.1196 -0.3193  0.0630
  847BENZ    R2 2740   2.381   2.726   4.630  0.0977 -0.1788  0.3502
  847BENZ    R3 2741   2.205   2.506   4.699 -0.0724 -0.0905  0.2045
  848BENZ    R1 2742   4.975   0.667   5.618  0.2472  0.0711 -0.1738
  848BENZ    R2 2743   4.807   0.524   5.430  0.2659  0.0335 -0.1621
  848BENZ    R3 2744   4.711   0.769   5.553 -0.0683 -0.3448  0.3694
  849BENZ    R1 2745   4.092   5.749   2.719 -0.0745 -0.0587 -0.1203
  849BENZ    R2 2746   4.363   5.759   2.616 -0.0819 -0.4227 -0.1868
  849BENZ    R3 2747   4.145   5.875   2.464  0.0147 -0.2586 -0.2023
  850BENZ    R1 2748   2.536   0.062   4.713  0.2575 -0.0391 -0.0626
  850BENZ    R2 2749   2.473   0.322   4.826  0.7193 -0.1629  0.5256
  850BENZ    R3 2750   2.658   0.302   4.603 -0.0887  0.0715 -0.2189
  851BENZ    R1 2751   3.710   4.124   5.608 -0.1530  0.2742 -0.1412
  851BENZ    R2 2752   3.719   4.301   5.378  0.0609  0.1205 -0.2552
  851BENZ    R3 2753   3.607   4.034   5.352  0.2329  0.0442 -0.2245
  852BENZ    R1 2754   4.978   4.966   2.918 -0.1408 -0.0669  0.1862
  852BENZ    R2 2755   4.803   5.145   2.771  0.1434  0.2282  0.1941
  852BENZ    R3 2756   4.967   4.953   2.629  0.0363  0.1560  0.1665
  853BENZ    R1 2757   3.568   4.907   2.973  0.4243 -0.2053  0.0357
  853BENZ    R2 2758   3.355   5.069   3.084  0.4052 -0.2913  0.1263
  853BENZ    R3 2759   3.291   4.836   2.923  0.4316 -0.2840  0.1051
  854BENZ    R1 2760   1.032   3.370   1.445  0.2916 -0.1443  0.4875
  854BENZ    R2 2761   0.984   3.085   1.428  0.0177 -0.0946  0.3670
  854BENZ    R3 2762   0.936   3.225   1.678  0.0456 -0.1349  0.3952
  855BENZ    R1 2763   5.072   1.273   4.165 -0.1145  0.1275  0.1411
  855BENZ    R2 2764   5.022   1.494   3.984  0.2374 -0.0716 -0.2144
  855BENZ    R3 2765   4.908   1.233   3.930 -0.0686 -0.0172  0.1326
  856BENZ    R1 2766   4.197   3.349   3.590  0.1449 -0.6958  0.0423
  856BENZ    R2 2767   3.951   3.475   3.677  0.1853 -0.4669 -0.1628
  856BENZ    R3 2768   4.060   3.251   3.826 -0.0074 -0.4045  0.0794
  857BENZ    R1 2769   3.932   5.117   1.945 -0.2964 -0.0416  0.2032
  857BENZ    R2 2770   4.019   5.221   2.202  0.1130  0.0838  0.0214
  857BENZ    R3 2771   3.887   5.396   2.011  0.1478  0.0861 -0.0006
  858BENZ    R1 2772   0.417   2.789   3.852  0.0208  0.1919 -0.0973
  858BENZ    R2 2773   0.647   2.898   3.712  0.2257  0.5388  0.4780
  858BENZ    R3 2774   0.383   3.006   3.662  0.1934  0.2296 -0.0874
  859BENZ    R1 2775   4.082   1.612   1.891 -0.0526 -0.1931 -0.0667
  859BENZ    R2 2776   4.097   1.643   1.603 -0.1295 -0.2174 -0.0735
  859BENZ    R3 2777   3.838   1.635   1.735 -0.0910  0.0204  0.0208
  860BENZ    R1 2778   4.701   0.131   5.414  0.1289 -0.0828  0.2728
  860BENZ    R2 2779   4.496  -0.069   5.370  0.3712 -0.3357  0.2622
  860BENZ    R3 2780   4.775  -0.146   5.371  0.4512 -0.0734  0.6988
  861BENZ    R1 2781   2.793   5.512   3.700  0.2835 -0.1841  0.3078
  861BENZ    R2 2782   2.539   5.624   3.785  0.0490 -0.4316 -0.0412
  861BENZ    R3 2783   2.753   5.588   3.978 -0.0575  0.0875  0.1915
  862BENZ    R1 2784   0.372   4.651   0.685 -0.2439  0.1473 -0.1386
  862BENZ    R2 2785   0.401   4.366   0.636 -0.0290  0.1259  0.0885
  862BENZ    R3 2786   0.499   4.558   0.442  0.2281  0.0438  0.1332
  863BENZ    R1 2787   4.382   2.496   3.658 -0.1770 -0.0014  0.4638
  863BENZ    R2 2788   4.409   2.775   3.583 -0.0085 -0.1238  0.0382
  863BENZ    R3 2789   4.546   2.674   3.818  0.5541 -0.0022 -0.2215
  864BENZ    R1 2790   3.269   0.614   5.199 -0.1913 -0.2319  0.0226
  864BENZ    R2 2791   3.436   0.821   5.084 -0.0192 -0.5628 -0.3487
  864BENZ    R3 2792   3.147   0.847   5.076 -0.0022 -0.1369  0.0113
  865BENZ    R1 2793   1.783   1.075   3.715 -0.2874 -0.0067  0.3071
  865BENZ    R2 2794   1.617   0.981   3.497  0.1653 -0.3718  0.1030
  865BENZ    R3 2795   1.589   1.253   3.593 -0.2594 -0.3004 -0.1930
  866BENZ    R1 2796   0.684   2.607   1.323  0.2429  0.2907 -0.0364
  866BENZ    R2 2797   0.615   2.784   1.542  0.3055  0.0046  0.2207
  866BENZ    R3 2798   0.888   2.690   1.511  0.2835 -0.0084  0.0573
  867BENZ    R1 2799   0.059   5.184   2.564  0.0610  0.1122  0.2457
  867BENZ    R2 2800  -0.095   4.966   2.679  0.0448  0.0161  0.0465
  867BENZ    R3 2801   0.041   4.929   2.426 -0.0598  0.2774 -0.0514
  868BENZ    R1 2802   1.749   2.055   2.646 -0.2474  0.1514 -0.2455
  868BENZ    R2 2803   1.757   2.322   2.758  0.0786  0.0280  0.0466
  868BENZ    R3 2804   1.919   2.257   2.526 -0.2253  0.1544 -0.2093
  869BENZ    R1 2805   5.002   0.872   2.702 -0.2550 -0.2146 -0.2020
  869BENZ    R2 2806   5.277   0.781   2.717 -0.2093 -0.0590 -0.0747
  869BENZ    R3 2807   5.103   0.756   2.948 -0.1324  0.3659  0.0384
  870BENZ    R1 2808   5.631   4.194   2.950 -0.0690  0.2046 -0.0672
  870BENZ    R2 2809   5.822   4.394   3.035  0.0355  0.0424  0.0875
  870BENZ    R3 2810   5.884   4.113   3.065 -0.1527 -0.0140 -0.0321
  871BENZ    R1 2811   5.426   2.002   3.956  0.0974  0.1665 -0.1729
  871BENZ    R2 2812   5.334   1.745   3.856  0.0390  0.2097 -0.2308
  871BENZ    R3 2813   5.143   1.955   3.916  0.0558  0.1241  0.1464
  872BENZ    R1 2814   2.272   0.554   3.568 -0.2795  0.0108 -0.1398
  872BENZ    R2 2815   2.132   0.596   3.317  0.1900  0.4289 -0.3486
  872BENZ    R3 2816   2.146   0.810   3.513  0.2145  0.2617 -0.1646
  873BENZ    R1 2817   5.165   2.748   0.320  0.0975 -0.2707 -0.2510
  873BENZ    R2 2818   5.309   2.736   0.571 -0.7735 -0.0878  0.3008
  873BENZ    R3 2819   5.191   2.496   0.459 -0.2746 -0.1942 -0.0271
  874BENZ    R1 2820   5.525   2.395   1.296  0.0634 -0.2050 -0.2839
  874BENZ    R2 2821   5.547   2.684   1.291  0.1106 -0.1845  0.3243
  874BENZ    R3 2822   5.710   2.523   1.113  0.2124  0.1533  0.1015
  875BENZ    R1 2823   3.394   3.070   5.456 -0.2534 -0.0160  0.1814
  875BENZ    R2 2824   3.213   3.295   5.484 -0.0198  0.1450  0.4500
  875BENZ    R3 2825   3.164   3.050   5.631 -0.2618  0.0224  0.1748
  876BENZ    R1 2826   3.075   3.419   1.760  0.2331 -0.0223 -0.4078
  876BENZ    R2 2827   3.285   3.304   1.924  0.0895  0.0835 -0.1431
  876BENZ    R3 2828   3.261   3.228   1.645  0.4122 -0.0083 -0.1502
  877BENZ    R1 2829   3.281   2.782   1.254 -0.1463 -0.2205 -0.1177
  877BENZ    R2 2830   3.074   2.870   1.070  0.0453  0.2648 -0.1140
  877BENZ    R3 2831   3.064   2.950   1.348 -0.1115 -0.2653  0.0444
  878BENZ    R1 2832   0.022   3.158   4.583  0.0073  0.0436 -0.1047
  878BENZ    R2 2833   0.066   3.436   4.652 -0.3318  0.0608  0.0608
  878BENZ    R3 2834   0.284   3.277   4.545 -0.1212  0.3736  0.0122
  879BENZ    R1 2835   3.660   1.036   3.727 -0.0782 -0.3092 -0.0746
  879BENZ    R2 2836   3.874   0.943   3.899  0.0988 -0.3427 -0.3076
  879BENZ    R3 2837   3.887   1.209   3.783 -0.3665 -0.0345  0.2931
  880BENZ    R1 2838   5.244   1.193   2.039  0.0053 -0.0403  0.1904
  880BENZ    R2 2839   5.180   0.976   1.858  0.0116  0.3071 -0.2439
  880BENZ    R3 2840   5.004   1.035   2.081  0.1744 -0.3357  0.0790
  881BENZ    R1 2841   3.185   1.114   4.892  0.2874 -0.2006 -0.0587
  881BENZ    R2 2842   2.923   1.189   4.793  0.5071  0.2937 -0.3003
  881BENZ    R3 2843   2.971   1.175   5.078  0.2563  0.3336 -0.2539
  882BENZ    R1 2844   4.133   2.701   4.397  0.0297  0.1150  0.3121
  882BENZ    R2 2845   4.415   2.646   4.439  0.1357  0.2545 -0.1555
  882BENZ    R3 2846   4.307   2.650   4.170 -0.3114  0.2327  0.0155
  883BENZ    R1 2847   3.482   0.038   1.492  0.4113  0.1776  0.0359
  883BENZ    R2 2848   3.256   0.202   1.413  0.2065 -0.0724  0.0883
  883BENZ    R3 2849   3.446   0.301   1.609  0.0558  0.0788  0.1605
  884BENZ    R1 2850   5.320   4.722   0.063 -0.2134  0.0055  0.0901
  884BENZ    R2 2851   5.540   4.876  -0.046  0.0280 -0.1371  0.3639
  884BENZ    R3 2852   5.420   4.954   0.206 -0.3531  0.0376  0.1377
  885BENZ    R1 2853   0.471   1.599   2.199 -0.2642  0.2101  0.2848
  885BENZ    R2 2854   0.215   1.573   2.333 -0.1911  0.2289  0.4306
  885BENZ    R3 2855   0.444   1.424   2.428 -0.2029  0.0249  0.1524
  886BENZ    R1 2856   0.299   3.224   4.992 -0.0225  0.1602 -0.0751
  886BENZ    R2 2857   0.309   3.511   5.034  0.2399  0.0953  0.3620
  886BENZ    R3 2858   0.322   3.330   5.261 -0.0768 -0.2650  0.1055
  887BENZ    R1 2859   3.789   0.507   3.683 -0.0506 -0.1151 -0.4657
  887BENZ    R2 2860   4.033   0.594   3.814 -0.3450 -0.0349  0.0557
  887BENZ    R3 2861   3.910   0.761   3.611 -0.2321  0.1639  0.1474
  888BENZ    R1 2862   2.728   4.966   0.320  0.0589 -0.3649 -0.3455
  888BENZ    R2 2863   2.941   4.915   0.130  0.6025  0.1054  0.1008
  888BENZ    R3 2864   2.985   5.097   0.351 -0.3222  0.3311  0.1377
  889BENZ    R1 2865   2.045   1.776   3.306 -0.1463 -0.5818  0.5811
  889BENZ    R2 2866   1.771   1.821   3.221  0.0873  0.0410  0.0838
  889BENZ    R3 2867   1.933   1.620   3.088 -0.0107 -0.0610  0.1172
  890BENZ    R1 2868   1.640   4.704   4.549 -0.2096  0.0793 -0.1327
  890BENZ    R2 2869   1.502   4.450   4.574  0.0693 -0.0689 -0.0654
  890BENZ    R3 2870   1.557   4.560   4.311 -0.0936 -0.0541 -0.0939
  891BENZ    R1 2871   3.638   1.833   2.211 -0.0606 -0.0915  0.2043
  891BENZ    R2 2872   3.515   2.093   2.251  0.0563  0.0298 -0.1828
  891BENZ    R3 2873   3.757   2.070   2.092 -0.1036 -0.3492 -0.3828
  892BENZ    R1 2874   5.705   4.811   1.162 -0.1914 -0.2386 -0.4688
  892BENZ    R2 2875   5.727   5.014   1.368  0.5562 -0.3002 -0.4594
  892BENZ    R3 2876   5.477   4.872   1.330  0.2149  0.1508 -0.0281
  893BENZ    R1 2877   0.035   1.327   1.859 -0.1673 -0.0734  0.3467
  893BENZ    R2 2878   0.067   1.161   2.094  0.0876 -0.2499  0.1928
  893BENZ    R3 2879   0.106   1.047   1.831  0.1813  0.0353  0.0801
  894BENZ    R1 2880   4.686   4.645   4.246 -0.1021 -0.4769  0.1685
  894BENZ    R2 2881   4.853   4.481   4.075  0.5038  0.3611 -0.1145
  894BENZ    R3 2882   4.653   4.655   3.958  0.2677  0.2570  0.1250
  895BENZ    R1 2883   1.824   2.847   4.246 -0.0346 -0.1529 -0.0434
  895BENZ    R2 2884   1.543   2.787   4.206 -0.0939  0.0422  0.0635
  895BENZ    R3 2885   1.697   2.636   4.400 -0.0952 -0.1370 -0.0712
  896BENZ    R1 2886   0.004   0.453   4.381 -0.0466 -0.1467  0.2176
  896BENZ    R2 2887  -0.034   0.493   4.665  0.0739 -0.1314  0.2323
  896BENZ    R3 2888   0.221   0.399   4.565  0.0044 -0.2212  0.1368
  897BENZ    R1 2889   2.426   1.434   3.775 -0.1584 -0.3452  0.1996
  897BENZ    R2 2890   2.397   1.533   4.046 -0.1532  0.2891 -0.0154
  897BENZ    R3 2891   2.624   1.614   3.886 -0.1865 -0.0322 -0.2350
  898BENZ    R1 2892   1.442   3.224   4.023 -0.1196  0.1218 -0.2320
  898BENZ    R2 2893   1.493   3.210   3.738  0.2049  0.5939 -0.2080
  898BENZ    R3 2894   1.669   3.074   3.923 -0.2389 -0.0614 -0.2336
  899BENZ    R1 2895   1.920   4.575   2.618  0.3186  0.1790 -0.0561
  899BENZ    R2 2896   2.089   4.440   2.812  0.2177 -0.0502 -0.1245
  899BENZ    R3 2897   2.010   4.715   2.856  0.0522 -0.1514  0.2516
  900BENZ    R1 2898   3.434   1.157   0.747 -0.0461 -0.0636 -0.1699
  900BENZ    R2 2899   3.209   1.188   0.567 -0.0468 -0.3514 -0.2227
  900BENZ    R3 2900   3.480   1.216   0.467 -0.0527  0.2849 -0.1025
  901BENZ    R1 2901   1.657   5.071   3.992 -0.6636 -0.1671  0.1667
  901BENZ    R2 2902   1.602   5.273   3.791 -0.6424 -0.1237  0.2043
  901BENZ    R3 2903   1.606   4.992   3.718 -0.1222 -0.0823  0.0296
  902BENZ    R1 2904   2.812   3.883   1.906 -0.1569 -0.0233  0.3371
  902BENZ    R2 2905   2.593   4.057   1.985 -0.0398  0.2224  0.1363
  902BENZ    R3 2906   2.862   4.110   2.080 -0.0042  0.1445  0.0804
  903BENZ    R1 2907   2.687   1.738   4.218 -0.1817  0.1199 -0.1313
  903BENZ    R2 2908   2.595   1.979   4.352 -0.2122  0.0728 -0.0671
  903BENZ    R3 2909   2.565   1.721   4.481 -0.1995  0.0320 -0.1453
  904BENZ    R1 2910   4.082   1.212   0.606  0.0629  0.2199  0.3161
  904BENZ    R2 2911   3.801   1.282   0.628  0.0358  0.2677 -0.0978
  904BENZ    R3 2912   3.916   1.222   0.369  0.3240 -0.1249  0.1082
  905BENZ    R1 2913   2.938   3.631   1.219 -0.0986  0.1887 -0.1730
  905BENZ    R2 2914   2.887   3.855   1.395 -0.2115  0.0615 -0.0403
  905BENZ    R3 2915   2.974   3.602   1.505  0.2415  0.1293 -0.2171
  906BENZ    R1 2916   0.454   2.931   2.868  0.2437 -0.2746 -0.1096
  906BENZ    R2 2917   0.542   3.125   3.065  0.2519 -0.3302 -0.0579
  906BENZ    R3 2918   0.331   3.194   2.878  0.0391 -0.3752  0.1605
  907BENZ    R1 2919   2.503   4.583   5.647 -0.0859  0.2850 -0.1108
  907BENZ    R2 2920   2.295   4.773   5.716 -0.3956 -0.0021 -0.2252
  907BENZ    R3 2921   2.572   4.834   5.775 -0.5177  0.3413  0.0293
  908BENZ    R1 2922   4.766   5.350   0.433  0.4945 -0.1596 -0.0824
  908BENZ    R2 2923   4.636   5.136   0.581  0.1536  0.3113  0.3329
  908BENZ    R3 2924   4.635   5.134   0.291 -0.3519  0.0417  0.3262
  909BENZ    R1 2925   3.920   0.885   5.147  0.2280 -0.0302  0.2599
  909BENZ    R2 2926   3.881   1.170   5.183 -0.2547 -0.0330 -0.1369
  909BENZ    R3 2927   3.698   0.981   5.307 -0.2635 -0.1444 -0.3151
  910BENZ    R1 2928   2.476   4.048   2.852  0.0401  0.1662  0.1731
  910BENZ    R2 2929   2.749   4.090   2.763  0.0086  0.3312  0.1513
  910BENZ    R3 2930   2.537   4.053   2.568  0.0991 -0.3971  0.1655
  911BENZ    R1 2931   0.908   1.564   3.660  0.0509  0.2766 -0.1661
  911BENZ    R2 2932   0.919   1.765   3.869 -0.0551  0.1013  0.0114
  911BENZ    R3 2933   0.699   1.576   3.861  0.1931 -0.1978  0.0251
  912BENZ    R1 2934   4.288   1.105   1.738  0.1003 -0.2080  0.1861
  912BENZ    R2 2935   4.391   1.366   1.812 -0.0418 -0.1310  0.1163
  912BENZ    R3 2936   4.324   1.309   1.535  0.2887 -0.3483  0.0751
  913BENZ    R1 2937   1.055   0.013   0.011 -0.1060 -0.1416 -0.3954
  913BENZ    R2 2938   0.993   0.247   0.172 -0.2117 -0.3540 -0.1191
  913BENZ    R3 2939   0.946   0.251  -0.114 -0.1700 -0.0243 -0.1250
  914BENZ    R1 2940   1.817   2.683   3.919 -0.1023  0.1066 -0.0982
  914BENZ    R2 2941   1.692   2.520   3.714  0.0947  0.2009 -0.2972
  914BENZ    R3 2942   1.534   2.711   3.865 -0.1943 -0.3332  0.1092
  915BENZ    R1 2943   0.903   1.146   3.753  0.0548  0.1061  0.0925
  915BENZ    R2 2944   0.618   1.192   3.726  0.0744  0.1176 -0.1089
  915BENZ    R3 2945   0.774   1.112   3.495  0.2270  0.0670  0.0104
  916BENZ    R1 2946   1.535   3.156   0.329  0.2462 -0.0128  0.3144
  916BENZ    R2 2947   1.508   2.945   0.527 -0.1954 -0.2435  0.0245
  916BENZ    R3 2948   1.404   3.210   0.582 -0.0829 -0.2339  0.1981
  917BENZ    R1 2949   2.299   4.901   0.617  0.0248  0.0467  0.2259
  917BENZ    R2 2950   2.277   4.645   0.752 -0.0494 -0.0226  0.0846
  917BENZ    R3 2951   2.382   4.875   0.894 -0.2433 -0.0633  0.2992
  918BENZ    R1 2952   2.923   1.977   2.944 -0.6745 -0.3970 -0.1527
  918BENZ    R2 2953   2.925   2.234   2.810  0.2802 -0.2041  0.1497
  918BENZ    R3 2954   2.939   1.990   2.655 -0.2986 -0.0785 -0.1274
  919BENZ    R1 2955   5.704   1.446   3.378  0.0035  0.3584 -0.1139
  919BENZ    R2 2956   5.535   1.519   3.155 -0.1593 -0.1160 -0.1570
  919BENZ    R3 2957   5.781   1.373   3.109  0.1236  0.3163 -0.0688
  920BENZ    R1 2958   2.921   4.315   3.669  0.1071 -0.0062 -0.3980
  920BENZ    R2 2959   2.961   4.029   3.698 -0.2184 -0.0223 -0.0040
  920BENZ    R3 2960   2.829   4.134   3.462 -0.0726 -0.1911 -0.1636
  921BENZ    R1 2961   3.775   0.270   0.362 -0.3575  0.0708 -0.4215
  921BENZ    R2 2962   3.875   0.374   0.110  0.1657  0.0718 -0.2267
  921BENZ    R3 2963   3.827   0.089   0.142  0.1909  0.0597 -0.2961
  922BENZ    R1 2964   4.650   5.381   3.199 -0.2392 -0.2181 -0.4851
  922BENZ    R2 2965   4.775   5.475   2.955  0.0723  0.1860 -0.1847
  922BENZ    R3 2966   4.938   5.367   3.169 -0.1666  0.1051 -0.0395
  923BENZ    R1 2967   2.476   2.249   1.718 -0.0695  0.5106  0.0894
  923BENZ    R2 2968   2.444   2.163   1.443 -0.1008  0.0777  0.2202
  923BENZ    R3 2969   2.358   2.428   1.523 -0.3249  0.1181 -0.1315
  924BENZ    R1 2970   3.257   3.465   5.165  0.0137  0.0084  0.2120
  924BENZ    R2 2971   3.206   3.521   4.885 -0.0509 -0.1152  0.1985
  924BENZ    R3 2972   3.360   3.287   4.961  0.2304  0.0834  0.2534
  925BENZ    R1 2973   2.549   2.758   0.909 -0.0063 -0.1213 -0.0419
  925BENZ    R2 2974   2.537   2.977   1.098  0.1918 -0.2409  0.1142
  925BENZ    R3 2975   2.431   2.717   1.171 -0.0547 -0.1976 -0.0750
  926BENZ    R1 2976   3.397   2.785   5.233 -0.1270 -0.3316  0.0946
  926BENZ    R2 2977   3.137   2.857   5.339 -0.0727 -0.2740  0.1896
  926BENZ    R3 2978   3.192   2.582   5.265 -0.2718 -0.2290 -0.1479
  927BENZ    R1 2979   5.709   1.225   4.720  0.1640  0.2541 -0.2049
  927BENZ    R2 2980   5.568   1.270   4.471 -0.5665 -0.0913  0.1165
  927BENZ    R3 2981   5.542   1.016   4.608 -0.0030  0.0132  0.4486
  928BENZ    R1 2982   3.331   5.603   5.535 -0.1277  0.0627 -0.2414
  928BENZ    R2 2983   3.196   5.361   5.618 -0.4466  0.3932  0.2581
  928BENZ    R3 2984   3.066   5.618   5.651 -0.0344  0.6568 -0.0689
  929BENZ    R1 2985   1.958   1.427   2.249 -0.0805 -0.2321  0.1562
  929BENZ    R2 2986   1.924   1.429   1.961  0.0311 -0.1488  0.1430
  929BENZ    R3 2987   1.981   1.180   2.098  0.2700 -0.1443  0.0565
  930BENZ    R1 2988   1.239   4.367   2.553 -0.1388 -0.0610 -0.1645
  930BENZ    R2 2989   1.027   4.351   2.355 -0.1006  0.2418 -0.2341
  930BENZ    R3 2990   1.086   4.604   2.485  0.1558  0.1398 -0.1448
  931BENZ    R1 2991   1.609   1.539   2.558  0.1882 -0.1178 -0.1051
  931BENZ    R2 2992   1.791   1.691   2.725  0.1815 -0.1005 -0.1135
  931BENZ    R3 2993   1.835   1.675   2.439 -0.0939  0.3001 -0.1861
  932BENZ    R1 2994   4.460   3.322   3.819 -0.1573 -0.0762  0.3110
  932BENZ    R2 2995   4.572   3.481   3.605  0.0236 -0.4187  0.1448
  932BENZ    R3 2996   4.470   3.611   3.843 -0.1912 -0.0307 -0.1480
  933BENZ    R1 2997   5.677   0.496   0.395 -0.0333  0.2713 -0.4827
  933BENZ    R2 2998   5.588   0.769   0.430  0.1686  0.2693  0.1792
  933BENZ    R3 2999   5.459   0.555   0.577 -0.0373 -0.0166 -0.3890
  934BENZ    R1 3000   2.570   2.564   2.498  0.0809 -0.1232  0.0408
  934BENZ    R2 3001   2.450   2.810   2.592  0.1709 -0.1934  0.3536
  934BENZ    R3 3002   2.283   2.580   2.537  0.1090 -0.1284  0.2665
  935BENZ    R1 3003   3.106   3.506   3.075 -0.2637  0.0531  0.3237
  935BENZ    R2 3004   2.845   3.632   3.088 -0.4220 -0.2345  0.0885
  935BENZ    R3 3005   2.976   3.596   2.832 -0.0905  0.0137  0.2144
  936BENZ    R1 3006   0.380   1.104   0.252 -0.4919  0.1350 -0.3375
  936BENZ    R2 3007   0.187   1.296   0.353  0.1854  0.4763  0.4275
  936BENZ    R3 3008   0.463   1.376   0.313  0.3424 -0.1746  0.0679
  937BENZ    R1 3009   1.068   5.067   1.582  0.1360 -0.2549 -0.0730
  937BENZ    R2 3010   1.276   4.884   1.668  0.2142 -0.1309  0.0045
  937BENZ    R3 3011   1.263   5.152   1.779  0.0780 -0.1013 -0.0803
  938BENZ    R1 3012   5.040   4.792   1.258  0.1546  0.1928  0.2629
  938BENZ    R2 3013   4.764   4.794   1.348  0.1611  0.0787  0.2869
  938BENZ    R3 3014   4.829   4.876   1.078  0.0560 -0.2629  0.1528
  939BENZ    R1 3015   5.800   1.805   5.195 -0.3220  0.0837  0.0721
  939BENZ    R2 3016   5.885   1.592   5.018 -0.3162  0.1631 -0.0211
  939BENZ    R3 3017   5.925   1.567   5.304  0.1940  0.2765 -0.0732
  940BENZ    R1 3018   4.188   0.001   5.132 -0.0672 -0.0517 -0.1836
  940BENZ    R2 3019   4.266  -0.276   5.101  0.0770 -0.0582  0.1942
  940BENZ    R3 3020   4.290  -0.093   4.877  0.3804 -0.2535  0.0605
  941BENZ    R1 3021   0.815   3.744   1.838 -0.0992  0.2513  0.0561
  941BENZ    R2 3022   1.018   3.608   1.682 -0.0217 -0.1268  0.4685
  941BENZ    R3 3023   0.747   3.505   1.688 -0.0262 -0.1096  0.5729
  942BENZ    R1 3024   1.472   4.956   4.952  0.1079  0.1439 -0.0745
  942BENZ    R2 3025   1.339   4.829   5.176 -0.3745  0.1970 -0.3160
  942BENZ    R3 3026   1.426   4.669   4.950 -0.3915  0.2147 -0.3350
  943BENZ    R1 3027   4.415   2.824   1.203 -0.0812 -0.1134 -0.0124
  943BENZ    R2 3028   4.221   2.953   1.374 -0.0745  0.0144 -0.0999
  943BENZ    R3 3029   4.275   3.060   1.110  0.1219 -0.0140 -0.0724
  944BENZ    R1 3030   3.094   3.851   1.684  0.1144 -0.1159  0.0445
  944BENZ    R2 3031   3.367   3.926   1.622  0.0700  0.1724  0.1834
  944BENZ    R3 3032   3.221   4.069   1.828 -0.1792  0.0057  0.1260
  945BENZ    R1 3033   5.592   3.967   0.502  0.0219  0.1818  0.0736
  945BENZ    R2 3034   5.803   3.780   0.431 -0.0406  0.1710 -0.0862
  945BENZ    R3 3035   5.728   3.815   0.709 -0.3551 -0.4027 -0.0825
  946BENZ    R1 3036   4.369   0.169   0.711 -0.1032  0.0348 -0.2265
  946BENZ    R2 3037   4.194   0.094   0.493 -0.1287 -0.2761 -0.1048
  946BENZ    R3 3038   4.084   0.143   0.756 -0.0624 -0.2042 -0.0901
  947BENZ    R1 3039   0.948   3.967   1.462  0.0263 -0.0682 -0.1448
  947BENZ    R2 3040   0.695   3.840   1.526  0.0236 -0.0238 -0.0656
  947BENZ    R3 3041   0.795   4.056   1.692  0.3174 -0.3211  0.1557
  948BENZ    R1 3042   3.372   4.799   4.493 -0.0433 -0.3842 -0.2959
  948BENZ    R2 3043   3.138   4.628   4.506 -0.4397  0.1419 -0.1318
  948BENZ    R3 3044   3.219   4.781   4.739  0.0586 -0.0056 -0.1971
  949BENZ    R1 3045   1.897   0.076   1.665 -0.1132 -0.1525 -0.2956
  949BENZ    R2 3046   1.785   0.315   1.786  0.2026 -0.0114 -0.2731
  949BENZ    R3 3047   1.611   0.096   1.711 -0.0180 -0.0835  0.3817
  950BENZ    R1 3048   0.863   0.918   5.784 -0.0577 -0.4044  0.1216
  950BENZ    R2 3049   0.575   0.891   5.789 -0.1252  0.1784  0.0658
  950BENZ    R3 3050   0.704   1.011   5.560  0.1647 -0.0556  0.1012
  951BENZ    R1 3051   1.833   4.226   5.627 -0.2976 -0.1418  0.0390
  951BENZ    R2 3052   1.758   4.462   5.477  0.4130 -0.1352 -0.3542
  951BENZ    R3 3053   1.900   4.247   5.346  0.1724 -0.5942  0.1013
  952BENZ    R1 3054   0.296   0.647   4.787  0.0176  0.0180  0.1795
  952BENZ    R2 3055   0.534   0.722   4.936  0.0407  0.0957  0.1038
  952BENZ    R3 3056   0.342   0.925   4.856  0.0448  0.0594  0.0001
  953BENZ    R1 3057   5.305   1.694   4.770  0.2271  0.1551 -0.2779
  953BENZ    R2 3058   5.450   1.591   4.999 -0.2162  0.0234 -0.0440
  953BENZ    R3 3059   5.296   1.836   5.023 -0.4168 -0.0912 -0.1434
  954BENZ    R1 3060   3.450   3.251   0.946  0.1033  0.0149  0.0620
  954BENZ    R2 3061   3.533   3.066   1.153  0.4329  0.4991  0.3833
  954BENZ    R3 3062   3.264   3.172   1.154  0.1263 -0.2079  0.0009
  955BENZ    R1 3063   0.249   2.325   1.463 -0.4855  0.1494 -0.0379
  955BENZ    R2 3064   0.299   2.608   1.423 -0.0130  0.0644 -0.1028
  955BENZ    R3 3065   0.334   2.421   1.203 -0.1633 -0.0652 -0.0182
  956BENZ    R1 3066   1.913   2.763   5.110 -0.0234 -0.3840 -0.1002
  956BENZ    R2 3067   2.043   2.735   5.368  0.1761 -0.0828 -0.1620
  956BENZ    R3 3068   1.754   2.740   5.351  0.1619 -0.0645  0.0596
  957BENZ    R1 3069   0.994   5.341   2.368  0.0280  0.1344  0.1819
  957BENZ    R2 3070   1.259   5.235   2.420 -0.0209 -0.0654  0.0357
  957BENZ    R3 3071   1.025   5.073   2.475 -0.1011  0.0019 -0.1020
  958BENZ    R1 3072   0.927   1.410   3.220  0.1913 -0.0363  0.0939
  958BENZ    R2 3073   1.065   1.208   3.064  0.3436 -0.0447  0.2367
  958BENZ    R3 3074   1.041   1.479   2.963  0.1077 -0.1396  0.0280
  959BENZ    R1 3075   5.566   2.973   3.221  0.0286 -0.1747  0.0971
  959BENZ    R2 3076   5.612   3.050   2.946  0.2135 -0.0575  0.1589
  959BENZ    R3 3077   5.832   3.048   3.134  0.0849 -0.1200  0.3105
  960BENZ    R1 3078   5.380   0.801   4.346 -0.0038  0.2108 -0.2029
  960BENZ    R2 3079   5.216   1.011   4.461 -0.1596 -0.0226  0.0122
  960BENZ    R3 3080   5.347   1.052   4.205 -0.0805  0.3823  0.1110
  961BENZ    R1 3081   2.823   2.629   2.889  0.1470 -0.0124  0.0687
  961BENZ    R2 3082   2.714   2.847   3.046 -0.4569 -0.4349  0.2728
  961BENZ    R3 3083   2.931   2.686   3.152  0.2566  0.2574 -0.0312
  962BENZ    R1 3084   1.503   0.937   3.831  0.0787 -0.1936  0.2858
  962BENZ    R2 3085   1.542   0.658   3.902  0.1754 -0.3918 -0.4670
  962BENZ    R3 3086   1.389   0.728   3.666 -0.3061  0.2278 -0.0051
  963BENZ    R1 3087   2.172   2.136   3.347 -0.2431 -0.1263 -0.2205
  963BENZ    R2 3088   2.249   2.404   3.269  0.2466 -0.0154  0.5478
  963BENZ    R3 3089   2.004   2.289   3.165  0.1732  0.5992 -0.0327
  964BENZ    R1 3090   1.363   2.571   1.557 -0.0016 -0.3342 -0.1246
  964BENZ    R2 3091   1.123   2.415   1.510 -0.3301  0.2489 -0.5046
  964BENZ    R3 3092   1.338   2.412   1.315 -0.1301 -0.0739 -0.2875
  965BENZ    R1 3093   5.041   2.336   5.310  0.1794 -0.2136 -0.0928
  965BENZ    R2 3094   4.784   2.203   5.293  0.1186 -0.1080 -0.0127
  965BENZ    R3 3095   4.898   2.328   5.057 -0.0470  0.1074  0.0184
  966BENZ    R1 3096   4.706   5.787   4.134 -0.3298  0.1443 -0.1019
  966BENZ    R2 3097   4.942   5.820   3.969 -0.0248 -0.0732  0.2741
  966BENZ    R3 3098   4.938   5.926   4.239 -0.4020  0.0192  0.2372
  967BENZ    R1 3099   2.945   0.153   3.029 -0.0410  0.1516 -0.2850
  967BENZ    R2 3100   3.155   0.224   3.217 -0.2354  0.1429 -0.0596
  967BENZ    R3 3101   2.877   0.263   3.289 -0.3125  0.2076 -0.3772
  968BENZ    R1 3102   2.063   1.709   1.885 -0.0209  0.1720  0.0178
  968BENZ    R2 3103   2.244   1.654   2.105 -0.1401  0.0491  0.0866
  968BENZ    R3 3104   2.239   1.479   1.873 -0.0080  0.1838 -0.0193
  969BENZ    R1 3105   1.610   0.456   1.418  0.2095  0.3449  0.0501
  969BENZ    R2 3106   1.395   0.428   1.225  0.3040  0.0645 -0.0198
  969BENZ    R3 3107   1.388   0.642   1.421  0.0116  0.1169 -0.0831
  970BENZ    R1 3108   0.283   0.963   3.134 -0.2985 -0.0266  0.2630
  970BENZ    R2 3109   0.508   1.090   3.266 -0.1049 -0.0421 -0.0417
  970BENZ    R3 3110   0.344   1.241   3.080  0.0504 -0.1974 -0.3105
  971BENZ    R1 3111   3.172   4.645   3.189 -0.1462 -0.2508 -0.3380
  971BENZ    R2 3112   3.142   4.451   3.402  0.2087 -0.1449 -0.1840
  971BENZ    R3 3113   3.407   4.536   3.320  0.0616  0.2579 -0.2642
  972BENZ    R1 3114   0.742   5.187   1.055 -0.0697  0.1919 -0.0666
  972BENZ    R2 3115   0.652   5.070   1.305  0.0054  0.2092 -0.0311
  972BENZ    R3 3116   0.915   5.005   1.201 -0.1417 -0.0400 -0.2631
  973BENZ    R1 3117   2.250   4.066   2.323  0.0736 -0.1693  0.2569
  973BENZ    R2 3118   2.196   4.193   2.578 -0.1917 -0.1062  0.1726
  973BENZ    R3 3119   2.147   3.909   2.544 -0.0843 -0.1301  0.2122
  974BENZ    R1 3120   4.530   5.364   4.771  0.2078  0.0026  0.2110
  974BENZ    R2 3121   4.506   5.097   4.662 -0.2330 -0.0441  0.4018
  974BENZ    R3 3122   4.766   5.222   4.682 -0.0604 -0.3110 -0.0269
  975BENZ    R1 3123   1.312   4.837   4.205 -0.1065  0.1041  0.0250
  975BENZ    R2 3124   1.343   4.609   4.029 -0.1076  0.2776 -0.2049
  975BENZ    R3 3125   1.156   4.597   4.250  0.0516 -0.0201 -0.0797
  976BENZ    R1 3126   0.149   0.713   4.143 -0.1268  0.1053 -0.1411
  976BENZ    R2 3127   0.198   0.434   4.082  0.1030  0.0679  0.1840
  976BENZ    R3 3128   0.277   0.639   3.893 -0.2612 -0.0892 -0.1548
  977BENZ    R1 3129   4.248   4.471   3.973 -0.0404 -0.1120  0.1404
  977BENZ    R2 3130   4.284   4.589   4.235 -0.3116 -0.0737  0.1635
  977BENZ    R3 3131   4.126   4.347   4.205  0.1170 -0.3566  0.0961
  978BENZ    R1 3132   2.796   0.747   4.064  0.0399  0.2897  0.4448
  978BENZ    R2 3133   2.557   0.617   4.164 -0.0433  0.0393 -0.0467
  978BENZ    R3 3134   2.808   0.473   4.156 -0.0207  0.0824 -0.1248
  979BENZ    R1 3135   0.178   0.387   0.463 -0.0549 -0.0513 -0.0474
  979BENZ    R2 3136   0.437   0.314   0.570 -0.1297 -0.0431  0.1434
  979BENZ    R3 3137   0.418   0.443   0.311  0.0664  0.0761  0.1862
  980BENZ    R1 3138   2.052   1.978   2.864  0.5129  0.1031  0.3110
  980BENZ    R2 3139   2.158   1.817   2.647  0.0801  0.2670 -0.0386
  980BENZ    R3 3140   2.260   1.783   2.916  0.2846 -0.2948 -0.1723
  981BENZ    R1 3141   0.899   2.467   2.258 -0.1526  0.6490 -0.2153
  981BENZ    R2 3142   1.189   2.466   2.263 -0.1457  0.2200 -0.2599
  981BENZ    R3 3143   1.040   2.595   2.477  0.0797  0.0820 -0.0139
  982BENZ    R1 3144   0.818   1.453   2.421 -0.1417 -0.0505 -0.1754
  982BENZ    R2 3145   0.817   1.374   2.700 -0.3947  0.0446 -0.1471
  982BENZ    R3 3146   1.068   1.429   2.566 -0.2824  0.2048  0.1212
  983BENZ    R1 3147   4.593   2.348   4.121  0.0165  0.0569  0.0647
  983BENZ    R2 3148   4.748   2.293   3.882 -0.1136  0.0266 -0.0139
  983BENZ    R3 3149   4.830   2.505   4.062 -0.1847  0.2555 -0.2457
  984BENZ    R1 3150   3.174   5.357   1.430 -0.1141  0.2123 -0.1013
  984BENZ    R2 3151   3.420   5.361   1.583 -0.1359 -0.1194 -0.0499
  984BENZ    R3 3152   3.418   5.458   1.310 -0.0039  0.0986  0.0238
  985BENZ    R1 3153   0.051   2.316   4.660 -0.1443 -0.2374  0.4521
  985BENZ    R2 3154  -0.073   2.482   4.458  0.3546  0.2086  0.4881
  985BENZ    R3 3155  -0.199   2.451   4.717 -0.1358 -0.1221  0.2274
  986BENZ    R1 3156   4.506   0.191   1.580 -0.0971  0.4539  0.4611
  986BENZ    R2 3157   4.520  -0.069   1.710  0.0760  0.1976 -0.0435
  986BENZ    R3 3158   4.546  -0.049   1.422 -0.1831  0.7583 -0.0417
  987BENZ    R1 3159   4.253   3.522   1.662  0.2332 -0.0691 -0.0338
  987BENZ    R2 3160   4.193   3.273   1.525  0.1500 -0.1947  0.2244
  987BENZ    R3 3161   4.243   3.273   1.811  0.2474  0.0734  0.2102
  988BENZ    R1 3162   4.300   2.979   2.740  0.1286 -0.2622  0.1326
  988BENZ    R2 3163   4.152   3.151   2.560  0.3539 -0.0873  0.1094
  988BENZ    R3 3164   4.196   2.873   2.491  0.0119 -0.1526  0.1336
  989BENZ    R1 3165   2.429   3.832   3.217  0.2050  0.1744 -0.1491
  989BENZ    R2 3166   2.393   3.863   3.503  0.2179 -0.4770 -0.0604
  989BENZ    R3 3167   2.660   3.845   3.392  0.2138 -0.1903 -0.1260
  990BENZ    R1 3168   5.230   3.386   2.870 -0.0282  0.0426  0.1496
  990BENZ    R2 3169   5.050   3.280   3.071  0.0740 -0.3316  0.0514
  990BENZ    R3 3170   5.274   3.120   2.978  0.1922 -0.0522 -0.1580
  991BENZ    R1 3171   0.251   3.885   1.039  0.2510  0.0937 -0.0103
  991BENZ    R2 3172   0.276   3.970   0.763  0.0725  0.0830 -0.0315
  991BENZ    R3 3173   0.407   4.120   0.974 -0.0421  0.2709 -0.0918
  992BENZ    R1 3174   4.123   4.655   2.790  0.3278 -0.0631 -0.1590
  992BENZ    R2 3175   4.184   4.751   3.056  0.0024 -0.3152  0.0137
  992BENZ    R3 3176   3.975   4.878   2.901  0.0167 -0.3314 -0.0188
  993BENZ    R1 3177   1.082   5.688   0.379  0.1808  0.1038 -0.1179
  993BENZ    R2 3178   1.343   5.576   0.439  0.1407  0.1744  0.2095
  993BENZ    R3 3179   1.220   5.763   0.623 -0.0464  0.3133 -0.0500
  994BENZ    R1 3180   3.012   0.397   2.114 -0.3010  0.0009 -0.1489
  994BENZ    R2 3181   2.838   0.262   1.925 -0.1841  0.0300 -0.2789
  994BENZ    R3 3182   3.041   0.446   1.829 -0.1047  0.0230 -0.1262
  995BENZ    R1 3183   1.731   2.736   3.371 -0.0712 -0.3379 -0.4423
  995BENZ    R2 3184   1.899   2.707   3.136  0.2195 -0.4051 -0.2322
  995BENZ    R3 3185   1.755   2.954   3.182  0.2050 -0.3713 -0.4504
  996BENZ    R1 3186   1.593   3.375   3.364  0.1367 -0.2481  0.1476
  996BENZ    R2 3187   1.584   3.412   3.077  0.0197  0.2954  0.2112
  996BENZ    R3 3188   1.824   3.308   3.203 -0.0001 -0.1477 -0.0947
  997BENZ    R1 3189   2.593   0.010   3.195 -0.1263 -0.0564  0.1484
  997BENZ    R2 3190   2.328   0.127   3.175  0.1185  0.4527 -0.5039
  997BENZ    R3 3191   2.419  -0.062   2.975  0.0769 -0.1518  0.0155
  998BENZ    R1 3192   5.152   0.299   4.526  0.1058  0.2572  0.2202
  998BENZ    R2 3193   5.432   0.226   4.514  0.0863  0.1478  0.3983
  998BENZ    R3 3194   5.356   0.501   4.566  0.1598  0.2115  0.1785
  999BENZ    R1 3195   5.803   3.533   5.388  0.1862  0.3645 -0.2297
  999BENZ    R2 3196   5.551   3.441   5.278 -0.0009  0.6117 -0.0192
  999BENZ    R3 3197   5.751   3.557   5.103  0.0376  0.2682 -0.2115
 1000BENZ    R1 3198   4.316   3.715   2.806 -0.1078  0.1547  0.3596
 1000BENZ    R2 3199   4.335   3.762   2.521 -0.2287  0.0933  0.3408
 1000BENZ    R3 3200   4.078   3.782   2.654 -0.1618  0.1878  0.4575
 1001BENZ    R1 3201   1.661   3.882   4.151  0.2071  0.0323  0.0396
 1001BENZ    R2 3202   1.691   3.688   3.937  0.0009  0.1383 -0.0885
 1001BENZ    R3 3203   1.794   3.629   4.202  0.2700  0.0108 -0.2183
 1002BENZ    R1 3204   3.242   2.022   1.936 -0.0568  0.0833  0.1459
 1002BENZ    R2 3205   3.161   1.854   2.159  0.1463 -0.2841 -0.0481
 1002BENZ    R3 3206   3.099   1.775   1.887 -0.0183  0.1138 -0.1345
 1003BENZ    R1 3207   2.601   0.842   1.374 -0.0746  0.2111 -0.1364
 1003BENZ    R2 3208   2.866   0.960   1.368  0.1308 -0.2103  0.1479
 1003BENZ    R3 3209   2.834   0.680   1.435 -0.3770 -0.2158 -0.0736
 1004BENZ    R1 3210   4.834   2.618   5.411  0.0292  0.1466  0.2093
 1004BENZ    R2 3211   4.788   2.785   5.179 -0.0253 -0.2068 -0.0420
 1004BENZ    R3 3212   5.054   2.765   5.292  0.0162 -0.0864 -0.1155
 1005BENZ    R1 3213   4.060   4.684   0.065  0.2544 -0.2400  0.3521
 1005BENZ    R2 3214   4.023   4.483   0.271 -0.0273 -0.3800  0.1715
 1005BENZ    R3 3215   3.793   4.599   0.139  0.1506 -0.3792 -0.1470
 1006BENZ    R1 3216   1.819   1.956   0.232 -0.2588  0.0499 -0.3739
 1006BENZ    R2 3217   2.017   2.033   0.034 -0.3811 -0.1323 -0.5713
 1006BENZ    R3 3218   1.955   1.753   0.076 -0.2371 -0.1083 -0.1533
 1007BENZ    R1 3219   2.770   0.866   4.489 -0.0459  0.4448 -0.2946
 1007BENZ    R2 3220   2.488   0.809   4.525  0.0119  0.2468 -0.1389
 1007BENZ    R3 3221   2.578   0.951   4.289 -0.2113  0.2629 -0.2166
 1008BENZ    R1 3222   3.781   3.266   0.176  0.0483  0.1188  0.1453
 1008BENZ    R2 3223   3.678   3.015   0.075  0.2076  0.0655  0.1127
 1008BENZ    R3 3224   3.741   3.043   0.356  0.4841 -0.0343  0.0635
 1009BENZ    R1 3225   2.340   3.225   0.871  0.1919  0.0030  0.1019
 1009BENZ    R2 3226   2.134   3.397   0.762  0.0296 -0.1372  0.1838
 1009BENZ    R3 3227   2.409   3.487   0.767  0.0168 -0.0612 -0.1877
 1010BENZ    R1 3228   1.622   2.876   2.685 -0.0226  0.1084  0.0534
 1010BENZ    R2 3229   1.761   2.638   2.593  0.5504  0.4017  0.1186
 1010BENZ    R3 3230   1.540   2.614   2.779  0.4412 -0.0879 -0.0604
 1011BENZ    R1 3231   5.364   1.387   1.314  0.0325 -0.1276  0.2337
 1011BENZ    R2 3232   5.612   1.245   1.363 -0.0461 -0.2600  0.2532
 1011BENZ    R3 3233   5.370   1.167   1.502 -0.0944 -0.1158  0.2525
 1012BENZ    R1 3234   0.530   2.017   3.102 -0.0251  0.2899  0.0796
 1012BENZ    R2 3235   0.730   2.101   3.294  0.4899 -0.2086 -0.2104
 1012BENZ    R3 3236   0.732   2.211   3.025  0.1977 -0.0182 -0.1383
 1013BENZ    R1 3237   4.552   1.205   1.258 -0.4568  0.1430  0.2791
 1013BENZ    R2 3238   4.704   1.449   1.291 -0.3181  0.0343  0.4656
 1013BENZ    R3 3239   4.837   1.192   1.311 -0.3683 -0.0611 -0.1970
 1014BENZ    R1 3240   0.480   3.051   5.485  0.0502  0.0445 -0.0705
 1014BENZ    R2 3241   0.303   2.866   5.621  0.0499 -0.0953 -0.2571
 1014BENZ    R3 3242   0.269   2.916   5.337 -0.1387  0.4190 -0.1539
 1015BENZ    R1 3243   0.752   2.150   0.396 -0.1572  0.2528  0.1599
 1015BENZ    R2 3244   0.495   2.120   0.527 -0.2767 -0.0271 -0.1224
 1015BENZ    R3 3245   0.547   1.983   0.277  0.2778 -0.2755  0.1105
 1016BENZ    R1 3246   0.735   4.136   4.206 -0.2972 -0.2698  0.2042
 1016BENZ    R2 3247   0.893   4.369   4.276  0.2245 -0.5190 -0.0852
 1016BENZ    R3 3248   0.638   4.401   4.140  0.2270 -0.1187 -0.0069
 1017BENZ    R1 3249   0.727   5.239   1.784  0.0127 -0.0087  0.1182
 1017BENZ    R2 3250   0.988   5.310   1.889  0.1161  0.1840 -0.2522
 1017BENZ    R3 3251   0.767   5.496   1.912  0.0362  0.0662 -0.0376
 1018BENZ    R1 3252   2.463   5.529   3.456 -0.1021 -0.1182  0.1984
 1018BENZ    R2 3253   2.470   5.246   3.519 -0.1314 -0.1976 -0.1400
 1018BENZ    R3 3254   2.702   5.374   3.402 -0.0931 -0.0630  0.0778
 1019BENZ    R1 3255   2.325   3.038   0.459  0.0078  0.3763 -0.0183
 1019BENZ    R2 3256   2.572   3.001   0.311  0.0944 -0.2037  0.2412
 1019BENZ    R3 3257   2.574   3.144   0.563  0.0826  0.1337  0.0567
 1020BENZ    R1 3258   1.465   3.950   0.596 -0.1123  0.0865  0.3435
 1020BENZ    R2 3259   1.439   4.230   0.525 -0.0875 -0.0021 -0.0359
 1020BENZ    R3 3260   1.631   4.063   0.387 -0.3067 -0.2754 -0.0201
 1021BENZ    R1 3261   4.142   5.629   1.815 -0.2967 -0.0341 -0.1928
 1021BENZ    R2 3262   4.185   5.361   1.713  0.3504 -0.1215  0.2487
 1021BENZ    R3 3263   4.242   5.591   1.545  0.0511 -0.2495 -0.0396
 1022BENZ    R1 3264   1.747   4.751   3.383 -0.2735 -0.4021 -0.1269
 1022BENZ    R2 3265   1.877   4.647   3.621 -0.0579  0.3103  0.0928
 1022BENZ    R3 3266   1.964   4.560   3.359  0.1633  0.0167  0.2576
 1023BENZ    R1 3267   4.530   5.081   1.516  0.3667  0.0281  0.2636
 1023BENZ    R2 3268   4.596   5.296   1.334 -0.2076 -0.1037 -0.1261
 1023BENZ    R3 3269   4.515   5.357   1.606  0.3584  0.1133  0.0073
 1024BENZ    R1 3270   1.610   2.386   0.693 -0.1512 -0.0753  0.4988
 1024BENZ    R2 3271   1.880   2.440   0.785  0.1204 -0.1338 -0.2010
 1024BENZ    R3 3272   1.798   2.521   0.519 -0.4380 -0.4581 -0.1449
 1025BENZ    R1 3273   5.384   4.105   2.088  0.3265  0.2917 -0.3678
 1025BENZ    R2 3274   5.533   3.932   1.909 -0.1768 -0.0406 -0.4898
 1025BENZ    R3 3275   5.243   3.932   1.902 -0.2000  0.3727 -0.0663
 1026BENZ    R1 3276   3.161   0.937   2.425  0.0402 -0.7001  0.3282
 1026BENZ    R2 3277   3.061   0.931   2.153  0.2242  0.2939  0.1989
 1026BENZ    R3 3278   2.889   0.852   2.373 -0.2247  0.2856 -0.1399
 1027BENZ    R1 3279   3.107   2.416   1.590  0.4481 -0.0981 -0.4112
 1027BENZ    R2 3280   3.089   2.706   1.598  0.1071 -0.1184 -0.2225
 1027BENZ    R3 3281   3.325   2.572   1.702  0.2627  0.0879 -0.3018
 1028BENZ    R1 3282   4.466   4.508   0.164  0.0998 -0.1600 -0.1163
 1028BENZ    R2 3283   4.540   4.708   0.361  0.1256 -0.1574 -0.1285
 1028BENZ    R3 3284   4.595   4.754   0.080 -0.1632 -0.0365 -0.1690
 1029BENZ    R1 3285   1.425   4.235   4.116  0.2561 -0.1069  0.0144
 1029BENZ    R2 3286   1.328   4.253   4.388  0.1207 -0.2278 -0.0244
 1029BENZ    R3 3287   1.610   4.210   4.338  0.1362 -0.2724  0.0976
 1030BENZ    R1 3288   2.926   1.780   3.706  0.0244 -0.2767 -0.3370
 1030BENZ    R2 3289   3.000   2.044   3.800 -0.2816 -0.3060  0.0120
 1030BENZ    R3 3290   3.183   1.893   3.632  0.0162  0.0089  0.0405
 1031BENZ    R1 3291   2.981   3.048   1.827  0.1793 -0.1554 -0.2530
 1031BENZ    R2 3292   3.038   2.814   1.989  0.2649 -0.0082 -0.0675
 1031BENZ    R3 3293   3.104   3.079   2.088 -0.0726  0.1162 -0.1623
 1032BENZ    R1 3294   3.946   5.726   4.708  0.3134  0.4763  0.0810
 1032BENZ    R2 3295   3.674   5.628   4.726  0.3447  0.2825 -0.3607
 1032BENZ    R3 3296   3.834   5.658   4.966  0.1700 -0.2873 -0.1557
 1033BENZ    R1 3297   2.599   5.405   5.513 -0.1683  0.2290  0.0268
 1033BENZ    R2 3298   2.809   5.341   5.703 -0.2474  0.2494  0.1220
 1033BENZ    R3 3299   2.623   5.136   5.618  0.0168  0.1431 -0.2251
 1034BENZ    R1 3300   2.065   5.308   1.163  0.0273 -0.2163 -0.4463
 1034BENZ    R2 3301   1.879   5.099   1.237 -0.0612 -0.0598 -0.2126
 1034BENZ    R3 3302   2.053   5.215   1.437 -0.0011  0.0788 -0.3432
 1035BENZ    R1 3303   1.877   0.730   1.007 -0.0540  0.1062 -0.0678
 1035BENZ    R2 3304   1.642   0.581   0.926 -0.0424  0.1014 -0.0925
 1035BENZ    R3 3305   1.799   0.492   1.153 -0.3862  0.4155  0.2835
 1036BENZ    R1 3306   3.556   2.148   4.109 -0.2750 -0.2822  0.2503
 1036BENZ    R2 3307   3.700   2.073   4.349  0.3660  0.0241 -0.0124
 1036BENZ    R3 3308   3.786   1.973   4.091 -0.2044 -0.1597 -0.1480
 1037BENZ    R1 3309   1.199   3.517   3.665 -0.2564  0.0617 -0.4274
 1037BENZ    R2 3310   1.213   3.265   3.522 -0.0825  0.0230 -0.3445
 1037BENZ    R3 3311   1.109   3.274   3.793  0.1929 -0.0130 -0.2341
 1038BENZ    R1 3312   1.489   3.766   4.891  0.2279 -0.2383  0.2657
 1038BENZ    R2 3313   1.652   3.786   5.130  0.1171 -0.1471  0.3352
 1038BENZ    R3 3314   1.561   4.027   4.997  0.4065 -0.1930  0.0408
 1039BENZ    R1 3315   2.447   4.253   5.720  0.2749 -0.2515 -0.1799
 1039BENZ    R2 3316   2.723   4.324   5.775  0.1462  0.0715  0.0902
 1039BENZ    R3 3317   2.538   4.285   5.994 -0.0443 -0.0638 -0.0909
 1040BENZ    R1 3318   0.659   2.474   3.580  0.2222  0.2365 -0.0114
 1040BENZ    R2 3319   0.668   2.487   3.290 -0.0101  0.2415 -0.0208
 1040BENZ    R3 3320   0.448   2.351   3.422 -0.1661  0.6520  0.1605
 1041BENZ    R1 3321   2.896   4.380   5.098 -0.0893  0.0104 -0.1317
 1041BENZ    R2 3322   3.094   4.591   5.085 -0.1310  0.0569 -0.0257
 1041BENZ    R3 3323   3.037   4.432   4.850  0.2474 -0.1554  0.0177
 1042BENZ    R1 3324   0.754   1.782   2.539  0.1751  0.0431  0.0162
 1042BENZ    R2 3325   0.468   1.828   2.524  0.1410 -0.1896 -0.0911
 1042BENZ    R3 3326   0.618   1.922   2.754 -0.0282 -0.1045 -0.0132
 1043BENZ    R1 3327   4.056   3.015   0.825 -0.1234 -0.0378  0.0820
 1043BENZ    R2 3328   3.913   2.766   0.785  0.1269 -0.1947  0.1377
 1043BENZ    R3 3329   3.767   3.015   0.809 -0.1165 -0.3061 -0.1237
 1044BENZ    R1 3330   3.838   3.592   0.410  0.0573 -0.0627 -0.0808
 1044BENZ    R2 3331   3.877   3.594   0.123 -0.0600  0.0242 -0.0971
 1044BENZ    R3 3332   3.635   3.705   0.237 -0.0366 -0.0557  0.0327
 1045BENZ    R1 3333   4.847   5.277   5.786  0.0103  0.1006  0.0067
 1045BENZ    R2 3334   4.842   5.545   5.898 -0.0767  0.1753 -0.1718
 1045BENZ    R3 3335   5.037   5.476   5.694 -0.0503  0.0996 -0.1217
 1046BENZ    R1 3336   1.346   3.556   5.208 -0.0825 -0.0610  0.1846
 1046BENZ    R2 3337   1.278   3.677   5.462 -0.1585 -0.1064  0.1862
 1046BENZ    R3 3338   1.136   3.756   5.222 -0.1106 -0.0888  0.1638
 1047BENZ    R1 3339   4.864   2.753   4.807 -0.1321 -0.0594  0.1088
 1047BENZ    R2 3340   4.822   2.807   4.525 -0.2078 -0.0997  0.1120
 1047BENZ    R3 3341   4.646   2.925   4.723 -0.3074 -0.2676  0.1261
 1048BENZ    R1 3342   5.534   4.399   3.217  0.0582  0.2410 -0.1963
 1048BENZ    R2 3343   5.535   4.687   3.255  0.1716  0.2742 -0.4348
 1048BENZ    R3 3344   5.730   4.521   3.391 -0.1561  0.2589  0.0385
 1049BENZ    R1 3345   1.621   2.207   1.358 -0.1040 -0.1443  0.1345
 1049BENZ    R2 3346   1.658   2.495   1.349 -0.0706 -0.1536 -0.0696
 1049BENZ    R3 3347   1.755   2.329   1.131 -0.2920 -0.2968 -0.0633
 1050BENZ    R1 3348   1.783   0.073   3.916  0.0019  0.2078  0.3056
 1050BENZ    R2 3349   1.522   0.017   3.803  0.1719 -0.1519  0.0715
 1050BENZ    R3 3350   1.561   0.004   4.090 -0.1197  0.1506  0.1309
 1051BENZ    R1 3351   4.443   2.400   0.147 -0.1119  0.3214  0.0850
 1051BENZ    R2 3352   4.537   2.481  -0.115 -0.0490 -0.3279 -0.1099
 1051BENZ    R3 3353   4.287   2.336  -0.090 -0.1268 -0.1462  0.2122
 1052BENZ    R1 3354   3.517   2.436   4.668 -0.1822  0.0871 -0.2748
 1052BENZ    R2 3355   3.482   2.150   4.641 -0.3253  0.0601  0.1346
 1052BENZ    R3 3356   3.295   2.332   4.513 -0.2640 -0.0268 -0.0834
 1053BENZ    R1 3357   2.648   3.712   3.862  0.4804  0.3640 -0.3226
 1053BENZ    R2 3358   2.577   3.974   3.761  0.2084  0.4373  0.0402
 1053BENZ    R3 3359   2.445   3.869   3.997  0.0486 -0.1792 -0.3028
 1054BENZ    R1 3360   5.519   1.558   4.250  0.2265  0.2231  0.6693
 1054BENZ    R2 3361   5.361   1.753   4.395 -0.3533  0.0755  0.2753
 1054BENZ    R3 3362   5.267   1.480   4.370  0.0184 -0.0433  0.0966
 1055BENZ    R1 3363   0.257   5.244   2.922  0.3156 -0.2980  0.0236
 1055BENZ    R2 3364   0.387   5.253   2.663 -0.0946 -0.0560 -0.1845
 1055BENZ    R3 3365   0.304   5.499   2.792  0.0665 -0.1772  0.1630
 1056BENZ    R1 3366   3.519   5.103   4.418 -0.1645  0.0187  0.2236
 1056BENZ    R2 3367   3.488   5.336   4.587 -0.1179  0.4898 -0.3835
 1056BENZ    R3 3368   3.256   5.176   4.517 -0.0790 -0.0018  0.4724
 1057BENZ    R1 3369   5.076   1.356   2.266  0.1024  0.5937  0.0003
 1057BENZ    R2 3370   5.081   1.320   2.554 -0.3135  0.0782 -0.0406
 1057BENZ    R3 3371   5.224   1.135   2.382 -0.1347  0.3351 -0.1760
 1058BENZ    R1 3372   2.552   3.479   0.237  0.0817 -0.0220 -0.4836
 1058BENZ    R2 3373   2.313   3.381   0.369  0.1482 -0.2288 -0.5134
 1058BENZ    R3 3374   2.386   3.661   0.390  0.1082 -0.2391 -0.1873
 1059BENZ    R1 3375   3.993   4.111   1.315 -0.0630  0.0524  0.2239
 1059BENZ    R2 3376   3.906   4.264   1.085  0.1540  0.3826  0.3531
 1059BENZ    R3 3377   3.937   3.976   1.064  0.3408  0.4255 -0.0828
 1060BENZ    R1 3378   0.298   5.648   1.864 -0.3648 -0.2060 -0.0673
 1060BENZ    R2 3379   0.448   5.601   1.621 -0.4146 -0.1319 -0.1127
 1060BENZ    R3 3380   0.233   5.795   1.623 -0.2781  0.0216  0.0452
 1061BENZ    R1 3381   4.788   4.417   0.624 -0.3769 -0.0209 -0.1320
 1061BENZ    R2 3382   4.681   4.621   0.799 -0.2589 -0.0227 -0.0567
 1061BENZ    R3 3383   4.501   4.446   0.654 -0.3615  0.1551 -0.1475
 1062BENZ    R1 3384   4.305   5.798   2.127 -0.0438  0.1827  0.5419
 1062BENZ    R2 3385   4.235   5.521   2.176 -0.4037  0.1625  0.0088
 1062BENZ    R3 3386   4.485   5.586   2.044 -0.2541  0.1088  0.2577
 1063BENZ    R1 3387   1.976   4.397   3.768 -0.0913  0.1184 -0.2277
 1063BENZ    R2 3388   2.134   4.157   3.806 -0.1987  0.0048 -0.4736
 1063BENZ    R3 3389   2.149   4.373   3.999 -0.2480 -0.2787 -0.1428
 1064BENZ    R1 3390   1.606   4.962   1.039 -0.0853  0.1182  0.4003
 1064BENZ    R2 3391   1.467   4.786   1.223  0.0939  0.0689  0.4908
 1064BENZ    R3 3392   1.462   5.073   1.265  0.0518  0.0646  0.5154
 1065BENZ    R1 3393   2.082   3.085   3.939 -0.2215 -0.4227  0.0347
 1065BENZ    R2 3394   2.363   3.037   3.991 -0.1727 -0.1707  0.0179
 1065BENZ    R3 3395   2.177   2.815   3.982 -0.0193 -0.3160  0.2866
 1066BENZ    R1 3396   5.797   2.168   1.274  0.2202  0.0287  0.0173
 1066BENZ    R2 3397   5.891   2.031   1.511 -0.0152  0.0949  0.1524
 1066BENZ    R3 3398   5.645   2.184   1.520 -0.1414 -0.0772 -0.1913
 1067BENZ    R1 3399   0.842   2.782   2.707  0.0330 -0.1412 -0.4666
 1067BENZ    R2 3400   0.928   2.925   2.944 -0.1917  0.2695 -0.6223
 1067BENZ    R3 3401   1.123   2.845   2.744 -0.0475  0.2483 -0.4757
 1068BENZ    R1 3402   3.929   1.291   5.505 -0.0747 -0.1020  0.1009
 1068BENZ    R2 3403   4.037   1.559   5.524  0.4784 -0.2522 -0.5540
 1068BENZ    R3 3404   3.760   1.519   5.449  0.1645  0.1276  0.2897
 1069BENZ    R1 3405   1.964   2.879   5.773 -0.0427 -0.1908 -0.1361
 1069BENZ    R2 3406   1.836   3.022   5.555  0.0982  0.0499 -0.0656
 1069BENZ    R3 3407   1.682   2.945   5.789 -0.0858 -0.3289 -0.3008
 1070BENZ    R1 3408   1.418   4.628   2.632 -0.5989 -0.0429 -0.1257
 1070BENZ    R2 3409   1.369   4.883   2.503 -0.2303  0.0843 -0.0263
 1070BENZ    R3 3410   1.631   4.761   2.487 -0.3200 -0.1432  0.1807
 1071BENZ    R1 3411   1.595   4.902   5.482  0.0356 -0.1233  0.3238
 1071BENZ    R2 3412   1.814   4.874   5.294 -0.3925  0.0838 -0.2349
 1071BENZ    R3 3413   1.852   4.806   5.573  0.3113 -0.0839 -0.3543
 1072BENZ    R1 3414   0.512   3.650   0.048  0.1363  0.1884 -0.3829
 1072BENZ    R2 3415   0.243   3.744  -0.007  0.0870  0.3169  0.0412
 1072BENZ    R3 3416   0.384   3.585  -0.204 -0.3498  0.1314 -0.1336
 1073BENZ    R1 3417   5.787   2.702   0.161 -0.2187  0.1534  0.0206
 1073BENZ    R2 3418   5.585   2.593   0.338 -0.2609 -0.3213 -0.3005
 1073BENZ    R3 3419   5.764   2.415   0.196  0.2907  0.0819 -0.1459
 1074BENZ    R1 3420   5.015   5.333   3.714  0.5113  0.2454  0.0344
 1074BENZ    R2 3421   4.965   5.150   3.934 -0.1026  0.2419 -0.0899
 1074BENZ    R3 3422   4.950   5.436   3.978 -0.2565  0.2407 -0.1298
 1075BENZ    R1 3423   2.516   2.053   5.107 -0.3563  0.2682  0.0843
 1075BENZ    R2 3424   2.554   1.832   5.290 -0.0481  0.0131 -0.2697
 1075BENZ    R3 3425   2.381   2.053   5.363 -0.1012 -0.1794  0.2304
 1076BENZ    R1 3426   3.502   0.991   2.064  0.1281  0.0878 -0.2186
 1076BENZ    R2 3427   3.357   1.203   1.931 -0.1958  0.0533  0.0648
 1076BENZ    R3 3428   3.317   1.156   2.214  0.1977 -0.1128  0.0990
 1077BENZ    R1 3429   3.168   0.572   4.225 -0.3549 -0.3221 -0.3027
 1077BENZ    R2 3430   3.285   0.772   4.049 -0.3267  0.0235  0.0940
 1077BENZ    R3 3431   3.352   0.492   4.016  0.0786  0.1392 -0.1181
 1078BENZ    R1 3432   3.742   0.180   4.915  0.4717 -0.2637 -0.1393
 1078BENZ    R2 3433   3.763   0.168   4.626  0.4248  0.4960 -0.1950
 1078BENZ    R3 3434   3.579   0.355   4.750 -0.3199 -0.4954  0.3418
 1079BENZ    R1 3435   3.900   4.183   5.093 -0.1194 -0.0279  0.0072
 1079BENZ    R2 3436   4.141   4.222   5.251  0.0577 -0.0359 -0.2537
 1079BENZ    R3 3437   3.965   3.998   5.306  0.0576  0.0239  0.0002
 1080BENZ    R1 3438   3.414   0.263   3.645  0.1000 -0.0626  0.0916
 1080BENZ    R2 3439   3.462   0.530   3.543  0.3437 -0.0860  0.1407
 1080BENZ    R3 3440   3.572   0.299   3.405 -0.0277 -0.1782 -0.0119
 1081BENZ    R1 3441   5.382   2.779   1.895 -0.1403  0.0009 -0.0117
 1081BENZ    R2 3442   5.258   2.723   1.640 -0.0733 -0.1453 -0.0132
 1081BENZ    R3 3443   5.327   2.505   1.818 -0.0441 -0.0491  0.0940
 1082BENZ    R1 3444   3.429   0.225   3.047 -0.1320 -0.0381  0.2263
 1082BENZ    R2 3445   3.270   0.020   2.917 -0.2519  0.2420 -0.0844
 1082BENZ    R3 3446   3.556   0.036   2.867 -0.1441 -0.1530  0.3373
 1083BENZ    R1 3447   5.353   2.180   0.527  0.1941  0.0443 -0.1169
 1083BENZ    R2 3448   5.262   1.940   0.392 -0.1305 -0.0177  0.1966
 1083BENZ    R3 3449   5.265   2.193   0.251  0.1605 -0.1900 -0.1196
 1084BENZ    R1 3450   4.590   0.318   5.054  0.0520  0.2172  0.0366
 1084BENZ    R2 3451   4.516   0.374   5.329 -0.2995 -0.2406  0.0471
 1084BENZ    R3 3452   4.322   0.410   5.116 -0.2104 -0.4221 -0.0674
 1085BENZ    R1 3453   1.289   4.921   0.789  0.3301 -0.3110 -0.1210
 1085BENZ    R2 3454   1.563   4.898   0.695  0.3927  0.3955 -0.1695
 1085BENZ    R3 3455   1.427   5.154   0.683 -0.3346  0.0306 -0.2908
 1086BENZ    R1 3456   3.290   5.030   0.767  0.4923 -0.0532 -0.0024
 1086BENZ    R2 3457   3.323   4.791   0.928 -0.0939 -0.0398  0.1599
 1086BENZ    R3 3458   3.422   5.046   1.025  0.0673 -0.1267  0.2281
 1087BENZ    R1 3459   3.676   4.792   0.775  0.1041 -0.0333 -0.2770
 1087BENZ    R2 3460   3.797   4.910   1.011 -0.1397  0.1478 -0.2378
 1087BENZ    R3 3461   3.958   4.860   0.775  0.1071 -0.0347 -0.0376
 1088BENZ    R1 3462   0.155   5.296   1.969 -0.1354  0.4553  0.0073
 1088BENZ    R2 3463  -0.037   5.240   2.179 -0.0450 -0.1796 -0.0626
 1088BENZ    R3 3464  -0.114   5.406   1.953 -0.3111  0.0706  0.2035
 1089BENZ    R1 3465   2.727   1.979   1.681  0.0341  0.1883  0.0789
 1089BENZ    R2 3466   2.598   1.982   1.940 -0.3102  0.1946 -0.0862
 1089BENZ    R3 3467   2.449   1.898   1.706  0.0243  0.0964 -0.2701
 1090BENZ    R1 3468   1.559   0.903   4.740 -0.3985 -0.3228 -0.4062
 1090BENZ    R2 3469   1.423   0.679   4.863 -0.0443 -0.1581  0.3371
 1090BENZ    R3 3470   1.299   0.941   4.862 -0.2283 -0.2404 -0.0566
 1091BENZ    R1 3471   4.756   3.993   0.700  0.0139 -0.2439 -0.1622
 1091BENZ    R2 3472   4.491   3.929   0.600 -0.0427 -0.2218 -0.0280
 1091BENZ    R3 3473   4.530   3.987   0.882  0.1178 -0.2981 -0.0334
 1092BENZ    R1 3474   5.524   1.354   0.002  0.1086 -0.1605 -0.0570
 1092BENZ    R2 3475   5.249   1.263  -0.013  0.0703 -0.1346  0.3607
 1092BENZ    R3 3476   5.328   1.509  -0.146 -0.0346 -0.2923 -0.0083
 1093BENZ    R1 3477   1.915   2.240   4.810  0.0014 -0.0610  0.1528
 1093BENZ    R2 3478   1.781   2.444   4.653 -0.1958 -0.2088  0.1264
 1093BENZ    R3 3479   1.865   2.503   4.924  0.3675  0.1296 -0.1053
 1094BENZ    R1 3480   1.211   1.184   0.040  0.1073 -0.2975  0.2707
 1094BENZ    R2 3481   0.977   1.197   0.211 -0.0474  0.1842  0.0391
 1094BENZ    R3 3482   1.243   1.202   0.328 -0.1494  0.0505  0.2832
 1095BENZ    R1 3483   2.890   4.641   4.221  0.0428 -0.0164 -0.2403
 1095BENZ    R2 3484   2.837   4.494   3.976 -0.0505 -0.2839 -0.0646
 1095BENZ    R3 3485   2.617   4.603   4.131  0.0224  0.1565 -0.2547
 1096BENZ    R1 3486   1.030   1.115   1.743 -0.1535 -0.6655  0.5447
 1096BENZ    R2 3487   1.294   1.043   1.838  0.1855 -0.2285 -0.0042
 1096BENZ    R3 3488   1.185   0.916   1.601  0.0981 -0.0884 -0.0404
 1097BENZ    R1 3489   4.340   1.402   5.783 -0.1487  0.1816 -0.1084
 1097BENZ    R2 3490   4.079   1.499   5.864 -0.0649  0.2210  0.1212
 1097BENZ    R3 3491   4.318   1.645   5.939  0.0275  0.1581 -0.0447
 1098BENZ    R1 3492   4.358   2.032   1.422  0.0727 -0.0481 -0.3263
 1098BENZ    R2 3493   4.447   1.770   1.509  0.0348 -0.0100 -0.1697
 1098BENZ    R3 3494   4.336   1.805   1.244 -0.5458 -0.2842  0.0221
 1099BENZ    R1 3495   3.919   2.914   2.906 -0.0912 -0.0342 -0.0283
 1099BENZ    R2 3496   3.643   2.873   2.824 -0.1901  0.4107  0.0600
 1099BENZ    R3 3497   3.750   3.142   2.848  0.2595  0.2453  0.0165
 1100BENZ    R1 3498   4.576   4.817   3.615 -0.0977  0.0544  0.1808
 1100BENZ    R2 3499   4.855   4.739   3.620 -0.0936  0.0767  0.4398
 1100BENZ    R3 3500   4.781   5.010   3.546 -0.0579  0.0337  0.2407
 1101BENZ    R1 3501   0.125   2.265   2.050  0.1903 -0.0253  0.0245
 1101BENZ    R2 3502   0.094   2.252   1.762  0.0474  0.0502  0.0359
 1101BENZ    R3 3503   0.359   2.263   1.879  0.1159 -0.2717 -0.0793
 1102BENZ    R1 3504   2.118   0.295   4.081  0.1464  0.2320  0.2683
 1102BENZ    R2 3505   2.386   0.263   4.188  0.1261  0.2665  0.3296
 1102BENZ    R3 3506   2.345   0.409   3.940  0.2384 -0.2959 -0.0382
 1103BENZ    R1 3507   4.655   2.656   3.345 -0.1650 -0.0140 -0.5247
 1103BENZ    R2 3508   4.735   2.489   3.569 -0.4373  0.5292  0.0084
 1103BENZ    R3 3509   4.830   2.429   3.301  0.3640  0.1797  0.3379
 1104BENZ    R1 3510   5.691   0.036   2.364 -0.0089  0.1943  0.1681
 1104BENZ    R2 3511   5.464  -0.022   2.535 -0.1069  0.2910  0.0727
 1104BENZ    R3 3512   5.656   0.180   2.614  0.0720  0.0533  0.2619
 1105BENZ    R1 3513   1.330   0.674   1.768 -0.0782 -0.4520  0.5122
 1105BENZ    R2 3514   1.537   0.720   1.966  0.0527  0.5222  0.2009
 1105BENZ    R3 3515   1.556   0.844   1.705 -0.3013 -0.4243 -0.3226
 1106BENZ    R1 3516   4.042   1.119   4.207  0.1071  0.0926 -0.2832
 1106BENZ    R2 3517   4.002   1.303   4.427 -0.3878 -0.1417 -0.1641
 1106BENZ    R3 3518   4.232   1.126   4.426 -0.1177  0.1981 -0.0877
 1107BENZ    R1 3519   0.140   4.748   3.272  0.2434 -0.1676  0.1056
 1107BENZ    R2 3520   0.260   4.971   3.130 -0.1359  0.1594  0.2779
 1107BENZ    R3 3521  -0.009   4.884   3.063 -0.1212 -0.0234  0.4455
 1108BENZ    R1 3522   4.773   1.793   4.163  0.0659  0.0353 -0.0972
 1108BENZ    R2 3523   4.515   1.721   4.051 -0.0111  0.2983 -0.0960
 1108BENZ    R3 3524   4.603   1.997   4.047  0.1176  0.2669  0.2217
 1109BENZ    R1 3525   4.280   0.282   4.236 -0.4253 -0.2231 -0.1378
 1109BENZ    R2 3526   4.253   0.002   4.308  0.0402 -0.3045 -0.2514
 1109BENZ    R3 3527   4.370   0.076   4.053 -0.1533 -0.0029 -0.2581
 1110BENZ    R1 3528   5.638   3.024   5.410 -0.0207  0.0262 -0.1077
 1110BENZ    R2 3529   5.445   2.813   5.457 -0.1940  0.2169  0.0514
 1110BENZ    R3 3530   5.645   2.782   5.249 -0.2611 -0.0723  0.0257
 1111BENZ    R1 3531   1.903   2.190   3.638 -0.2254 -0.1833  0.1174
 1111BENZ    R2 3532   1.840   1.920   3.555  0.2621 -0.2114 -0.2046
 1111BENZ    R3 3533   1.756   2.145   3.393  0.1782 -0.1906 -0.1331
 1112BENZ    R1 3534   2.407   0.984   5.058  0.1292  0.4705 -0.0078
 1112BENZ    R2 3535   2.475   0.761   4.886 -0.1783 -0.0646  0.5247
 1112BENZ    R3 3536   2.678   0.956   4.957  0.1351 -0.2397  0.1523
 1113BENZ    R1 3537   0.382   5.255   0.959 -0.3645 -0.1140  0.0513
 1113BENZ    R2 3538   0.211   5.120   1.150 -0.1521 -0.1695  0.2061
 1113BENZ    R3 3539   0.435   4.979   1.032  0.0583  0.0349  0.3508
 1114BENZ    R1 3540   3.956   2.915   5.357 -0.0721 -0.2230 -0.0188
 1114BENZ    R2 3541   4.240   2.857   5.360 -0.0573 -0.1488  0.0706
 1114BENZ    R3 3542   4.075   2.787   5.588 -0.0756 -0.0214  0.0971
 1115BENZ    R1 3543   2.379   3.287   1.468 -0.0638 -0.2565  0.0675
 1115BENZ    R2 3544   2.276   3.237   1.201 -0.1385  0.0891  0.0264
 1115BENZ    R3 3545   2.136   3.132   1.432 -0.3465  0.1936 -0.0499
 1116BENZ    R1 3546   1.092   1.703   1.954  0.1710  0.3432  0.1852
 1116BENZ    R2 3547   0.971   1.508   1.777  0.2473  0.3389  0.1377
 1116BENZ    R3 3548   0.869   1.542   2.046 -0.1057  0.5969 -0.0206
 1117BENZ    R1 3549   4.047   2.487   2.545 -0.3011 -0.1528 -0.3584
 1117BENZ    R2 3550   3.964   2.343   2.782 -0.1980 -0.2263 -0.3664
 1117BENZ    R3 3551   3.832   2.591   2.710 -0.0210 -0.0343 -0.0567
 1118BENZ    R1 3552   1.933   5.322   5.213  0.1240  0.1910 -0.0342
 1118BENZ    R2 3553   2.136   5.381   5.016  0.0840  0.3151 -0.0394
 1118BENZ    R3 3554   1.858   5.434   4.957  0.0804  0.4374  0.0831
 1119BENZ    R1 3555   5.054   1.751   1.513  0.0606  0.2416  0.1903
 1119BENZ    R2 3556   5.063   1.722   1.225 -0.1569  0.0377  0.2013
 1119BENZ    R3 3557   4.850   1.876   1.348 -0.2115 -0.0883  0.2663
 1120BENZ    R1 3558   0.749   4.272   1.974  0.0159  0.2187  0.0366
 1120BENZ    R2 3559   0.505   4.345   2.114 -0.1937  0.2353 -0.3259
 1120BENZ    R3 3560   0.491   4.211   1.856  0.1820  0.2748 -0.3730
 1121BENZ    R1 3561   3.122   1.435   3.646  0.0750  0.2253 -0.1189
 1121BENZ    R2 3562   3.100   1.355   3.924  0.2346  0.1035 -0.1395
 1121BENZ    R3 3563   2.861   1.421   3.772  0.1535  0.2570  0.0498
 1122BENZ    R1 3564   3.964   1.904   3.064  0.1988 -0.3019 -0.3190
 1122BENZ    R2 3565   4.085   1.901   3.327  0.0761 -0.3267 -0.2625
 1122BENZ    R3 3566   3.874   1.712   3.262 -0.2682  0.0224 -0.1994
 1123BENZ    R1 3567   5.596   2.053   3.105 -0.1722  0.5176  0.3129
 1123BENZ    R2 3568   5.729   1.867   2.927  0.2122  0.4424  0.6645
 1123BENZ    R3 3569   5.521   2.041   2.825 -0.2022 -0.2083  0.3336
 1124BENZ    R1 3570   0.064   1.976   0.087  0.1780 -0.0515 -0.1834
 1124BENZ    R2 3571  -0.137   2.031   0.289  0.1908  0.1937 -0.2350
 1124BENZ    R3 3572   0.134   2.125   0.325  0.2469  0.0454 -0.2639
 1125BENZ    R1 3573   5.620   0.775   2.915 -0.0970  0.0331  0.0109
 1125BENZ    R2 3574   5.577   0.997   2.734  0.1447  0.0381 -0.0434
 1125BENZ    R3 3575   5.563   1.039   3.020  0.1028  0.1043 -0.0551
 1126BENZ    R1 3576   0.943   0.698   4.041 -0.1803  0.2068 -0.1965
 1126BENZ    R2 3577   0.953   0.723   3.752  0.0564  0.1789 -0.1930
 1126BENZ    R3 3578   1.123   0.889   3.917  0.0836  0.0397 -0.0792
 1127BENZ    R1 3579   2.400   0.537   1.713 -0.0039 -0.0518 -0.2350
 1127BENZ    R2 3580   2.301   0.802   1.774  0.2959  0.0243 -0.0548
 1127BENZ    R3 3581   2.289   0.593   1.975  0.5171  0.0415 -0.0221
 1128BENZ    R1 3582   0.333   1.002   4.051 -0.1133  0.5562  0.0457
 1128BENZ    R2 3583   0.355   0.979   3.762  0.1548  0.1823  0.0878
 1128BENZ    R3 3584   0.096   0.960   3.890  0.0919 -0.2636 -0.0893
 1129BENZ    R1 3585   3.094   4.308   4.311 -0.0034 -0.1884 -0.0815
 1129BENZ    R2 3586   3.132   4.299   4.023 -0.0771 -0.0131 -0.0985
 1129BENZ    R3 3587   3.281   4.490   4.183 -0.3206  0.1580 -0.0711
 1130BENZ    R1 3588   3.269   4.929   5.622 -0.2552 -0.0228 -0.0181
 1130BENZ    R2 3589   3.194   4.673   5.508 -0.3874 -0.0976  0.2306
 1130BENZ    R3 3590   3.334   4.684   5.762 -0.0446  0.0647  0.0421
 1131BENZ    R1 3591   2.363   5.015   4.495  0.0406 -0.0567  0.0884
 1131BENZ    R2 3592   2.200   5.218   4.623  0.2090 -0.0301  0.2646
 1131BENZ    R3 3593   2.356   5.284   4.387  0.0966 -0.0121  0.1947
 1132BENZ    R1 3594   2.730   3.781   4.667  0.2430  0.1421 -0.2868
 1132BENZ    R2 3595   2.753   3.537   4.821  0.1811  0.2001 -0.1848
 1132BENZ    R3 3596   2.936   3.757   4.870 -0.0815  0.3671  0.0834
 1133BENZ    R1 3597   2.608   4.474   4.841 -0.1290  0.0507  0.0035
 1133BENZ    R2 3598   2.583   4.197   4.923 -0.1134  0.1150  0.2321
 1133BENZ    R3 3599   2.545   4.410   5.117 -0.0597  0.2718  0.0730
 1134BENZ    R1 3600   2.734   2.587   0.675  0.0685 -0.0590  0.1604
 1134BENZ    R2 3601   2.555   2.690   0.472  0.2993  0.1878  0.0771
 1134BENZ    R3 3602   2.840   2.744   0.456  0.3865 -0.2012  0.2061
 1135BENZ    R1 3603   1.305   1.891   2.184 -0.0009 -0.4393 -0.4097
 1135BENZ    R2 3604   1.451   1.757   1.972  0.7042 -0.0173 -0.2262
 1135BENZ    R3 3605   1.484   1.671   2.247  0.1083 -0.3008 -0.2266
 1136BENZ    R1 3606   3.773   5.747   3.871  0.1569  0.0217  0.4197
 1136BENZ    R2 3607   3.678   6.020   3.853  0.4209  0.0882 -0.1691
 1136BENZ    R3 3608   3.949   5.966   3.942  0.2809 -0.0095  0.2156
 1137BENZ    R1 3609   5.530   4.796   2.320 -0.2241  0.0390 -0.2675
 1137BENZ    R2 3610   5.392   4.599   2.483 -0.0401  0.1980  0.0931
 1137BENZ    R3 3611   5.240   4.787   2.323 -0.2222 -0.0190  0.0050
 1138BENZ    R1 3612   0.272   0.773   1.572 -0.2880 -0.2594  0.2040
 1138BENZ    R2 3613   0.442   0.969   1.700 -0.5536  0.2282 -0.1533
 1138BENZ    R3 3614   0.559   0.738   1.570 -0.2097  0.2920  0.0314
 1139BENZ    R1 3615   5.668   3.467   5.762 -0.2586  0.0572 -0.2197
 1139BENZ    R2 3616   5.694   3.753   5.802  0.1423 -0.0297  0.2279
 1139BENZ    R3 3617   5.572   3.589   6.007  0.1188 -0.2102  0.0726
 1140BENZ    R1 3618   1.947   1.316   0.562 -0.3237 -0.0778 -0.0855
 1140BENZ    R2 3619   1.977   1.593   0.642 -0.0840 -0.0487 -0.2641
 1140BENZ    R3 3620   1.714   1.470   0.638 -0.1590  0.0905  0.0873
 1141BENZ    R1 3621   5.120   0.770   2.371  0.1373 -0.3058  0.1867
 1141BENZ    R2 3622   5.124   0.497   2.275 -0.1087 -0.2963  0.1425
 1141BENZ    R3 3623   5.297   0.695   2.154  0.0035 -0.4108  0.1124
 1142BENZ    R1 3624   3.828   0.419   1.872 -0.0559 -0.1020 -0.1114
 1142BENZ    R2 3625   3.944   0.448   2.137 -0.1904 -0.0129 -0.0609
 1142BENZ    R3 3626   4.114   0.384   1.910 -0.0246  0.2290 -0.0085
 1143BENZ    R1 3627   1.452   1.243   5.421 -0.0375  0.0449 -0.1941
 1143BENZ    R2 3628   1.270   1.026   5.481 -0.0527  0.0267 -0.3031
 1143BENZ    R3 3629   1.405   1.034   5.225  0.1190  0.0271 -0.2136
 1144BENZ    R1 3630   1.173   3.727   1.252  0.1036 -0.1750 -0.2259
 1144BENZ    R2 3631   1.306   3.979   1.310 -0.2671 -0.1165  0.4828
 1144BENZ    R3 3632   1.333   3.755   1.493 -0.2836 -0.4609  0.0785
 1145BENZ    R1 3633   3.208   3.809   3.879  0.2693  0.0929 -0.2216
 1145BENZ    R2 3634   3.426   3.781   4.068  0.3000 -0.5228 -0.3291
 1145BENZ    R3 3635   3.291   3.545   3.966 -0.4696 -0.1620 -0.2147
 1146BENZ    R1 3636   5.302   0.371   2.986  0.1156 -0.1917 -0.3594
 1146BENZ    R2 3637   5.077   0.340   3.167  0.1343  0.0061 -0.2999
 1146BENZ    R3 3638   5.062   0.235   2.897 -0.0098 -0.0251 -0.2802
 1147BENZ    R1 3639   1.830   1.560   5.404 -0.0573  0.0717  0.2517
 1147BENZ    R2 3640   1.973   1.778   5.531  0.2612 -0.0763  0.1556
 1147BENZ    R3 3641   1.983   1.746   5.242 -0.2119  0.0818  0.1138
 1148BENZ    R1 3642   3.489   2.227   5.792 -0.0204 -0.1543  0.0138
 1148BENZ    R2 3643   3.384   2.272   6.059  0.2113  0.2793  0.0408
 1148BENZ    R3 3644   3.260   2.401   5.831  0.5426  0.6284  0.0488
 1149BENZ    R1 3645   0.422   3.206   0.968  0.0679  0.2235  0.4091
 1149BENZ    R2 3646   0.199   3.066   1.090 -0.0671 -0.1481 -0.2156
 1149BENZ    R3 3647   0.300   3.310   1.210 -0.5174 -0.2031  0.3217
 1150BENZ    R1 3648   3.776   5.726   0.605  0.1874 -0.1957 -0.1272
 1150BENZ    R2 3649   3.593   5.610   0.413  0.1134 -0.3976  0.0612
 1150BENZ    R3 3650   3.495   5.700   0.670  0.2052 -0.0938 -0.0059
 1151BENZ    R1 3651   4.380   4.791   0.790  0.3148  0.1703 -0.0565
 1151BENZ    R2 3652   4.313   5.073   0.786 -0.2047  0.0574 -0.0374
 1151BENZ    R3 3653   4.524   4.977   0.959  0.1475  0.4610 -0.2231
 1152BENZ    R1 3654   4.232   0.168   3.720 -0.1144 -0.0516 -0.1334
 1152BENZ    R2 3655   4.292   0.427   3.603 -0.0555 -0.1472 -0.3193
 1152BENZ    R3 3656   4.505   0.236   3.650 -0.0704 -0.0912 -0.0018
 1153BENZ    R1 3657   5.653   0.138   4.922  0.1959  0.2814 -0.3616
 1153BENZ    R2 3658   5.587   0.411   4.996  0.1017  0.0857  0.3586
 1153BENZ    R3 3659   5.390   0.245   4.862 -0.0878  0.1679  0.5296
 1154BENZ    R1 3660   1.454   5.483   5.753  0.3111 -0.2586  0.0301
 1154BENZ    R2 3661   1.625   5.708   5.813  0.1604 -0.1235 -0.0387
 1154BENZ    R3 3662   1.666   5.455   5.949 -0.0359  0.1090  0.4809
 1155BENZ    R1 3663   0.832   3.679   2.220  0.1164 -0.1386  0.2219
 1155BENZ    R2 3664   0.891   3.942   2.113 -0.1627 -0.1194  0.1073
 1155BENZ    R3 3665   0.959   3.879   2.387  0.1816 -0.0308  0.0467
 1156BENZ    R1 3666   3.990   5.510   2.413 -0.1421  0.1214  0.1384
 1156BENZ    R2 3667   4.023   5.386   2.673 -0.1643  0.3311  0.2437
 1156BENZ    R3 3668   4.245   5.393   2.486 -0.1121  0.2835  0.3032
 1157BENZ    R1 3669   5.761   3.053   0.212  0.0129 -0.1788  0.0611
 1157BENZ    R2 3670   5.525   2.911   0.124  0.1594 -0.2712 -0.1958
 1157BENZ    R3 3671   5.736   2.970  -0.065  0.2983 -0.1008  0.0083
 1158BENZ    R1 3672   0.183   2.928   4.812 -0.0713  0.2038 -0.1263
 1158BENZ    R2 3673   0.070   2.804   4.575  0.3852  0.0565 -0.2777
 1158BENZ    R3 3674   0.096   2.652   4.821  0.2069  0.1091 -0.2250
 1159BENZ    R1 3675   2.672   4.975   1.973 -0.2232 -0.2492 -0.0173
 1159BENZ    R2 3676   2.613   5.017   2.254 -0.3301 -0.2076 -0.0452
 1159BENZ    R3 3677   2.850   4.868   2.176 -0.2122 -0.0807  0.0640
 1160BENZ    R1 3678   1.214   0.454   3.874  0.2356  0.4105 -0.2172
 1160BENZ    R2 3679   1.250   0.327   3.616 -0.2350 -0.1823 -0.0129
 1160BENZ    R3 3680   1.210   0.165   3.854  0.1739  0.3489  0.4452
 1161BENZ    R1 3681   5.662   3.214   0.743 -0.2326 -0.0671  0.0048
 1161BENZ    R2 3682   5.765   2.977   0.875 -0.1722  0.0026  0.0836
 1161BENZ    R3 3683   5.489   2.985   0.787 -0.0934 -0.2162 -0.1991
 1162BENZ    R1 3684   0.082   5.663   4.908 -0.0905 -0.2053 -0.1613
 1162BENZ    R2 3685   0.034   5.494   4.677 -0.6809 -0.3621  0.0573
 1162BENZ    R3 3686   0.006   5.385   4.944 -0.1777 -0.1383  0.2121
 1163BENZ    R1 3687   1.348   0.526   2.232  0.1027 -0.2515  0.0656
 1163BENZ    R2 3688   1.126   0.470   2.054  0.0165  0.0283  0.0793
 1163BENZ    R3 3689   1.088   0.457   2.341  0.0892 -0.1763  0.0817
 1164BENZ    R1 3690   0.837   3.317   5.428  0.0255 -0.1657 -0.0920
 1164BENZ    R2 3691   0.886   3.145   5.657 -0.2307  0.2756  0.3134
 1164BENZ    R3 3692   0.998   3.412   5.650  0.1774  0.1096 -0.3142
 1165BENZ    R1 3693   2.881   3.670   5.677 -0.4578  0.2103  0.1521
 1165BENZ    R2 3694   2.776   3.574   5.424 -0.5186 -0.0223  0.2637
 1165BENZ    R3 3695   2.989   3.770   5.427 -0.3032 -0.2447  0.0278
 1166BENZ    R1 3696   5.361   4.281   4.477 -0.0880  0.0768 -0.1320
 1166BENZ    R2 3697   5.637   4.287   4.388 -0.0692 -0.3174 -0.1161
 1166BENZ    R3 3698   5.444   4.119   4.252 -0.3440  0.0722 -0.2264
 1167BENZ    R1 3699   5.202   3.218   0.785 -0.0353 -0.0652  0.0915
 1167BENZ    R2 3700   5.332   3.239   0.527 -0.5183  0.3045 -0.1390
 1167BENZ    R3 3701   5.145   3.024   0.577  0.2129 -0.2925  0.2300
 1168BENZ    R1 3702   0.455   0.307   3.181  0.0862  0.1188 -0.2847
 1168BENZ    R2 3703   0.675   0.496   3.165  0.1303  0.0540 -0.4810
 1168BENZ    R3 3704   0.711   0.224   3.071  0.0556 -0.0431 -0.2358
 1169BENZ    R1 3705   3.158   2.023   3.263 -0.1950  0.0079 -0.2497
 1169BENZ    R2 3706   2.916   1.897   3.362 -0.1415  0.0556 -0.0536
 1169BENZ    R3 3707   3.126   1.736   3.242 -0.1340 -0.0265  0.0672
 1170BENZ    R1 3708   3.598   1.892   0.512 -0.1311  0.2280 -0.1467
 1170BENZ    R2 3709   3.757   1.699   0.363 -0.1529  0.0434  0.0640
 1170BENZ    R3 3710   3.584   1.610   0.578  0.1360  0.3357  0.4331
 1171BENZ    R1 3711   1.516   0.755   0.234 -0.4111 -0.0802  0.3719
 1171BENZ    R2 3712   1.525   1.016   0.107  0.2440 -0.1672  0.2021
 1171BENZ    R3 3713   1.269   0.895   0.173 -0.0850  0.3161 -0.1205
 1172BENZ    R1 3714   3.002   1.473   1.371  0.0758  0.0910 -0.0138
 1172BENZ    R2 3715   2.972   1.728   1.236 -0.1943  0.1547  0.1591
 1172BENZ    R3 3716   3.093   1.717   1.499 -0.0582  0.0855  0.0945
 1173BENZ    R1 3717   0.460   1.860   5.756  0.1114 -0.2481  0.0287
 1173BENZ    R2 3718   0.541   1.598   5.849  0.1119 -0.2699 -0.0327
 1173BENZ    R3 3719   0.368   1.622   5.617  0.1514 -0.2144 -0.0566
 1174BENZ    R1 3720   3.693   3.465   1.155 -0.0347  0.0866 -0.0496
 1174BENZ    R2 3721   3.934   3.304   1.157 -0.1385 -0.0704  0.1428
 1174BENZ    R3 3722   3.940   3.573   1.263 -0.0815 -0.1259  0.2831
 1175BENZ    R1 3723   0.196   3.479   2.444  0.1351  0.2151  0.2254
 1175BENZ    R2 3724   0.070   3.295   2.629  0.0066 -0.2998 -0.3379
 1175BENZ    R3 3725   0.317   3.221   2.497  0.4255  0.3098  0.0492
 1176BENZ    R1 3726   4.181   4.685   1.211 -0.2805  0.1546  0.1315
 1176BENZ    R2 3727   4.412   4.854   1.257 -0.0527 -0.1464  0.1310
 1176BENZ    R3 3728   4.147   4.972   1.237  0.1255  0.2336 -0.1217
 1177BENZ    R1 3729   4.855   2.114   2.523 -0.2644  0.1623 -0.1799
 1177BENZ    R2 3730   4.985   2.239   2.751 -0.1904 -0.0962 -0.0765
 1177BENZ    R3 3731   4.833   2.400   2.564  0.3195  0.2273 -0.2328
 1178BENZ    R1 3732   1.337   0.172   2.021 -0.2729 -0.0022 -0.0897
 1178BENZ    R2 3733   1.601   0.256   2.105 -0.2356  0.0962 -0.2996
 1178BENZ    R3 3734   1.455   0.411   1.907 -0.5467  0.1711 -0.0200
 1179BENZ    R1 3735   4.585   5.214   2.020  0.0915 -0.0150 -0.0978
 1179BENZ    R2 3736   4.778   5.002   1.981  0.2715  0.0715  0.2809
 1179BENZ    R3 3737   4.522   4.944   2.104  0.1401 -0.0020 -0.0187
 1180BENZ    R1 3738   3.823   2.777   3.733 -0.0593  0.1814  0.0929
 1180BENZ    R2 3739   4.027   2.579   3.675 -0.1490  0.1888 -0.2731
 1180BENZ    R3 3740   4.027   2.716   3.931  0.0864 -0.0708 -0.1275
 1181BENZ    R1 3741   5.009   3.946   3.756  0.1185  0.0555 -0.1018
 1181BENZ    R2 3742   5.189   4.140   3.873 -0.1640  0.0563  0.3539
 1181BENZ    R3 3743   5.256   3.858   3.880  0.0305  0.0928  0.1030
 1182BENZ    R1 3744   0.655   5.362   4.706  0.0061  0.3634 -0.0246
 1182BENZ    R2 3745   0.583   5.392   4.427 -0.1871 -0.2108 -0.0502
 1182BENZ    R3 3746   0.493   5.160   4.575 -0.2000  0.1473  0.5341
 1183BENZ    R1 3747   5.777   4.011   1.525 -0.0592 -0.2444 -0.0018
 1183BENZ    R2 3748   5.900   4.234   1.386 -0.1734 -0.0851  0.1473
 1183BENZ    R3 3749   6.064   4.052   1.541 -0.0796 -0.1078  0.0237
 1184BENZ    R1 3750   3.482   0.363   2.336 -0.0530  0.0655 -0.2747
 1184BENZ    R2 3751   3.369   0.616   2.421 -0.1264 -0.2137  0.5538
 1184BENZ    R3 3752   3.634   0.539   2.509  0.3059 -0.0500 -0.4628
 1185BENZ    R1 3753   5.546   0.598   2.512  0.0900  0.0838  0.1804
 1185BENZ    R2 3754   5.368   0.391   2.610 -0.1083  0.1416 -0.0477
 1185BENZ    R3 3755   5.513   0.352   2.361  0.4045 -0.0116  0.2590
 1186BENZ    R1 3756   1.473   5.470   1.138 -0.0043  0.0454  0.1545
 1186BENZ    R2 3757   1.190   5.427   1.094  0.0385 -0.1046  0.0179
 1186BENZ    R3 3758   1.308   5.366   1.352 -0.0824  0.1123  0.1272
 1187BENZ    R1 3759   4.977   4.466   5.720  0.0869  0.0634  0.0506
 1187BENZ    R2 3760   4.733   4.314   5.680  0.1070 -0.0292  0.2665
 1187BENZ    R3 3761   4.771   4.566   5.542 -0.1973  0.0833  0.3788
 1188BENZ    R1 3762   0.806   5.550   1.502  0.0237  0.1308 -0.3251
 1188BENZ    R2 3763   0.880   5.695   1.262 -0.1335  0.0490 -0.4250
 1188BENZ    R3 3764   0.670   5.495   1.252  0.3187 -0.4538 -0.3758
 1189BENZ    R1 3765   5.759   1.107   0.170 -0.0678  0.0106  0.0005
 1189BENZ    R2 3766   5.586   1.153   0.398 -0.0667  0.4484 -0.0780
 1189BENZ    R3 3767   5.835   1.007   0.431 -0.3462 -0.0166  0.0740
 1190BENZ    R1 3768   0.763   1.911   1.866  0.0767  0.0067 -0.1310
 1190BENZ    R2 3769   0.683   2.173   1.960 -0.0023 -0.0348 -0.0815
 1190BENZ    R3 3770   0.592   2.078   1.702 -0.4521 -0.2414  0.1403
 1191BENZ    R1 3771   3.110   3.621   2.486 -0.1113  0.1572 -0.5844
 1191BENZ    R2 3772   3.345   3.581   2.321  0.0914  0.1463 -0.3005
 1191BENZ    R3 3773   3.141   3.375   2.336  0.4732 -0.2233  0.0984
 1192BENZ    R1 3774   1.415   5.501   4.826 -0.0535 -0.0803  0.1018
 1192BENZ    R2 3775   1.448   5.613   5.091 -0.1687  0.1070  0.0392
 1192BENZ    R3 3776   1.511   5.773   4.857  0.1121 -0.1197 -0.0465
 1193BENZ    R1 3777   4.875   2.621   2.280 -0.0979 -0.1412 -0.0343
 1193BENZ    R2 3778   5.117   2.782   2.283 -0.0930 -0.1483 -0.0453
 1193BENZ    R3 3779   5.112   2.523   2.414 -0.0479 -0.2156 -0.1750
 1194BENZ    R1 3780   2.596   4.726   1.471 -0.1538  0.3908  0.0831
 1194BENZ    R2 3781   2.678   4.979   1.587 -0.1288  0.5486 -0.2672
 1194BENZ    R3 3782   2.563   4.971   1.321 -0.1898  0.1966 -0.2359
 1195BENZ    R1 3783   0.963   2.336   5.080 -0.0374  0.0079  0.0403
 1195BENZ    R2 3784   0.873   2.458   5.328 -0.0795 -0.0921  0.0746
 1195BENZ    R3 3785   1.108   2.561   5.193  0.2742 -0.3754  0.4447
 1196BENZ    R1 3786   2.800   3.460   2.492 -0.0779 -0.0750  0.1202
 1196BENZ    R2 3787   2.574   3.300   2.577 -0.1415 -0.0464  0.0080
 1196BENZ    R3 3788   2.543   3.585   2.536 -0.0019  0.0176  0.3134
 1197BENZ    R1 3789   4.619   5.709   4.448 -0.1745  0.1818 -0.1037
 1197BENZ    R2 3790   4.641   5.995   4.490  0.1622  0.1314  0.1062
 1197BENZ    R3 3791   4.842   5.817   4.599 -0.0103 -0.1831 -0.0740
 1198BENZ    R1 3792   0.088   0.199   3.214 -0.1571  0.1152 -0.1378
 1198BENZ    R2 3793   0.047   0.009   3.429 -0.4151 -0.2511 -0.4949
 1198BENZ    R3 3794   0.227   0.233   3.466 -0.4817 -0.2803  0.1082
 1199BENZ    R1 3795   4.030   3.345   4.268 -0.2850  0.0208  0.0228
 1199BENZ    R2 3796   3.880   3.527   4.099 -0.2813  0.3173  0.3301
 1199BENZ    R3 3797   3.894   3.572   4.385  0.1728  0.1436  0.3443
 1200BENZ    R1 3798   4.896   1.886   2.246 -0.0964 -0.0776  0.2745
 1200BENZ    R2 3799   5.131   1.721   2.289  0.2571  0.3575  0.0959
 1200BENZ    R3 3800   4.919   1.726   2.487  0.2815 -0.2164  0.1542
 1201BENZ    R1 3801   3.611   0.603   2.981  0.0453  0.3838  0.0256
 1201BENZ    R2 3802   3.627   0.684   3.259  0.0492  0.1886  0.0837
 1201BENZ    R3 3803   3.518   0.866   3.061  0.0847  0.3442  0.2052
 1202BENZ    R1 3804   1.929   5.137   5.631 -0.2681  0.2711 -0.1193
 1202BENZ    R2 3805   2.146   5.299   5.528  0.1166 -0.0939  0.0834
 1202BENZ    R3 3806   2.119   5.023   5.443 -0.0817 -0.1434  0.2989
 1203BENZ    R1 3807   2.940   5.573   1.586  0.1538  0.1917 -0.1916
 1203BENZ    R2 3808   2.939   5.863   1.604 -0.1810  0.1702  0.3695
 1203BENZ    R3 3809   3.188   5.716   1.635 -0.0118  0.3890  0.0971
 1204BENZ    R1 3810   1.528   1.141   4.382  0.2038 -0.2024  0.0388
 1204BENZ    R2 3811   1.585   0.949   4.171  0.2658  0.0317 -0.1626
 1204BENZ    R3 3812   1.425   0.870   4.401  0.2807 -0.2549 -0.2472
 1205BENZ    R1 3813   2.972   5.219   5.403 -0.0398 -0.0817 -0.0381
 1205BENZ    R2 3814   2.949   5.221   5.114 -0.5578  0.1466 -0.0080
 1205BENZ    R3 3815   3.104   5.426   5.249 -0.1478 -0.0752 -0.1233
 1206BENZ    R1 3816   0.646   4.001   4.965 -0.3135 -0.1645 -0.2865
 1206BENZ    R2 3817   0.810   4.241   4.963 -0.3517 -0.1389 -0.4281
 1206BENZ    R3 3818   0.884   4.016   5.130 -0.4235  0.0450 -0.1423
 1207BENZ    R1 3819   0.707   2.308   4.020  0.4099  0.1468  0.0713
 1207BENZ    R2 3820   0.790   2.103   4.208 -0.2342 -0.1383  0.0727
 1207BENZ    R3 3821   0.703   2.029   3.942 -0.1381  0.1791 -0.0529
 1208BENZ    R1 3822   0.922   2.914   1.807  0.0865 -0.0334 -0.1863
 1208BENZ    R2 3823   0.863   2.720   2.015  0.1281 -0.0765 -0.2144
 1208BENZ    R3 3824   0.995   2.970   2.082 -0.1875  0.0733 -0.1321
 1209BENZ    R1 3825   3.528   2.714   4.068 -0.0226  0.0053  0.0330
 1209BENZ    R2 3826   3.719   2.496   4.069 -0.1960 -0.1534 -0.2282
 1209BENZ    R3 3827   3.484   2.483   4.237  0.1152  0.1370  0.2539
 1210BENZ    R1 3828   2.207   3.227   5.557 -0.5807  0.2890 -0.1422
 1210BENZ    R2 3829   2.272   3.064   5.327 -0.1592  0.1039  0.0964
 1210BENZ    R3 3830   2.303   2.956   5.594 -0.4823  0.3713  0.2483
 1211BENZ    R1 3831   4.347   1.993   5.784 -0.0730  0.0592 -0.2018
 1211BENZ    R2 3832   4.611   2.112   5.787 -0.0140 -0.0711 -0.0160
 1211BENZ    R3 3833   4.543   1.907   5.980 -0.2496 -0.0432 -0.0668
 1212BENZ    R1 3834   4.531   3.325   3.293  0.2451  0.0475 -0.1332
 1212BENZ    R2 3835   4.427   3.447   3.052 -0.1427  0.0501  0.0277
 1212BENZ    R3 3836   4.356   3.556   3.311  0.0392 -0.1238  0.1536
 1213BENZ    R1 3837   4.747   0.912   3.859 -0.1494  0.0695 -0.1898
 1213BENZ    R2 3838   4.635   0.698   3.698 -0.1237 -0.0135 -0.0982
 1213BENZ    R3 3839   4.922   0.736   3.709 -0.1413  0.2527 -0.4013
 1214BENZ    R1 3840   2.524   5.043   2.831  0.3422  0.0247 -0.0427
 1214BENZ    R2 3841   2.446   5.017   3.109 -0.0048 -0.2452 -0.1584
 1214BENZ    R3 3842   2.400   4.798   2.924  0.0944 -0.0183 -0.4604
 1215BENZ    R1 3843   4.495   2.047   1.966  0.3348 -0.1634 -0.2700
 1215BENZ    R2 3844   4.365   1.862   2.147  0.0660  0.0204 -0.2685
 1215BENZ    R3 3845   4.614   1.788   2.017  0.2860 -0.1007  0.2005
 1216BENZ    R1 3846   1.597   4.321   2.645 -0.2260  0.0409  0.1376
 1216BENZ    R2 3847   1.759   4.382   2.878 -0.1243  0.2503  0.0160
 1216BENZ    R3 3848   1.854   4.192   2.681  0.0328  0.4599 -0.1143
 1217BENZ    R1 3849   1.052   4.238   5.376 -0.2288  0.3505  0.0385
 1217BENZ    R2 3850   1.011   4.012   5.552  0.0447  0.0831 -0.2274
 1217BENZ    R3 3851   1.035   4.279   5.662  0.1581 -0.0693  0.1347
 1218BENZ    R1 3852   0.783   0.152   2.055 -0.0302 -0.1721 -0.1400
 1218BENZ    R2 3853   0.740   0.431   2.118  0.3013 -0.1426 -0.0259
 1218BENZ    R3 3854   0.768   0.237   2.331  0.5195 -0.1883 -0.0932
 1219BENZ    R1 3855   2.573   0.024   5.139  0.2842  0.1574 -0.2681
 1219BENZ    R2 3856   2.656  -0.236   5.043  0.1512  0.0950 -0.2156
 1219BENZ    R3 3857   2.394  -0.132   4.974  0.0126  0.0065  0.1532
 1220BENZ    R1 3858   4.892   3.015   3.507  0.1043  0.3304  0.2176
 1220BENZ    R2 3859   4.674   3.021   3.698 -0.2890 -0.3053 -0.1735
 1220BENZ    R3 3860   4.618   3.004   3.414  0.2784 -0.3158 -0.2970
 1221BENZ    R1 3861   5.046   2.179   1.362 -0.2014  0.0547 -0.1452
 1221BENZ    R2 3862   5.195   2.329   1.561 -0.2100  0.0117 -0.1062
 1221BENZ    R3 3863   5.123   2.052   1.611  0.0775 -0.1047 -0.3070
 1222BENZ    R1 3864   2.611   5.757   4.389  0.0468 -0.3394  0.3042
 1222BENZ    R2 3865   2.894   5.727   4.445  0.1236 -0.0036  0.1240
 1222BENZ    R3 3866   2.802   5.942   4.273 -0.2379 -0.1454  0.1308
 1223BENZ    R1 3867   0.801   2.101   2.346  0.0186 -0.1131 -0.0885
 1223BENZ    R2 3868   0.929   1.892   2.191  0.1624 -0.2074  0.1515
 1223BENZ    R3 3869   1.066   2.143   2.236 -0.0679  0.0022 -0.2574
 1224BENZ    R1 3870   3.651   2.094   1.108  0.1268  0.2688 -0.2693
 1224BENZ    R2 3871   3.784   2.211   1.338  0.2523 -0.0227 -0.1883
 1224BENZ    R3 3872   3.799   1.925   1.291 -0.4264 -0.0862 -0.1239
 1225BENZ    R1 3873   3.701   5.670   4.334  0.0735 -0.0874 -0.0289
 1225BENZ    R2 3874   3.514   5.668   4.112 -0.1054  0.5705  0.0921
 1225BENZ    R3 3875   3.425   5.590   4.377  0.0661 -0.0560 -0.0177
 1226BENZ    R1 3876   4.675   2.561   2.935 -0.0469 -0.2429 -0.2344
 1226BENZ    R2 3877   4.449   2.725   3.014 -0.1050 -0.4439  0.0327
 1226BENZ    R3 3878   4.533   2.718   2.737 -0.0499  0.0938  0.0248
 1227BENZ    R1 3879   4.653   0.827   3.305  0.0285 -0.0713  0.0269
 1227BENZ    R2 3880   4.768   0.995   3.511 -0.2741  0.2387 -0.0481
 1227BENZ    R3 3881   4.932   0.797   3.377 -0.0192  0.1775  0.3374
 1228BENZ    R1 3882   2.610   0.124   3.911  0.3776  0.3290  0.4402
 1228BENZ    R2 3883   2.664   0.297   3.684  0.0588  0.1363  0.2082
 1228BENZ    R3 3884   2.826   0.060   3.728  0.1970  0.2380  0.2546
 1229BENZ    R1 3885   4.824   3.407   3.989 -0.2447  0.0125 -0.0148
 1229BENZ    R2 3886   4.800   3.676   3.883 -0.2010 -0.0175 -0.1022
 1229BENZ    R3 3887   5.059   3.576   3.968 -0.2536  0.0461  0.1423
 1230BENZ    R1 3888   1.206   2.248   0.761 -0.0351 -0.0872 -0.0303
 1230BENZ    R2 3889   1.171   1.967   0.698 -0.3745 -0.0574  0.0058
 1230BENZ    R3 3890   1.103   2.066   0.962  0.3263 -0.0452  0.2044
 1231BENZ    R1 3891   4.567   0.115   1.049  0.1427 -0.2399 -0.0344
 1231BENZ    R2 3892   4.646   0.302   1.256 -0.3174  0.1264 -0.1733
 1231BENZ    R3 3893   4.814   0.265   1.022 -0.0908  0.1614 -0.0199
 1232BENZ    R1 3894   0.175   1.282   3.699  0.0303 -0.0089 -0.1548
 1232BENZ    R2 3895   0.339   1.420   3.504  0.2719 -0.1364 -0.0468
 1232BENZ    R3 3896   0.160   1.208   3.419  0.3311 -0.1505 -0.1375
 1233BENZ    R1 3897   3.148   1.426   1.795  0.0344 -0.0596  0.1152
 1233BENZ    R2 3898   2.859   1.432   1.768  0.0174  0.0450  0.3034
 1233BENZ    R3 3899   2.982   1.266   1.972  0.1218 -0.4236 -0.1213
 1234BENZ    R1 3900   1.813   4.501   0.536 -0.1487  0.0156 -0.2834
 1234BENZ    R2 3901   2.034   4.678   0.472 -0.0539  0.0350  0.0778
 1234BENZ    R3 3902   1.931   4.666   0.743 -0.2224 -0.2834  0.0050
 1235BENZ    R1 3903   3.869   5.442   5.467 -0.0157 -0.1057 -0.0417
 1235BENZ    R2 3904   4.130   5.562   5.427 -0.0601  0.0370  0.0849
 1235BENZ    R3 3905   4.100   5.274   5.424  0.0895  0.0216  0.0167
 1236BENZ    R1 3906   1.132   4.544   2.938  0.5048  0.2030 -0.0491
 1236BENZ    R2 3907   0.999   4.323   3.071  0.2947  0.2644 -0.1526
 1236BENZ    R3 3908   1.287   4.320   3.037  0.3080  0.0695 -0.0370
 1237BENZ    R1 3909   5.783   0.970   5.267  0.2605 -0.3419 -0.1773
 1237BENZ    R2 3910   5.959   1.133   5.104  0.2262  0.0286  0.1390
 1237BENZ    R3 3911   6.050   1.035   5.361  0.1099 -0.1313  0.1208
 1238BENZ    R1 3912   2.421   4.894   2.478 -0.0328  0.0217  0.0738
 1238BENZ    R2 3913   2.165   4.818   2.592 -0.0111 -0.2151 -0.0298
 1238BENZ    R3 3914   2.377   4.621   2.568  0.1199 -0.0656 -0.1105
 1239BENZ    R1 3915   4.272   4.302   2.083  0.0131 -0.1601  0.2694
 1239BENZ    R2 3916   4.259   4.365   2.365 -0.4857 -0.0571  0.2327
 1239BENZ    R3 3917   4.203   4.570   2.168  0.5588  0.0786  0.0139
 1240BENZ    R1 3918   0.628   4.219   4.530 -0.1273  0.1057  0.1190
 1240BENZ    R2 3919   0.601   4.434   4.724  0.0278  0.0410  0.2144
 1240BENZ    R3 3920   0.467   4.452   4.467  0.2946  0.4030  0.0927
 1241BENZ    R1 3921   1.439   2.097   4.892 -0.1532 -0.1065 -0.2613
 1241BENZ    R2 3922   1.154   2.063   4.849 -0.1934 -0.1798  0.0369
 1241BENZ    R3 3923   1.307   1.854   4.980 -0.0515 -0.0367  0.1026
 1242BENZ    R1 3924   3.350   1.171   3.526 -0.3049 -0.0256 -0.0940
 1242BENZ    R2 3925   3.088   1.051   3.557 -0.2294 -0.1297  0.1640
 1242BENZ    R3 3926   3.288   1.020   3.765 -0.0417  0.0270  0.0113
 1243BENZ    R1 3927   1.202   5.045   3.548 -0.0066 -0.2405 -0.0509
 1243BENZ    R2 3928   1.271   4.764   3.569  0.0524 -0.2188  0.0473
 1243BENZ    R3 3929   1.007   4.841   3.479  0.1573 -0.3021 -0.3480
 1244BENZ    R1 3930   0.424   0.242   4.307  0.1937 -0.1392  0.0836
 1244BENZ    R2 3931   0.492  -0.034   4.249  0.1385 -0.1472  0.0567
 1244BENZ    R3 3932   0.218   0.037   4.313  0.1102 -0.0652 -0.1459
 1245BENZ    R1 3933   2.474   0.726   3.320 -0.3820 -0.0772 -0.0698
 1245BENZ    R2 3934   2.642   0.496   3.373  0.0599  0.2885  0.1916
 1245BENZ    R3 3935   2.493   0.513   3.125  0.1773 -0.1805  0.0789
 1246BENZ    R1 3936   2.276   0.650   5.202  0.0944  0.1214 -0.1363
 1246BENZ    R2 3937   2.071   0.837   5.117 -0.2558 -0.1116  0.1654
 1246BENZ    R3 3938   2.144   0.615   4.946 -0.1499  0.0490 -0.0028
 1247BENZ    R1 3939   2.446   4.388   4.354 -0.0604  0.1099  0.0274
 1247BENZ    R2 3940   2.502   4.642   4.482 -0.2044  0.4061 -0.4726
 1247BENZ    R3 3941   2.228   4.552   4.452 -0.1456  0.0755 -0.1026
 1248BENZ    R1 3942   0.578   1.581   4.643  0.1629 -0.2068  0.0260
 1248BENZ    R2 3943   0.351   1.453   4.769  0.0441  0.2622  0.3147
 1248BENZ    R3 3944   0.365   1.742   4.756  0.2691  0.2381 -0.3753
 1249BENZ    R1 3945   3.067   4.104   0.062  0.3595  0.0602 -0.1848
 1249BENZ    R2 3946   3.099   4.057   0.347 -0.4837 -0.2346 -0.1101
 1249BENZ    R3 3947   3.039   4.324   0.250  0.1353 -0.0637 -0.0692
 1250BENZ    R1 3948   4.059   2.981   3.476 -0.5933  0.0884  0.3823
 1250BENZ    R2 3949   4.229   2.989   3.242 -0.4597 -0.1854  0.4670
 1250BENZ    R3 3950   3.962   3.099   3.230 -0.3996 -0.0591  0.2325
 1251BENZ    R1 3951   4.088   4.961   3.803  0.1723  0.1814  0.0931
 1251BENZ    R2 3952   4.321   4.798   3.859  0.1953  0.1495 -0.0870
 1251BENZ    R3 3953   4.267   5.034   4.018  0.0926 -0.0990  0.2601
 1252BENZ    R1 3954   1.325   4.019   5.656 -0.5764  0.1024  0.0559
 1252BENZ    R2 3955   1.319   3.833   5.879  0.0406 -0.3574 -0.2818
 1252BENZ    R3 3956   1.491   4.067   5.889 -0.1688 -0.2054 -0.1590
 1253BENZ    R1 3957   5.031   5.433   4.585  0.0895  0.0164  0.1361
 1253BENZ    R2 3958   4.976   5.296   4.335 -0.2090  0.0910  0.1566
 1253BENZ    R3 3959   5.024   5.582   4.337  0.1166  0.0407  0.1499
 1254BENZ    R1 3960   0.256   0.315   0.862  0.1116  0.0371 -0.2252
 1254BENZ    R2 3961   0.287   0.093   1.046 -0.1189  0.1908  0.0079
 1254BENZ    R3 3962   0.143   0.056   0.797  0.1619 -0.0091 -0.1310
 1255BENZ    R1 3963   3.438   4.144   4.366 -0.2628  0.0918 -0.4365
 1255BENZ    R2 3964   3.621   4.253   4.170  0.0053  0.1579 -0.1575
 1255BENZ    R3 3965   3.670   3.991   4.283 -0.1918  0.0862 -0.2342
 1256BENZ    R1 3966   5.046   0.321   5.274  0.1718  0.0589  0.3094
 1256BENZ    R2 3967   5.333   0.279   5.266  0.1395 -0.1462 -0.3167
 1256BENZ    R3 3968   5.160   0.133   5.085 -0.3861 -0.1477  0.1598
 1257BENZ    R1 3969   0.017   0.027   1.920  0.2816 -0.0764 -0.2673
 1257BENZ    R2 3970  -0.252  -0.035   2.008  0.1916  0.3444 -0.2248
 1257BENZ    R3 3971  -0.170  -0.097   1.737  0.1037  0.0783 -0.1932
 1258BENZ    R1 3972   2.185   4.275   5.046  0.3104 -0.1403 -0.1447
 1258BENZ    R2 3973   2.144   4.079   4.836  0.3224  0.0582 -0.3361
 1258BENZ    R3 3974   2.232   4.347   4.769  0.3352  0.1221 -0.0747
 1259BENZ    R1 3975   1.094   4.345   0.212 -0.1411  0.0297 -0.0035
 1259BENZ    R2 3976   1.243   4.495   0.014  0.2458 -0.2332  0.0776
 1259BENZ    R3 3977   1.305   4.526   0.296 -0.2608  0.0941  0.1652
 1260BENZ    R1 3978   3.201   0.040   4.538 -0.2172 -0.3737  0.1635
 1260BENZ    R2 3979   3.268   0.276   4.694 -0.1445 -0.0342 -0.3576
 1260BENZ    R3 3980   3.380   0.018   4.765 -0.0691  0.1177  0.1060
 1261BENZ    R1 3981   2.582   3.280   3.737  0.0116  0.0074  0.3847
 1261BENZ    R2 3982   2.386   3.432   3.889 -0.3696  0.1262 -0.1944
 1261BENZ    R3 3983   2.468   3.523   3.626  0.2688 -0.0748 -0.0813
 1262BENZ    R1 3984   4.119   1.005   3.622 -0.3325 -0.0810 -0.1902
 1262BENZ    R2 3985   4.118   1.216   3.423  0.1638 -0.1412 -0.2689
 1262BENZ    R3 3986   4.147   0.940   3.341 -0.0346 -0.2037 -0.1359
 1263BENZ    R1 3987   5.257   3.983   5.723 -0.1320  0.2575  0.0176
 1263BENZ    R2 3988   5.413   4.203   5.829  0.1113  0.1745 -0.1583
 1263BENZ    R3 3989   5.436   3.939   5.947  0.0135  0.1864 -0.1110
 1264BENZ    R1 3990   3.433   1.282   0.006 -0.1063  0.2200  0.0071
 1264BENZ    R2 3991   3.717   1.313  -0.042 -0.0940 -0.0002 -0.0767
 1264BENZ    R3 3992   3.560   1.140  -0.213 -0.2515  0.0083  0.0567
 1265BENZ    R1 3993   2.146   5.561   0.214  0.1554  0.4587 -0.0013
 1265BENZ    R2 3994   2.139   5.700  -0.040  0.0931  0.0885 -0.2089
 1265BENZ    R3 3995   1.986   5.455  -0.004  0.3911 -0.0647  0.0636
 1266BENZ    R1 3996   2.957   0.386   5.558 -0.0592  0.1530  0.1088
 1266BENZ    R2 3997   2.729   0.323   5.390  0.0730 -0.2060  0.0563
 1266BENZ    R3 3998   2.973   0.428   5.272  0.1836 -0.5056  0.0077
 1267BENZ    R1 3999   3.895   4.474   3.793  0.2257  0.2785  0.0811
 1267BENZ    R2 4000   3.825   4.737   3.693 -0.0141 -0.0125 -0.5750
 1267BENZ    R3 4001   4.067   4.607   3.601  0.1675  0.0161 -0.1598
 1268BENZ    R1 4002   5.190   5.714   4.749  0.2455 -0.1190 -0.2013
 1268BENZ    R2 4003   5.471   5.690   4.681  0.2573  0.1154 -0.2444
 1268BENZ    R3 4004   5.385   5.662   4.957  0.2841 -0.2430 -0.2671
 1269BENZ    R1 4005   5.485   3.555   4.365 -0.2822 -0.1032  0.4148
 1269BENZ    R2 4006   5.594   3.287   4.351 -0.3147 -0.1302  0.6463
 1269BENZ    R3 4007   5.340   3.347   4.225 -0.0623 -0.0767  0.1384
 1270BENZ    R1 4008   1.035   0.198   1.009 -0.0443 -0.0979 -0.3430
 1270BENZ    R2 4009   1.302   0.243   0.905  0.0590  0.2033  0.0319
 1270BENZ    R3 4010   1.266   0.126   1.168 -0.1913 -0.1862 -0.1660
 1271BENZ    R1 4011   0.842   2.566   4.656  0.2830 -0.4275 -0.1399
 1271BENZ    R2 4012   1.084   2.535   4.812  0.0761 -0.5499  0.1674
 1271BENZ    R3 4013   0.939   2.301   4.722  0.2555 -0.4850 -0.3237
 1272BENZ    R1 4014   0.382   1.545   2.836  0.0444 -0.4715  0.2019
 1272BENZ    R2 4015   0.196   1.656   3.029  0.2468 -0.1291  0.2088
 1272BENZ    R3 4016   0.166   1.718   2.747  0.4447  0.0691  0.2286
 1273BENZ    R1 4017   2.945   4.557   0.471  0.2205  0.0692 -0.0708
 1273BENZ    R2 4018   3.099   4.801   0.499  0.2303  0.0208  0.3748
 1273BENZ    R3 4019   2.981   4.677   0.733 -0.3524 -0.0349  0.0687
 1274BENZ    R1 4020   2.465   0.179   2.156 -0.0474  0.2957 -0.0698
 1274BENZ    R2 4021   2.302   0.382   2.284  0.2456  0.2443  0.4073
 1274BENZ    R3 4022   2.355   0.131   2.420  0.1251 -0.0441 -0.0535
 1275BENZ    R1 4023   0.714   0.378   1.699  0.2463 -0.0246 -0.7079
 1275BENZ    R2 4024   0.429   0.348   1.743  0.3508 -0.0794  0.0709
 1275BENZ    R3 4025   0.569   0.164   1.568 -0.0360 -0.2385 -0.0825
 1276BENZ    R1 4026   4.521   3.202   0.497  0.0828  0.1914  0.1345
 1276BENZ    R2 4027   4.612   3.448   0.373  0.0423  0.1820  0.0858
 1276BENZ    R3 4028   4.796   3.288   0.531  0.1577  0.0752 -0.1510
 1277BENZ    R1 4029   0.166   0.037   2.791 -0.0245 -0.1474  0.1254
 1277BENZ    R2 4030   0.357   0.019   3.009  0.3166  0.0307 -0.1470
 1277BENZ    R3 4031   0.429   0.156   2.764 -0.2565  0.3285 -0.1671
 1278BENZ    R1 4032   5.560   5.627   3.539 -0.0616  0.0229 -0.1513
 1278BENZ    R2 4033   5.288   5.592   3.634 -0.0957  0.4921 -0.0534
 1278BENZ    R3 4034   5.476   5.749   3.788  0.2411  0.1615 -0.1131
 1279BENZ    R1 4035   1.168   2.957   4.094  0.0970  0.4015 -0.2420
 1279BENZ    R2 4036   1.110   2.814   4.340 -0.0714  0.0228 -0.4928
 1279BENZ    R3 4037   1.211   3.086   4.350  0.2581 -0.1061 -0.0015
 1280BENZ    R1 4038   3.779   5.555   1.211 -0.1074 -0.1548  0.0306
 1280BENZ    R2 4039   3.754   5.384   0.978  0.0478 -0.2129  0.0552
 1280BENZ    R3 4040   3.574   5.608   1.013  0.1124 -0.1184 -0.1937
 1281BENZ    R1 4041   0.939   3.373   5.073  0.0975 -0.0639  0.1715
 1281BENZ    R2 4042   0.650   3.364   5.103  0.1010 -0.0550  0.2080
 1281BENZ    R3 4043   0.785   3.619   5.069  0.1096 -0.0552  0.2411
 1282BENZ    R1 4044   0.090   2.246   5.336  0.1612 -0.2164 -0.1160
 1282BENZ    R2 4045   0.153   2.345   5.071  0.2483 -0.0461 -0.0330
 1282BENZ    R3 4046   0.140   2.529   5.295  0.3892 -0.2195  0.1199
 1283BENZ    R1 4047   4.253   0.611   4.773 -0.1099 -0.0757 -0.0884
 1283BENZ    R2 4048   3.997   0.622   4.910 -0.1276  0.1082 -0.1340
 1283BENZ    R3 4049   4.057   0.811   4.698 -0.2991 -0.4722 -0.7363
 1284BENZ    R1 4050   1.405   1.530   2.880 -0.3038 -0.0692 -0.2235
 1284BENZ    R2 4051   1.425   1.572   3.166 -0.1129 -0.2490 -0.2077
 1284BENZ    R3 4052   1.330   1.786   2.994  0.0669 -0.0336 -0.0447
 1285BENZ    R1 4053   5.256   2.522   3.709 -0.1710 -0.0347  0.2938
 1285BENZ    R2 4054   5.378   2.261   3.741 -0.0706 -0.0644 -0.2407
 1285BENZ    R3 4055   5.494   2.492   3.873  0.2451 -0.1813 -0.3026
 1286BENZ    R1 4056   4.605   3.987   1.467 -0.2060  0.2104 -0.5042
 1286BENZ    R2 4057   4.328   3.980   1.378 -0.4262  0.1652  0.1344
 1286BENZ    R3 4058   4.395   4.092   1.637  0.1727  0.2388 -0.0350
 1287BENZ    R1 4059   1.373   2.405   2.530  0.2159  0.2333  0.0186
 1287BENZ    R2 4060   1.538   2.526   2.324  0.3001  0.1468  0.0344
 1287BENZ    R3 4061   1.599   2.260   2.421 -0.0930 -0.0600 -0.2561
 1288BENZ    R1 4062   0.712   0.787   0.915  0.0301  0.1800  0.0881
 1288BENZ    R2 4063   0.881   0.615   1.077 -0.0197  0.0840  0.0392
 1288BENZ    R3 4064   0.764   0.854   1.192  0.4591  0.3663 -0.0280
 1289BENZ    R1 4065   0.079   3.426   0.391  0.2718  0.1031 -0.1644
 1289BENZ    R2 4066   0.320   3.566   0.311  0.3262  0.0934 -0.0203
 1289BENZ    R3 4067   0.232   3.333   0.163  0.3985  0.1038 -0.0803
 1290BENZ    R1 4068   5.751   5.430   1.198  0.2128  0.0776 -0.1967
 1290BENZ    R2 4069   5.846   5.581   0.970 -0.1578  0.3195 -0.2009
 1290BENZ    R3 4070   5.864   5.695   1.236  0.2321  0.0569 -0.1061
 1291BENZ    R1 4071   3.784   2.439   0.125 -0.3893 -0.1887 -0.1518
 1291BENZ    R2 4072   4.020   2.592   0.056 -0.5656  0.2670  0.2027
 1291BENZ    R3 4073   3.940   2.368  -0.109  0.0606  0.1490  0.0304
 1292BENZ    R1 4074   3.201   1.089   4.204 -0.2290  0.1823 -0.0946
 1292BENZ    R2 4075   3.485   1.080   4.146 -0.2619  0.0016 -0.2356
 1292BENZ    R3 4076   3.368   1.319   4.260 -0.0305  0.0306 -0.0520
 1293BENZ    R1 4077   3.036   0.709   0.993 -0.1741  0.2461  0.1493
 1293BENZ    R2 4078   3.248   0.779   0.808 -0.2412  0.0023 -0.0240
 1293BENZ    R3 4079   3.034   0.602   0.724 -0.2067 -0.2152  0.3232
 1294BENZ    R1 4080   4.747   5.536   0.791  0.3722 -0.2595  0.1700
 1294BENZ    R2 4081   4.773   5.823   0.820 -0.0990 -0.1505 -0.3217
 1294BENZ    R3 4082   4.973   5.647   0.934 -0.0531  0.3376  0.4206
 1295BENZ    R1 4083   0.253   2.938   2.002 -0.0330  0.2818 -0.1296
 1295BENZ    R2 4084   0.184   2.664   1.938  0.0744  0.1566  0.2606
 1295BENZ    R3 4085  -0.005   2.877   1.886  0.0729  0.0435 -0.2472
 1296BENZ    R1 4086   5.297   2.877   2.574  0.0807  0.3063  0.1937
 1296BENZ    R2 4087   5.566   2.790   2.639 -0.1370 -0.3793  0.2563
 1296BENZ    R3 4088   5.471   2.774   2.365 -0.1440 -0.2186  0.2487
 1297BENZ    R1 4089   5.272   4.485   2.122 -0.1685 -0.1653 -0.0768
 1297BENZ    R2 4090   5.408   4.688   1.965 -0.1976 -0.2008 -0.1487
 1297BENZ    R3 4091   5.119   4.695   1.994 -0.1627  0.0235  0.2166
 1298BENZ    R1 4092   5.576   1.001   2.104 -0.3525  0.0185  0.1890
 1298BENZ    R2 4093   5.761   0.891   2.299 -0.1780  0.1131  0.0797
 1298BENZ    R3 4094   5.694   0.739   2.061 -0.0763  0.1661  0.0166
 1299BENZ    R1 4095   2.084   5.217   3.133 -0.1478  0.0311  0.0359
 1299BENZ    R2 4096   1.810   5.237   3.226 -0.2402  0.1200 -0.2439
 1299BENZ    R3 4097   2.022   5.372   3.370 -0.3705  0.2131 -0.1367
 1300BENZ    R1 4098   0.020   2.810   1.272  0.0981  0.4355 -0.0918
 1300BENZ    R2 4099   0.176   2.959   1.467 -0.1492  0.3398  0.1880
 1300BENZ    R3 4100  -0.019   2.764   1.556  0.1607 -0.1573 -0.1681
 1301BENZ    R1 4101   2.144   0.210   0.188  0.2052 -0.0749 -0.1035
 1301BENZ    R2 4102   2.098   0.320  -0.076  0.0797  0.1427  0.0065
 1301BENZ    R3 4103   2.366   0.243   0.004  0.0907 -0.0994 -0.2479
 1302BENZ    R1 4104   4.999   2.395   4.473  0.0048  0.7919 -0.0237
 1302BENZ    R2 4105   4.711   2.426   4.459 -0.1891 -0.3648  0.3372
 1302BENZ    R3 4106   4.841   2.397   4.717  0.2396 -0.0530  0.1681
 1303BENZ    R1 4107   4.552   5.753   0.504 -0.1984  0.2713  0.1433
 1303BENZ    R2 4108   4.533   6.018   0.387 -0.1626  0.1846 -0.0625
 1303BENZ    R3 4109   4.681   5.809   0.250 -0.2989  0.0225  0.0343
 1304BENZ    R1 4110   1.829   0.855   5.370  0.4829 -0.1250  0.0793
 1304BENZ    R2 4111   1.560   0.747   5.363  0.2490  0.4021  0.3602
 1304BENZ    R3 4112   1.686   0.839   5.119  0.0083  0.5291  0.2806
 1305BENZ    R1 4113   1.407   0.072   2.828 -0.4308  0.0854  0.0811
 1305BENZ    R2 4114   1.489   0.350   2.823 -0.0639 -0.0188 -0.0869
 1305BENZ    R3 4115   1.565   0.180   3.045 -0.1626 -0.0222 -0.0552
 1306BENZ    R1 4116   4.931   3.384   3.423 -0.2543  0.1922  0.0387
 1306BENZ    R2 4117   5.139   3.262   3.585 -0.2536 -0.0063 -0.1076
 1306BENZ    R3 4118   5.073   3.542   3.621 -0.0493  0.0267  0.0280
 1307BENZ    R1 4119   2.065   5.180   1.998  0.0704 -0.7264  0.1151
 1307BENZ    R2 4120   2.304   5.151   2.159  0.2139 -0.1833  0.0215
 1307BENZ    R3 4121   2.319   5.282   1.901 -0.2368  0.1811  0.1680
 1308BENZ    R1 4122   4.886   4.372   3.742  0.3094 -0.0775  0.3239
 1308BENZ    R2 4123   4.714   4.259   3.538  0.4555  0.4198 -0.0959
 1308BENZ    R3 4124   4.598   4.387   3.771  0.2759  0.2180 -0.0717
 1309BENZ    R1 4125   0.846   3.099   4.801 -0.0567 -0.3157 -0.0355
 1309BENZ    R2 4126   1.094   2.962   4.742  0.1953  0.0614  0.1111
 1309BENZ    R3 4127   0.868   2.814   4.846  0.3452 -0.2930 -0.0508
 1310BENZ    R1 4128   0.929   0.760   1.743  0.1308 -0.2768 -0.0662
 1310BENZ    R2 4129   0.969   0.660   1.473 -0.0047  0.0065 -0.1951
 1310BENZ    R3 4130   1.037   0.494   1.701 -0.3165 -0.4184 -0.3976
 1311BENZ    R1 4131   5.548   0.369   3.888  0.3947 -0.0623 -0.1307
 1311BENZ    R2 4132   5.444   0.449   4.147  0.3432 -0.1605 -0.1205
 1311BENZ    R3 4133   5.659   0.600   4.024  0.5472 -0.2661  0.0998
 1312BENZ    R1 4134   2.620   2.410   1.261 -0.1738 -0.0257  0.0637
 1312BENZ    R2 4135   2.743   2.148   1.241 -0.0301  0.0645 -0.3304
 1312BENZ    R3 4136   2.794   2.315   1.472  0.0917 -0.1475 -0.2014
 1313BENZ    R1 4137   3.067   2.623   5.614 -0.3100 -0.2906  0.1958
 1313BENZ    R2 4138   2.847   2.450   5.688 -0.5593  0.0311  0.2296
 1313BENZ    R3 4139   2.830   2.735   5.737 -0.2191  0.0895  0.0401
 1314BENZ    R1 4140   5.744   3.936   2.233  0.0246  0.1785  0.1301
 1314BENZ    R2 4141   5.771   3.658   2.312  0.3538  0.1390 -0.0992
 1314BENZ    R3 4142   5.606   3.838   2.468  0.3131 -0.1318  0.1784
 1315BENZ    R1 4143   4.359   3.058   4.272 -0.0411  0.4487 -0.3317
 1315BENZ    R2 4144   4.092   2.961   4.213 -0.1180  0.4605 -0.0189
 1315BENZ    R3 4145   4.300   2.946   4.011 -0.0743 -0.5160  0.0505
 1316BENZ    R1 4146   3.563   0.246   0.026  0.2354 -0.7140  0.4033
 1316BENZ    R2 4147   3.313   0.221   0.171 -0.2771  0.1610 -0.2290
 1316BENZ    R3 4148   3.334   0.120  -0.100  0.2383 -0.3102 -0.0339
 1317BENZ    R1 4149   2.609   5.542   2.299  0.3848  0.2771 -0.1106
 1317BENZ    R2 4150   2.716   5.324   2.140  0.0565  0.0622 -0.0487
 1317BENZ    R3 4151   2.555   5.530   2.014  0.1216  0.1081 -0.0576
 1318BENZ    R1 4152   3.908   0.739   0.645 -0.2253  0.0146  0.0523
 1318BENZ    R2 4153   3.834   0.475   0.742  0.1752 -0.1124  0.0296
 1318BENZ    R3 4154   3.713   0.581   0.501 -0.2352 -0.1301  0.2200
 1319BENZ    R1 4155   0.271   4.509   5.065  0.1760 -0.2064 -0.0144
 1319BENZ    R2 4156   0.081   4.291   5.078 -0.1931  0.0929 -0.2137
 1319BENZ    R3 4157   0.339   4.250   4.953 -0.1390 -0.3036  0.0093
 1320BENZ    R1 4158   5.348   1.737   2.959 -0.0532  0.0549  0.4358
 1320BENZ    R2 4159   5.185   1.785   2.725  0.0136 -0.3574  0.2950
 1320BENZ    R3 4160   5.192   1.980   2.940  0.0582  0.0952 -0.1000
 1321BENZ    R1 4161   1.139   0.680   5.766 -0.3221  0.0321  0.1480
 1321BENZ    R2 4162   1.264   0.465   5.915 -0.0691 -0.1768 -0.3420
 1321BENZ    R3 4163   1.425   0.639   5.748 -0.3708 -0.1210 -0.5845
 1322BENZ    R1 4164   5.402   4.697   4.317 -0.0618 -0.0624 -0.0300
 1322BENZ    R2 4165   5.182   4.598   4.478 -0.0180 -0.0533  0.0360
 1322BENZ    R3 4166   5.230   4.883   4.458  0.1449 -0.0644  0.2334
 1323BENZ    R1 4167   5.134   2.668   0.869 -0.2070  0.2535  0.1466
 1323BENZ    R2 4168   5.216   2.619   1.143 -0.1597  0.0336  0.0948
 1323BENZ    R3 4169   5.416   2.647   0.935 -0.2031 -0.2359  0.0127
 1324BENZ    R1 4170   5.244   4.526   3.787 -0.1427 -0.1923 -0.1522
 1324BENZ    R2 4171   5.145   4.556   3.516  0.1577 -0.1047 -0.2567
 1324BENZ    R3 4172   5.320   4.335   3.582  0.1560 -0.0761 -0.1547
 1325BENZ    R1 4173   0.729   2.505   0.306  0.2882  0.0674  0.0632
 1325BENZ    R2 4174   0.689   2.510   0.593 -0.1708 -0.2684  0.0157
 1325BENZ    R3 4175   0.662   2.754   0.439 -0.3169 -0.1577  0.2117
 1326BENZ    R1 4176   1.926   5.479   2.895 -0.1451  0.0570 -0.3646
 1326BENZ    R2 4177   2.079   5.682   2.756 -0.1691  0.1592 -0.2436
 1326BENZ    R3 4178   1.865   5.760   2.936 -0.1154  0.0300 -0.1227
 1327BENZ    R1 4179   5.719   2.760   3.916  0.2867 -0.3617  0.2478
 1327BENZ    R2 4180   5.572   2.938   4.091 -0.1328 -0.2532 -0.1917
 1327BENZ    R3 4181   5.724   3.046   3.870  0.5498 -0.3731  0.1897
 1328BENZ    R1 4182   4.314   5.211   5.657 -0.3008 -0.1181  0.4025
 1328BENZ    R2 4183   4.183   5.453   5.748 -0.2943 -0.0067  0.1273
 1328BENZ    R3 4184   4.379   5.322   5.917 -0.3585  0.1317  0.3132
 1329BENZ    R1 4185   4.778   2.870   4.057 -0.1560 -0.1334 -0.2360
 1329BENZ    R2 4186   5.041   2.792   4.150 -0.2604 -0.0883  0.1117
 1329BENZ    R3 4187   4.977   3.073   4.115 -0.2032 -0.1067 -0.1669
 1330BENZ    R1 4188   0.507   3.583   1.972  0.0099 -0.0410  0.3249
 1330BENZ    R2 4189   0.235   3.521   1.896  0.0223  0.2871 -0.0146
 1330BENZ    R3 4190   0.343   3.416   2.143 -0.4556  0.2650  0.1970
 1331BENZ    R1 4191   0.425   2.450   2.354 -0.1097 -0.0278  0.2089
 1331BENZ    R2 4192   0.427   2.662   2.156 -0.1271 -0.3240 -0.1189
 1331BENZ    R3 4193   0.597   2.681   2.390 -0.0466 -0.0034 -0.1980
 1332BENZ    R1 4194   2.105   4.859   3.881 -0.1904  0.3688  0.0882
 1332BENZ    R2 4195   2.230   4.610   3.803 -0.3212  0.3788 -0.1619
 1332BENZ    R3 4196   2.297   4.731   4.057  0.2182  0.4131 -0.3075
 1333BENZ    R1 4197   3.765   4.759   1.337  0.2765  0.1216  0.4144
 1333BENZ    R2 4198   3.577   4.619   1.168  0.3607  0.7255 -0.2264
 1333BENZ    R3 4199   3.491   4.850   1.319  0.3433  0.3267  0.4105
 1334BENZ    R1 4200   3.321   4.433   0.763 -0.0761  0.0870  0.0973
 1334BENZ    R2 4201   3.318   4.401   0.475 -0.5148 -0.0336  0.1093
 1334BENZ    R3 4202   3.525   4.560   0.600 -0.2627 -0.0583 -0.2606
 1335BENZ    R1 4203   2.261   3.162   3.664 -0.0673  0.0715 -0.0706
 1335BENZ    R2 4204   2.351   2.981   3.456 -0.1171 -0.1395  0.0878
 1335BENZ    R3 4205   2.140   3.172   3.401  0.3175  0.2687 -0.2492
 1336BENZ    R1 4206   1.469   4.558   2.039  0.0765  0.3239  0.1171
 1336BENZ    R2 4207   1.383   4.604   2.312  0.0767  0.1317  0.1512
 1336BENZ    R3 4208   1.483   4.344   2.233 -0.2269  0.0885 -0.1102
 1337BENZ    R1 4209   3.249   4.061   0.924  0.6248 -0.4574  0.2483
 1337BENZ    R2 4210   3.203   3.868   0.713  0.3850 -0.1586  0.0176
 1337BENZ    R3 4211   3.325   4.123   0.651 -0.0781  0.1066  0.1517
 1338BENZ    R1 4212   2.662   0.996   0.948 -0.0299  0.3316 -0.2432
 1338BENZ    R2 4213   2.511   0.750   0.916 -0.1062  0.2991  0.2790
 1338BENZ    R3 4214   2.515   0.947   0.704 -0.2851 -0.0194 -0.0292
 1339BENZ    R1 4215   3.639   2.307   0.450  0.0439 -0.0390  0.2361
 1339BENZ    R2 4216   3.895   2.409   0.543  0.1535 -0.3419  0.2790
 1339BENZ    R3 4217   3.648   2.535   0.629  0.2913  0.2651 -0.1464
 1340BENZ    R1 4218   4.835   1.814   5.783 -0.1571  0.2278 -0.0907
 1340BENZ    R2 4219   4.972   2.020   5.934 -0.0008 -0.1033  0.2346
 1340BENZ    R3 4220   5.020   1.741   5.994 -0.0124 -0.2480 -0.3682
 1341BENZ    R1 4221   5.249   2.669   4.611 -0.2547 -0.1242 -0.1226
 1341BENZ    R2 4222   5.368   2.770   4.367 -0.0679  0.0318  0.0301
 1341BENZ    R3 4223   5.522   2.766   4.612 -0.0433 -0.6818  0.0216
 1342BENZ    R1 4224   1.832   3.096   2.821  0.1765 -0.0466  0.2775
 1342BENZ    R2 4225   1.832   3.162   2.539  0.0589 -0.0488  0.2767
 1342BENZ    R3 4226   2.083   3.126   2.679  0.1209  0.1177  0.2112
 1343BENZ    R1 4227   0.193   5.068   0.097 -0.1950  0.0414  0.3119
 1343BENZ    R2 4228  -0.004   5.095  -0.114 -0.0554 -0.1855  0.1489
 1343BENZ    R3 4229   0.276   5.059  -0.180  0.0288  0.0229  0.3779
 1344BENZ    R1 4230   4.792   2.113   0.434  0.0858 -0.1917 -0.0928
 1344BENZ    R2 4231   4.646   1.916   0.588  0.0494 -0.2682 -0.2247
 1344BENZ    R3 4232   4.933   1.892   0.558  0.1358  0.0343  0.2678
 1345BENZ    R1 4233   1.668   4.475   0.033 -0.4756  0.0278 -0.3156
 1345BENZ    R2 4234   1.816   4.656   0.205  0.0082 -0.4149 -0.2401
 1345BENZ    R3 4235   1.611   4.759   0.028  0.2241  0.1915 -0.1597
 1346BENZ    R1 4236   2.565   4.977   4.009 -0.3548  0.1037  0.1389
 1346BENZ    R2 4237   2.310   5.091   4.088 -0.1094  0.5863  0.2783
 1346BENZ    R3 4238   2.464   5.215   3.877 -0.0516  0.2086  0.0889
 1347BENZ    R1 4239   2.249   4.091   3.143 -0.1462  0.2395  0.1352
 1347BENZ    R2 4240   1.973   4.157   3.082 -0.1580  0.1162  0.0539
 1347BENZ    R3 4241   2.044   3.887   3.161 -0.0367  0.1071 -0.0815
 1348BENZ    R1 4242   5.121   4.295   5.405  0.0949  0.1466 -0.3094
 1348BENZ    R2 4243   5.197   4.574   5.381 -0.1891  0.2250 -0.3356
 1348BENZ    R3 4244   5.082   4.435   5.154  0.1390  0.0243 -0.3852
 1349BENZ    R1 4245   3.598   5.797   5.261  0.0434  0.1879  0.1114
 1349BENZ    R2 4246   3.359   5.794   5.097 -0.0604 -0.3530  0.2525
 1349BENZ    R3 4247   3.373   5.965   5.331 -0.1010  0.0602 -0.0365
 1350BENZ    R1 4248   2.790   5.329   1.054  0.2613  0.1050 -0.1695
 1350BENZ    R2 4249   2.515   5.331   0.962  0.0214 -0.3458  0.4667
 1350BENZ    R3 4250   2.697   5.539   0.877 -0.4781 -0.0925 -0.0515
 1351BENZ    R1 4251   2.622   4.499   2.315 -0.3455 -0.1208  0.2217
 1351BENZ    R2 4252   2.777   4.678   2.483  0.1032 -0.0582 -0.2369
 1351BENZ    R3 4253   2.758   4.397   2.550 -0.0783  0.0383  0.1408
 1352BENZ    R1 4254   0.135   4.728   5.761  0.1407  0.1671 -0.1346
 1352BENZ    R2 4255   0.371   4.573   5.826  0.1232  0.1330 -0.1519
 1352BENZ    R3 4256   0.246   4.738   6.029  0.1452  0.1291 -0.1350
 1353BENZ    R1 4257   5.463   0.020   0.223  0.3224 -0.1072 -0.0390
 1353BENZ    R2 4258   5.507   0.162   0.472  0.3311 -0.1345 -0.0249
 1353BENZ    R3 4259   5.537  -0.126   0.462 -0.0079 -0.1761  0.0263
 1354BENZ    R1 4260   1.754   1.434   1.627  0.0908  0.0577 -0.0572
 1354BENZ    R2 4261   1.799   1.220   1.437 -0.0533 -0.2215  0.2130
 1354BENZ    R3 4262   1.765   1.158   1.718 -0.0157  0.1684  0.3084
 1355BENZ    R1 4263   3.256   4.318   2.643  0.1479  0.2627 -0.4147
 1355BENZ    R2 4264   3.453   4.497   2.758  0.1742 -0.0167 -0.0040
 1355BENZ    R3 4265   3.172   4.565   2.771  0.1861  0.0109  0.1261
 1356BENZ    R1 4266   2.490   1.661   5.608  0.0255 -0.1962  0.0281
 1356BENZ    R2 4267   2.341   1.835   5.785 -0.1180 -0.2176 -0.0693
 1356BENZ    R3 4268   2.229   1.580   5.704  0.1045 -0.3729  0.0983
 1357BENZ    R1 4269   4.431   2.422   3.188 -0.1752  0.1319 -0.0686
 1357BENZ    R2 4270   4.170   2.456   3.310 -0.1657 -0.1769  0.0463
 1357BENZ    R3 4271   4.202   2.493   3.024 -0.2581  0.2113  0.0798
 1358BENZ    R1 4272   3.629   3.511   5.226  0.0854 -0.2083 -0.1872
 1358BENZ    R2 4273   3.430   3.708   5.302  0.1368 -0.2355  0.0243
 1358BENZ    R3 4274   3.579   3.740   5.055  0.6106  0.3503  0.3570
 1359BENZ    R1 4275   1.931   2.966   1.170 -0.1180 -0.0238  0.1278
 1359BENZ    R2 4276   1.919   2.756   0.970 -0.1374 -0.0005  0.1045
 1359BENZ    R3 4277   2.075   2.996   0.920  0.0850 -0.1152  0.2311
 1360BENZ    R1 4278   4.276   5.284   0.511  0.0505 -0.0349  0.0111
 1360BENZ    R2 4279   4.394   5.437   0.727 -0.0846  0.2334 -0.1016
 1360BENZ    R3 4280   4.205   5.562   0.546 -0.5321 -0.1775  0.0599
 1361BENZ    R1 4281   0.558   3.640   3.985 -0.1716  0.0171 -0.0863
 1361BENZ    R2 4282   0.526   3.372   4.092  0.0406 -0.1121 -0.3374
 1361BENZ    R3 4283   0.395   3.446   3.844 -0.0561  0.0336 -0.2442
 1362BENZ    R1 4284   0.088   1.330   0.759 -0.0755 -0.0508 -0.1148
 1362BENZ    R2 4285  -0.151   1.171   0.798 -0.1457  0.0348 -0.1893
 1362BENZ    R3 4286  -0.171   1.436   0.683 -0.0341  0.1128 -0.0324
 1363BENZ    R1 4287   0.193   2.975   0.608  0.0689  0.0216 -0.1302
 1363BENZ    R2 4288   0.122   2.695   0.632 -0.0915  0.0900  0.2668
 1363BENZ    R3 4289  -0.054   2.876   0.490 -0.1503  0.0496  0.2875
 1364BENZ    R1 4290   2.046   3.116   4.612  0.3086  0.0719 -0.0821
 1364BENZ    R2 4291   2.177   2.956   4.816 -0.2592 -0.0435  0.2123
 1364BENZ    R3 4292   2.015   2.828   4.613 -0.2893  0.1233  0.1291
 1365BENZ    R1 4293   3.883   0.238   2.716  0.1959 -0.1526 -0.0286
 1365BENZ    R2 4294   4.132   0.250   2.866  0.2846  0.0950 -0.1890
 1365BENZ    R3 4295   3.880   0.311   2.997  0.2857 -0.2998  0.0117
 1366BENZ    R1 4296   2.620   1.268   1.374 -0.2498 -0.1904 -0.2625
 1366BENZ    R2 4297   2.560   1.547   1.426  0.2593 -0.1428  0.1542
 1366BENZ    R3 4298   2.657   1.466   1.165 -0.0988  0.0240 -0.0387
 1367BENZ    R1 4299   1.966   0.982   0.441 -0.1747 -0.2799 -0.3549
 1367BENZ    R2 4300   1.679   1.004   0.480 -0.1697 -0.3484 -0.2755
 1367BENZ    R3 4301   1.828   0.798   0.619 -0.0095 -0.0175  0.0592
 1368BENZ    R1 4302   0.660   0.990   5.205 -0.2272  0.1845  0.4822
 1368BENZ    R2 4303   0.726   1.181   4.997 -0.1379 -0.1998  0.1442
 1368BENZ    R3 4304   0.460   1.178   5.112 -0.2376 -0.0816 -0.0763
 1369BENZ    R1 4305   0.895   3.332   3.202  0.1262  0.0336 -0.4549
 1369BENZ    R2 4306   0.898   3.622   3.204 -0.0061  0.0446  0.1641
 1369BENZ    R3 4307   1.147   3.475   3.191  0.0585  0.1766 -0.2233
 1370BENZ    R1 4308   5.501   1.930   1.144  0.2098  0.1785 -0.2414
 1370BENZ    R2 4309   5.492   1.720   1.344 -0.1538  0.2551 -0.1691
 1370BENZ    R3 4310   5.417   1.991   1.415  0.1350  0.3756 -0.3074
 1371BENZ    R1 4311   3.630   2.618   4.973 -0.2471 -0.0416 -0.4611
 1371BENZ    R2 4312   3.362   2.508   4.986 -0.1301 -0.2931  0.1221
 1371BENZ    R3 4313   3.586   2.355   5.087  0.2009  0.0272 -0.1014
 1372BENZ    R1 4314   5.045   2.745   1.950  0.3065  0.1480 -0.1084
 1372BENZ    R2 4315   4.801   2.601   1.888  0.0112  0.4642  0.2634
 1372BENZ    R3 4316   5.026   2.461   2.005 -0.0179  0.1854 -0.0011
 1373BENZ    R1 4317   3.420   1.798   4.939  0.1642 -0.0206  0.4417
 1373BENZ    R2 4318   3.179   1.950   4.886  0.0985 -0.1937  0.2296
 1373BENZ    R3 4319   3.417   2.085   4.983  0.0318  0.0387  0.0798
 1374BENZ    R1 4320   0.607   3.804   2.544  0.0455  0.1214 -0.1891
 1374BENZ    R2 4321   0.692   3.529   2.507  0.0395  0.1197 -0.1902
 1374BENZ    R3 4322   0.511   3.651   2.317  0.0733  0.1370 -0.2113
 1375BENZ    R1 4323   4.386   5.630   1.041  0.1113 -0.2740 -0.1356
 1375BENZ    R2 4324   4.099   5.663   1.013  0.0783 -0.4060  0.0325
 1375BENZ    R3 4325   4.206   5.496   1.225  0.2738 -0.5071 -0.1424
 1376BENZ    R1 4326   0.262   2.901   0.264  0.0919  0.3762  0.0761
 1376BENZ    R2 4327   0.477   2.969   0.082 -0.1357  0.6562 -0.0966
 1376BENZ    R3 4328   0.479   3.073   0.353  0.4450 -0.1310  0.2390
 1377BENZ    R1 4329   1.163   1.708   3.349  0.3662 -0.0683  0.0156
 1377BENZ    R2 4330   1.154   1.942   3.520  0.1601  0.0603 -0.1656
 1377BENZ    R3 4331   1.370   1.751   3.547  0.0100 -0.0472  0.3988
 1378BENZ    R1 4332   1.284   0.084   4.314  0.3841  0.2540 -0.0641
 1378BENZ    R2 4333   1.032   0.148   4.444  0.3487 -0.1030  0.0546
 1378BENZ    R3 4334   1.225  -0.023   4.577  0.7172  0.2701  0.0220
 1379BENZ    R1 4335   2.957   1.179   3.254  0.1967 -0.2473  0.0846
 1379BENZ    R2 4336   3.192   1.215   3.088  0.0003 -0.2135 -0.1924
 1379BENZ    R3 4337   3.157   1.376   3.326  0.3157 -0.3066 -0.0787
 1380BENZ    R1 4338   4.755   4.612   2.807  0.0362 -0.0420  0.1081
 1380BENZ    R2 4339   4.483   4.558   2.723  0.0074  0.1176  0.0963
 1380BENZ    R3 4340   4.698   4.383   2.639 -0.0671  0.0884 -0.0376
 1381BENZ    R1 4341   1.661   3.732   3.180 -0.0370  0.0640  0.1094
 1381BENZ    R2 4342   1.470   3.705   3.396 -0.1002 -0.2668  0.0175
 1381BENZ    R3 4343   1.424   3.899   3.186 -0.1808 -0.1381  0.1520
 1382BENZ    R1 4344   3.290   2.777   4.322  0.3489 -0.0068 -0.0016
 1382BENZ    R2 4345   3.042   2.826   4.465  0.2871 -0.1494 -0.0571
 1382BENZ    R3 4346   3.107   2.983   4.230  0.0474 -0.3846 -0.2878
 1383BENZ    R1 4347   3.716   4.268   3.112  0.2631  0.2945  0.0301
 1383BENZ    R2 4348   3.655   3.990   3.054 -0.1310  0.3238  0.2641
 1383BENZ    R3 4349   3.848   4.134   2.892 -0.1975  0.0232 -0.0944
   5.81643   5.81643   5.81643
