; Benzene dithiol
; SASA ~11% smaller

[ moleculetype ] 
BDT 1 

[ atoms ]
  1 TC5   1 BDT BNZ1    1 0.0  60.0
  2 TC5   1 BDT BNZ2    2 0.0  60.0
  3 U     1 BDT BNZ3    3 0.0  60.0
  4 TC6   1 BDT BS1     4 0.0   0.0
  5 TC6   1 BDT BS2     5 0.0   0.0

[ bonds ]
#ifdef FLEXIBLE
  1 2 1 0.183 10000 
  2 3 1 0.252 10000 
  3 1 1 0.252 10000 
#endif

; connections for visualization
4 3 5
5 3 5
1 5 5
2 4 5

[ constraints ] 
#ifndef FLEXIBLE
  1 2 1 0.183  ; BNZ1_BNZ2
  2 3 1 0.252  ; BNZ2_BNZ3
  3 1 1 0.252  ; BNZ3_BNZ1
#endif



[ virtual_sites3 ]
  4 2 1 3  3  37  0.360
  5 2 1 3  3  116 0.240

[ exclusions ]
  4 1 2 3 5
  5 1 2 3
;

; Benzene dithiol dimer
; SASA ~11% smaller

[ moleculetype ] 
DIM 1 

[ atoms ]
  1 TC5   1 DIM BNZ1    1 0.0  60.0
  2 TC5   1 DIM BNZ2    2 0.0  60.0
  3 U     1 DIM BNZ3    3 0.0  60.0
  4 TC6   1 DIM BS1     4 0.0   0.0
  5 TC6   1 DIM BS2     5 0.0   0.0
;
  6 TC5   1 DIM BNZ4    6 0.0  60.0
  7 TC5   1 DIM BNZ5    7 0.0  60.0
  8 U     1 DIM BNZ6    8 0.0  60.0
  9 TC6   1 DIM BS3     9 0.0   0.0
 10 TC6   1 DIM BS4    10 0.0   0.0
 
[ bonds ]
  5 9 1 0.275 15000 ; BS2_BS3 

#ifdef FLEXIBLE
  1 2 1 0.183 10000 
  2 3 1 0.252 10000 
  3 1 1 0.252 10000 
;
;
  6 7 1 0.183 10000 
  7 8 1 0.252 10000 
  8 6 1 0.252 10000 
#endif

[ constraints ] 
#ifndef FLEXIBLE
  1 2 1 0.183  ; BNZ1_BNZ2
  2 3 1 0.252  ; BNZ2_BNZ3
  3 1 1 0.252  ; BNZ3_BNZ1
;
;
  6 7 1 0.183  ; BNZ4_BNZ5
  7 8 1 0.252  ; BNZ5_BNZ6
  8 6 1 0.252  ; BNZ6_BNZ4
#endif

[ angles ]
  1 5 9  10 120 200 ; BNZ1_BS2_BS3
  7 9 5  10 120 200 ; BNZ5_BS3_BS2

[ dihedrals ]
  1 5 9 7  1  110  40 1 ; BNZ1_BS2_BS3_BNZ5

[ virtual_sites3 ]
  4 2 1 3  3  37  0.360
  5 2 1 3  3  116 0.240
;
  9 7 6 8  3   37 0.360
 10 7 6 8  3  116 0.240

[ exclusions ]
  4 1 2 3 5
  5 1 2 3
;
  9 6 7 8 10
 10 6 7 8

