BDT dimerization
  300
    1BENZ    R1    1   0.891   0.175   1.295  0.0808  0.2247  0.4496
    1BENZ    R2    2   1.176   0.227   1.301  0.1564 -0.0825 -0.0050
    1BENZ    R3    3   1.079  -0.045   1.275 -0.1834  0.0162  0.1717
    2BENZ    R1    4   0.422   2.096   1.356  0.0144 -0.0261  0.0103
    2BENZ    R2    5   0.392   2.035   1.074  0.1178 -0.4553  0.0855
    2BENZ    R3    6   0.161   2.116   1.230  0.1662  0.4543 -0.2543
    3BENZ    R1    7   1.220   0.861   0.387  0.1781 -0.7520  0.0972
    3BENZ    R2    8   1.478   0.964   0.470 -0.0550 -0.0818  0.0479
    3BENZ    R3    9   1.454   0.816   0.222  0.1930  0.4144 -0.2888
    4BENZ    R1   10   1.781   1.479   0.743  0.3434  0.0428  0.2393
    4BENZ    R2   11   1.755   1.312   0.507  0.2139  0.3125  0.0584
    4BENZ    R3   12   2.018   1.376   0.612  0.2641 -0.3140  0.3619
    5BENZ    R1   13   1.133   2.036   0.474 -0.0085  0.2043  0.0498
    5BENZ    R2   14   0.905   1.856   0.483  0.2488 -0.1214  0.3131
    5BENZ    R3   15   1.060   1.882   0.239 -0.2905  0.4061 -0.0007
    6BENZ    R1   16   0.987   0.545   1.418  0.1249 -0.2758 -0.2704
    6BENZ    R2   17   0.955   0.330   1.610  0.1595  0.2222  0.3270
    6BENZ    R3   18   0.723   0.473   1.513  0.1385 -0.0540 -0.0528
    7BENZ    R1   19   0.454   0.362   1.865 -0.2603 -0.1049  0.3737
    7BENZ    R2   20   0.298   0.119   1.840  0.1152 -0.3162 -0.0468
    7BENZ    R3   21   0.582   0.103   1.896  0.1257  0.0332  0.0184
    8BENZ    R1   22   1.396   0.948   2.322  0.5945  0.1328  0.0474
    8BENZ    R2   23   1.408   1.086   2.068  0.1596 -0.1084 -0.1141
    8BENZ    R3   24   1.564   0.845   2.109  0.2014 -0.0902 -0.1644
    9BENZ    R1   25   0.429   0.375   2.210  0.1419  0.0898  0.1056
    9BENZ    R2   26   0.625   0.530   2.358  0.0394 -0.0336  0.3763
    9BENZ    R3   27   0.549   0.265   2.451 -0.0029 -0.1280  0.0815
   10BENZ    R1   28   1.764   0.637   2.375 -0.1803  0.1988 -0.0377
   10BENZ    R2   29   1.884   0.861   2.236 -0.0147  0.0497 -0.1399
   10BENZ    R3   30   1.914   0.593   2.131 -0.1552 -0.0295  0.0166
   11BENZ    R1   31   2.401   0.222   1.383 -0.3376 -0.1400 -0.0733
   11BENZ    R2   32   2.510   0.274   1.646 -0.0732 -0.3419 -0.1388
   11BENZ    R3   33   2.571   0.025   1.511 -0.1280 -0.2002 -0.4314
   12BENZ    R1   34   0.172   1.404   0.952  0.3864 -0.4166 -0.0266
   12BENZ    R2   35  -0.014   1.282   0.767  0.0259 -0.0674  0.0921
   12BENZ    R3   36   0.267   1.298   0.699 -0.1174  0.2043 -0.5106
   13BENZ    R1   37   0.028   1.059   1.028 -0.0558  0.1536 -0.0668
   13BENZ    R2   38  -0.145   1.229   1.186 -0.2338  0.1222 -0.2250
   13BENZ    R3   39  -0.242   0.973   1.089 -0.0087 -0.0161 -0.0914
   14BENZ    R1   40   2.051   1.723   0.320 -0.0386  0.0622 -0.0868
   14BENZ    R2   41   1.986   1.800   0.592 -0.0817 -0.0226 -0.0726
   14BENZ    R3   42   1.775   1.726   0.408 -0.0498  0.0005 -0.1189
   15BENZ    R1   43   0.590   1.663   1.107 -0.1428  0.2704 -0.1200
   15BENZ    R2   44   0.725   1.899   1.209  0.0193  0.2118 -0.1953
   15BENZ    R3   45   0.530   1.761   1.373  0.2268  0.1575  0.0113
   16BENZ    R1   46   2.042   2.218   2.049 -0.0163 -0.1038  0.1424
   16BENZ    R2   47   1.818   2.358   1.931  0.2602  0.3687  0.1543
   16BENZ    R3   48   1.828   2.317   2.218  0.0479  0.0691  0.1238
   17BENZ    R1   49   1.462   1.443   2.176  0.1839  0.2940 -0.0451
   17BENZ    R2   50   1.312   1.594   2.373 -0.0663  0.1358 -0.1100
   17BENZ    R3   51   1.243   1.613   2.092 -0.1846 -0.1908 -0.1072
   18BENZ    R1   52   1.932   2.160   1.640  0.1188  0.2832 -0.0424
   18BENZ    R2   53   2.151   2.020   1.511  0.1234  0.2047  0.0490
   18BENZ    R3   54   1.879   1.924   1.480  0.1298  0.1570  0.1366
   19BENZ    R1   55   0.183   1.383   1.344 -0.2379 -0.2026  0.2296
   19BENZ    R2   56   0.203   1.157   1.526  0.2717 -0.2266  0.1565
   19BENZ    R3   57   0.212   1.428   1.629  0.1435 -0.2385  0.2007
   20BENZ    R1   58   0.679   1.396   2.357  0.0137  0.1305  0.0531
   20BENZ    R2   59   0.516   1.633   2.389  0.0414  0.2028 -0.3018
   20BENZ    R3   60   0.582   1.538   2.123  0.0289 -0.2061 -0.1645
   21BENZ    R1   61   0.268   2.163   0.568  0.4962  0.2482 -0.0786
   21BENZ    R2   62  -0.015   2.207   0.608  0.4068 -0.1849 -0.1772
   21BENZ    R3   63   0.136   2.054   0.802  0.5487 -0.0608 -0.1878
   22BENZ    R1   64   1.859   1.036   1.238 -0.1342  0.1455 -0.1280
   22BENZ    R2   65   1.863   0.782   1.099 -0.0006  0.0747  0.0019
   22BENZ    R3   66   1.610   0.900   1.178 -0.0529 -0.1760  0.2238
   23BENZ    R1   67   1.692   0.261   2.123  0.2503 -0.0942  0.0673
   23BENZ    R2   68   1.501   0.072   2.231  0.1947 -0.1320 -0.0940
   23BENZ    R3   69   1.533   0.098   1.944  0.2093  0.0967 -0.0739
   24BENZ    R1   70   0.568   1.570   1.677  0.2250  0.0688 -0.3559
   24BENZ    R2   71   0.419   1.757   1.841  0.2252 -0.0737 -0.1905
   24BENZ    R3   72   0.707   1.784   1.815  0.2003  0.0699 -0.3327
   25BENZ    R1   73   0.227   0.627   1.959 -0.0941  0.3241 -0.0039
   25BENZ    R2   74   0.048   0.527   2.164 -0.1757  0.2905 -0.0912
   25BENZ    R3   75  -0.047   0.562   1.892  0.0184  0.0305 -0.1958
   26BENZ    R1   76   2.224   0.903   2.120 -0.1511 -0.0407  0.4789
   26BENZ    R2   77   2.056   0.968   1.893  0.0086  0.0946  0.3970
   26BENZ    R3   78   2.342   0.930   1.857 -0.0402 -0.4342  0.4817
   27BENZ    R1   79   2.046   1.028   0.416  0.1592 -0.1242  0.0820
   27BENZ    R2   80   1.876   0.976   0.187  0.1128  0.0954  0.0646
   27BENZ    R3   81   1.825   0.841   0.439 -0.2227  0.3161  0.1201
   28BENZ    R1   82   1.166   0.496   1.029 -0.0777 -0.3487  0.2958
   28BENZ    R2   83   1.210   0.761   0.920 -0.2315 -0.5662 -0.3413
   28BENZ    R3   84   1.170   0.726   1.205  0.1287  0.0452 -0.1971
   29BENZ    R1   85   0.275   2.173   1.744  0.0822  0.2430 -0.0343
   29BENZ    R2   86   0.025   2.046   1.818  0.1888 -0.0268 -0.1274
   29BENZ    R3   87   0.188   1.934   1.605  0.5526 -0.0530  0.1549
   30BENZ    R1   88   0.318   0.512   1.119  0.0869  0.1051 -0.1332
   30BENZ    R2   89   0.211   0.738   0.972  0.2385  0.1782 -0.1325
   30BENZ    R3   90   0.468   0.625   0.898  0.3534  0.2648  0.1219
   31BENZ    R1   91   1.101   1.804   1.830 -0.1858  0.2356  0.1480
   31BENZ    R2   92   0.961   1.551   1.826 -0.0468  0.1584  0.0817
   31BENZ    R3   93   1.206   1.583   1.674 -0.0948  0.3514  0.0426
   32BENZ    R1   94   2.045   2.206   0.375 -0.1916 -0.1414  0.1893
   32BENZ    R2   95   1.846   2.298   0.186 -0.1042 -0.1511  0.0917
   32BENZ    R3   96   2.041   2.099   0.106 -0.1159 -0.2138  0.2166
   33BENZ    R1   97   1.802   0.745   1.523 -0.0664  0.0070 -0.2247
   33BENZ    R2   98   1.757   0.539   1.722 -0.0378  0.3752  0.1787
   33BENZ    R3   99   1.535   0.700   1.626 -0.0754  0.1121 -0.2012
   34BENZ    R1  100   0.373   1.750   0.777 -0.2860 -0.1278  0.1635
   34BENZ    R2  101   0.639   1.857   0.731 -0.3973  0.0128 -0.1829
   34BENZ    R3  102   0.551   1.618   0.590 -0.4552 -0.0336 -0.0693
   35BENZ    R1  103   1.136   1.589   0.862  0.5395  0.0447 -0.0076
   35BENZ    R2  104   1.188   1.626   0.579  0.2197 -0.1233 -0.0929
   35BENZ    R3  105   0.925   1.542   0.668  0.3160 -0.0669  0.2567
   36BENZ    R1  106   1.897   1.865   1.895  0.2940  0.0901  0.0326
   36BENZ    R2  107   1.765   1.635   2.013  0.0504  0.2867  0.1529
   36BENZ    R3  108   1.792   1.881   2.164  0.2630  0.3563  0.0072
   37BENZ    R1  109   1.827   0.302   0.094  0.1367 -0.0568 -0.0020
   37BENZ    R2  110   1.803   0.487   0.316 -0.2156  0.1890 -0.2347
   37BENZ    R3  111   1.662   0.234   0.323  0.1027  0.0104 -0.0065
   38BENZ    R1  112   1.043   0.349   0.592 -0.1174 -0.0312 -0.1216
   38BENZ    R2  113   0.909   0.140   0.442 -0.0793 -0.0865 -0.0791
   38BENZ    R3  114   0.885   0.149   0.731 -0.0286 -0.0698 -0.0754
   39BENZ    R1  115   1.586   1.430   1.352 -0.2459  0.3523 -0.0133
   39BENZ    R2  116   1.630   1.625   1.561 -0.2042 -0.0182  0.3357
   39BENZ    R3  117   1.848   1.455   1.473 -0.2363  0.0950  0.0256
   40BENZ    R1  118   1.504   1.445   0.996  0.0451  0.0629 -0.1863
   40BENZ    R2  119   1.560   1.242   0.797 -0.0003 -0.2796  0.1400
   40BENZ    R3  120   1.390   1.180   1.023 -0.2974  0.2295  0.0713
   41BENZ    R1  121   0.957   0.895   1.565 -0.0671  0.1179  0.0255
   41BENZ    R2  122   1.207   0.919   1.709 -0.0123  0.2189 -0.0844
   41BENZ    R3  123   1.005   1.126   1.734 -0.1296  0.0859  0.0873
   42BENZ    R1  124   1.397   0.340   0.052 -0.0934  0.0159  0.0054
   42BENZ    R2  125   1.176   0.519   0.110 -0.2515 -0.0516 -0.3625
   42BENZ    R3  126   1.146   0.234   0.154 -0.0994 -0.0232 -0.0495
   43BENZ    R1  127   0.551   0.965   0.852  0.0873 -0.1261 -0.0168
   43BENZ    R2  128   0.720   1.107   0.664  0.1517 -0.0785  0.0764
   43BENZ    R3  129   0.654   0.829   0.618  0.2719 -0.1030  0.0492
   44BENZ    R1  130   1.587   1.784   0.725  0.1389 -0.2047 -0.0980
   44BENZ    R2  131   1.462   1.845   0.471  0.0165  0.0521  0.0197
   44BENZ    R3  132   1.345   1.944   0.717  0.1251 -0.2059  0.1791
   45BENZ    R1  133   1.871   0.224   1.303 -0.3641  0.0885  0.1212
   45BENZ    R2  134   1.775   0.497   1.316 -0.2646  0.1192  0.2252
   45BENZ    R3  135   2.005   0.417   1.473 -0.0904  0.0584 -0.0544
   46BENZ    R1  136   1.302   1.635   1.151 -0.1294 -0.2035  0.1430
   46BENZ    R2  137   1.434   1.853   1.290 -0.2382 -0.1272  0.1274
   46BENZ    R3  138   1.297   1.902   1.039  0.1263 -0.3006 -0.1141
   47BENZ    R1  139   0.580   1.210   0.363 -0.1539 -0.4956  0.1057
   47BENZ    R2  140   0.817   1.170   0.202 -0.2790 -0.0615 -0.2066
   47BENZ    R3  141   0.737   1.438   0.276 -0.4440 -0.2296  0.2594
   48BENZ    R1  142   0.661   1.294   0.981 -0.0695 -0.1413 -0.5423
   48BENZ    R2  143   0.907   1.146   0.940 -0.1431 -0.4056 -0.0885
   48BENZ    R3  144   0.796   1.173   1.207 -0.3566  0.1220 -0.2179
   49BENZ    R1  145   2.392   1.859   0.214 -0.0214  0.1715 -0.0960
   49BENZ    R2  146   2.377   1.801   0.498 -0.0871 -0.2527 -0.1797
   49BENZ    R3  147   2.633   1.864   0.377 -0.0727  0.0250 -0.0138
   50BENZ    R1  148   0.506   1.221   1.361 -0.0836  0.2888  0.0079
   50BENZ    R2  149   0.604   0.961   1.444  0.0100  0.2382 -0.2522
   50BENZ    R3  150   0.393   0.980   1.246 -0.0170  0.3601 -0.2127
   51BENZ    R1  151   0.380   0.278   0.691  0.1675 -0.0569 -0.0914
   51BENZ    R2  152   0.195   0.057   0.726  0.0916  0.0661  0.3497
   51BENZ    R3  153   0.458   0.010   0.612 -0.0985 -0.1600 -0.0141
   52BENZ    R1  154   0.202   1.391   2.423 -0.0352 -0.1385 -0.3056
   52BENZ    R2  155  -0.068   1.467   2.495  0.1284  0.1247  0.0648
   52BENZ    R3  156  -0.003   1.187   2.453 -0.1830  0.0513  0.0392
   53BENZ    R1  157   1.022   1.149   0.479  0.0801  0.2301 -0.0803
   53BENZ    R2  158   1.267   1.305   0.474  0.0841  0.2450  0.2953
   53BENZ    R3  159   1.228   1.102   0.677  0.0392 -0.1893 -0.1288
   54BENZ    R1  160   0.496   2.219   2.422 -0.1445  0.3546  0.0819
   54BENZ    R2  161   0.538   2.446   2.247 -0.0890  0.2404 -0.0546
   54BENZ    R3  162   0.377   2.221   2.158 -0.0023  0.1506  0.0133
   55BENZ    R1  163   2.109   0.723   1.343  0.2090 -0.0113 -0.3141
   55BENZ    R2  164   2.338   0.571   1.438 -0.0722 -0.1083  0.2450
   55BENZ    R3  165   2.154   0.692   1.627 -0.4397  0.0458 -0.1913
   56BENZ    R1  166   2.061   1.516   2.233 -0.0892 -0.0638  0.1322
   56BENZ    R2  167   2.108   1.231   2.253 -0.0650 -0.0797 -0.1200
   56BENZ    R3  168   1.969   1.339   2.022 -0.0107  0.1203 -0.0606
   57BENZ    R1  169   0.813   0.991   2.369 -0.0775 -0.1215 -0.2733
   57BENZ    R2  170   1.063   0.976   2.222  0.0584  0.3137 -0.1040
   57BENZ    R3  171   0.970   0.747   2.375  0.4094  0.1825 -0.0794
   58BENZ    R1  172   2.357   1.602   1.695 -0.0137  0.0326  0.0137
   58BENZ    R2  173   2.076   1.534   1.725  0.0197 -0.1567 -0.0871
   58BENZ    R3  174   2.267   1.458   1.930  0.0132 -0.1143 -0.0651
   59BENZ    R1  175   0.258   2.385   1.030  0.0397 -0.2417 -0.0978
   59BENZ    R2  176   0.148   2.651   1.070  0.2387 -0.1247 -0.3054
   59BENZ    R3  177   0.433   2.616   1.025  0.2730 -0.4092  0.0776
   60BENZ    R1  178   0.015   0.702   0.513 -0.2446  0.1316  0.2912
   60BENZ    R2  179   0.261   0.847   0.460 -0.3290  0.1140 -0.1864
   60BENZ    R3  180   0.102   0.912   0.693  0.1468  0.0928  0.1568
   61BENZ    R1  181   0.922   0.617   0.286 -0.1705  0.2633 -0.1853
   61BENZ    R2  182   0.718   0.434   0.380 -0.0697  0.3034  0.1212
   61BENZ    R3  183   0.846   0.388   0.124 -0.1273  0.0106  0.1409
   62BENZ    R1  184   2.027   1.020   1.536 -0.0664 -0.1191 -0.4382
   62BENZ    R2  185   2.315   1.011   1.504  0.0270 -0.1404  0.2606
   62BENZ    R3  186   2.181   1.266   1.536 -0.0180 -0.1393  0.0752
   63BENZ    R1  187   1.301   0.105   0.454  0.3754 -0.1737 -0.0975
   63BENZ    R2  188   1.441  -0.013   0.230 -0.0934  0.1116 -0.5645
   63BENZ    R3  189   1.158  -0.065   0.267 -0.1003  0.3513 -0.2401
   64BENZ    R1  190   2.170   0.692   0.252 -0.0945 -0.2183 -0.0197
   64BENZ    R2  191   2.231   0.934   0.103 -0.0102 -0.1041  0.1963
   64BENZ    R3  192   2.257   0.675  -0.025 -0.0935 -0.0011 -0.0347
   65BENZ    R1  193   0.722   0.538   1.128 -0.0396 -0.1335 -0.2819
   65BENZ    R2  194   0.853   0.706   0.930 -0.4486  0.0341 -0.4218
   65BENZ    R3  195   0.802   0.809   1.197  0.1056 -0.1930 -0.2124
   66BENZ    R1  196   0.602   1.226   1.817 -0.1790 -0.0337  0.0273
   66BENZ    R2  197   0.737   1.171   2.067 -0.1532 -0.1427 -0.0102
   66BENZ    R3  198   0.662   0.952   1.892 -0.0549 -0.0596 -0.1585
   67BENZ    R1  199   1.509   1.382   1.781 -0.1861 -0.3107  0.0965
   67BENZ    R2  200   1.418   1.211   1.565  0.2064 -0.2625 -0.1164
   67BENZ    R3  201   1.695   1.201   1.651  0.1036 -0.1296  0.2479
   68BENZ    R1  202   1.761   0.877   0.799 -0.1217  0.1961  0.2386
   68BENZ    R2  203   1.916   1.121   0.823  0.2069  0.0149  0.0306
   68BENZ    R3  204   2.050   0.865   0.804 -0.1332 -0.1883  0.2509
   69BENZ    R1  205   0.882   0.653   1.989 -0.0524  0.0855 -0.4387
   69BENZ    R2  206   0.772   0.392   2.052  0.1730  0.1171  0.1594
   69BENZ    R3  207   0.595   0.617   2.007 -0.0314 -0.1570 -0.5506
   70BENZ    R1  208   0.416   0.765   0.046 -0.1742 -0.3665  0.0967
   70BENZ    R2  209   0.337   0.871  -0.213 -0.0595  0.0437  0.2211
   70BENZ    R3  210   0.422   1.051  -0.002  0.3527 -0.3177  0.3804
   71BENZ    R1  211   0.737   2.085   1.997  0.2319  0.0181 -0.1989
   71BENZ    R2  212   0.870   2.342   1.971 -0.1533  0.2374 -0.0898
   71BENZ    R3  213   0.973   2.109   1.831  0.1737  0.4594 -0.2293
   72BENZ    R1  214   1.791   1.811   0.082  0.0799  0.0481  0.0715
   72BENZ    R2  215   1.627   2.017   0.204 -0.1072  0.0161 -0.1200
   72BENZ    R3  216   1.539   1.887  -0.040 -0.0172 -0.3284  0.0243
   73BENZ    R1  217   1.422   1.902   1.647 -0.1395 -0.2114  0.0523
   73BENZ    R2  218   1.251   2.059   1.474  0.1348  0.2026  0.1413
   73BENZ    R3  219   1.438   2.192   1.652  0.0644 -0.2194  0.5494
   74BENZ    R1  220   1.160   1.396   0.174  0.2315 -0.1520  0.1187
   74BENZ    R2  221   1.081   1.277  -0.079  0.3865 -0.1509  0.0690
   74BENZ    R3  222   1.154   1.107   0.145 -0.0712 -0.1600  0.2216
   75BENZ    R1  223   1.333   0.224   0.790  0.4398 -0.1202  0.1195
   75BENZ    R2  224   1.139   0.121   0.978  0.0759  0.2264 -0.0494
   75BENZ    R3  225   1.236  -0.048   0.763 -0.4081  0.1828 -0.2469
   76BENZ    R1  226   2.189   1.940   2.251  0.2341  0.1564  0.1900
   76BENZ    R2  227   2.473   1.995   2.233  0.3031 -0.2204  0.0234
   76BENZ    R3  228   2.354   1.793   2.063 -0.1126  0.0954 -0.0778
   77BENZ    R1  229   0.264   0.586   1.592 -0.0003  0.0692 -0.5756
   77BENZ    R2  230   0.182   0.786   1.399 -0.2459  0.1444 -0.3986
   77BENZ    R3  231   0.320   0.866   1.641 -0.1849  0.0796 -0.4116
   78BENZ    R1  232   1.649   2.251   0.665 -0.5140  0.1969  0.1557
   78BENZ    R2  233   1.594   2.170   0.938 -0.7331  0.0774  0.0790
   78BENZ    R3  234   1.659   2.446   0.879  0.0300 -0.0196  0.3450
   79BENZ    R1  235   0.329   0.361   0.270  0.2080 -0.1560 -0.3834
   79BENZ    R2  236   0.192   0.287   0.025 -0.1879 -0.5405 -0.0602
   79BENZ    R3  237   0.069   0.474   0.210  0.0967 -0.2725 -0.1350
   80BENZ    R1  238   0.067   1.225   2.116 -0.0487 -0.1816  0.0235
   80BENZ    R2  239   0.252   1.419   2.006 -0.1792  0.0495  0.2023
   80BENZ    R3  240   0.218   1.162   1.876 -0.1251  0.2073 -0.1347
   81BENZ    R1  241   0.746   1.869   2.362 -0.0343 -0.0520 -0.5295
   81BENZ    R2  242   0.976   1.826   2.191  0.2785  0.0676 -0.1550
   81BENZ    R3  243   0.921   1.642   2.408  0.0132  0.0377 -0.2438
   82BENZ    R1  244   2.304   2.393   1.850  0.1111  0.1664 -0.0433
   82BENZ    R2  245   2.470   2.371   2.086  0.1915  0.0748 -0.1074
   82BENZ    R3  246   2.349   2.625   2.017 -0.0273  0.0490  0.1622
   83BENZ    R1  247   1.153   0.368   2.199 -0.2851  0.1826  0.0601
   83BENZ    R2  248   1.196   0.492   1.940 -0.2629  0.2897  0.1143
   83BENZ    R3  249   1.273   0.632   2.182  0.1913 -0.0181  0.1599
   84BENZ    R1  250   2.292   1.605   1.112 -0.0056 -0.0225  0.1581
   84BENZ    R2  251   2.413   1.747   1.334 -0.4197  0.5836  0.0235
   84BENZ    R3  252   2.136   1.663   1.349 -0.2007 -0.2150  0.0809
   85BENZ    R1  253   2.260   2.310   1.057  0.1557 -0.0626 -0.2788
   85BENZ    R2  254   2.111   2.190   0.840 -0.2267 -0.3412  0.1199
   85BENZ    R3  255   1.987   2.224   1.099  0.0815  0.3612  0.1971
   86BENZ    R1  256   0.689   2.421   1.526 -0.4239 -0.1658  0.1933
   86BENZ    R2  257   0.632   2.364   1.247 -0.1601 -0.1344  0.1310
   86BENZ    R3  258   0.564   2.623   1.359  0.1929  0.0414 -0.0441
   87BENZ    R1  259   0.210   1.238   0.334 -0.0353 -0.0105 -0.1413
   87BENZ    R2  260   0.092   1.478   0.447 -0.1213  0.0361 -0.3243
   87BENZ    R3  261   0.347   1.492   0.310 -0.2031  0.0555 -0.4767
   88BENZ    R1  262   1.875   1.743   0.970  0.1514 -0.2384 -0.2725
   88BENZ    R2  263   1.745   1.734   1.229  0.0986  0.1785 -0.2773
   88BENZ    R3  264   1.909   1.511   1.141  0.0789  0.0103  0.0909
   89BENZ    R1  265   0.766   2.197   0.429 -0.2255  0.2758  0.1392
   89BENZ    R2  266   0.574   2.359   0.283 -0.0066  0.2313 -0.2085
   89BENZ    R3  267   0.515   2.081   0.341  0.0660  0.1330 -0.5764
   90BENZ    R1  268   1.526   0.164   1.188 -0.1586  0.3402  0.4062
   90BENZ    R2  269   1.391  -0.092   1.168 -0.4668  0.5208  0.0389
   90BENZ    R3  270   1.569  -0.038   1.391 -0.0792 -0.1556 -0.0814
   91BENZ    R1  271   2.233   0.112   0.722  0.1299 -0.0590  0.3743
   91BENZ    R2  272   2.056   0.180   0.503  0.2570 -0.0152  0.2845
   91BENZ    R3  273   2.311   0.316   0.531  0.0645  0.2803  0.6986
   92BENZ    R1  274   0.815   2.184   0.872  0.0365  0.2680  0.1659
   92BENZ    R2  275   0.975   1.942   0.876 -0.1331  0.1553  0.2502
   92BENZ    R3  276   1.000   2.135   1.090 -0.4280 -0.0766  0.5033
   93BENZ    R1  277   2.153   0.522   0.972 -0.3475 -0.3237 -0.1481
   93BENZ    R2  278   2.138   0.557   0.684  0.2479  0.1223 -0.1451
   93BENZ    R3  279   2.392   0.492   0.809 -0.0434 -0.2762  0.2724
   94BENZ    R1  280   0.935   1.493   1.097  0.0637 -0.2715 -0.0896
   94BENZ    R2  281   0.960   1.490   1.386  0.2566  0.1723 -0.0947
   94BENZ    R3  282   1.127   1.317   1.224  0.3396  0.1164  0.0491
   95BENZ    R1  283   0.855   1.867   1.518 -0.3303  0.0294 -0.1466
   95BENZ    R2  284   0.909   2.139   1.432 -0.3075  0.0374 -0.1077
   95BENZ    R3  285   0.691   2.085   1.615 -0.0318  0.0905  0.2468
   96BENZ    R1  286   2.191   0.327   0.001  0.1251 -0.1566  0.3349
   96BENZ    R2  287   2.172   0.056   0.104  0.2181 -0.2755  0.0506
   96BENZ    R3  288   2.063   0.120  -0.156  0.1097 -0.0134  0.1566
   97BENZ    R1  289   0.896   2.256   2.402  0.1892 -0.3414  0.0736
   97BENZ    R2  290   1.133   2.098   2.347  0.3722 -0.0809  0.0977
   97BENZ    R3  291   1.128   2.380   2.281  0.0778 -0.0769  0.1251
   98BENZ    R1  292   1.803   0.436   0.878 -0.1218 -0.4801  0.3174
   98BENZ    R2  293   1.593   0.485   0.684  0.1325  0.0572  0.1573
   98BENZ    R3  294   1.565   0.581   0.956  0.1721  0.1322  0.1349
   99BENZ    R1  295   1.624   1.433   0.108  0.0208 -0.1171  0.2726
   99BENZ    R2  296   1.666   1.179  -0.024  0.0196 -0.0610  0.1632
   99BENZ    R3  297   1.510   1.191   0.220 -0.3388 -0.1098 -0.0560
  100BENZ    R1  298   1.553   2.134   2.076  0.1324 -0.5243  0.1280
  100BENZ    R2  299   1.281   2.202   2.003  0.0826 -0.1396  0.6138
  100BENZ    R3  300   1.355   1.925   2.047 -0.2002 -0.2577  0.3796
   2.42814   2.42814   2.42814
