t=100000.0 ps
10
    1BNZ1  BNZ1    1   5.324   6.077   1.764 -0.1277  0.2701 -0.0595
    2BNZ2  BNZ2    2   5.190   6.004   1.865  0.1549  0.1795  0.1851
    3BNZ3  BNZ3    3   5.357   5.829   1.795  0.2196  0.2982 -0.3772
    4BS1    BS1    4   5.493   5.923   1.689-190.8414 17.2566122.1692
    5BS2    BS2    5   5.204   5.768   1.905-190.8414 17.2566122.1692
    6BNZ1  BNZ1    6   5.579   5.521   2.035 -0.0606 -0.2887 -0.0643
    7BNZ2  BNZ2    7   5.671   5.542   1.878  0.0789  0.0463  0.0704
    8BNZ3  BNZ3    8   5.454   5.670   1.875  0.0046 -0.1646 -0.0146
    9BS1    BS1    9   5.369   5.637   2.050-190.8414 17.2566122.1692
   10BS2    BS2   10   5.567   5.682   1.713-190.8414 17.2566122.1692
6.7544 6.7544 6.1903 0.0000 0.0000 0.0000 0.0000 0.0000 0.0000
