; SASA ~11% smaller

[ moleculetype ] 
TDI 1 

[ atoms ]
  1 TC5   1 TDI BNZ1    1 0.0  60.0
  2 TC5   1 TDI BNZ2    2 0.0  60.0
  3 U     1 TDI BNZ3    3 0.0  60.0
  4 TC6   1 TDI BS1     4 0.0   0.0
  5 TC6   1 TDI BS2     5 0.0   0.0

[ bonds ]
#ifdef FLEXIBLE
  1 2 1 0.183 10000 
  2 3 1 0.252 10000 
  3 1 1 0.252 10000 
#endif

[ constraints ] 
#ifndef FLEXIBLE
  1 2 1 0.183  ; BNZ1_BNZ2
  2 3 1 0.252  ; BNZ2_BNZ3
  3 1 1 0.252  ; BNZ3_BNZ1
#endif



[ virtual_sites3 ]
  4 2 1 3  3  37  0.360
  5 2 1 3  3  116 0.240

[ exclusions ]
  4 1 2 3 5
  5 1 2 3
;
