BDT dimerization
50176
    1BDT   BNZ1    1  15.780   5.561   9.909 -0.0670 -0.1272 -0.0670
    1BDT   BNZ2    2  15.713   5.393   9.937 -0.0054 -0.1433 -0.0136
    1BDT   BNZ3    3  15.965   5.392   9.938 -0.0043 -0.0256  0.1387
    1BDT    BS1    4  16.020   5.578   9.906 -0.0736 -0.0166  0.0677
    1BDT    BS2    5  15.875   5.219   9.967  0.0588 -0.0510  0.1814
    2BDT   BNZ1    6   9.027  13.836  17.516  0.0772 -0.4809  0.0287
    2BDT   BNZ2    7   9.192  13.872  17.446 -0.0102  0.0122  0.0644
    2BDT   BNZ3    8   9.210  13.734  17.656  0.3451 -0.0787 -0.0231
    2BDT    BS1    9   9.026  13.704  17.718  0.4213 -0.6158 -0.0611
    2BDT    BS2   10   9.380  13.784  17.567  0.2193  0.4386  0.0214
    3BDT   BNZ1   11  15.276   2.835  15.333  0.0402 -0.0359 -0.0808
    3BDT   BNZ2   12  15.168   2.937  15.225  0.1154  0.0885 -0.0404
    3BDT   BNZ3   13  15.033   2.786  15.375 -0.0018  0.2414  0.0080
    3BDT    BS1   14  15.163   2.685  15.483 -0.0753  0.0920 -0.0410
    3BDT    BS2   15  14.932   2.903  15.252  0.0875  0.3571  0.0465
    4BDT   BNZ1   16   9.894   5.694  13.803  0.2275  0.0312 -0.0120
    4BDT   BNZ2   17   9.885   5.877  13.815  0.1195  0.0255 -0.0026
    4BDT   BNZ3   18   9.884   5.770  14.043 -0.0187  0.0045 -0.0127
    4BDT    BS1   19   9.894   5.576  14.012  0.1118  0.0119 -0.0231
    4BDT    BS2   20   9.875   5.967  14.037 -0.1191 -0.0010 -0.0030
    5BDT   BNZ1   21   3.939  17.555   4.450 -0.0221  0.3086 -0.0645
    5BDT   BNZ2   22   3.817  17.610   4.324 -0.0412  0.1694 -0.1084
    5BDT   BNZ3   23   3.923  17.806   4.443 -0.0874  0.2994 -0.2804
    5BDT    BS1   24   4.049  17.729   4.573 -0.0635  0.4433 -0.2192
    5BDT    BS2   25   3.789  17.847   4.304 -0.1034  0.1440 -0.3120
    6BDT   BNZ1   26   3.156   3.435   0.460 -0.1548 -0.0101  0.1360
    6BDT   BNZ2   27   3.052   3.515   0.333  0.0784 -0.1086 -0.1221
    6BDT   BNZ3   28   3.204   3.682   0.445  0.0501 -0.0645 -0.1493
    6BDT    BS1   29   3.308   3.580   0.577 -0.2082  0.0419  0.1374
    6BDT    BS2   30   3.084   3.751   0.304  0.2963 -0.1728 -0.4106
    7BDT   BNZ1   31  11.671  14.381  11.413  0.0724 -0.3325  0.0928
    7BDT   BNZ2   32  11.803  14.319  11.302  0.1253 -0.3376  0.1583
    7BDT   BNZ3   33  11.788  14.182  11.514  0.1507 -0.2129  0.2410
    7BDT    BS1   34  11.643  14.262  11.620  0.0897 -0.2162  0.1618
    7BDT    BS2   35  11.925  14.128  11.382  0.2023 -0.2275  0.3022
    8BDT   BNZ1   36   3.447   2.318   4.065 -0.1215 -0.1452  0.1122
    8BDT   BNZ2   37   3.386   2.414   3.922 -0.1780 -0.1569  0.1283
    8BDT   BNZ3   38   3.605   2.506   4.007 -0.3499  0.1063  0.2927
    8BDT    BS1   39   3.655   2.392   4.160 -0.2759  0.0970  0.2624
    8BDT    BS2   40   3.524   2.598   3.852 -0.3963  0.0708  0.2963
    9BDT   BNZ1   41   0.279  18.204   8.471  0.1439 -0.1475  0.4127
    9BDT   BNZ2   42   0.398  18.322   8.545 -0.0707  0.2278  0.1736
    9BDT   BNZ3   43   0.165  18.361   8.631 -0.1831  0.1259 -0.0784
    9BDT    BS1   44   0.051  18.227   8.543  0.0678 -0.2830  0.2051
    9BDT    BS2   45   0.307  18.480   8.700 -0.4010  0.5128 -0.3121
   10BDT   BNZ1   46   8.022   3.020   0.552 -0.1100  0.0451 -0.0734
   10BDT   BNZ2   47   8.171   3.126   0.564  0.1405 -0.3093  0.0329
   10BDT   BNZ3   48   8.015   3.164   0.759  0.0230  0.1531 -0.1433
   10BDT    BS1   49   7.862   3.043   0.731 -0.2335  0.5182 -0.2482
   10BDT    BS2   50   8.182   3.270   0.756  0.2943 -0.2502 -0.0205
   11BDT   BNZ1   51   0.509   9.361  18.115 -0.0344 -0.0024 -0.0225
   11BDT   BNZ2   52   0.607   9.315  17.968  0.0431  0.0060  0.0265
   11BDT   BNZ3   53   0.513   9.111  18.083 -0.1728  0.0095 -0.1401
   11BDT    BS1   54   0.411   9.178  18.237 -0.2413  0.0009 -0.1827
   11BDT    BS2   55   0.622   9.080  17.921 -0.0744  0.0188 -0.0768
   12BDT   BNZ1   56  18.142  11.357  13.560 -0.1193  0.0120  0.0344
   12BDT   BNZ2   57  18.191  11.453  13.708 -0.0868 -0.0996  0.0971
   12BDT   BNZ3   58  18.307  11.537  13.501  0.0921 -0.1297  0.1841
   12BDT    BS1   59  18.244  11.424  13.353  0.0414 -0.0044  0.1082
   12BDT    BS2   60  18.348  11.630  13.670  0.1101 -0.2441  0.2414
   13BDT   BNZ1   61   2.017  15.373   0.484  0.0204 -0.1816  0.0825
   13BDT   BNZ2   62   1.843  15.317   0.475 -0.0955  0.1610  0.1354
   13BDT   BNZ3   63   1.890  15.438   0.692  0.1772  0.1759  0.0703
   13BDT    BS1   64   2.079  15.490   0.685  0.2814 -0.2072  0.0150
   13BDT    BS2   65   1.706  15.371   0.665  0.0393  0.5295  0.1292
   14BDT   BNZ1   66   3.926  16.175  17.538 -0.0545 -0.2113 -0.5083
   14BDT   BNZ2   67   3.983  16.297  17.413  0.0981  0.2195 -0.0381
   14BDT   BNZ3   68   3.773  16.375  17.530 -0.0510 -0.1828 -0.0271
   14BDT    BS1   69   3.727  16.235  17.659 -0.2022 -0.6196 -0.5618
   14BDT    BS2   70   3.848  16.495  17.391  0.1180  0.2891  0.4633
   15BDT   BNZ1   71   0.545  13.285  15.652  0.4415  0.1453 -0.0390
   15BDT   BNZ2   72   0.559  13.106  15.686 -0.1533  0.1172  0.1163
   15BDT   BNZ3   73   0.417  13.149  15.483 -0.1044  0.4196  0.1446
   15BDT    BS1   74   0.412  13.345  15.461  0.5542  0.4199 -0.0259
   15BDT    BS2   75   0.443  12.960  15.535 -0.7228  0.3800  0.3028
   16BDT   BNZ1   76  15.562   3.978   5.121  0.2899 -0.1926  0.1472
   16BDT   BNZ2   77  15.705   4.084   5.079  0.1526 -0.0126  0.1279
   16BDT   BNZ3   78  15.722   3.858   4.969  0.2289  0.1462 -0.1909
   16BDT    BS1   79  15.562   3.758   5.024  0.3737 -0.0635 -0.1427
   16BDT    BS2   80  15.869   3.986   4.934  0.0767  0.3200 -0.1823
   17BDT   BNZ1   81   3.568  16.249   1.668  0.1151  0.0084 -0.2154
   17BDT   BNZ2   82   3.506  16.226   1.498 -0.0276  0.0107 -0.1639
   17BDT   BNZ3   83   3.426  16.444   1.595 -0.0533 -0.0497 -0.0481
   17BDT    BS1   84   3.502  16.453   1.777  0.1074 -0.0481 -0.1141
   17BDT    BS2   85   3.368  16.402   1.411 -0.1980 -0.0429 -0.0028
   18BDT   BNZ1   86  15.544   9.027   3.116  0.4120 -0.1118  0.0108
   18BDT   BNZ2   87  15.572   8.872   3.210  0.0504 -0.1713  0.0309
   18BDT   BNZ3   88  15.534   9.067   3.364 -0.0700 -0.1758  0.0071
   18BDT    BS1   89  15.505   9.224   3.248  0.3409 -0.1106 -0.0148
   18BDT    BS2   90  15.567   8.892   3.449 -0.4353 -0.2314  0.0243
   19BDT   BNZ1   91   1.188  15.320  12.777 -0.2221  0.1619 -0.1889
   19BDT   BNZ2   92   1.258  15.489  12.786  0.0205  0.0746 -0.3785
   19BDT   BNZ3   93   1.133  15.452  12.570 -0.3748  0.1349 -0.1668
   19BDT    BS1   94   1.066  15.268  12.577 -0.6094  0.2350  0.0295
   19BDT    BS2   95   1.215  15.630  12.596 -0.0900  0.0419 -0.3783
   20BDT   BNZ1   96   3.886   5.930   0.813  0.2007 -0.0793  0.3740
   20BDT   BNZ2   97   4.057   5.936   0.748  0.0571 -0.0474 -0.0096
   20BDT   BNZ3   98   3.993   5.702   0.815  0.1760 -0.0988 -0.0738
   20BDT    BS1   99   3.808   5.713   0.883  0.3286 -0.1288  0.3558
   20BDT    BS2  100   4.175   5.727   0.742  0.0110 -0.0606 -0.4630
   21BDT   BNZ1  101  12.542   4.070   4.312  0.1084 -0.0530 -0.1542
   21BDT   BNZ2  102  12.382   4.118   4.236  0.0418  0.0160  0.0279
   21BDT   BNZ3  103  12.492   4.313   4.351  0.1340 -0.0910  0.1232
   21BDT    BS1  104  12.660   4.245   4.426  0.2004 -0.1599 -0.0866
   21BDT    BS2  105  12.318   4.347   4.264  0.0592 -0.0123  0.3043
   22BDT   BNZ1  106   8.532   2.305   8.542  0.1717  0.2807 -0.0192
   22BDT   BNZ2  107   8.350   2.306   8.559  0.1602 -0.0167 -0.0939
   22BDT   BNZ3  108   8.454   2.507   8.669 -0.2076  0.1183  0.0120
   22BDT    BS1  109   8.648   2.490   8.642 -0.1702  0.4355  0.0857
   22BDT    BS2  110   8.257   2.492   8.678 -0.1880 -0.2028 -0.0754
   23BDT   BNZ1  111  10.719  15.776  16.015  0.1792 -0.0516  0.0055
   23BDT   BNZ2  112  10.901  15.759  16.013  0.1604 -0.2607  0.0001
   23BDT   BNZ3  113  10.827  15.954  15.872  0.3794 -0.1807 -0.0062
   23BDT    BS1  114  10.630  15.958  15.885  0.3846  0.0444  0.0007
   23BDT    BS2  115  11.021  15.920  15.883  0.3412 -0.4040 -0.0108
   24BDT   BNZ1  116   9.023   8.694   0.352  0.0166 -0.0480 -0.0169
   24BDT   BNZ2  117   8.918   8.808   0.449  0.1694 -0.0433  0.1443
   24BDT   BNZ3  118   8.779   8.634   0.331 -0.0662  0.3124 -0.1103
   24BDT    BS1  119   8.906   8.521   0.232 -0.2174  0.2843 -0.2659
   24BDT    BS2  120   8.682   8.766   0.441  0.1127  0.2913  0.0792
   25BDT   BNZ1  121   6.197   2.781  11.170  0.1563 -0.1361  0.0561
   25BDT   BNZ2  122   6.131   2.949  11.138  0.1741 -0.1104  0.1504
   25BDT   BNZ3  123   6.152   2.816  10.925 -0.0535 -0.0718  0.1022
   25BDT    BS1  124   6.224   2.640  10.977 -0.0558 -0.1028  0.0021
   25BDT    BS2  125   6.082   3.000  10.908 -0.0164 -0.0483  0.2047
   26BDT   BNZ1  126  17.722   6.944  17.702  0.1557  0.0940 -0.2905
   26BDT   BNZ2  127  17.801   6.787  17.750  0.2155  0.2383  0.1035
   26BDT   BNZ3  128  17.618   6.749  17.581  0.0465 -0.2856  0.3915
   26BDT    BS1  129  17.544   6.927  17.541 -0.0002 -0.4028 -0.0618
   26BDT    BS2  130  17.715   6.589  17.644  0.1240 -0.0820  0.7790
   27BDT   BNZ1  131   3.706   7.922  12.346  0.1533  0.1472  0.1910
   27BDT   BNZ2  132   3.586   8.007  12.455 -0.0627  0.1820 -0.0687
   27BDT   BNZ3  133   3.660   7.788  12.554 -0.4241  0.1089  0.0467
   27BDT    BS1  134   3.787   7.710  12.426 -0.1566  0.0792  0.3231
   27BDT    BS2  135   3.530   7.894  12.659 -0.6138  0.1509 -0.2382
   28BDT   BNZ1  136  14.799  11.102   3.594 -0.0343  0.0393  0.3319
   28BDT   BNZ2  137  14.672  10.982   3.649 -0.0599 -0.0758  0.0293
   28BDT   BNZ3  138  14.855  10.869   3.517  0.2662  0.1179  0.3066
   28BDT    BS1  139  14.981  11.011   3.467  0.2625  0.2273  0.6246
   28BDT    BS2  140  14.709  10.754   3.585  0.2107 -0.0162 -0.0273
   29BDT   BNZ1  141   3.614  15.931  15.756 -0.0444  0.1008  0.1693
   29BDT   BNZ2  142   3.440  15.986  15.765 -0.0407  0.1166  0.1435
   29BDT   BNZ3  143   3.580  16.147  15.632 -0.0930 -0.1148 -0.1994
   29BDT    BS1  144   3.763  16.074  15.633 -0.0937 -0.1174 -0.1422
   29BDT    BS2  145   3.388  16.191  15.651 -0.0855 -0.0826 -0.1963
   30BDT   BNZ1  146   8.731   6.148   3.467 -0.0800  0.1315  0.0463
   30BDT   BNZ2  147   8.912   6.134   3.484 -0.0773  0.1846  0.0612
   30BDT   BNZ3  148   8.846   6.360   3.396 -0.1206  0.0688 -0.2089
   30BDT    BS1  149   8.649   6.358   3.384 -0.1198  0.0173 -0.2040
   30BDT    BS2  150   9.039   6.327   3.420 -0.1138  0.1318 -0.1709
   31BDT   BNZ1  151   6.508   7.203   3.138 -0.1333 -0.1227 -0.0097
   31BDT   BNZ2  152   6.391   7.342   3.117  0.0845  0.0464 -0.1164
   31BDT   BNZ3  153   6.320   7.143   2.980 -0.2477  0.0363  0.0651
   31BDT    BS1  154   6.455   7.004   3.014 -0.4668 -0.1450  0.1698
   31BDT    BS2  155   6.206   7.304   2.970  0.0046  0.2136 -0.0593
   32BDT   BNZ1  156  10.831   8.618   5.522  0.1863 -0.0831  0.0749
   32BDT   BNZ2  157  10.946   8.758   5.500  0.2405 -0.1421 -0.0224
   32BDT   BNZ3  158  10.921   8.698   5.743  0.0636  0.1622  0.0372
   32BDT    BS1  159  10.795   8.547   5.749  0.0182  0.2057  0.1385
   32BDT    BS2  160  11.042   8.849   5.700  0.1344  0.0773 -0.0702
   33BDT   BNZ1  161  16.800  18.033  14.961  0.1193 -0.0249  0.2097
   33BDT   BNZ2  162  16.779  18.133  14.809  0.3499 -0.0591  0.1529
   33BDT   BNZ3  163  16.953  17.954  14.777  0.0165 -0.4156  0.2865
   33BDT    BS1  164  16.964  17.857  14.948 -0.2166 -0.3458  0.3373
   33BDT    BS2  165  16.917  18.072  14.623  0.2795 -0.4195  0.2176
   34BDT   BNZ1  166   9.520   9.260  12.570 -0.0944 -0.1277  0.0659
   34BDT   BNZ2  167   9.351   9.270  12.639 -0.1123  0.1185 -0.0093
   34BDT   BNZ3  168   9.524   9.323  12.814 -0.1124 -0.0977  0.0582
   34BDT    BS1  169   9.698   9.308  12.725 -0.0963 -0.3540  0.1379
   34BDT    BS2  170   9.334   9.329  12.871 -0.1316  0.1746 -0.0250
   35BDT   BNZ1  171   7.206  13.961  14.454 -0.0858 -0.2167 -0.2942
   35BDT   BNZ2  172   7.305  13.965  14.608 -0.2683  0.2407 -0.1801
   35BDT   BNZ3  173   7.106  13.812  14.631 -0.1143  0.0540 -0.0784
   35BDT    BS1  174   7.012  13.819  14.459  0.0821 -0.4385 -0.2049
   35BDT    BS2  175   7.225  13.829  14.788 -0.3180  0.5426  0.0266
   36BDT   BNZ1  176   8.473   9.742  14.057  0.0360  0.2633  0.0434
   36BDT   BNZ2  177   8.303   9.792  14.010 -0.0178 -0.1334 -0.2024
   36BDT   BNZ3  178   8.303   9.574  14.136  0.2730  0.1006  0.2142
   36BDT    BS1  179   8.491   9.536  14.179  0.2979  0.5291  0.4497
   36BDT    BS2  180   8.127   9.643  14.077  0.1933 -0.3256 -0.0757
   37BDT   BNZ1  181   1.878   4.416  16.414 -0.0505 -0.2819  0.0558
   37BDT   BNZ2  182   1.743   4.536  16.447  0.1461 -0.0108 -0.1053
   37BDT   BNZ3  183   1.857   4.463  16.660  0.0657  0.1385 -0.0109
   37BDT    BS1  184   1.997   4.336  16.607 -0.1479 -0.1725  0.1596
   37BDT    BS2  185   1.709   4.593  16.678  0.2797  0.4028 -0.1877
   38BDT   BNZ1  186   3.287   4.235   6.275  0.0261  0.0535  0.1386
   38BDT   BNZ2  187   3.459   4.187   6.314  0.0677  0.1931  0.1314
   38BDT   BNZ3  188   3.307   4.158   6.514  0.1063  0.1047  0.1483
   38BDT    BS1  189   3.128   4.214   6.455  0.0580 -0.0436  0.1550
   38BDT    BS2  190   3.498   4.111   6.539  0.1459  0.2564  0.1394
   39BDT   BNZ1  191   6.143   6.871  16.282  0.6114  0.0468 -0.3131
   39BDT   BNZ2  192   6.068   6.759  16.407  0.2590  0.2386 -0.3448
   39BDT   BNZ3  193   6.217   6.932  16.516  0.2208  0.1956 -0.2237
   39BDT    BS1  194   6.288   7.042  16.369  0.6131 -0.0163 -0.1966
   39BDT    BS2  195   6.128   6.802  16.635 -0.1383  0.4010 -0.2717
   40BDT   BNZ1  196   1.381  17.776   8.566 -0.2226  0.1029  0.1319
   40BDT   BNZ2  197   1.273  17.903   8.491 -0.1212  0.2048  0.1565
   40BDT   BNZ3  198   1.238  17.677   8.384 -0.1488  0.2994 -0.0339
   40BDT    BS1  199   1.361  17.554   8.475 -0.2586  0.1792 -0.0458
   40BDT    BS2  200   1.129  17.827   8.315 -0.0404  0.3967  0.0083
   41BDT   BNZ1  201   5.295   1.069   1.401  0.1270  0.0067  0.2228
   41BDT   BNZ2  202   5.259   1.162   1.554  0.1793  0.0515  0.2081
   41BDT   BNZ3  203   5.070   1.180   1.388  0.1384  0.0336  0.2526
   41BDT    BS1  204   5.125   1.075   1.231  0.0835 -0.0147  0.2656
   41BDT    BS2  205   5.047   1.275   1.560  0.1959  0.0814  0.2339
   42BDT   BNZ1  206  11.265  13.676   6.713 -0.0723  0.1044 -0.1968
   42BDT   BNZ2  207  11.308  13.833   6.796 -0.1935  0.0217  0.0277
   42BDT   BNZ3  208  11.070  13.835   6.715 -0.1269  0.0371 -0.1723
   42BDT    BS1  209  11.040  13.661   6.629  0.0036  0.1315 -0.4040
   42BDT    BS2  210  11.134  13.998   6.808 -0.2576 -0.0500  0.0761
   43BDT   BNZ1  211   7.376   4.462   6.132 -0.0198 -0.0101 -0.1291
   43BDT   BNZ2  212   7.357   4.624   6.050  0.1895  0.0082 -0.1458
   43BDT   BNZ3  213   7.410   4.443   5.883  0.0987 -0.0518 -0.1102
   43BDT    BS1  214   7.428   4.277   5.986 -0.1268 -0.0661 -0.0952
   43BDT    BS2  215   7.386   4.626   5.811  0.3227 -0.0287 -0.1299
   44BDT   BNZ1  216   0.829  10.724   5.472 -0.1418  0.1864  0.1051
   44BDT   BNZ2  217   0.885  10.606   5.601  0.1579  0.3726  0.1496
   44BDT   BNZ3  218   1.026  10.587   5.393 -0.3354  0.0603 -0.1658
   44BDT    BS1  219   0.953  10.719   5.266 -0.6293 -0.1292 -0.1784
   44BDT    BS2  220   1.072  10.468   5.543  0.0130  0.2762 -0.0868
   45BDT   BNZ1  221   1.624  12.923   0.995 -0.0193  0.1148 -0.0748
   45BDT   BNZ2  222   1.739  13.059   1.036 -0.0221  0.0972 -0.0082
   45BDT   BNZ3  223   1.846  12.833   1.074  0.0323  0.0798 -0.2575
   45BDT    BS1  224   1.709  12.700   1.026  0.0310  0.1018 -0.3122
   45BDT    BS2  225   1.956  12.992   1.113  0.0247  0.0640 -0.1685
   46BDT   BNZ1  226  17.425   4.034  11.574 -0.3059  0.0496  0.0936
   46BDT   BNZ2  227  17.450   3.987  11.750  0.2369  0.0777  0.0326
   46BDT   BNZ3  228  17.430   4.237  11.724 -0.3739  0.0448  0.1025
   46BDT    BS1  229  17.404   4.270  11.532 -0.9260  0.0083  0.1855
   46BDT    BS2  230  17.458   4.168  11.907  0.2378  0.0732  0.0377
   47BDT   BNZ1  231   6.544  17.515  10.715 -0.0822 -0.1188 -0.0433
   47BDT   BNZ2  232   6.675  17.641  10.735 -0.0664 -0.1406 -0.0090
   47BDT   BNZ3  233   6.752  17.452  10.589 -0.0301 -0.1945  0.0803
   47BDT    BS1  234   6.601  17.326  10.578 -0.0508 -0.1664  0.0354
   47BDT    BS2  235   6.881  17.598  10.621 -0.0171 -0.2130  0.1084
   48BDT   BNZ1  236   3.859  16.733   7.241  0.0911  0.0557  0.1902
   48BDT   BNZ2  237   4.030  16.734   7.305  0.1108 -0.0301  0.1399
   48BDT   BNZ3  238   4.002  16.897   7.116  0.2084 -0.2136 -0.0354
   48BDT    BS1  239   3.814  16.884   7.059  0.1776 -0.1057  0.0351
   48BDT    BS2  240   4.182  16.885   7.197  0.2187 -0.2891 -0.0723
   49BDT   BNZ1  241   6.813   2.189   3.677 -0.0413  0.0883 -0.0447
   49BDT   BNZ2  242   6.863   2.017   3.637 -0.2953 -0.0186  0.0920
   49BDT   BNZ3  243   6.817   2.150   3.428  0.3260  0.0164 -0.0311
   49BDT    BS1  244   6.766   2.330   3.488  0.5632  0.1214 -0.1708
   49BDT    BS2  245   6.871   1.961   3.404  0.0145 -0.1029  0.1239
   50BDT   BNZ1  246   9.279  15.530  11.264  0.0810  0.2752  0.1125
   50BDT   BNZ2  247   9.118  15.537  11.179  0.0600  0.2802  0.1530
   50BDT   BNZ3  248   9.306  15.502  11.015  0.0153  0.2507  0.1081
   50BDT    BS1  249   9.471  15.497  11.123  0.0425  0.2474  0.0668
   50BDT    BS2  250   9.123  15.512  10.940 -0.0026  0.2583  0.1538
   51W        W  251  15.119   4.458   1.972  0.1524  0.0347  0.2145
   52W        W  252  17.451   2.569   2.279  0.0182 -0.1430 -0.1280
   53W        W  253  17.784   5.960  14.515 -0.0185 -0.1771 -0.1930
   54W        W  254   6.889   3.946   8.695 -0.0391 -0.1035  0.4272
   55W        W  255   4.236   3.232   4.033 -0.3207  0.5958 -0.0233
   56W        W  256  12.917  15.530   1.686  0.1797  0.0746  0.0876
   57W        W  257  17.622   5.097  15.816  0.1188 -0.0340 -0.1162
   58W        W  258   6.711  15.065  16.078  0.0072 -0.1264 -0.0112
   59W        W  259   1.660   8.877   0.975 -0.1644  0.1341  0.0090
   60W        W  260   4.384  12.606  16.157 -0.1961 -0.1265 -0.0296
   61W        W  261   7.835   2.921   6.704  0.2935 -0.0332 -0.2425
   62W        W  262   1.018   3.627  16.873 -0.2413 -0.1688  0.2550
   63W        W  263  17.822  12.616   8.846  0.0005  0.0391  0.1005
   64W        W  264   8.807  13.926   4.367  0.2100 -0.3738 -0.0444
   65W        W  265   7.079   5.539   2.358  0.0363  0.0070 -0.2496
   66W        W  266  15.841   6.466   7.694  0.2654  0.0573 -0.0725
   67W        W  267   6.396   1.501   6.033  0.0884 -0.0115  0.0748
   68W        W  268  11.790   3.142  16.240 -0.2786  0.0950 -0.0381
   69W        W  269   4.069   5.485   8.946  0.0313 -0.1747  0.2276
   70W        W  270  17.445  17.979  16.831 -0.0142 -0.0746 -0.1012
   71W        W  271   1.527  15.582   1.749  0.4363  0.1149 -0.0476
   72W        W  272  10.860  16.432  17.392  0.0647 -0.0720  0.0621
   73W        W  273   0.149  15.384   1.941 -0.0571  0.2126  0.0428
   74W        W  274   4.506  18.149   2.537 -0.4429 -0.1713  0.1866
   75W        W  275   0.002   8.360   0.088 -0.3338  0.0175 -0.1510
   76W        W  276  14.085   4.577   6.118  0.1557  0.0352 -0.0142
   77W        W  277   9.620  16.477  16.782 -0.0195  0.0901 -0.2112
   78W        W  278   2.696   6.772   8.570  0.2111  0.1458  0.1376
   79W        W  279   1.188   2.360   0.302  0.1882 -0.2158 -0.1501
   80W        W  280  11.933   3.113   2.457  0.0383 -0.1607  0.3479
   81W        W  281  10.743   5.573  16.378 -0.1161  0.1226  0.2052
   82W        W  282   1.436  16.987   6.563  0.1232  0.1186 -0.2809
   83W        W  283   5.391   5.077   0.492 -0.1368 -0.0431  0.1483
   84W        W  284   0.419   4.064  10.312  0.1715 -0.0043 -0.2309
   85W        W  285   5.257  16.876   1.857  0.0371  0.2703 -0.0549
   86W        W  286   2.713   0.660   8.197  0.0054  0.0870  0.0613
   87W        W  287   7.786   0.882  15.042 -0.0898 -0.2461 -0.0013
   88W        W  288  10.610   1.916   1.188 -0.0920  0.0953 -0.2223
   89W        W  289   0.006   6.817  16.127 -0.1548  0.1235 -0.3548
   90W        W  290   2.947   4.501  13.784  0.0244  0.1439  0.2262
   91W        W  291   8.306   0.955  15.789 -0.3776  0.0471  0.0859
   92W        W  292   7.898   4.039   1.910 -0.0633  0.2566  0.2666
   93W        W  293  17.708   4.047   1.964  0.0807  0.2250 -0.0246
   94W        W  294  11.022   3.302   0.042  0.0987  0.2297 -0.0459
   95W        W  295   3.241  17.846  14.894  0.2279  0.0356  0.2931
   96W        W  296  18.094   1.569  15.297 -0.2125  0.2076  0.2900
   97W        W  297   1.960   5.309  11.085 -0.1390 -0.0493  0.2382
   98W        W  298   9.251   1.412  16.147 -0.1926 -0.2585 -0.0343
   99W        W  299  11.007   3.749   3.929  0.2155 -0.0024 -0.1547
  100W        W  300   9.910  15.632  14.618  0.1340  0.1515 -0.0923
  101W        W  301   5.513   1.160   6.140 -0.3173 -0.0661  0.0386
  102W        W  302   2.295  17.702   9.145 -0.3095 -0.0343 -0.0065
  103W        W  303   2.422   2.417  17.106  0.1236 -0.0314 -0.2883
  104W        W  304   0.627  17.887   0.810 -0.0922 -0.0839 -0.1908
  105W        W  305   0.277  15.979   2.560  0.0431 -0.2050 -0.1079
  106W        W  306  11.517   0.892  12.931  0.1971 -0.0332 -0.0331
  107W        W  307  17.114   3.137  17.532  0.0347  0.2331 -0.0067
  108W        W  308   4.672   8.358   6.198  0.1596 -0.3008 -0.0704
  109W        W  309  16.347  16.910   4.267 -0.2771  0.2808  0.0562
  110W        W  310   1.551  16.602  14.166  0.2292 -0.0831 -0.0140
  111W        W  311   0.393   6.580  17.255 -0.1616 -0.2072 -0.0837
  112W        W  312   4.708   4.032   4.011  0.3586 -0.5909  0.0073
  113W        W  313   6.016   2.738   2.839 -0.2268  0.0493  0.1621
  114W        W  314   1.936  15.664  17.308 -0.1426 -0.1935 -0.3031
  115W        W  315  15.662   7.815   3.046 -0.1617  0.0584 -0.0826
  116W        W  316   1.690  12.822  15.525 -0.1247 -0.2054 -0.0947
  117W        W  317   0.841   1.017   9.294 -0.1084  0.2030  0.1234
  118W        W  318  15.106  17.703   1.399  0.0142 -0.1473 -0.0151
  119W        W  319   6.870   1.762   6.863 -0.1078 -0.0234  0.0531
  120W        W  320   6.210  10.875  17.418  0.1125 -0.1871 -0.2231
  121W        W  321   5.159  16.146  13.015  0.0099 -0.1839  0.5689
  122W        W  322   1.541  14.044  12.105 -0.1900 -0.0691  0.2142
  123W        W  323   2.054  10.019   8.694  0.0681  0.0090 -0.1446
  124W        W  324   9.363  14.845   0.278  0.0962 -0.2618  0.0855
  125W        W  325   2.833   2.303  14.836  0.2931  0.1738  0.3121
  126W        W  326   9.424   1.053   3.512  0.1380  0.0533 -0.0849
  127W        W  327  15.219   1.454  17.428 -0.0157  0.1308  0.0455
  128W        W  328   2.043   6.918  15.944 -0.5232 -0.3714  0.0909
  129W        W  329  14.690   1.206  15.127  0.2016  0.1820 -0.0591
  130W        W  330   3.662  10.005  18.089  0.0088  0.2648  0.2841
  131W        W  331   1.123   6.632   1.485  0.0277 -0.2067  0.1703
  132W        W  332  17.756   1.085  17.976  0.2493  0.2447 -0.2114
  133W        W  333   6.686   6.812   3.330  0.0269 -0.0728  0.0632
  134W        W  334   4.938  10.260   3.437  0.1257 -0.2252  0.0284
  135W        W  335   5.737  15.574   7.348 -0.2956 -0.0837  0.1584
  136W        W  336   8.306  15.804  15.368  0.1639 -0.1291 -0.0799
  137W        W  337  12.844   0.839   2.659 -0.1679 -0.1871  0.1347
  138W        W  338  10.541  10.163  14.935  0.1379  0.1652 -0.2058
  139W        W  339   7.947   5.280  11.379  0.1133  0.2544 -0.1732
  140W        W  340   3.152   1.016   2.610  0.1368  0.0197 -0.1918
  141W        W  341   3.296  14.954  12.428 -0.2035 -0.1223  0.1595
  142W        W  342   5.463   2.167   4.684  0.1010 -0.0974  0.1637
  143W        W  343  15.276   9.245  17.999  0.1192 -0.0591  0.0623
  144W        W  344  15.383   1.432  13.446  0.0473  0.0463  0.0489
  145W        W  345  15.302   1.319   5.302  0.2390 -0.1627  0.2640
  146W        W  346   4.280   0.655  17.946  0.1748 -0.0918  0.0447
  147W        W  347   1.853   0.814   0.690  0.1025 -0.0392 -0.2110
  148W        W  348   2.211   0.647   4.118 -0.1715  0.1785 -0.0366
  149W        W  349   4.212  16.316  11.657 -0.1716  0.2724 -0.0142
  150W        W  350   2.945   4.644  16.821  0.4801 -0.2698  0.1714
  151W        W  351   0.518  14.072  15.428  0.1120 -0.2616  0.2084
  152W        W  352   2.193   6.194  12.091  0.1016  0.3533  0.0710
  153W        W  353  18.051   7.786  15.790  0.0172  0.0223 -0.0210
  154W        W  354   4.346   4.226  16.639 -0.2613 -0.0629  0.1725
  155W        W  355   1.677   2.125   3.111 -0.2174  0.1262 -0.3752
  156W        W  356  15.242  13.295   3.118  0.1575  0.2591 -0.0101
  157W        W  357   3.792  10.758   1.891 -0.0262 -0.1173 -0.2760
  158W        W  358   2.019   0.176   8.674 -0.2469 -0.1331  0.2145
  159W        W  359   8.500   4.538   1.645  0.1182  0.2987  0.1640
  160W        W  360  15.881   5.297   0.820 -0.3303 -0.0026 -0.3000
  161W        W  361   6.159   4.480  12.512  0.2164 -0.0778  0.0423
  162W        W  362   6.830   6.742  16.160  0.2355  0.1790 -0.0225
  163W        W  363  11.846   1.932  17.110 -0.1745 -0.0277  0.1347
  164W        W  364   2.841   5.437   6.518 -0.2800 -0.1440 -0.2949
  165W        W  365   6.074  15.983   1.666 -0.0787 -0.0987  0.1477
  166W        W  366  16.001  17.262   4.281 -0.1987 -0.1207 -0.2585
  167W        W  367  10.797   4.985   4.186 -0.5229 -0.0477  0.0305
  168W        W  368  15.181   4.285   0.265 -0.2409 -0.0308  0.0852
  169W        W  369   5.270   1.153   8.324 -0.0144  0.0893  0.1734
  170W        W  370   6.485  17.589  11.086 -0.1029 -0.2243 -0.0320
  171W        W  371   7.701  16.914   2.891 -0.1152  0.1025 -0.2608
  172W        W  372   0.774   8.601   0.640 -0.3148 -0.0298 -0.0713
  173W        W  373   2.888  13.828   9.757  0.0527  0.0871  0.1414
  174W        W  374   1.278   8.178   2.621  0.1888  0.0003 -0.4578
  175W        W  375   5.280   8.755   5.954  0.3370  0.1708  0.0097
  176W        W  376  10.474   1.554  14.828  0.0341  0.1370 -0.2199
  177W        W  377  12.929   2.802  15.719 -0.1711 -0.1239  0.2619
  178W        W  378  15.424   6.976  16.060  0.0502 -0.3033  0.0671
  179W        W  379   4.449   5.557   1.449 -0.0472  0.1916  0.0147
  180W        W  380   7.809   8.021  18.134 -0.0087 -0.0839  0.0295
  181W        W  381  14.924  10.514  16.581  0.3646 -0.1372  0.0436
  182W        W  382  16.737   2.069   6.107  0.1792 -0.0676 -0.1603
  183W        W  383   5.608   5.192   5.096 -0.2416  0.2238  0.0066
  184W        W  384  14.819  18.133  14.986 -0.1751 -0.3100  0.1612
  185W        W  385  10.517  14.396  17.446 -0.0082 -0.0263  0.0994
  186W        W  386  15.088   4.228   2.397 -0.2153 -0.2478  0.3806
  187W        W  387   5.536   2.051   2.400  0.0486  0.0921 -0.2645
  188W        W  388  16.802  12.111   7.331 -0.3237 -0.0639  0.1517
  189W        W  389   5.626   5.642  16.431  0.0616 -0.0403 -0.1258
  190W        W  390   1.824  10.850   4.171  0.0567  0.4658 -0.1964
  191W        W  391  18.032   2.808  17.905  0.0570 -0.0504  0.1419
  192W        W  392  12.793   2.530   7.717  0.0591 -0.0456 -0.2082
  193W        W  393   5.146   6.289   7.026  0.0908  0.1583 -0.3094
  194W        W  394   1.425  17.294  14.041  0.2715  0.0817  0.1754
  195W        W  395  14.637   8.849   3.272  0.1019  0.3544  0.1351
  196W        W  396   4.473   0.651   1.452  0.1140 -0.1972 -0.1857
  197W        W  397   3.248  11.900   4.842  0.0159  0.0414 -0.0929
  198W        W  398  15.387   1.677   0.095 -0.2635  0.2281 -0.1994
  199W        W  399   2.888   1.739  11.940 -0.1344 -0.0022 -0.0320
  200W        W  400  16.734   4.197  16.277  0.2891  0.1841 -0.4664
  201W        W  401   1.130   6.867   3.311  0.1829  0.3807  0.0216
  202W        W  402   8.836  15.423   3.695  0.0016  0.3133  0.1778
  203W        W  403   2.039  13.376   6.884  0.0361  0.0862  0.0888
  204W        W  404  10.716  14.955  16.817  0.3488  0.1399 -0.1343
  205W        W  405  17.616   2.887   1.969  0.0120 -0.0426 -0.1043
  206W        W  406   9.302  17.701  17.832 -0.5397  0.0556 -0.3969
  207W        W  407  17.325   4.398  15.609  0.0795 -0.0507  0.0818
  208W        W  408   0.098   9.105   1.809 -0.0571 -0.0588  0.0908
  209W        W  409   4.722   2.371   0.160  0.1089  0.0736 -0.0991
  210W        W  410   5.858   8.107  13.733  0.3899 -0.1151 -0.1601
  211W        W  411   9.016  16.396   2.182  0.2146  0.3784 -0.1390
  212W        W  412   7.541   3.912   2.198  0.0201 -0.0239 -0.1075
  213W        W  413   7.009  14.013   1.188  0.1239  0.1868 -0.0492
  214W        W  414   1.435  12.901  10.769  0.0952 -0.2170  0.2828
  215W        W  415   2.521   0.806   3.343 -0.0944  0.0034 -0.2073
  216W        W  416   9.026   3.944   3.396 -0.1196  0.0709 -0.0796
  217W        W  417  16.134   4.829   0.996  0.0730  0.2436  0.2126
  218W        W  418  12.976   2.813  11.752 -0.0013  0.1045  0.0540
  219W        W  419   9.044   6.984   8.164  0.0820  0.1105  0.0433
  220W        W  420   4.968   2.056   4.393  0.0482  0.2420 -0.0447
  221W        W  421   2.662   6.449  18.073 -0.1527 -0.3546  0.0572
  222W        W  422   1.891   8.032  17.549  0.2264  0.0738 -0.2027
  223W        W  423   4.054   4.763  15.860 -0.0957 -0.1051 -0.0889
  224W        W  424   1.778   0.084  17.664 -0.0875 -0.1489 -0.1789
  225W        W  425  16.790  16.232   0.583 -0.3121  0.0899  0.0020
  226W        W  426   6.222  15.595  13.857  0.0586 -0.1540  0.2129
  227W        W  427  15.615   0.831   5.874  0.1053 -0.0851 -0.0687
  228W        W  428   6.490   1.163   6.420  0.3857  0.2318  0.2434
  229W        W  429  16.194   2.186   7.292 -0.0182 -0.0690  0.2314
  230W        W  430   8.230  10.320   9.664  0.1626 -0.0519  0.0173
  231W        W  431  10.797   1.861   4.904  0.1380  0.2986  0.1689
  232W        W  432   2.387   2.271   5.994  0.0924  0.2073  0.1534
  233W        W  433   0.866   1.284   5.065  0.0404 -0.2330  0.2556
  234W        W  434   0.243   4.222   0.597  0.0573  0.0230  0.1031
  235W        W  435   3.482   6.949   3.053 -0.1806  0.0901  0.0153
  236W        W  436   7.811  16.299   0.553  0.0878 -0.1793  0.1312
  237W        W  437   1.525   0.979   1.036 -0.0906  0.1154 -0.0475
  238W        W  438   3.884   7.355  17.787 -0.2857 -0.2916  0.0796
  239W        W  439   1.609   6.761  17.231 -0.3683 -0.3172  0.2430
  240W        W  440   1.854   5.177   7.480  0.4068  0.0896  0.0934
  241W        W  441   3.377  17.205  14.927 -0.4597  0.1219 -0.0505
  242W        W  442  16.451  17.724  13.984 -0.1086  0.1180  0.0902
  243W        W  443   7.852   6.635   8.777  0.1576  0.1963 -0.1013
  244W        W  444   0.967   5.969   3.677  0.0469  0.1797 -0.0681
  245W        W  445  10.629   1.741   2.219  0.0181 -0.1770 -0.0746
  246W        W  446   4.236   3.222   9.667 -0.0377  0.5849 -0.3673
  247W        W  447   3.092  16.313   3.818  0.2202  0.0866 -0.0622
  248W        W  448  13.773   0.188   5.961  0.2567  0.1951 -0.0126
  249W        W  449  17.019   0.076   2.847 -0.1330 -0.0827  0.1075
  250W        W  450   2.178  11.424   2.985 -0.1978 -0.1087 -0.1298
  251W        W  451   8.536  17.542  16.508  0.0364 -0.0831  0.0758
  252W        W  452   1.231   0.819   4.196  0.0607  0.4688  0.1998
  253W        W  453   9.725   3.743   0.515 -0.1188 -0.0010  0.0547
  254W        W  454   9.496  14.563   4.684  0.0402 -0.1331 -0.0737
  255W        W  455  16.571   1.975  11.332 -0.0112  0.0714 -0.0057
  256W        W  456   4.094   6.710  12.363 -0.1277  0.0280 -0.2113
  257W        W  457   6.309  10.412   8.272  0.1265  0.2527 -0.0322
  258W        W  458   4.118  16.002   0.878  0.0801  0.0021  0.3826
  259W        W  459  12.328   8.293   1.685 -0.0426 -0.0964 -0.2401
  260W        W  460   5.844  14.366  11.057 -0.0289 -0.1869  0.1729
  261W        W  461  17.788   2.345  17.753 -0.1467 -0.1831 -0.0069
  262W        W  462  10.985   3.017  14.734  0.2083 -0.0370 -0.0567
  263W        W  463  16.178  11.727  17.429  0.2137  0.3401 -0.1970
  264W        W  464   2.439  18.047  16.092  0.0375 -0.0255 -0.0777
  265W        W  465   7.675   3.539   3.548 -0.0589 -0.0051  0.2100
  266W        W  466  10.177   1.633   1.951  0.0240  0.0336 -0.2614
  267W        W  467   9.686  14.946  16.404  0.0182 -0.0786  0.0320
  268W        W  468  17.309   3.320  17.898  0.3845  0.1657 -0.2746
  269W        W  469   2.460   2.913   9.695 -0.0352  0.0948  0.1515
  270W        W  470   2.473   5.286   1.274  0.1822  0.0810  0.4353
  271W        W  471   2.968  17.120  10.886 -0.2012 -0.1988 -0.1830
  272W        W  472  11.663  12.261   8.349  0.0838 -0.0502  0.2269
  273W        W  473  17.948   8.499   6.398  0.0699  0.0366 -0.1004
  274W        W  474  13.588   1.498   1.144  0.1010 -0.1144  0.5528
  275W        W  475   2.830   9.459   0.424  0.0646 -0.2169 -0.0165
  276W        W  476   7.576  14.659   4.501 -0.0302 -0.0099 -0.0641
  277W        W  477  16.784  15.503  11.044  0.0633 -0.2408 -0.1585
  278W        W  478  14.254   4.076   1.279  0.2140 -0.1585 -0.1005
  279W        W  479   2.448   7.220   4.650  0.3438 -0.0179 -0.0974
  280W        W  480   2.902   5.607   5.686  0.0067 -0.0258  0.2375
  281W        W  481  15.922   3.365   1.642  0.1171 -0.0706  0.1484
  282W        W  482   0.879   2.289   6.012 -0.0771 -0.1596  0.1858
  283W        W  483   6.413   5.991   6.736  0.1404  0.3991 -0.2422
  284W        W  484   6.646   0.416  16.953 -0.1449 -0.0466 -0.0212
  285W        W  485   3.553  15.490   2.348 -0.2693  0.1531 -0.1505
  286W        W  486   5.198   4.304   4.982  0.2573 -0.0578  0.0946
  287W        W  487   2.840  16.871   0.923  0.1183 -0.1105  0.0538
  288W        W  488   3.481   7.811   9.728  0.0258 -0.2686  0.1142
  289W        W  489  11.388  14.801   2.872  0.2943 -0.0308  0.0978
  290W        W  490  10.561  16.643   0.744 -0.1313 -0.1445 -0.0280
  291W        W  491   2.129   1.524  13.994  0.1258  0.0146 -0.0337
  292W        W  492   1.134   1.182  14.558 -0.2890  0.1225  0.3287
  293W        W  493   3.180   0.310  13.053  0.0717  0.0949 -0.2680
  294W        W  494   2.256   6.809  17.029  0.2255 -0.0189 -0.1145
  295W        W  495  14.644  17.128   2.478  0.0960 -0.3592 -0.1810
  296W        W  496   5.467   1.831  18.011  0.0046 -0.1862 -0.0161
  297W        W  497   5.537   2.002   0.614  0.0961  0.0530  0.0873
  298W        W  498   8.933  17.057  15.971  0.0683  0.0683 -0.0386
  299W        W  499  16.259  17.245   8.367  0.1499 -0.1687 -0.1433
  300W        W  500   7.402  17.158   0.718  0.1076  0.3215 -0.0626
  301W        W  501   4.649   4.027   8.387  0.1295 -0.0132  0.2582
  302W        W  502   1.567   6.587   9.560  0.0558  0.1897  0.1268
  303W        W  503  17.735   8.883   2.800 -0.2154  0.1567  0.3769
  304W        W  504  15.854   8.014  12.960 -0.0345 -0.0805 -0.0945
  305W        W  505  15.289   0.813   0.624 -0.1948  0.2089 -0.0837
  306W        W  506   8.295   6.007   6.360 -0.0972  0.0473 -0.0774
  307W        W  507  16.015  12.839   4.442 -0.0290 -0.0726 -0.0889
  308W        W  508   6.787   1.777   2.869 -0.0357 -0.1183 -0.0718
  309W        W  509  12.079   6.136  17.541 -0.0563  0.1765 -0.0258
  310W        W  510   5.252  15.751   2.650  0.0075  0.0851 -0.1814
  311W        W  511  14.610   0.754  17.049  0.2049  0.3073 -0.0157
  312W        W  512   0.737   6.437   3.227 -0.3058  0.0402 -0.1637
  313W        W  513   2.295   2.684   3.653  0.0674 -0.1453  0.1603
  314W        W  514   3.693   2.784   2.758 -0.1889  0.0571 -0.1145
  315W        W  515   2.025  11.050  15.282 -0.2243 -0.2452  0.0626
  316W        W  516   8.550   9.954   4.508 -0.1905  0.0011  0.2024
  317W        W  517   6.410   1.893   4.239 -0.2049  0.1703  0.1834
  318W        W  518   5.757  15.782  15.324  0.0749  0.0402 -0.2137
  319W        W  519   5.521  18.125   4.010  0.0157  0.0077  0.1224
  320W        W  520  14.084  17.304  17.084 -0.2497  0.0793  0.1823
  321W        W  521   0.848  16.217  12.732 -0.0980 -0.0358 -0.0329
  322W        W  522   2.771  16.476   4.964 -0.0604  0.3372  0.2313
  323W        W  523   3.795  14.414   8.199  0.0107 -0.0857 -0.0618
  324W        W  524   3.084   7.443   4.723  0.5398  0.1725 -0.3772
  325W        W  525   3.745   6.016   7.299 -0.1532  0.0584 -0.1491
  326W        W  526   2.421  12.759   4.877  0.2486  0.3489  0.1830
  327W        W  527   7.210  14.156  12.144  0.1199  0.0352  0.0252
  328W        W  528   3.619   2.613   8.199  0.3871 -0.2309  0.3379
  329W        W  529   9.611   2.057  16.666  0.0923 -0.1280  0.1455
  330W        W  530  14.566   0.692  15.461  0.1826 -0.1282  0.2285
  331W        W  531   5.476   7.126   5.772 -0.1871 -0.3771 -0.3077
  332W        W  532   9.588  17.405   2.823  0.1464  0.1365  0.2626
  333W        W  533   7.199   2.754  10.319  0.0297  0.0182 -0.2994
  334W        W  534   7.518   8.782  16.610 -0.0469  0.1965 -0.0049
  335W        W  535  15.373   6.090   4.608 -0.1628  0.0857 -0.2546
  336W        W  536  16.861  16.900   7.549  0.1110  0.1777  0.4302
  337W        W  537   3.262  12.516   0.070 -0.0429 -0.0788  0.0226
  338W        W  538   6.180   5.834   6.373  0.3442  0.0344 -0.2160
  339W        W  539   4.554   7.062   0.815 -0.0001 -0.0795 -0.2875
  340W        W  540   9.630   6.768   3.200  0.0427 -0.0614 -0.1249
  341W        W  541   4.444  16.381   0.797  0.2658  0.1677 -0.1041
  342W        W  542   8.082  16.659  11.627  0.2796 -0.2495 -0.1958
  343W        W  543  15.846   1.803  14.676  0.1187  0.2118  0.2507
  344W        W  544   1.573  15.529   7.222 -0.1632  0.0789 -0.2001
  345W        W  545   4.864   8.373   5.708  0.2647 -0.1999 -0.1316
  346W        W  546   3.644   1.057   2.229 -0.1346 -0.0360 -0.0230
  347W        W  547   5.023   4.093  17.923 -0.1382  0.0231 -0.1154
  348W        W  548   1.923   1.906  15.147  0.1309 -0.3030 -0.0735
  349W        W  549  10.558  14.486   1.856 -0.0971 -0.0836  0.1440
  350W        W  550   2.941  16.855   0.188  0.2749  0.1463  0.2441
  351W        W  551   4.846   8.742  16.461  0.2073  0.1372  0.0544
  352W        W  552   1.824  14.378   5.855 -0.0067 -0.1377 -0.1171
  353W        W  553   7.036  16.353   8.147  0.0839  0.0111  0.2314
  354W        W  554  13.551  17.989   1.553  0.0129 -0.0917  0.0666
  355W        W  555   6.463  13.142   1.003  0.2441 -0.2232  0.2725
  356W        W  556  18.058   6.400   2.279  0.0087  0.0586 -0.0658
  357W        W  557  15.096   5.398  15.803 -0.2495  0.5117 -0.0305
  358W        W  558  10.908  15.995   2.876 -0.1694 -0.3303 -0.3336
  359W        W  559   5.227   1.465   1.176 -0.2555 -0.0894 -0.0434
  360W        W  560   0.881   1.708   7.754 -0.0704  0.2584  0.0037
  361W        W  561   4.988   2.743   1.556  0.0429 -0.1324  0.1382
  362W        W  562   6.164  11.310   1.386  0.0017 -0.1569 -0.2475
  363W        W  563   4.653   2.046  15.942 -0.2317  0.0351 -0.1813
  364W        W  564   2.143   7.375  13.676 -0.1190  0.1177  0.2517
  365W        W  565   2.067  17.564   1.725  0.0311 -0.1006 -0.0402
  366W        W  566  16.688   0.319   7.086 -0.3540 -0.2031 -0.2051
  367W        W  567  17.986   8.501   0.947  0.0092  0.2625  0.1564
  368W        W  568  17.937  10.036   9.682 -0.1841 -0.4694 -0.2129
  369W        W  569  18.118  15.546   2.363 -0.0011  0.0869  0.1810
  370W        W  570   2.818   4.649  15.980  0.2597 -0.0184  0.4252
  371W        W  571  12.917   2.871   6.726  0.3248 -0.0096  0.0451
  372W        W  572  10.097   2.341   4.550 -0.1737  0.1756 -0.1048
  373W        W  573   0.561   6.644   0.565  0.2318 -0.0170 -0.1812
  374W        W  574   3.241  16.142   6.791 -0.3227  0.0439  0.2285
  375W        W  575   1.498   0.593   2.031 -0.0808 -0.6262 -0.2664
  376W        W  576  12.086   2.600   5.365 -0.1628  0.1916  0.2406
  377W        W  577   0.386  17.565   1.144  0.1960 -0.0222  0.1495
  378W        W  578   6.777   1.502   4.500 -0.2212 -0.0469  0.1738
  379W        W  579   6.444  12.305  15.182  0.1713 -0.0706  0.1725
  380W        W  580  17.629  16.714   7.688 -0.1098  0.2008 -0.0333
  381W        W  581  11.838   2.595  16.356  0.0150  0.2165 -0.2640
  382W        W  582  12.096  11.196  13.335  0.1881  0.2769  0.0377
  383W        W  583  17.428  13.847   4.063  0.0471  0.0324  0.3311
  384W        W  584   2.026   7.924   0.488  0.0509  0.0970  0.0956
  385W        W  585  17.795  17.356  13.822  0.2142 -0.2318  0.1939
  386W        W  586  14.632   2.348   0.107 -0.0311 -0.1060 -0.0124
  387W        W  587   6.610   7.762   1.614 -0.1841 -0.2028  0.1608
  388W        W  588   4.114   1.970   2.357 -0.1499  0.1447 -0.0787
  389W        W  589   7.278   4.452   4.588 -0.1992 -0.1117 -0.3159
  390W        W  590   6.933   2.607   3.236  0.2932 -0.1641  0.0072
  391W        W  591   2.116  17.769   3.581  0.0380  0.1508 -0.0492
  392W        W  592   1.146   2.994   6.622 -0.1028 -0.1076 -0.4079
  393W        W  593   2.401   0.970   9.056 -0.0427  0.0313  0.1041
  394W        W  594  16.993  17.032  11.167 -0.2437 -0.0093  0.0490
  395W        W  595   1.659   4.182  12.527  0.0614 -0.3996 -0.0460
  396W        W  596  16.998   0.092   2.138 -0.2596 -0.0164 -0.2133
  397W        W  597   6.328   2.750   3.315 -0.0191  0.0113 -0.1269
  398W        W  598  17.218  17.919   2.578 -0.0709  0.1560  0.0466
  399W        W  599   8.801   2.465   2.001  0.1723  0.2083  0.0442
  400W        W  600  13.322  12.131   3.489  0.0984 -0.0876  0.0210
  401W        W  601   5.834  15.421   5.549 -0.0553  0.0413  0.0331
  402W        W  602   8.774   6.031   1.161  0.1675 -0.0958  0.2458
  403W        W  603  12.694   9.855   2.234 -0.2343 -0.1594 -0.2498
  404W        W  604   1.576   0.341   5.421 -0.1064 -0.0819  0.2398
  405W        W  605   8.560   1.439   5.053 -0.1574 -0.0030 -0.2448
  406W        W  606   0.956   4.080   0.815 -0.0865  0.0731  0.1860
  407W        W  607  16.475  12.833   4.393  0.0001  0.0984  0.0447
  408W        W  608   4.364   4.399  12.339  0.2247  0.2920 -0.0130
  409W        W  609   0.263   1.560   2.261  0.2555  0.0232  0.0079
  410W        W  610   0.787   7.112   0.768  0.1356  0.3768  0.2548
  411W        W  611   9.069  16.977   9.817 -0.2411 -0.1934  0.0966
  412W        W  612  10.078   5.499   0.492  0.2417 -0.0144  0.0695
  413W        W  613   8.658   1.906  17.333  0.0660 -0.1673 -0.0044
  414W        W  614  17.082   6.089   0.453  0.1428  0.1141 -0.2305
  415W        W  615   0.086   0.124  14.603  0.0916  0.0340 -0.3110
  416W        W  616  18.084   2.498   0.917 -0.1676  0.0716  0.0064
  417W        W  617   1.911  12.266   1.887  0.1111  0.1571 -0.0983
  418W        W  618   5.683  18.124  11.492 -0.2684  0.1989  0.2897
  419W        W  619   1.857   3.174   1.310  0.1472  0.0867 -0.1837
  420W        W  620   1.544   0.547  10.785  0.0845  0.0621 -0.1443
  421W        W  621  14.124   1.509   0.691  0.0435 -0.1596 -0.0612
  422W        W  622  12.704   9.208   7.377  0.2981 -0.1280  0.0211
  423W        W  623   6.416   6.007  14.193 -0.0651 -0.3672  0.2123
  424W        W  624   2.879  17.759  17.408  0.0091 -0.0053 -0.0037
  425W        W  625   1.236  12.649  17.234  0.1723 -0.2219 -0.2068
  426W        W  626   5.009   2.753   9.611  0.0395  0.1463  0.0917
  427W        W  627  11.299   4.456   1.408  0.0376 -0.0082  0.2857
  428W        W  628   0.085   2.390  17.611  0.0244 -0.1117 -0.1949
  429W        W  629  16.959   4.022   4.065  0.0335  0.3376  0.3909
  430W        W  630   3.170   5.548  15.080  0.1658 -0.0735  0.1054
  431W        W  631  16.911   1.635  17.465  0.0336  0.1184  0.1396
  432W        W  632  16.700  12.806   2.669  0.2795 -0.0075 -0.0049
  433W        W  633  15.450  18.124   2.171 -0.0646 -0.2638  0.0221
  434W        W  634   4.773   0.167  17.358 -0.0716  0.0608 -0.2584
  435W        W  635   1.236  11.253  17.000  0.2874  0.1729 -0.0573
  436W        W  636  16.165   1.195   1.677 -0.4180 -0.0725 -0.0123
  437W        W  637   2.671  18.126  11.522 -0.0317  0.0214 -0.1431
  438W        W  638   1.467   9.964   0.769  0.0249  0.0394  0.0020
  439W        W  639   6.031   6.742   6.320 -0.0744  0.0157  0.0900
  440W        W  640   6.574  13.733   4.266 -0.2427  0.0813 -0.3568
  441W        W  641   4.295  10.819   2.191  0.0986  0.6119  0.0425
  442W        W  642   7.598  10.310   0.709 -0.3578  0.0361 -0.1466
  443W        W  643   6.972   2.960  12.433 -0.0964  0.0264 -0.0082
  444W        W  644   1.394   3.927   9.915 -0.1466 -0.3428 -0.2183
  445W        W  645   3.358   0.521  14.315 -0.0245 -0.0600  0.0137
  446W        W  646   1.746   7.062   1.789 -0.1551 -0.2690  0.3254
  447W        W  647   8.340   7.589   1.806 -0.1984 -0.1708  0.1003
  448W        W  648   3.289   2.144  14.660  0.3130  0.0774  0.0270
  449W        W  649  14.456  16.640  11.809  0.0394 -0.1022  0.1909
  450W        W  650  10.717   2.122   3.253  0.0886 -0.1064 -0.0356
  451W        W  651  11.121   0.410  11.784 -0.4008 -0.0791 -0.1930
  452W        W  652  17.384   3.069  12.108  0.0646 -0.2711  0.1922
  453W        W  653   8.684   3.107   1.928 -0.0155  0.0021 -0.1201
  454W        W  654   8.147   6.321   9.546 -0.5038 -0.0138 -0.2973
  455W        W  655  12.819  10.650   6.823 -0.2045  0.6177 -0.1583
  456W        W  656  16.740   6.938   3.886 -0.0336 -0.1630  0.1437
  457W        W  657  14.972  16.454  12.446 -0.3485  0.5092 -0.1926
  458W        W  658  12.136   5.937   0.823  0.0099 -0.3500  0.1709
  459W        W  659  10.214   0.196   6.388 -0.1087 -0.0178 -0.0188
  460W        W  660  14.403  13.259   5.071  0.0994 -0.1594 -0.1499
  461W        W  661   8.380   3.111   1.488  0.0843 -0.0564  0.1920
  462W        W  662   3.978   7.989   2.130  0.2728  0.3202 -0.0475
  463W        W  663  14.251  17.406   5.768 -0.0471 -0.1383 -0.2528
  464W        W  664   3.523  17.341   6.238 -0.1509 -0.0624 -0.0495
  465W        W  665   1.931   1.114   9.760 -0.0930  0.0700  0.0578
  466W        W  666  15.177   8.978   6.913  0.2140 -0.0843  0.0637
  467W        W  667   0.896   3.288   0.152  0.1760  0.0635 -0.0837
  468W        W  668  17.267   2.828  10.470  0.1565 -0.1073 -0.2962
  469W        W  669   0.028  12.620   9.141 -0.0003 -0.2467  0.0122
  470W        W  670   2.461   0.808   1.893  0.2680 -0.0670 -0.0851
  471W        W  671   4.794   6.977   7.881  0.0629  0.0188  0.1469
  472W        W  672   2.856   2.196   8.807  0.0711  0.1223 -0.1302
  473W        W  673   4.252   4.886  14.751  0.2087 -0.2178 -0.1487
  474W        W  674  17.366   4.685   4.066 -0.4295 -0.0160  0.1555
  475W        W  675  17.762   9.002   5.512  0.1910 -0.1912 -0.3892
  476W        W  676  10.084  14.168   1.970  0.0695  0.0549  0.0242
  477W        W  677   4.280   9.816   8.688  0.2714 -0.3003 -0.0892
  478W        W  678   9.949  16.852   4.630 -0.0568 -0.0827 -0.3072
  479W        W  679   9.185  10.956   1.218  0.2391  0.0002 -0.2043
  480W        W  680   2.216   4.319   9.833 -0.1594 -0.0666  0.3045
  481W        W  681  17.055   4.489   6.223 -0.0402  0.3379 -0.0993
  482W        W  682   0.507   5.055   8.185  0.0812 -0.2621  0.0314
  483W        W  683  18.200   0.108  17.381 -0.0283  0.1277 -0.1042
  484W        W  684  15.227  17.875   7.629 -0.0336 -0.1367  0.1103
  485W        W  685  10.559   3.191  11.654 -0.1678  0.3589  0.0915
  486W        W  686   1.643   8.362   2.367  0.2201  0.2009  0.2461
  487W        W  687  16.620   7.660  11.797  0.0996 -0.1644  0.2198
  488W        W  688  16.844   1.562  10.909 -0.2688 -0.0883  0.1514
  489W        W  689   4.712  10.319   1.337 -0.1141  0.2416  0.0365
  490W        W  690   7.934  14.375   3.640  0.3211 -0.2646 -0.0823
  491W        W  691   4.218  15.969   6.824 -0.0511 -0.2488 -0.1021
  492W        W  692   4.194   7.745  17.951 -0.1744  0.1014  0.2577
  493W        W  693  16.932   3.564   2.269 -0.1756  0.0985  0.0338
  494W        W  694  17.792   8.472  13.934 -0.0312 -0.2779  0.1733
  495W        W  695  14.412   1.764  16.876 -0.0271 -0.2590  0.1485
  496W        W  696   2.493  17.902   8.306 -0.0195  0.0081  0.1344
  497W        W  697  10.550   6.091   4.253 -0.2704 -0.0129 -0.2460
  498W        W  698   4.830  14.668   5.739  0.1778 -0.1114  0.0394
  499W        W  699   2.341   3.710   9.299  0.1096 -0.2731  0.2023
  500W        W  700   4.848   9.960   0.137  0.1856 -0.0409  0.1646
  501W        W  701   5.873  11.226   6.114  0.1270  0.1052  0.2473
  502W        W  702   3.193   2.361   7.567 -0.0654  0.2601  0.1338
  503W        W  703   5.016  10.768   1.396 -0.2740 -0.2316 -0.1822
  504W        W  704   6.878  17.293  11.027  0.1448 -0.2198  0.0580
  505W        W  705  16.176   8.247  14.550 -0.0114 -0.1129  0.0925
  506W        W  706  10.287   5.521  16.474 -0.0090  0.0358  0.1859
  507W        W  707  17.722   3.533   5.521 -0.2340  0.0634  0.3084
  508W        W  708   4.067   5.577   4.515 -0.0561  0.0198 -0.3489
  509W        W  709   6.425   6.881   6.882 -0.5519 -0.3939 -0.1362
  510W        W  710  18.144  17.251   6.455  0.0526  0.1712 -0.1786
  511W        W  711   6.863   2.334  13.678  0.3205  0.1807 -0.0513
  512W        W  712  17.417   4.086   0.590 -0.0144  0.1149 -0.1551
  513W        W  713   3.250   0.578   6.489  0.0383 -0.1536  0.0330
  514W        W  714   3.846   5.960   1.834 -0.0526  0.1050 -0.2921
  515W        W  715  15.926  13.784  13.938 -0.1165  0.1077  0.1210
  516W        W  716  16.668   5.531  10.603 -0.3772 -0.0836  0.1062
  517W        W  717   5.420  18.076   9.619  0.1326  0.0211 -0.0626
  518W        W  718   4.269   3.119  15.119 -0.0931 -0.1549 -0.0027
  519W        W  719   5.649   0.570  15.391  0.1293 -0.1589 -0.2028
  520W        W  720  17.399   1.488   6.882  0.2997  0.0111  0.1535
  521W        W  721  15.071   3.821   1.306  0.1678  0.1500  0.0739
  522W        W  722   8.606   2.062   1.119 -0.0212  0.1049  0.0707
  523W        W  723   1.695   5.026   4.382 -0.0276  0.1804  0.3850
  524W        W  724   0.524   1.044  15.919 -0.3498  0.2828  0.0697
  525W        W  725   8.357   3.068  17.748  0.1278  0.0002 -0.1533
  526W        W  726  16.698  14.191  16.877  0.2313 -0.0306 -0.0313
  527W        W  727   3.164   2.346   8.128 -0.0651  0.3357  0.0975
  528W        W  728   3.144   1.400   9.330 -0.5053 -0.0057  0.2088
  529W        W  729   6.799   0.325   9.822  0.4620  0.0155  0.1760
  530W        W  730  17.517  16.109  16.254  0.1273  0.0526  0.1354
  531W        W  731   4.856  17.714   1.086  0.0018 -0.0841  0.1602
  532W        W  732   6.097  17.715   4.229  0.2209 -0.2429  0.2462
  533W        W  733  18.206  17.854  17.797  0.0651 -0.1042  0.0609
  534W        W  734  12.979   0.809   8.323 -0.0283  0.1494  0.1759
  535W        W  735   1.735  12.119  14.404  0.1261 -0.0743 -0.0818
  536W        W  736   7.176   2.490   8.340 -0.1166 -0.2092  0.3027
  537W        W  737   5.046  14.516   4.656  0.1566 -0.1788  0.2823
  538W        W  738   3.138   4.275   1.140 -0.0700  0.0130  0.3119
  539W        W  739  10.349   1.311  10.782 -0.0099  0.1081 -0.1758
  540W        W  740   0.873   2.828   9.841  0.0055 -0.1171  0.2357
  541W        W  741   0.605   3.184  10.632 -0.1121  0.0850 -0.2483
  542W        W  742   1.738   4.223   9.060 -0.2118 -0.0874 -0.1364
  543W        W  743  16.835  17.020   4.862  0.2410 -0.1178  0.1613
  544W        W  744   4.244   0.201   5.115  0.1039 -0.0780  0.3872
  545W        W  745   1.547  17.130   8.336  0.1299 -0.3955 -0.1025
  546W        W  746  18.028   4.867   3.105 -0.0873  0.2217  0.1619
  547W        W  747   3.169  14.405  10.431  0.0642  0.0199 -0.0051
  548W        W  748  11.487   5.682   2.970 -0.1516  0.2567 -0.0488
  549W        W  749   2.280   3.388   1.371 -0.1973  0.2306 -0.0966
  550W        W  750   6.163  12.217   8.646 -0.3211  0.2839  0.0596
  551W        W  751   2.698  17.765   4.234 -0.1652 -0.1058  0.1644
  552W        W  752   3.003   8.058   4.659  0.1005  0.1284  0.2066
  553W        W  753  11.223   2.959  13.174  0.2549 -0.2079 -0.2757
  554W        W  754   4.725   4.397   9.211  0.0902  0.1952  0.1036
  555W        W  755  14.478  15.737  17.877  0.1299 -0.0099  0.0645
  556W        W  756  16.315   2.321  13.842  0.3168  0.1908 -0.0460
  557W        W  757   0.044   2.173   9.142 -0.2543  0.0048  0.1250
  558W        W  758   6.783  16.020   1.048 -0.2207  0.0933  0.0669
  559W        W  759   7.928  12.630   2.689 -0.0117  0.1228  0.1505
  560W        W  760   3.815  18.184  13.720  0.1318  0.1139  0.0206
  561W        W  761   8.994  14.272  16.314 -0.0404 -0.3237 -0.0166
  562W        W  762  18.108   3.808   3.511  0.1928 -0.0602 -0.3742
  563W        W  763  17.043  11.707   2.326 -0.0796  0.0976  0.2390
  564W        W  764   3.347  17.035  11.532  0.1020 -0.3352  0.2683
  565W        W  765   3.671   5.527   0.049  0.2347  0.0336 -0.1983
  566W        W  766   8.193  17.965   7.857  0.1069 -0.0338 -0.0188
  567W        W  767   3.068   7.107   7.990 -0.1855 -0.2722 -0.2154
  568W        W  768   6.773   7.233   5.712  0.1210 -0.0172 -0.3136
  569W        W  769   5.423  14.064  10.826  0.0877  0.1276 -0.0828
  570W        W  770   9.486   4.172   2.433  0.2248  0.2078 -0.0205
  571W        W  771   1.240   1.428   1.771  0.0166 -0.1087  0.0617
  572W        W  772  16.565  16.373   1.784 -0.0333  0.3333 -0.1851
  573W        W  773  15.823  16.097   2.526  0.1784 -0.2565  0.0513
  574W        W  774  16.540   5.673  15.489 -0.2083 -0.2809 -0.0134
  575W        W  775   5.910   0.581   3.810 -0.2628 -0.2847 -0.2209
  576W        W  776  16.650   2.158  12.543 -0.0453  0.1319  0.0565
  577W        W  777   0.995  15.134   5.184 -0.2018 -0.2491 -0.1187
  578W        W  778   0.483   2.324   8.880  0.0551 -0.1248  0.1040
  579W        W  779   4.340   3.733   7.794 -0.1073  0.0119  0.0893
  580W        W  780   8.371   3.370   6.232 -0.0250  0.1102  0.1697
  581W        W  781   0.947   4.072   1.925 -0.0580 -0.0587  0.0370
  582W        W  782  10.788   4.955   4.863  0.1393 -0.1346  0.1930
  583W        W  783   1.413   2.211   5.758 -0.0667 -0.3858 -0.0892
  584W        W  784  11.907   8.273  17.982 -0.3313 -0.3144 -0.0850
  585W        W  785  12.647   6.800   6.937  0.2444 -0.0442  0.0816
  586W        W  786   0.026   5.878   0.935 -0.1791 -0.1020 -0.0937
  587W        W  787   4.655  16.619   6.467 -0.4652  0.0370  0.1316
  588W        W  788   4.863   1.140  10.757 -0.2079 -0.2415 -0.0438
  589W        W  789   5.872  10.306   2.839  0.0929  0.1995  0.1465
  590W        W  790   5.671   7.563   0.870 -0.1586 -0.2085  0.0437
  591W        W  791  17.849  14.468   1.681  0.1342  0.1459  0.0854
  592W        W  792   3.717  15.286   8.727 -0.0340  0.0003  0.0580
  593W        W  793   2.554  17.288   4.247 -0.2881 -0.0927 -0.3008
  594W        W  794  15.762  13.308  15.377  0.0426  0.1612  0.0681
  595W        W  795   1.643  11.562   3.746 -0.1952 -0.2567  0.0142
  596W        W  796  10.079   0.232   7.982  0.2245  0.0307  0.0192
  597W        W  797  12.476  17.767   4.441  0.3985  0.5466  0.1034
  598W        W  798   5.354   0.422   6.239  0.0745 -0.0962 -0.0509
  599W        W  799   3.216   3.075  10.219  0.0509  0.0084 -0.2360
  600W        W  800   9.476   6.142  16.215 -0.0872 -0.1926 -0.1554
  601W        W  801   5.860   0.837   5.130 -0.2423  0.0420  0.0199
  602W        W  802   3.499   8.177  12.076  0.1874 -0.1238  0.1803
  603W        W  803   9.202  16.955  17.534 -0.0563  0.0466  0.0821
  604W        W  804  14.960   5.458  16.371 -0.1640  0.1466 -0.1604
  605W        W  805   3.016   6.511  13.151 -0.2510  0.0545  0.1113
  606W        W  806   8.600   6.165   1.835 -0.2658 -0.0476  0.0917
  607W        W  807  17.283  11.245  17.389 -0.0787 -0.1776  0.0637
  608W        W  808   0.381   0.657   7.953  0.3955 -0.0717 -0.0886
  609W        W  809  11.502   1.470   6.902  0.2531 -0.0687  0.3314
  610W        W  810  14.069   0.756   6.655 -0.3042  0.2355  0.4866
  611W        W  811   4.248   4.585   9.068 -0.2468  0.1799 -0.1809
  612W        W  812   0.214   1.092  10.796 -0.2267 -0.2525 -0.3319
  613W        W  813   2.121   6.717   7.434  0.3001 -0.0002  0.0189
  614W        W  814  17.925  13.054   4.119 -0.0687  0.0217 -0.0309
  615W        W  815   5.224   0.355  13.495 -0.2507  0.3191 -0.0227
  616W        W  816  13.832   8.667   9.292 -0.1639 -0.0665  0.0799
  617W        W  817  16.117   1.276  16.269  0.0548  0.0519  0.1802
  618W        W  818  18.035   2.595   2.157  0.0997  0.2309 -0.0637
  619W        W  819  14.660   6.009   6.650 -0.3102 -0.0862  0.0655
  620W        W  820  17.360   1.434  11.659 -0.2781 -0.1935  0.2657
  621W        W  821   4.249  16.304   6.455  0.1284  0.4329  0.1439
  622W        W  822   8.502   4.231   5.741  0.0117 -0.1020  0.1202
  623W        W  823   0.664  16.710   2.122  0.0389  0.0433 -0.2586
  624W        W  824  13.548  15.666  11.667 -0.0244 -0.1104 -0.1564
  625W        W  825   3.577  17.602   2.598 -0.2784  0.1613  0.0572
  626W        W  826   3.578   0.103   5.762  0.2087 -0.0398 -0.2857
  627W        W  827   9.601   3.041   8.511 -0.0146  0.2906 -0.0049
  628W        W  828   6.596   7.760   3.340 -0.2949  0.0543 -0.1385
  629W        W  829  18.064   1.357   8.666 -0.0095 -0.1248 -0.2159
  630W        W  830  17.666   6.165   0.237 -0.3162  0.0753 -0.1879
  631W        W  831   3.938  14.312   5.014 -0.1431 -0.2102 -0.4031
  632W        W  832   7.810   0.312   7.404 -0.1185  0.0769  0.0351
  633W        W  833   2.543  12.691   9.170 -0.1531  0.4994  0.0527
  634W        W  834   1.538   3.558  13.388 -0.0918 -0.0525  0.0676
  635W        W  835  12.987  17.300   7.855 -0.2553  0.3241 -0.3143
  636W        W  836   3.111  17.034  17.475  0.1751 -0.1488 -0.0249
  637W        W  837  16.835   9.386  15.599 -0.0133  0.2057  0.1279
  638W        W  838   6.396  14.902   2.171 -0.2191 -0.1785 -0.1817
  639W        W  839  13.942   8.733   7.633  0.1690 -0.1006 -0.0738
  640W        W  840   6.540  13.147  17.242  0.0083  0.0266 -0.2693
  641W        W  841   9.467   0.193  12.742  0.1421  0.1163  0.0751
  642W        W  842  18.135   4.241   4.215 -0.0290 -0.0778 -0.1397
  643W        W  843   4.066   7.187   2.546 -0.1098 -0.3521 -0.0223
  644W        W  844   3.480  13.871   7.747 -0.0411 -0.2078  0.2465
  645W        W  845   0.847   0.113   3.427 -0.3791 -0.0471  0.0475
  646W        W  846   4.512  13.355  13.141 -0.3446  0.0183 -0.0967
  647W        W  847   1.981   0.787   9.381 -0.0217  0.1377 -0.0422
  648W        W  848   7.624  17.677   6.217 -0.1470  0.2421 -0.0277
  649W        W  849   4.353  12.378   8.758 -0.0201 -0.0720  0.1535
  650W        W  850  17.307  10.124   3.973  0.2069 -0.3717 -0.0090
  651W        W  851   3.792   4.734  11.056 -0.3938 -0.3974  0.1435
  652W        W  852  12.508   1.251   5.385  0.1112  0.1107  0.0820
  653W        W  853  12.971  12.803   1.676 -0.0386 -0.3077  0.3994
  654W        W  854   1.026  13.386  13.269 -0.1169  0.2050 -0.2641
  655W        W  855   1.581   1.341   6.684  0.2994  0.2775  0.1006
  656W        W  856   1.394   0.241   6.888  0.2449 -0.0700  0.2688
  657W        W  857  11.859   1.554   4.482  0.1287  0.3540  0.0574
  658W        W  858   3.150   0.646   0.610  0.1653 -0.0112  0.2036
  659W        W  859  17.175   0.841   9.656  0.0196 -0.0254  0.0307
  660W        W  860  15.729  16.086   6.285  0.1232  0.2857  0.1164
  661W        W  861  17.248   0.294  14.470 -0.2548  0.1345  0.0138
  662W        W  862  17.277   7.178  11.419  0.1782 -0.0246 -0.2558
  663W        W  863   9.190   6.891   4.505  0.0556 -0.0201 -0.1037
  664W        W  864   3.927  14.287  11.974 -0.2270 -0.1205 -0.2161
  665W        W  865   0.999  13.845   6.146  0.1011 -0.3836  0.1050
  666W        W  866   1.742   4.393   0.284  0.0256 -0.0189 -0.1394
  667W        W  867   5.953   9.456  15.703  0.0015 -0.3004  0.2424
  668W        W  868   9.302  18.177   7.296 -0.3462  0.1014 -0.4503
  669W        W  869   7.985   6.138  15.095 -0.0722  0.2660 -0.1330
  670W        W  870   1.613   2.646  11.061  0.1452  0.0386  0.0208
  671W        W  871   4.066   5.233   3.387  0.1966  0.0061 -0.2649
  672W        W  872   2.848  15.374   6.848 -0.0606 -0.0387 -0.2524
  673W        W  873   7.817  10.097   7.669  0.0067  0.1551 -0.1602
  674W        W  874   3.873   5.300  16.850  0.0914 -0.3601 -0.1052
  675W        W  875   4.085  16.890  17.874 -0.1151  0.0239 -0.0843
  676W        W  876   0.117   5.462  16.351 -0.0685  0.1473  0.3666
  677W        W  877   1.212   6.912   4.421 -0.0821 -0.0811 -0.0071
  678W        W  878  16.006   2.799   2.514  0.0323 -0.2137  0.0659
  679W        W  879   8.150   2.485   2.594  0.1614 -0.1734 -0.1873
  680W        W  880   0.782   7.937   2.285  0.0451  0.1833  0.1797
  681W        W  881   0.693  15.615   7.035 -0.0264 -0.3964  0.0203
  682W        W  882   1.895   5.274   1.174  0.2482  0.1024  0.1157
  683W        W  883   1.745  15.182   2.503  0.0762  0.0679  0.2000
  684W        W  884   0.959   3.834   9.608  0.1261 -0.1404 -0.1878
  685W        W  885   0.071  15.994   2.082 -0.0744 -0.1669 -0.1834
  686W        W  886   4.760  13.418  11.991 -0.1339  0.1483 -0.0175
  687W        W  887   3.765  15.552   1.621  0.2139 -0.2064  0.2223
  688W        W  888   2.918   5.949   6.728  0.2076  0.1753  0.3391
  689W        W  889  11.190   2.714   0.405  0.2382 -0.0356 -0.0607
  690W        W  890   5.349   7.137   8.680  0.0457  0.2382  0.0859
  691W        W  891  16.211   6.891  17.375 -0.1828 -0.1737 -0.0108
  692W        W  892  13.438  17.540   1.329 -0.0440 -0.1135 -0.1278
  693W        W  893   2.514   4.429  12.567  0.1815  0.0506 -0.0667
  694W        W  894  17.503   8.604   5.595 -0.0630 -0.1268 -0.4154
  695W        W  895   4.754   3.591   4.488  0.0530  0.1923  0.1109
  696W        W  896   4.377   3.443   3.102  0.2261  0.2767  0.2506
  697W        W  897   1.092   4.615  11.960 -0.3437  0.2011  0.2279
  698W        W  898   2.756   1.022   6.346 -0.3021 -0.2723  0.0176
  699W        W  899  15.867   8.420  16.239 -0.0822  0.1261  0.1266
  700W        W  900  13.232   6.113  17.828 -0.2347  0.0500 -0.1535
  701W        W  901  15.354   6.437  15.856 -0.2249  0.1514  0.0582
  702W        W  902   4.607   3.793   4.950 -0.0466 -0.1570  0.1624
  703W        W  903  16.762  16.833  12.234  0.0786 -0.2838  0.0649
  704W        W  904   4.566   3.069   6.084  0.0339  0.2139  0.1004
  705W        W  905  10.568  14.043   2.737 -0.2257  0.0698 -0.2550
  706W        W  906   3.524   3.857   5.925 -0.0458 -0.2519  0.3744
  707W        W  907   5.998   3.943   4.128  0.5436  0.1290  0.4839
  708W        W  908   3.722   9.494   1.521  0.0576  0.0976 -0.3090
  709W        W  909   0.488   1.794   8.045  0.1319 -0.2761 -0.0225
  710W        W  910   4.867   5.137   6.606 -0.1269 -0.0022  0.2181
  711W        W  911   2.184   5.057  12.664  0.2707  0.1037  0.1051
  712W        W  912  16.424  15.068   5.413  0.0012  0.0055  0.3015
  713W        W  913   7.346  12.988   4.645  0.2701  0.1958  0.0310
  714W        W  914   6.290   3.124   3.000 -0.0325 -0.2985 -0.2451
  715W        W  915   1.930   5.041  12.220 -0.0695  0.1748 -0.2343
  716W        W  916  18.201   7.988  13.226 -0.3429  0.2126 -0.0636
  717W        W  917   4.887  13.488   5.900  0.2080 -0.1595  0.0405
  718W        W  918   9.683   1.763  10.375 -0.0512 -0.0870 -0.1081
  719W        W  919   8.151   5.007  16.113  0.0799  0.1030 -0.0378
  720W        W  920   1.871   3.957  10.025 -0.2174 -0.1010  0.1419
  721W        W  921  16.104   2.680   9.173 -0.0151  0.1220 -0.5670
  722W        W  922   7.423  13.999   3.360  0.2428 -0.0045 -0.2349
  723W        W  923  12.907   5.957   1.763  0.3052 -0.3061 -0.0772
  724W        W  924   4.758   3.549  10.911 -0.1557 -0.4015  0.0678
  725W        W  925   4.288   2.612   4.843  0.2356 -0.1264 -0.2692
  726W        W  926   2.496  13.631  15.133  0.2197  0.1377  0.3227
  727W        W  927   2.780  17.046  13.654  0.0449 -0.2194 -0.1465
  728W        W  928  16.742   1.678   3.743 -0.0765  0.2484  0.0944
  729W        W  929   5.183  11.914  13.067 -0.3655  0.0772 -0.2424
  730W        W  930  18.184   2.561  14.571  0.2517  0.0193  0.0405
  731W        W  931   4.406  13.752   1.686  0.0350 -0.1812  0.0793
  732W        W  932   0.498   3.264   2.420  0.0914  0.1864  0.3419
  733W        W  933  14.516   8.285   1.834  0.0680 -0.1046  0.0137
  734W        W  934   8.054   2.993   4.504  0.1837  0.0289  0.1670
  735W        W  935   6.080   0.691   5.683  0.1565  0.0421 -0.0586
  736W        W  936  11.529   6.641   4.772  0.0855 -0.3120 -0.3463
  737W        W  937  14.032   4.863   9.179  0.2129 -0.0142  0.1074
  738W        W  938  18.007   6.879   4.380 -0.1156 -0.0037 -0.0251
  739W        W  939   1.231  16.873   5.647 -0.0075 -0.3106  0.1351
  740W        W  940   4.769  13.335   0.802 -0.1529 -0.1227  0.0632
  741W        W  941   1.279  18.002  11.423  0.0322  0.2652 -0.0742
  742W        W  942  17.668  16.471  18.028  0.0698  0.1190 -0.1416
  743W        W  943   6.006   4.872   4.182 -0.3235  0.2449 -0.0064
  744W        W  944   2.794  13.721   0.471 -0.0972  0.1619 -0.2116
  745W        W  945  11.083   4.019   8.707 -0.2557 -0.4810 -0.1521
  746W        W  946  15.137   2.799  12.326  0.1091  0.1681 -0.0585
  747W        W  947   4.977  15.141   2.020  0.1017  0.1272  0.1939
  748W        W  948   0.838   9.445   4.178 -0.0534  0.0791  0.0032
  749W        W  949   7.635   1.429   5.246 -0.0878  0.1905 -0.0153
  750W        W  950   3.679   5.948   6.245  0.4493 -0.2748 -0.0199
  751W        W  951  14.066   0.518  14.652  0.0557  0.0740  0.1442
  752W        W  952   0.213  14.656  16.265 -0.2599  0.1237  0.0758
  753W        W  953  16.182   0.756   3.614 -0.3129 -0.0415 -0.3093
  754W        W  954  17.347  11.814   6.901 -0.2557 -0.2454 -0.2019
  755W        W  955   3.007   1.285  12.031  0.1086 -0.0424  0.3989
  756W        W  956   3.373   9.253  12.511  0.0264 -0.1881 -0.0521
  757W        W  957  16.478  15.573   6.397 -0.0055 -0.0839  0.1157
  758W        W  958   2.785  18.042   2.283 -0.0252 -0.0006 -0.0429
  759W        W  959  15.856   3.757  11.393 -0.1410  0.0314 -0.0197
  760W        W  960   7.164   4.199  10.209  0.3026 -0.1651 -0.0957
  761W        W  961   1.299  14.591   4.363 -0.2202  0.0453  0.0455
  762W        W  962   2.284   1.684   5.058  0.0762 -0.0204  0.0801
  763W        W  963   0.746   3.723   4.595 -0.0732 -0.0012 -0.1918
  764W        W  964   3.829   5.537   6.036 -0.0661  0.1671  0.1494
  765W        W  965   9.332   8.047  10.438  0.2456 -0.1010 -0.1377
  766W        W  966   2.014  17.638   4.880  0.0956  0.2303  0.0971
  767W        W  967  17.002  14.952   8.710 -0.2322 -0.0323  0.3298
  768W        W  968   6.778   6.358   6.539 -0.2256 -0.1033  0.0941
  769W        W  969  10.858  11.231  14.349  0.3862  0.0990  0.0875
  770W        W  970   6.190   5.109  18.071 -0.0390  0.0391 -0.0225
  771W        W  971   4.584   7.820   4.358  0.0540 -0.2984 -0.0181
  772W        W  972   2.272   2.172   9.515  0.2938  0.2354 -0.1967
  773W        W  973  11.406  13.552   2.677  0.0087 -0.1576  0.0756
  774W        W  974  15.804  15.172   1.720  0.0795 -0.2921 -0.1789
  775W        W  975   2.842  10.606  13.998  0.0942 -0.4086  0.1398
  776W        W  976   8.350  15.632   6.310  0.4054  0.0302  0.0151
  777W        W  977   4.290  17.164   8.070 -0.1457  0.2330 -0.3652
  778W        W  978   3.429   0.688  15.648  0.1715  0.0656  0.1409
  779W        W  979  12.916   1.105   2.039  0.0379  0.2197 -0.0880
  780W        W  980   3.280   3.793   6.379 -0.3844 -0.0238  0.0275
  781W        W  981   0.486  16.360  12.436  0.0003 -0.0456  0.0682
  782W        W  982   8.890   2.441   4.199  0.0945 -0.0444  0.1526
  783W        W  983   2.399   3.928  17.158  0.5082 -0.2068  0.4033
  784W        W  984   2.391   1.841   1.410 -0.2608 -0.1357 -0.1108
  785W        W  985   6.930   0.186   3.824  0.1236  0.2099  0.0749
  786W        W  986   3.272   0.091   7.686  0.1830 -0.1216 -0.0262
  787W        W  987  14.277  15.292  13.888  0.0619 -0.0055 -0.0444
  788W        W  988   5.175  16.879   3.632 -0.0909  0.1887 -0.0737
  789W        W  989   3.327  12.636  15.343 -0.1000  0.1386 -0.2009
  790W        W  990   3.801   2.534  11.905  0.2233  0.3269 -0.0419
  791W        W  991   4.481  17.760   4.996  0.2864 -0.1101  0.1612
  792W        W  992   0.510  14.211   3.895 -0.0022  0.1095  0.0451
  793W        W  993   2.168   4.968  13.483 -0.1097  0.1569 -0.2239
  794W        W  994   1.699   8.840   6.976 -0.1229  0.1138  0.1691
  795W        W  995  17.218  14.981   4.876 -0.1536  0.1058 -0.3612
  796W        W  996   4.544  11.301  16.632  0.0501  0.0292 -0.0548
  797W        W  997  13.037   5.842   5.264 -0.0545 -0.0237 -0.0024
  798W        W  998   6.395   1.839   8.411  0.1762 -0.0357 -0.2852
  799W        W  999  17.921  16.724   6.896 -0.1063  0.0537 -0.3280
  800W        W 1000   3.115  14.023  11.619  0.0477 -0.0943 -0.0994
  801W        W 1001   3.341   3.957  12.541  0.0742  0.3028  0.2785
  802W        W 1002  14.368   1.383   2.340 -0.1700  0.2150 -0.1565
  803W        W 1003  11.730   7.539   1.611  0.2962 -0.3340 -0.1689
  804W        W 1004   1.524  16.622   6.101  0.0996  0.0366 -0.1149
  805W        W 1005   6.800   2.202  11.298 -0.0060 -0.0136  0.1426
  806W        W 1006  11.577   6.495   5.205  0.1957  0.2675 -0.0828
  807W        W 1007   5.974  16.516   8.846  0.1456 -0.0362 -0.0489
  808W        W 1008   0.496   6.457   2.775  0.2287 -0.0838 -0.2011
  809W        W 1009  15.222   7.246  17.715  0.0613  0.0434 -0.0008
  810W        W 1010   5.996   0.816   2.356  0.0434 -0.0985  0.1356
  811W        W 1011   1.014  14.479  10.882 -0.1810  0.1817 -0.3572
  812W        W 1012  11.276   5.726   7.530 -0.0643 -0.0252  0.0755
  813W        W 1013   6.082  15.823   7.781 -0.1001  0.1350 -0.0715
  814W        W 1014  12.814  12.257   4.861 -0.2172  0.1261 -0.0386
  815W        W 1015   1.502  15.292   5.753 -0.1142 -0.0892 -0.3485
  816W        W 1016   6.766   3.936  16.492 -0.2050  0.0472 -0.3040
  817W        W 1017   9.485  14.156  12.658  0.2327 -0.2554  0.2966
  818W        W 1018   4.565  10.115  17.119  0.2004  0.3058 -0.0861
  819W        W 1019   9.766   2.243  13.558  0.0545  0.0568 -0.2598
  820W        W 1020   2.764   6.514   2.198  0.0557  0.0054  0.4399
  821W        W 1021   4.761  17.863   6.407 -0.1180 -0.0305  0.1062
  822W        W 1022   1.176   7.704   0.611  0.0771 -0.1207 -0.2830
  823W        W 1023   1.263   2.653  14.772 -0.0648 -0.0417 -0.1842
  824W        W 1024  17.519   2.783   3.819 -0.2380  0.0848 -0.0949
  825W        W 1025  17.289  12.082   7.455 -0.0146  0.1637 -0.1522
  826W        W 1026   2.399   3.220   6.232  0.0224 -0.3061 -0.0460
  827W        W 1027   1.962   7.864   8.103 -0.0338 -0.0420 -0.3349
  828W        W 1028   6.262   0.298   9.832 -0.3323 -0.1334  0.1000
  829W        W 1029  13.151  10.076  13.990 -0.0687  0.2274 -0.0512
  830W        W 1030  16.122   9.414   0.877 -0.0568 -0.0162 -0.0809
  831W        W 1031  14.410   3.206  16.197 -0.1177  0.0019  0.1090
  832W        W 1032  17.800   2.033   0.742 -0.3077 -0.0580 -0.0482
  833W        W 1033   3.171  13.023   9.909 -0.1272 -0.1797  0.0018
  834W        W 1034   1.760  11.537  11.941 -0.1355  0.0747 -0.2246
  835W        W 1035  15.780   4.903   9.663 -0.1325 -0.2337 -0.1859
  836W        W 1036  13.801   4.373  13.350 -0.1790 -0.2375 -0.1278
  837W        W 1037   8.139   8.128   9.297  0.0910  0.2246 -0.1281
  838W        W 1038  13.246   2.378  11.374 -0.2270 -0.0900  0.0227
  839W        W 1039   4.480  15.263   3.567  0.3659 -0.2656 -0.1572
  840W        W 1040  17.209   1.378  12.571  0.1968  0.0045  0.2195
  841W        W 1041  14.302   1.498   7.565 -0.0330 -0.2368 -0.1855
  842W        W 1042  12.239  16.467   6.507  0.1156 -0.1484 -0.3092
  843W        W 1043  17.781  14.310   6.635 -0.3338  0.4009  0.2725
  844W        W 1044   5.220   7.894   3.764  0.2567 -0.0985 -0.1459
  845W        W 1045   4.737   1.843   1.090 -0.1718 -0.1081 -0.0579
  846W        W 1046  10.402   1.450   8.186 -0.4690  0.0194  0.0618
  847W        W 1047  11.915  15.088  13.908 -0.2541  0.0386 -0.3904
  848W        W 1048  10.405  18.065   1.353 -0.5067 -0.1068 -0.0471
  849W        W 1049   4.277   3.966   2.869  0.2771  0.3059 -0.0933
  850W        W 1050  12.664  14.829  16.977 -0.1025  0.0034  0.3838
  851W        W 1051   5.350   8.902   9.670  0.2471  0.0076  0.0403
  852W        W 1052   4.962  15.758   9.511 -0.2840  0.0209 -0.0137
  853W        W 1053   6.584  15.698   3.348  0.1613 -0.1508 -0.1795
  854W        W 1054   1.423  16.349   8.545 -0.0025 -0.1381 -0.1897
  855W        W 1055   5.772   4.361  14.354  0.2723  0.2964  0.1050
  856W        W 1056   4.867  17.232   5.538  0.1035  0.2279  0.0959
  857W        W 1057  14.200  16.804   9.691  0.2645 -0.2816  0.0977
  858W        W 1058   5.381   8.552  16.289 -0.0456 -0.3235  0.1805
  859W        W 1059   5.705  14.062  10.069 -0.0856  0.0908 -0.2224
  860W        W 1060  13.978   9.672   3.086 -0.2737  0.1890 -0.0119
  861W        W 1061   3.970   3.921   6.783  0.1947  0.2407  0.1052
  862W        W 1062  16.087   3.551  13.534  0.0926  0.3299 -0.0355
  863W        W 1063   0.035   3.032  10.601 -0.0447  0.0726 -0.1888
  864W        W 1064   0.542   9.740  10.683 -0.0260 -0.1685  0.1325
  865W        W 1065   6.058   8.929  11.694  0.1052 -0.1256 -0.0148
  866W        W 1066   0.366   6.435  12.393  0.1175  0.0647  0.1954
  867W        W 1067   0.074  16.656  13.690 -0.0054  0.1533  0.1044
  868W        W 1068  14.951   0.539  13.119  0.1375  0.3014 -0.0911
  869W        W 1069   3.090   7.007   6.262  0.0373  0.0199 -0.0111
  870W        W 1070  12.313   7.112  12.904  0.0393  0.1700  0.3093
  871W        W 1071  11.990  11.346   7.975  0.0297  0.1817  0.0905
  872W        W 1072   3.867  16.767   9.223  0.2694  0.1602  0.1742
  873W        W 1073  17.962  16.148  14.342 -0.0889 -0.1831  0.0775
  874W        W 1074  10.899   3.323  14.363 -0.0422  0.3018  0.2869
  875W        W 1075  14.416   3.717  13.200  0.0513 -0.0341 -0.0722
  876W        W 1076   2.973  10.242   3.604  0.1025  0.1807 -0.0390
  877W        W 1077   1.872   4.866   0.303  0.4299  0.1876 -0.3134
  878W        W 1078  11.900  10.490   4.697  0.0869  0.1461  0.1433
  879W        W 1079  17.795   5.444   3.759 -0.0658  0.3952  0.1134
  880W        W 1080  16.944  15.148   8.064  0.0316  0.1109  0.1446
  881W        W 1081  15.329  12.501  13.990  0.2152 -0.0178  0.0180
  882W        W 1082   6.372  11.264  10.039  0.1786  0.3695 -0.2305
  883W        W 1083   4.698   1.686  12.402 -0.4955 -0.0955  0.1239
  884W        W 1084   1.017   9.003   9.850 -0.0317  0.1140 -0.0650
  885W        W 1085   1.762   4.419   6.821 -0.1518  0.5204  0.1748
  886W        W 1086  10.602  17.657  11.092  0.0386  0.0715 -0.1082
  887W        W 1087  17.177  12.256  11.608 -0.2532  0.0195  0.0054
  888W        W 1088  11.694   3.753   7.963 -0.2081  0.2309 -0.1726
  889W        W 1089   0.633   1.674  13.217  0.0785  0.0659 -0.3040
  890W        W 1090   3.673  14.021  11.428 -0.0113  0.0389  0.0556
  891W        W 1091   6.980  11.334  15.050  0.1712 -0.1044  0.1133
  892W        W 1092  11.891  16.221  12.828  0.4792  0.0585  0.2068
  893W        W 1093   1.643   3.978   7.351 -0.3617 -0.0021  0.2713
  894W        W 1094   3.460   9.488   6.965  0.1254 -0.2700 -0.2600
  895W        W 1095  15.722   9.703   6.965 -0.1639 -0.1177 -0.1185
  896W        W 1096   0.806  17.530   1.550  0.2532 -0.1932 -0.0175
  897W        W 1097   1.494  13.360   7.294  0.0577  0.3808  0.1518
  898W        W 1098   2.248  15.838   5.685 -0.0276 -0.2952 -0.3922
  899W        W 1099   3.341   0.265   1.760  0.0981  0.1159 -0.0201
  900W        W 1100  15.600  16.342   4.875 -0.1493  0.1774 -0.0702
  901W        W 1101   1.974  17.419   8.336 -0.0502  0.4407  0.0579
  902W        W 1102  12.002   0.619  11.932 -0.1697 -0.2713 -0.1003
  903W        W 1103  12.255   8.173   8.306 -0.0422 -0.0375 -0.1369
  904W        W 1104   1.257  16.026  10.377  0.2201 -0.2397  0.1282
  905W        W 1105  15.721   8.351  10.983 -0.1149  0.3664 -0.2087
  906W        W 1106  17.277   0.704   7.797 -0.0001  0.0026  0.1485
  907W        W 1107   5.370   5.034  12.923  0.0615 -0.1485  0.0717
  908W        W 1108  15.313   1.552   6.662 -0.2310 -0.2741 -0.1922
  909W        W 1109   1.127  14.192   4.100 -0.0389  0.1964 -0.3159
  910W        W 1110   8.685   4.297  16.148 -0.1109  0.2508  0.2355
  911W        W 1111  17.401   6.120  11.897  0.0960 -0.0327  0.2575
  912W        W 1112  18.178   1.061   2.339  0.0467 -0.1927 -0.2421
  913W        W 1113   2.376  12.041   4.343 -0.0052 -0.0861 -0.0249
  914W        W 1114   0.391  11.493  10.936  0.2237  0.1739 -0.0180
  915W        W 1115  17.951   0.649   7.074 -0.2242 -0.3201  0.2214
  916W        W 1116   7.034   3.444   8.652  0.3593 -0.3117 -0.0104
  917W        W 1117  17.487  16.656   5.915 -0.2238  0.4572  0.1831
  918W        W 1118  11.277   0.038  12.639  0.0185  0.2302  0.0273
  919W        W 1119  14.752   3.149  15.024  0.2412  0.1762  0.0901
  920W        W 1120  13.281   1.804  13.194 -0.1378  0.2440 -0.1253
  921W        W 1121  18.077   2.276   7.715  0.1571 -0.0256  0.0160
  922W        W 1122   0.653  12.051   9.250 -0.1222  0.0904  0.0530
  923W        W 1123   5.790  10.252   8.349  0.0711  0.2371  0.0783
  924W        W 1124   4.910   6.123   6.630  0.0374 -0.1827 -0.2351
  925W        W 1125  14.359   0.610   0.169 -0.3354  0.0494  0.1257
  926W        W 1126   1.752   6.563  14.850  0.1876 -0.2886  0.2079
  927W        W 1127   0.393   3.764   3.465 -0.4477 -0.0698 -0.1003
  928W        W 1128   3.742   0.105   6.306  0.3004  0.0996  0.1300
  929W        W 1129  16.267   7.742  14.678 -0.0651  0.0602 -0.0079
  930W        W 1130  11.384   2.906  13.731  0.0671 -0.0604 -0.1636
  931W        W 1131  16.914   3.756  16.286 -0.3167 -0.1250  0.1642
  932W        W 1132  13.594   1.230   3.012  0.1858 -0.0214 -0.0791
  933W        W 1133   1.693   8.700   9.465  0.0771 -0.0269  0.0745
  934W        W 1134   6.218  15.112   4.636  0.0185  0.0636  0.0789
  935W        W 1135  17.762  15.859   2.155 -0.0962 -0.0023  0.2566
  936W        W 1136   0.680   0.060   8.905  0.0467  0.1104  0.5049
  937W        W 1137   2.862   5.536   2.128 -0.0876 -0.2452 -0.1498
  938W        W 1138   6.414   4.427  10.157  0.1389 -0.4684 -0.1330
  939W        W 1139   6.648   0.875  13.508  0.1013 -0.0396  0.0266
  940W        W 1140   3.644  15.640  10.107 -0.2334 -0.0742  0.2075
  941W        W 1141   2.186  15.176  10.990 -0.0162 -0.0518  0.1501
  942W        W 1142  16.409   0.451   0.893  0.2693  0.1127  0.4484
  943W        W 1143   6.795  17.735   5.952  0.3759 -0.0767 -0.3664
  944W        W 1144  17.754   9.262  11.801 -0.1631  0.2790 -0.0413
  945W        W 1145   1.031  16.859   8.578 -0.2924  0.0359 -0.0805
  946W        W 1146   6.964   6.918  17.833  0.2848  0.2047 -0.3741
  947W        W 1147   6.222   5.161  10.676 -0.1878 -0.3070 -0.2826
  948W        W 1148   3.418  12.251   2.868  0.1505  0.2362  0.3342
  949W        W 1149  10.506   2.383   7.644 -0.2685  0.0505 -0.2330
  950W        W 1150  15.085   9.265   1.159 -0.2306 -0.3439 -0.0570
  951W        W 1151  17.305  16.424   8.798  0.3954 -0.0002 -0.1024
  952W        W 1152   4.345  18.149   7.899  0.0194  0.0632  0.0997
  953W        W 1153   9.305   2.020   7.469  0.1591 -0.0272 -0.1539
  954W        W 1154   5.486   1.428   9.318 -0.4114 -0.1695  0.1359
  955W        W 1155   2.618   5.268  16.208 -0.3848  0.0478 -0.0362
  956W        W 1156   2.447   5.389  10.375 -0.2140 -0.0939 -0.0526
  957W        W 1157   6.119   0.417   0.129 -0.2783 -0.1813 -0.0525
  958W        W 1158   4.152   0.147   1.235 -0.1722  0.0022  0.0140
  959W        W 1159   0.916   7.300   4.269  0.0909 -0.0634 -0.2227
  960W        W 1160   4.649  11.166   9.118  0.0486  0.1663  0.1571
  961W        W 1161   7.037   5.230  10.003  0.1752 -0.1784 -0.1461
  962W        W 1162   7.608  14.936   4.987  0.0806  0.1866  0.1071
  963W        W 1163  12.891   5.530   4.083 -0.0598 -0.0645 -0.4465
  964W        W 1164   6.024   6.313  12.362  0.0201 -0.0091 -0.4063
  965W        W 1165   5.781   7.646  11.807 -0.0909  0.0800  0.2606
  966W        W 1166  14.945   3.046   8.043 -0.2930  0.4782  0.2401
  967W        W 1167  17.636   7.084   1.633  0.1908 -0.0798  0.0363
  968W        W 1168   5.165  14.521   8.325 -0.0283 -0.1399 -0.1213
  969W        W 1169   4.692   0.851  10.366 -0.0215 -0.2040 -0.1670
  970W        W 1170   5.987   0.407   6.638  0.2299 -0.0461  0.0333
  971W        W 1171  10.998   5.241   6.771 -0.3898  0.1652 -0.5388
  972W        W 1172   5.139   8.565   7.284 -0.0590  0.2173  0.3074
  973W        W 1173   1.490   6.705  14.140 -0.1228  0.0546  0.1344
  974W        W 1174   1.625   6.012  10.134 -0.0456 -0.0881  0.1369
  975W        W 1175  14.035  17.740   9.466 -0.1476  0.1518  0.1687
  976W        W 1176   1.037  14.355   6.818 -0.1350 -0.1249 -0.2296
  977W        W 1177   8.616   2.354   8.114  0.2338 -0.2034  0.1228
  978W        W 1178   5.105  11.493   3.908 -0.0210  0.1037  0.1586
  979W        W 1179   7.240   0.015   4.148  0.1975  0.0033  0.2159
  980W        W 1180   9.396  10.781   6.466  0.1675  0.0324  0.3025
  981W        W 1181  12.858   2.058  13.134 -0.2330 -0.2616 -0.1560
  982W        W 1182  14.152   2.596  15.285 -0.1282 -0.0855  0.1581
  983W        W 1183   0.926   4.691   3.487  0.2113  0.1850  0.0164
  984W        W 1184   3.268   2.903   1.366  0.2571  0.1510  0.0741
  985W        W 1185  13.509  13.184   1.145 -0.1516 -0.0860 -0.1327
  986W        W 1186   9.468   1.617   4.653  0.2701 -0.2731 -0.1479
  987W        W 1187   4.129  16.408   7.971 -0.1108  0.0089  0.0192
  988W        W 1188   4.628   5.390   2.490  0.0815  0.1077  0.0368
  989W        W 1189  14.211   1.756   5.210  0.0072  0.1738  0.0734
  990W        W 1190   3.230   1.911   8.284  0.0363  0.2461 -0.0615
  991W        W 1191   8.442   2.944  13.477 -0.0651  0.2699 -0.0096
  992W        W 1192   4.833   5.553   6.227 -0.3218  0.1250 -0.2039
  993W        W 1193  15.371   1.999   1.233 -0.0614  0.2512  0.1218
  994W        W 1194  17.704   7.793   9.304  0.2416  0.0877  0.2470
  995W        W 1195   0.065   3.427   7.875  0.1129  0.0636 -0.0884
  996W        W 1196  13.992  15.060   9.207 -0.2586  0.2553 -0.2433
  997W        W 1197  10.461   5.131   0.354  0.2139  0.1365 -0.2249
  998W        W 1198   2.685   6.503   4.112  0.0567 -0.0667  0.1002
  999W        W 1199   1.851  17.842   7.453  0.0465 -0.2172 -0.0456
 1000W        W 1200   2.294   1.267   7.304  0.2600 -0.1740 -0.2764
 1001W        W 1201   2.190  13.952  10.361 -0.3409 -0.0923 -0.2141
 1002W        W 1202  15.190  14.907  14.750 -0.1056  0.3262 -0.0404
 1003W        W 1203   2.265  11.886  11.087 -0.2211  0.0913  0.3311
 1004W        W 1204   0.109   5.805  10.841 -0.0874 -0.2504 -0.0826
 1005W        W 1205   3.668  12.156   4.766 -0.3752 -0.3253 -0.1787
 1006W        W 1206   2.087  17.992   5.259 -0.1367  0.0841  0.3889
 1007W        W 1207   2.953  16.633   6.333  0.1933  0.0874 -0.2935
 1008W        W 1208  16.746   0.396   6.012  0.2455 -0.3325  0.3050
 1009W        W 1209  12.557   8.467   5.152  0.2207 -0.0365  0.0412
 1010W        W 1210   3.540   5.184  13.345 -0.1106 -0.0527  0.0133
 1011W        W 1211  13.954   6.377  11.799 -0.0744  0.0576 -0.1225
 1012W        W 1212   7.796  17.701  13.108  0.1485  0.0207  0.0710
 1013W        W 1213   6.562  15.130  13.531 -0.0806 -0.0117  0.1338
 1014W        W 1214   3.012   1.204  11.545 -0.3201  0.1584  0.1389
 1015W        W 1215  14.217  10.247   5.903  0.2180 -0.3593 -0.2923
 1016W        W 1216   2.844  16.573   9.678  0.1153 -0.2850  0.0478
 1017W        W 1217   0.899   4.925  12.369 -0.2167 -0.0659 -0.2128
 1018W        W 1218   1.257   5.759  12.603 -0.2537  0.1350 -0.3474
 1019W        W 1219  14.403   6.073   5.485 -0.3676 -0.0374  0.4514
 1020W        W 1220  15.122   2.552  11.862 -0.4508 -0.0856  0.0920
 1021W        W 1221   3.908   1.279  12.849  0.4193 -0.0667 -0.0498
 1022W        W 1222   4.742   8.153  17.313  0.1302  0.1668  0.1069
 1023W        W 1223  11.343   5.224   5.672 -0.3158  0.2354  0.2705
 1024W        W 1224   4.893  13.622   9.929  0.1227 -0.0646 -0.0058
 1025W        W 1225   5.673   3.126   4.326 -0.4849  0.2302 -0.2237
 1026W        W 1226  13.584   9.491   5.960  0.0094  0.1795  0.0232
 1027W        W 1227   8.995   2.605   9.724 -0.3284 -0.1405  0.0959
 1028W        W 1228  17.425   2.707  15.178 -0.4180 -0.2165  0.4846
 1029W        W 1229   1.487  13.135   4.825  0.0447  0.0485  0.3804
 1030W        W 1230  15.796   6.977   3.589  0.2215  0.0673  0.0117
 1031W        W 1231   2.970   4.958  15.117  0.2176 -0.2041 -0.1824
 1032W        W 1232  10.944   6.818  10.230  0.0042  0.1997 -0.1358
 1033W        W 1233   6.073   2.584   6.873  0.0554  0.0357  0.1235
 1034W        W 1234   7.196   3.258   5.185  0.0674 -0.1218  0.0759
 1035W        W 1235   3.248   7.111  13.973  0.3599 -0.2087  0.3298
 1036W        W 1236  17.512   0.762   6.183  0.0469  0.1162  0.1471
 1037W        W 1237  16.415   2.343   2.959  0.0873 -0.1386 -0.2839
 1038W        W 1238  15.508  11.609   8.443 -0.0993 -0.0469 -0.1417
 1039W        W 1239   0.986   3.725   7.784  0.0348  0.3173 -0.3702
 1040W        W 1240  15.347  14.006   8.262 -0.0685  0.2563  0.0248
 1041W        W 1241   3.949   9.212   9.335 -0.1218 -0.0530 -0.1369
 1042W        W 1242   0.951   3.960  10.123 -0.0375  0.1324  0.2053
 1043W        W 1243   3.692   2.947  15.937 -0.0868 -0.3460 -0.3531
 1044W        W 1244  14.438   5.914  16.096 -0.0050  0.1666  0.1311
 1045W        W 1245   7.444  15.939   0.395  0.0559  0.1927 -0.3508
 1046W        W 1246  16.173   6.667  11.658  0.0581 -0.0657  0.1362
 1047W        W 1247   4.016  17.021  10.215  0.0594 -0.2017 -0.0958
 1048W        W 1248   7.455   3.813   8.674 -0.3279  0.0478 -0.1218
 1049W        W 1249   2.349  14.911   4.412  0.0698 -0.1421 -0.1248
 1050W        W 1250   5.367  14.560  11.917 -0.1195  0.0172  0.3621
 1051W        W 1251  14.230  13.143   8.547 -0.0264 -0.1007  0.1505
 1052W        W 1252   5.252   1.863  12.200 -0.0740 -0.0030  0.0310
 1053W        W 1253   1.133   2.953  16.213 -0.1104 -0.0943  0.0604
 1054W        W 1254   9.337   1.333  10.500  0.0305 -0.1097 -0.1811
 1055W        W 1255  10.400   7.349  11.739 -0.0407  0.1523  0.1746
 1056W        W 1256  14.719  17.427  10.032  0.0182  0.0281  0.1137
 1057W        W 1257  14.747  13.455   4.094 -0.1797  0.2152  0.2046
 1058W        W 1258   3.259   2.237  14.070 -0.1223 -0.0382 -0.1690
 1059W        W 1259   0.114   3.877   9.925  0.2017 -0.1272 -0.0279
 1060W        W 1260  15.853   6.973   6.171 -0.0921  0.0971  0.2553
 1061W        W 1261   1.154   8.091   4.645  0.1287  0.0403 -0.1129
 1062W        W 1262   4.022  15.429  10.445  0.0249  0.0096  0.1379
 1063W        W 1263   6.013  17.568   5.338  0.0374 -0.0732 -0.0282
 1064W        W 1264   1.965   4.268   4.163 -0.2499  0.1334  0.0590
 1065W        W 1265   3.032   4.361  12.460 -0.3456  0.2609 -0.2345
 1066W        W 1266   2.958   1.837   3.235  0.1189  0.1753 -0.1564
 1067W        W 1267   0.941  15.437  10.494 -0.1081 -0.2218 -0.0617
 1068W        W 1268   2.411  17.766  17.670  0.1818 -0.0932  0.0880
 1069W        W 1269  14.734  14.177   9.570 -0.3315  0.1419  0.1107
 1070W        W 1270  16.150   2.902  15.319 -0.0365  0.0153 -0.1020
 1071W        W 1271   5.611  13.214  11.435  0.2012  0.0093 -0.1519
 1072W        W 1272   2.494   4.743   8.345  0.3384 -0.0064  0.0711
 1073W        W 1273   1.798   3.012   9.922  0.2083 -0.2413  0.1949
 1074W        W 1274   2.794   5.452   5.205  0.2981  0.1879  0.0102
 1075W        W 1275  17.332  13.268   7.321 -0.0261 -0.1827  0.0194
 1076W        W 1276   2.369   6.305  11.287  0.3470  0.2006  0.0621
 1077W        W 1277   4.805   0.571   6.013 -0.1141 -0.0677 -0.0203
 1078W        W 1278   0.033   9.405   3.881  0.5411  0.1782 -0.2193
 1079W        W 1279   1.731  14.850  12.470  0.0326  0.3646 -0.1113
 1080W        W 1280   7.260  15.355   6.028 -0.0819 -0.2871 -0.1373
 1081W        W 1281   6.889   3.950  14.098 -0.1888  0.0812 -0.0509
 1082W        W 1282   0.583   6.061   7.516 -0.0074  0.1958 -0.2645
 1083W        W 1283  14.513   6.768  10.934 -0.0970 -0.0932 -0.1356
 1084W        W 1284  15.507   3.279   0.269 -0.0570  0.0995  0.0266
 1085W        W 1285   1.902  17.087  12.321  0.2236  0.1043 -0.0140
 1086W        W 1286  15.937  17.188  12.179  0.0205  0.2636 -0.1473
 1087W        W 1287  15.328   3.126  15.872 -0.1788  0.2711 -0.0817
 1088W        W 1288  17.567   7.354   3.315 -0.1049  0.1976 -0.1438
 1089W        W 1289   5.230   9.814  12.265  0.0709 -0.0405  0.2473
 1090W        W 1290  17.131  15.648   2.788 -0.0417 -0.0343 -0.0904
 1091W        W 1291  16.883  15.098  15.062 -0.0149 -0.1089 -0.2446
 1092W        W 1292   4.417   0.127  13.662  0.0813 -0.0200  0.0955
 1093W        W 1293  14.111   0.613   8.912  0.1630 -0.0293 -0.0203
 1094W        W 1294   3.512  15.905   4.852 -0.3052  0.0832  0.0040
 1095W        W 1295   0.611   9.734   7.581  0.0847  0.1394 -0.0239
 1096W        W 1296   9.478   2.731   4.126  0.1423  0.1326 -0.3808
 1097W        W 1297   0.606   8.511  15.741 -0.0296  0.2066  0.0689
 1098W        W 1298   8.448  10.916   5.184  0.0356  0.0657 -0.1947
 1099W        W 1299   5.025   0.425  11.720  0.0393 -0.2122 -0.0163
 1100W        W 1300   1.724   2.575   8.341  0.0125  0.0498  0.2115
 1101W        W 1301   3.710  10.067  10.514  0.2191 -0.1061  0.0547
 1102W        W 1302   5.018  17.794  10.849  0.0751  0.0736 -0.2641
 1103W        W 1303   4.441  12.342   4.580 -0.0566 -0.0818  0.1178
 1104W        W 1304   1.962  17.259   7.496  0.1749 -0.0152 -0.0448
 1105W        W 1305   6.586   6.448   9.261 -0.0848  0.0027 -0.2163
 1106W        W 1306   3.408  12.288  10.654 -0.1985  0.0134 -0.5001
 1107W        W 1307   3.243  12.591  11.674  0.0428  0.3632 -0.2539
 1108W        W 1308   8.517   5.185  10.554 -0.1941  0.1943 -0.0045
 1109W        W 1309   0.054   3.097   8.383 -0.2055 -0.0351 -0.1943
 1110W        W 1310   3.297  16.316  10.674 -0.2081  0.2503 -0.3343
 1111W        W 1311   3.555   1.917  15.781  0.0718 -0.0202 -0.1233
 1112W        W 1312   2.333   6.178  10.690  0.0544  0.2654  0.0383
 1113W        W 1313  12.926   2.940  12.673  0.1068  0.3014  0.0836
 1114W        W 1314   9.185   5.885   6.310  0.0289  0.2416  0.2979
 1115W        W 1315  10.638   6.545  11.177 -0.0188 -0.0283 -0.2983
 1116W        W 1316  14.008  11.354   3.897  0.0651  0.0114  0.2348
 1117W        W 1317   4.180   8.572  12.530 -0.0130 -0.2519  0.1782
 1118W        W 1318   3.156   6.218   7.983 -0.1062  0.2306 -0.2971
 1119W        W 1319  16.917   3.589   8.200 -0.1985 -0.0511  0.0046
 1120W        W 1320   3.324  17.769   7.747 -0.0725  0.1518 -0.1401
 1121W        W 1321   0.314  14.262   7.333  0.0063  0.0098  0.1433
 1122W        W 1322   2.048   3.711   4.721 -0.3972  0.1978  0.3682
 1123W        W 1323   2.004  17.347  10.171  0.3954 -0.0677  0.2007
 1124W        W 1324   3.095   3.474  11.859  0.1053  0.2534 -0.2772
 1125W        W 1325   2.377   0.232   0.075  0.0834 -0.1054  0.1089
 1126W        W 1326   8.756   4.220   4.235 -0.1625  0.2407 -0.2561
 1127W        W 1327   5.280   8.177   3.310 -0.0618  0.2138 -0.0037
 1128W        W 1328   0.834  16.095   9.501  0.1292 -0.0582 -0.0018
 1129W        W 1329  15.152   1.793  11.438 -0.0049  0.0660  0.0213
 1130W        W 1330   0.825   4.954   2.948 -0.1006 -0.1476 -0.1620
 1131W        W 1331  16.429   3.916   4.239  0.1163  0.1119 -0.1450
 1132W        W 1332   4.744   3.166  14.394 -0.1573 -0.0085  0.2138
 1133W        W 1333  14.152   2.942   7.946 -0.1117  0.1771 -0.1558
 1134W        W 1334   9.549   5.581   3.646  0.1653  0.2786  0.0694
 1135W        W 1335   4.052   3.348  14.106  0.1962  0.1248 -0.2362
 1136W        W 1336  14.296   8.858   8.086 -0.1409 -0.1004 -0.0133
 1137W        W 1337   1.623   2.849  15.099 -0.2235  0.0203 -0.1410
 1138W        W 1338   9.998   5.426  10.628  0.1016 -0.3179  0.2057
 1139W        W 1339  17.246  12.654  14.751 -0.1053 -0.1105 -0.0900
 1140W        W 1340   8.036   4.862  13.924  0.0193 -0.1986 -0.2268
 1141W        W 1341   4.264   3.100   5.044  0.0677 -0.0970  0.1092
 1142W        W 1342  11.077  12.194   9.765  0.0182 -0.2945 -0.1153
 1143W        W 1343   5.816   9.738   6.152  0.2025  0.0302 -0.1538
 1144W        W 1344   7.686   7.413   9.963 -0.1222  0.0244 -0.0250
 1145W        W 1345  16.805   8.918  10.647  0.0002  0.1792 -0.2175
 1146W        W 1346   0.571  16.341   2.954 -0.2205  0.1084 -0.1236
 1147W        W 1347   8.581  15.534  11.062  0.3298  0.0274  0.2601
 1148W        W 1348   7.632   9.728   6.481 -0.0189 -0.0291 -0.2860
 1149W        W 1349   0.363  10.762   4.164 -0.3411  0.1825  0.3404
 1150W        W 1350  14.740   9.198   5.307 -0.2753  0.0296  0.0173
 1151W        W 1351   1.750  15.742  11.457 -0.1071 -0.0218 -0.1124
 1152W        W 1352   4.349   2.400  15.730  0.0710  0.0106  0.0133
 1153W        W 1353   3.434   2.635  10.051  0.0503 -0.3208  0.1232
 1154W        W 1354   5.049   2.272   9.371 -0.2738  0.2650 -0.1461
 1155W        W 1355   3.513   4.652   1.216  0.1301  0.2867  0.1832
 1156W        W 1356   1.789   5.292  11.582 -0.0695  0.0551  0.1339
 1157W        W 1357  13.306   7.914   5.122  0.0344  0.1539 -0.1039
 1158W        W 1358   4.067   5.511  12.750  0.2103  0.0030  0.3167
 1159W        W 1359   9.090   0.490  12.969  0.1626  0.1415  0.3889
 1160W        W 1360  16.282  11.251   3.424  0.1151  0.2122  0.4159
 1161W        W 1361  13.786  12.714  12.659 -0.1302  0.1517 -0.2600
 1162W        W 1362   3.594   2.566   5.821  0.1135  0.0304  0.0936
 1163W        W 1363  10.836   8.996  13.546  0.1229  0.3589  0.0076
 1164W        W 1364  15.129   5.476  12.001  0.1532  0.1764  0.1406
 1165W        W 1365  13.127   3.194   2.489 -0.1056 -0.1472 -0.0939
 1166W        W 1366   2.267   4.887  17.716  0.1565 -0.2363  0.1388
 1167W        W 1367  16.640  10.115  11.025  0.0178  0.0139  0.0757
 1168W        W 1368   6.145   3.943  15.235 -0.4905 -0.0412  0.3123
 1169W        W 1369   1.066  15.275   7.190 -0.1190  0.1604  0.1808
 1170W        W 1370   1.509   3.451   6.986 -0.0806 -0.0612 -0.0261
 1171W        W 1371  13.597   8.330  16.938  0.1653 -0.0947  0.0282
 1172W        W 1372   4.191  17.932   9.732 -0.0296 -0.1480  0.0521
 1173W        W 1373  16.943  15.660   9.914 -0.1495  0.0909 -0.3457
 1174W        W 1374   3.862   5.619  13.244  0.0204  0.1494  0.0670
 1175W        W 1375   7.339   1.216  10.722  0.1236 -0.1222 -0.1225
 1176W        W 1376  15.549  15.823  10.842  0.0465 -0.1928 -0.2374
 1177W        W 1377  16.572   3.710   6.246 -0.1269  0.0471 -0.1165
 1178W        W 1378  14.795   1.837  13.384  0.0002 -0.1786  0.2841
 1179W        W 1379   4.434   1.802   7.318 -0.0799  0.0282  0.0673
 1180W        W 1380   1.814   7.523  14.072 -0.1683 -0.2458  0.3452
 1181W        W 1381   4.645  15.998  13.826  0.0501  0.2578  0.2055
 1182W        W 1382   7.522   1.549   8.473 -0.0275  0.1752 -0.0257
 1183W        W 1383  16.859   2.859  17.898 -0.0208 -0.2292  0.0524
 1184W        W 1384   0.305  17.838  14.125  0.0759  0.2176  0.2533
 1185W        W 1385   9.320   2.343  16.990  0.0801  0.0856  0.0634
 1186W        W 1386   4.058   8.270  16.743  0.0111 -0.1120 -0.1383
 1187W        W 1387   4.264  13.925   3.087 -0.2303 -0.0298 -0.0913
 1188W        W 1388   6.012   3.492   7.852  0.0274 -0.1089  0.0538
 1189W        W 1389   3.627   0.300  13.264  0.0443 -0.1314 -0.1285
 1190W        W 1390  17.239   7.914   8.931  0.2529 -0.0758 -0.1464
 1191W        W 1391   2.231  12.877  12.765  0.2868  0.2177 -0.1036
 1192W        W 1392  14.245  13.268  10.136 -0.3122 -0.2746  0.2321
 1193W        W 1393  18.155   8.100   1.413  0.0437 -0.0079 -0.0391
 1194W        W 1394  16.948   1.133  14.084 -0.0810  0.0018  0.3773
 1195W        W 1395   5.108   3.891   5.324 -0.1584 -0.1441  0.0327
 1196W        W 1396   3.851   1.421   6.791  0.2827 -0.2968 -0.0605
 1197W        W 1397   2.029   5.980  10.356 -0.0364 -0.0351  0.0528
 1198W        W 1398  10.328   3.613   6.310  0.0743 -0.2241  0.0800
 1199W        W 1399  13.760  16.707  10.028 -0.0313  0.3801 -0.0019
 1200W        W 1400   0.692  16.514   9.316 -0.0482 -0.1715  0.1620
 1201W        W 1401   4.940  16.063   3.105 -0.0072  0.1513  0.1649
 1202W        W 1402   3.506  12.997   7.479  0.0770  0.1192  0.0475
 1203W        W 1403  11.989   9.494  12.984  0.0426  0.2256 -0.1908
 1204W        W 1404  16.761  13.700   5.998  0.0018 -0.0000 -0.1667
 1205W        W 1405   0.320  13.537   5.519 -0.0750 -0.0913 -0.0430
 1206W        W 1406  16.606   0.304  15.941  0.0290 -0.0384  0.2145
 1207W        W 1407   9.739  18.171  11.931  0.0561  0.0829 -0.1369
 1208W        W 1408   0.796   1.771  15.081  0.1831 -0.5942  0.0245
 1209W        W 1409   6.199  14.681  12.035  0.0121  0.0589  0.1983
 1210W        W 1410   3.614   6.994   8.507  0.2203  0.2425  0.0387
 1211W        W 1411   7.929   3.143   5.866  0.1132 -0.1122  0.3226
 1212W        W 1412   2.955  16.407  11.475 -0.0859  0.0766  0.0676
 1213W        W 1413   2.185  16.541   9.673  0.2096  0.1677 -0.1486
 1214W        W 1414   2.731   9.634   5.383  0.0916 -0.1488 -0.0517
 1215W        W 1415   2.044   4.771  16.639 -0.2162 -0.2639 -0.1692
 1216W        W 1416   5.782   5.564   4.748 -0.0032  0.1651 -0.4746
 1217W        W 1417   9.893   1.137  11.237 -0.0474  0.1491 -0.0624
 1218W        W 1418  15.072  11.733   2.171  0.2958 -0.0405  0.3126
 1219W        W 1419   4.171  17.665   3.627 -0.2079  0.2274  0.1881
 1220W        W 1420   6.467  15.828  10.385  0.2249  0.0002 -0.0673
 1221W        W 1421   6.465  16.115   7.483  0.2869  0.0035  0.0947
 1222W        W 1422   7.135   2.449   3.694  0.1988  0.1356  0.2646
 1223W        W 1423   5.530   3.683   8.700 -0.2631 -0.1385  0.0564
 1224W        W 1424   5.146  10.277   9.199  0.0297  0.1366  0.2983
 1225W        W 1425   4.254  13.651   3.905  0.2086  0.2202 -0.0545
 1226W        W 1426   2.552   4.679  14.070  0.2207  0.1362 -0.2626
 1227W        W 1427   1.047  17.179  11.012  0.0446 -0.0946  0.1275
 1228W        W 1428   1.160  13.424   5.324  0.0752  0.0931 -0.1026
 1229W        W 1429  14.627  14.440  10.709  0.3976  0.1335 -0.2497
 1230W        W 1430   0.925   3.570  13.146 -0.1793  0.1734  0.2053
 1231W        W 1431   4.064  15.537   2.018 -0.0535  0.2863  0.1673
 1232W        W 1432  12.028  13.980  12.377 -0.1912 -0.0501  0.0730
 1233W        W 1433   0.849   5.585  14.858  0.2945 -0.0245  0.1927
 1234W        W 1434  15.103   7.766   4.342  0.0912  0.0234 -0.0458
 1235W        W 1435   6.490   0.388   8.011  0.0460 -0.0968  0.0509
 1236W        W 1436  11.442   3.894  12.794  0.3462  0.2252 -0.1698
 1237W        W 1437   1.594   5.523  13.890  0.0949 -0.0399 -0.0658
 1238W        W 1438  13.042  14.032   9.176 -0.1733 -0.0804 -0.1812
 1239W        W 1439   5.480   1.616   3.292 -0.0363  0.2197 -0.1925
 1240W        W 1440   3.230   1.885   9.606  0.1376  0.0987 -0.1582
 1241W        W 1441   0.968   3.727  11.365  0.2255 -0.0838 -0.0433
 1242W        W 1442  15.838   5.816  10.649  0.3654 -0.2086 -0.3541
 1243W        W 1443  10.154   2.292   0.148 -0.0663  0.1200  0.3057
 1244W        W 1444   4.749   5.427   4.568 -0.0692  0.3909 -0.1567
 1245W        W 1445   3.092  11.467  11.350  0.0787  0.0340  0.1964
 1246W        W 1446  17.645  16.930   3.497 -0.2841 -0.4386  0.1495
 1247W        W 1447   7.838   1.504   1.464 -0.0170  0.1781  0.0618
 1248W        W 1448  15.663   6.193  16.258  0.2461 -0.0034  0.2069
 1249W        W 1449  12.755  16.518   8.974 -0.1087 -0.0178  0.1157
 1250W        W 1450   0.501   1.015  11.791  0.1512 -0.0323  0.4179
 1251W        W 1451   0.083  17.587  10.668 -0.2096 -0.1349  0.1742
 1252W        W 1452  11.974   4.215  10.018  0.0157  0.0946  0.0276
 1253W        W 1453  16.740   2.716   2.802  0.3107  0.0167 -0.1192
 1254W        W 1454   9.853  13.259   2.511 -0.0132 -0.1137 -0.2051
 1255W        W 1455  16.889   6.948  15.104 -0.2590 -0.2872 -0.0061
 1256W        W 1456   1.225  17.420   3.278 -0.1562  0.2759 -0.1166
 1257W        W 1457   5.821   2.492  15.510 -0.0080  0.4080  0.1846
 1258W        W 1458   1.376  10.087  14.298 -0.1015  0.2873  0.0596
 1259W        W 1459   2.734   2.308   5.421 -0.0004  0.1783  0.0409
 1260W        W 1460   7.820   0.188   7.933  0.0889 -0.1515 -0.0742
 1261W        W 1461   1.501   5.778  11.574  0.2048  0.1769 -0.2777
 1262W        W 1462   6.913   8.873  17.280 -0.0156  0.0382 -0.0903
 1263W        W 1463  13.980   1.021   2.133  0.1914 -0.1482  0.1956
 1264W        W 1464  16.377   9.843   0.620  0.2874  0.2267 -0.1132
 1265W        W 1465  10.267  17.413  16.074 -0.0134  0.0380 -0.0561
 1266W        W 1466   3.305  14.944  16.953  0.3260  0.0901 -0.3664
 1267W        W 1467  14.160  17.749   8.706 -0.1106 -0.2168  0.1439
 1268W        W 1468   2.374   3.726  13.576  0.1080 -0.3796 -0.2189
 1269W        W 1469   2.068  13.831   1.258 -0.2397 -0.1235  0.1705
 1270W        W 1470  14.879   0.856   2.399 -0.0775 -0.0684  0.0937
 1271W        W 1471   5.899  17.225   9.937  0.0208 -0.0875  0.0113
 1272W        W 1472   5.476   4.938  10.080  0.0144  0.0529 -0.2711
 1273W        W 1473   1.680  13.734  10.979  0.1181  0.2343 -0.0494
 1274W        W 1474  14.370   2.806  11.069 -0.0175 -0.0454  0.4971
 1275W        W 1475   7.325   3.646  13.713  0.0154  0.2233 -0.2382
 1276W        W 1476   7.289   0.762  12.824 -0.1040 -0.2384 -0.0954
 1277W        W 1477  16.790   5.332  11.105 -0.2571  0.2210 -0.0688
 1278W        W 1478   5.250   2.485  11.261  0.2479 -0.2105 -0.1066
 1279W        W 1479   6.354  17.142   0.903  0.2828  0.0210 -0.0415
 1280W        W 1480   2.079  16.005  16.957 -0.2269  0.2408 -0.0854
 1281W        W 1481   3.301   3.737  16.439 -0.0461  0.3272 -0.2261
 1282W        W 1482   6.865   2.952  13.941  0.2575 -0.2445 -0.2782
 1283W        W 1483  10.827  16.218   3.301  0.1885 -0.3247  0.1265
 1284W        W 1484  11.827  16.576   8.586 -0.1390  0.1850 -0.0728
 1285W        W 1485  15.911   2.822  14.169 -0.1420 -0.1422  0.2216
 1286W        W 1486  14.266  13.225  14.972 -0.2510  0.1165  0.1312
 1287W        W 1487   9.656   4.737  18.153 -0.0440 -0.0215  0.0372
 1288W        W 1488  17.804  16.799  13.798 -0.0835 -0.0461  0.0589
 1289W        W 1489   4.938   8.735  13.508  0.2868 -0.1048  0.1992
 1290W        W 1490  10.811   1.843   1.771  0.0852 -0.1351 -0.2414
 1291W        W 1491   3.735   7.337   0.042  0.1085  0.2973 -0.2387
 1292W        W 1492   6.590  10.111  15.165 -0.0958 -0.0500 -0.1501
 1293W        W 1493  17.651   1.611   9.711  0.0355  0.0429  0.0602
 1294W        W 1494   6.086   4.724   7.425 -0.0732  0.0928 -0.1170
 1295W        W 1495   4.448  17.169  15.331 -0.0036 -0.1379 -0.1784
 1296W        W 1496  18.040   6.908   9.662 -0.0403 -0.3106 -0.0945
 1297W        W 1497   4.363  17.239  18.094 -0.0212 -0.1479  0.0087
 1298W        W 1498   7.214   2.913  17.274  0.1496  0.0866 -0.1365
 1299W        W 1499  14.609   2.705  15.430  0.3533 -0.2347  0.3608
 1300W        W 1500  10.252   1.387   9.139 -0.1496  0.1151  0.2981
 1301W        W 1501  12.012  18.055   0.382 -0.1294 -0.2008 -0.4019
 1302W        W 1502  14.504   0.194  12.931 -0.0612  0.2032 -0.0216
 1303W        W 1503   5.108  16.189  17.391 -0.2176 -0.1366  0.0706
 1304W        W 1504  17.420   4.498   8.618 -0.2208  0.2402 -0.1017
 1305W        W 1505   5.185  16.813   6.359  0.0100  0.1214  0.0437
 1306W        W 1506   0.561  16.841   7.004 -0.0252 -0.0073  0.0482
 1307W        W 1507  14.510   4.838   8.972 -0.0082 -0.3574  0.0903
 1308W        W 1508   0.970   6.232  14.850  0.0647 -0.0941 -0.0331
 1309W        W 1509  15.103   9.956   9.183  0.1403  0.1363  0.5141
 1310W        W 1510   2.679   1.406   9.170 -0.1673  0.0276  0.0578
 1311W        W 1511  17.935   8.241  16.800  0.0697  0.4020 -0.2341
 1312W        W 1512  16.317  12.192   7.493  0.0276 -0.0091  0.0038
 1313W        W 1513   1.692  14.639  17.238 -0.0581  0.0044 -0.1350
 1314W        W 1514   5.388   5.224  15.508  0.0907  0.0138  0.1360
 1315W        W 1515   1.064   9.413  14.832 -0.3403 -0.0731 -0.3261
 1316W        W 1516   2.919   5.152  10.467  0.1342 -0.1458 -0.2808
 1317W        W 1517   1.269  12.816  13.089  0.1941  0.0962  0.0647
 1318W        W 1518   4.563   2.850  15.771  0.1820  0.3351 -0.0900
 1319W        W 1519   4.237   3.372   9.203 -0.0908 -0.3645  0.0638
 1320W        W 1520   1.899   4.471  17.024  0.3377 -0.0234 -0.1769
 1321W        W 1521   7.278   1.904   9.613  0.1058 -0.0481 -0.1271
 1322W        W 1522   6.625   7.810  13.707 -0.1049 -0.0998  0.1880
 1323W        W 1523   0.093   7.722  17.047 -0.1728 -0.1919  0.1379
 1324W        W 1524   7.724   2.391  13.441  0.0368 -0.5820  0.0748
 1325W        W 1525   2.885   2.411  15.749  0.1911 -0.0767 -0.2401
 1326W        W 1526   9.346   1.839   0.491 -0.0938 -0.0938 -0.0369
 1327W        W 1527  13.802  15.863  12.471 -0.1824 -0.0627 -0.5122
 1328W        W 1528   9.741   4.093  15.624  0.0250  0.1846  0.1379
 1329W        W 1529   1.426   4.514  13.689  0.1324 -0.1345 -0.2053
 1330W        W 1530   5.112   2.993  14.867  0.0277 -0.0248 -0.1001
 1331W        W 1531   0.263  16.845  13.281  0.1272 -0.2256 -0.2378
 1332W        W 1532  16.425   0.923   7.711  0.0979  0.0544  0.0498
 1333W        W 1533   1.192  14.366  12.214  0.0572 -0.0440 -0.1098
 1334W        W 1534   5.281   6.650  14.762  0.1508  0.1446 -0.0462
 1335W        W 1535   1.324  12.311  14.139  0.0367 -0.2937 -0.0628
 1336W        W 1536   1.210   5.634  10.187  0.0755 -0.0722  0.1055
 1337W        W 1537  17.556   3.032   7.666 -0.3607 -0.2135  0.1602
 1338W        W 1538   1.022   7.670   9.899 -0.2847 -0.0557 -0.3185
 1339W        W 1539   4.964   0.701   8.356 -0.0677 -0.0978  0.3303
 1340W        W 1540   6.917   5.644   8.016 -0.1609 -0.3049  0.1447
 1341W        W 1541   5.856   3.235   3.375 -0.1202  0.1555 -0.0039
 1342W        W 1542  17.476   5.717   9.177 -0.0760 -0.0581 -0.1705
 1343W        W 1543  17.417  10.078  15.905  0.1033 -0.2569  0.1641
 1344W        W 1544  12.431   0.579   1.323 -0.2399 -0.0557 -0.0446
 1345W        W 1545   2.639  13.000  11.675  0.2536 -0.0087  0.2021
 1346W        W 1546   3.255   4.410  15.796 -0.2791  0.1370 -0.1412
 1347W        W 1547   8.386  11.819   1.387  0.1374 -0.0280  0.2816
 1348W        W 1548   4.289   1.902  15.513 -0.1110 -0.4708  0.0643
 1349W        W 1549   7.979   3.880   4.391  0.0272 -0.0653  0.0117
 1350W        W 1550   7.657   9.039   7.239  0.0019 -0.2182  0.0738
 1351W        W 1551   3.145  16.094   1.139  0.2132  0.0811  0.0254
 1352W        W 1552   7.453   4.716  11.269 -0.1027  0.1373 -0.0331
 1353W        W 1553   6.798   6.559   9.693 -0.2579 -0.2226 -0.0418
 1354W        W 1554   2.310   3.174  14.358  0.0983  0.0738 -0.1564
 1355W        W 1555   5.149   2.248   3.896 -0.3794  0.2126 -0.2038
 1356W        W 1556  16.077  12.825   1.323 -0.1094 -0.0221  0.0576
 1357W        W 1557  17.819  10.667  13.614  0.1422 -0.1211 -0.2321
 1358W        W 1558   2.730  10.048  11.873  0.2093 -0.2568  0.0678
 1359W        W 1559   1.120   4.874  15.693 -0.1635 -0.1324 -0.0583
 1360W        W 1560   2.617   7.619  10.595  0.1008 -0.3099 -0.1541
 1361W        W 1561   3.864   0.413  17.834  0.2962  0.0833  0.1247
 1362W        W 1562   1.900   3.169  18.191 -0.2746  0.2032 -0.0962
 1363W        W 1563  10.650   5.869  12.084 -0.1151 -0.0449  0.1729
 1364W        W 1564  15.769  15.998   9.606  0.2057 -0.4241  0.2398
 1365W        W 1565   3.826   5.423  10.658 -0.0085 -0.1355 -0.2025
 1366W        W 1566   6.227  16.742   9.826  0.0219  0.2174  0.0821
 1367W        W 1567   2.844  11.584  13.867 -0.1140 -0.2313 -0.4861
 1368W        W 1568   5.044  13.942  11.193 -0.0490  0.0728 -0.0993
 1369W        W 1569  15.794   0.059  13.983  0.1286  0.1849 -0.2720
 1370W        W 1570   6.214   3.414   5.514 -0.2153 -0.0121 -0.4129
 1371W        W 1571   6.359  15.924   7.073  0.1267  0.0482 -0.1296
 1372W        W 1572   3.901   5.143  16.344 -0.2270 -0.0813 -0.1180
 1373W        W 1573   3.613   6.333   8.050 -0.1089  0.1936 -0.0716
 1374W        W 1574   6.381  13.079  14.496  0.2096  0.1513  0.0086
 1375W        W 1575   4.984   1.868  11.746 -0.3863 -0.1581 -0.0914
 1376W        W 1576  11.062   4.535   9.393  0.3315  0.0720  0.1241
 1377W        W 1577   1.038   8.941   3.702  0.0523 -0.0599  0.0986
 1378W        W 1578   1.117   6.485  16.906  0.0632  0.2023  0.1699
 1379W        W 1579   1.751   2.141   9.665 -0.1558 -0.0294 -0.0494
 1380W        W 1580   6.557   0.449  14.368  0.0950  0.0372 -0.3784
 1381W        W 1581  12.254   5.491  14.956  0.4511  0.0883  0.2740
 1382W        W 1582   0.825   3.812  14.916 -0.0268 -0.3687 -0.2136
 1383W        W 1583   1.766  15.927   5.839 -0.2751 -0.3274 -0.5096
 1384W        W 1584  12.099   2.324  14.412  0.2744  0.1030  0.0395
 1385W        W 1585  14.654   3.873   8.915 -0.1653  0.1392  0.2003
 1386W        W 1586   0.068   2.595   3.542 -0.0651 -0.1049  0.0925
 1387W        W 1587   7.871   3.059  17.967  0.0304 -0.2295 -0.4744
 1388W        W 1588   0.259   1.930   6.540 -0.1003  0.3968 -0.1176
 1389W        W 1589  15.864  16.576  15.213 -0.0012  0.1109 -0.1337
 1390W        W 1590  13.800  17.399   6.480 -0.0493  0.1396 -0.4241
 1391W        W 1591   6.803  16.116  11.690  0.2351  0.1978  0.0662
 1392W        W 1592   0.770  13.857  12.300  0.0020 -0.2654  0.0505
 1393W        W 1593   9.248   4.739   8.406  0.2283  0.1111  0.1323
 1394W        W 1594   4.521   6.932   7.415  0.2645  0.3024 -0.1003
 1395W        W 1595  17.499  17.533  11.795 -0.0936  0.0609 -0.0902
 1396W        W 1596   3.486  13.328  13.032 -0.3280 -0.0743 -0.0766
 1397W        W 1597   4.792  14.602   3.157 -0.1971 -0.1813 -0.0310
 1398W        W 1598  11.743  18.162   1.110  0.1164 -0.0042  0.4572
 1399W        W 1599   0.849  17.749   7.921 -0.3143  0.1460  0.1311
 1400W        W 1600   3.549  18.202  11.852  0.0540 -0.0910  0.0649
 1401W        W 1601   6.447  11.342  12.219  0.0378 -0.2319 -0.0350
 1402W        W 1602  11.688  16.949  13.253  0.1790  0.1746 -0.0154
 1403W        W 1603   2.400  16.315  14.452  0.1550 -0.2994 -0.2099
 1404W        W 1604  18.173  12.905  17.224 -0.1656 -0.0102  0.0593
 1405W        W 1605   3.853  11.438  10.632 -0.0669 -0.0461 -0.0995
 1406W        W 1606  15.782   0.490  13.648 -0.0132 -0.0522 -0.3069
 1407W        W 1607   9.872  15.427  12.166  0.0539 -0.4220  0.0861
 1408W        W 1608  16.438   0.392   1.538  0.5068  0.1644 -0.0701
 1409W        W 1609   5.018  17.560  16.090  0.2015 -0.1908 -0.1985
 1410W        W 1610  17.527   6.281   3.513  0.1614 -0.2042  0.1605
 1411W        W 1611   3.642   6.351  11.118  0.0145  0.0188  0.1978
 1412W        W 1612   0.701  17.115   8.815  0.1863 -0.3763 -0.1237
 1413W        W 1613   5.516   4.578   0.442 -0.0290  0.4259  0.0532
 1414W        W 1614  17.432   6.125  16.448  0.1702 -0.3592 -0.0836
 1415W        W 1615   1.970   6.100  15.391 -0.0395 -0.0530 -0.0837
 1416W        W 1616   0.500   2.026   9.316  0.0083 -0.0999 -0.0808
 1417W        W 1617  17.849   1.592  16.171 -0.0021  0.2567  0.1457
 1418W        W 1618   1.971  17.360  16.651  0.0853 -0.1404 -0.0280
 1419W        W 1619   0.161  15.642   3.146 -0.1360 -0.4385  0.0512
 1420W        W 1620   4.008   8.963  14.682 -0.1451 -0.1856  0.1137
 1421W        W 1621   4.850   5.026  13.619 -0.2131  0.1357  0.2965
 1422W        W 1622   8.621  15.738  14.753 -0.0087 -0.2876  0.3098
 1423W        W 1623   5.055  17.663  12.550 -0.1002  0.3211 -0.2046
 1424W        W 1624  17.997  15.703   0.099  0.1447 -0.1898 -0.0198
 1425W        W 1625   3.172  16.167  11.114 -0.0352  0.1770 -0.1238
 1426W        W 1626  10.311  15.786  16.137 -0.0974  0.1167 -0.2225
 1427W        W 1627  11.985  16.639  16.457 -0.0952 -0.0724  0.0340
 1428W        W 1628  17.156   6.070   5.375 -0.1843  0.0625  0.2686
 1429W        W 1629   1.025  16.257   3.665  0.0107  0.2009 -0.0394
 1430W        W 1630   1.578   3.270  12.576 -0.0588  0.2111  0.0728
 1431W        W 1631   4.986  16.275  11.322 -0.1572 -0.3092 -0.0636
 1432W        W 1632   2.461   3.315  16.485 -0.0934 -0.1362 -0.2417
 1433W        W 1633  17.075  13.901   0.005 -0.4615  0.1756 -0.2688
 1434W        W 1634   0.653   6.195  11.534 -0.0513 -0.2519 -0.1281
 1435W        W 1635   5.028   5.685  14.738 -0.0115  0.3232  0.0668
 1436W        W 1636  12.073   3.856   8.924 -0.1528  0.1756  0.1237
 1437W        W 1637  11.872   5.793   5.009  0.0753  0.1155  0.0093
 1438W        W 1638   4.425  17.274   1.435 -0.0888  0.1765  0.1911
 1439W        W 1639  16.771   6.340  10.484 -0.2729 -0.0355 -0.0033
 1440W        W 1640   3.633   0.884  15.246  0.0886 -0.1383 -0.2262
 1441W        W 1641   1.427  11.431   8.257  0.2243  0.1651 -0.2173
 1442W        W 1642  16.949   1.750   0.674  0.1245 -0.3017  0.1131
 1443W        W 1643   1.451   6.795  14.598  0.2193  0.3123  0.1156
 1444W        W 1644   1.480  16.142  15.037 -0.2125 -0.0915 -0.1075
 1445W        W 1645  10.570  17.874  10.647 -0.1551  0.1905  0.2593
 1446W        W 1646   2.954   1.752  10.132  0.2338 -0.1202  0.0721
 1447W        W 1647   3.016  13.946  16.176 -0.1343 -0.2307  0.0932
 1448W        W 1648   3.315  17.469  17.361  0.0179  0.1063  0.0608
 1449W        W 1649   4.621   0.521   5.152  0.1224  0.1413  0.1012
 1450W        W 1650   9.650  13.809   0.155 -0.0371  0.0905 -0.0768
 1451W        W 1651   1.768  11.361  17.952  0.1132 -0.0541  0.3517
 1452W        W 1652   2.048   2.649   9.713 -0.1921 -0.1177  0.4695
 1453W        W 1653   4.208  16.326  14.110  0.1396 -0.1999  0.2494
 1454W        W 1654   2.210   0.723   1.011  0.1832  0.0695 -0.2022
 1455W        W 1655   4.824   2.717  13.063 -0.4664  0.1673  0.0566
 1456W        W 1656  14.735  13.709  12.941 -0.0051 -0.1230  0.0201
 1457W        W 1657   5.213  16.783  10.024 -0.0434 -0.0065  0.1644
 1458W        W 1658   2.261  17.425  13.692  0.0133  0.2735  0.1914
 1459W        W 1659   6.749  17.468   2.282  0.2194 -0.3004 -0.0613
 1460W        W 1660   9.191   5.453   7.906 -0.2537 -0.2579 -0.1190
 1461W        W 1661   9.914   0.438  14.930  0.1403 -0.0439 -0.0713
 1462W        W 1662  16.364   5.487  16.318 -0.0503 -0.1802  0.0971
 1463W        W 1663   8.558   3.727   1.960 -0.1171 -0.1092 -0.1674
 1464W        W 1664   6.486   3.762   0.825 -0.0885  0.1312  0.0162
 1465W        W 1665   2.545  17.870   5.245  0.0855 -0.2765 -0.2539
 1466W        W 1666  13.973   4.423  16.567 -0.1841  0.0020 -0.2229
 1467W        W 1667   6.789   4.279   7.281 -0.1162 -0.0055  0.0770
 1468W        W 1668   7.130   0.990  13.280  0.0815 -0.5634 -0.0911
 1469W        W 1669   4.447   4.704   7.871 -0.2759  0.1550  0.0374
 1470W        W 1670   6.926  17.140   6.643 -0.2355  0.0984 -0.0038
 1471W        W 1671   1.093   2.290  10.554  0.2281 -0.1844 -0.1294
 1472W        W 1672   1.062   1.964   0.571 -0.0077 -0.0389  0.1321
 1473W        W 1673  17.647  17.081  11.948 -0.3516  0.0222  0.1021
 1474W        W 1674  18.086   5.062   8.279  0.1294  0.2940 -0.0647
 1475W        W 1675   8.746  16.793  10.848 -0.0930  0.0509 -0.2547
 1476W        W 1676   1.412  12.411  15.740  0.0430  0.1774  0.0467
 1477W        W 1677   3.586  15.906  15.107  0.0575  0.0556  0.2400
 1478W        W 1678   2.370   2.989   1.063 -0.0924 -0.6135  0.3501
 1479W        W 1679   1.977   2.863  13.454 -0.1666 -0.1814 -0.0899
 1480W        W 1680  15.148   0.425  10.525 -0.1886 -0.1693 -0.0190
 1481W        W 1681   3.764   0.316  15.904 -0.0363 -0.1445 -0.0353
 1482W        W 1682   2.959  11.178  17.687 -0.0948  0.0472  0.2457
 1483W        W 1683   1.332   9.174  13.830  0.0155  0.0169 -0.5188
 1484W        W 1684  11.006   0.850  12.883 -0.1800  0.2375 -0.1069
 1485W        W 1685   9.557   0.093  14.580 -0.0544 -0.1742 -0.0069
 1486W        W 1686   1.344   5.113   5.644  0.2509 -0.1576 -0.1947
 1487W        W 1687   6.027   2.657   0.529  0.2042  0.0009  0.1163
 1488W        W 1688   6.231   0.029  14.253 -0.2740 -0.2504  0.1588
 1489W        W 1689   5.730   1.389  18.105 -0.0936 -0.0927 -0.2164
 1490W        W 1690  14.939  11.336   4.909 -0.0513  0.3534 -0.0541
 1491W        W 1691   1.391   1.722  16.021  0.0885 -0.3222  0.0382
 1492W        W 1692   9.042   0.690   6.311 -0.3503 -0.2150 -0.0683
 1493W        W 1693  13.972  14.272  13.585 -0.0278  0.0264 -0.1162
 1494W        W 1694   7.069   2.159   3.102 -0.0491 -0.1301  0.4052
 1495W        W 1695   3.334   1.735  12.127  0.1501  0.1825  0.0648
 1496W        W 1696   2.029   1.237  11.635  0.1583  0.0832 -0.1213
 1497W        W 1697  15.565  14.764   3.226 -0.0953 -0.0905 -0.0551
 1498W        W 1698   3.405   9.726   6.152 -0.0347  0.1539  0.2896
 1499W        W 1699   9.684   3.928   8.558  0.2590  0.1366  0.3225
 1500W        W 1700  16.357   6.007  12.771  0.0726  0.1976 -0.1540
 1501W        W 1701   1.936   7.170  17.030  0.0902 -0.2125 -0.1457
 1502W        W 1702   1.674  11.234   9.952  0.0646 -0.0977  0.3367
 1503W        W 1703   1.795  13.468  16.875  0.0986  0.2990 -0.0968
 1504W        W 1704   0.319   0.641  12.271  0.2789 -0.1491  0.3067
 1505W        W 1705  15.437  17.923  15.933 -0.0521  0.0713  0.3036
 1506W        W 1706  10.963   3.254   8.894 -0.0790 -0.0254 -0.4111
 1507W        W 1707  15.505   2.611  17.991  0.1858 -0.2000 -0.1841
 1508W        W 1708   7.920   0.898   4.458 -0.0796 -0.0887  0.0254
 1509W        W 1709   6.330  11.161  11.394 -0.0766 -0.0605  0.1801
 1510W        W 1710  17.992  17.750   1.850 -0.0517  0.0428  0.1693
 1511W        W 1711   7.721  13.478   0.669 -0.1283 -0.3506 -0.0208
 1512W        W 1712   6.337   1.936  12.951 -0.2089 -0.0559  0.2545
 1513W        W 1713  13.468   8.677   6.282 -0.2474 -0.0321 -0.1662
 1514W        W 1714  10.436   4.162  11.483 -0.1259  0.0280 -0.2376
 1515W        W 1715  13.206   0.440  13.236  0.0956  0.0129  0.1380
 1516W        W 1716   4.110  16.830  16.609 -0.0650  0.0278  0.2831
 1517W        W 1717  15.222   3.305   9.321  0.1962 -0.1350  0.1030
 1518W        W 1718   6.706   4.321   0.111  0.1819  0.2532 -0.1575
 1519W        W 1719   8.971  17.023   9.217  0.2558  0.2271 -0.1508
 1520W        W 1720   4.456  16.745  13.197 -0.3129  0.1944  0.0660
 1521W        W 1721  14.668  13.658  11.214 -0.1188 -0.0776  0.1425
 1522W        W 1722  18.050  14.347  11.724  0.1544 -0.1565  0.3512
 1523W        W 1723   1.439   6.290  15.275 -0.1407 -0.1160 -0.0220
 1524W        W 1724  17.267   8.112   9.424  0.1668 -0.0170  0.3406
 1525W        W 1725   3.986  12.039  15.241 -0.0624  0.2821  0.1520
 1526W        W 1726   6.680  12.597   9.413  0.1359  0.3326  0.2928
 1527W        W 1727   4.249  17.825  17.578 -0.0834  0.1515  0.2966
 1528W        W 1728  13.812  12.555   9.238 -0.0739 -0.0153  0.0125
 1529W        W 1729  17.396   1.866  14.712 -0.1010  0.0891 -0.3238
 1530W        W 1730  14.363   0.303  17.073  0.0196 -0.0965 -0.1414
 1531W        W 1731  18.123  17.575  13.523  0.0614  0.0931 -0.1382
 1532W        W 1732  16.629   0.773  16.114  0.3975  0.3090  0.3486
 1533W        W 1733  16.537  17.720  11.154  0.1405 -0.2017 -0.0323
 1534W        W 1734  15.742  17.491   6.870 -0.2957  0.1631 -0.1209
 1535W        W 1735   5.599  17.671  12.470 -0.1746 -0.2113 -0.1885
 1536W        W 1736   0.478   0.442  17.223 -0.1661  0.0376  0.0989
 1537W        W 1737   4.067   5.636  14.621  0.1691  0.1846 -0.3833
 1538W        W 1738  17.607  10.135  13.399 -0.0986 -0.1465 -0.0703
 1539W        W 1739  16.335   0.244   8.585 -0.1345 -0.0961  0.0179
 1540W        W 1740  11.683   1.284  12.527 -0.0865 -0.3792 -0.0396
 1541W        W 1741   2.094   8.438   1.450 -0.0492  0.0722  0.1085
 1542W        W 1742   0.896   2.226  14.377 -0.1286  0.0420 -0.2370
 1543W        W 1743   9.305   3.569  16.351  0.0383 -0.0843 -0.0425
 1544W        W 1744   6.003  17.436   3.677 -0.2384  0.0160  0.1700
 1545W        W 1745   1.999  12.009   9.630 -0.1850 -0.1495 -0.1168
 1546W        W 1746   5.779   2.671   2.325 -0.2608  0.1605  0.2262
 1547W        W 1747   4.225  17.188  15.767 -0.1617  0.2461  0.4602
 1548W        W 1748  15.956   5.344  14.611 -0.0297 -0.0314  0.1778
 1549W        W 1749   4.271   8.698   6.112 -0.0385  0.0503  0.1494
 1550W        W 1750  17.026   0.780  13.419  0.0216  0.0714 -0.0953
 1551W        W 1751  12.558  14.610  10.281  0.1599 -0.0045 -0.0262
 1552W        W 1752   0.606   3.502  13.612  0.2880 -0.3200 -0.0216
 1553W        W 1753  15.575   9.855  14.232 -0.1131  0.0577  0.0886
 1554W        W 1754   3.466   4.523  17.048 -0.0175 -0.1556  0.1741
 1555W        W 1755   3.556  18.159  15.100  0.1769  0.3203  0.2578
 1556W        W 1756  14.064   2.842  17.803  0.1128  0.2384 -0.2696
 1557W        W 1757  13.437  17.108  10.121 -0.2298 -0.0123  0.1812
 1558W        W 1758  17.980   2.853  14.958  0.1769  0.2841  0.0896
 1559W        W 1759  13.615   1.729   9.498 -0.0208 -0.3440 -0.0279
 1560W        W 1760   1.824  12.491  14.043 -0.1180  0.3279  0.2743
 1561W        W 1761   5.742   5.774  12.276 -0.4072 -0.1787  0.3963
 1562W        W 1762   4.238   2.061   3.706  0.5217  0.0619  0.0782
 1563W        W 1763   5.482   2.038   5.700 -0.2031 -0.3443 -0.1748
 1564W        W 1764  15.969   6.750   9.478 -0.2503  0.1616  0.0493
 1565W        W 1765   3.780   4.682  18.107 -0.3816 -0.0150 -0.0359
 1566W        W 1766   6.108  16.327  14.708 -0.2362 -0.2087 -0.1382
 1567W        W 1767   9.487  17.799  13.885 -0.3501  0.1726  0.3580
 1568W        W 1768   9.890   4.638  15.203 -0.1762 -0.3799 -0.2453
 1569W        W 1769  12.196   0.739  15.700 -0.1989  0.0287 -0.1205
 1570W        W 1770   0.031  17.644   6.761  0.1894  0.0644  0.0249
 1571W        W 1771   1.020   8.568  11.628 -0.0191  0.2099 -0.0464
 1572W        W 1772   0.229   1.249  10.283  0.2667 -0.0479 -0.1574
 1573W        W 1773  17.169  11.372   1.827 -0.0755 -0.1861 -0.0418
 1574W        W 1774   0.646   4.041  13.452 -0.0043  0.0840  0.1611
 1575W        W 1775   2.434   0.906  15.861 -0.1582 -0.1117 -0.1288
 1576W        W 1776  17.967   3.535  16.101 -0.2186  0.0506  0.2331
 1577W        W 1777  13.782   3.949  15.915  0.1551 -0.1054  0.0440
 1578W        W 1778  17.948   0.543   9.104 -0.0510 -0.2146 -0.0168
 1579W        W 1779   0.061   0.943  15.651  0.0140 -0.2016 -0.3246
 1580W        W 1780  16.537  14.997   8.379  0.3453 -0.0336 -0.2579
 1581W        W 1781   1.924   2.284  17.848 -0.1366  0.0128 -0.1301
 1582W        W 1782   5.483   0.783   8.032 -0.1293 -0.3135  0.0277
 1583W        W 1783  11.416   5.567   5.201 -0.1023  0.1178 -0.0325
 1584W        W 1784   6.345  15.356   9.156  0.1564  0.1091  0.0102
 1585W        W 1785   8.959  10.719  16.697  0.2004 -0.0153  0.3870
 1586W        W 1786   2.768   5.762  16.004  0.2976  0.0521 -0.3739
 1587W        W 1787  16.646   4.766  13.900 -0.2613  0.0826 -0.1507
 1588W        W 1788  12.622  13.190  12.956  0.2436  0.0707  0.3229
 1589W        W 1789  14.770   0.807   0.562  0.1545  0.1799 -0.0081
 1590W        W 1790   0.032  17.048  16.973 -0.1147  0.0589 -0.0041
 1591W        W 1791   0.217  13.079   0.003 -0.2666 -0.0985  0.2261
 1592W        W 1792  13.281  15.040  17.326  0.1264 -0.1278 -0.1100
 1593W        W 1793   8.977   3.735  15.528  0.0677  0.2301 -0.3928
 1594W        W 1794   3.950   7.607   7.890 -0.0059 -0.0162 -0.0708
 1595W        W 1795   0.659   0.103   7.668 -0.0108  0.0106 -0.1528
 1596W        W 1796   0.216   1.266   1.350  0.1962  0.0927 -0.3857
 1597W        W 1797   6.178   0.482   2.076  0.0101 -0.1290 -0.2750
 1598W        W 1798   3.907  18.114  17.289 -0.0130 -0.2270 -0.0119
 1599W        W 1799  16.391   1.198   2.587 -0.0366 -0.0834 -0.1179
 1600W        W 1800  13.761   0.680   2.448  0.2189  0.0662 -0.1000
 1601W        W 1801  14.709   9.030   4.051 -0.0466 -0.2727  0.0112
 1602W        W 1802   7.681  16.015  16.221 -0.0546  0.0556 -0.1136
 1603W        W 1803   0.824  10.410  12.186  0.0361  0.0360 -0.0687
 1604W        W 1804  10.884   3.863  13.164  0.2520  0.0618 -0.0735
 1605W        W 1805   1.583   2.918   8.901  0.1981 -0.2270 -0.2907
 1606W        W 1806   0.914   8.523   2.787  0.1100  0.1847 -0.2075
 1607W        W 1807   2.818  16.592  10.884 -0.3261 -0.0898  0.0988
 1608W        W 1808  13.633   8.001  16.326  0.2093 -0.2741 -0.1794
 1609W        W 1809  15.703   4.989  14.942 -0.2957  0.0297 -0.1145
 1610W        W 1810  14.078   1.195   3.435  0.1032  0.1823  0.3772
 1611W        W 1811   2.607   2.261   1.470  0.3175 -0.1851  0.1722
 1612W        W 1812  15.248  11.292   1.393  0.0404 -0.0699 -0.0069
 1613W        W 1813   2.968  14.502  12.460  0.0060 -0.0963 -0.1387
 1614W        W 1814   2.109  17.636  13.287 -0.1572 -0.1866  0.1610
 1615W        W 1815   1.309   6.758  13.161 -0.1322 -0.1351 -0.0239
 1616W        W 1816   2.174   1.600  12.662 -0.1394 -0.0877  0.0022
 1617W        W 1817  13.987   6.087  10.648 -0.0486  0.1103 -0.1151
 1618W        W 1818   5.731  15.974  12.982 -0.1387 -0.1513 -0.1333
 1619W        W 1819   0.852   8.118  14.244  0.0115  0.3457 -0.0105
 1620W        W 1820   2.837   4.003  12.131 -0.0173  0.4572 -0.0982
 1621W        W 1821   2.308   0.844  11.442  0.1747 -0.0931  0.2989
 1622W        W 1822   1.786   1.705  11.903 -0.1402  0.3453 -0.2716
 1623W        W 1823   6.799   1.990  14.133 -0.1311 -0.0202 -0.1355
 1624W        W 1824   8.133  18.124   9.180 -0.0114 -0.0330  0.0441
 1625W        W 1825  12.871   0.248  10.471  0.0562  0.3238  0.0051
 1626W        W 1826  16.684   2.128  14.172  0.1064  0.0964  0.1526
 1627W        W 1827   6.682   3.207  13.205 -0.1168 -0.2130  0.0909
 1628W        W 1828   2.480  17.208   0.765  0.2213  0.0757 -0.3329
 1629W        W 1829   5.416   3.758  15.370 -0.3084  0.0798 -0.0108
 1630W        W 1830  15.530   3.541  12.837 -0.0175  0.0680  0.2201
 1631W        W 1831   0.580   2.814  10.972  0.0934  0.2286 -0.0883
 1632W        W 1832   4.516   1.734   9.223 -0.1235 -0.0464  0.4351
 1633W        W 1833   2.474   1.572  12.226  0.1174  0.0576  0.3365
 1634W        W 1834  14.701  16.799   1.902  0.1436 -0.1910 -0.0671
 1635W        W 1835   6.299   6.430   0.084 -0.0592 -0.3059 -0.2453
 1636W        W 1836   5.900   3.846  11.685 -0.5120  0.4107  0.0834
 1637W        W 1837  10.189   5.215  14.676  0.1905  0.2722  0.2571
 1638W        W 1838   4.782  16.068  16.920 -0.2219  0.0351 -0.1526
 1639W        W 1839  16.309   6.209   5.020  0.3765 -0.0431 -0.0620
 1640W        W 1840  10.818   7.520   6.675  0.0342  0.0198 -0.1168
 1641W        W 1841  17.508   0.413   9.394  0.1936  0.1932 -0.0482
 1642W        W 1842   0.848  16.666  16.869  0.2257 -0.1247 -0.2178
 1643W        W 1843   3.549   6.860   0.383 -0.0855  0.0377 -0.1564
 1644W        W 1844   3.645   8.211   5.993  0.2896  0.1135  0.3874
 1645W        W 1845   0.825   8.895  10.405  0.2114 -0.3220 -0.1864
 1646W        W 1846  15.592   0.179  15.534 -0.0288 -0.0238  0.0939
 1647W        W 1847   2.490   5.353  16.802 -0.1380 -0.1647 -0.0999
 1648W        W 1848   5.578   3.012  16.166  0.1906  0.0834 -0.0640
 1649W        W 1849   0.157   0.470  13.874 -0.4404  0.0656 -0.0123
 1650W        W 1850  16.141   4.176   5.230 -0.2198  0.1408  0.1097
 1651W        W 1851   3.379   6.971  10.858  0.2439 -0.1478 -0.1840
 1652W        W 1852  12.512   1.196  12.216  0.0096  0.5115  0.1302
 1653W        W 1853   9.303   6.785   5.339  0.3562 -0.0664 -0.0132
 1654W        W 1854   4.899  14.569   0.532  0.3089  0.1045 -0.0306
 1655W        W 1855  17.838  10.198  13.824  0.1748  0.1546 -0.1593
 1656W        W 1856  14.642  11.624   5.176  0.1193  0.1398  0.1268
 1657W        W 1857   4.931   2.379  11.683 -0.1323 -0.3600 -0.1494
 1658W        W 1858  12.094   9.777   0.603  0.0355 -0.0506  0.2809
 1659W        W 1859  15.768   0.583  14.137 -0.0831  0.2189 -0.1453
 1660W        W 1860   3.879   3.277   4.376 -0.1298 -0.2177  0.1761
 1661W        W 1861   3.694   9.276  13.816  0.1468 -0.2636 -0.1936
 1662W        W 1862   5.382   0.512  18.072  0.1911 -0.0647  0.2360
 1663W        W 1863   5.506   2.644   6.069  0.0507  0.0075 -0.0184
 1664W        W 1864   4.254  11.755   0.461 -0.0730 -0.0907 -0.0589
 1665W        W 1865  16.324   8.686  15.958 -0.0164 -0.1031 -0.0712
 1666W        W 1866  16.507  16.711   2.649  0.0999  0.0517  0.1753
 1667W        W 1867  15.583   1.975  17.455 -0.0047  0.4334 -0.0211
 1668W        W 1868   1.728   1.027   3.338 -0.2793 -0.0571 -0.0834
 1669W        W 1869   3.011   3.765  13.865  0.0651  0.0145 -0.1376
 1670W        W 1870   5.022   6.417  17.434 -0.3107 -0.1512 -0.0088
 1671W        W 1871   6.713   9.078   7.017  0.0265  0.0083  0.2228
 1672W        W 1872   5.016   9.882   6.931 -0.1464  0.0056  0.1292
 1673W        W 1873   5.205   0.112   3.634  0.2473 -0.1270  0.1294
 1674W        W 1874  10.375  17.988  12.498  0.0475  0.0225  0.2421
 1675W        W 1875   0.715   8.186   5.492  0.3275 -0.0481  0.1953
 1676W        W 1876  12.849  16.837   2.982  0.2838 -0.1396  0.2732
 1677W        W 1877   3.316   4.591  14.207  0.2741  0.0708 -0.0459
 1678W        W 1878   3.541   6.381   0.518 -0.1802  0.0197  0.1864
 1679W        W 1879  16.193   0.576  17.248  0.2205  0.1334 -0.0066
 1680W        W 1880   2.450   1.817   6.936 -0.2114 -0.0936  0.2630
 1681W        W 1881   2.825  16.026   3.525 -0.0451  0.3659  0.1465
 1682W        W 1882  15.607   4.568   1.670  0.0407 -0.3067 -0.3794
 1683W        W 1883   3.974  15.479  12.215 -0.0611  0.0286 -0.2485
 1684W        W 1884   1.305   1.947   1.417 -0.0498  0.4700 -0.0716
 1685W        W 1885   8.343   2.065  17.612  0.1415  0.0845 -0.1614
 1686W        W 1886   2.286  16.907  13.721  0.2989 -0.2572 -0.1339
 1687W        W 1887   0.432  17.344  16.066 -0.0172  0.0519 -0.1746
 1688W        W 1888   9.065   4.026  17.675 -0.2873  0.0152  0.1105
 1689W        W 1889   8.409   9.102   5.281  0.1212  0.0187  0.4157
 1690W        W 1890  13.186  12.044   2.299 -0.1035 -0.0329  0.0786
 1691W        W 1891  16.551   0.696   5.605  0.1105  0.0413 -0.4276
 1692W        W 1892   0.666  11.506  17.217 -0.2205  0.1811  0.1401
 1693W        W 1893   1.822   2.976   5.583  0.0956 -0.3334  0.1469
 1694W        W 1894   4.331   8.497   0.588  0.1158 -0.3013 -0.1083
 1695W        W 1895  14.354   8.076  10.757  0.1299  0.3379  0.0551
 1696W        W 1896   9.342  16.523   9.664 -0.0504  0.0522  0.1002
 1697W        W 1897   8.996   2.102  10.816 -0.0472 -0.0959 -0.2010
 1698W        W 1898   5.732   8.629   4.588 -0.0489  0.2098  0.2071
 1699W        W 1899   3.623  13.516  10.248  0.1483  0.1012 -0.1083
 1700W        W 1900   6.872  16.415  12.966  0.2317  0.0287  0.0538
 1701W        W 1901  16.227  10.688  15.003  0.0307  0.2316  0.0238
 1702W        W 1902   0.461   1.332   0.051 -0.2451 -0.1010  0.1477
 1703W        W 1903   0.073   4.976  13.729  0.0399 -0.0490 -0.0516
 1704W        W 1904   3.485  17.004   0.651 -0.0382  0.1796  0.0661
 1705W        W 1905   5.445   4.997  15.951 -0.0978 -0.3101 -0.2513
 1706W        W 1906   2.825  14.078   1.111  0.0464  0.1969 -0.4667
 1707W        W 1907  10.053  17.766  15.379 -0.0087 -0.1017  0.0261
 1708W        W 1908  16.768   2.164  15.493  0.2459 -0.0706  0.1735
 1709W        W 1909   2.363   2.588   8.211 -0.0058 -0.0260  0.1932
 1710W        W 1910   5.114  18.142   9.086  0.3877  0.0456 -0.0691
 1711W        W 1911   6.121   1.304  15.870  0.0971 -0.1727 -0.0572
 1712W        W 1912   5.399  10.244  15.833  0.0026  0.1029  0.0002
 1713W        W 1913   8.116  17.176  11.401 -0.2172 -0.0038 -0.0175
 1714W        W 1914   4.776  11.626  13.358 -0.0023 -0.2022 -0.0503
 1715W        W 1915  11.678   5.757   6.955 -0.0234  0.2134  0.3525
 1716W        W 1916  13.898  17.014  16.373  0.0042  0.0330 -0.0848
 1717W        W 1917  14.554  15.682   6.809 -0.1145  0.0579 -0.0574
 1718W        W 1918   4.746   8.946  11.049 -0.0609 -0.0285  0.0265
 1719W        W 1919   1.879   1.793  17.585  0.1294  0.1833 -0.2322
 1720W        W 1920   5.498   1.601  13.796 -0.1112  0.1219  0.0670
 1721W        W 1921  14.647  16.851  14.186 -0.2914  0.0802  0.3197
 1722W        W 1922   2.467   3.686   4.480 -0.1632 -0.1002  0.2226
 1723W        W 1923  17.257  10.146  14.508 -0.0271  0.3289  0.2331
 1724W        W 1924  10.222   3.201  15.653 -0.1917 -0.0336 -0.4196
 1725W        W 1925  12.849  18.197   5.507 -0.0855 -0.0137 -0.1689
 1726W        W 1926  15.326   0.299  14.006 -0.3582 -0.1023 -0.0867
 1727W        W 1927   9.307  12.143  13.945  0.1850  0.0431 -0.2852
 1728W        W 1928  14.538   4.558   1.380 -0.0950  0.0226 -0.2068
 1729W        W 1929   5.561  11.369  15.118 -0.2254 -0.0098  0.1213
 1730W        W 1930   3.520   2.562   1.739 -0.1471  0.1521  0.0874
 1731W        W 1931   7.412   3.155   3.915  0.1263 -0.2292 -0.0648
 1732W        W 1932  14.661  17.972   0.232 -0.2186 -0.1373  0.2830
 1733W        W 1933  13.958  16.396  11.205 -0.1284 -0.0920  0.0173
 1734W        W 1934  12.894   0.212  14.551 -0.1174  0.0239  0.1195
 1735W        W 1935   0.118   5.967  14.178  0.1085 -0.2725  0.0495
 1736W        W 1936   4.755   4.101   6.910  0.0322 -0.2653  0.0279
 1737W        W 1937   2.831   5.736   2.878  0.2128 -0.2105 -0.3596
 1738W        W 1938   1.955   0.827  12.147  0.5082 -0.2920  0.2909
 1739W        W 1939   3.777  15.642   0.569  0.0000 -0.1598 -0.0187
 1740W        W 1940  16.491   6.299  14.452  0.0352 -0.2852 -0.2524
 1741W        W 1941   8.138   5.790  17.060 -0.0125 -0.1936  0.1278
 1742W        W 1942  12.425   4.740   2.307 -0.1704 -0.2458  0.1962
 1743W        W 1943  10.650   0.454   1.206  0.2686 -0.1906 -0.1917
 1744W        W 1944   0.610  17.699  16.968  0.2204 -0.1038  0.0417
 1745W        W 1945   4.679   2.561  16.217 -0.1423  0.0478 -0.2204
 1746W        W 1946  15.262   6.325  17.664  0.2441  0.1579 -0.0251
 1747W        W 1947   2.084  17.293  14.702 -0.1522 -0.0593  0.1242
 1748W        W 1948  11.433  17.669  14.165 -0.2304  0.3089 -0.1834
 1749W        W 1949   3.983   3.522  11.550  0.0607 -0.0703 -0.0582
 1750W        W 1950  10.355   0.984   3.059 -0.1358  0.0251  0.0978
 1751W        W 1951   8.705   2.952  12.285 -0.1427 -0.1996 -0.3378
 1752W        W 1952   7.823  13.025  13.791 -0.1936  0.0171  0.1236
 1753W        W 1953   2.172   6.328  16.668 -0.2094  0.3796 -0.0647
 1754W        W 1954   5.766  12.913  17.291  0.0298 -0.0491 -0.0243
 1755W        W 1955   2.817  17.815   8.703 -0.0960 -0.0173 -0.2636
 1756W        W 1956  10.331   0.827   1.295 -0.0044  0.1387 -0.0295
 1757W        W 1957   1.399  16.040   0.965  0.2873 -0.1294 -0.4399
 1758W        W 1958  10.688  11.837  10.630 -0.2130  0.0367  0.3023
 1759W        W 1959   6.023  17.797  11.291 -0.0617  0.0907  0.0157
 1760W        W 1960   1.686  18.068  13.210  0.1054  0.0387  0.0491
 1761W        W 1961   7.601   5.525   2.356  0.0120 -0.1626 -0.0515
 1762W        W 1962   0.036   5.512   1.724 -0.0702  0.0634 -0.0421
 1763W        W 1963   1.499   5.497  16.578 -0.0082  0.0996  0.0138
 1764W        W 1964   4.315   3.819  10.581  0.1119 -0.3957 -0.2855
 1765W        W 1965   2.241   3.109  17.774  0.0630  0.1056  0.1117
 1766W        W 1966   9.558   0.303   3.343  0.2780 -0.1088 -0.0913
 1767W        W 1967  11.382   3.578   1.888  0.0082 -0.3532 -0.0385
 1768W        W 1968  17.433  15.213  10.203  0.1043 -0.2200 -0.0326
 1769W        W 1969   2.342   3.570  15.462 -0.1535  0.3817 -0.1805
 1770W        W 1970  11.107  17.410   1.239 -0.1409 -0.0109 -0.1868
 1771W        W 1971   4.304   3.252  10.974  0.0251  0.1990 -0.1601
 1772W        W 1972  17.131   3.133   1.356  0.0806 -0.0644  0.5593
 1773W        W 1973   9.480  13.685  12.551 -0.0004  0.1505 -0.1003
 1774W        W 1974   7.970  14.375   9.328 -0.0759 -0.0643  0.0037
 1775W        W 1975   8.253  13.818  11.843  0.0377 -0.0981  0.1989
 1776W        W 1976   4.035  12.786   8.216  0.2225 -0.1630  0.0374
 1777W        W 1977   4.707   4.421  16.860  0.5087  0.2671  0.0037
 1778W        W 1978   5.662   0.065   7.876  0.0002  0.2685 -0.0304
 1779W        W 1979   5.428   3.507   2.845 -0.1810 -0.0702 -0.0537
 1780W        W 1980  16.387   5.596  14.488  0.0475 -0.0206 -0.2436
 1781W        W 1981   0.877  16.893   6.527 -0.3001  0.0442 -0.0347
 1782W        W 1982   9.062   3.146  13.187 -0.0930 -0.2143  0.1012
 1783W        W 1983   8.138   0.292  12.725  0.0520  0.0090 -0.2035
 1784W        W 1984  12.825  16.122  16.479  0.1488  0.0169 -0.0662
 1785W        W 1985   5.412   2.618  18.130 -0.0381  0.0440 -0.3431
 1786W        W 1986   4.417   7.037  16.545 -0.1746  0.2554  0.3217
 1787W        W 1987   3.988   5.080  17.631  0.1668 -0.4169 -0.1572
 1788W        W 1988  13.409  17.004  15.403  0.2323 -0.1786 -0.2660
 1789W        W 1989   5.228   0.354   4.608 -0.0977 -0.2244 -0.1348
 1790W        W 1990   0.659  17.978   8.386 -0.0535 -0.0436  0.0601
 1791W        W 1991  16.653   5.190  14.757 -0.3071  0.0961 -0.0224
 1792W        W 1992  14.276   2.045   1.122 -0.3921 -0.1620 -0.2255
 1793W        W 1993   0.658  17.717  14.595 -0.2489  0.2927  0.0233
 1794W        W 1994   7.138   4.722  16.383 -0.0412  0.2479 -0.0522
 1795W        W 1995  14.927   3.232  16.134 -0.0509 -0.1798  0.1175
 1796W        W 1996   3.037  17.921  11.156  0.1607  0.2714 -0.2190
 1797W        W 1997   6.682   2.212   0.077  0.1207 -0.0140 -0.1413
 1798W        W 1998   2.691  14.166  14.340  0.0275 -0.1963  0.2780
 1799W        W 1999  11.000  13.747   2.403 -0.0916 -0.0819 -0.2780
 1800W        W 2000   5.393   1.774   3.960 -0.1481  0.0692  0.0301
 1801W        W 2001  13.255   1.414   7.551  0.0437  0.1834  0.0004
 1802W        W 2002  17.789  16.525  15.370  0.0204  0.2059 -0.1047
 1803W        W 2003  16.226  17.854   0.087  0.3183  0.2014 -0.0860
 1804W        W 2004   4.967   5.721   1.526  0.0005 -0.1220 -0.1636
 1805W        W 2005   3.235  18.186  14.137  0.0541  0.1376 -0.3460
 1806W        W 2006  18.040  12.854   0.352  0.0645  0.0325  0.0142
 1807W        W 2007  14.560   4.194  13.279  0.0177  0.0900  0.2186
 1808W        W 2008  13.388   3.126  14.885  0.0104  0.2969  0.1643
 1809W        W 2009  15.139   2.888   3.708  0.2682 -0.2844 -0.0341
 1810W        W 2010  12.760   4.134   7.826 -0.0646 -0.0394  0.2751
 1811W        W 2011  14.795  17.066   6.086 -0.0368  0.0563 -0.3739
 1812W        W 2012   0.272   4.496   4.520 -0.0653  0.0270  0.0332
 1813W        W 2013   0.503   0.955  14.947  0.1828 -0.0797  0.1327
 1814W        W 2014  17.915   0.182  13.658 -0.0049 -0.0520  0.0261
 1815W        W 2015   8.196   8.096  17.568  0.1187 -0.0119 -0.0357
 1816W        W 2016   5.919   2.277   9.280 -0.0670 -0.1522  0.1030
 1817W        W 2017  17.647   0.983  15.040 -0.2131  0.2984  0.1382
 1818W        W 2018   0.244   3.072   9.532 -0.1303 -0.1305 -0.2380
 1819W        W 2019  14.943  16.610  10.325  0.1933 -0.2795 -0.1760
 1820W        W 2020  16.979   0.191  12.076 -0.1729  0.4838 -0.1577
 1821W        W 2021  11.350   3.013  10.904  0.3275 -0.1851  0.2615
 1822W        W 2022   0.590  17.303   7.954 -0.1999 -0.1369  0.2072
 1823W        W 2023  11.577   0.556   1.151  0.1412  0.0349 -0.1338
 1824W        W 2024   9.153  13.777  11.966 -0.4028 -0.2129  0.0063
 1825W        W 2025   4.574  14.445  16.880  0.0839 -0.1940  0.1767
 1826W        W 2026  13.167  13.870  14.043 -0.1413  0.1063 -0.0677
 1827W        W 2027   4.654   6.431  10.249 -0.0164 -0.1661  0.1185
 1828W        W 2028   0.872   4.052   2.471  0.3515 -0.1117  0.2121
 1829W        W 2029  15.273  10.637   5.735  0.0938 -0.3339  0.2632
 1830W        W 2030   2.099   8.286   6.061 -0.3539 -0.1364  0.0134
 1831W        W 2031   3.002   4.144   3.053  0.3151 -0.0749  0.3493
 1832W        W 2032   5.993  12.850  13.153  0.1000  0.2185  0.0159
 1833W        W 2033  15.421  17.500  17.161 -0.0317  0.2200  0.1197
 1834W        W 2034  15.440  11.144  12.892 -0.1283  0.2853 -0.0107
 1835W        W 2035   6.820   4.590   4.612  0.1661  0.1391 -0.1192
 1836W        W 2036   8.939   3.540   8.840 -0.0937 -0.2128 -0.0520
 1837W        W 2037  17.994  15.160  11.224 -0.2540  0.1651  0.0454
 1838W        W 2038   2.493   7.155  13.380  0.2498 -0.3129  0.2402
 1839W        W 2039  17.793   8.133  17.779 -0.2252 -0.2284  0.2811
 1840W        W 2040  16.960  13.307   3.397 -0.4060 -0.2265 -0.2026
 1841W        W 2041  16.490   1.359  11.977  0.3022  0.0170 -0.2651
 1842W        W 2042   4.143  12.830  10.048  0.1368 -0.0231 -0.0628
 1843W        W 2043   5.911   0.665  10.690  0.1307 -0.3191  0.0012
 1844W        W 2044  16.904   3.171  12.062  0.1818 -0.2850 -0.1639
 1845W        W 2045   4.846   7.800   4.783 -0.1133 -0.1841 -0.0553
 1846W        W 2046   2.451   8.181  14.412 -0.4856  0.2808 -0.0321
 1847W        W 2047   6.152  14.538  13.058 -0.3282 -0.0811 -0.1613
 1848W        W 2048   7.752  11.229   0.375  0.1587  0.0685  0.1618
 1849W        W 2049   1.724  17.075  14.429  0.1649  0.2354  0.0880
 1850W        W 2050  10.606   5.025   2.645 -0.1034 -0.2364 -0.0805
 1851W        W 2051  10.996  16.177   4.997 -0.0322  0.0878  0.1929
 1852W        W 2052  16.931   4.699  14.566  0.0794 -0.1280  0.0506
 1853W        W 2053  17.929  12.199   9.215  0.0102 -0.0221  0.3289
 1854W        W 2054   2.639   2.696  15.437 -0.0783  0.2550  0.0680
 1855W        W 2055  11.085  17.125   0.335  0.1785  0.1367 -0.0179
 1856W        W 2056   8.911  16.895   1.659 -0.0781 -0.0261  0.0407
 1857W        W 2057   1.663   2.551  15.556  0.0928  0.1709  0.2810
 1858W        W 2058  12.934   3.733  10.415 -0.1172  0.0965 -0.0872
 1859W        W 2059   2.833   3.128   1.365  0.1832 -0.2079  0.2290
 1860W        W 2060  17.592   3.901   1.484  0.0653  0.2630 -0.1127
 1861W        W 2061  15.242   4.611   0.927  0.0601  0.1074  0.2587
 1862W        W 2062   2.084  15.450   0.118  0.0760 -0.1541 -0.2994
 1863W        W 2063   2.211  11.239   7.786  0.3767  0.3666 -0.1123
 1864W        W 2064  11.766  17.253   3.161  0.2005  0.2871 -0.0869
 1865W        W 2065   1.253  15.337   3.692  0.0438 -0.0924  0.0662
 1866W        W 2066   0.292   2.498  18.048  0.2388 -0.2183 -0.0521
 1867W        W 2067   4.623   7.079  14.608  0.1242 -0.2407 -0.2653
 1868W        W 2068   7.347   4.665  16.851 -0.1213 -0.0736 -0.1083
 1869W        W 2069   5.020  17.353   0.666  0.1871 -0.1145  0.0535
 1870W        W 2070   7.874  12.374   4.791 -0.0984  0.0448 -0.1816
 1871W        W 2071   1.363   6.140  17.678  0.0620  0.0768  0.0919
 1872W        W 2072   6.013   4.208  16.916 -0.0018  0.1178 -0.1859
 1873W        W 2073   7.040  15.901  13.407 -0.4801  0.0888  0.1776
 1874W        W 2074   2.498   5.765   2.462  0.0756 -0.0143  0.0324
 1875W        W 2075   2.064   7.297   9.007 -0.0771  0.0201  0.0821
 1876W        W 2076   1.917   8.446   7.394  0.3893  0.3218 -0.0372
 1877W        W 2077  12.939  16.756   4.101 -0.2244 -0.0956  0.0777
 1878W        W 2078  15.236  10.123  17.527 -0.2427 -0.3610 -0.1956
 1879W        W 2079   3.840   6.539  16.163  0.0982  0.2291  0.0523
 1880W        W 2080  13.642   8.716  17.222  0.1117  0.2406 -0.0884
 1881W        W 2081   4.688  11.467  13.873  0.1291 -0.0636 -0.0634
 1882W        W 2082   2.847  17.618  12.514  0.0384  0.1443 -0.0536
 1883W        W 2083  15.708   4.004  16.527 -0.1981 -0.0126  0.1774
 1884W        W 2084   0.854  10.711   0.440  0.2101 -0.0766  0.0656
 1885W        W 2085  16.941  17.076  12.661 -0.0305  0.0168 -0.0684
 1886W        W 2086  10.281  15.852   0.084 -0.1174 -0.1826  0.0838
 1887W        W 2087  10.037  17.046  10.452  0.1759  0.2872 -0.0026
 1888W        W 2088  17.951   5.320   2.163  0.1639 -0.3356 -0.0653
 1889W        W 2089   9.585   6.157  12.838  0.1291 -0.1546 -0.4064
 1890W        W 2090   0.722  16.496   0.227  0.0330 -0.2764 -0.1783
 1891W        W 2091   7.892   6.531   6.751 -0.0322  0.2591 -0.2742
 1892W        W 2092   7.456   3.103   4.749 -0.0652 -0.1086 -0.3675
 1893W        W 2093  15.234  17.409   0.680 -0.3608  0.1358  0.2644
 1894W        W 2094   3.138  11.336   7.314  0.0981 -0.0106 -0.0525
 1895W        W 2095   1.391  15.854   9.694 -0.0055 -0.0096 -0.0741
 1896W        W 2096   1.152   2.826  17.404  0.1373 -0.0266  0.2329
 1897W        W 2097   3.903  14.867   5.255  0.3402  0.0214  0.1157
 1898W        W 2098   7.430  13.366   8.633 -0.1855  0.0992 -0.1131
 1899W        W 2099   9.696  10.909  17.873  0.1139 -0.4651 -0.4891
 1900W        W 2100  12.618  16.873  11.830  0.1339  0.0678  0.1607
 1901W        W 2101  14.536  18.095   0.778 -0.0872  0.1082  0.1006
 1902W        W 2102   1.009  14.081   0.536 -0.0713  0.0834  0.0332
 1903W        W 2103   2.911  18.140   4.504 -0.1902 -0.0696 -0.1056
 1904W        W 2104  12.473   5.491  17.607  0.2781  0.0167  0.0116
 1905W        W 2105   2.297   6.453  15.635  0.3208  0.4350 -0.3309
 1906W        W 2106  17.135  11.144  14.190 -0.0389 -0.2190 -0.3089
 1907W        W 2107   2.977  16.004   9.442  0.2327  0.1360  0.4496
 1908W        W 2108   2.070   0.429  11.062 -0.2182 -0.0527 -0.0064
 1909W        W 2109   4.439   2.729  12.243 -0.2719 -0.0768  0.0724
 1910W        W 2110   3.639  16.755   2.749 -0.1774  0.1707  0.0334
 1911W        W 2111   3.419   5.854   3.813  0.2033  0.0969  0.1078
 1912W        W 2112   4.575  16.359  16.064 -0.1146  0.0585 -0.0101
 1913W        W 2113  15.344  15.902   0.695  0.0574 -0.0726  0.1460
 1914W        W 2114   3.049   2.204  12.021  0.1874 -0.2839  0.0549
 1915W        W 2115  13.182   1.639  17.813 -0.0460 -0.0296 -0.0242
 1916W        W 2116   3.529   4.410  12.377 -0.1144  0.2243  0.2667
 1917W        W 2117   1.858   8.832  13.236  0.2710  0.0761 -0.2117
 1918W        W 2118  14.154  14.360   0.214  0.2572  0.1750 -0.0895
 1919W        W 2119   6.413   3.537  17.361  0.2363  0.2700  0.0929
 1920W        W 2120   4.851   8.350  15.582  0.1904 -0.0342  0.3139
 1921W        W 2121   7.396  10.498  14.952  0.0255  0.1672 -0.0342
 1922W        W 2122  15.281   4.119  16.828  0.1301 -0.1110 -0.0943
 1923W        W 2123   3.396  15.890  14.435 -0.2812  0.2952 -0.0623
 1924W        W 2124   9.554   5.022  15.369 -0.0608  0.1606  0.0224
 1925W        W 2125   2.434   2.183   5.021 -0.3734  0.0352 -0.0059
 1926W        W 2126  16.434   2.458   0.177 -0.2870 -0.1981 -0.3939
 1927W        W 2127  15.065   2.608  12.817  0.1450 -0.1822  0.1085
 1928W        W 2128  17.238   8.618   6.587 -0.1206  0.2842  0.2277
 1929W        W 2129   4.723   9.800   8.428  0.4069  0.4072  0.3352
 1930W        W 2130   5.268  16.435   2.241 -0.1361  0.0302 -0.2058
 1931W        W 2131  17.743   4.439  14.215  0.1248 -0.2842 -0.1109
 1932W        W 2132  15.047   0.565   0.159 -0.0390 -0.1236 -0.0209
 1933W        W 2133   5.254  15.383   9.221  0.2511  0.2305 -0.1793
 1934W        W 2134  11.925   1.022   4.682 -0.1228  0.5224 -0.0004
 1935W        W 2135   9.210  16.595  15.880 -0.0404 -0.4153 -0.0990
 1936W        W 2136   3.212   4.746  10.566  0.2977  0.2050 -0.0337
 1937W        W 2137   1.802   2.885   3.543  0.1482  0.0252 -0.5439
 1938W        W 2138   3.195  11.776  15.060  0.0555  0.0333  0.0630
 1939W        W 2139  15.900   1.585  18.156 -0.2362 -0.4607  0.2917
 1940W        W 2140   2.756  15.794  12.316 -0.1482  0.1077 -0.0086
 1941W        W 2141   7.803   1.749   9.123  0.1570  0.1388 -0.0717
 1942W        W 2142   7.873   7.504  17.775  0.1771  0.4240  0.2201
 1943W        W 2143   6.804   4.409   8.729 -0.0357 -0.1842  0.0414
 1944W        W 2144  14.869  11.324  13.545  0.2053 -0.1863 -0.1100
 1945W        W 2145   1.787  17.884  11.939  0.0085 -0.1797  0.0278
 1946W        W 2146   2.293   4.487  16.365 -0.2529 -0.0095  0.0588
 1947W        W 2147   2.794   2.710   4.587 -0.0671  0.0807 -0.0361
 1948W        W 2148   1.728   0.930  13.367 -0.1910 -0.2371 -0.2523
 1949W        W 2149  12.970   4.272   1.164  0.0358 -0.1013 -0.1548
 1950W        W 2150   4.151  17.521   2.452  0.1902 -0.1066 -0.2260
 1951W        W 2151   9.112   2.619   4.983 -0.0434 -0.0344 -0.1427
 1952W        W 2152   9.616   4.139   0.795 -0.1828 -0.0946 -0.1517
 1953W        W 2153   1.592   5.301   3.310 -0.1145 -0.1857  0.0488
 1954W        W 2154   2.573  18.094  17.121 -0.1392 -0.0640 -0.1824
 1955W        W 2155   0.261   2.857   4.456 -0.1456 -0.0516  0.0430
 1956W        W 2156  13.869   6.492   2.284 -0.0910  0.1978  0.3923
 1957W        W 2157   0.604   4.982  15.683 -0.1643  0.1555 -0.1526
 1958W        W 2158  12.710   6.459  15.965  0.1131  0.1795  0.1692
 1959W        W 2159   5.682  16.070  10.029  0.0362 -0.0502 -0.0296
 1960W        W 2160   5.405  15.082  11.690 -0.1485  0.0207 -0.0033
 1961W        W 2161   0.240   8.303   9.601  0.1496  0.0011  0.0867
 1962W        W 2162  18.124   2.289   1.774  0.2406 -0.1830 -0.0841
 1963W        W 2163  16.423   1.939   1.184 -0.0612  0.0716  0.2031
 1964W        W 2164   8.290  16.258  12.937 -0.2838  0.1645 -0.1375
 1965W        W 2165  16.262   1.644   2.626  0.2036 -0.2530  0.2514
 1966W        W 2166   1.258   8.972   9.384  0.3364  0.0037  0.2314
 1967W        W 2167   6.519   7.863  15.201 -0.0970 -0.1982  0.0277
 1968W        W 2168  12.651   3.517   7.211  0.2408  0.1717  0.0302
 1969W        W 2169   7.120  15.288   3.543 -0.2349  0.1283 -0.0769
 1970W        W 2170   3.598   1.813  11.352 -0.3706 -0.0298 -0.2342
 1971W        W 2171   3.240   1.433  14.723  0.2282 -0.2552  0.0313
 1972W        W 2172   9.259  11.184  16.030  0.1188  0.0181 -0.1286
 1973W        W 2173   0.970   9.035   8.020 -0.2734  0.3168 -0.2820
 1974W        W 2174   6.606  14.274  11.411 -0.1038 -0.0677  0.0446
 1975W        W 2175  14.827  17.059  18.180  0.0890 -0.2255  0.1003
 1976W        W 2176  17.218  17.762  15.218  0.1705  0.0735 -0.1328
 1977W        W 2177   6.440   6.713  17.763  0.0624  0.2941 -0.0693
 1978W        W 2178  17.177  14.652   4.519  0.0004 -0.0289  0.1157
 1979W        W 2179   4.873   9.675  17.009  0.0210 -0.1993  0.2549
 1980W        W 2180  14.107  12.348  10.912  0.0685  0.1635 -0.1452
 1981W        W 2181   7.267   1.951  13.399  0.1598  0.4007  0.0484
 1982W        W 2182  17.451   3.748  16.949 -0.1007 -0.1735 -0.0896
 1983W        W 2183  17.538  16.322   2.080 -0.1551 -0.2107  0.0599
 1984W        W 2184  11.179  13.683   9.815 -0.0540  0.2760  0.0259
 1985W        W 2185   1.008   3.397   8.237 -0.1322 -0.2136  0.0499
 1986W        W 2186   7.142   5.012   0.767  0.2006  0.0245  0.0414
 1987W        W 2187   7.361   0.789  12.009 -0.0985 -0.3158 -0.0172
 1988W        W 2188   1.493  17.771  10.974 -0.1840 -0.0996  0.1491
 1989W        W 2189   7.862   0.835   9.013 -0.2131  0.2677 -0.0694
 1990W        W 2190   6.589  14.850   3.152 -0.2040 -0.0802 -0.1815
 1991W        W 2191  17.541   2.362  17.283 -0.2203 -0.0039  0.1934
 1992W        W 2192  12.343   2.481  16.234  0.2219  0.3029 -0.1802
 1993W        W 2193  15.022  18.140   7.161 -0.0728  0.0455 -0.1785
 1994W        W 2194  13.187   6.328   3.516 -0.0695 -0.0139 -0.0822
 1995W        W 2195   6.298   1.784  11.998 -0.4421 -0.3048  0.2411
 1996W        W 2196  13.281  10.255  11.516  0.0178 -0.2398  0.1692
 1997W        W 2197  16.572   0.421  16.458  0.0350 -0.0915  0.0934
 1998W        W 2198   4.469   1.575   3.861 -0.0431 -0.0481  0.1968
 1999W        W 2199   2.912   6.138   5.802 -0.3870  0.1256 -0.0768
 2000W        W 2200   0.642   2.906  18.122  0.2101 -0.0120 -0.3786
 2001W        W 2201   9.213  17.144  15.048  0.1712 -0.0317 -0.0561
 2002W        W 2202   5.601   7.959  16.459 -0.1395 -0.1191  0.1669
 2003W        W 2203   5.613   2.963  14.697  0.2064  0.0139 -0.3317
 2004W        W 2204   5.166   8.090   6.062 -0.1073 -0.1522 -0.1615
 2005W        W 2205   7.267  15.584  13.693  0.1499  0.0805  0.0055
 2006W        W 2206   5.715  15.530   3.568 -0.0969  0.3579 -0.2093
 2007W        W 2207   1.488   3.165   6.249 -0.1340 -0.4514 -0.0981
 2008W        W 2208  14.778   2.174  14.819 -0.0476 -0.0267  0.0255
 2009W        W 2209  17.888   6.621   0.946  0.0496  0.0035  0.1983
 2010W        W 2210  14.283   0.465   1.538  0.3643  0.2326 -0.1142
 2011W        W 2211   9.725   9.335  15.818 -0.1056 -0.0976 -0.1720
 2012W        W 2212   5.607   3.975   3.835  0.0648 -0.2476 -0.1373
 2013W        W 2213   3.995  15.869  15.934 -0.0095 -0.0604  0.0105
 2014W        W 2214   3.736   2.725   3.533 -0.0297  0.2749  0.0239
 2015W        W 2215   3.152  17.389   5.820 -0.2530  0.0079 -0.0106
 2016W        W 2216   7.889   1.248  12.440  0.0790 -0.2773  0.2015
 2017W        W 2217   1.365   6.237  12.509  0.0705  0.3272 -0.0301
 2018W        W 2218  15.155  12.802   9.957 -0.2554 -0.2412 -0.3077
 2019W        W 2219   3.012   5.913  13.751 -0.0485  0.3010 -0.1953
 2020W        W 2220  17.806   2.140   6.445 -0.2322 -0.0862  0.0378
 2021W        W 2221  15.827   0.928   2.164  0.1888  0.1453  0.0007
 2022W        W 2222   8.648   3.881  14.617 -0.0727 -0.1264  0.1624
 2023W        W 2223   5.298  14.163  17.937 -0.0738  0.4774 -0.0976
 2024W        W 2224  11.447   2.482   0.921  0.0868  0.0067  0.1074
 2025W        W 2225  15.996   9.567   9.344 -0.1129 -0.0401 -0.2051
 2026W        W 2226   0.898   4.671  10.674 -0.2160 -0.2284  0.0694
 2027W        W 2227  16.671   3.954  18.009  0.1228  0.0788  0.3753
 2028W        W 2228   5.143  17.733   0.351 -0.2937 -0.0869  0.0148
 2029W        W 2229  17.225   5.944  17.541 -0.1982  0.0714 -0.0465
 2030W        W 2230   8.423   5.158   5.686 -0.2078  0.0402  0.0506
 2031W        W 2231   3.576  17.806  17.619  0.1504 -0.3358  0.1706
 2032W        W 2232  11.077  17.961   7.729 -0.1202 -0.0397  0.0869
 2033W        W 2233   2.447   4.099  13.118 -0.1413  0.0830  0.0639
 2034W        W 2234   1.925   3.623   1.690 -0.0944  0.1117 -0.1697
 2035W        W 2235   2.020   0.674  14.334 -0.1183 -0.0344  0.1893
 2036W        W 2236   5.289   0.138   0.242 -0.3974 -0.5084 -0.1120
 2037W        W 2237  12.844  15.423   3.062  0.1882 -0.3925 -0.1297
 2038W        W 2238  17.330  18.089  12.457  0.1554  0.1153 -0.0024
 2039W        W 2239   2.239  17.137  14.181 -0.1439 -0.4000 -0.0346
 2040W        W 2240  12.418   4.706  13.052 -0.1997 -0.0155 -0.0904
 2041W        W 2241   8.474   7.300   9.805 -0.2271  0.1896  0.2538
 2042W        W 2242   1.948   8.103  14.391  0.0563 -0.2673 -0.2399
 2043W        W 2243   1.348   2.630   2.154  0.2534  0.1544  0.0272
 2044W        W 2244  16.733   0.379   3.732 -0.0358  0.2037 -0.0971
 2045W        W 2245  17.555   3.187  11.247 -0.0374 -0.2849  0.4673
 2046W        W 2246  16.078  14.616   5.349 -0.0747 -0.0202  0.0730
 2047W        W 2247  10.301   1.503  12.630  0.0119 -0.1174  0.0678
 2048W        W 2248   3.711   0.796  13.093  0.3005  0.0930  0.1241
 2049W        W 2249   6.212  10.528   5.571  0.2229 -0.2344  0.0401
 2050W        W 2250   2.485   5.283  10.917  0.2654  0.0026 -0.3556
 2051W        W 2251   6.009   8.846   8.402 -0.3783 -0.0623  0.3674
 2052W        W 2252   0.017  12.255   9.560  0.2780  0.2160  0.1228
 2053W        W 2253   2.078   7.317  17.707 -0.2171 -0.1444  0.3232
 2054W        W 2254   2.326   2.198   7.503 -0.1842 -0.2166  0.1069
 2055W        W 2255   0.951   5.923   2.731  0.0233 -0.2305 -0.2167
 2056W        W 2256  14.737   9.575  17.945 -0.0319  0.0256 -0.1017
 2057W        W 2257   9.316   6.569   1.672 -0.0523  0.0840  0.0299
 2058W        W 2258  14.661   7.110  17.289  0.0175 -0.0032 -0.0041
 2059W        W 2259   4.553   6.549   0.652  0.0434  0.0072  0.1985
 2060W        W 2260   8.147   9.784   7.188  0.2463  0.0343  0.0222
 2061W        W 2261   3.373   6.301   6.059 -0.2638  0.0890 -0.0813
 2062W        W 2262  10.629   2.921   7.803  0.2086 -0.0167  0.2286
 2063W        W 2263   1.890   1.041   3.785 -0.2250 -0.0141  0.2554
 2064W        W 2264  18.084   6.625  10.553 -0.0843 -0.0916  0.2604
 2065W        W 2265  15.348  10.210  16.558 -0.2583 -0.0331 -0.0321
 2066W        W 2266   5.983   1.814   5.858  0.0677 -0.1233  0.1849
 2067W        W 2267  13.937   7.091   0.685 -0.0344  0.1582  0.0895
 2068W        W 2268   0.824   1.715  16.558 -0.1459  0.0470 -0.1692
 2069W        W 2269   5.865   9.004   0.071 -0.1740 -0.1573 -0.1655
 2070W        W 2270   3.592  10.220   0.807  0.0448  0.1195  0.1267
 2071W        W 2271  16.854  10.488  17.042  0.2158 -0.0332 -0.1930
 2072W        W 2272   7.630  10.614  16.086  0.1408 -0.0827  0.1489
 2073W        W 2273   6.889   1.010  16.584 -0.0895 -0.0929 -0.1836
 2074W        W 2274  13.505   3.788   7.087 -0.1795 -0.0910 -0.1362
 2075W        W 2275   7.597   7.976   1.723  0.1102  0.0942  0.0482
 2076W        W 2276   1.120   6.545  17.415  0.1266 -0.2384  0.2771
 2077W        W 2277   2.632   2.314  12.728  0.1297  0.0186  0.1208
 2078W        W 2278  15.494   1.546   1.323  0.2487 -0.2752  0.2615
 2079W        W 2279   6.577   7.395  10.674  0.1834 -0.0043 -0.1510
 2080W        W 2280   1.700   6.452   1.380 -0.1411  0.2134  0.1071
 2081W        W 2281   3.081   7.782   0.330 -0.3107 -0.0737  0.1689
 2082W        W 2282   0.661   1.840   2.382  0.0240  0.0121  0.0342
 2083W        W 2283   5.431   2.087   3.459 -0.3807  0.2949  0.0178
 2084W        W 2284   4.142  17.034   6.768  0.1453  0.0930  0.1198
 2085W        W 2285  15.622   1.724   0.842 -0.1476  0.0747 -0.1128
 2086W        W 2286  15.095   0.347   0.646  0.3842  0.3378  0.1922
 2087W        W 2287   4.536   7.431  15.478  0.2432  0.3598  0.2496
 2088W        W 2288   4.649   8.111   5.316 -0.0622  0.0066  0.2176
 2089W        W 2289  12.571  10.235  17.459 -0.0212 -0.0058  0.0980
 2090W        W 2290   7.289   2.688   5.017 -0.0459  0.0646 -0.1006
 2091W        W 2291   9.487  10.885   9.649 -0.0250  0.1436 -0.0681
 2092W        W 2292   6.970   6.065   2.787 -0.1791  0.1227  0.2765
 2093W        W 2293   9.921   5.063   2.930 -0.0034 -0.3284  0.0054
 2094W        W 2294   9.752   5.706  12.378 -0.2347  0.1953  0.1654
 2095W        W 2295  15.949   2.964   5.048  0.0602  0.5505  0.0761
 2096W        W 2296   5.227   4.154   7.848  0.0500  0.1124  0.2410
 2097W        W 2297   2.286   1.365   8.830  0.1354  0.1333 -0.0103
 2098W        W 2298   8.856   7.392   3.457  0.2165 -0.5179 -0.3400
 2099W        W 2299   7.268  13.386   9.112  0.3593  0.0070  0.2790
 2100W        W 2300  18.189   3.065  13.795  0.2766  0.0673 -0.0613
 2101W        W 2301   5.651  11.617   4.610 -0.2529 -0.1152  0.1356
 2102W        W 2302   4.872  12.152   4.470 -0.2808  0.0251  0.0702
 2103W        W 2303  14.584   1.143  10.172 -0.0358  0.1434 -0.1055
 2104W        W 2304   5.392   6.938   5.082  0.1340 -0.1193 -0.0481
 2105W        W 2305  11.722   0.173   0.169  0.4183  0.1965 -0.0669
 2106W        W 2306  10.780   0.919  16.006 -0.2884 -0.1683 -0.1201
 2107W        W 2307   2.545   0.238   2.506 -0.0241  0.5417 -0.0652
 2108W        W 2308   2.621   8.812   0.797 -0.0380 -0.2110 -0.1333
 2109W        W 2309   8.209   4.812   4.580 -0.0087  0.0534  0.2507
 2110W        W 2310   8.066   7.018   9.971 -0.1048 -0.1327  0.1200
 2111W        W 2311  13.424   5.115   4.707 -0.1360  0.1095 -0.0946
 2112W        W 2312  17.889   1.084   6.168  0.2440 -0.1785 -0.1677
 2113W        W 2313   7.256  11.770  17.314  0.4471 -0.0661 -0.0247
 2114W        W 2314   0.436   5.132   6.717 -0.2048 -0.1943 -0.3163
 2115W        W 2315  18.076   4.643  17.052 -0.0567 -0.1121 -0.1065
 2116W        W 2316  13.913   9.995   1.581 -0.1194 -0.1693  0.0697
 2117W        W 2317   2.898  12.107  15.629  0.1996 -0.1010  0.4335
 2118W        W 2318   1.892   9.995  10.650 -0.0084 -0.1491  0.1702
 2119W        W 2319  18.058   1.019  13.704  0.1412  0.0867 -0.1411
 2120W        W 2320   3.147   3.061   4.611  0.0165  0.1049  0.2527
 2121W        W 2321   3.792   2.389   0.893 -0.0800  0.0772  0.2515
 2122W        W 2322  14.960  11.162  18.061 -0.2468 -0.0430  0.1000
 2123W        W 2323  11.354   8.500   2.784  0.1597 -0.1684 -0.1304
 2124W        W 2324   0.458   8.812   3.061 -0.0479  0.2699 -0.0752
 2125W        W 2325  16.722   7.396   1.111  0.1547  0.1589  0.1953
 2126W        W 2326  10.519   2.479  10.638 -0.1301 -0.2517  0.0728
 2127W        W 2327  15.403  11.987  14.067  0.1904 -0.3263 -0.0895
 2128W        W 2328   2.062   7.763   6.137  0.1792 -0.1326  0.2189
 2129W        W 2329  12.481   0.091   4.608  0.0826  0.0069  0.0506
 2130W        W 2330   6.974   7.869   3.636 -0.2701  0.3977 -0.0926
 2131W        W 2331  16.230   6.125   4.478  0.1202  0.2915  0.1841
 2132W        W 2332  12.491   1.239  11.605  0.2733  0.3026  0.0748
 2133W        W 2333   5.186  10.672   9.542  0.1415 -0.0304 -0.0688
 2134W        W 2334   2.507   5.374   6.079  0.0617  0.0667 -0.0541
 2135W        W 2335   8.171  10.272   4.256  0.0186 -0.1059  0.3609
 2136W        W 2336   6.786   2.366  16.443 -0.2611 -0.2634  0.0239
 2137W        W 2337  11.989   4.679   1.978  0.2864 -0.1313  0.1666
 2138W        W 2338   4.067   2.910  13.935 -0.1912  0.1534 -0.1428
 2139W        W 2339   0.028   5.075   5.287  0.0768  0.0985 -0.2138
 2140W        W 2340  16.879   7.916   2.403  0.0041 -0.0090 -0.0685
 2141W        W 2341   9.761   6.739   1.883  0.0583 -0.0126  0.0119
 2142W        W 2342   1.886   6.041   4.623 -0.1695 -0.0736 -0.1707
 2143W        W 2343   5.016  10.342   7.927  0.0250 -0.0557 -0.3350
 2144W        W 2344   4.946  12.577   8.002  0.1253 -0.3508 -0.1655
 2145W        W 2345  15.850   6.546   6.627  0.2834  0.1366  0.0183
 2146W        W 2346  12.621   5.061   8.366  0.0269 -0.1497 -0.0997
 2147W        W 2347   2.612   6.853  14.698  0.2670 -0.0484 -0.0565
 2148W        W 2348   0.971  17.162  16.100 -0.0395 -0.0439 -0.0543
 2149W        W 2349  15.026   9.868   3.004  0.2028  0.0489  0.1940
 2150W        W 2350   8.214   6.539   7.755 -0.0533  0.0149  0.1462
 2151W        W 2351  17.267   3.575  15.938  0.1103 -0.2212 -0.0491
 2152W        W 2352   5.133   6.331  12.679 -0.1677 -0.1227 -0.1496
 2153W        W 2353   5.943  13.882   9.607 -0.0695  0.0476 -0.3206
 2154W        W 2354   4.404  12.005  14.309  0.2334  0.1599 -0.1163
 2155W        W 2355   4.970   5.288   8.197  0.2044  0.0824  0.0660
 2156W        W 2356   9.136   2.876  16.999  0.0901 -0.0787  0.2717
 2157W        W 2357  16.491  16.691  15.378 -0.1523  0.0527  0.1731
 2158W        W 2358  17.103   8.575   4.645 -0.1503  0.0287  0.4488
 2159W        W 2359  15.336  15.860   2.422  0.0283  0.0760  0.0314
 2160W        W 2360  15.148   8.394   2.583 -0.2537  0.3027 -0.0945
 2161W        W 2361   3.643  17.011   8.026  0.0344 -0.1933  0.1770
 2162W        W 2362   0.001  10.291  16.965  0.0998  0.1945 -0.0726
 2163W        W 2363  14.653  17.049  17.369 -0.0709  0.2371 -0.0850
 2164W        W 2364   6.919   1.038   7.193 -0.0362 -0.1614 -0.1196
 2165W        W 2365   0.427   7.943   1.423 -0.1091 -0.1947  0.2632
 2166W        W 2366  17.901   7.462  14.890 -0.2075 -0.0136 -0.1420
 2167W        W 2367  10.331  13.990   4.560 -0.0866 -0.0085 -0.1054
 2168W        W 2368  12.198  17.916   4.789  0.0860  0.3086 -0.4702
 2169W        W 2369   8.480   7.790   3.688  0.0410 -0.2435  0.0987
 2170W        W 2370   9.227   9.437   4.231 -0.3751 -0.3778  0.0249
 2171W        W 2371   3.431  17.758  16.993  0.3032  0.1632  0.0266
 2172W        W 2372   1.743   2.602   4.362  0.0370  0.0070 -0.2250
 2173W        W 2373   3.471   5.841  11.768 -0.0760  0.2139  0.2331
 2174W        W 2374   0.638  15.629   0.485  0.0777 -0.0777 -0.1921
 2175W        W 2375  17.257   4.306  12.823 -0.2051  0.0091  0.1936
 2176W        W 2376   5.859   1.410   1.499 -0.2291  0.1048  0.4965
 2177W        W 2377   3.389   9.030   4.344  0.1037  0.3348  0.1665
 2178W        W 2378   1.668  15.119  13.675  0.0977  0.1839 -0.0767
 2179W        W 2379   8.559   5.681   2.987 -0.0341 -0.2165  0.1017
 2180W        W 2380   4.221  14.567  12.302  0.1562  0.1634 -0.2448
 2181W        W 2381   6.205  13.536   8.444 -0.0501  0.2765 -0.0802
 2182W        W 2382   2.723   6.161   4.541  0.2503 -0.1426  0.1703
 2183W        W 2383  14.300  13.912   2.421 -0.0922 -0.0720  0.2052
 2184W        W 2384   4.773   2.795   7.811  0.2593  0.1900 -0.0104
 2185W        W 2385   3.582   3.332   9.204 -0.2107  0.1882  0.1229
 2186W        W 2386   2.304   5.192   7.171 -0.2075  0.4516 -0.1855
 2187W        W 2387  14.380   7.420  16.970  0.0576  0.0324  0.1636
 2188W        W 2388   4.853   6.975  15.397 -0.0395  0.2496 -0.1553
 2189W        W 2389   6.417  15.659   4.616  0.1393  0.1031  0.0049
 2190W        W 2390   6.019   7.631  10.500 -0.3164  0.0735  0.1023
 2191W        W 2391   6.050   3.498  17.751 -0.1721 -0.1791  0.1828
 2192W        W 2392   7.376   6.328   8.973  0.0362 -0.1171  0.1849
 2193W        W 2393  14.298   3.077   7.437  0.3498 -0.2229 -0.2139
 2194W        W 2394   7.105   9.865   9.690 -0.1590  0.0607  0.2334
 2195W        W 2395   3.977   9.954   0.247 -0.1413 -0.1505 -0.0015
 2196W        W 2396   8.835   4.768   1.890  0.0009  0.4035 -0.0421
 2197W        W 2397   9.739   6.734  16.073 -0.3176 -0.0843  0.2331
 2198W        W 2398   4.169  12.053  17.849  0.0578  0.1848 -0.0353
 2199W        W 2399   4.501   3.028   3.279 -0.2136  0.1442  0.0468
 2200W        W 2400   6.877   8.637   1.732  0.3884  0.0019 -0.0970
 2201W        W 2401   1.758  18.160   3.574 -0.0148  0.1426  0.1005
 2202W        W 2402   4.715   1.100   5.107 -0.1375 -0.2758 -0.3714
 2203W        W 2403   1.550  16.519   2.302  0.2869  0.1007  0.1405
 2204W        W 2404   9.417   1.215   8.061  0.1848  0.1902  0.0433
 2205W        W 2405  10.100   6.885   0.494 -0.0421  0.1496  0.1381
 2206W        W 2406   3.599   7.502   2.550  0.2000 -0.1611  0.0579
 2207W        W 2407  16.121  10.409   8.786 -0.1791  0.1290  0.1079
 2208W        W 2408   3.737   5.002   0.923  0.1708  0.2312  0.1764
 2209W        W 2409   3.877  17.062   2.417 -0.0584 -0.1412  0.0153
 2210W        W 2410   0.460   1.491   5.497 -0.2821  0.0414 -0.3932
 2211W        W 2411  12.426   5.467  12.292  0.0441 -0.1308 -0.1311
 2212W        W 2412  10.629   5.674  10.075 -0.0082  0.1713  0.2125
 2213W        W 2413   6.245  13.557   8.964 -0.0792  0.2291  0.1820
 2214W        W 2414   5.886  10.001   0.286 -0.2983 -0.0045  0.0192
 2215W        W 2415  15.635   7.342  16.924 -0.1857 -0.2165  0.0942
 2216W        W 2416   8.086   7.820  11.314 -0.1479 -0.2726  0.0858
 2217W        W 2417  14.781   4.234  16.919  0.1537  0.3650  0.2804
 2218W        W 2418   0.831  17.366  18.021  0.0644  0.0605 -0.1956
 2219W        W 2419  15.599   0.230  14.464  0.0402  0.2006  0.0652
 2220W        W 2420  17.431   0.997  10.649 -0.2910  0.0787 -0.0783
 2221W        W 2421  17.772   3.099  15.348 -0.2333 -0.1286 -0.1373
 2222W        W 2422   5.673   7.993   1.859 -0.3603 -0.2784  0.1167
 2223W        W 2423  14.296   0.887   1.169  0.2412  0.2717 -0.0432
 2224W        W 2424  13.549   2.821   6.923  0.0414  0.1331 -0.1380
 2225W        W 2425   6.693  14.137   2.727 -0.1001 -0.0558 -0.1909
 2226W        W 2426   3.819  16.748  13.037 -0.4396 -0.1197  0.0734
 2227W        W 2427   8.136   4.228  17.850 -0.1503 -0.3275 -0.1228
 2228W        W 2428  12.000   2.745   2.792 -0.0130  0.1642 -0.1437
 2229W        W 2429  15.663   1.444  15.942  0.0975 -0.2387  0.0102
 2230W        W 2430   7.120   2.163   1.325 -0.1938 -0.0304  0.0625
 2231W        W 2431   5.563   9.464  16.024 -0.2769 -0.0630 -0.0215
 2232W        W 2432  10.718   4.214  16.342  0.1309 -0.1026 -0.0533
 2233W        W 2433   4.278   4.534  11.724 -0.1634  0.1569 -0.1089
 2234W        W 2434   5.361   5.253  14.179  0.1540  0.2379  0.2659
 2235W        W 2435   1.071  11.510   3.090 -0.0743  0.1538  0.0399
 2236W        W 2436   1.514   8.832   5.086  0.1549 -0.2748 -0.0464
 2237W        W 2437   8.702  17.330   1.822 -0.0143  0.0016  0.2725
 2238W        W 2438   0.890   9.638   2.048 -0.2043 -0.2052 -0.3205
 2239W        W 2439   0.829  17.380  17.463  0.1750  0.0843 -0.0060
 2240W        W 2440  14.555  11.403  11.141  0.0700 -0.1183  0.0310
 2241W        W 2441   4.176  16.751   2.138  0.2074  0.4215 -0.2375
 2242W        W 2442   5.356   5.218   4.644  0.0802 -0.2114  0.1122
 2243W        W 2443  11.311   3.306  17.044  0.1207  0.2725 -0.2873
 2244W        W 2444   4.041   6.199  16.662 -0.1881  0.1897  0.0568
 2245W        W 2445   0.143  13.689  15.396 -0.0964  0.0444 -0.2197
 2246W        W 2446   4.975   5.720  12.839 -0.0143  0.1395 -0.0212
 2247W        W 2447   2.615   3.194   4.492 -0.1655  0.1087 -0.0055
 2248W        W 2448  13.998   3.183  17.339 -0.1842  0.0847 -0.1493
 2249W        W 2449   5.870   2.736  11.453  0.1246 -0.1827 -0.0546
 2250W        W 2450   3.386   7.088   9.390  0.0098 -0.1681  0.0380
 2251W        W 2451   9.935   7.161   1.100  0.2109 -0.1357 -0.1194
 2252W        W 2452  17.348  16.352  15.138  0.1922 -0.2051  0.2675
 2253W        W 2453  14.168  18.046  11.264 -0.0742  0.0310  0.3269
 2254W        W 2454   5.152  16.712  17.101  0.0966  0.0148  0.0571
 2255W        W 2455   8.264   1.827  18.077 -0.1801  0.0815 -0.1896
 2256W        W 2456   1.609   5.402   0.540  0.0597 -0.2774 -0.1329
 2257W        W 2457  17.412   7.907   4.100 -0.0905 -0.2773 -0.0825
 2258W        W 2458  14.511  10.362   6.876  0.0058  0.0314 -0.0863
 2259W        W 2459  15.909   7.224  13.596 -0.0080 -0.4752 -0.0784
 2260W        W 2460   3.577   1.209   3.833 -0.0828 -0.2558  0.1987
 2261W        W 2461   6.260   1.684   5.221 -0.1266 -0.1373  0.0160
 2262W        W 2462   5.044  15.886   8.686  0.0606 -0.1055 -0.4079
 2263W        W 2463   3.207   4.956  13.823 -0.1619  0.1776  0.4011
 2264W        W 2464   5.446   6.639  11.738 -0.0826 -0.2126 -0.0189
 2265W        W 2465  13.185   9.522   2.531 -0.3333 -0.1837 -0.2480
 2266W        W 2466   0.577   5.911   6.381  0.2897  0.0255 -0.0660
 2267W        W 2467  17.035   7.599   5.026  0.0952 -0.1414  0.0294
 2268W        W 2468  17.432   0.923  13.113 -0.1762 -0.0311 -0.1409
 2269W        W 2469   9.668  10.841   1.147  0.2839 -0.0830 -0.2419
 2270W        W 2470   0.345   9.735   9.655 -0.0987  0.1775 -0.0931
 2271W        W 2471   5.993   4.477  13.039  0.3042  0.3060 -0.1848
 2272W        W 2472  12.558  17.293   2.930  0.0701  0.0720  0.0543
 2273W        W 2473  14.127   6.492  18.206 -0.1124 -0.0986 -0.1529
 2274W        W 2474   1.130   7.479  17.977 -0.1531 -0.3390 -0.2554
 2275W        W 2475   5.382   6.412   2.239 -0.1154  0.1451 -0.0397
 2276W        W 2476   6.953   8.072   1.998 -0.1286  0.0506  0.0094
 2277W        W 2477   8.448  16.569  17.266 -0.1015 -0.1348 -0.3126
 2278W        W 2478  14.499   1.547  14.183  0.1236  0.1470  0.2598
 2279W        W 2479  17.709   4.196   9.811  0.2089  0.2995 -0.2202
 2280W        W 2480   4.742   7.796  13.272 -0.0649 -0.1364  0.1124
 2281W        W 2481  11.996   3.028   0.897  0.0448 -0.2938  0.1484
 2282W        W 2482   0.779   2.239  16.593  0.0353 -0.2241 -0.4165
 2283W        W 2483   1.707   8.105   2.874 -0.1949  0.2576 -0.1534
 2284W        W 2484  14.039   2.759   2.565 -0.1075 -0.1562  0.0106
 2285W        W 2485  15.858   3.615   0.609  0.2506 -0.2026  0.0123
 2286W        W 2486  16.827   2.207  17.974 -0.1803 -0.2676 -0.2078
 2287W        W 2487   5.132   2.011  16.999  0.1690  0.2434 -0.0178
 2288W        W 2488   4.709   3.836  13.736 -0.3047 -0.1542  0.0306
 2289W        W 2489  16.717  16.401  17.068 -0.1751  0.3234  0.0330
 2290W        W 2490  14.495   6.339  13.133  0.2414  0.1218 -0.1210
 2291W        W 2491  10.591  11.297  16.958  0.0284  0.3093 -0.0708
 2292W        W 2492   8.918  10.603  15.210 -0.2363  0.0147 -0.1521
 2293W        W 2493   0.579   7.010   9.514  0.1090 -0.2867  0.2826
 2294W        W 2494   5.770   6.523   4.102 -0.0813 -0.3571  0.0068
 2295W        W 2495  14.807   8.195   0.271 -0.1491 -0.4042  0.1170
 2296W        W 2496   6.272   2.380  11.356  0.3030 -0.2312 -0.1753
 2297W        W 2497   1.969   4.208  12.931  0.4798 -0.1877  0.3606
 2298W        W 2498   3.992   6.151   3.397  0.0979 -0.1740 -0.1158
 2299W        W 2499   3.006   4.503   0.724 -0.0739  0.0957  0.0933
 2300W        W 2500  17.924  17.215   2.636 -0.0614 -0.1735 -0.1701
 2301W        W 2501  15.700  11.055   0.146  0.2652 -0.2628 -0.0515
 2302W        W 2502  16.560   3.749  14.926  0.1493  0.2485 -0.3125
 2303W        W 2503   3.335   9.888  14.778  0.0440  0.0327 -0.0595
 2304W        W 2504  15.205   6.270  13.062 -0.0278  0.3900  0.0258
 2305W        W 2505   4.592  18.102   1.244  0.1120 -0.1983 -0.0517
 2306W        W 2506   3.285   0.017   6.491  0.0098  0.2343  0.1830
 2307W        W 2507   5.631   1.995  16.831 -0.1500  0.1361  0.1122
 2308W        W 2508   0.971  12.564   1.924  0.0593  0.3787  0.1466
 2309W        W 2509   8.720   0.278   2.739 -0.0251  0.1050  0.2229
 2310W        W 2510   2.868   0.222   0.617 -0.0548 -0.2266 -0.3575
 2311W        W 2511   1.941   4.947   3.428 -0.1563 -0.0488 -0.0955
 2312W        W 2512   5.562  11.544   5.872 -0.1437 -0.0169  0.1045
 2313W        W 2513   7.456   1.857   0.761  0.0532 -0.1786  0.0520
 2314W        W 2514  15.462   6.367   6.887  0.0675 -0.0961  0.0534
 2315W        W 2515   6.360   0.903  17.614 -0.1034  0.0982 -0.0052
 2316W        W 2516   4.048   9.952   0.760 -0.0866  0.0180  0.0883
 2317W        W 2517   3.071  15.546   3.304  0.2164 -0.2618 -0.1715
 2318W        W 2518  11.761  10.367   0.071  0.0528  0.0910  0.1165
 2319W        W 2519   0.813   2.860   5.305  0.1654  0.0273  0.2282
 2320W        W 2520   8.440  18.001   9.786 -0.2788 -0.1179 -0.0003
 2321W        W 2521   6.471   4.367   2.955 -0.0901  0.1715 -0.0080
 2322W        W 2522   6.292   7.537  11.625 -0.2896 -0.1695  0.1997
 2323W        W 2523   9.841   3.905   8.050 -0.0864  0.0337 -0.1900
 2324W        W 2524  12.434   4.413   0.781  0.0852  0.1457  0.1076
 2325W        W 2525   2.720   3.965   0.446 -0.0333 -0.1665  0.4200
 2326W        W 2526   6.209   2.373  14.443 -0.1804 -0.1312  0.0846
 2327W        W 2527  16.601   4.699   1.278 -0.0279  0.1602 -0.0251
 2328W        W 2528   4.496  11.216   0.143  0.1519  0.3656 -0.1648
 2329W        W 2529  13.117  15.252   1.238  0.0953  0.4721  0.3053
 2330W        W 2530  17.953   3.049  14.464 -0.1634  0.0677  0.0223
 2331W        W 2531   1.280   7.289  15.465 -0.4086 -0.2460 -0.0171
 2332W        W 2532   3.014   0.448  15.947 -0.0158  0.0277 -0.1468
 2333W        W 2533   4.565   4.734  10.422 -0.2917  0.4512  0.0337
 2334W        W 2534   0.010   7.349  10.777 -0.2331  0.2097 -0.1744
 2335W        W 2535  11.638   5.145   0.735  0.1081  0.1933 -0.3202
 2336W        W 2536   3.735   3.824   2.945 -0.1024  0.4413 -0.3132
 2337W        W 2537   3.620  13.138  16.057  0.0452  0.0350 -0.1637
 2338W        W 2538  15.940   5.165  11.726 -0.0631  0.0334  0.2826
 2339W        W 2539   3.308   0.880   0.244  0.3129 -0.0063 -0.0254
 2340W        W 2540   2.358   3.028   8.492  0.1697  0.3532 -0.1497
 2341W        W 2541   5.749   5.612  13.938  0.1453 -0.0970  0.0604
 2342W        W 2542   5.712   2.987  17.117  0.2443 -0.2395  0.1531
 2343W        W 2543   6.572  11.808  17.306 -0.0298 -0.2909  0.1440
 2344W        W 2544   7.787  13.873   1.358  0.0092  0.2350  0.0981
 2345W        W 2545   1.471  11.607   7.814 -0.2723  0.1786  0.2947
 2346W        W 2546  13.168   4.281   4.344 -0.0024 -0.1775 -0.0804
 2347W        W 2547   5.614   6.858  16.568 -0.2582 -0.2490 -0.1675
 2348W        W 2548   2.792   8.305   6.697  0.1200  0.1066  0.0103
 2349W        W 2549   6.463   0.731  16.618  0.0228  0.0031 -0.0007
 2350W        W 2550   5.121  14.360  17.478  0.2291 -0.3544 -0.0733
 2351W        W 2551   1.899   5.600  14.737  0.1966  0.1832 -0.0232
 2352W        W 2552   0.970   9.362  15.337 -0.1622 -0.0118  0.1856
 2353W        W 2553   0.168  14.009  17.158 -0.1514  0.1079  0.4265
 2354W        W 2554   4.570   2.779   0.431 -0.1219 -0.0496  0.0959
 2355W        W 2555   8.072   7.049   0.541 -0.1133  0.1269 -0.0323
 2356W        W 2556   7.664  14.589  17.681  0.0923 -0.4629 -0.0057
 2357W        W 2557   0.419  16.075   9.179  0.2717  0.0211 -0.1441
 2358W        W 2558   2.943   5.821   7.685 -0.1469 -0.1199 -0.0027
 2359W        W 2559   5.042   1.214   2.448  0.2514  0.0007  0.0028
 2360W        W 2560   0.613   2.567  17.548  0.3325  0.0431 -0.0388
 2361W        W 2561  12.646  14.073  17.975  0.0179  0.1198  0.2633
 2362W        W 2562   2.868   9.937   0.619  0.0876 -0.0139 -0.2149
 2363W        W 2563   4.931   2.440  17.886  0.2666 -0.0749  0.2231
 2364W        W 2564   2.538   9.320   0.860  0.2178  0.1165 -0.1580
 2365W        W 2565   8.009   3.167   3.830 -0.0260  0.0827  0.1444
 2366W        W 2566   2.485   9.211   6.344 -0.1961 -0.0286  0.3769
 2367W        W 2567   6.569   9.623   3.142 -0.2646  0.1184  0.4039
 2368W        W 2568   3.456  13.210   0.834  0.2916  0.4139 -0.0092
 2369W        W 2569  16.884   5.947  17.879  0.0259 -0.1199  0.0128
 2370W        W 2570   0.346   7.095  17.122 -0.0012  0.0383 -0.0344
 2371W        W 2571   1.920  14.527  15.882 -0.2799  0.0339  0.0571
 2372W        W 2572  10.023   9.947   7.982 -0.3085  0.0619 -0.0343
 2373W        W 2573   3.940  12.516   7.137  0.0486 -0.1852 -0.1273
 2374W        W 2574   2.539  17.898  18.202  0.2819 -0.0216 -0.0595
 2375W        W 2575  10.062   6.356   6.298  0.1755 -0.0188 -0.0239
 2376W        W 2576   3.636   5.883  12.644 -0.2163 -0.0297 -0.1095
 2377W        W 2577   3.313  16.036   3.161 -0.0913 -0.0279 -0.0398
 2378W        W 2578  15.378   2.953   8.366 -0.0594 -0.2384 -0.0047
 2379W        W 2579  14.585  10.775  16.220  0.1532 -0.0935 -0.0419
 2380W        W 2580   4.291   5.533  10.549  0.1462  0.0845  0.1620
 2381W        W 2581  17.011   8.306   1.222  0.2486 -0.1080  0.1121
 2382W        W 2582   8.427   3.500   6.945 -0.3947 -0.1403  0.0599
 2383W        W 2583   5.366   2.651  17.575 -0.0435  0.2273  0.2914
 2384W        W 2584   1.401  10.981   1.857 -0.1134 -0.2036  0.0735
 2385W        W 2585   2.692   9.838   2.506  0.3229  0.0809 -0.1294
 2386W        W 2586  17.015   0.503  16.210  0.0089  0.1162  0.0899
 2387W        W 2587   3.294   3.070   0.503  0.1899 -0.1050 -0.0145
 2388W        W 2588   8.163   6.351  16.300  0.0825  0.1633  0.0719
 2389W        W 2589  15.462  10.688  16.487  0.0736 -0.2256 -0.1759
 2390W        W 2590   4.877  12.033  15.108  0.0861 -0.1980 -0.1398
 2391W        W 2591   3.412   5.878   8.340  0.0438 -0.2122 -0.2132
 2392W        W 2592   5.107   1.361   3.800 -0.1474 -0.0625  0.0243
 2393W        W 2593  15.336  16.113   4.515 -0.1759  0.3281  0.2563
 2394W        W 2594  18.149  14.514  15.044 -0.3277  0.1788 -0.3023
 2395W        W 2595  16.972   5.881  11.715  0.1994  0.2917 -0.0700
 2396W        W 2596  13.408   9.854  16.218 -0.3246 -0.2785  0.1732
 2397W        W 2597  18.165  13.712  14.655  0.1923 -0.0798 -0.0915
 2398W        W 2598   3.250   0.722   3.028 -0.0435  0.1874 -0.0447
 2399W        W 2599   3.782   6.879  18.120  0.1014  0.2250 -0.1128
 2400W        W 2600   1.071  10.297   0.659 -0.1440 -0.1000  0.2842
 2401W        W 2601  16.063   7.033   0.299 -0.2281  0.1928 -0.0050
 2402W        W 2602   4.980   5.579   7.708 -0.2485 -0.1171  0.2214
 2403W        W 2603   1.153   5.169  17.401  0.1173 -0.0626 -0.2666
 2404W        W 2604  12.168  11.267  14.714  0.0766 -0.0846 -0.3112
 2405W        W 2605  12.022   4.243   5.201 -0.1221  0.3510 -0.3309
 2406W        W 2606   5.180   7.606   4.155  0.0493  0.0618  0.4055
 2407W        W 2607   3.369   9.045  17.920 -0.1918 -0.0351  0.1486
 2408W        W 2608   8.944   1.299   8.384 -0.6075  0.2270 -0.3562
 2409W        W 2609  13.824   3.660   3.513  0.0714  0.2049  0.2441
 2410W        W 2610   8.102  18.152   5.115  0.1276 -0.1002 -0.1071
 2411W        W 2611   5.242  10.931  16.088 -0.1261  0.0373  0.0096
 2412W        W 2612   7.667   6.931   6.111 -0.1824  0.1159 -0.4414
 2413W        W 2613   2.426   2.257   3.729 -0.2585  0.1586 -0.1652
 2414W        W 2614  11.552  13.737   8.654 -0.1375 -0.0702 -0.1743
 2415W        W 2615   6.938  14.637   2.284  0.0117 -0.0375  0.1145
 2416W        W 2616   6.119  10.060  15.122  0.1329 -0.1828 -0.2942
 2417W        W 2617  17.186   5.534   2.278  0.0289  0.3149 -0.3168
 2418W        W 2618  17.836  14.926   0.883  0.2356 -0.0119 -0.3284
 2419W        W 2619   4.434   0.324   6.210  0.0119  0.0993  0.0446
 2420W        W 2620   5.009   1.941   4.896 -0.0567 -0.2681  0.0907
 2421W        W 2621   5.359   4.708   3.507 -0.0773  0.0251 -0.0137
 2422W        W 2622   9.817   4.417   4.200  0.1206  0.1215 -0.1403
 2423W        W 2623   3.683  12.689   1.073  0.1243 -0.0403 -0.1662
 2424W        W 2624   5.547   5.090  17.354 -0.1000  0.2822 -0.1457
 2425W        W 2625   9.333  16.022  16.415  0.1531  0.2585 -0.0047
 2426W        W 2626   3.555   3.348  17.796  0.0046 -0.0243  0.1383
 2427W        W 2627  14.333   1.564   9.004  0.0185 -0.3175  0.1047
 2428W        W 2628  16.167   4.862  16.798  0.1991 -0.0008  0.0850
 2429W        W 2629   0.054   7.663  18.030 -0.1155  0.3041 -0.2429
 2430W        W 2630  13.727   7.831   5.443 -0.1063  0.2267  0.0477
 2431W        W 2631   9.069   1.641  17.579 -0.2511 -0.1730 -0.0926
 2432W        W 2632  17.271   7.618  12.412 -0.3049  0.0262  0.0657
 2433W        W 2633   0.449   5.775  17.545 -0.0870 -0.1623  0.0986
 2434W        W 2634   7.162   9.850   1.663 -0.0421  0.0890 -0.0117
 2435W        W 2635   6.278  12.997   4.702 -0.0186 -0.1112 -0.1579
 2436W        W 2636   4.151   6.058  14.055  0.1318  0.0984 -0.4586
 2437W        W 2637   6.349   5.627  16.854 -0.0797 -0.1532 -0.0097
 2438W        W 2638  15.681   9.621   2.559  0.0479 -0.1525 -0.2600
 2439W        W 2639  17.747   3.328  13.656 -0.3871  0.2956  0.0923
 2440W        W 2640   5.530  15.403  17.873  0.0048 -0.0564  0.1832
 2441W        W 2641   3.193   5.972  15.778  0.0965 -0.1757  0.0984
 2442W        W 2642  13.153   0.846   4.875  0.3582 -0.0076  0.1181
 2443W        W 2643   6.397   3.548   6.975 -0.3767  0.1959  0.1619
 2444W        W 2644   8.161   6.669   0.852 -0.1793  0.0130 -0.0083
 2445W        W 2645  11.852   9.025  13.535  0.2918  0.2968 -0.0116
 2446W        W 2646  11.169   4.548   0.506  0.3665 -0.0029 -0.1735
 2447W        W 2647   5.235   4.807   6.288  0.1835  0.1743 -0.0099
 2448W        W 2648   4.351   6.472   5.891  0.0710 -0.1485 -0.1169
 2449W        W 2649   0.491   7.096  10.176  0.1356 -0.1980 -0.1885
 2450W        W 2650   3.214   7.705  14.805  0.1808 -0.1249  0.0278
 2451W        W 2651   7.647   9.275  16.810 -0.1835  0.0601  0.0139
 2452W        W 2652  15.833   4.067   0.866 -0.1156  0.0438  0.1326
 2453W        W 2653  14.105  10.729  12.352 -0.0260 -0.3474 -0.0124
 2454W        W 2654  18.109  14.674   1.299  0.1786 -0.2257 -0.2208
 2455W        W 2655   6.854   9.905   6.775 -0.1582 -0.0570 -0.0334
 2456W        W 2656   2.847   8.620   2.924 -0.4520 -0.2269 -0.0149
 2457W        W 2657   6.846   0.838   0.825  0.2654  0.1074 -0.0422
 2458W        W 2658  17.735   2.360   4.424 -0.1194  0.0123  0.1017
 2459W        W 2659   7.922   1.330  13.777 -0.1941  0.3067 -0.0731
 2460W        W 2660   7.289  12.518  14.646  0.1278 -0.1492  0.0074
 2461W        W 2661   4.943  10.926   5.383  0.1823  0.0208 -0.2091
 2462W        W 2662   2.387   6.790   0.105  0.2108  0.0742 -0.2189
 2463W        W 2663   6.432  12.104  11.157  0.3479  0.1196 -0.0396
 2464W        W 2664   4.329   9.749  11.759  0.2190  0.1684  0.0406
 2465W        W 2665   2.756   0.603   2.900 -0.0044 -0.1976 -0.1864
 2466W        W 2666   9.590   8.773   7.288  0.1786  0.2065  0.0324
 2467W        W 2667  13.916   2.117   8.494 -0.1059  0.1007 -0.0929
 2468W        W 2668  13.758  11.870   3.548  0.2304  0.0282 -0.1971
 2469W        W 2669  12.974  16.821   5.655  0.0381 -0.1184  0.1527
 2470W        W 2670   4.040   3.283  17.795  0.3761  0.0819  0.0081
 2471W        W 2671   9.722  13.200   4.845  0.4862 -0.1232 -0.1397
 2472W        W 2672   9.832  16.736   1.493 -0.0587  0.0303 -0.2016
 2473W        W 2673   1.326   5.682  14.777  0.0629 -0.1012  0.1482
 2474W        W 2674   1.299  10.244  13.607 -0.0235 -0.0671  0.0137
 2475W        W 2675  17.248   4.323   4.501  0.1261  0.1098 -0.0733
 2476W        W 2676  15.416   3.724   8.198  0.0372  0.3450 -0.0827
 2477W        W 2677   5.877   7.732   2.450 -0.0719  0.1080 -0.0048
 2478W        W 2678   3.976   2.900  10.755 -0.1920 -0.0050  0.1737
 2479W        W 2679  12.448  11.163   0.545 -0.1723  0.0534 -0.1365
 2480W        W 2680   8.489   8.064   4.394 -0.1715 -0.2983  0.2427
 2481W        W 2681  13.466   0.047   3.654  0.2636  0.2935 -0.0119
 2482W        W 2682   3.737   6.200   9.383 -0.3412  0.1212  0.0335
 2483W        W 2683  11.270   8.299   0.641  0.0832  0.0778  0.0637
 2484W        W 2684  14.827   4.593   8.045 -0.1445 -0.1531  0.0001
 2485W        W 2685   2.488  12.080   2.324 -0.2122 -0.0620  0.1619
 2486W        W 2686   0.776   8.963   5.092 -0.1605 -0.3121  0.1842
 2487W        W 2687   9.525   3.492   1.839 -0.0764  0.0977  0.0036
 2488W        W 2688   0.307  17.016  13.865  0.2896 -0.1007 -0.0023
 2489W        W 2689   8.169   1.213   8.792 -0.1612  0.1847 -0.1336
 2490W        W 2690   7.760  12.418   5.729 -0.4056  0.2425  0.2404
 2491W        W 2691   2.858  12.769  15.229 -0.1913 -0.0500 -0.2387
 2492W        W 2692   3.517   7.007   1.320 -0.0804  0.0341  0.0363
 2493W        W 2693   8.596  17.742  13.676  0.3229  0.0939  0.1235
 2494W        W 2694   7.794   7.283   6.536 -0.0499  0.0678  0.1187
 2495W        W 2695  16.360   6.708  10.979  0.0157  0.0784 -0.0534
 2496W        W 2696   1.065   8.248   8.962 -0.0802 -0.1949 -0.3439
 2497W        W 2697   0.948   7.760   4.084  0.3630  0.0257  0.0750
 2498W        W 2698   6.032  15.034   8.138 -0.3771  0.0257 -0.1048
 2499W        W 2699  17.349  13.021  13.614 -0.2009  0.0934  0.0666
 2500W        W 2700   0.185   4.752   8.017  0.0536  0.2133  0.0033
 2501W        W 2701   2.803   3.586   5.401 -0.3388 -0.0701 -0.1530
 2502W        W 2702  16.245   6.918  15.639  0.2223 -0.1317  0.2484
 2503W        W 2703   2.714  11.759   2.626 -0.0183  0.0875 -0.2284
 2504W        W 2704  15.613   9.706   7.499  0.3062 -0.0197  0.0550
 2505W        W 2705   3.468   6.434   2.777  0.0899  0.1394  0.1752
 2506W        W 2706   9.973   9.881   1.321 -0.1927  0.0791  0.1417
 2507W        W 2707   5.160   7.626   2.976 -0.0840  0.0922  0.2779
 2508W        W 2708   2.113   6.222   1.198  0.1642 -0.3190  0.1208
 2509W        W 2709   5.640   5.700   6.345 -0.0238  0.0755  0.0946
 2510W        W 2710   0.345   3.821   2.352  0.2774  0.0370  0.2902
 2511W        W 2711   1.969   4.776   1.162 -0.1284  0.0244  0.0087
 2512W        W 2712   4.301  13.852  18.000 -0.1210  0.0288  0.0061
 2513W        W 2713  16.103   6.055   3.872  0.0260 -0.3132 -0.4030
 2514W        W 2714   5.687   9.136   4.255 -0.1136 -0.1475  0.0600
 2515W        W 2715  16.642   9.516  14.575 -0.4040 -0.1709  0.2305
 2516W        W 2716   0.744   5.779  12.570  0.0122  0.0107  0.1417
 2517W        W 2717   7.654   0.973   3.127 -0.1500 -0.2491  0.2030
 2518W        W 2718   4.628  11.602  12.268  0.0650  0.2462 -0.0328
 2519W        W 2719   8.373   5.823  11.167 -0.3781 -0.0618 -0.0110
 2520W        W 2720  11.178   4.091   0.284 -0.1433  0.1875  0.4662
 2521W        W 2721   8.445  15.371   5.296 -0.0841  0.2486  0.0673
 2522W        W 2722   1.200   2.301  15.886  0.1314 -0.3352 -0.1046
 2523W        W 2723  16.656  17.306   3.927 -0.2255  0.0648  0.0610
 2524W        W 2724   0.560   9.353   1.755  0.0945 -0.1188 -0.3268
 2525W        W 2725   5.566   6.660  17.617  0.2049 -0.2653 -0.2868
 2526W        W 2726   2.989   2.427   1.257 -0.0502 -0.2379  0.4242
 2527W        W 2727  13.700   6.286   9.735  0.1708 -0.1010 -0.1627
 2528W        W 2728   1.999   5.533   2.550 -0.0911  0.2576  0.0740
 2529W        W 2729   4.372   1.581   8.638  0.0433  0.0957  0.0659
 2530W        W 2730   2.971   3.578  12.314 -0.2115 -0.1318 -0.3149
 2531W        W 2731   9.954   7.089   2.859  0.1628 -0.0911  0.1302
 2532W        W 2732  15.245   4.538  12.560  0.0693 -0.3154 -0.0731
 2533W        W 2733  16.092   8.992   5.494  0.0903  0.3400  0.1116
 2534W        W 2734   5.254   9.542   8.429 -0.0355  0.0469  0.0555
 2535W        W 2735  17.700   8.335   3.297 -0.2376  0.0803 -0.1797
 2536W        W 2736   8.079   1.310   3.046  0.1972 -0.0179 -0.2333
 2537W        W 2737  12.473  12.013   5.235 -0.0906 -0.1561  0.0756
 2538W        W 2738   5.353   3.406   3.336 -0.3207 -0.1864  0.1694
 2539W        W 2739   4.520   7.781  17.583  0.2853 -0.2300  0.0690
 2540W        W 2740  14.953   5.798   4.580 -0.0165 -0.1631 -0.0863
 2541W        W 2741   5.691   0.611   2.038 -0.1382  0.4216  0.2971
 2542W        W 2742   5.531   2.660  12.399  0.1289 -0.0061  0.0189
 2543W        W 2743   4.737  10.116  12.431 -0.1036 -0.1202 -0.2459
 2544W        W 2744   0.924  17.633   2.532 -0.0944  0.1037  0.0931
 2545W        W 2745  15.690   4.328  17.924 -0.0022 -0.3122  0.1082
 2546W        W 2746   3.373  18.056   4.621  0.1750 -0.1711  0.3189
 2547W        W 2747   1.384   2.096   2.073 -0.2773  0.1815 -0.0883
 2548W        W 2748   3.910  13.075  11.163 -0.2204 -0.1284 -0.3225
 2549W        W 2749   1.689   0.604  14.746 -0.1013 -0.0217 -0.0350
 2550W        W 2750   7.418   8.749   9.317  0.0356  0.1805 -0.3588
 2551W        W 2751  17.944   8.356   5.867  0.1597 -0.1293  0.1564
 2552W        W 2752  12.771  15.854  18.088 -0.0364  0.1014  0.1289
 2553W        W 2753   9.381   8.135  15.421 -0.1487  0.4263  0.2671
 2554W        W 2754   5.024   8.992  17.246 -0.1637 -0.2662  0.0030
 2555W        W 2755   1.170   4.422  14.210  0.1630  0.2101  0.1175
 2556W        W 2756   0.345   1.085   5.116  0.2102  0.0360  0.0989
 2557W        W 2757   4.917   4.648   3.875 -0.1148 -0.3035 -0.1237
 2558W        W 2758  17.878   7.521  12.287 -0.0888  0.0896  0.0233
 2559W        W 2759  16.633  16.296  10.662  0.1082 -0.0912 -0.2444
 2560W        W 2760   2.902  10.845   2.940 -0.0250 -0.1956  0.3828
 2561W        W 2761   0.310   1.755   1.248  0.3248 -0.1708 -0.0731
 2562W        W 2762   2.129   4.995   6.072 -0.0043  0.1864 -0.0937
 2563W        W 2763  10.073   2.707   4.884 -0.1315 -0.1000  0.0758
 2564W        W 2764   6.775  13.963   3.168 -0.0671  0.2856  0.0142
 2565W        W 2765   2.610   3.577  10.523 -0.1089 -0.0486 -0.3079
 2566W        W 2766   3.342   5.657   2.030  0.1580  0.2193  0.0727
 2567W        W 2767   9.650   7.015  10.394 -0.2721 -0.1396 -0.0033
 2568W        W 2768  13.997   6.244   7.014  0.0392 -0.1404 -0.0061
 2569W        W 2769  16.359   2.034   5.694  0.2272 -0.2102 -0.0802
 2570W        W 2770  13.804   9.454  12.564  0.1235 -0.0649 -0.1502
 2571W        W 2771  16.719   7.369   3.409 -0.0638  0.0155 -0.0323
 2572W        W 2772  11.761   3.002   4.607 -0.2117  0.0228  0.2518
 2573W        W 2773  14.391   7.901   9.398 -0.1004  0.2991 -0.1537
 2574W        W 2774   3.778   5.557   4.142 -0.0451  0.0050 -0.0826
 2575W        W 2775   2.080   6.829  17.499  0.0165 -0.1576 -0.3015
 2576W        W 2776   4.003   1.199  13.951  0.1793  0.0039 -0.2273
 2577W        W 2777   6.559   5.421  16.254 -0.0677  0.1825  0.1873
 2578W        W 2778   8.895   2.203   7.316  0.0986 -0.2841 -0.1871
 2579W        W 2779  15.146   9.043   4.282  0.1955  0.1461  0.1301
 2580W        W 2780   0.643  16.611   8.805 -0.2411 -0.3760  0.1912
 2581W        W 2781   7.570  17.007   8.499  0.1025 -0.0657  0.1856
 2582W        W 2782  13.236   4.373  15.416 -0.1595 -0.2372  0.4536
 2583W        W 2783   0.487   4.018  15.294 -0.2551 -0.0121 -0.0896
 2584W        W 2784   0.267   4.624   0.164 -0.0270  0.0086 -0.0652
 2585W        W 2785   8.809   2.219   0.732 -0.1110  0.0159 -0.1553
 2586W        W 2786   5.950   6.664  13.553  0.1392 -0.5903  0.1605
 2587W        W 2787  15.010   2.124   4.212  0.1705 -0.0861 -0.4402
 2588W        W 2788   4.835  15.329   6.521 -0.4706  0.2091 -0.1451
 2589W        W 2789  14.161   2.686  12.397  0.1592  0.1562  0.0853
 2590W        W 2790   2.016   4.739   5.230  0.0005 -0.1744 -0.0312
 2591W        W 2791   6.819   3.047   7.691 -0.1753  0.1435 -0.1075
 2592W        W 2792   7.840   9.550   7.567  0.1458  0.2185 -0.3443
 2593W        W 2793   1.974  15.358   7.046 -0.2712 -0.0262 -0.0544
 2594W        W 2794   7.470   6.077  17.689 -0.0698  0.0806 -0.1519
 2595W        W 2795   3.331   6.346   3.872  0.0494 -0.1847  0.0587
 2596W        W 2796  12.241   6.617  17.482 -0.0389  0.2651 -0.0454
 2597W        W 2797   9.516   7.253   3.008  0.1323 -0.1168  0.0770
 2598W        W 2798  17.335   2.156   0.605 -0.3230 -0.0904 -0.1043
 2599W        W 2799  14.169   5.464  10.273 -0.3279  0.0383  0.1605
 2600W        W 2800   9.080   9.361   3.107  0.1276 -0.0591  0.2861
 2601W        W 2801   0.699   3.365   5.110  0.0748 -0.2326 -0.3813
 2602W        W 2802   2.887   7.328  12.591 -0.2584 -0.0118  0.2306
 2603W        W 2803   2.846   7.314  14.820  0.0505 -0.2837 -0.0465
 2604W        W 2804   4.019   0.495  10.008 -0.1583  0.0723  0.0127
 2605W        W 2805   0.180   5.383  14.007 -0.2518 -0.4317  0.1630
 2606W        W 2806   6.812  12.321   4.191 -0.4130  0.0217  0.2193
 2607W        W 2807   0.066   5.001  14.700  0.1760  0.0674 -0.0099
 2608W        W 2808   3.101   6.025  13.022  0.0152  0.1393  0.1722
 2609W        W 2809  13.765   0.040   2.473 -0.1203 -0.0709 -0.2435
 2610W        W 2810   5.988  16.627   3.461  0.2130 -0.0903  0.4055
 2611W        W 2811  18.148   2.647   8.001  0.0829  0.0873  0.0356
 2612W        W 2812   3.761  12.820   0.569  0.2852  0.0925  0.0582
 2613W        W 2813   2.091   0.787   5.891 -0.1911  0.0808 -0.0229
 2614W        W 2814  13.508   8.278   7.151 -0.2564  0.2754  0.2056
 2615W        W 2815   0.246  13.653  11.077 -0.0356 -0.0698 -0.0799
 2616W        W 2816   1.416   8.850   1.963  0.1764 -0.0835  0.0956
 2617W        W 2817   8.702   7.249   1.539  0.1517  0.0622 -0.0857
 2618W        W 2818  16.817   5.778   6.493  0.2862  0.3118  0.1498
 2619W        W 2819  14.401  18.134   9.535  0.0631 -0.2623 -0.2565
 2620W        W 2820   0.420  14.232  12.507  0.0291 -0.4082 -0.0777
 2621W        W 2821   9.392   6.053  12.340 -0.0250  0.0468 -0.3509
 2622W        W 2822   6.315   9.037   7.443 -0.3326 -0.0991 -0.0963
 2623W        W 2823   3.781  11.037   5.990  0.2664 -0.1002 -0.0331
 2624W        W 2824  16.535  15.241   5.926 -0.3303 -0.1507  0.0662
 2625W        W 2825   5.478  11.777  13.515  0.0400 -0.2531  0.1354
 2626W        W 2826   4.488   3.797   7.180  0.4094 -0.0814 -0.1736
 2627W        W 2827   5.839  10.696   1.984  0.2339 -0.0160 -0.1208
 2628W        W 2828   7.727   1.861  15.115  0.1436 -0.1968 -0.3024
 2629W        W 2829   0.876   8.462   1.224 -0.1286 -0.2077  0.1707
 2630W        W 2830   1.248  16.217  14.584 -0.0390 -0.1647 -0.1643
 2631W        W 2831  11.567   9.137  17.488 -0.3620 -0.2635 -0.2880
 2632W        W 2832   3.746   9.500   5.667  0.2470  0.0209  0.0919
 2633W        W 2833   6.677   3.990  15.502  0.0002  0.0558 -0.3523
 2634W        W 2834   0.985   9.941   7.125 -0.4142  0.0320  0.0367
 2635W        W 2835   2.111   5.054   3.860 -0.2114  0.1389  0.1448
 2636W        W 2836  16.562  12.815   5.268 -0.1157  0.0092  0.4282
 2637W        W 2837   1.245   7.102   1.617 -0.1929  0.0771  0.0423
 2638W        W 2838   1.772   7.038   0.404 -0.3190 -0.0568 -0.4660
 2639W        W 2839  14.563   8.123  10.203  0.2576 -0.1599 -0.0339
 2640W        W 2840   5.665   7.985   7.924 -0.0359  0.2655 -0.1993
 2641W        W 2841   8.033   2.047   8.774 -0.0504  0.0311 -0.1329
 2642W        W 2842  15.168   1.605   7.870  0.1201 -0.2444  0.0626
 2643W        W 2843   6.076  10.515   4.000 -0.4388 -0.0234 -0.0000
 2644W        W 2844  16.465   4.455   6.751 -0.0087  0.0025 -0.1468
 2645W        W 2845   5.616  12.694   0.612 -0.3220  0.0604  0.3362
 2646W        W 2846   5.002   6.878   3.227 -0.1414  0.0443 -0.0600
 2647W        W 2847   2.683   3.325   0.508  0.0077  0.3721 -0.3722
 2648W        W 2848  14.113   1.048   6.217 -0.1260 -0.1179 -0.2417
 2649W        W 2849   1.265   7.083  13.819  0.4585  0.1535  0.0138
 2650W        W 2850   2.118   6.869  14.760  0.4243  0.1664 -0.2603
 2651W        W 2851   2.193   1.554   4.508  0.0042 -0.0961 -0.0461
 2652W        W 2852  10.630   9.333   3.444 -0.1097 -0.2271  0.1900
 2653W        W 2853  11.173   2.896   3.891  0.0915 -0.2659  0.0642
 2654W        W 2854  17.589   5.239  14.155 -0.0487 -0.2363  0.0134
 2655W        W 2855   0.197   8.473   4.206  0.2953 -0.0784  0.0850
 2656W        W 2856  16.615   8.941   4.974 -0.3707  0.0085 -0.1271
 2657W        W 2857   4.008   9.056  10.791  0.1007  0.1156 -0.1510
 2658W        W 2858   9.255   6.828  10.107  0.1904 -0.1089 -0.0663
 2659W        W 2859   2.394   1.015   3.834 -0.0669  0.1752  0.1286
 2660W        W 2860   1.961   1.615   6.957  0.1267  0.2618  0.0798
 2661W        W 2861   2.253   0.462   2.163 -0.0286  0.0351 -0.1183
 2662W        W 2862   0.318  14.935   1.418 -0.4605  0.0290 -0.0761
 2663W        W 2863   2.965   0.933  15.909  0.0576 -0.0089 -0.0167
 2664W        W 2864   7.306  10.713   0.539 -0.0291 -0.2284 -0.1299
 2665W        W 2865   0.888  11.496  16.685 -0.0267 -0.0537 -0.2762
 2666W        W 2866   2.373  14.583   2.149  0.0110 -0.1971  0.1342
 2667W        W 2867   7.361   8.441  11.397 -0.0275 -0.0622 -0.2261
 2668W        W 2868   2.947   9.607  12.240 -0.1127  0.0029  0.0399
 2669W        W 2869   2.886  12.347   4.909 -0.0364 -0.1966  0.1663
 2670W        W 2870   2.592   2.780   5.385  0.2041  0.2386  0.3137
 2671W        W 2871   9.378   5.858   2.830  0.3370 -0.3516  0.1734
 2672W        W 2872   4.606   6.787  10.601  0.2760 -0.0761  0.1697
 2673W        W 2873  17.112   7.693   3.327 -0.1619 -0.1757  0.1814
 2674W        W 2874   6.916  10.368   1.431  0.1058  0.0047 -0.0152
 2675W        W 2875   0.279  12.280   9.946  0.2629  0.1872  0.1925
 2676W        W 2876  18.105  14.432  15.925 -0.1608 -0.3451 -0.0903
 2677W        W 2877   4.198   5.122   5.892  0.1331 -0.2352  0.2707
 2678W        W 2878  10.132  11.594   9.023  0.0179  0.0248  0.1540
 2679W        W 2879   1.095   1.741  13.113 -0.2044 -0.1913 -0.3084
 2680W        W 2880   3.492   6.484   5.597 -0.1967  0.1254  0.5172
 2681W        W 2881   5.613   0.735   4.261 -0.1139 -0.0096  0.0443
 2682W        W 2882   7.539   6.203   6.650 -0.1345  0.1345  0.2042
 2683W        W 2883   5.915   0.162   2.755 -0.0952 -0.4116  0.1300
 2684W        W 2884   3.888   5.343   5.039 -0.1015  0.0492 -0.2175
 2685W        W 2885   5.009   5.703   5.746 -0.1000 -0.0012 -0.1750
 2686W        W 2886   6.416   1.786   7.267  0.3358  0.1159 -0.1252
 2687W        W 2887   6.549   2.919  18.170  0.4020 -0.0274  0.1271
 2688W        W 2888  17.177  18.203  10.654 -0.0950  0.3340 -0.0897
 2689W        W 2889   2.451  16.065   2.853 -0.1518 -0.1776 -0.3063
 2690W        W 2890  15.862  15.391   2.936  0.0520 -0.0810  0.1308
 2691W        W 2891   0.939   4.814   6.726  0.0573 -0.0444 -0.0741
 2692W        W 2892   6.687   3.437   2.255  0.3302 -0.4643  0.0113
 2693W        W 2893  11.902   4.935   7.103 -0.0073 -0.0218  0.3796
 2694W        W 2894  15.239   9.577   9.935 -0.1509 -0.0374 -0.2342
 2695W        W 2895   8.167   7.785   2.573 -0.0660 -0.1244 -0.1878
 2696W        W 2896   0.459   9.149   0.478 -0.1055 -0.0383 -0.0935
 2697W        W 2897  16.389   1.371   0.071 -0.0685  0.0609  0.2121
 2698W        W 2898   0.293   4.621   5.468  0.0561  0.2009 -0.3809
 2699W        W 2899   1.923   4.835  15.581  0.3032  0.1044 -0.1761
 2700W        W 2900   8.423   6.513   3.037 -0.3070  0.2304 -0.0703
 2701W        W 2901  14.410   4.591   3.679  0.0950 -0.1692  0.1985
 2702W        W 2902  10.659   5.318   0.783 -0.0161  0.3121 -0.2008
 2703W        W 2903   4.473   0.876  14.969 -0.0928 -0.2186  0.1597
 2704W        W 2904   9.149   6.780  17.242  0.0208  0.0951  0.2564
 2705W        W 2905  12.103   7.103   1.474  0.0959  0.0663  0.0223
 2706W        W 2906   6.693   1.402   0.983 -0.0915 -0.1896 -0.2648
 2707W        W 2907   3.840   7.372   6.947 -0.3010  0.3087 -0.0767
 2708W        W 2908   2.204   4.106   0.792  0.1286 -0.3461 -0.2856
 2709W        W 2909   3.101  11.405   8.404 -0.1927  0.1481 -0.2635
 2710W        W 2910   1.761   8.842   2.280  0.0100 -0.3808  0.0171
 2711W        W 2911   6.570   5.266  12.851  0.0870  0.0860  0.0233
 2712W        W 2912  15.108   6.908  17.404 -0.4246 -0.3026  0.0865
 2713W        W 2913  14.821   8.289   5.769 -0.0382  0.1698  0.2756
 2714W        W 2914  10.305   3.160   7.553 -0.2873  0.0677  0.2132
 2715W        W 2915   1.726   2.996   7.225 -0.0212  0.1627 -0.2730
 2716W        W 2916   4.260   6.537   3.150  0.4861 -0.0540  0.0541
 2717W        W 2917  17.910   8.996  15.767 -0.0064 -0.0943  0.4614
 2718W        W 2918   4.406   9.231   6.633 -0.0184 -0.0201 -0.1772
 2719W        W 2919  17.973   2.604  13.598  0.2459 -0.1716 -0.3197
 2720W        W 2920  13.310  10.592   8.189 -0.2475 -0.0729  0.0734
 2721W        W 2921   4.470   4.269  10.474  0.0854  0.2990 -0.2319
 2722W        W 2922   4.674   8.221   6.806  0.0583  0.1721  0.0670
 2723W        W 2923  17.460   1.858  10.295  0.3333 -0.0434 -0.0694
 2724W        W 2924   8.849   2.648   9.073 -0.1011  0.1850  0.1936
 2725W        W 2925   0.704   6.068   5.845 -0.0539  0.1650  0.1705
 2726W        W 2926  17.772   2.930  10.894 -0.0953 -0.0598  0.4089
 2727W        W 2927   4.701  16.112   4.953  0.1957  0.0182  0.0973
 2728W        W 2928   8.728   5.221   3.112 -0.3441 -0.3672  0.0046
 2729W        W 2929   2.746   0.204  15.444  0.0059 -0.0529 -0.0921
 2730W        W 2930  14.858   2.698  16.906  0.1084 -0.0720  0.0263
 2731W        W 2931   6.656   1.435   2.423 -0.0843 -0.3532 -0.0747
 2732W        W 2932   2.326   3.221  13.380  0.1899 -0.2595 -0.1408
 2733W        W 2933  10.993   6.210  11.877 -0.0482 -0.0280 -0.1477
 2734W        W 2934  17.531   3.616   8.475  0.0852 -0.1065  0.1186
 2735W        W 2935  11.551   1.110   7.544 -0.1149 -0.3415 -0.2713
 2736W        W 2936  15.561  14.385   9.874 -0.1440  0.1222  0.1421
 2737W        W 2937   8.507   5.939   6.873 -0.2026 -0.1697  0.0052
 2738W        W 2938  13.481   3.206   9.307  0.0466  0.1345 -0.0977
 2739W        W 2939   5.410  16.123  11.561  0.0824  0.1242  0.1134
 2740W        W 2940  13.416   3.530   8.024  0.0658 -0.2317  0.4024
 2741W        W 2941   1.127   5.556   5.585 -0.1480 -0.0569 -0.2307
 2742W        W 2942  15.615   7.986   1.148 -0.0339  0.0852 -0.2540
 2743W        W 2943  16.601   1.602   7.678 -0.2353 -0.4267 -0.0501
 2744W        W 2944   6.584   7.137   1.850 -0.1534  0.0664  0.0811
 2745W        W 2945   4.162  18.106   4.672  0.2877  0.0571 -0.0751
 2746W        W 2946   0.689   8.388  16.909 -0.0384 -0.1365 -0.3876
 2747W        W 2947  14.073   1.037   0.692  0.1878  0.0393  0.0917
 2748W        W 2948   3.975   7.475  10.592 -0.0368  0.3776  0.0428
 2749W        W 2949   5.540   5.174  17.877  0.2864  0.1471  0.1702
 2750W        W 2950  18.120   5.068   3.985  0.2479 -0.0802  0.1528
 2751W        W 2951   7.498   6.390  14.898 -0.0394 -0.3221 -0.4781
 2752W        W 2952   3.271  10.190  11.725  0.1837  0.1443  0.1736
 2753W        W 2953   2.316   8.980  16.187 -0.0006 -0.1402 -0.2336
 2754W        W 2954   2.663  17.584   7.037 -0.1372 -0.2354  0.4909
 2755W        W 2955  14.085   7.160   6.234 -0.0421 -0.3498  0.2851
 2756W        W 2956   8.132  10.727   8.654 -0.2488  0.0150  0.0239
 2757W        W 2957   2.408   3.074   2.840  0.2523  0.0633  0.0492
 2758W        W 2958  13.481   2.271  12.993 -0.2272 -0.0249  0.2899
 2759W        W 2959   5.961   1.848   7.113 -0.0837  0.1417  0.0041
 2760W        W 2960  16.894   9.000  17.125  0.0949  0.1344  0.0063
 2761W        W 2961  16.816   3.066   8.077 -0.2774 -0.1914  0.1522
 2762W        W 2962   8.531   2.764   5.635  0.0022  0.1976 -0.1491
 2763W        W 2963  13.226   4.763   1.742  0.2045 -0.0370  0.1895
 2764W        W 2964   6.954   5.742   3.231  0.2198  0.1356 -0.0859
 2765W        W 2965   8.040   6.056   6.786 -0.1200 -0.0069  0.1974
 2766W        W 2966  12.576   2.060   0.143 -0.1069 -0.0201  0.1429
 2767W        W 2967  11.375   4.265   7.052 -0.0435  0.0475  0.1641
 2768W        W 2968   1.667   5.254   8.569 -0.0041  0.0253 -0.1626
 2769W        W 2969   3.588  14.054  16.996 -0.2356 -0.0056 -0.2636
 2770W        W 2970   1.233   2.554   5.048 -0.1506 -0.0098 -0.1525
 2771W        W 2971   2.623  11.333   6.080 -0.0190  0.2015  0.0217
 2772W        W 2972   3.126   7.248   2.741  0.0849 -0.1491  0.1137
 2773W        W 2973   4.863   2.021  16.379  0.1368 -0.0694 -0.0741
 2774W        W 2974   4.971   5.070   3.561  0.2648  0.1958  0.2228
 2775W        W 2975   5.622  14.461  14.179 -0.2504 -0.1246 -0.0308
 2776W        W 2976   4.054   6.382   5.474 -0.2706  0.0059  0.0769
 2777W        W 2977   4.437  11.932   5.492  0.3820  0.2375 -0.0621
 2778W        W 2978   8.584   5.189   8.184  0.0392 -0.2939  0.0762
 2779W        W 2979  17.079   2.614   7.026  0.1602  0.0022  0.1222
 2780W        W 2980  11.203  16.764   3.180  0.0235 -0.2200  0.2656
 2781W        W 2981   7.073  12.025   8.240  0.1249  0.0152 -0.1114
 2782W        W 2982  16.396   1.821  12.206  0.1283  0.2194  0.0142
 2783W        W 2983  17.452   9.200   1.415 -0.0095 -0.0029  0.2499
 2784W        W 2984   1.319   3.805   2.234 -0.3488  0.4167  0.2406
 2785W        W 2985  11.334   1.721   4.151  0.0964 -0.0894 -0.0968
 2786W        W 2986   0.306   2.343   3.940  0.4756 -0.1488  0.0908
 2787W        W 2987  17.292   8.734   8.667 -0.1328  0.1948  0.0523
 2788W        W 2988   4.173   5.585   7.934 -0.0466  0.0850 -0.1653
 2789W        W 2989  17.785   3.163   5.134 -0.0197  0.0998  0.0886
 2790W        W 2990  14.507   5.998   7.906  0.2737  0.0187 -0.2519
 2791W        W 2991  12.327   9.190   8.221  0.1236  0.0024  0.2594
 2792W        W 2992  15.919  17.901   8.773  0.0407 -0.1148  0.1896
 2793W        W 2993   1.747  17.509   9.686 -0.1298  0.0054 -0.0465
 2794W        W 2994   0.584   7.011   0.139 -0.1113 -0.2889 -0.0914
 2795W        W 2995  14.234   9.643   8.774 -0.0824 -0.2702 -0.1048
 2796W        W 2996   4.367  18.054   5.490 -0.1930  0.0976  0.0525
 2797W        W 2997   2.491   8.030   3.725  0.3414 -0.0071  0.1939
 2798W        W 2998   5.855  15.381   8.879  0.0775 -0.1569 -0.2078
 2799W        W 2999  10.503  13.782  10.989 -0.3239  0.0810  0.0057
 2800W        W 3000   6.819   4.705   1.772 -0.1721 -0.0836  0.1496
 2801W        W 3001   4.459   4.148  18.029 -0.0013 -0.1697  0.1492
 2802W        W 3002   4.523   8.247   1.041  0.1339 -0.0417 -0.0051
 2803W        W 3003   2.641   6.051   5.370  0.2851 -0.0836 -0.0186
 2804W        W 3004   7.321   7.974   6.302  0.2895  0.0697 -0.3292
 2805W        W 3005  15.223   0.948   4.701 -0.2558  0.1718 -0.1065
 2806W        W 3006  11.442   5.788  16.733 -0.0065 -0.0541  0.2590
 2807W        W 3007   1.260   4.984   0.458  0.0324 -0.0252  0.0221
 2808W        W 3008  18.095   5.813   8.294  0.1336  0.0788  0.2343
 2809W        W 3009   0.133   7.421   2.605 -0.2571  0.1292 -0.1804
 2810W        W 3010   7.525  13.300   6.108 -0.3471 -0.3616 -0.1234
 2811W        W 3011  10.851  10.587  15.753  0.2355  0.5150  0.1027
 2812W        W 3012  17.828   7.141  16.039  0.5614 -0.0198 -0.3348
 2813W        W 3013   7.300   3.978   3.433 -0.0290  0.1208 -0.3855
 2814W        W 3014   0.724   9.465   0.225  0.0043  0.1260 -0.0113
 2815W        W 3015   8.392   2.075   7.158 -0.0229  0.3013 -0.2409
 2816W        W 3016   8.218   4.331  17.166 -0.1276  0.3437  0.0810
 2817W        W 3017   0.995   1.673  14.624  0.3073 -0.0225  0.2488
 2818W        W 3018   3.992  10.833  15.732 -0.2251  0.0714 -0.1275
 2819W        W 3019   0.696   5.123   0.104 -0.1561 -0.4871 -0.1990
 2820W        W 3020  18.140   8.390   9.985 -0.1164  0.1245  0.0396
 2821W        W 3021  17.437   3.306   7.266  0.1011 -0.2529 -0.1166
 2822W        W 3022   5.336  11.549   8.889 -0.0299  0.0855 -0.3464
 2823W        W 3023  13.668   3.161  11.320 -0.0283  0.0346  0.0818
 2824W        W 3024   9.658  10.430   1.883 -0.0249  0.0621 -0.3461
 2825W        W 3025   0.421   2.889   8.847 -0.1362  0.0201  0.2010
 2826W        W 3026  17.667   3.392   4.581  0.2422 -0.3544  0.0105
 2827W        W 3027   0.754   0.872   8.242 -0.0576 -0.0794  0.1813
 2828W        W 3028  12.051   6.116  10.645 -0.1607 -0.3067  0.1467
 2829W        W 3029  11.584   7.945   8.328  0.0411  0.1197 -0.1213
 2830W        W 3030   7.003  16.958   4.754 -0.2765 -0.1000 -0.2969
 2831W        W 3031  10.634   7.020   5.848 -0.1488 -0.0497  0.0287
 2832W        W 3032   4.122   9.420   6.029  0.0153  0.0850 -0.2290
 2833W        W 3033   1.974   6.502   5.905  0.1438 -0.0656 -0.2102
 2834W        W 3034   3.997   9.675  11.414 -0.0591 -0.0112 -0.1546
 2835W        W 3035   4.972   8.623  16.969  0.2808 -0.0269 -0.2101
 2836W        W 3036   4.527   7.826  11.309  0.1366  0.1432 -0.2312
 2837W        W 3037  14.682   5.135   4.423 -0.1786  0.0181  0.5693
 2838W        W 3038   1.940   6.354   6.667  0.1448  0.1282  0.1690
 2839W        W 3039   0.401   1.346  16.736 -0.1816 -0.0816 -0.0672
 2840W        W 3040  15.889   7.335   2.193  0.1791  0.1917  0.0081
 2841W        W 3041  16.799   8.550   1.613  0.0768  0.0571  0.2096
 2842W        W 3042   4.164  14.720   4.862  0.0390 -0.1224 -0.0620
 2843W        W 3043  15.169   1.328   5.798  0.3499 -0.1090 -0.2377
 2844W        W 3044  16.706  16.971   5.357  0.0600  0.2052 -0.1249
 2845W        W 3045  16.616   9.048   6.548 -0.0258 -0.1617 -0.1148
 2846W        W 3046   5.072   5.596   4.868  0.1783 -0.1619  0.0097
 2847W        W 3047  17.968   9.384   6.444  0.1927 -0.1264 -0.0751
 2848W        W 3048  18.121   4.982  11.306  0.3026  0.1737 -0.0948
 2849W        W 3049   8.858   7.942   6.116  0.0722  0.0469  0.0877
 2850W        W 3050  14.710   8.227   8.547  0.1558 -0.2064 -0.3244
 2851W        W 3051   4.352  11.475   4.283  0.2382  0.0149 -0.0065
 2852W        W 3052   4.435   3.180  13.079  0.2572 -0.1094 -0.2184
 2853W        W 3053   1.525   5.873   6.931  0.4027  0.2241 -0.2467
 2854W        W 3054   4.481   0.733  12.260 -0.0289  0.0658  0.0941
 2855W        W 3055  16.675  13.778   7.971  0.0608 -0.1079  0.0219
 2856W        W 3056   3.549  12.058   7.787  0.0766  0.1556 -0.0377
 2857W        W 3057  16.567   3.468  10.924 -0.0867  0.1632  0.0850
 2858W        W 3058   7.474   4.475  15.967 -0.1059 -0.3751 -0.1153
 2859W        W 3059  17.478  10.605   8.996 -0.1985  0.0564 -0.0080
 2860W        W 3060   1.440   6.566   9.067  0.1768  0.0936 -0.3113
 2861W        W 3061  17.493   3.741  12.283 -0.0773  0.0819  0.2388
 2862W        W 3062   0.176   5.786   4.460  0.0931 -0.0007 -0.0229
 2863W        W 3063   4.078   5.508  11.479 -0.0138 -0.2468 -0.0141
 2864W        W 3064   1.058  17.530   7.263  0.0695 -0.1351 -0.0478
 2865W        W 3065  13.367   3.983  10.124  0.0602  0.0316 -0.1525
 2866W        W 3066   4.218   7.052  13.188  0.0372 -0.2823 -0.2794
 2867W        W 3067  10.981   5.262   2.205  0.1207  0.2447 -0.0598
 2868W        W 3068   3.789   8.751  16.132 -0.0802  0.1991  0.0074
 2869W        W 3069  17.717   4.843   5.271  0.1054 -0.0948 -0.0986
 2870W        W 3070  15.325   2.055   8.298  0.0365 -0.0530  0.5107
 2871W        W 3071  15.897   1.416  13.724 -0.0373 -0.2371 -0.1824
 2872W        W 3072   6.789   7.145   6.673 -0.0877 -0.0418  0.1362
 2873W        W 3073   6.941   4.847  14.840  0.1252 -0.1541  0.0132
 2874W        W 3074   4.832   9.442  10.130  0.0848 -0.0986 -0.2847
 2875W        W 3075  17.090   6.731   3.017 -0.0500 -0.2038 -0.0148
 2876W        W 3076   1.764   3.186  11.068 -0.1698  0.0293 -0.3018
 2877W        W 3077  11.039   2.930  15.936 -0.3371 -0.0150  0.1387
 2878W        W 3078   6.399  10.676  10.744 -0.1672 -0.0138  0.0134
 2879W        W 3079  13.530   8.328  13.590 -0.1549 -0.1557  0.0559
 2880W        W 3080  18.024   6.577   2.967 -0.0988  0.1808  0.0840
 2881W        W 3081   2.665   1.998  12.280 -0.1569 -0.1945  0.2615
 2882W        W 3082   3.050  15.860  11.545  0.2120  0.0891  0.3939
 2883W        W 3083   9.567   7.052   3.638 -0.1564 -0.0878 -0.1489
 2884W        W 3084   2.108  13.825   2.336 -0.0068 -0.1316  0.0870
 2885W        W 3085   5.768  15.975   3.887 -0.0493  0.4230  0.0967
 2886W        W 3086  16.379   7.313  16.022  0.0611 -0.1144  0.3110
 2887W        W 3087   6.879   3.391   5.651 -0.0483  0.4541 -0.2237
 2888W        W 3088   8.325   2.300  11.317 -0.1016 -0.2644 -0.1713
 2889W        W 3089   7.242  15.728  16.422  0.3197 -0.0573  0.0192
 2890W        W 3090   5.386   6.464   3.748 -0.0955  0.1711 -0.0932
 2891W        W 3091  13.403  11.186  11.733  0.3812  0.1243  0.4041
 2892W        W 3092   5.650   9.802  11.457  0.0448 -0.2112  0.1398
 2893W        W 3093   0.299   6.739   4.323 -0.0820  0.0033  0.0523
 2894W        W 3094   4.510   5.438   3.380 -0.1031 -0.2002 -0.0694
 2895W        W 3095   1.350   7.371  10.245  0.1435  0.2535 -0.0233
 2896W        W 3096   4.673   7.410   5.822  0.0456 -0.2958  0.1661
 2897W        W 3097   4.609   8.908   8.457  0.0840  0.5565 -0.0042
 2898W        W 3098   3.985   6.128   8.925  0.2663  0.0613  0.2163
 2899W        W 3099   3.860   6.918   4.452  0.0737 -0.3759  0.1018
 2900W        W 3100   4.146   8.345   5.276 -0.2254 -0.0709  0.1689
 2901W        W 3101  11.389   6.301   8.013 -0.1621 -0.1854 -0.1804
 2902W        W 3102  10.688   4.654  17.237 -0.1568 -0.1415 -0.1618
 2903W        W 3103  12.617   6.898   3.922 -0.2194 -0.1422 -0.1374
 2904W        W 3104   5.803   9.611   9.098  0.2582 -0.2514 -0.1491
 2905W        W 3105   0.108   7.723   4.695 -0.4530  0.0063  0.1989
 2906W        W 3106   4.434  11.948   3.636  0.1146 -0.0337 -0.1123
 2907W        W 3107   0.093   7.706  13.925  0.1027  0.1281  0.1123
 2908W        W 3108  16.882  10.651  12.224 -0.0346 -0.0620  0.1159
 2909W        W 3109   3.831   4.268   1.089  0.2596 -0.4643 -0.0597
 2910W        W 3110  17.000   2.954  13.538 -0.0227 -0.2178  0.2521
 2911W        W 3111   6.927   0.599   8.550 -0.1851 -0.0818 -0.1113
 2912W        W 3112   9.415   3.558   7.153  0.0525 -0.0368  0.0880
 2913W        W 3113  15.446   6.180   5.068 -0.2914 -0.2264  0.0171
 2914W        W 3114  17.541   9.522   6.670  0.1164  0.2196 -0.1358
 2915W        W 3115  13.475  10.220  15.825  0.0503  0.2072  0.3067
 2916W        W 3116  14.967  15.861  13.220 -0.1968 -0.0231 -0.1652
 2917W        W 3117   3.236   5.317   6.993  0.2528 -0.2004  0.1539
 2918W        W 3118  16.613   9.692  10.115 -0.0717 -0.0301  0.0086
 2919W        W 3119   2.955   5.470  12.921 -0.2083  0.0976 -0.1716
 2920W        W 3120   8.606   5.200   3.564  0.1938  0.0682  0.2838
 2921W        W 3121  10.778   9.991   9.276  0.1113  0.1629 -0.3925
 2922W        W 3122   4.845   0.147   9.431  0.1226  0.3115 -0.0148
 2923W        W 3123  18.155   8.332   2.362 -0.1078 -0.2262  0.0975
 2924W        W 3124   9.354   2.615   8.525 -0.1670  0.0884 -0.2393
 2925W        W 3125  17.824   3.943  14.317 -0.0718 -0.3047  0.0646
 2926W        W 3126   5.850  17.852   6.312  0.0166  0.1399 -0.1138
 2927W        W 3127   0.697   0.329   8.220  0.0082 -0.1991 -0.1843
 2928W        W 3128   2.320   9.872   2.991 -0.0684  0.2685  0.2427
 2929W        W 3129   5.270   3.800   6.168  0.2483 -0.0951 -0.4446
 2930W        W 3130   7.217   6.162   9.719 -0.2018 -0.1145  0.2157
 2931W        W 3131  16.116  17.980  13.728 -0.0621  0.2282  0.2483
 2932W        W 3132  16.801  15.436   9.482  0.2844 -0.0973  0.4529
 2933W        W 3133   8.736   3.091  17.244  0.3141  0.2109 -0.1998
 2934W        W 3134   6.661   5.235   0.705  0.1003  0.0499 -0.4225
 2935W        W 3135   7.413   5.161   4.026  0.1494  0.2189  0.1360
 2936W        W 3136   9.200   5.865  16.570  0.1808 -0.3422  0.0137
 2937W        W 3137   2.617  10.018   1.073  0.0087  0.0548  0.1869
 2938W        W 3138   3.646   8.813   9.671  0.2388  0.0720 -0.3073
 2939W        W 3139   0.688   1.301   2.238  0.3937  0.0819  0.0337
 2940W        W 3140  12.330   4.829  10.426  0.0729 -0.1360 -0.2038
 2941W        W 3141   4.218   8.625  13.277 -0.2103 -0.1951  0.1180
 2942W        W 3142  16.953   3.235  10.705 -0.0551 -0.0701 -0.2803
 2943W        W 3143   9.552   7.291   5.497 -0.2763 -0.2860 -0.1030
 2944W        W 3144   4.941   5.642   6.690  0.4674 -0.2592  0.0493
 2945W        W 3145  15.657   0.150   8.065  0.1521  0.0619 -0.1575
 2946W        W 3146   7.337   4.640  12.951 -0.0087 -0.5556  0.1339
 2947W        W 3147  11.824   4.339   4.663  0.2466  0.1881  0.2955
 2948W        W 3148   8.109  10.328   3.692 -0.1761 -0.1333  0.3387
 2949W        W 3149   2.307   1.395  10.005 -0.1850  0.1975 -0.3083
 2950W        W 3150   0.862   4.065  14.399 -0.1794  0.0479 -0.3107
 2951W        W 3151   3.144   4.738   6.031  0.1954 -0.1081 -0.1735
 2952W        W 3152   4.102  12.376   9.861  0.1773  0.0714 -0.0578
 2953W        W 3153  17.287   4.992  10.103 -0.0708 -0.1609 -0.0909
 2954W        W 3154   4.692  17.164   1.008  0.0712  0.2339  0.2354
 2955W        W 3155   6.144   1.000   8.801  0.2531 -0.0264  0.0598
 2956W        W 3156  14.525  15.219  16.800  0.3095  0.0377  0.2445
 2957W        W 3157   3.999   7.052  16.274  0.3516  0.1537  0.0062
 2958W        W 3158   1.665   7.904  11.422  0.0787  0.1573 -0.0621
 2959W        W 3159  16.652   7.699   6.801 -0.0564  0.1294  0.0731
 2960W        W 3160   4.444  10.224   5.480  0.0492  0.0035 -0.0964
 2961W        W 3161   2.197   6.683   6.906  0.1392 -0.0765 -0.2234
 2962W        W 3162   7.165   5.286   6.108  0.0477  0.1100 -0.0454
 2963W        W 3163   4.540   2.153   9.472 -0.1490 -0.0172  0.1669
 2964W        W 3164   4.214   1.030  12.579 -0.0057  0.3338  0.0435
 2965W        W 3165   1.705   2.682  11.599 -0.0472  0.3240  0.0180
 2966W        W 3166  13.987   6.973   5.639 -0.0487  0.0139 -0.3040
 2967W        W 3167  10.048   8.920   6.026 -0.2749  0.1664  0.0417
 2968W        W 3168  10.233   7.648   4.063 -0.1564  0.0567 -0.0079
 2969W        W 3169   9.055   2.455   5.868  0.1242  0.1034 -0.1212
 2970W        W 3170  10.014   5.223   4.608  0.1212  0.1588 -0.0800
 2971W        W 3171   1.194  10.324  10.161 -0.0616 -0.1413  0.2150
 2972W        W 3172   3.178  14.788   8.412  0.0538 -0.2686  0.0518
 2973W        W 3173   5.818   6.345  13.202 -0.1237 -0.1144 -0.0101
 2974W        W 3174   3.762   3.855  10.533 -0.1504  0.4358 -0.1169
 2975W        W 3175   1.082  10.112   5.383  0.0321  0.3459  0.4025
 2976W        W 3176   2.357   5.172   6.513  0.0137  0.0618 -0.5247
 2977W        W 3177   3.993  15.065  14.765 -0.1587 -0.0856  0.6258
 2978W        W 3178  17.752   7.813   7.634 -0.0142  0.2847  0.0955
 2979W        W 3179   5.435   8.590   5.537  0.2689  0.0966 -0.0708
 2980W        W 3180   3.368   8.098  13.041 -0.1628  0.1998 -0.0852
 2981W        W 3181   1.584   9.570   6.859 -0.1051  0.1911 -0.3344
 2982W        W 3182   2.466   3.970  16.312  0.1268 -0.0763 -0.2928
 2983W        W 3183   5.686   3.184  11.599  0.1519 -0.1523 -0.0675
 2984W        W 3184   7.212   5.995   2.305 -0.0408  0.1449 -0.0892
 2985W        W 3185  17.484   8.090  16.778 -0.2475 -0.0079  0.1099
 2986W        W 3186   9.245   7.889   2.934 -0.2704  0.0529 -0.2704
 2987W        W 3187   1.580  14.742   6.617 -0.0482  0.2807  0.3981
 2988W        W 3188   0.183  16.469   8.957  0.1021 -0.0590  0.2818
 2989W        W 3189   6.060   2.695   4.891  0.0609  0.0867  0.3891
 2990W        W 3190  16.147   5.397   9.513 -0.0230 -0.1340  0.2636
 2991W        W 3191   8.961   5.458   6.953 -0.1512  0.0865  0.1253
 2992W        W 3192   2.782   5.036   6.910  0.1416  0.0173  0.0460
 2993W        W 3193  12.476   5.225   4.573 -0.0294  0.1522  0.4498
 2994W        W 3194  17.699  13.970   2.830  0.3833  0.3563 -0.2018
 2995W        W 3195   2.292   7.494   8.191 -0.0038  0.0768 -0.0792
 2996W        W 3196  13.063   7.789   4.666 -0.0395 -0.4324  0.0772
 2997W        W 3197   1.625   6.951  10.469 -0.0296  0.2264  0.1514
 2998W        W 3198   0.933   0.793  13.530 -0.0783  0.1020  0.0108
 2999W        W 3199   3.248   7.613  18.051  0.1083 -0.1773 -0.2320
 3000W        W 3200  15.084   7.195   9.267  0.0265  0.0212 -0.1585
 3001W        W 3201   4.726  14.199  16.381 -0.0911  0.1466  0.0913
 3002W        W 3202   3.960   1.710   3.938  0.1287  0.1387 -0.1589
 3003W        W 3203   7.133   6.510   2.443 -0.1069  0.0985 -0.1465
 3004W        W 3204   0.476   6.215   4.467  0.1325 -0.1595 -0.1710
 3005W        W 3205   4.017   2.286  12.854  0.1097  0.1630  0.4911
 3006W        W 3206   3.045   3.620  10.930  0.0259 -0.1758 -0.0560
 3007W        W 3207   1.184   4.851  12.782  0.0706  0.2253 -0.2316
 3008W        W 3208   1.650   8.724  10.418  0.2398 -0.0207  0.1589
 3009W        W 3209   0.687   9.552  11.519 -0.1492 -0.0556  0.2499
 3010W        W 3210   2.947   0.822  10.367 -0.1733 -0.1655  0.0467
 3011W        W 3211   3.685   5.647  12.170  0.0142 -0.3515 -0.2181
 3012W        W 3212  17.902   4.697   6.116 -0.2408 -0.1277 -0.0984
 3013W        W 3213   6.397   8.004   8.550 -0.0580  0.1196  0.0924
 3014W        W 3214  16.319   6.312   6.874  0.0563 -0.3084 -0.0540
 3015W        W 3215   5.643   6.366  11.304  0.1977  0.0706 -0.1142
 3016W        W 3216   4.085   5.135   7.741  0.2278 -0.3088 -0.0410
 3017W        W 3217  17.231   6.101   7.313  0.3798 -0.3751  0.1776
 3018W        W 3218   5.840   5.417   8.079 -0.0516 -0.1483  0.1719
 3019W        W 3219   2.224   3.647  18.089  0.0446 -0.5923 -0.0783
 3020W        W 3220   4.537   5.401  14.625  0.0588  0.3039  0.6110
 3021W        W 3221   4.666  17.963   3.955  0.4086 -0.1793 -0.1623
 3022W        W 3222  10.814   8.459   6.956 -0.0290  0.0810 -0.1132
 3023W        W 3223  17.369   2.957  16.666 -0.0586 -0.0691 -0.0329
 3024W        W 3224   0.398   0.355  13.009  0.1141  0.3118  0.0172
 3025W        W 3225   6.252   9.780   9.188 -0.0891 -0.3992  0.0326
 3026W        W 3226   6.947   4.033  14.589 -0.1420 -0.1693 -0.0520
 3027W        W 3227   6.633   4.985   6.892 -0.0836 -0.1666 -0.1516
 3028W        W 3228   7.063   2.113  10.043  0.2044 -0.0714 -0.2483
 3029W        W 3229   3.900   6.807   2.826  0.2188  0.1979 -0.0983
 3030W        W 3230   7.160   2.058  12.250  0.3254 -0.1917 -0.1435
 3031W        W 3231   1.770   6.329   5.449  0.1566 -0.1322  0.0351
 3032W        W 3232  17.930  17.843  16.990  0.2707  0.2944 -0.4085
 3033W        W 3233   3.762   0.030   4.452 -0.1433 -0.1874 -0.0104
 3034W        W 3234   8.218  11.213   3.378  0.1415 -0.0256  0.1345
 3035W        W 3235   2.947   5.329  13.893  0.2133  0.1415 -0.2792
 3036W        W 3236  14.466   6.365   3.141 -0.0442  0.1557  0.0766
 3037W        W 3237   2.241  18.177  11.177 -0.3552  0.3159 -0.1943
 3038W        W 3238   1.709   5.022  13.062 -0.2946  0.4213  0.0101
 3039W        W 3239  17.947   2.084  10.646 -0.1596  0.1202  0.1480
 3040W        W 3240   0.967   1.681  17.653  0.1956 -0.3226 -0.0729
 3041W        W 3241  13.520   7.402   5.392 -0.0720 -0.0957 -0.0378
 3042W        W 3242   9.362  10.992   7.469  0.2758  0.0623  0.2187
 3043W        W 3243   3.374  16.376   7.407 -0.3468  0.2606 -0.1051
 3044W        W 3244   3.465   4.848   2.288 -0.0605 -0.0445  0.0621
 3045W        W 3245  17.360   3.015   0.861 -0.2242  0.0677 -0.0330
 3046W        W 3246   2.639   6.736   1.793 -0.1583 -0.0416 -0.0713
 3047W        W 3247   5.423   7.034  10.420  0.1896  0.0368 -0.0250
 3048W        W 3248   2.653   9.438   3.704  0.1651  0.1595 -0.2005
 3049W        W 3249   9.106   0.178   4.630  0.1282 -0.1229 -0.2003
 3050W        W 3250  14.929   0.023   6.663 -0.1555  0.0373 -0.1194
 3051W        W 3251   2.451   5.266   5.602  0.2265 -0.0013  0.1072
 3052W        W 3252  13.459  11.376   6.193 -0.0583 -0.2226 -0.1781
 3053W        W 3253   3.286  12.126   8.767  0.1139  0.2063  0.2321
 3054W        W 3254   1.483   7.817   8.142 -0.2335  0.2775  0.0421
 3055W        W 3255  17.614   2.601   7.869 -0.6265  0.1353  0.1717
 3056W        W 3256   1.100   4.349   9.725 -0.0682  0.1038 -0.0969
 3057W        W 3257  17.251  11.574   6.446  0.2913  0.0396 -0.3686
 3058W        W 3258   6.986   8.909  11.305  0.0130  0.1917  0.0506
 3059W        W 3259   0.342   7.359   6.020 -0.0010 -0.1203  0.0632
 3060W        W 3260   3.703   9.452   6.508  0.0760  0.1539 -0.1838
 3061W        W 3261   1.623  11.976  10.877  0.2117  0.3632 -0.0651
 3062W        W 3262   8.722   1.106   1.875  0.0402 -0.1753  0.0102
 3063W        W 3263   1.384   5.248  16.172  0.2132 -0.1557 -0.0316
 3064W        W 3264   8.295   2.492   5.318 -0.0776 -0.0699  0.2415
 3065W        W 3265  15.347   8.094  10.774  0.0741 -0.1111 -0.2192
 3066W        W 3266   3.051   4.865   8.634  0.2559 -0.1887 -0.0820
 3067W        W 3267   4.699   8.973  15.055 -0.0709  0.3103  0.3783
 3068W        W 3268   2.025   7.246   9.489  0.1035 -0.2283  0.1198
 3069W        W 3269   0.768   4.928   9.801 -0.0797 -0.1311  0.2085
 3070W        W 3270   3.792  17.293  12.924  0.1833 -0.4117 -0.0186
 3071W        W 3271   7.234   9.272   8.695 -0.2314 -0.0514 -0.0370
 3072W        W 3272   5.855   7.206  13.929 -0.1227  0.0945  0.0812
 3073W        W 3273   0.198  12.926   6.187 -0.2450  0.2163 -0.1239
 3074W        W 3274  11.328  10.638   2.227 -0.1867  0.0847 -0.3416
 3075W        W 3275   7.644  13.827   5.279 -0.2397 -0.0415 -0.0405
 3076W        W 3276   4.336   8.370  12.057 -0.0192 -0.0655  0.1658
 3077W        W 3277  16.752   8.916  14.778 -0.0525 -0.2996 -0.1384
 3078W        W 3278   6.108   6.446   8.767  0.0758 -0.1510  0.3574
 3079W        W 3279   0.060   4.668   6.994  0.2236  0.0117 -0.0163
 3080W        W 3280   1.901   5.399   6.271 -0.0685 -0.2429  0.1723
 3081W        W 3281   0.961   9.367   7.589  0.4108 -0.2639  0.0116
 3082W        W 3282   6.686   4.844   7.350 -0.1123 -0.0033  0.0511
 3083W        W 3283  10.809   1.756  10.397 -0.2008  0.0230 -0.0695
 3084W        W 3284   7.808   3.431  15.533 -0.1499 -0.2679  0.1476
 3085W        W 3285  16.463   8.455   7.723  0.2322  0.2695  0.2914
 3086W        W 3286  17.232  10.301  12.385  0.2971  0.0295  0.1261
 3087W        W 3287   6.280  16.474   7.020  0.3246  0.0169  0.1599
 3088W        W 3288   7.889  18.009   7.508  0.1713 -0.0812  0.1931
 3089W        W 3289   3.882  10.493  10.807 -0.2152  0.2040  0.1833
 3090W        W 3290  18.104  13.640  12.107  0.1208  0.1499 -0.0206
 3091W        W 3291   8.550   6.800  14.883  0.3516 -0.0396  0.1084
 3092W        W 3292   0.543   4.784   7.084 -0.1042  0.0984 -0.1381
 3093W        W 3293  14.618  16.280  10.187 -0.0261  0.0660  0.2029
 3094W        W 3294   5.621   2.435   7.820 -0.1513  0.1511 -0.1237
 3095W        W 3295  15.047  12.331  10.007 -0.0705  0.1782 -0.2400
 3096W        W 3296  12.454   0.689  10.090 -0.0459 -0.2360 -0.0144
 3097W        W 3297   3.068   7.358   7.506 -0.0410 -0.1971 -0.0600
 3098W        W 3298   7.758   0.231   8.913 -0.1916 -0.2423  0.1192
 3099W        W 3299   0.606  13.959   9.307  0.2591 -0.0470  0.1468
 3100W        W 3300   0.555   7.176  12.691 -0.2653  0.4386  0.3311
 3101W        W 3301  16.332   7.109   2.541 -0.3085 -0.0244  0.0709
 3102W        W 3302   3.598   2.133   8.021  0.0362  0.1086  0.1372
 3103W        W 3303  11.152  12.514  15.516 -0.0471  0.1793 -0.0289
 3104W        W 3304  13.907  12.591   8.256  0.0494 -0.1979 -0.0153
 3105W        W 3305  13.644   3.265   6.406  0.0875 -0.1494 -0.0126
 3106W        W 3306  10.831   2.097  13.127 -0.2095 -0.1203  0.3550
 3107W        W 3307   9.556   2.674  10.411 -0.0255 -0.0286 -0.1560
 3108W        W 3308   3.167  10.406   8.395 -0.1849  0.0952  0.2453
 3109W        W 3309   4.103   6.499   4.225 -0.0291 -0.1655 -0.3904
 3110W        W 3310   1.887   2.433  10.095  0.0903 -0.2880  0.1779
 3111W        W 3311  14.596   4.625  14.006  0.0917  0.0991  0.3064
 3112W        W 3312   6.798  18.196   9.441  0.0848  0.0526 -0.2077
 3113W        W 3313  17.130   9.896  10.100  0.0801  0.0165  0.0696
 3114W        W 3314  14.732  17.431  16.292  0.0911 -0.1183  0.1485
 3115W        W 3315   6.093   4.047   7.932 -0.0111 -0.3257  0.2905
 3116W        W 3316  17.945   2.183   9.696 -0.0208 -0.0245 -0.1342
 3117W        W 3317   6.288   4.677   8.524 -0.0070 -0.0159  0.0276
 3118W        W 3318   0.563   0.932  17.003  0.0272  0.1655 -0.0902
 3119W        W 3319  17.524  10.636  10.037 -0.0562  0.1353  0.1298
 3120W        W 3320  14.174   8.804  13.227 -0.2012  0.0798 -0.1588
 3121W        W 3321   5.038  17.821  16.942 -0.3857  0.0895 -0.2159
 3122W        W 3322   3.315   6.147  14.727  0.1118  0.2054 -0.3208
 3123W        W 3323   0.215   1.431  13.585 -0.5878 -0.1329  0.3196
 3124W        W 3324  17.900  15.666   5.643  0.0547 -0.1280  0.0437
 3125W        W 3325   0.250  17.693   5.642 -0.1067 -0.0372 -0.1542
 3126W        W 3326  13.730   3.351  10.873  0.1605 -0.2918 -0.1799
 3127W        W 3327   8.290   2.269   2.047  0.2595  0.0416  0.1572
 3128W        W 3328   2.394   4.794   5.627  0.0078  0.0999  0.0339
 3129W        W 3329  15.556  10.555  16.973 -0.0385 -0.3350 -0.0972
 3130W        W 3330  16.323  10.147   6.299  0.2133  0.0266 -0.0218
 3131W        W 3331  12.337   4.512  17.608  0.0278 -0.2501  0.1051
 3132W        W 3332  17.461   5.759   3.948 -0.5217  0.0566  0.1894
 3133W        W 3333   4.993  11.867  11.258 -0.1470 -0.1250  0.1560
 3134W        W 3334   8.103   3.651   5.605 -0.0832  0.3841 -0.0597
 3135W        W 3335   4.453   8.359   4.523  0.0019 -0.1949  0.0794
 3136W        W 3336   0.206   5.751   7.855 -0.0866  0.1444  0.0347
 3137W        W 3337   9.986   4.078   5.560 -0.0880  0.0009  0.4542
 3138W        W 3338   0.918   4.738   8.442 -0.3216 -0.0217 -0.0872
 3139W        W 3339   2.218   9.331  10.044 -0.2075  0.1112  0.1438
 3140W        W 3340   6.714  10.856  11.174 -0.2550 -0.1360  0.0100
 3141W        W 3341   2.043   8.838  10.132  0.2886  0.1758  0.1312
 3142W        W 3342   5.074   6.684   5.919  0.0674 -0.1535  0.0067
 3143W        W 3343   3.269   4.899   7.469  0.0276 -0.2578 -0.1273
 3144W        W 3344   9.389   3.501   9.291  0.0890 -0.0283  0.1991
 3145W        W 3345   1.383  16.885  15.832 -0.0200  0.0446  0.0051
 3146W        W 3346   8.338  13.840   1.190  0.1844 -0.1086  0.0518
 3147W        W 3347   4.615   9.582   7.062  0.1872 -0.1869 -0.1512
 3148W        W 3348  16.686  15.056  11.350  0.0259 -0.3649 -0.0253
 3149W        W 3349   6.836   2.246  13.112  0.0285  0.0321  0.4546
 3150W        W 3350   7.313   6.878  10.580 -0.0049  0.1239  0.0490
 3151W        W 3351  17.751   9.864   3.000 -0.3390 -0.1196 -0.0131
 3152W        W 3352  13.340   1.668  11.368 -0.2096  0.3642 -0.0726
 3153W        W 3353  17.515   4.488   4.908 -0.1288  0.0263 -0.1781
 3154W        W 3354   6.257   5.595   8.322 -0.0985 -0.0084  0.3547
 3155W        W 3355  17.051   2.113   3.550 -0.1397 -0.2745  0.1169
 3156W        W 3356   5.614   1.727  15.946 -0.1319  0.0926 -0.0956
 3157W        W 3357   5.999   2.902  14.355  0.1076 -0.5341 -0.2189
 3158W        W 3358   1.794   7.701  12.316 -0.4380  0.1455  0.2748
 3159W        W 3359  14.742   6.425   3.786  0.0522 -0.1588  0.2419
 3160W        W 3360  16.905   5.236   8.753  0.1015  0.1977  0.1148
 3161W        W 3361  13.939   3.928   7.233  0.1843  0.1792  0.1121
 3162W        W 3362  15.425   3.884  14.817  0.0303 -0.2403 -0.0285
 3163W        W 3363   4.920   8.918   3.065  0.2132  0.0807  0.1511
 3164W        W 3364   5.631   0.072   4.991  0.1245  0.1422 -0.0594
 3165W        W 3365  16.743   2.471   3.418  0.3010 -0.0979  0.0955
 3166W        W 3366  14.284   7.203  11.029 -0.2398 -0.1241 -0.0305
 3167W        W 3367   7.853  15.907   5.221  0.1365 -0.4220  0.0129
 3168W        W 3368   0.585   6.375  13.638 -0.1261  0.1128  0.1157
 3169W        W 3369  13.883   2.846   6.234 -0.0189  0.1320 -0.0888
 3170W        W 3370   0.732   3.610   6.539  0.2158  0.0916  0.3405
 3171W        W 3371  15.433   0.613   7.784  0.3442 -0.3303 -0.1947
 3172W        W 3372  17.678  14.659   7.394  0.0329 -0.1904  0.0872
 3173W        W 3373  17.073   4.081   5.853  0.0318  0.0213 -0.1096
 3174W        W 3374   9.129   6.063   5.829 -0.1150 -0.1894  0.0296
 3175W        W 3375   4.016   9.091   9.800 -0.1111 -0.2577  0.3827
 3176W        W 3376  16.274   3.875   4.801  0.0896  0.0044  0.0186
 3177W        W 3377   6.152   5.268   6.264  0.1604 -0.3861  0.4386
 3178W        W 3378   3.800  10.747  17.102 -0.3342 -0.3042 -0.1343
 3179W        W 3379   5.801   8.349  16.154 -0.3051  0.2998  0.1441
 3180W        W 3380  13.345   3.677   9.670 -0.1767 -0.1188 -0.2300
 3181W        W 3381   4.843   8.971   2.218 -0.0893 -0.0054 -0.3078
 3182W        W 3382   2.758   9.610   8.429  0.0960  0.0285 -0.1913
 3183W        W 3383   1.751   4.422  11.153 -0.4199  0.0884 -0.0724
 3184W        W 3384  14.727   0.506  16.522 -0.2131  0.0625 -0.0982
 3185W        W 3385  14.106   4.297  15.218 -0.1921  0.0726 -0.1416
 3186W        W 3386  12.849   1.213   7.821 -0.0720  0.0952  0.1029
 3187W        W 3387   6.146  17.697  14.755  0.0047 -0.0241 -0.1258
 3188W        W 3388   2.118   4.563   8.073  0.0960 -0.0694 -0.1433
 3189W        W 3389  17.448  10.585   6.442  0.2390 -0.0791 -0.0709
 3190W        W 3390  15.454   6.803   9.195  0.1703 -0.1848 -0.0269
 3191W        W 3391   0.248   2.924   2.139  0.3102 -0.0272  0.0443
 3192W        W 3392   1.502   3.423   3.523  0.2968 -0.1519 -0.3275
 3193W        W 3393   1.853  18.015  10.488  0.1003 -0.0911  0.2730
 3194W        W 3394  11.611   9.817  11.605 -0.0503  0.0049  0.0531
 3195W        W 3395   1.774   8.359   0.668  0.1616  0.0787  0.3546
 3196W        W 3396  18.052   1.223   9.465  0.2623  0.2008  0.2805
 3197W        W 3397   6.774   4.933   8.634  0.0396  0.0503 -0.0307
 3198W        W 3398   1.725   9.001  10.903 -0.1957 -0.0700 -0.0965
 3199W        W 3399   4.085  11.508   3.509 -0.1140  0.0874 -0.0373
 3200W        W 3400   6.702   4.264   8.191 -0.1131  0.1813 -0.1838
 3201W        W 3401  14.521   2.917   4.618 -0.0296 -0.3311  0.1426
 3202W        W 3402   2.910   8.534   4.869 -0.0869  0.2395 -0.0062
 3203W        W 3403  17.706   7.523  10.760  0.2205  0.0054 -0.1345
 3204W        W 3404  15.092   8.083   7.371 -0.2320 -0.1443 -0.0769
 3205W        W 3405   5.701   8.197   8.363  0.0428  0.1528  0.3484
 3206W        W 3406  16.839   5.384  16.788 -0.6444  0.0044 -0.1889
 3207W        W 3407  17.046   4.657   5.655  0.0290 -0.2988 -0.1864
 3208W        W 3408   6.220   3.791  13.572  0.2260  0.0592 -0.0562
 3209W        W 3409   7.147  14.473  13.125 -0.2793  0.1457 -0.0410
 3210W        W 3410  17.784   2.919   8.237 -0.0900  0.0651 -0.2686
 3211W        W 3411  12.626   5.751   4.475  0.0669 -0.1654  0.0881
 3212W        W 3412   6.042   7.985   5.852  0.0456  0.0819  0.2631
 3213W        W 3413  17.648   2.922   9.099  0.0476 -0.2145  0.0909
 3214W        W 3414   2.905   3.388   8.457 -0.2759  0.0021 -0.1834
 3215W        W 3415   4.911   7.670   1.368 -0.2619 -0.3107 -0.3799
 3216W        W 3416   2.128  11.796  11.600  0.0981  0.0824  0.2386
 3217W        W 3417   9.212  12.588  16.687  0.0720  0.4408  0.0951
 3218W        W 3418  16.008   7.153   1.019  0.1606  0.1691 -0.0797
 3219W        W 3419   4.041   2.128   4.704 -0.0804  0.2785  0.0094
 3220W        W 3420   4.371   4.937   9.426 -0.2183  0.0454  0.1220
 3221W        W 3421   1.802  15.787   9.375 -0.0218 -0.2312  0.2128
 3222W        W 3422  14.618  16.221  13.429  0.0515  0.1507  0.0724
 3223W        W 3423   4.997   3.011   3.415 -0.2645  0.5145 -0.0790
 3224W        W 3424   9.285   3.941   8.850 -0.3188 -0.0553 -0.2068
 3225W        W 3425  15.729  15.984  12.660 -0.0372 -0.0910  0.1920
 3226W        W 3426   5.472   0.958   3.826  0.0190 -0.0121  0.3803
 3227W        W 3427   2.006  15.752   3.370  0.0846  0.0541 -0.0625
 3228W        W 3428   9.329  11.757  12.506 -0.0288 -0.0721  0.2457
 3229W        W 3429   9.878   2.267  10.312  0.4331 -0.2052  0.0055
 3230W        W 3430   8.246  10.395   2.674 -0.2228 -0.0560  0.1199
 3231W        W 3431   6.808   0.886   5.573  0.0040 -0.0994 -0.1874
 3232W        W 3432   6.945   6.750   5.538  0.0078  0.0413  0.1140
 3233W        W 3433   2.217   8.861   1.880 -0.2338  0.3992  0.1372
 3234W        W 3434   0.802   2.930  14.630 -0.2719  0.2708  0.0752
 3235W        W 3435   8.989   3.419   6.917 -0.1976 -0.3944 -0.0830
 3236W        W 3436   2.588   0.966   8.613  0.0550  0.1243 -0.2129
 3237W        W 3437  16.443   5.052  10.792  0.0060  0.0002 -0.3255
 3238W        W 3438   7.269   4.174   4.068  0.3447 -0.0874 -0.1841
 3239W        W 3439   3.594   3.526  10.198  0.1011  0.1312  0.4015
 3240W        W 3440   0.423   2.503   9.349 -0.0340 -0.1072  0.0725
 3241W        W 3441   0.015   1.125   0.437  0.2545 -0.1412 -0.0026
 3242W        W 3442   4.671   7.210   9.349  0.0682  0.0743 -0.1234
 3243W        W 3443   7.932   1.630   1.022 -0.0807  0.2153  0.0251
 3244W        W 3444   0.107  14.362   6.624  0.1965  0.1357 -0.0071
 3245W        W 3445   2.300   4.565   4.863 -0.2665  0.0812  0.0749
 3246W        W 3446   8.565   8.763  15.372  0.0127  0.0225  0.1616
 3247W        W 3447   2.858   8.416  17.064 -0.3103  0.1334 -0.0936
 3248W        W 3448   7.311  11.256   9.716 -0.1546 -0.1588  0.1169
 3249W        W 3449  15.573   5.392  15.826 -0.0644  0.0678  0.2365
 3250W        W 3450   0.141   5.151  17.129  0.0395 -0.0473  0.0606
 3251W        W 3451   0.687   8.121   0.763  0.2054  0.0641  0.3406
 3252W        W 3452   2.166  18.057  17.358  0.0675 -0.1388 -0.0289
 3253W        W 3453   8.471  18.149  14.476 -0.0030  0.0438 -0.3570
 3254W        W 3454   9.661   1.273   1.523 -0.0411  0.0722 -0.3549
 3255W        W 3455  15.863  16.180   3.024 -0.1669 -0.0777  0.0123
 3256W        W 3456   1.247  10.801   9.996  0.1115  0.2026  0.0795
 3257W        W 3457   3.693   3.785   8.569  0.0178  0.2430  0.1751
 3258W        W 3458   4.680   7.237  10.410  0.2472  0.3351  0.0500
 3259W        W 3459   4.956   4.889  14.070  0.1908  0.0107  0.0804
 3260W        W 3460  15.782   2.270  14.772 -0.1236 -0.0966  0.0951
 3261W        W 3461  17.421  11.052  15.409 -0.0006 -0.3782  0.2012
 3262W        W 3462   1.758   5.557  10.390 -0.3906 -0.0533  0.2969
 3263W        W 3463  18.038  16.261   1.289  0.2637  0.0825 -0.0998
 3264W        W 3464   2.641   9.391   1.333 -0.0137 -0.1772  0.2187
 3265W        W 3465   0.467  11.477   5.332 -0.0095  0.1745 -0.0437
 3266W        W 3466   0.166  12.050  15.255 -0.1923 -0.0716 -0.1550
 3267W        W 3467   7.823   1.522  18.153  0.2930  0.1554 -0.0705
 3268W        W 3468   5.541  11.577   9.733  0.1934  0.0271  0.0798
 3269W        W 3469  17.928   7.558  11.695  0.2038 -0.1274  0.0235
 3270W        W 3470   1.659   9.796   9.457  0.1084 -0.1571 -0.1084
 3271W        W 3471  13.395   6.631   6.929  0.0012 -0.0239 -0.0559
 3272W        W 3472   1.116  10.154   8.713  0.2794 -0.0318  0.3084
 3273W        W 3473   5.994   8.544   7.491  0.0317 -0.1346  0.1453
 3274W        W 3474  11.925  17.234  12.903  0.1604  0.0605  0.0100
 3275W        W 3475   1.304   9.376   0.247 -0.1298 -0.1584 -0.1667
 3276W        W 3476  15.075   5.241   4.110  0.0634 -0.2420  0.1211
 3277W        W 3477  12.927  11.153   0.365  0.2793  0.0731 -0.1852
 3278W        W 3478   1.586  11.756  12.348  0.1388  0.2877 -0.1415
 3279W        W 3479   1.847   7.894  16.991  0.0829  0.1493  0.5320
 3280W        W 3480  15.021   2.596   4.641  0.0364  0.2235 -0.3216
 3281W        W 3481  14.105   7.953  10.348  0.0657  0.0819  0.0218
 3282W        W 3482   1.505  17.955  12.708 -0.0330 -0.0033 -0.3258
 3283W        W 3483  16.946   9.767   8.814  0.1613 -0.0969  0.2275
 3284W        W 3484  15.905   3.994  15.432  0.1727  0.1186 -0.0370
 3285W        W 3485   6.198  12.988  10.860  0.2709  0.2141 -0.1317
 3286W        W 3486   6.776   0.847  14.012  0.0210  0.0860 -0.1092
 3287W        W 3487   2.929   7.582   2.394  0.0701 -0.3424  0.1356
 3288W        W 3488   1.323   2.332  13.837 -0.6962  0.1946  0.0636
 3289W        W 3489  17.128   4.604  17.441 -0.3508 -0.2177 -0.1032
 3290W        W 3490   4.520  17.549  16.187  0.1050  0.3437  0.0476
 3291W        W 3491  18.152   4.560  15.374  0.1886 -0.3993 -0.0601
 3292W        W 3492   0.346   5.123  15.282  0.1095 -0.4114 -0.1715
 3293W        W 3493   9.952   5.008  15.645 -0.0944 -0.0962 -0.0739
 3294W        W 3494   7.361   5.513  13.424  0.0486 -0.2424  0.0890
 3295W        W 3495  14.564  16.484   9.439 -0.1544  0.1110 -0.0232
 3296W        W 3496   0.493   3.403  14.080  0.2715  0.0420  0.1232
 3297W        W 3497   7.312   3.475   8.159 -0.2756 -0.2641 -0.0699
 3298W        W 3498   3.234   2.114   4.412  0.1230 -0.0738 -0.0858
 3299W        W 3499  11.750   9.238   7.086  0.2800  0.1375  0.3367
 3300W        W 3500  16.594  15.538  11.595 -0.0975 -0.0225  0.0649
 3301W        W 3501  16.401  12.025   7.001  0.0062  0.3952  0.3519
 3302W        W 3502   1.265  16.085   9.294 -0.1969 -0.0465 -0.4336
 3303W        W 3503  17.011   9.515   9.697  0.0123  0.0296 -0.0866
 3304W        W 3504   7.462   6.616   3.363  0.2645 -0.0103  0.0055
 3305W        W 3505   1.968  17.837   8.738  0.0123  0.0171 -0.2497
 3306W        W 3506   8.996   4.218  18.120  0.2373  0.0817  0.0358
 3307W        W 3507  15.794  10.212  12.597 -0.0442  0.0346  0.3185
 3308W        W 3508   5.919  11.088  15.671 -0.0239 -0.0580 -0.0992
 3309W        W 3509   1.003   1.283   1.323 -0.0361 -0.1092 -0.0880
 3310W        W 3510  16.681  15.128  16.021  0.5041 -0.0768 -0.0023
 3311W        W 3511   1.511  12.109  16.167 -0.1994 -0.0896 -0.0981
 3312W        W 3512   1.119   6.257  15.953  0.1916  0.2154 -0.0801
 3313W        W 3513   2.896  13.470  13.926  0.0753  0.1011  0.0617
 3314W        W 3514  16.444  17.151   7.905 -0.0277 -0.1254  0.3721
 3315W        W 3515   3.334   6.511  10.317 -0.3208 -0.0282 -0.0901
 3316W        W 3516   2.284   2.290  16.564  0.0793 -0.0692  0.1968
 3317W        W 3517   4.905   4.563   6.656 -0.6538  0.1371 -0.1042
 3318W        W 3518  18.065   0.409  10.070 -0.1242  0.1740  0.2713
 3319W        W 3519   2.758   9.065  13.528 -0.1727 -0.3294 -0.1405
 3320W        W 3520  16.634  16.008  11.713  0.0298 -0.4175 -0.2368
 3321W        W 3521   3.268   8.377  10.976  0.0710 -0.3173 -0.0627
 3322W        W 3522   7.988   5.168  10.419  0.1965  0.0786 -0.0626
 3323W        W 3523   0.028   4.089  11.656 -0.0021  0.0191  0.0087
 3324W        W 3524   4.186   2.704  16.103 -0.0500  0.0159 -0.1413
 3325W        W 3525   7.635   9.452  11.611 -0.1570 -0.1701  0.1972
 3326W        W 3526  11.751  17.621  15.419  0.2100  0.1083 -0.0508
 3327W        W 3527   0.839  11.388  11.713  0.4254  0.0875 -0.0292
 3328W        W 3528  12.536   0.042  16.688 -0.0760  0.3272 -0.0126
 3329W        W 3529   0.968   2.259   2.296 -0.0248 -0.1899 -0.0595
 3330W        W 3530  13.210  17.859  17.089  0.0854 -0.0755 -0.2060
 3331W        W 3531   4.365  14.067  10.585 -0.4457  0.1363 -0.0982
 3332W        W 3532  11.323   8.474   7.512 -0.0295  0.0061  0.1565
 3333W        W 3533   2.611   3.946   2.331  0.0866  0.0957  0.0318
 3334W        W 3534   0.736   6.504  15.276 -0.2444 -0.1132  0.0796
 3335W        W 3535   1.048   6.710   0.221  0.1264 -0.1782 -0.1055
 3336W        W 3536  14.782   3.274  13.991  0.1333 -0.3731  0.0319
 3337W        W 3537   0.407   4.160  15.810  0.3033 -0.0933 -0.3301
 3338W        W 3538  17.549   9.358   2.779 -0.1177  0.0419  0.1491
 3339W        W 3539  13.231   0.339  15.392  0.1742  0.1014  0.0218
 3340W        W 3540  18.121   6.427  15.834  0.0832  0.1260 -0.0968
 3341W        W 3541  17.296   4.729  10.518 -0.0542 -0.1154 -0.1960
 3342W        W 3542   1.495   7.937   9.826  0.0303 -0.2010 -0.1998
 3343W        W 3543  13.263   9.592  12.463 -0.1534  0.1825  0.0416
 3344W        W 3544   0.947   7.017  12.890  0.0533 -0.0171 -0.0477
 3345W        W 3545  10.262   0.924   0.763  0.1102 -0.0743 -0.1385
 3346W        W 3546   6.065   6.527   5.381  0.1540 -0.2431  0.2035
 3347W        W 3547   4.744  17.560  10.449 -0.0007  0.0990  0.2390
 3348W        W 3548   5.358   6.945  16.154 -0.0006  0.1294  0.1560
 3349W        W 3549   2.138   9.677  15.853 -0.0421  0.0689  0.1104
 3350W        W 3550   5.540   0.097   8.965  0.4027 -0.1799  0.1676
 3351W        W 3551   0.509   5.322  13.555  0.0100  0.0158 -0.2811
 3352W        W 3552   3.291   7.421  14.365 -0.3287  0.0842  0.0183
 3353W        W 3553  16.165  13.000  11.745  0.1492  0.3779  0.1778
 3354W        W 3554   1.175   6.444  12.108  0.0964  0.0204 -0.0504
 3355W        W 3555  13.631  13.328  11.934  0.3140 -0.1696  0.2542
 3356W        W 3556   5.032   9.245  15.282  0.2118  0.1414 -0.0631
 3357W        W 3557   6.744   5.535   3.732  0.1258  0.0378  0.3698
 3358W        W 3558  17.590   1.995  15.199  0.1509 -0.0923  0.0508
 3359W        W 3559  10.210  15.578   9.175 -0.2730  0.0864 -0.1565
 3360W        W 3560  18.078   0.312  11.955  0.1195  0.2816  0.0001
 3361W        W 3561   5.985   7.633   9.862  0.0199 -0.0458 -0.1193
 3362W        W 3562   5.593  12.262  15.612 -0.0174 -0.1462  0.2483
 3363W        W 3563  17.333   5.787  13.314 -0.1641  0.1626  0.0631
 3364W        W 3564   1.935   3.331   6.497  0.1791  0.0929 -0.3995
 3365W        W 3565   1.468   4.975  15.401  0.0158  0.1335  0.3611
 3366W        W 3566  18.076   2.723   4.879  0.2453  0.3644  0.0060
 3367W        W 3567   0.122   8.355   3.692 -0.2785  0.1976 -0.1945
 3368W        W 3568   1.792   2.413   6.859 -0.3347 -0.1031  0.1007
 3369W        W 3569   4.037  11.612  11.123 -0.1408 -0.2629  0.3133
 3370W        W 3570   1.054   2.673  10.929 -0.0251 -0.0116  0.2111
 3371W        W 3571   2.308  11.632  10.068 -0.0563  0.2205  0.1801
 3372W        W 3572   3.968   0.934  17.271  0.0764 -0.1068  0.0439
 3373W        W 3573  11.877   3.413  11.094 -0.0552 -0.1513  0.1404
 3374W        W 3574   3.171   5.809   2.478 -0.1650 -0.1043  0.1459
 3375W        W 3575   4.555   9.233   6.178 -0.1413  0.0394  0.4021
 3376W        W 3576   5.017   8.288  16.398  0.0185 -0.2706  0.0761
 3377W        W 3577  12.213   5.296   0.867 -0.1335 -0.1501 -0.0850
 3378W        W 3578  17.334   4.681  16.000  0.0314  0.1356  0.2343
 3379W        W 3579  16.034   0.173   9.050  0.1194  0.2426  0.1397
 3380W        W 3580   0.950   5.837  17.355 -0.1362  0.0314  0.1325
 3381W        W 3581   0.569  12.634  15.337  0.1767  0.1064  0.1603
 3382W        W 3582   2.737   1.014  16.775  0.1118  0.0229 -0.0411
 3383W        W 3583  11.489   0.533   7.635 -0.0428  0.2734 -0.0102
 3384W        W 3584   4.905   0.402  14.347  0.0433  0.1217 -0.1564
 3385W        W 3585  15.555   5.397   3.932 -0.0071  0.0495 -0.1759
 3386W        W 3586   6.667   0.766   7.685 -0.3010 -0.2439  0.3074
 3387W        W 3587   2.276  11.234   8.861 -0.2801 -0.2575 -0.1566
 3388W        W 3588   0.724   4.489  13.257 -0.1934 -0.1769  0.0129
 3389W        W 3589   2.183   7.112  11.806  0.3404 -0.0222 -0.2069
 3390W        W 3590   5.073   1.545  14.035  0.4499  0.0205 -0.3190
 3391W        W 3591   0.109   0.319   1.229  0.3565 -0.0834 -0.0300
 3392W        W 3592   6.894   5.962  10.603 -0.0976  0.1510 -0.0877
 3393W        W 3593   0.925   3.151  17.750  0.1998  0.0670  0.0083
 3394W        W 3594  12.951  11.158  11.544  0.1190  0.1304  0.0975
 3395W        W 3595   5.349   6.929  15.254  0.3800  0.1521 -0.1170
 3396W        W 3596  14.503   6.470  12.614 -0.2529  0.0040 -0.1896
 3397W        W 3597   1.695   6.227  14.274 -0.1562  0.1104 -0.0411
 3398W        W 3598   0.532   8.833  10.846 -0.0507  0.1550 -0.0435
 3399W        W 3599  16.999   1.796  10.082  0.3602 -0.0613  0.3003
 3400W        W 3600   2.071  17.061  10.714  0.2812 -0.3546  0.1417
 3401W        W 3601   7.313   5.486  17.008  0.1341  0.1588  0.1361
 3402W        W 3602  17.464   5.752  11.521 -0.0026 -0.0496 -0.0222
 3403W        W 3603  16.043   4.566  11.541 -0.0064 -0.1097 -0.0591
 3404W        W 3604   9.763   6.256  11.041 -0.1333 -0.0904 -0.1348
 3405W        W 3605   4.771   8.507  11.370 -0.1302  0.1803 -0.2015
 3406W        W 3606   7.304  15.903  17.415  0.0079  0.1160  0.1129
 3407W        W 3607  13.204   3.416  13.903 -0.0335 -0.2600 -0.1374
 3408W        W 3608  15.384   0.748  12.297 -0.2415 -0.2069  0.0329
 3409W        W 3609   0.971  17.288   5.680  0.1392 -0.0096  0.1788
 3410W        W 3610  15.660   9.198  14.321 -0.2136 -0.2566  0.0667
 3411W        W 3611   3.257   5.663   8.829  0.2057 -0.1265  0.6073
 3412W        W 3612  16.186   5.528  10.836  0.1119  0.0927 -0.3052
 3413W        W 3613   2.686   7.508  15.947  0.1023  0.1697  0.0557
 3414W        W 3614  14.003  10.318  12.046 -0.1531 -0.1562 -0.1317
 3415W        W 3615   3.100   2.187  13.016 -0.0398  0.0889  0.0249
 3416W        W 3616   7.329  17.929  18.046 -0.1386  0.1731  0.1555
 3417W        W 3617   3.842   7.226   6.157 -0.2617  0.1179  0.1891
 3418W        W 3618   6.055   7.017   0.200  0.0832 -0.2595  0.0593
 3419W        W 3619   9.183   1.740   8.407  0.2520  0.0420  0.1788
 3420W        W 3620  13.468   2.880  10.197 -0.2403  0.0789  0.0171
 3421W        W 3621   5.625  16.329  14.631  0.0244 -0.0344  0.0962
 3422W        W 3622   1.791  13.957   9.977  0.2447 -0.1549  0.0107
 3423W        W 3623  16.277  16.426   8.560 -0.1366 -0.0935 -0.4758
 3424W        W 3624  15.745  10.914  13.276 -0.3529  0.0157  0.1507
 3425W        W 3625   1.035   6.380  14.365 -0.0727 -0.0643  0.0424
 3426W        W 3626   4.395   8.235   5.762 -0.3167 -0.2875  0.1113
 3427W        W 3627  17.951   7.492   0.386 -0.0773 -0.0908 -0.1051
 3428W        W 3628   0.111   4.639  15.850 -0.1049  0.0210 -0.1512
 3429W        W 3629  10.382  12.425   9.173  0.1768 -0.0148 -0.1572
 3430W        W 3630   9.140   5.488  10.020 -0.2726 -0.0564  0.2041
 3431W        W 3631   6.955   4.365  10.604  0.3560  0.0727  0.3025
 3432W        W 3632   3.035   5.448  16.533  0.2300 -0.2252  0.1581
 3433W        W 3633   2.370   3.479   2.500  0.2554  0.1479  0.0746
 3434W        W 3634   2.031  17.647  10.995  0.0264  0.1909 -0.0449
 3435W        W 3635   1.429   1.954  11.432  0.1739  0.2359  0.1280
 3436W        W 3636  17.521   9.097  15.041 -0.0182  0.1600  0.2600
 3437W        W 3637   7.914   9.538   5.207  0.2298  0.1277  0.0748
 3438W        W 3638  16.420   9.034  13.786 -0.0276  0.2172  0.0478
 3439W        W 3639  11.590   6.931   5.514  0.0922 -0.1393  0.2755
 3440W        W 3640  14.014   1.322  12.556  0.2480  0.0157 -0.1299
 3441W        W 3641  12.576  12.656  15.993 -0.1461  0.1973  0.1745
 3442W        W 3642   1.210  12.674   8.195  0.2958  0.1064 -0.2417
 3443W        W 3643  14.769  16.063  17.560 -0.2842  0.2590  0.1511
 3444W        W 3644   8.154   2.771  10.377 -0.0882 -0.1557  0.1609
 3445W        W 3645   9.856  17.317  14.407  0.1172 -0.0346  0.1104
 3446W        W 3646  17.986   6.985   3.379 -0.3243 -0.0077  0.0859
 3447W        W 3647   1.124  12.212   8.945  0.0284 -0.1384  0.0506
 3448W        W 3648   2.296   7.125  14.186  0.1377  0.1011 -0.6327
 3449W        W 3649  15.808   7.772  13.897  0.0333  0.1793  0.1242
 3450W        W 3650   2.267   2.901   5.756 -0.1194 -0.1781  0.1229
 3451W        W 3651  16.092  11.818   7.727 -0.1925  0.1629 -0.1668
 3452W        W 3652  16.035   6.918   7.697  0.0405  0.0562  0.2610
 3453W        W 3653   4.897   0.152  13.880  0.0939 -0.1534 -0.0242
 3454W        W 3654  12.722   6.004  11.504  0.0521 -0.1587  0.0493
 3455W        W 3655  13.711  11.045  13.034 -0.1064 -0.2357 -0.0436
 3456W        W 3656   2.237   7.194  16.326 -0.1308  0.1342  0.0599
 3457W        W 3657  17.473   8.845  14.391  0.1724  0.0422  0.0445
 3458W        W 3658   9.752   5.818   4.582  0.2675  0.1541 -0.1948
 3459W        W 3659   3.170  18.132   1.245 -0.1376 -0.3432 -0.1194
 3460W        W 3660   3.267   3.512   9.502 -0.2545 -0.1292 -0.0745
 3461W        W 3661   7.747   3.483  14.973  0.0656  0.0033  0.1036
 3462W        W 3662   3.627   5.245   9.778  0.3424  0.0424 -0.3456
 3463W        W 3663   7.947  12.501   7.800  0.2139 -0.0011  0.1188
 3464W        W 3664   0.506   9.993   6.191 -0.2881  0.0565 -0.3154
 3465W        W 3665  14.012   2.634   9.448  0.0873 -0.1579 -0.1564
 3466W        W 3666   6.491   5.956  17.222  0.0137 -0.0282 -0.2829
 3467W        W 3667   4.775  10.703  17.414 -0.0542  0.0663  0.2402
 3468W        W 3668   5.726   8.382  14.722 -0.0118  0.4063  0.0764
 3469W        W 3669  13.976   3.683   1.504  0.1386  0.3359 -0.0280
 3470W        W 3670   4.333   2.673  10.218  0.0110 -0.0115  0.4444
 3471W        W 3671  16.953   9.805   1.849 -0.0372 -0.1214 -0.2766
 3472W        W 3672   3.070  16.609   7.032  0.0185 -0.2863  0.0521
 3473W        W 3673   4.470  11.127  11.449  0.0484 -0.1556 -0.3197
 3474W        W 3674  15.754  10.253  10.809 -0.1000  0.3095  0.0804
 3475W        W 3675   4.845   4.908  13.001 -0.3106  0.0748  0.2560
 3476W        W 3676   8.453   5.691  13.729 -0.2524 -0.1162 -0.0210
 3477W        W 3677  13.872   4.044   8.735 -0.0909 -0.5328  0.2038
 3478W        W 3678  14.306  10.302  11.512 -0.1704  0.0870 -0.0370
 3479W        W 3679   9.360   5.729  10.379  0.2047 -0.1081 -0.0577
 3480W        W 3680   6.683   8.197  14.082 -0.3258 -0.0599  0.0397
 3481W        W 3681  17.343   2.523  12.353 -0.0060 -0.1968  0.1038
 3482W        W 3682   1.998   7.208   0.938  0.2268  0.0547  0.3895
 3483W        W 3683   5.970   7.104  16.810  0.0161 -0.1009 -0.2448
 3484W        W 3684   6.064   6.703  10.040 -0.0092  0.1665  0.0181
 3485W        W 3685  16.336  13.816   3.466  0.1297 -0.2180 -0.1163
 3486W        W 3686  10.365  13.331   9.902  0.3468 -0.0137 -0.1348
 3487W        W 3687  14.147  11.727  12.773 -0.0337  0.0889  0.0485
 3488W        W 3688   6.113  11.713  13.516 -0.1168 -0.0892  0.3933
 3489W        W 3689  16.723  11.665  10.142 -0.1208 -0.0313  0.2119
 3490W        W 3690   0.599   7.636   8.411 -0.0464 -0.4400 -0.1262
 3491W        W 3691   3.423  11.229  10.418  0.2558 -0.3818 -0.2569
 3492W        W 3692   3.152   8.622   9.429 -0.0780 -0.2266  0.2304
 3493W        W 3693   1.780   9.433  13.707 -0.2932  0.0803  0.1490
 3494W        W 3694   3.452   5.786   0.669 -0.0530 -0.1495  0.2948
 3495W        W 3695   5.214   1.652   8.443 -0.2576 -0.2163  0.4950
 3496W        W 3696   4.611   9.098  17.621 -0.0372 -0.2073  0.0463
 3497W        W 3697   9.100   4.423  12.402 -0.0235  0.0529  0.1488
 3498W        W 3698   0.269  10.185   9.855 -0.1203 -0.1675  0.0632
 3499W        W 3699   4.659   1.340  13.384  0.0001 -0.0292  0.5239
 3500W        W 3700   2.118   2.625   0.301 -0.0250  0.1991  0.0652
 3501W        W 3701   4.595   0.223  12.423  0.1206  0.0690  0.0653
 3502W        W 3702   2.332   6.713  13.847  0.0283  0.1478  0.0201
 3503W        W 3703  15.028   2.843  18.144 -0.0302  0.1756 -0.1031
 3504W        W 3704   3.768   0.749   7.672 -0.3645 -0.1557 -0.0236
 3505W        W 3705   3.539   3.431   4.688  0.0357 -0.1617 -0.2450
 3506W        W 3706   4.133  14.856  10.260  0.1352  0.1024  0.0158
 3507W        W 3707  14.604   5.626  14.310  0.1352 -0.0865  0.1024
 3508W        W 3708  15.767  15.577   2.444 -0.1757 -0.1972  0.1837
 3509W        W 3709   7.969   8.992   0.071 -0.1084  0.1819  0.0166
 3510W        W 3710   9.343   5.960   9.012 -0.1398  0.0654 -0.1014
 3511W        W 3711  16.545   5.947  16.431  0.2168  0.0377 -0.0418
 3512W        W 3712  18.207   0.953  17.006  0.0306  0.0386  0.1632
 3513W        W 3713   9.491  12.045   6.820 -0.0200  0.1311 -0.3203
 3514W        W 3714   6.706   1.651  12.294  0.0870  0.2261 -0.0899
 3515W        W 3715  16.367  14.741  13.457  0.1043  0.0790 -0.0721
 3516W        W 3716   5.408   7.491   9.113 -0.3330  0.1844 -0.0597
 3517W        W 3717   0.410  17.653  15.208 -0.0512 -0.1149 -0.3223
 3518W        W 3718   0.767   8.046   2.773  0.1077 -0.0474  0.1273
 3519W        W 3719  14.388  13.009  13.560  0.0977  0.0613  0.2041
 3520W        W 3720  10.878   8.735  14.396 -0.0149 -0.0189  0.2086
 3521W        W 3721   2.565   4.114  13.886 -0.1935  0.0313  0.0562
 3522W        W 3722   2.119   0.757  17.973  0.2053  0.1544  0.4792
 3523W        W 3723   0.690   7.465   6.792 -0.2717 -0.2087  0.0483
 3524W        W 3724  12.988  14.782  14.654  0.0403  0.0031  0.0074
 3525W        W 3725  17.107   8.971   8.310  0.2730  0.0492  0.0882
 3526W        W 3726  17.600   6.544  16.663 -0.0288 -0.0660 -0.0976
 3527W        W 3727   3.234   2.062  11.110  0.3106 -0.1089 -0.0674
 3528W        W 3728  10.505  17.688  13.778  0.1002  0.2059 -0.0777
 3529W        W 3729   3.745  17.469   7.741 -0.2005  0.1531  0.1087
 3530W        W 3730  18.112   5.046  16.649  0.0619 -0.1611  0.0879
 3531W        W 3731  12.375   5.394   0.267 -0.0602  0.1815 -0.0191
 3532W        W 3732  15.196  14.861  17.519 -0.0090 -0.0103  0.3240
 3533W        W 3733   3.646   9.648  14.478  0.0231 -0.2904 -0.1889
 3534W        W 3734  12.085   4.662  13.465  0.2707  0.2892  0.1491
 3535W        W 3735   9.011  14.820  17.633  0.0368 -0.3828  0.2999
 3536W        W 3736  13.438  17.626  13.961  0.0687  0.1308  0.1291
 3537W        W 3737   0.227   4.753  12.428 -0.2112 -0.1120 -0.0571
 3538W        W 3738  13.475   6.760  15.024 -0.1394 -0.1389  0.2962
 3539W        W 3739   6.528  12.695  10.490 -0.1965  0.0907 -0.3807
 3540W        W 3740  15.576   7.210  12.303 -0.0937  0.0568  0.0436
 3541W        W 3741   8.590  16.869  14.318 -0.0880  0.4225  0.1621
 3542W        W 3742   7.334   2.261  15.060 -0.1110 -0.2953  0.0087
 3543W        W 3743   7.884   5.809  11.762  0.1890 -0.0603  0.2177
 3544W        W 3744  17.456   2.078   9.857  0.0024 -0.2533 -0.0831
 3545W        W 3745  15.346   6.721   4.170  0.1071  0.4030  0.1545
 3546W        W 3746   7.066   6.966  16.566  0.0735 -0.0501  0.1026
 3547W        W 3747   5.132  15.620   1.745 -0.2527 -0.0624  0.1470
 3548W        W 3748   0.016   2.943  12.163 -0.1651 -0.3273 -0.0490
 3549W        W 3749   9.882  13.935   3.218 -0.0235 -0.0242 -0.3669
 3550W        W 3750  14.932   9.707   5.427  0.3457 -0.1230  0.0709
 3551W        W 3751   7.768  13.210  17.681  0.0675 -0.4153 -0.3556
 3552W        W 3752   1.495   7.974  14.140 -0.1079  0.1512  0.1059
 3553W        W 3753   6.381  15.001  17.027  0.1055 -0.2863 -0.2163
 3554W        W 3754  10.822   2.564   0.736  0.2407  0.3310  0.2431
 3555W        W 3755  12.894  12.439   9.073 -0.5877 -0.0313  0.1374
 3556W        W 3756  14.242  12.186  15.550 -0.0521 -0.0967  0.3157
 3557W        W 3757   0.359   6.125   5.454  0.1402  0.0213 -0.0513
 3558W        W 3758   8.472  17.611  14.161 -0.3191  0.1096  0.0560
 3559W        W 3759   9.869   6.845  14.239  0.1255 -0.3299  0.0542
 3560W        W 3760   9.077  10.956  10.581  0.0201 -0.1736 -0.0382
 3561W        W 3761   0.545   6.399   1.549  0.1546 -0.0299 -0.1172
 3562W        W 3762  14.260  10.579   1.835 -0.0080 -0.2599  0.1494
 3563W        W 3763   1.180   8.175   6.468 -0.1122 -0.5283 -0.1416
 3564W        W 3764  13.856   7.546   3.074 -0.0495 -0.1124  0.0262
 3565W        W 3765   0.224   9.339   6.904  0.0101 -0.0957  0.1846
 3566W        W 3766  13.711   9.475   6.529  0.0227  0.2454  0.0083
 3567W        W 3767   8.480  16.208  15.544 -0.3663 -0.0180  0.0070
 3568W        W 3768   6.256  17.872   1.371 -0.0360 -0.3110  0.1937
 3569W        W 3769   0.028   8.597  11.853 -0.1400 -0.0362 -0.2554
 3570W        W 3770   4.141   1.651  11.473  0.1062 -0.3120  0.1912
 3571W        W 3771   1.327   2.455   8.966  0.0588  0.1645 -0.0629
 3572W        W 3772   0.348   9.272  10.621 -0.0532 -0.0224 -0.2554
 3573W        W 3773   5.435   8.830  12.056  0.0015  0.1931  0.1666
 3574W        W 3774   4.541   1.864  10.074 -0.3801 -0.0178 -0.1016
 3575W        W 3775  18.051   0.566  12.411  0.0684  0.2890 -0.0981
 3576W        W 3776   0.051   2.092   3.258  0.0133 -0.0741 -0.1390
 3577W        W 3777   3.871   0.527  16.410 -0.1198  0.2142  0.1149
 3578W        W 3778   6.149   5.464   3.580  0.1948  0.0842  0.1242
 3579W        W 3779  12.288  14.508  12.289  0.0458  0.1296 -0.1749
 3580W        W 3780   4.365   9.743  16.869  0.0823 -0.1900  0.0495
 3581W        W 3781   4.597  12.723  13.526  0.0834 -0.0483  0.1064
 3582W        W 3782  17.296   9.248  11.902 -0.4356 -0.2054  0.1078
 3583W        W 3783   1.705   5.955  15.025 -0.0593  0.1532  0.0168
 3584W        W 3784   5.140  18.130   1.090 -0.1592  0.0264 -0.3244
 3585W        W 3785   1.220   6.191  11.596  0.0629 -0.3260  0.0984
 3586W        W 3786   2.724  11.661   9.746  0.1356  0.0155  0.0188
 3587W        W 3787   6.593   1.241   0.535  0.0319 -0.0980 -0.2507
 3588W        W 3788  17.012  15.429  17.292 -0.0210  0.0241 -0.1085
 3589W        W 3789  14.956   7.731   6.795 -0.2286  0.2585  0.1867
 3590W        W 3790   4.831   5.846   8.581 -0.0229  0.0878  0.1160
 3591W        W 3791   1.492  11.129  14.317 -0.3902  0.0909  0.1401
 3592W        W 3792   0.363   6.575  10.363 -0.0591  0.0903  0.0056
 3593W        W 3793   0.380   3.480  16.027 -0.0746  0.0167 -0.1444
 3594W        W 3794   2.465   6.574   9.811 -0.1847 -0.0245  0.2059
 3595W        W 3795  17.310   9.315  16.315  0.0488 -0.1166  0.3090
 3596W        W 3796   6.536   5.427   5.375 -0.1455 -0.0117 -0.0907
 3597W        W 3797   1.492  10.740  13.320  0.0987  0.2725  0.1614
 3598W        W 3798   4.646   0.353   1.987  0.1842 -0.0683  0.0773
 3599W        W 3799   0.337   5.052  11.979 -0.0786 -0.0851  0.2669
 3600W        W 3800   2.879   3.153  17.439 -0.2483 -0.3262 -0.0420
 3601W        W 3801  15.542   6.534  17.208 -0.2947  0.0526  0.1234
 3602W        W 3802  13.409   9.790  11.704 -0.1945  0.1640 -0.2194
 3603W        W 3803   6.390   8.534   3.177  0.2926  0.0259  0.1483
 3604W        W 3804  14.321   4.587  13.148  0.0581 -0.3284 -0.4209
 3605W        W 3805  13.875  14.870  14.757  0.0845 -0.0682  0.0338
 3606W        W 3806  17.407  17.157  13.602  0.0026 -0.2531  0.2337
 3607W        W 3807   5.039   4.968   8.662  0.3438 -0.0314 -0.1465
 3608W        W 3808   4.936  11.953   7.671  0.3329  0.1932 -0.0309
 3609W        W 3809  11.519   3.784   3.047 -0.3038  0.0556  0.1055
 3610W        W 3810  18.132   2.026  15.501  0.0329  0.1500 -0.2175
 3611W        W 3811  12.676   3.541  15.874  0.0268 -0.2429 -0.0950
 3612W        W 3812   0.892   3.574   8.772  0.0571 -0.0499 -0.1455
 3613W        W 3813  15.074   5.178   7.439  0.1287 -0.2039 -0.0898
 3614W        W 3814   3.933   1.524  15.481  0.1463  0.4717  0.0961
 3615W        W 3815   2.224   8.462  16.421 -0.0004  0.2242  0.0629
 3616W        W 3816   4.463  10.211  10.769 -0.1193  0.4138 -0.1996
 3617W        W 3817   4.648   6.506  15.198  0.4062 -0.1890 -0.1036
 3618W        W 3818   3.236  18.011   6.018 -0.0789  0.2453 -0.0127
 3619W        W 3819  17.912  11.519   0.410 -0.1090 -0.2954  0.2320
 3620W        W 3820   7.564  10.883   4.287  0.0466 -0.2972 -0.0604
 3621W        W 3821   0.458   5.003  14.246 -0.0590  0.0979  0.1298
 3622W        W 3822  10.351   0.570   2.290  0.0357 -0.0392 -0.0726
 3623W        W 3823   5.075   4.673  15.853  0.2159  0.1080 -0.0454
 3624W        W 3824   6.955   4.564   7.760  0.0278 -0.0638 -0.2774
 3625W        W 3825   0.502   3.880   8.690 -0.0144 -0.1445  0.0055
 3626W        W 3826   5.737  12.778   9.249  0.0151 -0.0998 -0.0941
 3627W        W 3827  15.391   9.935  10.578  0.2169  0.1105 -0.0003
 3628W        W 3828   0.404   4.408  12.952  0.2799 -0.2482  0.1463
 3629W        W 3829   0.182   6.126  11.372 -0.1744  0.2042  0.1288
 3630W        W 3830  18.142   4.816   4.430 -0.2919 -0.2382  0.1264
 3631W        W 3831   2.548   8.125   2.415  0.1449 -0.2959 -0.0314
 3632W        W 3832   4.689   2.103  12.119  0.0108  0.1218  0.0574
 3633W        W 3833   6.942  12.405  16.740  0.1781 -0.3175  0.1442
 3634W        W 3834  17.376   5.128   3.761 -0.3306  0.0149 -0.3756
 3635W        W 3835   0.755   8.988  11.486 -0.0278  0.0516 -0.0632
 3636W        W 3836   5.946   6.945  10.532 -0.1848  0.2759 -0.1360
 3637W        W 3837  13.221   3.758  16.042  0.3956 -0.3475  0.1263
 3638W        W 3838   4.136   9.511  14.727  0.0098  0.1039  0.1451
 3639W        W 3839   5.704   9.905  10.833 -0.1992 -0.0152 -0.0365
 3640W        W 3840   2.363  13.328   4.983  0.0615  0.0624  0.0763
 3641W        W 3841   6.276   6.483   3.217  0.0248 -0.1012  0.1181
 3642W        W 3842   2.015   2.742   8.766  0.2855 -0.0757  0.0750
 3643W        W 3843  17.985   7.049  15.147  0.4967  0.1751  0.1785
 3644W        W 3844   1.184   9.290  11.478 -0.1944 -0.0522 -0.0964
 3645W        W 3845  18.154   4.709  17.599  0.1943  0.1938  0.1653
 3646W        W 3846   2.436   5.681   9.908  0.1324  0.2999 -0.1298
 3647W        W 3847   2.785   8.336  15.767 -0.1593 -0.1305 -0.1943
 3648W        W 3848  12.407   7.528   3.903 -0.1179 -0.0479 -0.1915
 3649W        W 3849   4.679  10.239   4.494  0.1912  0.3667 -0.1036
 3650W        W 3850  17.470  11.552  14.222  0.1608 -0.1737  0.3271
 3651W        W 3851   4.954  11.133  15.670 -0.2732 -0.1201  0.1173
 3652W        W 3852  15.337   7.004   1.907 -0.0553 -0.2645  0.2891
 3653W        W 3853   2.182  17.094   2.788 -0.0540 -0.2756  0.3193
 3654W        W 3854  15.527   8.839   0.538  0.0738 -0.0835 -0.2338
 3655W        W 3855   2.070   3.582  16.359 -0.0098 -0.1064  0.0840
 3656W        W 3856   3.805  10.755  12.375 -0.1745 -0.0744  0.2610
 3657W        W 3857   6.928  15.998  14.980  0.0134 -0.1909 -0.0071
 3658W        W 3858   9.312   4.774   4.708 -0.1510  0.1936  0.0048
 3659W        W 3859   2.078   2.156   8.110 -0.1539  0.3182  0.2675
 3660W        W 3860  13.610   5.341  18.109  0.1574 -0.1977  0.3561
 3661W        W 3861   1.128   7.983   3.579  0.0020 -0.3232 -0.0160
 3662W        W 3862   1.578   0.388   9.199  0.2096 -0.1222 -0.0495
 3663W        W 3863  16.793  12.181   1.873 -0.0043  0.0696 -0.1713
 3664W        W 3864  18.029   1.178   0.999  0.1494  0.2547  0.0096
 3665W        W 3865   6.080   7.326   4.977 -0.2569 -0.1162  0.2096
 3666W        W 3866   2.622  15.886  16.661 -0.3402  0.4826 -0.0143
 3667W        W 3867   8.860   1.914  14.609 -0.1862  0.1134  0.0935
 3668W        W 3868   5.827  10.417  18.112  0.1722 -0.0292  0.3061
 3669W        W 3869   8.780   4.862   8.715  0.0470  0.0631  0.1866
 3670W        W 3870  14.116   3.465  15.822 -0.1874 -0.1300  0.0830
 3671W        W 3871   4.667   9.445  12.862  0.1237 -0.1310  0.1715
 3672W        W 3872   1.773   5.332  12.677 -0.0643  0.0825 -0.1195
 3673W        W 3873  16.481   5.215   6.036 -0.0090  0.0342  0.1533
 3674W        W 3874   1.803   2.428   2.013  0.2968 -0.0057 -0.1560
 3675W        W 3875   3.808   4.524   3.857 -0.3329 -0.0330 -0.0916
 3676W        W 3876   6.560   6.815   3.917 -0.0383 -0.1370 -0.1081
 3677W        W 3877   0.257   4.417  13.468  0.1092  0.0270  0.0161
 3678W        W 3878   1.850  17.633  17.619 -0.0242 -0.1772  0.0758
 3679W        W 3879   3.926   9.788  14.088 -0.2750 -0.1692  0.0231
 3680W        W 3880   8.824   2.708  13.209  0.0665 -0.2544  0.0393
 3681W        W 3881   5.161   3.679  14.896 -0.0314 -0.1345 -0.2077
 3682W        W 3882   7.713   3.043   1.882  0.0018  0.0856  0.4718
 3683W        W 3883   3.996  11.350  15.851 -0.2009 -0.1904 -0.1105
 3684W        W 3884   7.609  13.422  15.527 -0.0665 -0.0317 -0.1145
 3685W        W 3885   9.713  12.015   2.036 -0.1749 -0.0407  0.1761
 3686W        W 3886   2.015   1.449   4.070 -0.0220  0.1978  0.3238
 3687W        W 3887  15.460   9.115  13.810 -0.2404  0.0452  0.0203
 3688W        W 3888   2.411  11.310  17.050 -0.4618  0.1965 -0.1087
 3689W        W 3889   3.561  11.026  12.694  0.1986  0.3536  0.1240
 3690W        W 3890   5.827   9.261   5.316 -0.2231 -0.1076  0.0047
 3691W        W 3891   2.548  12.385  15.835  0.0176  0.2680  0.0863
 3692W        W 3892  14.936  14.547  17.229  0.1010  0.2310  0.2060
 3693W        W 3893  17.869   5.295   0.723 -0.0277  0.0189 -0.0277
 3694W        W 3894  11.808   1.265   3.635 -0.0182 -0.0613  0.1737
 3695W        W 3895   0.007   8.681  12.810  0.1712  0.1265  0.0406
 3696W        W 3896  18.044   4.957  10.834 -0.2570 -0.1928  0.2241
 3697W        W 3897  17.288   4.253   1.536 -0.0722 -0.1836 -0.2388
 3698W        W 3898   9.168   5.259  14.746  0.2605  0.3336 -0.1783
 3699W        W 3899  18.020   6.085  16.830 -0.0290  0.1409 -0.0202
 3700W        W 3900  12.304   6.113   8.277  0.2672 -0.0979  0.2517
 3701W        W 3901  15.002  14.344   2.267  0.0858 -0.1835  0.2541
 3702W        W 3902   5.774   6.483   0.789  0.1582 -0.0044 -0.0843
 3703W        W 3903   2.685   3.845  16.720  0.0412 -0.0235 -0.0390
 3704W        W 3904  16.245   6.735  14.449 -0.0178 -0.1718 -0.0424
 3705W        W 3905   1.841   4.756  15.104 -0.0162 -0.0767  0.1324
 3706W        W 3906   1.384   0.864   9.072 -0.2935 -0.1061  0.3347
 3707W        W 3907  13.507  12.386   2.128 -0.0024  0.1665  0.1298
 3708W        W 3908   2.445  16.343  17.656  0.3069 -0.4967 -0.1504
 3709W        W 3909  10.368   3.167   5.013 -0.0444  0.0135  0.2153
 3710W        W 3910   4.063   0.136  13.281 -0.2526  0.0700 -0.2195
 3711W        W 3911   9.654  17.815  13.438  0.0226  0.1095  0.1295
 3712W        W 3912   1.372   8.555  15.986 -0.2641  0.1055 -0.1880
 3713W        W 3913   4.104  12.930   4.655  0.0256  0.3052  0.1993
 3714W        W 3914  16.132   2.722   0.795 -0.0931 -0.1597 -0.4911
 3715W        W 3915  17.101   6.905  14.164  0.4719  0.0444  0.1418
 3716W        W 3916   5.998   7.532  12.558 -0.1454  0.0565  0.1332
 3717W        W 3917   6.436   5.635   5.885  0.3370  0.3202 -0.1509
 3718W        W 3918  17.494  12.826  18.130 -0.1305  0.1063 -0.0570
 3719W        W 3919   8.496   6.971  18.057  0.2903 -0.0078  0.1614
 3720W        W 3920   0.540   5.356  12.332  0.0073 -0.0712  0.1370
 3721W        W 3921   2.304   0.667  10.343 -0.5485  0.4101 -0.1004
 3722W        W 3922  15.855   5.710  15.473 -0.2226  0.0563 -0.0642
 3723W        W 3923   0.840   8.861  12.262 -0.0750 -0.0596  0.2535
 3724W        W 3924   0.459  14.210  14.230 -0.2776  0.0428 -0.3513
 3725W        W 3925   5.945  16.491   1.596 -0.2104 -0.0169 -0.0945
 3726W        W 3926  13.149  18.157   3.216  0.0602  0.0695  0.3845
 3727W        W 3927  14.209   4.508  13.638 -0.0942  0.1321 -0.0711
 3728W        W 3928  14.966   7.447  15.443 -0.2818  0.1725 -0.0419
 3729W        W 3929  14.351   8.017  15.030  0.2074  0.1683 -0.0562
 3730W        W 3930  16.825   3.457  15.221 -0.3769 -0.2058 -0.1396
 3731W        W 3931   8.822   4.900   9.282 -0.0637 -0.1278  0.0488
 3732W        W 3932  15.832   5.991  10.198 -0.2498 -0.2748 -0.1511
 3733W        W 3933   3.063   4.815   4.222 -0.0597  0.2512  0.0718
 3734W        W 3934   7.388   5.678  16.527 -0.1094  0.0950  0.0250
 3735W        W 3935   5.411   5.080   3.890 -0.0535  0.0698  0.0382
 3736W        W 3936   3.824   9.216  16.280 -0.3726  0.0372  0.2549
 3737W        W 3937  17.684   9.626  13.741  0.1758 -0.3423 -0.0667
 3738W        W 3938   5.736   9.806  11.980 -0.1610  0.1606  0.2604
 3739W        W 3939   3.053   4.686  14.683  0.0212 -0.0761  0.1265
 3740W        W 3940   0.993  14.601  11.773 -0.1922 -0.1126  0.2947
 3741W        W 3941   7.651   3.227  13.989  0.0005  0.0781  0.0168
 3742W        W 3942  16.665  11.557  17.191 -0.1237  0.0088  0.2115
 3743W        W 3943  17.344   5.165  17.584  0.0399 -0.0966  0.1235
 3744W        W 3944   4.158  16.831  11.793  0.3051 -0.1937  0.1406
 3745W        W 3945   0.886  16.350  15.142 -0.0038 -0.1521  0.1759
 3746W        W 3946   4.454   9.502  14.292  0.0827 -0.2630  0.0145
 3747W        W 3947   2.590  16.008   6.422 -0.5126 -0.4229 -0.0669
 3748W        W 3948   5.908   6.021   4.940  0.1236 -0.1613  0.0776
 3749W        W 3949   2.692   2.577   9.383  0.1117 -0.0454  0.0682
 3750W        W 3950   5.924   6.025  18.194 -0.0855  0.0062  0.1661
 3751W        W 3951   8.635  11.263  17.045  0.0836  0.0847 -0.2090
 3752W        W 3952   2.631   5.764   4.136  0.1092 -0.0343  0.0253
 3753W        W 3953   5.245   6.746  15.695 -0.1591  0.0721  0.0882
 3754W        W 3954   5.019   0.695  15.784 -0.3093  0.0578  0.2365
 3755W        W 3955   7.480   2.373  16.804  0.0882 -0.0049 -0.2916
 3756W        W 3956   4.745   8.342  15.083  0.0058 -0.2001 -0.0438
 3757W        W 3957   3.656   2.640   2.184 -0.1756 -0.0966 -0.0080
 3758W        W 3958  12.801   1.592   5.559  0.1018 -0.0916 -0.0226
 3759W        W 3959   2.486  10.523   4.999  0.0504  0.2104 -0.0772
 3760W        W 3960  11.028   5.115  17.229 -0.0443 -0.3480  0.1333
 3761W        W 3961   2.732  10.503   6.455 -0.1557  0.1305 -0.0466
 3762W        W 3962  10.139   9.687   2.240  0.0081 -0.0873 -0.2610
 3763W        W 3963   0.667   3.701   0.261  0.0122  0.2099  0.0259
 3764W        W 3964   3.681   3.374   0.564 -0.1695 -0.1060  0.0862
 3765W        W 3965   0.607   1.158   1.060  0.0064  0.1139 -0.1839
 3766W        W 3966   2.491   4.414   0.388  0.1153 -0.1728  0.0522
 3767W        W 3967   2.216  13.481  16.072 -0.1842 -0.1210  0.0347
 3768W        W 3968  15.205   3.160  16.790  0.0460 -0.2063  0.4807
 3769W        W 3969   9.517   6.157   7.135  0.1219 -0.2042  0.1727
 3770W        W 3970   5.867  16.738   1.147 -0.1082  0.3370 -0.2282
 3771W        W 3971  10.105   2.650  13.839  0.1751  0.0350  0.0675
 3772W        W 3972   1.935   9.366   3.530 -0.0682 -0.1810 -0.2827
 3773W        W 3973  17.144   6.371  10.831 -0.1151  0.0019  0.3087
 3774W        W 3974   4.556   6.064   1.269  0.0620 -0.3061 -0.0744
 3775W        W 3975   6.472  16.817  15.643  0.0582  0.0540 -0.3120
 3776W        W 3976   5.352  10.118  15.282  0.3314  0.1110 -0.1529
 3777W        W 3977   4.510   7.281  13.648  0.0247  0.0393  0.1168
 3778W        W 3978   8.589   7.698   4.727  0.0031  0.1272 -0.2590
 3779W        W 3979   0.363   5.521  14.948 -0.1827 -0.0383 -0.1547
 3780W        W 3980  17.693  17.703  16.377 -0.0366 -0.0370  0.1631
 3781W        W 3981   2.316  13.790  12.562  0.2709 -0.1632  0.2846
 3782W        W 3982   7.700   9.843   1.611 -0.2009 -0.2126  0.1813
 3783W        W 3983  17.531   9.310   5.065 -0.0176  0.0370 -0.0733
 3784W        W 3984   8.255  10.800   3.092  0.1932 -0.0899  0.1696
 3785W        W 3985  16.657   7.124  14.062  0.1065 -0.0466  0.0578
 3786W        W 3986   2.857  10.437  16.105  0.3470  0.1008  0.3472
 3787W        W 3987  16.692  11.256   8.986 -0.2659 -0.1382 -0.1392
 3788W        W 3988   9.055  12.355   0.804 -0.2456  0.3011  0.0180
 3789W        W 3989   7.433   0.924  17.254 -0.0455 -0.1560  0.1904
 3790W        W 3990   1.876   4.360  10.618 -0.0953  0.0479 -0.1389
 3791W        W 3991   8.489   8.573   2.027  0.0361  0.1909 -0.2243
 3792W        W 3992  16.378  11.025   2.598  0.2480 -0.0184 -0.0693
 3793W        W 3993  13.427  12.160  17.782 -0.2153 -0.0720  0.0835
 3794W        W 3994   0.705   0.565   3.710 -0.0039  0.3423  0.2703
 3795W        W 3995   8.620   3.474  13.217  0.2508 -0.0916 -0.1738
 3796W        W 3996  16.852   5.102  14.245 -0.2650  0.0611 -0.3549
 3797W        W 3997  17.175   4.831  13.747 -0.2503  0.0572  0.0823
 3798W        W 3998  12.595   0.663   0.239 -0.1309 -0.0534  0.2032
 3799W        W 3999   6.182  15.681   2.687  0.0139  0.1868  0.1595
 3800W        W 4000  14.017  16.445  16.428  0.1499  0.4680 -0.0741
 3801W        W 4001   6.671  17.080  14.056 -0.1595 -0.0151 -0.1089
 3802W        W 4002   5.008  14.568  10.417 -0.0497  0.1346 -0.1887
 3803W        W 4003  17.625  17.256  16.048  0.0219  0.2374  0.0714
 3804W        W 4004   3.621   4.716  16.245 -0.4233  0.1337 -0.2551
 3805W        W 4005  17.471   6.803   3.506  0.2128 -0.0000 -0.0475
 3806W        W 4006  17.171   7.719  10.258  0.0410  0.0577 -0.0511
 3807W        W 4007   1.326  10.149   0.186 -0.1284 -0.1761  0.1887
 3808W        W 4008   4.920   2.696   5.757  0.1450  0.1326 -0.1135
 3809W        W 4009  15.207   5.663   6.672 -0.3268  0.0500  0.1803
 3810W        W 4010   2.488   2.513  16.160  0.0721  0.2058 -0.1424
 3811W        W 4011   0.347  11.768  10.131 -0.1632 -0.2111 -0.1731
 3812W        W 4012  12.081  13.777  14.665  0.2664 -0.0949  0.0043
 3813W        W 4013  17.751  12.670  14.989 -0.1665 -0.1753 -0.2039
 3814W        W 4014  15.283  17.203  15.721 -0.1980 -0.0097  0.1764
 3815W        W 4015   1.365  14.466  15.268 -0.1352 -0.0348  0.2555
 3816W        W 4016   3.502  18.122  18.176  0.0497 -0.1669 -0.0857
 3817W        W 4017  17.401  10.333   0.804 -0.0181 -0.3222  0.1867
 3818W        W 4018   4.909  15.178  14.045  0.0666  0.1634 -0.3065
 3819W        W 4019  16.201   1.761  14.263 -0.0624 -0.1231 -0.0150
 3820W        W 4020   9.753   8.284   7.138  0.3077 -0.2419 -0.1469
 3821W        W 4021   0.671  17.130  13.066  0.0238  0.0646  0.0075
 3822W        W 4022   1.804  14.244  15.488 -0.2822 -0.2684  0.0294
 3823W        W 4023   4.168  18.021  14.046  0.0244 -0.0536  0.4073
 3824W        W 4024   7.459   2.850  16.634  0.2286  0.0179  0.0085
 3825W        W 4025   1.918  11.571  14.911 -0.0215  0.1652 -0.0838
 3826W        W 4026  16.448   7.133  16.459 -0.1453 -0.1573 -0.1817
 3827W        W 4027  15.689  11.604   7.923  0.0399 -0.0752  0.1369
 3828W        W 4028   8.312   7.639   4.166  0.2158  0.2125 -0.3228
 3829W        W 4029  17.460   6.011  10.928 -0.0787  0.2268 -0.0496
 3830W        W 4030   2.511   1.209   2.599  0.0404  0.1318 -0.1232
 3831W        W 4031   7.873   2.141  16.611  0.2148  0.2314  0.0868
 3832W        W 4032   6.687   3.961  10.440  0.2362  0.0480 -0.3667
 3833W        W 4033   2.090   6.462  16.245  0.0456  0.3455  0.0410
 3834W        W 4034   2.050   3.023   1.813 -0.1307 -0.0267  0.2978
 3835W        W 4035  15.802   3.179  13.737  0.2114  0.0947  0.2409
 3836W        W 4036  17.353   4.225   7.716 -0.0915 -0.3379 -0.0348
 3837W        W 4037   4.350   7.323   6.224  0.0735 -0.2292  0.0280
 3838W        W 4038  12.765  14.100  15.729  0.3178  0.1195  0.0926
 3839W        W 4039   0.611   5.403  17.899 -0.1382 -0.1773  0.0167
 3840W        W 4040   7.286   2.425  16.391  0.1090 -0.1556  0.0628
 3841W        W 4041   3.513   4.803   1.780  0.0757 -0.3141 -0.1202
 3842W        W 4042  13.676   4.674   5.797 -0.0525 -0.1203  0.0625
 3843W        W 4043   6.886   3.147   3.855 -0.0692 -0.1551  0.1843
 3844W        W 4044  17.201   4.478  12.356  0.2301 -0.3249  0.1782
 3845W        W 4045   3.623  12.373  17.802 -0.1812 -0.3004 -0.3039
 3846W        W 4046  13.561   5.099  11.863  0.0034  0.3576  0.2076
 3847W        W 4047  10.209   4.363   4.480  0.0753  0.0067 -0.0341
 3848W        W 4048  10.485  17.518  16.485  0.2922  0.0397  0.2369
 3849W        W 4049   8.969   5.117  17.821  0.1225  0.2144 -0.3270
 3850W        W 4050  13.935   0.038  15.531 -0.1790 -0.0617 -0.0637
 3851W        W 4051   0.759   4.594   5.052  0.0373 -0.1384  0.0146
 3852W        W 4052  17.906   3.864   0.553  0.1515 -0.1251 -0.0323
 3853W        W 4053   4.647   4.212   0.284  0.0038  0.0580 -0.1816
 3854W        W 4054   2.427  10.781   4.600 -0.1417 -0.1495 -0.2046
 3855W        W 4055   1.145   2.474  16.355 -0.0710  0.0100 -0.1242
 3856W        W 4056   5.069   5.662   2.598  0.2189  0.0971 -0.3899
 3857W        W 4057   3.177   0.977   9.939  0.0824  0.0298 -0.2249
 3858W        W 4058   4.669   5.504  18.084 -0.0718  0.1923 -0.4755
 3859W        W 4059  15.139  16.266  16.250 -0.0025  0.2094 -0.0993
 3860W        W 4060  10.456   4.813  15.400 -0.3362 -0.0082  0.0995
 3861W        W 4061   7.519   2.950   1.251  0.1542  0.0271 -0.1689
 3862W        W 4062   6.533   6.937   9.946  0.3127 -0.2469 -0.2183
 3863W        W 4063  12.321   3.546  17.949 -0.1854  0.1381 -0.1216
 3864W        W 4064   5.706   4.960   0.838 -0.0922  0.0835  0.1588
 3865W        W 4065   3.905   2.028  12.401 -0.3000 -0.1292 -0.1448
 3866W        W 4066   8.508  10.875  17.416  0.0174  0.0007 -0.2682
 3867W        W 4067   3.054   4.207   8.203 -0.1196 -0.0886 -0.2390
 3868W        W 4068   4.798   3.889   6.367 -0.3425  0.0185  0.1293
 3869W        W 4069   7.739  18.114  16.053 -0.1894 -0.3762 -0.0607
 3870W        W 4070  17.877  13.128  13.766  0.0706 -0.0021 -0.4005
 3871W        W 4071   1.452   4.942  16.549 -0.2604 -0.3605  0.1081
 3872W        W 4072   3.288  10.305   1.744 -0.1439  0.0287  0.2367
 3873W        W 4073   4.848   5.948  11.069 -0.0774 -0.2828 -0.1545
 3874W        W 4074  17.710   5.927  15.060  0.0985 -0.1954 -0.2527
 3875W        W 4075  11.127  11.593   2.206  0.2205  0.0900  0.1305
 3876W        W 4076  17.454   9.672  14.870  0.0747 -0.1397  0.2168
 3877W        W 4077   1.048   1.162   6.428  0.1462 -0.2807 -0.0116
 3878W        W 4078   4.394   0.918  13.068  0.1198  0.5588  0.0364
 3879W        W 4079   2.799   4.530  11.242 -0.2777  0.3198  0.1049
 3880W        W 4080  13.157   7.490   9.147  0.0901  0.2042  0.2496
 3881W        W 4081   3.698   2.939  15.264 -0.0393  0.4215 -0.0775
 3882W        W 4082   4.092  15.407  10.006  0.1028  0.0622  0.1621
 3883W        W 4083  17.476  16.927  10.534 -0.0440  0.2118  0.1389
 3884W        W 4084   6.704   0.715  12.029 -0.3462  0.3998 -0.0160
 3885W        W 4085  13.792  10.955  17.260 -0.1533 -0.2330 -0.1572
 3886W        W 4086   8.596  10.572   6.244  0.1412 -0.2472  0.0222
 3887W        W 4087  16.858   2.314   0.580  0.0790  0.4560 -0.1425
 3888W        W 4088  15.503   7.435   2.510  0.0211  0.0366 -0.1351
 3889W        W 4089   2.957   9.618  14.536 -0.0300  0.3909 -0.0127
 3890W        W 4090   7.606   5.066   7.525 -0.0640  0.4112  0.1206
 3891W        W 4091  15.633   3.119   5.490  0.3631  0.0052 -0.0920
 3892W        W 4092   5.919  16.728  14.945 -0.2064 -0.0115 -0.0273
 3893W        W 4093  15.756   3.141  16.714  0.2047 -0.0748 -0.1624
 3894W        W 4094  14.676   5.171  16.099 -0.0133 -0.1951 -0.2361
 3895W        W 4095   4.677   2.845  18.036 -0.1221 -0.1099  0.2221
 3896W        W 4096  17.428  13.506   3.106 -0.1245  0.0335  0.1597
 3897W        W 4097   2.902   8.478   5.450  0.0165  0.0091 -0.0649
 3898W        W 4098   8.826   9.069   1.308  0.2134  0.0634 -0.0559
 3899W        W 4099  13.417   0.431  17.559  0.1261  0.0400 -0.0771
 3900W        W 4100   9.476   3.577  12.607 -0.1424 -0.1019  0.0192
 3901W        W 4101   0.532   7.052  11.806  0.1053  0.0114 -0.2008
 3902W        W 4102   1.617   2.859  17.224  0.1712  0.0714 -0.2471
 3903W        W 4103   2.684   7.588   2.849  0.1726 -0.2676 -0.1217
 3904W        W 4104   6.736  17.052  17.464  0.4035 -0.1317 -0.0644
 3905W        W 4105   0.360  12.751  17.489  0.2532  0.1686 -0.0918
 3906W        W 4106   1.061   7.677  17.367 -0.1076 -0.0544  0.1918
 3907W        W 4107   1.115  10.307  16.866 -0.0721  0.2453 -0.1395
 3908W        W 4108  15.876  16.383  13.456  0.0463 -0.0719 -0.0375
 3909W        W 4109   6.813  12.917   4.801 -0.4244 -0.0437 -0.2962
 3910W        W 4110   7.195  11.167   1.186 -0.2597 -0.0157  0.1282
 3911W        W 4111   3.225   7.342   9.902  0.0344  0.0911  0.1070
 3912W        W 4112   2.442  16.214  12.275  0.1421  0.0547 -0.0510
 3913W        W 4113   5.515   3.993  16.147  0.0491 -0.0440  0.0200
 3914W        W 4114   2.205  15.817   4.200 -0.2129 -0.0066  0.0948
 3915W        W 4115   3.305   3.105  14.597  0.1535 -0.1196 -0.2304
 3916W        W 4116   1.223   7.485   3.523  0.0152  0.0843  0.1825
 3917W        W 4117  16.050  12.974  15.589 -0.1130  0.2887 -0.0144
 3918W        W 4118   0.697  13.467   0.715 -0.0128 -0.3385  0.0854
 3919W        W 4119   5.421   2.829   0.463  0.0716  0.0136 -0.1523
 3920W        W 4120   2.157   6.553   0.573 -0.0026  0.0170 -0.1787
 3921W        W 4121   6.266   2.999   0.334 -0.1881  0.1459 -0.0634
 3922W        W 4122  14.982   6.762   1.176 -0.1825  0.4212 -0.0621
 3923W        W 4123  12.296   9.251  16.825 -0.2314  0.1784  0.4279
 3924W        W 4124  17.243   0.689   3.348  0.0464 -0.1868  0.0437
 3925W        W 4125  12.871  10.482  12.773  0.1656  0.2549 -0.5191
 3926W        W 4126  13.811   0.382  11.578  0.2103  0.2336 -0.1647
 3927W        W 4127  16.127   8.298  11.311  0.0507  0.1354 -0.1255
 3928W        W 4128  12.823   6.577  11.434 -0.0469 -0.1977  0.0455
 3929W        W 4129   2.670   2.862  17.108  0.1485  0.1182 -0.0269
 3930W        W 4130   9.916   7.730   0.187 -0.0906  0.0884  0.2466
 3931W        W 4131  11.002   9.273  16.515  0.1101 -0.1087  0.1595
 3932W        W 4132   9.761  18.101   2.421 -0.1298 -0.1955 -0.1463
 3933W        W 4133  10.666   9.592  14.524 -0.1910 -0.1121 -0.0615
 3934W        W 4134   5.566   2.827   1.902  0.2574  0.0169  0.2538
 3935W        W 4135   5.207   0.276  10.311  0.2576 -0.0757 -0.2575
 3936W        W 4136   3.285   4.561  12.869 -0.3155 -0.2597 -0.1204
 3937W        W 4137  15.881   7.174  15.988 -0.2145 -0.1016 -0.3016
 3938W        W 4138   5.447   8.646   8.213 -0.1453  0.1616  0.0487
 3939W        W 4139  10.582  14.915  10.296 -0.1385 -0.1563  0.0103
 3940W        W 4140   7.682  16.184  14.424  0.0966 -0.1641 -0.1801
 3941W        W 4141   1.381  11.557  14.745 -0.2246  0.2261  0.0430
 3942W        W 4142   2.672   7.063   2.753  0.2451 -0.5238  0.0026
 3943W        W 4143   4.197   5.661  15.401 -0.0532 -0.0946  0.0071
 3944W        W 4144   0.585   5.471  15.854 -0.1350  0.1734  0.0152
 3945W        W 4145   2.026   2.657  10.613  0.0377  0.0529  0.1319
 3946W        W 4146   1.786  12.980  13.022  0.0032  0.0352 -0.0335
 3947W        W 4147   7.716   8.635  16.004  0.1486  0.1961 -0.1515
 3948W        W 4148   2.116   5.201   0.683 -0.1449  0.0321 -0.3142
 3949W        W 4149  18.196   4.093  17.621 -0.2960 -0.0221 -0.4512
 3950W        W 4150   0.726  10.069  16.378  0.1200 -0.2195 -0.1161
 3951W        W 4151  16.938   4.444   8.595 -0.0579 -0.1379  0.0242
 3952W        W 4152  14.358   2.020   0.298  0.2462  0.0013  0.0956
 3953W        W 4153   7.887   2.822   2.932  0.0224  0.1958  0.0491
 3954W        W 4154   6.595   2.932  12.718  0.2232 -0.2423  0.0553
 3955W        W 4155   7.839   5.392   4.284 -0.0691 -0.0301  0.3189
 3956W        W 4156   0.495   7.254  15.383 -0.0824  0.3963  0.2147
 3957W        W 4157  10.138  11.766   2.151 -0.1013  0.1590 -0.0800
 3958W        W 4158  15.963  12.252  15.129  0.0198 -0.0751  0.2212
 3959W        W 4159   4.383   5.313   4.194  0.2753  0.1149 -0.1318
 3960W        W 4160  17.369   8.726  11.354 -0.0007  0.2348 -0.1079
 3961W        W 4161   4.710   2.838  17.515 -0.1873 -0.1680 -0.1775
 3962W        W 4162  16.475   3.741   2.122 -0.0237  0.0702 -0.1670
 3963W        W 4163  14.687  16.990   9.630 -0.0872 -0.2274  0.1911
 3964W        W 4164   2.212  18.178  15.019 -0.0731 -0.1961  0.1663
 3965W        W 4165   5.718  11.083  14.792  0.0425 -0.0161  0.1842
 3966W        W 4166  16.872   7.381  12.713 -0.0144  0.2654  0.1555
 3967W        W 4167  14.934   2.397  17.868 -0.1094  0.2052 -0.0949
 3968W        W 4168   1.775   6.958   8.368 -0.0741  0.3735  0.0050
 3969W        W 4169   5.591  11.135  10.695  0.0840  0.0015 -0.4129
 3970W        W 4170   0.316   5.755  10.335  0.0798 -0.3177 -0.2209
 3971W        W 4171   4.897   2.876   0.858 -0.1101  0.0483 -0.3254
 3972W        W 4172  17.654   3.111  17.585 -0.0276  0.3408 -0.0900
 3973W        W 4173  14.117   4.458  12.247  0.3119  0.0234  0.1334
 3974W        W 4174  15.142   7.738  16.728  0.0648 -0.2398  0.0558
 3975W        W 4175  17.037   9.240   1.014  0.3660 -0.0393 -0.1998
 3976W        W 4176   4.293  10.560   4.747  0.2377  0.2238  0.1094
 3977W        W 4177   7.891   2.179  18.074 -0.1364 -0.1196  0.1837
 3978W        W 4178  15.373  14.284  10.702 -0.1566  0.1468 -0.2709
 3979W        W 4179   0.145   0.781   6.776 -0.1027 -0.3065 -0.1299
 3980W        W 4180   2.752  14.683  10.616  0.0343  0.3136  0.1607
 3981W        W 4181   6.439   3.610   3.224 -0.3105  0.2199 -0.2055
 3982W        W 4182  14.696   1.703   2.018 -0.0503 -0.1088 -0.1864
 3983W        W 4183  14.786  10.056  16.299  0.2471 -0.1249  0.2750
 3984W        W 4184   2.519   5.089   8.012  0.1195  0.0968 -0.1611
 3985W        W 4185  10.450  11.135  15.376  0.0045  0.0748 -0.5847
 3986W        W 4186   5.768   8.871  14.952 -0.0690 -0.1880 -0.1022
 3987W        W 4187   6.909  14.787  15.126 -0.1200 -0.1564  0.3079
 3988W        W 4188   4.528   3.422  15.454 -0.1070 -0.0732  0.1664
 3989W        W 4189   3.754  11.655  18.043 -0.1135 -0.2861 -0.1738
 3990W        W 4190  13.663   5.882   9.348 -0.4076  0.1880 -0.1826
 3991W        W 4191  14.095   5.546  14.563  0.1285 -0.0564 -0.2602
 3992W        W 4192  18.098   4.788   2.316  0.1889 -0.2523  0.1157
 3993W        W 4193  14.114   7.619   0.638 -0.0958  0.1272 -0.3422
 3994W        W 4194   7.999   6.221   0.821 -0.1329 -0.0473  0.3542
 3995W        W 4195   2.371   5.001   2.604  0.2017  0.3140 -0.0573
 3996W        W 4196   0.939  15.485  14.108  0.1005 -0.0404  0.2694
 3997W        W 4197  16.611   5.354  15.893  0.0111 -0.0590  0.0648
 3998W        W 4198   2.199  10.569   9.854 -0.2293  0.2967 -0.0063
 3999W        W 4199  16.708   8.701  16.777  0.0950  0.2235 -0.0794
 4000W        W 4200   8.703   1.240  15.873 -0.2470  0.1096  0.2278
 4001W        W 4201   9.432   2.947   4.785  0.2023 -0.0913  0.1000
 4002W        W 4202  15.761  15.207  13.112  0.2242  0.4535  0.2758
 4003W        W 4203  17.269   0.670  17.082 -0.1549  0.0610  0.2575
 4004W        W 4204  18.153  14.151   9.903  0.0196 -0.0904  0.0569
 4005W        W 4205   3.217  15.616  14.019 -0.3083  0.2531  0.1747
 4006W        W 4206   8.365   2.531  17.377 -0.0169 -0.2040 -0.1054
 4007W        W 4207   6.330  14.845  10.214  0.1343  0.1319  0.1594
 4008W        W 4208   9.128   9.706  13.610  0.1827  0.0326  0.0754
 4009W        W 4209   1.473   3.499   1.383 -0.1863 -0.2396  0.0705
 4010W        W 4210   7.280  11.917  11.513 -0.1185  0.1882 -0.0860
 4011W        W 4211   7.243   7.343  15.285  0.0931 -0.0477  0.0554
 4012W        W 4212  17.740   6.571  16.128  0.0233 -0.1906  0.2933
 4013W        W 4213  15.968   2.491  18.126  0.3087 -0.0403 -0.2314
 4014W        W 4214   4.915   5.230  15.880 -0.3149  0.0437  0.0348
 4015W        W 4215   6.864   9.109  15.965  0.0089  0.0169 -0.2230
 4016W        W 4216   3.200  16.704  14.967 -0.0426  0.4112 -0.0810
 4017W        W 4217   3.354   3.261  15.113 -0.2736 -0.1036 -0.0926
 4018W        W 4218   4.820  10.742  14.888  0.2256  0.0601  0.2405
 4019W        W 4219   8.948   9.036  16.004 -0.1465 -0.1027  0.0189
 4020W        W 4220   3.907   3.538   3.402 -0.1898 -0.1643  0.1684
 4021W        W 4221  18.081   7.878   5.871 -0.2094  0.2584  0.3027
 4022W        W 4222   1.913  13.277  16.378  0.2024  0.2548 -0.1201
 4023W        W 4223   1.502   8.596  14.904 -0.1183 -0.0007 -0.0111
 4024W        W 4224   4.566   3.974  17.112  0.2163  0.0610 -0.0062
 4025W        W 4225  17.789  15.630  11.359  0.0816  0.1593  0.1389
 4026W        W 4226   3.358  17.928  10.341 -0.1299  0.2776 -0.1601
 4027W        W 4227   1.829   9.785   1.539  0.1273 -0.2435  0.1635
 4028W        W 4228  13.635   1.727  16.732  0.0712  0.3060  0.1099
 4029W        W 4229   2.391  17.155  13.312  0.1293  0.2629  0.2093
 4030W        W 4230   2.782  10.118  13.900  0.1567 -0.0545 -0.2374
 4031W        W 4231  17.563  12.266   8.525 -0.0524  0.1241 -0.2032
 4032W        W 4232   1.860  10.818  13.003  0.1174 -0.2690 -0.1279
 4033W        W 4233   9.238   4.895   8.908 -0.2391  0.0397 -0.3117
 4034W        W 4234   5.143   0.702   0.317 -0.1309  0.3315  0.0958
 4035W        W 4235   3.662   6.874  13.944 -0.4255  0.2495 -0.2698
 4036W        W 4236   7.228   0.192   4.633  0.1165  0.1390  0.2156
 4037W        W 4237  11.525   9.015   0.674  0.1178 -0.0494 -0.3240
 4038W        W 4238  13.433   8.171  11.237 -0.0510 -0.0115  0.2223
 4039W        W 4239  16.762  12.727  14.977  0.1661  0.0647  0.2755
 4040W        W 4240  13.302   6.078  13.274 -0.1864 -0.1804 -0.4155
 4041W        W 4241  17.770   0.807  12.024 -0.1977  0.0278  0.0024
 4042W        W 4242   2.435   1.063  12.156  0.2008 -0.0675 -0.0213
 4043W        W 4243   2.540   2.065   6.486 -0.0695 -0.0613  0.4809
 4044W        W 4244  12.722  17.572   1.179  0.4344 -0.1244  0.3285
 4045W        W 4245   8.430   9.921  16.302 -0.3121 -0.3103 -0.0593
 4046W        W 4246   0.816  14.291   7.341  0.1814  0.3955 -0.0829
 4047W        W 4247  16.463  13.679  15.924  0.1868 -0.1515 -0.0890
 4048W        W 4248  15.917   8.117   2.262  0.1142  0.1812  0.1181
 4049W        W 4249   2.726   9.148  14.671  0.3179  0.1337 -0.0610
 4050W        W 4250  17.837  14.315   2.501  0.0153 -0.2947 -0.2341
 4051W        W 4251   5.294  14.392  11.269  0.1391  0.1067  0.0594
 4052W        W 4252   2.966  16.191   5.373  0.0326  0.3124 -0.3242
 4053W        W 4253  12.594   7.791   4.360 -0.0854  0.2519  0.3150
 4054W        W 4254  17.956  11.063  16.962  0.1287 -0.0887 -0.3942
 4055W        W 4255  15.828  10.976  11.382 -0.2401 -0.0359 -0.2057
 4056W        W 4256  12.048   8.399  12.650 -0.1068 -0.2647 -0.0730
 4057W        W 4257   1.414   4.812   3.426 -0.2035 -0.3890  0.0050
 4058W        W 4258   5.288  10.427  13.675  0.0426 -0.1180  0.1608
 4059W        W 4259  11.848  11.338  15.792  0.2607  0.1173  0.1354
 4060W        W 4260   7.500   7.639   6.679 -0.1682  0.1312  0.0269
 4061W        W 4261   2.751   2.551   0.024  0.4183  0.2081 -0.3778
 4062W        W 4262   4.857   9.076   1.148  0.2330  0.0022 -0.0066
 4063W        W 4263   3.059  11.398   2.420 -0.1513  0.0393 -0.0306
 4064W        W 4264  11.107   8.723   0.924  0.2260 -0.1523  0.0687
 4065W        W 4265   6.069   1.564  10.535  0.1593 -0.1577 -0.2976
 4066W        W 4266   2.071  11.480  15.497  0.1565 -0.0915  0.0575
 4067W        W 4267   8.601  15.478   5.760 -0.1265  0.1420 -0.0181
 4068W        W 4268   1.472   6.714   6.998 -0.1011 -0.1969  0.2652
 4069W        W 4269   7.865   4.387   4.525 -0.0813 -0.1905 -0.0175
 4070W        W 4270   5.908  15.557   4.625 -0.2406  0.1396  0.3376
 4071W        W 4271  16.201  10.130   5.387  0.1281 -0.0775 -0.1362
 4072W        W 4272  15.598   5.962   9.730 -0.0724 -0.0892 -0.2755
 4073W        W 4273   3.007   4.373   0.272  0.1145 -0.0421  0.0744
 4074W        W 4274  16.721   3.316  13.868  0.1886  0.2497  0.0756
 4075W        W 4275  15.409   9.370   7.175  0.2928 -0.1924  0.3175
 4076W        W 4276   7.060  11.880   4.507 -0.1053 -0.0546 -0.1062
 4077W        W 4277   2.778  15.967   4.167  0.3758 -0.0039  0.0105
 4078W        W 4278   1.405  11.201   6.821 -0.2002 -0.0386 -0.2894
 4079W        W 4279   0.263   0.527   2.535  0.1704  0.1415 -0.1181
 4080W        W 4280   3.651  11.356   1.827 -0.0336  0.0334  0.2084
 4081W        W 4281   1.729  10.116  12.458  0.0676 -0.3525 -0.0628
 4082W        W 4282   6.298   0.678   4.799 -0.0831  0.1063  0.1294
 4083W        W 4283   0.546   3.089  17.443  0.1421 -0.1931 -0.0212
 4084W        W 4284   3.725  10.846   4.787 -0.0419 -0.0415  0.0646
 4085W        W 4285   3.760   8.277  17.691  0.1243  0.1783  0.4312
 4086W        W 4286   4.725  14.931  10.149  0.2105  0.2166  0.0041
 4087W        W 4287  15.105  16.518   3.288 -0.3836 -0.0417  0.2537
 4088W        W 4288  13.905   9.075  17.400 -0.0409 -0.1731  0.3993
 4089W        W 4289   2.267   7.619   3.380 -0.1566  0.0275  0.1380
 4090W        W 4290   3.975   7.641   8.915  0.0975  0.1866  0.0323
 4091W        W 4291  11.067  12.983  17.352 -0.0089 -0.0132 -0.0246
 4092W        W 4292   0.028   5.551   0.473 -0.0594  0.0178  0.0325
 4093W        W 4293   1.238   0.866   5.279  0.2102 -0.1086 -0.0329
 4094W        W 4294  10.125   8.491  15.661  0.0392  0.3565  0.1485
 4095W        W 4295  18.027  13.453   5.502  0.1126 -0.1870  0.1212
 4096W        W 4296   4.323   3.687  16.530 -0.2756 -0.0339  0.2061
 4097W        W 4297   5.555   7.339  18.183 -0.1743 -0.2376  0.0647
 4098W        W 4298   7.762   6.461   9.908 -0.1185  0.1391  0.3452
 4099W        W 4299   9.068   6.451   4.355  0.1223  0.1810  0.1812
 4100W        W 4300  16.562  16.009   1.335  0.0781 -0.0736 -0.0915
 4101W        W 4301  11.604  13.472  11.377  0.1270  0.0509  0.2234
 4102W        W 4302   1.855   4.952  18.014 -0.2457 -0.0292  0.0049
 4103W        W 4303  16.508  17.196   3.446  0.0453 -0.0675  0.1122
 4104W        W 4304   5.186  15.324  11.078 -0.1118  0.1294 -0.2094
 4105W        W 4305   1.833  16.186   3.522  0.0564  0.1718  0.0031
 4106W        W 4306   2.341  11.105   9.373 -0.2651 -0.2140  0.1749
 4107W        W 4307   2.614  11.827   4.885  0.0776 -0.1276  0.0085
 4108W        W 4308   0.637   9.025   0.915 -0.2287  0.0261  0.0388
 4109W        W 4309   2.248   0.642   6.713 -0.0413  0.0686 -0.1323
 4110W        W 4310  15.737   4.056  16.018 -0.1413 -0.1574 -0.2132
 4111W        W 4311   1.466   8.671   6.508 -0.1546 -0.0123  0.1652
 4112W        W 4312   0.204  17.816   6.322  0.1994  0.0248  0.0277
 4113W        W 4313   1.669  11.665  15.919 -0.0670 -0.2662 -0.0367
 4114W        W 4314   4.862   7.457   0.738 -0.1712 -0.1508  0.1987
 4115W        W 4315   2.068   7.880   3.853  0.0382  0.1872 -0.1072
 4116W        W 4316   4.571   7.960   8.671 -0.1066  0.2408  0.0539
 4117W        W 4317   3.937   6.578   4.832 -0.2141  0.0588  0.0620
 4118W        W 4318  12.630  13.477  10.476  0.1073 -0.1654  0.1120
 4119W        W 4319  10.223   0.201  16.395  0.0069 -0.2189  0.0805
 4120W        W 4320  13.482   8.538   7.650 -0.2189 -0.2986  0.1260
 4121W        W 4321  16.389   7.914   7.209  0.2150  0.0849  0.0354
 4122W        W 4322   0.806   6.850   5.572  0.0999 -0.1023  0.3681
 4123W        W 4323  15.142  10.232   5.293  0.2188  0.1738  0.2691
 4124W        W 4324  14.289  15.641   2.275 -0.0220  0.1810  0.1597
 4125W        W 4325  17.430   6.217  12.444  0.0003 -0.0263 -0.1697
 4126W        W 4326  17.194   3.830   0.071 -0.1028  0.2066 -0.1716
 4127W        W 4327  17.687   1.777  11.756 -0.1481 -0.0397 -0.2686
 4128W        W 4328  12.678  10.012   1.179  0.0046  0.1443 -0.0149
 4129W        W 4329   8.880  14.531  15.897 -0.0570  0.0165 -0.0886
 4130W        W 4330  16.254   3.209  13.990 -0.1357 -0.0426  0.2406
 4131W        W 4331   7.490   9.824   8.752  0.0068  0.0841  0.1113
 4132W        W 4332  16.293   3.332   7.014 -0.5141  0.3002 -0.1584
 4133W        W 4333   8.112   1.222   5.003  0.1565 -0.1523 -0.0095
 4134W        W 4334   5.239   6.599   1.125  0.0813  0.0355  0.4488
 4135W        W 4335   3.264  13.093   1.722  0.0878  0.1190 -0.0288
 4136W        W 4336  15.105   7.536   2.023 -0.0361  0.2779  0.1188
 4137W        W 4337  16.116   9.766   9.845  0.0547 -0.2748  0.0530
 4138W        W 4338   3.584   5.503   1.134  0.1181  0.2375  0.0299
 4139W        W 4339   7.526   7.303  14.875  0.2223  0.2501 -0.0076
 4140W        W 4340   6.497   7.274   7.105 -0.1855  0.1411 -0.1630
 4141W        W 4341  13.101   8.674  13.455  0.1234 -0.0172 -0.1032
 4142W        W 4342  11.196   6.250  16.039 -0.0428  0.1380 -0.1058
 4143W        W 4343  14.714  14.753  14.509 -0.2704  0.0124 -0.1901
 4144W        W 4344   7.766   3.767   7.429 -0.0440  0.4234 -0.4219
 4145W        W 4345   0.844   4.531   2.178 -0.2382  0.0462 -0.0788
 4146W        W 4346   9.567   7.807  15.875 -0.0273  0.0049  0.0703
 4147W        W 4347   1.887  13.372   3.084  0.1535  0.1516 -0.0948
 4148W        W 4348   5.563   0.823   1.595  0.0635  0.1376 -0.0748
 4149W        W 4349   5.653  11.656   2.631  0.0709  0.0192 -0.1530
 4150W        W 4350   0.916   5.980  16.766  0.0693  0.0199 -0.2626
 4151W        W 4351   7.189   1.706   3.492  0.2938  0.3006 -0.0723
 4152W        W 4352   1.151  11.143   0.602 -0.2033 -0.2654 -0.1216
 4153W        W 4353  16.758  17.861   4.207 -0.1128 -0.1515 -0.1161
 4154W        W 4354   1.742   4.602   2.093  0.1725  0.1771  0.2560
 4155W        W 4355   5.224   6.669   2.822 -0.1880 -0.1292 -0.0446
 4156W        W 4356   1.801   2.653  18.144  0.1392 -0.2602 -0.0673
 4157W        W 4357   8.771   6.670   2.620 -0.0393  0.1279 -0.5048
 4158W        W 4358  16.648  12.835  16.247  0.1990  0.2371  0.1895
 4159W        W 4359   2.879   6.469   8.904 -0.1221 -0.0831 -0.1086
 4160W        W 4360  13.577  10.348  17.394 -0.1043 -0.0081  0.5879
 4161W        W 4361   3.574  10.891   1.038  0.1769 -0.0638 -0.0827
 4162W        W 4362   1.684  17.662  18.138  0.2077  0.1407 -0.1434
 4163W        W 4363  13.799   3.792  15.424 -0.2107 -0.0034  0.1640
 4164W        W 4364  10.022  18.073   0.975  0.1297 -0.0771  0.0617
 4165W        W 4365   4.672  18.037   1.992 -0.3812  0.0122  0.2192
 4166W        W 4366  11.379   5.856  16.209 -0.2728  0.2123 -0.2331
 4167W        W 4367  17.590   9.346  18.190 -0.0242 -0.0339 -0.0722
 4168W        W 4368   4.239   6.155  15.336  0.0369  0.3081  0.1322
 4169W        W 4369  18.003   5.486   5.655  0.3336 -0.1625 -0.0599
 4170W        W 4370   6.873   1.237   6.034  0.3225  0.1890 -0.1308
 4171W        W 4371   1.688   2.993   2.209  0.0713  0.1747  0.4000
 4172W        W 4372   1.123  12.851   6.409  0.1328  0.2757  0.0646
 4173W        W 4373  15.786   9.372   5.505 -0.0797 -0.4741 -0.4086
 4174W        W 4374  13.141  11.715   5.888  0.0602  0.0975  0.3197
 4175W        W 4375   6.571  11.666   6.478  0.0745  0.0550 -0.1593
 4176W        W 4376   1.712   4.257   1.308  0.1258 -0.0256  0.0914
 4177W        W 4377   2.485  15.428  11.449 -0.1460 -0.3529  0.1110
 4178W        W 4378  11.667   8.929   1.136  0.0628 -0.0673  0.0932
 4179W        W 4379  10.255   7.814   7.867  0.0949  0.0771 -0.1782
 4180W        W 4380   1.796   3.941  17.098 -0.0141  0.2366  0.1154
 4181W        W 4381   3.989  11.605  17.615 -0.1379 -0.1184  0.1879
 4182W        W 4382  14.650  13.057   3.732 -0.0102 -0.1551  0.0931
 4183W        W 4383   6.160   4.706  10.531 -0.0977  0.0024 -0.0220
 4184W        W 4384   2.056  12.473  14.671  0.0547 -0.0952 -0.1541
 4185W        W 4385  12.105  10.569   3.653 -0.2824  0.1009  0.4799
 4186W        W 4386  14.608   5.533  15.756  0.4630  0.1215  0.0122
 4187W        W 4387   1.585   7.165   9.186 -0.0218  0.1328 -0.3447
 4188W        W 4388   0.387  12.234  14.157 -0.0531  0.0405  0.2277
 4189W        W 4389   2.527   9.939  17.247  0.0122 -0.1334 -0.2543
 4190W        W 4390  12.167   8.750   8.266 -0.1819 -0.0981  0.0699
 4191W        W 4391  13.140  11.594   0.416  0.3121  0.3344  0.0531
 4192W        W 4392   6.482   6.555  10.338 -0.1289  0.1415 -0.1972
 4193W        W 4393   5.179   3.859  13.148 -0.0596  0.3375 -0.0340
 4194W        W 4394   3.865   7.283   2.986 -0.2890  0.1421  0.0246
 4195W        W 4395  14.561   7.293   0.602  0.0664 -0.2065  0.2569
 4196W        W 4396  18.203  10.976  17.804  0.0368 -0.0280 -0.1595
 4197W        W 4397   3.707   7.014   9.024  0.0931 -0.1025 -0.0792
 4198W        W 4398   0.903   7.982  12.723  0.1389 -0.1823  0.2184
 4199W        W 4399  16.044  11.778   0.759 -0.0186 -0.1649  0.0733
 4200W        W 4400   5.946   6.910   3.891  0.1181 -0.2536 -0.2734
 4201W        W 4401  17.802   6.900  11.015  0.1567 -0.1321  0.2064
 4202W        W 4402  14.424   9.503  10.523  0.1483  0.0963  0.1910
 4203W        W 4403   2.976   9.204   2.640 -0.2965 -0.1163  0.0036
 4204W        W 4404  17.549   6.404   2.962 -0.0787 -0.3825  0.2676
 4205W        W 4405   1.492   1.329  17.681 -0.4678 -0.1568 -0.0100
 4206W        W 4406   5.405  12.080   4.484 -0.0915 -0.6168 -0.2405
 4207W        W 4407   3.103  11.520   5.241  0.1215  0.2439  0.2208
 4208W        W 4408  12.587   5.703  11.894 -0.1047 -0.0824 -0.4134
 4209W        W 4409   3.131  17.343  10.475 -0.1023  0.0390 -0.0913
 4210W        W 4410   3.750  11.911   2.716  0.0133  0.1692  0.1075
 4211W        W 4411   3.814  13.336   0.541 -0.1402  0.1345  0.2708
 4212W        W 4412   5.097   4.299   1.777  0.1183 -0.1666  0.2377
 4213W        W 4413   2.348  14.556   7.126 -0.0806 -0.1620 -0.3233
 4214W        W 4414   5.543   4.802   4.373  0.2010  0.2641 -0.2878
 4215W        W 4415  12.817   4.609  10.459 -0.3036 -0.1993 -0.0481
 4216W        W 4416   4.700  11.033   2.031  0.0050  0.3883 -0.0718
 4217W        W 4417  17.757  13.803  17.091  0.1439  0.0270 -0.0337
 4218W        W 4418   3.357   7.284   6.978  0.0397  0.1656  0.0627
 4219W        W 4419  16.646   5.261  17.938 -0.0392 -0.0022  0.3494
 4220W        W 4420  14.601  10.608  14.494  0.4169  0.1547 -0.2828
 4221W        W 4421  11.985   1.277   7.024  0.3358 -0.0562 -0.1483
 4222W        W 4422  16.722   2.029   0.238  0.2502 -0.4586  0.1991
 4223W        W 4423   5.047  14.505  16.554 -0.0642 -0.3434 -0.1636
 4224W        W 4424   3.680  11.937   5.914 -0.3458 -0.1410  0.2389
 4225W        W 4425   5.556  11.520  13.957 -0.2399 -0.1185  0.1529
 4226W        W 4426   2.757  12.686   0.348  0.3504  0.0293 -0.0661
 4227W        W 4427   3.448  18.053   3.455 -0.2496 -0.0375 -0.2973
 4228W        W 4428   5.997   4.783   6.901  0.2733 -0.2188 -0.1711
 4229W        W 4429   4.567  16.203   4.486 -0.0312  0.1495  0.4121
 4230W        W 4430   7.493  17.870   9.948  0.1253 -0.1842  0.4430
 4231W        W 4431   7.864  13.837  15.215 -0.1100 -0.2013  0.2007
 4232W        W 4432   7.384  11.665   1.649  0.2414  0.1979  0.2060
 4233W        W 4433   4.080   9.968  15.296 -0.1346  0.1416 -0.0340
 4234W        W 4434  15.381  11.500   3.595  0.4317 -0.0542 -0.0906
 4235W        W 4435  17.609  15.555   2.616 -0.0828 -0.2918 -0.0391
 4236W        W 4436   0.646   3.330  11.548 -0.2513  0.1777 -0.0576
 4237W        W 4437  14.708   3.258  16.653 -0.0835 -0.0862  0.1155
 4238W        W 4438  16.100   9.249   6.434  0.0626 -0.3070  0.2327
 4239W        W 4439  14.437  12.003   2.259  0.0152  0.2264 -0.1603
 4240W        W 4440  13.007   3.647  13.403  0.1815  0.0162 -0.0389
 4241W        W 4441   8.482   3.687  15.991  0.1352 -0.1315 -0.0015
 4242W        W 4442   3.158   7.330   0.381  0.0098 -0.1993 -0.1215
 4243W        W 4443   3.389  12.652  15.879  0.0393 -0.1238 -0.0967
 4244W        W 4444   4.018   2.126  11.563  0.2373 -0.1336 -0.0111
 4245W        W 4445   3.633   8.248   1.271  0.1616 -0.6933  0.3527
 4246W        W 4446   1.308   4.312   3.533  0.0693  0.2927 -0.1697
 4247W        W 4447  17.576   6.508   8.779 -0.0387  0.2886 -0.3381
 4248W        W 4448  12.096   5.728  13.564 -0.1594  0.2853 -0.0328
 4249W        W 4449   4.623   6.048  13.380  0.1326  0.3019  0.1734
 4250W        W 4450  12.462   0.293  12.757  0.2093 -0.0732  0.1802
 4251W        W 4451  14.242  14.576  11.485 -0.0853  0.0631  0.0167
 4252W        W 4452   4.934  10.206   2.607 -0.3363 -0.0518 -0.1823
 4253W        W 4453  14.705  10.094   5.094  0.0306 -0.1561  0.1748
 4254W        W 4454   0.627   0.533   5.871  0.1844  0.0986  0.0392
 4255W        W 4455   2.496   8.135   4.887 -0.2238 -0.2034  0.0079
 4256W        W 4456   4.302   6.659  17.069  0.0396 -0.3212 -0.0076
 4257W        W 4457  16.772   4.758   0.139 -0.0776 -0.1184 -0.1084
 4258W        W 4458   2.536  10.987  14.250 -0.0787  0.1071  0.0710
 4259W        W 4459   0.200  13.035   9.432 -0.1858  0.0758  0.1006
 4260W        W 4460  16.806  16.319   4.024 -0.1634 -0.1157 -0.1077
 4261W        W 4461  16.287   5.564   2.495 -0.0084  0.0771  0.3513
 4262W        W 4462   4.113  12.096   4.083 -0.0404  0.0099 -0.1360
 4263W        W 4463   4.572   6.544  17.682  0.0276  0.1845 -0.1270
 4264W        W 4464   7.700   1.779   6.224 -0.1505 -0.2232 -0.2293
 4265W        W 4465   1.206   9.597   2.575 -0.1984  0.0465 -0.0964
 4266W        W 4466   4.482   6.485  16.585 -0.2046 -0.0112  0.0865
 4267W        W 4467  15.510   1.064   3.899  0.0418 -0.2225 -0.0188
 4268W        W 4468  13.888  16.882   9.296 -0.1309  0.0690 -0.1350
 4269W        W 4469  13.257   8.487   4.396 -0.1692 -0.2035 -0.1434
 4270W        W 4470  12.398  11.731   2.567 -0.1142 -0.1120 -0.1471
 4271W        W 4471  17.989  12.302  11.049 -0.0228  0.2380  0.1746
 4272W        W 4472   5.488   9.226   6.125  0.3528  0.0830  0.1008
 4273W        W 4473   2.193   9.315   0.346 -0.1987  0.0743  0.0610
 4274W        W 4474   6.720   3.016   0.539  0.0658 -0.1443  0.0859
 4275W        W 4475  18.037  15.648  15.202 -0.0348 -0.1935  0.2489
 4276W        W 4476   5.392  16.041   3.478 -0.0872 -0.0833  0.1082
 4277W        W 4477   6.571   3.451  16.077 -0.4592  0.1069  0.1369
 4278W        W 4478   3.268   9.640  17.960  0.0561 -0.1751 -0.0178
 4279W        W 4479   6.547  10.336  14.513  0.1581  0.0574  0.1369
 4280W        W 4480  10.432   4.254  17.506 -0.2551 -0.2867  0.0142
 4281W        W 4481   5.393  10.777  18.126 -0.3571  0.0007  0.0130
 4282W        W 4482   8.577  17.115   3.347 -0.1659  0.0343 -0.0367
 4283W        W 4483   2.925   3.041   0.183  0.0892 -0.1448  0.3081
 4284W        W 4484   7.325  11.179   2.075 -0.1100 -0.1303  0.3441
 4285W        W 4485   3.324  16.898   6.082  0.2041 -0.1715 -0.0705
 4286W        W 4486  14.270   7.098   2.352 -0.3160 -0.3506 -0.1887
 4287W        W 4487  16.576  10.619   2.872  0.0239  0.0652 -0.2792
 4288W        W 4488   2.344   3.935  17.637  0.2182  0.0118  0.2999
 4289W        W 4489   4.583  10.195  18.005 -0.1001  0.4013 -0.2358
 4290W        W 4490   6.471   6.871  12.708 -0.2136  0.1276  0.1839
 4291W        W 4491   3.091  11.062  14.075 -0.0315 -0.0660  0.4162
 4292W        W 4492  14.664  12.318  14.507 -0.0529 -0.2047  0.0129
 4293W        W 4493  12.559   8.086   3.984 -0.0902  0.0298 -0.1294
 4294W        W 4494   3.294   8.442   2.137  0.0612 -0.2928  0.0753
 4295W        W 4495  10.227  15.366   7.888 -0.3064  0.1273  0.0066
 4296W        W 4496   0.387  15.436   1.455  0.1774 -0.0795  0.0219
 4297W        W 4497  18.170  10.131   0.873  0.1987 -0.1498 -0.1263
 4298W        W 4498  16.519   6.443  17.329  0.0226  0.0820  0.0680
 4299W        W 4499  10.061  12.003  16.520 -0.0054  0.0622  0.0826
 4300W        W 4500  17.174   7.263   1.996 -0.2610  0.0743  0.2085
 4301W        W 4501  15.110   5.383  17.005  0.2153  0.4328 -0.2451
 4302W        W 4502   6.368  12.796   1.882 -0.2393 -0.1287  0.0484
 4303W        W 4503   4.937  11.367  11.350 -0.0914 -0.1669 -0.1965
 4304W        W 4504   2.220   9.877  16.637 -0.0854  0.0281 -0.2904
 4305W        W 4505  14.058   5.210  15.078  0.2639 -0.0443  0.0477
 4306W        W 4506  13.278   3.848   2.101  0.1440  0.2366 -0.0014
 4307W        W 4507  14.440  11.017   1.867 -0.0032  0.2105 -0.1356
 4308W        W 4508  18.195   2.455  15.792  0.2569 -0.3257  0.1570
 4309W        W 4509  17.858  15.310   8.256 -0.0909  0.1126  0.1635
 4310W        W 4510   0.610   6.711  12.687  0.1749 -0.3538 -0.0609
 4311W        W 4511   5.671   3.904   0.688  0.2220  0.1795 -0.3904
 4312W        W 4512  16.553  17.750   3.711 -0.0618  0.2210 -0.0638
 4313W        W 4513  12.878  11.117   6.585 -0.3559 -0.2079 -0.1267
 4314W        W 4514   4.926   4.845  11.161  0.3938 -0.2272  0.0910
 4315W        W 4515  17.043  12.579   1.748  0.1880  0.1760 -0.0774
 4316W        W 4516   6.349   7.914  10.698 -0.1524  0.3815  0.1640
 4317W        W 4517   7.019   9.627  15.893 -0.3154 -0.0544  0.1053
 4318W        W 4518   0.331  12.481   2.679 -0.2747 -0.1169  0.1768
 4319W        W 4519   2.087  16.489   2.605  0.0275 -0.1308  0.1638
 4320W        W 4520  14.387  13.265   2.874 -0.0914 -0.0904 -0.0520
 4321W        W 4521   2.218   3.039   0.618 -0.0317 -0.1495  0.0331
 4322W        W 4522  13.274   3.172  18.008 -0.0812 -0.1465  0.0203
 4323W        W 4523   6.362   9.484   1.630  0.0991 -0.0298 -0.1150
 4324W        W 4524   3.432  11.426   0.371  0.0189  0.0300 -0.1421
 4325W        W 4525   4.366   6.343  13.737  0.0479 -0.0483 -0.0874
 4326W        W 4526  17.723  12.463   7.426  0.0466  0.0672  0.1914
 4327W        W 4527   1.292  10.554   3.001 -0.3579 -0.0131 -0.0197
 4328W        W 4528   7.259   9.131  15.278  0.0720  0.2549 -0.1802
 4329W        W 4529   9.663   9.786   2.572  0.3321 -0.0233  0.2190
 4330W        W 4530   4.302   4.237   1.143 -0.3121 -0.1952 -0.0093
 4331W        W 4531   8.735   7.136  16.367 -0.0473  0.1333  0.2125
 4332W        W 4532   2.582   1.229   8.157  0.1246 -0.1849  0.2086
 4333W        W 4533  11.273   4.064   5.270 -0.1275 -0.4294  0.0389
 4334W        W 4534   8.151   8.589  14.993 -0.0630 -0.1370  0.1715
 4335W        W 4535  10.619   3.681   1.783  0.3130  0.5271  0.2174
 4336W        W 4536   0.477  14.479   0.543 -0.1525 -0.0456  0.0380
 4337W        W 4537  12.099  12.638  13.797 -0.0628 -0.1357 -0.2152
 4338W        W 4538  15.853  12.871   6.582  0.1490 -0.4005 -0.0224
 4339W        W 4539   3.578  18.086  16.627  0.0630 -0.1537  0.1574
 4340W        W 4540   2.526   8.819   4.350  0.1556 -0.0136  0.0903
 4341W        W 4541   4.510   1.856   4.294 -0.0889  0.1256 -0.0174
 4342W        W 4542  18.065   6.872  17.363  0.3847  0.0620  0.0959
 4343W        W 4543   3.855  13.546   8.048 -0.0230  0.0533 -0.0714
 4344W        W 4544  16.458   6.920   4.914 -0.1100 -0.0137  0.3206
 4345W        W 4545   4.706   3.346   5.109  0.0227  0.0942 -0.0703
 4346W        W 4546  10.961  12.445   5.118  0.1289 -0.0940 -0.0327
 4347W        W 4547   9.606   2.622   9.500 -0.0478  0.0715 -0.0946
 4348W        W 4548  18.031  11.456   9.014 -0.0951  0.0848  0.2063
 4349W        W 4549  14.393   5.925   6.004  0.1356  0.0970 -0.1581
 4350W        W 4550   0.132   5.127  15.782  0.1375 -0.0842  0.0545
 4351W        W 4551   7.446  13.425  16.045  0.0446 -0.1535 -0.2266
 4352W        W 4552   7.816  12.347  16.375 -0.1363  0.2952 -0.1000
 4353W        W 4553   0.948   9.697   9.357 -0.0804  0.0235  0.2776
 4354W        W 4554   2.641   3.351  12.647  0.0621 -0.0265  0.2407
 4355W        W 4555   0.151  12.484   0.400 -0.0538 -0.1081 -0.0050
 4356W        W 4556   1.112   4.908  16.923 -0.0748 -0.1730  0.4013
 4357W        W 4557   6.420   6.291   2.742  0.2278 -0.2630  0.0881
 4358W        W 4558   6.126  14.617   1.787 -0.1736 -0.0779  0.0468
 4359W        W 4559  16.291  11.595   8.829 -0.1168  0.1268 -0.2684
 4360W        W 4560   7.049   9.290   9.638 -0.0546  0.3088  0.3052
 4361W        W 4561  17.681   1.888  17.860  0.0279 -0.0745  0.0320
 4362W        W 4562  17.216   0.896   0.843  0.3893 -0.2046  0.3512
 4363W        W 4563   8.229   3.275   9.044 -0.0070  0.1123 -0.1500
 4364W        W 4564   0.030   6.724   6.358  0.2755 -0.0453 -0.0321
 4365W        W 4565  14.569   9.511  17.002 -0.0879 -0.0559 -0.0074
 4366W        W 4566   6.721   3.141   3.372 -0.0461 -0.0969  0.1168
 4367W        W 4567   7.551  14.395  16.966  0.3251 -0.1403 -0.0496
 4368W        W 4568  16.770   8.530   6.466  0.0087 -0.1280 -0.0506
 4369W        W 4569   5.395  10.111   3.396 -0.1172  0.2886  0.1264
 4370W        W 4570  13.872  12.237   7.923  0.1837 -0.0163 -0.0141
 4371W        W 4571   3.244   7.786   2.839 -0.2137 -0.1223  0.0663
 4372W        W 4572   0.000  13.595   1.970 -0.0809  0.2453  0.2928
 4373W        W 4573   3.132   4.659   6.888  0.0399 -0.3886  0.0904
 4374W        W 4574   3.503   7.667   6.701 -0.3617  0.1390 -0.0625
 4375W        W 4575  16.390  13.276   2.787  0.1753  0.1438  0.2303
 4376W        W 4576   0.813  13.704   0.262 -0.0949  0.0086  0.2049
 4377W        W 4577  11.280   5.247   6.180  0.1165  0.2347 -0.0700
 4378W        W 4578   6.681   2.913   1.981  0.0451  0.0653  0.0054
 4379W        W 4579   4.817   7.882   5.767  0.1972 -0.0360 -0.3722
 4380W        W 4580   5.492  14.972   2.115 -0.0071  0.0255  0.0539
 4381W        W 4581  11.577  10.940   6.534  0.1543  0.1597 -0.3885
 4382W        W 4582  14.676  12.126   2.872  0.0200  0.1661 -0.4314
 4383W        W 4583   1.353   5.298  13.571  0.3578  0.1671 -0.0422
 4384W        W 4584   3.685  13.168   9.069 -0.0347  0.1065 -0.1824
 4385W        W 4585   8.245   9.377   1.971 -0.0172  0.0010  0.4857
 4386W        W 4586  11.615   7.227   1.252  0.0953 -0.0086 -0.2892
 4387W        W 4587   1.790  14.701  15.274 -0.1218 -0.2062  0.1470
 4388W        W 4588  14.974   6.347  17.258  0.0186  0.0636  0.0894
 4389W        W 4589  13.728   7.276  18.153 -0.1501  0.2344 -0.0555
 4390W        W 4590   4.165  13.709  13.464  0.2451 -0.0418 -0.0691
 4391W        W 4591   3.127   1.232  16.892 -0.0684  0.1807 -0.3041
 4392W        W 4592   7.882   6.660  11.245 -0.1439 -0.2434 -0.1016
 4393W        W 4593   2.107   6.127   0.237  0.1916  0.1020  0.1130
 4394W        W 4594   8.581   6.126   4.627  0.1244  0.0402  0.2531
 4395W        W 4595   4.689   3.791   0.036  0.0691  0.1587  0.0473
 4396W        W 4596   2.557  14.495   1.162  0.1100  0.2030 -0.3301
 4397W        W 4597   7.691  11.311   5.132 -0.0899  0.1509 -0.1971
 4398W        W 4598  16.937  10.924   7.213  0.0178 -0.3321 -0.1471
 4399W        W 4599  11.938   0.815   6.782  0.1503  0.1496 -0.0205
 4400W        W 4600   7.600   6.221   8.525  0.2411 -0.0383 -0.0226
 4401W        W 4601  14.039   2.649   5.662 -0.0902  0.0815  0.2661
 4402W        W 4602   0.172   7.303   9.850 -0.2376  0.1129 -0.2701
 4403W        W 4603   3.909   5.575   1.547 -0.0475  0.1226 -0.1335
 4404W        W 4604   0.572   8.666   3.611 -0.0373  0.2366  0.1553
 4405W        W 4605   4.123  16.375  13.048  0.1199 -0.2915  0.1365
 4406W        W 4606  10.073   5.138  11.238  0.1006 -0.1327 -0.0404
 4407W        W 4607  12.291   9.677   1.936 -0.1921 -0.1124  0.3003
 4408W        W 4608   3.311  14.733   4.034 -0.1572  0.1108  0.1657
 4409W        W 4609   3.044   8.942   0.536 -0.1828 -0.1240  0.1729
 4410W        W 4610   8.345   7.674   8.272  0.0977  0.3293 -0.0414
 4411W        W 4611   0.805   1.717   1.372  0.1954 -0.1213  0.0251
 4412W        W 4612   1.776  11.103  15.748 -0.1546  0.0782  0.0378
 4413W        W 4613   4.675   7.289   3.747 -0.2862 -0.3071  0.0866
 4414W        W 4614   6.155   7.952  14.156 -0.2889  0.4536  0.5007
 4415W        W 4615   3.734   2.021  16.868  0.1155 -0.1696 -0.1737
 4416W        W 4616  17.721   6.150   0.854  0.0482 -0.0307  0.1604
 4417W        W 4617   3.837  14.289   1.583 -0.2264 -0.0637 -0.2037
 4418W        W 4618  15.196  13.870  12.851  0.2129  0.0172  0.1604
 4419W        W 4619  11.316   4.846   6.433  0.1565  0.0215  0.0620
 4420W        W 4620  17.770  16.153   5.849 -0.1237 -0.0452 -0.1351
 4421W        W 4621   6.460   4.794  14.930  0.0605 -0.1067 -0.0708
 4422W        W 4622   7.817  16.082  17.050 -0.1555  0.2374  0.0119
 4423W        W 4623   7.109   6.042   0.460  0.1574  0.0142  0.2437
 4424W        W 4624  10.160   6.916  12.545  0.1860  0.0472 -0.0363
 4425W        W 4625   2.793  15.531   5.547  0.1312 -0.1962  0.1368
 4426W        W 4626   4.445  13.746   2.577 -0.2295 -0.0801  0.2081
 4427W        W 4627   9.209  15.237   6.974  0.2387 -0.0205 -0.0894
 4428W        W 4628   9.682   8.411  14.765 -0.3808  0.0223 -0.0694
 4429W        W 4629   6.798  17.212   0.742 -0.0753 -0.2670  0.2426
 4430W        W 4630   1.452  14.439   7.294  0.2211  0.0270 -0.0097
 4431W        W 4631   6.932   7.663   6.039 -0.0726 -0.0631  0.0559
 4432W        W 4632  16.734   0.980   0.926 -0.0250  0.3980 -0.0568
 4433W        W 4633   0.967   8.332   7.369 -0.1922  0.0229 -0.0205
 4434W        W 4634  14.439  13.798   4.783  0.1377  0.1253  0.0392
 4435W        W 4635   1.457   2.291   7.187 -0.0030 -0.0565  0.0362
 4436W        W 4636   6.264  10.498  17.836  0.3215 -0.0198 -0.0073
 4437W        W 4637  17.473   9.797   8.069 -0.0067  0.0955  0.0881
 4438W        W 4638  15.485  11.345   4.123  0.0085 -0.1892  0.0470
 4439W        W 4639  13.775  12.374   5.621 -0.0807  0.2295  0.1411
 4440W        W 4640  14.137  15.752   0.836  0.2444  0.0962 -0.0568
 4441W        W 4641  17.350   6.542   0.761 -0.2896 -0.0886  0.1824
 4442W        W 4642   6.831   2.899  15.455  0.4018  0.1798 -0.3521
 4443W        W 4643  11.521   8.894  12.127  0.2611 -0.2599 -0.1350
 4444W        W 4644   8.814  12.780   4.700 -0.0347 -0.1146 -0.2230
 4445W        W 4645  12.904   7.221  10.014  0.0740  0.1061  0.0235
 4446W        W 4646   3.683  13.037   9.970 -0.0821  0.3513  0.0138
 4447W        W 4647   2.391   7.171   9.796  0.2699 -0.0527  0.0411
 4448W        W 4648   0.698   5.510   2.975 -0.0377 -0.0595 -0.0315
 4449W        W 4649   5.599  17.355   6.166  0.0510  0.1809 -0.5690
 4450W        W 4650  14.382   2.045   7.166  0.1126  0.1874  0.1166
 4451W        W 4651  10.005  14.048   7.686  0.4050  0.1574 -0.2804
 4452W        W 4652  12.737  11.469   9.284  0.2024 -0.0746 -0.2445
 4453W        W 4653  14.683   4.390   9.001  0.0627  0.3662  0.2262
 4454W        W 4654   5.053   6.550   7.988  0.0591  0.0091 -0.0278
 4455W        W 4655   1.036   9.272   9.076  0.0495 -0.1814 -0.1583
 4456W        W 4656   2.641   9.236   9.596 -0.1676 -0.0189 -0.0140
 4457W        W 4657   2.966   1.623   1.398 -0.0944  0.4629 -0.1439
 4458W        W 4658   7.160   0.846   5.944 -0.0497  0.0780 -0.0958
 4459W        W 4659   5.232   9.578   5.701 -0.3424 -0.2241  0.2162
 4460W        W 4660   3.021  11.453  15.923 -0.0597 -0.0488  0.1490
 4461W        W 4661  16.975   9.991   3.606  0.1440 -0.3942 -0.1447
 4462W        W 4662   3.356  12.302   5.217  0.4510 -0.0556  0.1371
 4463W        W 4663  16.434  10.221   8.075 -0.1547  0.1277 -0.2588
 4464W        W 4664   3.599   9.798   2.718 -0.1253 -0.2816 -0.1397
 4465W        W 4665  13.341   7.822   2.495 -0.0230  0.0945  0.1100
 4466W        W 4666  17.149   8.374   7.021  0.2192  0.0758  0.2524
 4467W        W 4667  13.956   7.035   3.276  0.0701 -0.1651 -0.0275
 4468W        W 4668   5.532  11.286  12.094  0.1322 -0.3093 -0.3274
 4469W        W 4669   1.100   6.164  12.921 -0.1785  0.0595  0.1449
 4470W        W 4670   2.404  10.954   3.100 -0.0055  0.1846 -0.1076
 4471W        W 4671   1.172  11.626   5.790 -0.3208  0.0395  0.1050
 4472W        W 4672   0.566   7.139   7.599  0.0576 -0.2775  0.4144
 4473W        W 4673  13.828  14.587  16.327 -0.0076  0.0930  0.0746
 4474W        W 4674  10.447   6.503   7.836 -0.0586  0.0442 -0.1878
 4475W        W 4675  17.099   4.878  16.715  0.0964  0.2383  0.2982
 4476W        W 4676   3.143  14.325   5.499 -0.3161  0.4128 -0.3060
 4477W        W 4677  10.009   7.357   6.463 -0.0930  0.0471 -0.0619
 4478W        W 4678   3.856   9.852   5.977  0.1091  0.0024 -0.1368
 4479W        W 4679   7.791   7.763  17.346 -0.0726 -0.2118  0.2042
 4480W        W 4680  15.740  13.178   4.712 -0.0138  0.3520  0.2583
 4481W        W 4681   2.448  14.623   0.399  0.0922  0.2425  0.1059
 4482W        W 4682   6.787   8.729   0.294 -0.2460 -0.2643 -0.3225
 4483W        W 4683  17.570   8.388   4.252  0.1302  0.1606 -0.2727
 4484W        W 4684  11.387  12.472   9.304  0.0402  0.0773 -0.0999
 4485W        W 4685  16.463   9.009   7.960  0.4694  0.2509 -0.1566
 4486W        W 4686   1.486  18.055   9.377 -0.0614  0.0057 -0.1996
 4487W        W 4687   1.287   4.371  10.921 -0.0809 -0.0910  0.1982
 4488W        W 4688  13.501  11.207   7.148 -0.1600 -0.0584 -0.0563
 4489W        W 4689  16.569   2.751   3.745  0.1292  0.1165  0.0975
 4490W        W 4690  17.288  12.071  17.756  0.1970 -0.0859 -0.0128
 4491W        W 4691  17.047   4.420   0.920 -0.1716 -0.0351 -0.1287
 4492W        W 4692   2.097   9.208   4.557 -0.0111 -0.0611  0.0832
 4493W        W 4693  13.112   9.823  16.625  0.1511  0.1700  0.0938
 4494W        W 4694  13.404  12.749  13.394 -0.0605 -0.1435 -0.1490
 4495W        W 4695  15.440   8.083   0.711 -0.1996  0.2037 -0.3099
 4496W        W 4696   9.031  10.700   5.985  0.0182 -0.2250  0.2813
 4497W        W 4697   3.069   8.119   2.463 -0.0560  0.0041  0.2469
 4498W        W 4698  14.780   3.066   2.288 -0.0772  0.0804  0.1335
 4499W        W 4699  16.062  12.584   7.206  0.4613  0.0166 -0.0664
 4500W        W 4700   0.648   5.971   3.156 -0.0960 -0.1216  0.2318
 4501W        W 4701  14.981  18.152   2.077  0.1340 -0.0996 -0.0000
 4502W        W 4702   6.645   8.516   7.314 -0.0297  0.4511 -0.0289
 4503W        W 4703  14.982   3.248   4.822 -0.1672 -0.1290  0.0583
 4504W        W 4704   5.848  11.137   6.745 -0.0647  0.1773 -0.0269
 4505W        W 4705  17.631   8.946   6.501  0.1304  0.1072 -0.0499
 4506W        W 4706  13.392   4.854   6.606 -0.1394  0.0393  0.1497
 4507W        W 4707   3.364  10.265   5.657  0.0496 -0.2021 -0.0012
 4508W        W 4708   7.434   1.037   9.840 -0.0692 -0.0863 -0.1621
 4509W        W 4709  14.557   7.138  15.770  0.1717  0.0034 -0.0176
 4510W        W 4710   6.356  14.230   1.902 -0.0837 -0.1318  0.2482
 4511W        W 4711   3.401   2.923   8.870 -0.0192  0.1379 -0.0371
 4512W        W 4712   6.801   8.249   0.174 -0.1875 -0.0618  0.0886
 4513W        W 4713   4.063  10.351   3.103  0.2212 -0.0896 -0.1551
 4514W        W 4714   3.335   6.651   5.174 -0.2354 -0.0317 -0.1706
 4515W        W 4715   3.673  15.123   6.206  0.2773 -0.1179  0.0798
 4516W        W 4716   4.017   4.894   3.047 -0.0820 -0.1060  0.2306
 4517W        W 4717   2.939  13.299   2.761  0.4108 -0.1714  0.1671
 4518W        W 4718  16.097  10.143  17.665 -0.0168 -0.0050 -0.0983
 4519W        W 4719  16.501  13.292   4.135  0.1910 -0.0801  0.0199
 4520W        W 4720  12.165  12.131  10.348 -0.0726  0.1490  0.1940
 4521W        W 4721   1.110  17.931  14.689  0.0708 -0.0846  0.0025
 4522W        W 4722   5.927   9.710  14.378 -0.1873  0.1551 -0.0941
 4523W        W 4723   9.203   6.470   8.166 -0.1221  0.0698 -0.1372
 4524W        W 4724   1.099   1.376   9.065 -0.0330 -0.0208 -0.0710
 4525W        W 4725   5.384   9.353   2.019  0.2346  0.0593 -0.2832
 4526W        W 4726   6.092   3.637   5.070 -0.2110  0.1499  0.2567
 4527W        W 4727  15.524   5.277   3.059  0.3422  0.2961  0.3084
 4528W        W 4728  10.474  10.391  10.649  0.0897  0.0482  0.3144
 4529W        W 4729   2.310   6.585   2.929  0.0682 -0.1119  0.0721
 4530W        W 4730  18.091   8.801  10.482  0.1683 -0.0166 -0.0818
 4531W        W 4731   5.854  16.472  13.692 -0.2081  0.0302 -0.0376
 4532W        W 4732  13.988   4.769   4.035  0.0638 -0.0572  0.1067
 4533W        W 4733   7.715   1.456   4.227  0.0517  0.1385  0.2072
 4534W        W 4734   3.876   6.943   9.477  0.1004  0.1628 -0.0801
 4535W        W 4735  11.154   1.178   5.350 -0.0546  0.0220  0.2075
 4536W        W 4736  16.958  14.505   2.013 -0.3042  0.1048  0.1311
 4537W        W 4737   7.694   5.885  14.758 -0.2449  0.0604  0.1749
 4538W        W 4738  12.337   7.956   3.496  0.0168 -0.2264 -0.0116
 4539W        W 4739  16.828   8.619  11.110 -0.0742 -0.2227 -0.2837
 4540W        W 4740   4.593   5.880  13.931  0.1328 -0.0085 -0.1367
 4541W        W 4741   1.110   8.002   1.799 -0.0120  0.0897 -0.0246
 4542W        W 4742   6.853   4.395   2.160  0.2926 -0.1463 -0.0174
 4543W        W 4743   3.880  11.555  12.680  0.0181 -0.0529 -0.0377
 4544W        W 4744  17.898   8.074   8.297 -0.0224 -0.0681 -0.0382
 4545W        W 4745  13.788   5.149  15.579  0.0291  0.0701 -0.1001
 4546W        W 4746   9.205  11.388  11.158  0.4466  0.1590  0.0913
 4547W        W 4747  13.067   7.229   5.513 -0.1678  0.3646 -0.3672
 4548W        W 4748   2.410  18.005   3.250 -0.3072 -0.1911 -0.0507
 4549W        W 4749  13.725   9.086   6.172 -0.4715 -0.2516 -0.2257
 4550W        W 4750   0.611  15.078   0.469  0.0605 -0.0506  0.1398
 4551W        W 4751   3.711   6.554   2.367  0.1157  0.2220  0.1022
 4552W        W 4752   0.442  11.008  10.797 -0.0666 -0.0185  0.3429
 4553W        W 4753   0.376  12.560   5.168 -0.4037 -0.2489 -0.0454
 4554W        W 4754   9.051   0.087   5.143 -0.0191 -0.1294 -0.1020
 4555W        W 4755   6.480   8.210  17.533  0.1903 -0.0417  0.0692
 4556W        W 4756   5.037  11.726   9.478 -0.3075  0.1129  0.2858
 4557W        W 4757  17.272   6.673  16.161  0.3951  0.0598 -0.0322
 4558W        W 4758  15.526   9.468   1.289  0.0405  0.3859  0.0043
 4559W        W 4759   6.735   6.941  10.543  0.1101 -0.0235  0.1826
 4560W        W 4760   5.675   9.920  14.936 -0.2915  0.0540  0.2592
 4561W        W 4761  13.665  16.484   6.221  0.1523 -0.1541 -0.0157
 4562W        W 4762   8.460   2.667   2.240 -0.1837 -0.0346 -0.3564
 4563W        W 4763  12.683  10.519   1.282 -0.1720  0.1930  0.3070
 4564W        W 4764   0.931  10.801   2.621 -0.1054  0.1360 -0.0042
 4565W        W 4765  16.759   0.633   1.283  0.1447  0.2222 -0.0328
 4566W        W 4766  16.951   8.920  11.488  0.2441 -0.0100  0.0207
 4567W        W 4767  16.451  13.162   8.821  0.1239 -0.2022  0.2998
 4568W        W 4768  16.182   1.814  11.589 -0.0566  0.2124 -0.1940
 4569W        W 4769   0.631  15.449  18.146  0.2249 -0.0388 -0.1069
 4570W        W 4770   5.421   3.216   8.691  0.1756  0.0704  0.2099
 4571W        W 4771   0.274   9.241   6.372  0.1246  0.4807  0.2458
 4572W        W 4772   6.170   6.601   8.298  0.1698 -0.0543 -0.1171
 4573W        W 4773  17.618   4.947   8.391 -0.1180 -0.0207 -0.0044
 4574W        W 4774   5.583   3.990   4.481  0.1327  0.1060  0.1212
 4575W        W 4775   8.562   1.335   4.336  0.0435 -0.0080  0.1109
 4576W        W 4776   0.939  12.482   7.733  0.0570 -0.6666 -0.0780
 4577W        W 4777   6.343   0.937   7.277 -0.3103  0.1799 -0.2195
 4578W        W 4778  16.487  13.388   5.656  0.0115  0.0642 -0.0550
 4579W        W 4779  16.874  12.372   7.803  0.0558 -0.1397  0.3672
 4580W        W 4780   8.639   4.491   7.154  0.1721 -0.0082  0.0657
 4581W        W 4781  14.445  11.363   4.769 -0.3451  0.2424  0.1724
 4582W        W 4782   1.644  14.983   4.415  0.1368  0.1415 -0.1162
 4583W        W 4783  15.859   8.898   0.190 -0.2495 -0.1792  0.1247
 4584W        W 4784  16.283   9.518  15.408 -0.1304 -0.0153 -0.1153
 4585W        W 4785  16.074  11.345   4.168  0.1379  0.2968 -0.1118
 4586W        W 4786   1.515  14.761  10.323 -0.0626  0.0435 -0.0639
 4587W        W 4787  15.278  13.133  14.006 -0.3009 -0.2345  0.1062
 4588W        W 4788   3.274   5.538  12.531 -0.1027 -0.2308 -0.0481
 4589W        W 4789  15.012   8.801   9.786  0.3992  0.0987 -0.1103
 4590W        W 4790  14.847   8.388  11.474 -0.1322 -0.0408 -0.0574
 4591W        W 4791   3.264   2.092  16.744 -0.0143  0.2073 -0.2808
 4592W        W 4792   5.560   8.048   6.652 -0.0236 -0.2106 -0.1444
 4593W        W 4793   7.524   7.150   3.063 -0.4018  0.1819  0.0268
 4594W        W 4794  11.023   0.859   6.826 -0.0259  0.0375  0.0533
 4595W        W 4795   3.451   7.296   6.405  0.2325  0.2064 -0.0095
 4596W        W 4796   5.478   8.832   0.713 -0.1307 -0.0938  0.0179
 4597W        W 4797   1.982   9.951   4.461  0.0514  0.1078  0.1796
 4598W        W 4798  13.765   3.145  13.144 -0.1575 -0.2196 -0.0241
 4599W        W 4799  15.812   7.119   5.671 -0.1190  0.0144 -0.5171
 4600W        W 4800  11.388   8.349   6.964  0.4099 -0.1458  0.1331
 4601W        W 4801   6.079  14.915  18.091 -0.2169 -0.3637 -0.1040
 4602W        W 4802   0.058  18.032  13.745 -0.2975  0.1480 -0.0126
 4603W        W 4803   0.443   8.886   7.629 -0.1335 -0.0283 -0.1724
 4604W        W 4804   2.563   3.726   5.980  0.1783 -0.0217  0.0818
 4605W        W 4805  11.508   4.128  12.337 -0.0330  0.0498 -0.0836
 4606W        W 4806  13.793   7.199   9.649 -0.1288  0.1303 -0.0735
 4607W        W 4807  16.054   8.772   1.690 -0.0103 -0.1509 -0.0936
 4608W        W 4808   3.320  10.573   6.678 -0.1271 -0.2655  0.1627
 4609W        W 4809  18.008   1.503   6.935 -0.2976  0.3142 -0.3191
 4610W        W 4810  14.715  15.052  17.372 -0.1173 -0.2863  0.1901
 4611W        W 4811   1.829   3.227  14.395 -0.2243  0.0075 -0.1006
 4612W        W 4812   2.417   6.728   4.572 -0.0777  0.0668  0.1508
 4613W        W 4813   4.918   2.997   2.110  0.0234  0.2384  0.0380
 4614W        W 4814   5.914   1.744   2.723  0.1068 -0.0148  0.2124
 4615W        W 4815  13.791   4.394   4.966  0.1380  0.2607 -0.0726
 4616W        W 4816  16.738  11.864  12.150  0.1671 -0.2953  0.1249
 4617W        W 4817   0.338  16.406   8.244  0.2279  0.0671 -0.2011
 4618W        W 4818   7.748   5.936   6.246 -0.4023 -0.0389 -0.1317
 4619W        W 4819   7.465  10.797   5.323  0.1621  0.3131 -0.1355
 4620W        W 4820   8.425  10.004   2.246  0.0644  0.0861  0.0186
 4621W        W 4821   2.249  10.584   8.620  0.0039 -0.0317 -0.0361
 4622W        W 4822  14.667  10.588   6.367  0.1292 -0.1998 -0.4277
 4623W        W 4823   4.166  12.275  10.855  0.0689  0.0897  0.1642
 4624W        W 4824   2.122  10.135   5.033 -0.2089 -0.3939  0.1513
 4625W        W 4825   2.185   7.918  10.520 -0.0965  0.0991  0.0202
 4626W        W 4826  17.431   3.587  16.397  0.1700 -0.2896 -0.0585
 4627W        W 4827   4.497   0.550   2.443  0.1141  0.0218  0.2604
 4628W        W 4828  16.156  12.074   9.109 -0.0897  0.0685 -0.0608
 4629W        W 4829   6.446   1.257   5.594  0.0449  0.0888 -0.0254
 4630W        W 4830   0.865   3.563   2.250  0.1514  0.0310  0.0257
 4631W        W 4831   2.438   9.287  17.560  0.0585  0.0934 -0.1560
 4632W        W 4832  15.945  10.414   5.102 -0.0145  0.0847 -0.2383
 4633W        W 4833   2.829  12.959   5.732  0.0483 -0.0876 -0.1240
 4634W        W 4834  15.929  12.666  17.901  0.0752  0.1384 -0.1289
 4635W        W 4835  15.661   9.064   4.353  0.0989  0.2414 -0.2572
 4636W        W 4836  16.965  16.147   7.216  0.0426 -0.2537  0.1250
 4637W        W 4837  16.778   6.437   5.212 -0.2784 -0.4055 -0.0778
 4638W        W 4838  14.501   3.863   5.505 -0.1111  0.1328  0.0793
 4639W        W 4839   6.346   6.267   4.979 -0.1132 -0.2274  0.1011
 4640W        W 4840  15.697   7.395   5.195 -0.0374  0.2047 -0.3175
 4641W        W 4841  17.603  15.423   5.111  0.0817 -0.0912 -0.0800
 4642W        W 4842   6.408   3.653   5.924  0.0606 -0.1966  0.0272
 4643W        W 4843  17.886   0.436   2.614 -0.0600  0.2409  0.1175
 4644W        W 4844   4.064   2.346   6.874 -0.0385  0.0042  0.0678
 4645W        W 4845   2.881   8.928  17.070  0.2211 -0.1120  0.0575
 4646W        W 4846   1.640  17.725  10.116  0.2283 -0.0724 -0.0050
 4647W        W 4847   1.039   0.363   7.176  0.3511  0.0858  0.2071
 4648W        W 4848   7.609   4.752   7.020  0.0796 -0.0417 -0.0792
 4649W        W 4849   4.577   4.672  17.798 -0.1048  0.0698 -0.0509
 4650W        W 4850  13.734  15.869   3.105  0.0677  0.2330 -0.1168
 4651W        W 4851   5.201   7.090   6.543 -0.0695  0.3318 -0.0109
 4652W        W 4852   4.958  10.279  15.043  0.0521  0.2210 -0.0868
 4653W        W 4853   4.663  10.389   9.348  0.0087 -0.2804  0.0261
 4654W        W 4854  12.028  15.612   5.439  0.0299  0.0035 -0.0604
 4655W        W 4855  11.193   5.710   5.975  0.2983  0.0906  0.1340
 4656W        W 4856  16.781   4.063  15.293  0.0623  0.0302 -0.1537
 4657W        W 4857  17.721   9.385  12.421  0.0387 -0.3833  0.0249
 4658W        W 4858   0.807   3.873   8.254  0.2074  0.2100  0.4474
 4659W        W 4859  13.854   4.122   4.110 -0.0510 -0.0328  0.0223
 4660W        W 4860  10.570   9.535  12.756  0.3013  0.2032  0.1717
 4661W        W 4861  16.052   9.784   3.861 -0.2142 -0.3089  0.0411
 4662W        W 4862  13.249  12.631   3.411 -0.0948  0.1418  0.3347
 4663W        W 4863  18.197   9.819   6.095  0.0254  0.1693 -0.0412
 4664W        W 4864  15.671   3.182   6.227 -0.1293 -0.4049 -0.4007
 4665W        W 4865  16.869   7.232   4.262  0.0096 -0.0444  0.1391
 4666W        W 4866  18.038  16.932   1.628 -0.3371 -0.0296  0.1842
 4667W        W 4867   2.636   9.169   1.776 -0.0934 -0.2510  0.0728
 4668W        W 4868  17.660  14.335  17.008 -0.1307 -0.0775  0.2014
 4669W        W 4869   3.928   4.208   7.860 -0.1857 -0.1831 -0.3652
 4670W        W 4870   9.098   7.626   4.913  0.1774  0.0655 -0.0663
 4671W        W 4871   3.442   6.695  14.931  0.4352 -0.3247 -0.3795
 4672W        W 4872   6.592   3.592   5.244 -0.0897  0.0624  0.1001
 4673W        W 4873   3.792   4.322  15.844  0.2494 -0.1036  0.1889
 4674W        W 4874   2.575   7.979  12.765  0.1562 -0.2679  0.0762
 4675W        W 4875  17.564   7.255   8.349  0.0534 -0.2801  0.0480
 4676W        W 4876   5.473   2.207   9.102  0.0290 -0.0532 -0.0740
 4677W        W 4877   9.811   8.681  12.195 -0.1668 -0.1239 -0.1007
 4678W        W 4878   6.167  12.051   7.815  0.0577 -0.1177  0.1774
 4679W        W 4879   3.529  12.280   1.506 -0.0680 -0.1289  0.0209
 4680W        W 4880  13.700  11.134   3.014 -0.1711 -0.3319  0.1104
 4681W        W 4881  14.401  14.397  16.559 -0.0482  0.0566 -0.0952
 4682W        W 4882   0.891  14.596  17.023 -0.0076  0.3385  0.3406
 4683W        W 4883   8.274   6.948  10.424  0.4367  0.1843 -0.1918
 4684W        W 4884  16.385   7.951  10.259 -0.0293  0.2273  0.3337
 4685W        W 4885   4.257  13.139   7.986  0.2134 -0.0592  0.1766
 4686W        W 4886  15.697   4.177   5.512  0.3985  0.3464 -0.1204
 4687W        W 4887   7.037   0.553   6.739 -0.1749 -0.1412  0.1026
 4688W        W 4888  11.520  12.866  10.799 -0.0054  0.0539 -0.0390
 4689W        W 4889   1.231   4.555   2.969  0.5487  0.0938  0.0452
 4690W        W 4890  15.891   8.621   7.236  0.0381 -0.2721 -0.2280
 4691W        W 4891   1.897   8.381  12.972  0.2451  0.1012 -0.1448
 4692W        W 4892  11.634  12.232   9.739  0.1702  0.0249 -0.2430
 4693W        W 4893   3.893   8.270  11.257  0.1128 -0.2966  0.1096
 4694W        W 4894   2.502  15.087   7.106 -0.2330  0.0268  0.0689
 4695W        W 4895   5.128   6.230   0.713 -0.1019 -0.2882 -0.3321
 4696W        W 4896   7.477   0.165  13.822  0.0426 -0.0755 -0.0887
 4697W        W 4897  14.539   7.613   6.517 -0.1894 -0.0270 -0.0026
 4698W        W 4898   1.382  15.426   4.627  0.0696  0.2545  0.0307
 4699W        W 4899   4.832   8.312   0.658  0.1121 -0.1777 -0.1569
 4700W        W 4900   3.874  10.450   0.502  0.1531 -0.1588 -0.0557
 4701W        W 4901   4.607   9.993  15.785 -0.1071 -0.0612 -0.0281
 4702W        W 4902  15.631  16.235   4.096 -0.0899  0.3783  0.1036
 4703W        W 4903  18.181   6.991  10.166 -0.1396  0.0096  0.0048
 4704W        W 4904   3.159   9.122  10.442 -0.1677  0.1475 -0.0205
 4705W        W 4905  14.613   7.399   7.450  0.2829  0.1732  0.3286
 4706W        W 4906  12.649   8.042   7.848  0.1848  0.0730 -0.0914
 4707W        W 4907  14.868  16.430  14.455  0.1755 -0.1005  0.1291
 4708W        W 4908   5.735  15.246  11.143  0.3730  0.1407  0.2937
 4709W        W 4909   7.957   1.020   3.990  0.4592 -0.0890 -0.1806
 4710W        W 4910   0.885  15.111   3.902  0.0497 -0.1203  0.0053
 4711W        W 4911  11.935   4.083  10.805  0.0779  0.3074 -0.0683
 4712W        W 4912   5.918  17.072   2.432  0.0501 -0.3324  0.1882
 4713W        W 4913   3.385   3.802   4.267 -0.0924  0.1244 -0.0516
 4714W        W 4914  15.678   9.381  17.620 -0.0957  0.1914 -0.1305
 4715W        W 4915   3.398  13.045  11.905  0.0515 -0.0587  0.0210
 4716W        W 4916   4.040  11.968   7.788 -0.0058 -0.1535 -0.0322
 4717W        W 4917   4.531  15.208   7.134 -0.0528  0.0003 -0.1355
 4718W        W 4918   3.054   1.161   6.730  0.0699  0.2171 -0.1247
 4719W        W 4919   4.479   3.972  10.043 -0.1774  0.4623 -0.1286
 4720W        W 4920  18.091  17.913  15.565  0.1209  0.3269  0.0369
 4721W        W 4921   5.583   1.284  10.236 -0.0506 -0.1264 -0.0842
 4722W        W 4922   2.173  11.979  14.606 -0.0916 -0.0725  0.1799
 4723W        W 4923  15.213   5.788   5.804  0.0280  0.0282  0.1376
 4724W        W 4924   7.533   3.026  17.655 -0.1106 -0.0029  0.1145
 4725W        W 4925   7.110  11.094   9.247  0.0928  0.3249 -0.0998
 4726W        W 4926   0.280   2.473  11.923  0.1640 -0.4195  0.0264
 4727W        W 4927   1.238  16.204   4.922 -0.0766 -0.0343 -0.1945
 4728W        W 4928   1.987   6.118  11.007 -0.0780 -0.0091  0.2193
 4729W        W 4929  16.804   9.168   6.047  0.2116 -0.0312  0.0347
 4730W        W 4930   0.721   5.554   3.463  0.1869  0.1334  0.0611
 4731W        W 4931   0.206   8.372   3.094 -0.1802  0.0976 -0.2443
 4732W        W 4932  13.848   9.577  17.568 -0.0248  0.3596  0.1001
 4733W        W 4933  13.282   4.986  16.383 -0.2384  0.1847 -0.1877
 4734W        W 4934   7.047   5.358  13.740 -0.2151 -0.0350  0.5527
 4735W        W 4935   0.949   3.242   5.610 -0.0544 -0.0927  0.1746
 4736W        W 4936  14.160  18.132   4.773  0.1468  0.2024  0.1309
 4737W        W 4937  12.654   5.859  15.940  0.2738 -0.1830 -0.2606
 4738W        W 4938   8.432  11.844   5.578 -0.2031  0.0966 -0.3970
 4739W        W 4939  17.421   2.681  11.832 -0.0339  0.0752 -0.0377
 4740W        W 4940  17.690   7.259  15.510 -0.3095  0.2431  0.1734
 4741W        W 4941  14.871   6.669   6.587 -0.4406  0.0838  0.2722
 4742W        W 4942   9.634  13.989   7.318 -0.0843 -0.0541 -0.1072
 4743W        W 4943   2.864   8.160  11.442  0.0424  0.5752  0.0905
 4744W        W 4944   0.787  10.445   6.427  0.2204 -0.0431 -0.0498
 4745W        W 4945  15.515  11.850   0.690  0.0096  0.0200  0.1803
 4746W        W 4946   7.431   5.733   5.031  0.2593 -0.2137  0.0751
 4747W        W 4947  17.777   4.877   6.688 -0.2287 -0.0911 -0.1987
 4748W        W 4948   2.931   8.997   5.030 -0.2649  0.2424 -0.1070
 4749W        W 4949   2.895  16.100   7.849  0.3412  0.0944  0.0565
 4750W        W 4950   4.158   3.885   8.337  0.0522  0.0676 -0.3677
 4751W        W 4951   5.016  14.800  12.295  0.2284  0.3508  0.0603
 4752W        W 4952   1.605  14.341   4.070  0.0200  0.0737  0.3150
 4753W        W 4953   4.775   3.165   5.589 -0.1421  0.2692 -0.1316
 4754W        W 4954   7.079   2.142   9.170 -0.2098  0.4174  0.0718
 4755W        W 4955   5.390   4.136   2.282 -0.0022 -0.1281  0.3439
 4756W        W 4956   1.846  12.338   0.128 -0.0276 -0.2490 -0.1185
 4757W        W 4957  14.786  12.157   7.166 -0.0554 -0.1574 -0.1362
 4758W        W 4958   1.832   0.208   4.385  0.1378 -0.1347 -0.3932
 4759W        W 4959   3.588   8.611   3.424 -0.3118 -0.0241 -0.0515
 4760W        W 4960  16.934   3.059  16.444  0.0203 -0.2830  0.2062
 4761W        W 4961   2.964  12.475   5.587 -0.4357 -0.2662  0.0694
 4762W        W 4962   0.080  15.546  11.108  0.0989 -0.4374 -0.0712
 4763W        W 4963  12.557   8.989   6.907  0.0354  0.2944 -0.1505
 4764W        W 4964  13.043   7.290   0.699 -0.2856 -0.0302 -0.1700
 4765W        W 4965   0.331  12.246   7.240  0.2036 -0.2902 -0.2365
 4766W        W 4966  14.039  10.154   1.103 -0.1143  0.1023 -0.0650
 4767W        W 4967  15.631   8.972   3.843  0.2307  0.3806 -0.1062
 4768W        W 4968   1.193   2.399   1.690  0.0541 -0.0066 -0.1488
 4769W        W 4969   0.356   2.691   9.850  0.0153 -0.0823 -0.1928
 4770W        W 4970   1.660  14.311   3.468  0.0179 -0.0031 -0.4126
 4771W        W 4971   6.373  17.155   3.438  0.0362  0.0666 -0.2011
 4772W        W 4972   0.680  11.754   5.715 -0.0995 -0.1558 -0.0455
 4773W        W 4973   4.249   7.681  11.852 -0.0255  0.0162  0.0390
 4774W        W 4974  15.049   5.394   5.354 -0.1801 -0.1518  0.0750
 4775W        W 4975   5.276   9.741  13.610 -0.2719  0.2678  0.3907
 4776W        W 4976   0.910   7.231   7.193  0.1711 -0.0422 -0.2175
 4777W        W 4977   5.574   4.698   7.335  0.2783  0.1076  0.0064
 4778W        W 4978   4.257   8.082  13.376  0.2971 -0.2278 -0.1486
 4779W        W 4979  12.765  11.036   1.690 -0.0356 -0.0371  0.0017
 4780W        W 4980  16.022   1.146   6.397 -0.3453 -0.1294  0.0508
 4781W        W 4981   6.857  14.102   0.731 -0.2576 -0.0077 -0.0804
 4782W        W 4982   7.416  10.718   1.061  0.0475  0.1708  0.0943
 4783W        W 4983   3.025   5.773  14.662 -0.3011 -0.1076 -0.0468
 4784W        W 4984   0.903   6.512  17.932  0.0375 -0.0417  0.5153
 4785W        W 4985   1.180  11.252   3.979  0.0428 -0.0265 -0.2648
 4786W        W 4986  16.109  15.789  12.344 -0.0599 -0.1115  0.0191
 4787W        W 4987  15.225   9.835   6.380 -0.1779 -0.1629 -0.2266
 4788W        W 4988   2.282  11.313   7.279 -0.1802 -0.0129  0.1032
 4789W        W 4989   0.583   0.508   7.413  0.1945 -0.2126  0.3739
 4790W        W 4990   1.843   5.984   2.604  0.1765 -0.2982 -0.0502
 4791W        W 4991   4.616   8.246   9.947  0.1911  0.2165 -0.1350
 4792W        W 4992  14.210   4.923   2.765 -0.1560  0.0437 -0.1100
 4793W        W 4993  14.965   9.469   8.096  0.3901 -0.3573 -0.0903
 4794W        W 4994  11.337   1.919   6.229 -0.2258  0.0835  0.0380
 4795W        W 4995   1.269   9.972   3.466  0.3065 -0.2122  0.0198
 4796W        W 4996   5.926   8.754   9.916 -0.0184  0.1885 -0.0368
 4797W        W 4997   6.668   9.038   1.387  0.0917 -0.3181  0.4001
 4798W        W 4998   4.308  12.684   2.497 -0.0696 -0.1212  0.0122
 4799W        W 4999   5.943  14.163  16.867  0.3776  0.2229 -0.0120
 4800W        W 5000  18.190   8.183   5.267  0.2395  0.2303  0.0758
 4801W        W 5001  14.576  14.062   7.494  0.0245 -0.2060 -0.1066
 4802W        W 5002  13.906   4.518   2.795 -0.1984 -0.1703  0.0748
 4803W        W 5003   0.391  10.857   4.719 -0.1253  0.2780 -0.0744
 4804W        W 5004   4.393   3.575   5.950 -0.0453  0.1923 -0.1701
 4805W        W 5005   4.416   8.847   4.343  0.1446  0.0802  0.0159
 4806W        W 5006   9.610   8.926   2.935  0.0870  0.1471  0.1389
 4807W        W 5007   0.785   5.117  10.805  0.0362  0.0997 -0.2236
 4808W        W 5008  11.066  14.494  13.856 -0.3128 -0.2580  0.2863
 4809W        W 5009   6.342  15.258   7.792  0.1826  0.0442  0.3058
 4810W        W 5010   1.214   6.612   6.541  0.2631  0.1227  0.0991
 4811W        W 5011  13.040   8.500   5.790 -0.3523  0.1785 -0.0689
 4812W        W 5012   0.385   7.167   6.480  0.2205  0.1219  0.1046
 4813W        W 5013   7.114  13.204   7.477  0.1990 -0.2003 -0.0965
 4814W        W 5014  17.857  12.602   4.447  0.4202  0.1663 -0.3658
 4815W        W 5015  15.813  14.051   5.081  0.2993  0.0640  0.0687
 4816W        W 5016   8.068  13.576   9.576  0.1320  0.1198 -0.0881
 4817W        W 5017  16.948   6.397  14.023 -0.0091 -0.1287 -0.1198
 4818W        W 5018  15.395  11.005  15.546 -0.0960  0.0639  0.1003
 4819W        W 5019   8.972   4.147   6.621 -0.0649  0.0334 -0.2806
 4820W        W 5020   7.168  12.325   3.002 -0.1700 -0.0062  0.3683
 4821W        W 5021   1.866  11.076   4.620  0.1177 -0.0192  0.1337
 4822W        W 5022  13.639  13.139   5.540 -0.0409  0.3010 -0.4779
 4823W        W 5023   6.691  15.322   2.364  0.1697  0.0545 -0.1873
 4824W        W 5024  10.130   6.624   4.913 -0.1182 -0.0380  0.1161
 4825W        W 5025  15.674  12.562   4.673 -0.2439  0.0513 -0.1808
 4826W        W 5026  17.781  12.052   2.137  0.2693 -0.5604 -0.4778
 4827W        W 5027   1.358  10.695  15.605  0.1596  0.1459  0.0550
 4828W        W 5028   1.421  11.795   8.950  0.0798  0.2274  0.2109
 4829W        W 5029   8.910  10.766   7.892  0.0279 -0.0688 -0.0134
 4830W        W 5030  11.781   9.393  17.121 -0.0158  0.3360 -0.0733
 4831W        W 5031  17.450   9.659   8.895  0.0309 -0.0462 -0.2639
 4832W        W 5032   2.958  13.064  10.923  0.0652 -0.1964 -0.0422
 4833W        W 5033   5.906   8.969  12.256 -0.1503 -0.0438  0.1327
 4834W        W 5034   2.529  10.688   2.612 -0.1722 -0.0257 -0.1004
 4835W        W 5035   4.381  14.370   5.935  0.0005  0.2414  0.0170
 4836W        W 5036   1.671  10.448   7.395 -0.1264 -0.1798  0.0187
 4837W        W 5037  18.194  13.080   6.635  0.0649  0.2650 -0.4881
 4838W        W 5038  12.417   8.970   6.342  0.1006 -0.1158  0.0260
 4839W        W 5039   0.854  17.811   5.705  0.0533 -0.3481 -0.1966
 4840W        W 5040  17.717   6.881  14.751 -0.0011  0.0835  0.3837
 4841W        W 5041   3.877   7.926  14.830 -0.1182 -0.0404 -0.2130
 4842W        W 5042  15.226  11.113   0.916  0.0487 -0.0812 -0.0382
 4843W        W 5043  16.967   9.854   8.090  0.0968  0.0535 -0.2133
 4844W        W 5044  11.310   8.012   2.596  0.0700 -0.0104  0.4106
 4845W        W 5045   3.065   1.815  14.299  0.3726 -0.0098  0.1457
 4846W        W 5046  16.316  11.862  11.003  0.0530 -0.2106  0.2535
 4847W        W 5047   8.662   3.102   8.853 -0.1159 -0.1601  0.5588
 4848W        W 5048   1.176   6.206   9.516  0.0689  0.4019  0.0693
 4849W        W 5049   4.609   1.594   5.874 -0.0123  0.2041 -0.0495
 4850W        W 5050  18.008  11.401   6.145 -0.0027 -0.0950 -0.0554
 4851W        W 5051   4.541  17.273   7.060 -0.2537  0.0252  0.2413
 4852W        W 5052   1.870  14.593   8.831  0.0071  0.0054 -0.0732
 4853W        W 5053   4.912   5.792   9.119 -0.1194 -0.1389  0.1387
 4854W        W 5054  13.244  16.983  10.702  0.2404  0.0491  0.0544
 4855W        W 5055   1.677   3.158   4.461 -0.1989 -0.5058  0.1652
 4856W        W 5056  14.402   1.518   3.099  0.2126 -0.1623  0.0512
 4857W        W 5057   5.901   8.555  10.416  0.1886  0.0907  0.0027
 4858W        W 5058   2.615   6.332  11.772  0.3454 -0.1026  0.1562
 4859W        W 5059  16.424   9.157  16.898 -0.1251 -0.0070  0.1744
 4860W        W 5060   0.943  16.424  10.484  0.0891 -0.1335 -0.1523
 4861W        W 5061   7.739   5.643  12.674 -0.2668  0.2253 -0.1315
 4862W        W 5062  11.468   4.542  10.824  0.2388  0.1101 -0.0948
 4863W        W 5063   7.018  15.767   3.716 -0.0375  0.0962 -0.0375
 4864W        W 5064  18.081   8.201   7.269 -0.1748  0.0103  0.0360
 4865W        W 5065   1.022   5.831   1.905 -0.2849  0.3071  0.1753
 4866W        W 5066   5.272  17.830   6.264  0.1711 -0.1850  0.1408
 4867W        W 5067   2.858  12.801   5.224  0.2149  0.1754 -0.4516
 4868W        W 5068   0.122   7.850  11.678 -0.1097  0.0956 -0.3245
 4869W        W 5069   5.851  11.341   0.091  0.2746 -0.0282  0.1285
 4870W        W 5070  17.778   8.752  11.744  0.2097 -0.1958  0.0725
 4871W        W 5071  11.018  10.246   8.824 -0.0253 -0.0776  0.0101
 4872W        W 5072   3.411   8.627  13.002  0.3854  0.0340 -0.1767
 4873W        W 5073   2.608   8.207   0.828 -0.0470 -0.2847  0.2099
 4874W        W 5074   1.723   6.902   5.917 -0.3391  0.0708  0.1375
 4875W        W 5075   4.358   1.165  10.520 -0.0618 -0.1091 -0.3836
 4876W        W 5076  16.394   9.174   9.045 -0.0838  0.4610 -0.0963
 4877W        W 5077   3.106  13.894   3.770  0.0486 -0.3209  0.1337
 4878W        W 5078   9.600   8.178  16.919 -0.1419  0.1165 -0.5384
 4879W        W 5079  16.522   8.582   9.112  0.2378 -0.1157 -0.1233
 4880W        W 5080  11.181   8.820   7.206  0.1919  0.1565 -0.0261
 4881W        W 5081   4.197   7.145   9.125 -0.0504 -0.0047 -0.3058
 4882W        W 5082   2.244   2.853  10.190  0.1588  0.1849  0.2424
 4883W        W 5083  17.256   4.108   5.022 -0.1808  0.0739  0.0891
 4884W        W 5084   4.839  14.405  10.968 -0.0906  0.0385 -0.1041
 4885W        W 5085  13.075  11.054  10.549 -0.0165 -0.0982 -0.3189
 4886W        W 5086   4.396   0.429   5.588  0.1564  0.0273  0.0932
 4887W        W 5087   1.646  18.176   7.818  0.4737  0.1294  0.1356
 4888W        W 5088  14.310  13.437   8.136  0.0316  0.1366  0.4235
 4889W        W 5089   3.351   9.829  12.510  0.0079 -0.0724 -0.1668
 4890W        W 5090  11.693   1.745  10.688 -0.1681 -0.1338  0.1580
 4891W        W 5091   4.351  10.892  16.109 -0.1850  0.0542 -0.0672
 4892W        W 5092   7.174  17.262   8.671 -0.2074 -0.0324  0.0456
 4893W        W 5093  17.950   9.284   7.526  0.1198  0.0138  0.0657
 4894W        W 5094   9.355   9.427   8.137  0.1797  0.2265  0.1614
 4895W        W 5095   2.969   3.169   9.836 -0.3462  0.2536 -0.2789
 4896W        W 5096  16.596   5.450   5.485  0.1441 -0.1763  0.1010
 4897W        W 5097  12.931   7.737   3.935 -0.2746 -0.0381  0.1084
 4898W        W 5098   1.507   4.860   8.260 -0.0238 -0.1546  0.3180
 4899W        W 5099  18.094   1.229   5.471 -0.1731 -0.1266  0.0233
 4900W        W 5100   6.274  10.388   4.857 -0.1138  0.1663 -0.0161
 4901W        W 5101  15.354   7.312  14.571  0.3851  0.2330 -0.2416
 4902W        W 5102   3.252   8.232  14.711 -0.1669 -0.1438 -0.0732
 4903W        W 5103   8.264  14.366   6.266 -0.1752 -0.1007  0.2161
 4904W        W 5104   0.693  14.167  11.133  0.1830  0.1965 -0.2842
 4905W        W 5105   2.384  10.776  11.116  0.1112  0.1067  0.0850
 4906W        W 5106   2.796   4.492   5.201 -0.1125 -0.1042  0.1200
 4907W        W 5107  12.329  14.889   0.725 -0.2694  0.0043  0.0944
 4908W        W 5108   5.031   3.490   9.624 -0.3317 -0.1067 -0.1287
 4909W        W 5109  17.600   8.673  15.315  0.2059  0.0032 -0.2134
 4910W        W 5110   1.638   1.695   4.535  0.0214  0.1729  0.2071
 4911W        W 5111   5.060  12.128  12.029  0.2156  0.0006  0.1665
 4912W        W 5112   6.336   3.903  10.103 -0.2722  0.0201  0.1067
 4913W        W 5113   4.623  11.204  10.064 -0.0469  0.2540  0.1181
 4914W        W 5114  16.151   7.807  11.849  0.1179 -0.0353  0.1488
 4915W        W 5115   1.217   7.504   8.999 -0.2356 -0.0042 -0.0863
 4916W        W 5116   8.367  13.048  11.744 -0.4028  0.0339  0.3319
 4917W        W 5117  13.612   9.588   7.466  0.0355 -0.2730  0.0907
 4918W        W 5118   2.554  12.670  10.661 -0.1332  0.0637  0.1291
 4919W        W 5119   9.802   7.662  11.181 -0.0745 -0.1948  0.0387
 4920W        W 5120  18.129   9.204  14.991 -0.0476  0.0673  0.0904
 4921W        W 5121   3.656  13.033  14.502  0.1725  0.0669  0.1507
 4922W        W 5122   4.318   8.664   6.914 -0.0291 -0.1463 -0.0984
 4923W        W 5123  16.576  17.945  12.099 -0.2579 -0.2195 -0.1608
 4924W        W 5124  15.809   1.595  10.818 -0.0261 -0.0456  0.0002
 4925W        W 5125   6.849  17.614   7.987  0.5578 -0.0504 -0.2963
 4926W        W 5126   6.569  14.823  11.299  0.0197 -0.0273  0.1443
 4927W        W 5127   7.090   8.032   6.773  0.2409 -0.2809  0.0384
 4928W        W 5128   2.062  10.607   2.389  0.0557  0.2308  0.2154
 4929W        W 5129   8.642  12.126  10.885 -0.0319  0.1359 -0.2975
 4930W        W 5130  15.395   8.844   0.065  0.2540 -0.2741 -0.0231
 4931W        W 5131   1.317   9.976  16.446 -0.2363  0.2992 -0.3077
 4932W        W 5132   2.446   3.979  10.772 -0.0798 -0.2569 -0.0774
 4933W        W 5133   1.064  17.000   9.221 -0.0422 -0.1433  0.1614
 4934W        W 5134   4.286  18.056  10.252  0.2989 -0.2353 -0.1340
 4935W        W 5135   9.291   9.975   6.156 -0.4020 -0.3861 -0.0041
 4936W        W 5136  13.965   2.126  13.731 -0.1642 -0.0322  0.2309
 4937W        W 5137  15.433   0.461   4.292  0.2261  0.1656 -0.0442
 4938W        W 5138   3.633  11.671   1.160 -0.0151  0.1311  0.0951
 4939W        W 5139   2.817   9.808  15.446  0.2961 -0.4449  0.1117
 4940W        W 5140   0.974  16.468   8.300  0.0358 -0.1599  0.0672
 4941W        W 5141   4.630   7.942  18.096  0.0141  0.4698  0.0506
 4942W        W 5142   1.957  12.421   3.629 -0.3100 -0.2417  0.0694
 4943W        W 5143   6.777  16.642  17.886  0.1774 -0.0125 -0.1988
 4944W        W 5144   3.770   7.797   8.387  0.0959  0.1695 -0.0934
 4945W        W 5145   8.977   9.827   5.502 -0.2202 -0.1817 -0.3651
 4946W        W 5146  16.132  15.451   5.785  0.0922 -0.0636 -0.3097
 4947W        W 5147   6.385  14.390   9.010 -0.1567 -0.0562 -0.0615
 4948W        W 5148   6.110  10.319   9.190 -0.4070  0.1327 -0.0691
 4949W        W 5149  15.057   1.988  17.361 -0.0411  0.0104  0.3620
 4950W        W 5150  16.208  15.183  12.562  0.0538 -0.0392  0.2853
 4951W        W 5151  14.708   8.864   9.368 -0.1382  0.1108 -0.0370
 4952W        W 5152  11.957  16.743   9.108  0.2353  0.1693  0.0374
 4953W        W 5153  15.558  12.928  15.681  0.0438  0.0114 -0.1481
 4954W        W 5154   0.976   5.875   1.081 -0.1448 -0.0852  0.0513
 4955W        W 5155   9.022  15.265  12.631  0.1232 -0.1126  0.0752
 4956W        W 5156   6.702   8.815   5.802 -0.1045 -0.0572 -0.1671
 4957W        W 5157   0.720  14.571  12.283 -0.0127 -0.2342  0.1268
 4958W        W 5158   0.561   0.967   3.984 -0.0182 -0.3036 -0.1871
 4959W        W 5159   3.388  12.880   3.691  0.0640  0.0870  0.0415
 4960W        W 5160  17.381  13.588  10.513 -0.2634  0.1073 -0.0414
 4961W        W 5161   2.011   9.312   7.083 -0.0956  0.2355  0.0062
 4962W        W 5162  15.581   8.426   4.980 -0.0969 -0.0493  0.0790
 4963W        W 5163   2.088   7.714  11.186  0.1197  0.2051 -0.1005
 4964W        W 5164   3.758   5.148  12.183 -0.0021 -0.1763  0.1172
 4965W        W 5165  16.918  14.468  12.564 -0.1316 -0.0426 -0.0488
 4966W        W 5166   7.781  12.684   4.411 -0.2082  0.2012 -0.4186
 4967W        W 5167  14.255   1.886  15.908  0.0110 -0.2283 -0.2333
 4968W        W 5168  14.994   0.830  11.986 -0.1384 -0.0227  0.2241
 4969W        W 5169  16.450   1.955   4.823 -0.3171 -0.2158  0.0730
 4970W        W 5170  18.111  15.548  17.846  0.1034 -0.0814  0.3213
 4971W        W 5171   2.332   4.358  10.434 -0.1148 -0.0973  0.0635
 4972W        W 5172   3.013  17.754  11.692  0.2445 -0.1489 -0.0077
 4973W        W 5173   4.757   9.014   3.922 -0.1126  0.2211  0.2371
 4974W        W 5174   5.415   9.589   2.431  0.3878  0.2543 -0.2117
 4975W        W 5175   0.890   7.874  13.807  0.3490  0.1680 -0.1598
 4976W        W 5176  17.295   5.801  15.384  0.1085  0.0659  0.2142
 4977W        W 5177   1.232   9.079  17.533  0.1551  0.1909 -0.0942
 4978W        W 5178   6.118   0.862  12.244 -0.0062 -0.0967 -0.2126
 4979W        W 5179   4.425   7.322  11.531 -0.1131  0.1471 -0.0393
 4980W        W 5180   1.708   8.445   9.984 -0.3454 -0.0450  0.1059
 4981W        W 5181   4.920   7.269  11.299  0.1044  0.0193 -0.3259
 4982W        W 5182   2.898   6.151  17.094 -0.1352 -0.0789 -0.0504
 4983W        W 5183  14.963  13.584  12.390 -0.0529  0.0036 -0.1519
 4984W        W 5184  14.666   5.312  13.915  0.0873 -0.1114 -0.1698
 4985W        W 5185   1.117   2.430  10.079 -0.0809 -0.2675 -0.0663
 4986W        W 5186  10.679   2.664  11.393  0.1006  0.1243  0.0923
 4987W        W 5187   8.701  16.333   6.201  0.0847 -0.0047  0.1200
 4988W        W 5188  10.395   4.103   6.335 -0.1143 -0.0651  0.0560
 4989W        W 5189   0.195  10.997   6.852  0.2888  0.0392  0.0219
 4990W        W 5190   1.483   7.567   9.497 -0.0339 -0.0200  0.1172
 4991W        W 5191   3.218  16.666  11.891  0.1049 -0.3128  0.2153
 4992W        W 5192   7.874  12.212  11.281  0.0667  0.0067 -0.0519
 4993W        W 5193  17.340   6.632  17.680  0.0384 -0.4386  0.1312
 4994W        W 5194  17.851   6.690  13.818 -0.0695  0.0168 -0.3649
 4995W        W 5195  13.609  11.540  17.219  0.0344 -0.2836 -0.0130
 4996W        W 5196   2.682  13.297   9.968 -0.1591 -0.4029  0.0169
 4997W        W 5197   6.926   5.699   7.548 -0.1413  0.2738  0.2350
 4998W        W 5198   0.814   7.297   5.334 -0.0839  0.0670 -0.2307
 4999W        W 5199   1.983   7.059  10.202  0.0834 -0.0643  0.0612
 5000W        W 5200  12.334   6.686   7.793  0.0898  0.1709  0.0553
 5001W        W 5201  17.955  14.531  14.147 -0.0989  0.0688  0.0036
 5002W        W 5202   0.380  16.783   7.827  0.1383 -0.1127  0.1578
 5003W        W 5203   5.001   2.420   4.709  0.1004  0.1066 -0.0345
 5004W        W 5204  18.139  10.534  10.723 -0.3833 -0.0645 -0.1402
 5005W        W 5205   0.054   4.633  11.605 -0.0808  0.0012  0.1225
 5006W        W 5206   3.695  11.616  10.202  0.0725  0.0189 -0.2099
 5007W        W 5207  10.300   0.188  10.624  0.1113  0.1133  0.1790
 5008W        W 5208   3.095   3.397  14.188  0.0645  0.0626 -0.0447
 5009W        W 5209  17.912   8.234   3.881  0.0696  0.0246  0.1346
 5010W        W 5210   1.285  10.913  12.436 -0.1403  0.1849  0.0326
 5011W        W 5211   2.472   4.879   3.485  0.1114 -0.0898  0.0624
 5012W        W 5212   1.230   1.259  10.933 -0.1750 -0.5287 -0.2206
 5013W        W 5213   1.838   6.612  11.073  0.2661 -0.1744 -0.4929
 5014W        W 5214   2.317   1.445  17.652  0.1596  0.4115 -0.2161
 5015W        W 5215  17.584  16.615   4.502 -0.2102  0.0677 -0.0637
 5016W        W 5216  14.914   3.579   8.001  0.0719 -0.1240 -0.0295
 5017W        W 5217  17.588   1.989   9.322  0.1326 -0.2980 -0.1309
 5018W        W 5218  15.538   6.814   5.385  0.1656 -0.0110 -0.3042
 5019W        W 5219   7.336   5.855  11.058 -0.0573  0.0834 -0.1508
 5020W        W 5220   5.791  11.528  11.570  0.0820  0.0606  0.1258
 5021W        W 5221   0.757   0.703  17.656  0.1411 -0.1369  0.3701
 5022W        W 5222  17.094   7.665   9.326  0.0362  0.2614 -0.0252
 5023W        W 5223  10.675  13.942  12.006 -0.1279 -0.0550  0.0624
 5024W        W 5224   0.539  10.885   8.577 -0.0733  0.1202  0.1020
 5025W        W 5225   3.224   4.054   5.509  0.1642  0.1247 -0.0125
 5026W        W 5226  14.938  10.370   9.437 -0.0082  0.2618  0.1249
 5027W        W 5227   5.690  11.208  10.136 -0.2096 -0.1264  0.4636
 5028W        W 5228   9.478   0.275   4.889 -0.1832 -0.1525 -0.2766
 5029W        W 5229  11.999   4.327   0.969  0.2682  0.0735 -0.0041
 5030W        W 5230  14.044   0.846  16.135  0.1619 -0.1756 -0.2405
 5031W        W 5231  10.716  12.257   1.548 -0.0391  0.0530 -0.3822
 5032W        W 5232  13.511   7.073   3.065 -0.1421  0.1817 -0.0940
 5033W        W 5233  12.195   2.464   8.805  0.1640 -0.0607 -0.0100
 5034W        W 5234   0.160  11.738   7.084  0.0720  0.3403  0.0161
 5035W        W 5235   1.655  13.741   8.698  0.2354 -0.1466  0.1724
 5036W        W 5236   5.605   8.553  12.991  0.1234 -0.2540  0.2499
 5037W        W 5237   5.673   6.564  10.348 -0.2400 -0.2241 -0.2724
 5038W        W 5238   6.736   8.520   9.865  0.2028  0.3790 -0.0868
 5039W        W 5239   6.562   4.539  14.113 -0.0280  0.1180 -0.3016
 5040W        W 5240   5.802   8.218   2.296 -0.3147 -0.0292 -0.0445
 5041W        W 5241  11.188   4.815   5.936  0.0987 -0.0377  0.0602
 5042W        W 5242  16.670  13.199   6.729  0.1370 -0.0410 -0.2538
 5043W        W 5243   2.844  15.155   4.619  0.0568  0.0865  0.0076
 5044W        W 5244  10.578   3.913   8.895  0.2002  0.1209  0.0237
 5045W        W 5245  18.157  10.158  10.338 -0.0315  0.3393  0.1026
 5046W        W 5246   2.660   1.740  14.044 -0.0486  0.0158 -0.1397
 5047W        W 5247   2.687   0.128   8.521 -0.0568 -0.0727  0.1199
 5048W        W 5248   0.638  10.679   8.128 -0.2725  0.0571 -0.0623
 5049W        W 5249   2.791   6.578   8.141 -0.1029 -0.0922  0.1873
 5050W        W 5250   4.863  11.274   8.092 -0.1341 -0.0055  0.2055
 5051W        W 5251  10.734   9.084   0.855  0.0619 -0.2820 -0.2804
 5052W        W 5252  17.910  13.541   9.983  0.2568 -0.0893 -0.0546
 5053W        W 5253  14.812   9.377  13.167  0.0537  0.1503 -0.0498
 5054W        W 5254  15.434  15.229  13.473  0.2533  0.2249  0.0780
 5055W        W 5255   1.604  13.647   0.026  0.1431 -0.2433  0.1664
 5056W        W 5256  12.238   6.530  15.737  0.3906  0.1540  0.3124
 5057W        W 5257  12.005   6.805   6.919  0.0130  0.1039 -0.1311
 5058W        W 5258   6.348   8.519   6.285 -0.3428 -0.0875 -0.3672
 5059W        W 5259   8.793   1.389  10.248  0.4426  0.0502  0.1905
 5060W        W 5260  12.469  13.646   9.138  0.0021  0.0840  0.1259
 5061W        W 5261  17.363   4.436  10.163  0.0571 -0.1542 -0.1169
 5062W        W 5262   7.898   2.974   9.297 -0.1926  0.1004  0.1316
 5063W        W 5263   7.377   6.925  12.374 -0.0635 -0.1823 -0.1819
 5064W        W 5264  17.449  13.284   4.196 -0.0982  0.1299  0.0088
 5065W        W 5265  17.605   9.354   4.523  0.2925  0.1447 -0.1239
 5066W        W 5266   9.946   6.606  15.338 -0.0133 -0.1571  0.3629
 5067W        W 5267   3.140  12.684  12.180 -0.0004 -0.1958 -0.2597
 5068W        W 5268  17.099  12.201   8.574  0.1159 -0.1497  0.2504
 5069W        W 5269  16.843  12.313  12.038  0.0250 -0.4440  0.1281
 5070W        W 5270   7.465  12.384  17.931  0.0654 -0.0659  0.1601
 5071W        W 5271  13.611   5.209  11.309 -0.1170 -0.1842 -0.1720
 5072W        W 5272  10.511   5.322  17.143  0.1882 -0.0077  0.1779
 5073W        W 5273   9.089   2.063   7.980 -0.4783 -0.2528 -0.3361
 5074W        W 5274   9.967  16.175  10.424  0.1093 -0.0938  0.1736
 5075W        W 5275   0.761   5.186   5.648  0.0840 -0.4352 -0.0164
 5076W        W 5276  15.706  14.166  13.675  0.0213  0.3256 -0.3631
 5077W        W 5277  14.390  10.557   3.251 -0.1999  0.1800 -0.3578
 5078W        W 5278  16.258   8.998   9.485 -0.2143  0.0190 -0.1495
 5079W        W 5279   2.684   2.438   1.919 -0.0998  0.4243  0.2574
 5080W        W 5280   2.375  15.089  11.837 -0.1964 -0.0827  0.2439
 5081W        W 5281   5.532  10.772   9.926 -0.0260 -0.2518 -0.3227
 5082W        W 5282   0.275   6.986  12.301 -0.0467  0.1225 -0.0154
 5083W        W 5283   7.775  13.913   9.858 -0.2413 -0.2216 -0.1670
 5084W        W 5284  12.819   7.983   9.958 -0.1998  0.1058  0.3198
 5085W        W 5285   9.232   2.287  16.224 -0.4940 -0.0647  0.2307
 5086W        W 5286  12.960   7.223   3.757 -0.1081  0.3012 -0.0022
 5087W        W 5287   5.228   9.947   8.158  0.0680 -0.0889  0.1467
 5088W        W 5288  16.917   8.014  13.063  0.2235 -0.0352 -0.1881
 5089W        W 5289  16.620  10.145   1.931  0.1024 -0.0890 -0.3708
 5090W        W 5290  17.098   8.093   6.621 -0.0484  0.2023  0.0482
 5091W        W 5291   2.516  17.028   8.416 -0.1393  0.2337  0.0690
 5092W        W 5292  18.069  16.420   9.368  0.0274 -0.1245  0.2512
 5093W        W 5293   5.341  14.346   5.582  0.0222 -0.3036  0.2724
 5094W        W 5294   1.464   8.979   3.319  0.0727 -0.0462  0.0925
 5095W        W 5295   2.720   7.874  13.643  0.1536 -0.0338 -0.0133
 5096W        W 5296   5.987  10.345   5.964 -0.1308  0.0309  0.0170
 5097W        W 5297  16.386  14.655   2.906  0.0723 -0.1999 -0.5043
 5098W        W 5298  12.542   4.799   9.493 -0.0505 -0.0105 -0.2400
 5099W        W 5299   2.872   6.943  17.052  0.0768  0.0913  0.1015
 5100W        W 5300  17.782   8.854   8.973  0.1197  0.2367 -0.0255
 5101W        W 5301   3.529   5.658  15.943 -0.2673  0.1837 -0.2892
 5102W        W 5302   6.234   9.154  14.969 -0.1555 -0.2132 -0.2872
 5103W        W 5303   6.443   4.081  14.374 -0.0740 -0.1647  0.2616
 5104W        W 5304   5.013   9.123   3.489  0.0188  0.1098 -0.1077
 5105W        W 5305  16.433  14.564   6.232 -0.1668  0.0592  0.4481
 5106W        W 5306   4.238  12.223   8.291 -0.0166  0.0470  0.1374
 5107W        W 5307   3.837  16.485   9.740 -0.1021  0.0225 -0.0118
 5108W        W 5308   1.352  10.743  14.631  0.1048  0.1539  0.1625
 5109W        W 5309   2.458   7.665   9.753 -0.1328  0.0844  0.1430
 5110W        W 5310   8.265   1.237   5.512  0.2366 -0.0067  0.1728
 5111W        W 5311   3.817   9.907   8.903 -0.1599 -0.0604 -0.0803
 5112W        W 5312  12.231   9.046  14.658 -0.1889  0.1358 -0.0675
 5113W        W 5313  16.382   0.755   7.165 -0.1487 -0.0033  0.0277
 5114W        W 5314   6.403  16.467   1.764  0.0038 -0.2465 -0.0507
 5115W        W 5315   7.407   2.392   0.942 -0.1852  0.0770 -0.0643
 5116W        W 5316   8.364   8.689  12.713 -0.1332  0.0774 -0.1193
 5117W        W 5317   0.957   7.659   7.446  0.0223  0.0232  0.2180
 5118W        W 5318  15.638   9.405   8.001 -0.3350  0.0313  0.0722
 5119W        W 5319  15.149  11.464   8.046 -0.1778  0.1958  0.0635
 5120W        W 5320   6.353  15.253   6.517  0.0542 -0.2703  0.0155
 5121W        W 5321   1.503   4.721  10.600 -0.0394 -0.2529 -0.1425
 5122W        W 5322  15.569   8.607   1.711  0.1040 -0.0027 -0.2173
 5123W        W 5323  16.708  13.316  17.781 -0.5160  0.1890 -0.2792
 5124W        W 5324  16.771   2.834   9.051  0.1529 -0.0884 -0.0279
 5125W        W 5325   2.255   9.519  11.582 -0.1536 -0.0252 -0.3955
 5126W        W 5326   1.780   3.760   8.438  0.0531  0.2487  0.2543
 5127W        W 5327   3.581  10.464   5.165  0.1268  0.1459  0.3098
 5128W        W 5328   3.606   4.225   8.859 -0.3505 -0.1653 -0.1352
 5129W        W 5329  10.680   0.251   6.126 -0.0223  0.0375  0.0429
 5130W        W 5330   7.208  10.605   4.587  0.2002 -0.2304  0.1105
 5131W        W 5331   8.567   1.817  12.171  0.3558  0.0913 -0.2863
 5132W        W 5332  10.343   9.063   8.166 -0.2393  0.2290 -0.3323
 5133W        W 5333   7.071  13.978   6.141 -0.0802 -0.2364  0.1584
 5134W        W 5334  16.921  18.178  15.287  0.2870  0.3453 -0.1339
 5135W        W 5335   2.313  15.038  17.030 -0.1392  0.1757  0.1542
 5136W        W 5336   7.426   6.431   7.593 -0.1407 -0.2717 -0.2074
 5137W        W 5337   9.043   1.369   5.910  0.0530 -0.0429 -0.0448
 5138W        W 5338   0.151   4.967   1.684  0.1869 -0.1009 -0.0667
 5139W        W 5339   7.265   6.725   4.230  0.2019  0.1894  0.1551
 5140W        W 5340  16.180   6.272  16.237 -0.3760 -0.0060  0.1826
 5141W        W 5341   0.191  11.625  12.953 -0.1342 -0.1529  0.0246
 5142W        W 5342   0.360  13.998   6.267  0.3345  0.0049  0.0185
 5143W        W 5343  14.805   8.437   4.938 -0.1496  0.0856 -0.1211
 5144W        W 5344  13.354   6.551  16.450  0.1376  0.3405  0.0580
 5145W        W 5345  14.560  13.000  16.641 -0.3987  0.2363  0.0439
 5146W        W 5346  14.156  11.695   9.155 -0.0422 -0.0532  0.0610
 5147W        W 5347   3.415   8.393  11.584 -0.3384  0.1833  0.1856
 5148W        W 5348   6.211   5.176   7.217 -0.0214  0.2039 -0.5162
 5149W        W 5349   5.250  12.351  11.426  0.1562  0.0221  0.1456
 5150W        W 5350  14.774   7.093   2.142 -0.3590  0.0293  0.1497
 5151W        W 5351   1.207  17.089   6.996  0.2735  0.2814  0.0668
 5152W        W 5352   3.566   6.077  15.407  0.1050  0.2205  0.1484
 5153W        W 5353   6.755   4.190   9.878 -0.0855 -0.2242  0.0642
 5154W        W 5354  15.578  12.716   9.200 -0.2173 -0.0673 -0.2390
 5155W        W 5355   1.416   4.639   5.844 -0.0238  0.1220 -0.2877
 5156W        W 5356   6.217  15.837   9.189 -0.2198  0.0480  0.2160
 5157W        W 5357  17.347  15.923   1.846  0.2380  0.0858 -0.1140
 5158W        W 5358  13.252  11.641   8.032 -0.2106 -0.2231 -0.1424
 5159W        W 5359   4.166  12.417   7.607  0.0817 -0.4889 -0.3221
 5160W        W 5360   3.484   6.883  16.505  0.1175 -0.1870 -0.2559
 5161W        W 5361   5.910  12.455  12.284  0.3749  0.1196 -0.1851
 5162W        W 5362   4.644  15.213  13.516 -0.1008  0.0272 -0.0710
 5163W        W 5363  14.371   6.390  10.563  0.0320 -0.0291 -0.0525
 5164W        W 5364   5.770  11.593   2.072  0.0675 -0.3879  0.1262
 5165W        W 5365   2.131   9.868   6.945 -0.1432 -0.0424  0.2809
 5166W        W 5366   4.262  11.226   9.596  0.1555 -0.0329 -0.0623
 5167W        W 5367   9.060   3.784   4.396 -0.2888  0.1207  0.1836
 5168W        W 5368   1.961  13.633   9.580  0.0327  0.1440 -0.3302
 5169W        W 5369   2.538   4.514   0.923  0.1133 -0.2230 -0.0024
 5170W        W 5370   4.518   7.960   1.479  0.2747  0.0755 -0.1984
 5171W        W 5371   4.868   5.054   0.264  0.0544  0.2736  0.0939
 5172W        W 5372   6.933   5.993   1.816 -0.1240  0.1011  0.1508
 5173W        W 5373   9.874   7.332  11.693  0.1300 -0.0041  0.3357
 5174W        W 5374   8.645  18.081   9.302 -0.0708  0.2128 -0.3213
 5175W        W 5375   5.365  15.322   6.430  0.0658  0.1377  0.3773
 5176W        W 5376   7.785   8.378  14.588 -0.2791  0.0342 -0.3239
 5177W        W 5377   1.000  15.538   4.154  0.0804  0.1704  0.0575
 5178W        W 5378   1.117   0.160   2.012  0.1185 -0.4245  0.0664
 5179W        W 5379   2.113   4.555  13.834  0.3000  0.0592  0.0286
 5180W        W 5380  17.863  15.323   4.288  0.0439 -0.1324 -0.3116
 5181W        W 5381  16.847  13.523   1.871  0.0956 -0.0409 -0.1617
 5182W        W 5382  12.742   6.345  13.493  0.1708 -0.0662  0.1221
 5183W        W 5383  15.826  12.905  12.211  0.0124 -0.1106 -0.2929
 5184W        W 5384  16.366  13.928  16.397 -0.0613  0.2917  0.1070
 5185W        W 5385   2.443   0.631  16.826 -0.1077 -0.1204 -0.1697
 5186W        W 5386   5.097  10.419   4.737 -0.0696 -0.1813 -0.1970
 5187W        W 5387   0.409   3.341   9.022  0.0091  0.1722  0.4124
 5188W        W 5388  15.079   4.071   9.097  0.1304  0.0592  0.0798
 5189W        W 5389   7.269   9.041  13.940 -0.0040  0.0726 -0.1216
 5190W        W 5390  10.988   7.469  10.832  0.0406 -0.0276 -0.0113
 5191W        W 5391   6.426   1.844   3.735 -0.0743  0.1615 -0.3656
 5192W        W 5392   1.374   2.604   1.200 -0.1914  0.1540  0.0082
 5193W        W 5393   8.923  14.232   5.118 -0.3922 -0.1496  0.1692
 5194W        W 5394   6.241   1.607   6.712 -0.1576 -0.0886  0.0570
 5195W        W 5395  17.535   8.001  10.793  0.0337  0.2379  0.0557
 5196W        W 5396  11.640   6.610   9.033 -0.1042 -0.1127  0.2288
 5197W        W 5397   1.173  10.733   6.901  0.0219 -0.0860  0.0805
 5198W        W 5398  16.941   6.446   3.495  0.1410 -0.0328 -0.0724
 5199W        W 5399   4.990   9.228   5.919 -0.0687 -0.3026 -0.1990
 5200W        W 5400   9.814   7.874   4.424  0.0167 -0.0110  0.2486
 5201W        W 5401  12.491   3.395  10.306  0.1673 -0.1419  0.0103
 5202W        W 5402  16.773   5.428   4.349  0.0304 -0.1799 -0.2250
 5203W        W 5403   4.809  14.911  12.998  0.0368  0.1852  0.4280
 5204W        W 5404   8.215   7.442  10.318  0.0657  0.1394  0.1893
 5205W        W 5405   1.328  12.257   5.412  0.0041 -0.0154  0.0613
 5206W        W 5406   2.557  14.341   8.651  0.0375  0.0179 -0.1408
 5207W        W 5407   6.653   9.018  10.033 -0.4045  0.0975  0.4716
 5208W        W 5408  18.060   5.758   3.414 -0.0800  0.1588 -0.0680
 5209W        W 5409   3.379  10.986   2.758  0.2240  0.3653  0.1830
 5210W        W 5410   3.220  11.543   8.906 -0.0998 -0.0694  0.3329
 5211W        W 5411  13.020   5.776   7.828 -0.3411 -0.1423 -0.1289
 5212W        W 5412   2.274  14.431   6.070  0.1758 -0.0675  0.0005
 5213W        W 5413   5.540  11.634  10.259  0.2374  0.0084  0.2943
 5214W        W 5414   1.540   7.618  13.228  0.0463 -0.3887 -0.3169
 5215W        W 5415  14.793  10.804   3.174 -0.0695  0.1909  0.0409
 5216W        W 5416   7.406  11.402  10.689  0.0042  0.5177 -0.1001
 5217W        W 5417   2.178  10.007   6.485  0.3291  0.3983  0.2316
 5218W        W 5418   6.350  11.923   9.913  0.0757 -0.1454  0.2041
 5219W        W 5419   4.078   3.108   1.320  0.1620 -0.1641 -0.0578
 5220W        W 5420  12.121  10.891  18.044 -0.0770  0.1106 -0.3919
 5221W        W 5421   0.084  12.042   8.035  0.0194 -0.1752  0.0626
 5222W        W 5422  16.565   8.162  11.040  0.1607  0.0247 -0.2197
 5223W        W 5423   4.968  12.243   5.572  0.1521 -0.0231 -0.2783
 5224W        W 5424   5.751  10.237   6.476 -0.1025  0.0801  0.0351
 5225W        W 5425   2.484   7.112  10.439 -0.0050  0.3903 -0.2495
 5226W        W 5426  17.140   8.340   9.858 -0.0964 -0.2926  0.0049
 5227W        W 5427  17.397  12.493   7.777 -0.0347  0.1784 -0.1116
 5228W        W 5428   2.197   1.698   0.207 -0.0098  0.1710  0.0147
 5229W        W 5429   2.129  15.948  16.154 -0.1247  0.0618 -0.2042
 5230W        W 5430   5.226   6.441  16.117  0.1803 -0.1015  0.1591
 5231W        W 5431   1.332   9.720   8.582  0.1204 -0.4123 -0.2011
 5232W        W 5432  17.569   3.818  17.883 -0.0477 -0.2107 -0.1568
 5233W        W 5433  15.364  14.452  12.104 -0.0220  0.2234  0.1682
 5234W        W 5434   4.795  14.702   9.438  0.0864  0.1542  0.3062
 5235W        W 5435   1.553   7.092   7.724  0.2028  0.3598  0.3600
 5236W        W 5436  16.608   4.575   7.232 -0.1122  0.0866  0.0238
 5237W        W 5437   0.459   7.698  15.117  0.0592  0.1398  0.2897
 5238W        W 5438   0.825  13.021   7.225 -0.2438  0.0791  0.0294
 5239W        W 5439  18.080   7.406   5.841  0.2601  0.2973  0.2682
 5240W        W 5440  14.762  12.450   6.446 -0.0942  0.0766 -0.0434
 5241W        W 5441   4.480  11.850   2.154  0.2122  0.1018  0.0350
 5242W        W 5442  17.521  16.115   4.302 -0.1403  0.0231 -0.0408
 5243W        W 5443   4.206  15.208  16.353 -0.2906 -0.0596  0.0500
 5244W        W 5444   8.472   9.263  12.880  0.1433  0.2619  0.0745
 5245W        W 5445   5.480   7.688   8.326 -0.1479  0.1704 -0.0412
 5246W        W 5446   0.244   8.442  15.426 -0.0870  0.1074  0.0887
 5247W        W 5447  13.761   5.596  15.281  0.1064  0.0442 -0.0731
 5248W        W 5448   9.514  16.913   2.897 -0.0977 -0.3446 -0.1098
 5249W        W 5449   9.916   4.201  16.822 -0.2847  0.0202  0.0577
 5250W        W 5450   6.249   7.265  10.259  0.4327  0.2292  0.1555
 5251W        W 5451  17.141   1.929  12.538 -0.2010 -0.1916 -0.2188
 5252W        W 5452   1.673  10.333   4.320 -0.2382 -0.1180  0.1516
 5253W        W 5453   5.618   6.388   7.179  0.0481  0.0125 -0.0891
 5254W        W 5454  12.853   4.887   8.002 -0.0243  0.0185 -0.0094
 5255W        W 5455  13.464  10.409   2.304  0.1134  0.3030 -0.1717
 5256W        W 5456  10.354   5.597  15.085  0.1269  0.4112  0.1084
 5257W        W 5457  16.198  17.226  15.794 -0.2548  0.0158  0.0015
 5258W        W 5458   9.602   5.329   7.674 -0.0141 -0.3061 -0.3456
 5259W        W 5459  13.745  16.974  10.461  0.0067 -0.1435 -0.3252
 5260W        W 5460   1.621  12.631  14.475  0.1041 -0.0185 -0.2098
 5261W        W 5461   5.528  12.681   7.096 -0.1482  0.0196 -0.0937
 5262W        W 5462  15.746   5.527  15.013 -0.0146  0.1981 -0.0225
 5263W        W 5463   6.204   0.064   7.752 -0.1094  0.0092 -0.1944
 5264W        W 5464   1.528  13.557   6.787  0.1650  0.0944  0.1784
 5265W        W 5465   0.362   6.731   7.378 -0.1842  0.1144 -0.1135
 5266W        W 5466  10.455  12.010   8.900  0.2229 -0.1502 -0.0419
 5267W        W 5467   5.371   5.238   2.451  0.1730 -0.0162  0.0468
 5268W        W 5468   0.399  12.685  13.409  0.0207  0.0946 -0.0004
 5269W        W 5469   1.406  12.374   1.154 -0.0729 -0.1729 -0.3069
 5270W        W 5470  14.979   6.760  10.857 -0.0660 -0.1719  0.2403
 5271W        W 5471   0.433   6.259  17.722 -0.1122 -0.1860 -0.1763
 5272W        W 5472  13.191   9.283  12.086  0.2515  0.1839 -0.6514
 5273W        W 5473  14.091  13.664  11.047 -0.1570 -0.0113  0.0247
 5274W        W 5474   2.359   4.335  11.567 -0.0856  0.1553 -0.0467
 5275W        W 5475  13.411  11.589   9.897  0.0421 -0.2149 -0.1858
 5276W        W 5476  16.633   7.658  10.933 -0.0485 -0.0259 -0.0210
 5277W        W 5477  12.956  10.775  15.208  0.0579  0.0154  0.0571
 5278W        W 5478   9.834  11.998   9.004 -0.2728 -0.1440  0.0946
 5279W        W 5479   7.573   1.896   4.350  0.2523 -0.2217  0.1269
 5280W        W 5480   3.048  15.193  11.374  0.0165  0.2081  0.2470
 5281W        W 5481  16.732   6.457  17.786  0.1319 -0.3330 -0.2850
 5282W        W 5482  12.448   9.013  12.231  0.1853  0.1793 -0.2691
 5283W        W 5483   1.461  12.360   7.220  0.1651  0.2201  0.0908
 5284W        W 5484   3.966   9.588   4.805  0.0274 -0.1100 -0.0369
 5285W        W 5485   4.804  16.815  10.361  0.1343 -0.2709  0.0087
 5286W        W 5486  17.187  13.722   3.638 -0.1678 -0.3333 -0.0619
 5287W        W 5487   7.335  17.124   9.173  0.0352  0.1112 -0.3373
 5288W        W 5488   0.878  11.606  14.795 -0.0566 -0.1074  0.3306
 5289W        W 5489   7.405  11.127  12.698 -0.3252  0.0074  0.1396
 5290W        W 5490   1.031   3.797   1.355  0.0347  0.1658  0.1028
 5291W        W 5491  17.970  12.772   7.965  0.0797  0.4973 -0.0861
 5292W        W 5492   6.408  12.844   2.393  0.0639  0.1345 -0.3069
 5293W        W 5493  16.026   9.331   1.407  0.2170 -0.4121 -0.0926
 5294W        W 5494  13.158   4.608  12.531  0.1074  0.1113 -0.2899
 5295W        W 5495   3.993   2.531  12.390 -0.2191 -0.1653  0.4644
 5296W        W 5496  13.085   7.758  13.925  0.0263 -0.0522  0.1100
 5297W        W 5497   3.935   6.706   1.377  0.0885  0.2757  0.1830
 5298W        W 5498   6.478  12.085  11.677  0.0412 -0.0326 -0.3052
 5299W        W 5499   4.637   3.546   8.137 -0.0472  0.0138  0.0077
 5300W        W 5500  17.507  14.337   7.046 -0.1960 -0.0982  0.0398
 5301W        W 5501   2.995  11.128  15.560 -0.1622  0.1282 -0.1667
 5302W        W 5502  13.366  12.027  14.384 -0.0192 -0.2393 -0.1340
 5303W        W 5503  17.427  10.517   1.839 -0.0773  0.2983  0.3839
 5304W        W 5504   3.512   0.402   8.541 -0.2407  0.2077 -0.0019
 5305W        W 5505  16.236   6.012   9.836  0.1226  0.0025  0.1032
 5306W        W 5506   0.984   3.387   9.892 -0.1714  0.0288  0.4324
 5307W        W 5507   1.638   7.279   5.095 -0.0637  0.1578 -0.0663
 5308W        W 5508   3.127  14.178  14.866 -0.0480  0.1787 -0.0652
 5309W        W 5509   6.432   1.217  13.241  0.2110  0.1878  0.1538
 5310W        W 5510  15.242   9.263   7.683  0.0312 -0.1163  0.0672
 5311W        W 5511  15.429   1.772  17.019  0.3556 -0.2315 -0.3013
 5312W        W 5512  16.840   5.163   9.877  0.1321  0.1723 -0.0050
 5313W        W 5513  16.103  11.262  16.495 -0.0757  0.1400  0.0556
 5314W        W 5514  17.560  13.042   9.673  0.3621  0.1939  0.0864
 5315W        W 5515   9.632   8.301  10.791 -0.2857  0.0760  0.1508
 5316W        W 5516   5.790  17.757  11.914  0.2789 -0.2816  0.1061
 5317W        W 5517  18.111   8.384  15.044 -0.1649  0.1218  0.1010
 5318W        W 5518   2.629  12.817  17.609 -0.3174 -0.0445 -0.1883
 5319W        W 5519  17.260   8.247  10.469  0.0759 -0.2768 -0.1028
 5320W        W 5520   1.017   4.055  17.481  0.1436  0.0297  0.3702
 5321W        W 5521   8.584   4.314  12.148 -0.3419  0.1317  0.0069
 5322W        W 5522   6.034   5.871   7.896  0.1724  0.3964  0.0443
 5323W        W 5523   2.591   4.290   7.473  0.0594 -0.0666  0.2246
 5324W        W 5524   5.106  16.329  17.871  0.0435 -0.0193  0.1347
 5325W        W 5525   7.753  10.208  15.893 -0.3079 -0.0450 -0.1987
 5326W        W 5526  17.689   4.230  13.708  0.1783  0.1150 -0.0398
 5327W        W 5527   6.450   6.365   7.591  0.1397 -0.0094 -0.0901
 5328W        W 5528   1.469   8.054  12.066 -0.0541 -0.2012 -0.0686
 5329W        W 5529  10.994  17.424  15.568 -0.3057  0.0462  0.0806
 5330W        W 5530   3.314   4.166   4.610 -0.1302 -0.2075  0.2514
 5331W        W 5531  16.469   9.650  12.118  0.1549  0.0922 -0.0367
 5332W        W 5532  13.419   5.719   8.902  0.2340  0.0543 -0.0500
 5333W        W 5533   0.780  15.208  16.263 -0.1953 -0.1440  0.1677
 5334W        W 5534  18.129  17.896   8.229  0.0484  0.0579 -0.1011
 5335W        W 5535  15.904   6.659  18.197 -0.0398  0.0483  0.1443
 5336W        W 5536  17.375  10.770   2.802  0.0664 -0.0597 -0.0074
 5337W        W 5537   2.538   6.788  11.957  0.2987  0.0695 -0.1928
 5338W        W 5538  16.351  11.012  11.346 -0.2319 -0.2716  0.0309
 5339W        W 5539   4.678   9.275   8.046 -0.1612  0.0162 -0.2191
 5340W        W 5540   5.775  11.249   8.172  0.2185  0.0105 -0.3638
 5341W        W 5541   5.529  14.954  13.494  0.1901  0.0896 -0.1615
 5342W        W 5542  15.842  15.871  13.087 -0.1080 -0.0312 -0.0408
 5343W        W 5543   2.615  10.540   7.803  0.2378  0.1421  0.1474
 5344W        W 5544   4.201  13.321  11.989 -0.1943 -0.0214 -0.0510
 5345W        W 5545   6.944   8.417   9.137 -0.4269 -0.3852 -0.1447
 5346W        W 5546   0.287  11.786  17.370 -0.0556 -0.1124  0.2214
 5347W        W 5547   4.819  13.978   9.518  0.1947 -0.3128 -0.1685
 5348W        W 5548   4.438   8.601  13.759 -0.1119  0.0710 -0.1072
 5349W        W 5549  11.363  10.881   1.624 -0.1961 -0.2049  0.0238
 5350W        W 5550  12.553   1.619  11.147  0.1829 -0.3133  0.5389
 5351W        W 5551   1.967  13.221   4.566 -0.0029 -0.0403  0.0313
 5352W        W 5552   0.706  14.431   1.576  0.2679  0.0269 -0.0756
 5353W        W 5553  17.603  15.368  15.296  0.2469 -0.2309 -0.1871
 5354W        W 5554  16.032  11.299  17.116  0.0753 -0.0715  0.1250
 5355W        W 5555  16.937  10.489   1.013 -0.0490 -0.0187 -0.1769
 5356W        W 5556  17.990   3.364  16.586  0.0096 -0.0706 -0.0372
 5357W        W 5557   0.089  10.004  12.093  0.1688  0.0176 -0.2039
 5358W        W 5558  12.932  15.441  15.783  0.3313 -0.2973  0.1698
 5359W        W 5559  17.232   2.198   2.051 -0.2463  0.1598 -0.0094
 5360W        W 5560  17.333  10.059   1.584  0.3191 -0.0420  0.0400
 5361W        W 5561   7.138  10.650  11.431 -0.2036 -0.1816 -0.1877
 5362W        W 5562  14.015  14.599  12.610  0.4265  0.1135  0.0080
 5363W        W 5563   8.109   1.887   0.379  0.0666  0.1960 -0.1386
 5364W        W 5564  14.347  16.184  11.665 -0.1273  0.3141  0.0387
 5365W        W 5565   1.126   6.673  12.584  0.2009 -0.1732 -0.2043
 5366W        W 5566  12.181  12.820  17.918 -0.1814 -0.3371 -0.0837
 5367W        W 5567   5.859  15.337   6.363  0.1143  0.1545 -0.0162
 5368W        W 5568   1.723   7.896  18.046 -0.0326  0.1380 -0.0387
 5369W        W 5569   4.811  11.645  14.333 -0.2066 -0.5190  0.1329
 5370W        W 5570   0.441  15.697  15.911 -0.0043 -0.3076 -0.0200
 5371W        W 5571   8.476   1.726  16.878  0.4430  0.1826  0.0161
 5372W        W 5572   4.071   7.497   1.450  0.0285 -0.1232 -0.2468
 5373W        W 5573  14.512   1.794  11.478  0.2981 -0.3333  0.2121
 5374W        W 5574   6.367   5.036   7.701  0.0892  0.0126 -0.0661
 5375W        W 5575  12.434  10.864  15.380 -0.0824  0.2497  0.0277
 5376W        W 5576  14.820  13.207   5.356 -0.0314 -0.2038  0.0377
 5377W        W 5577  11.337   6.524  14.654  0.0503  0.0635 -0.1197
 5378W        W 5578   9.490   3.818  11.216 -0.2166 -0.0520 -0.1633
 5379W        W 5579  14.419   7.974   4.854  0.1561  0.1406 -0.2177
 5380W        W 5580   6.881   3.033   9.755 -0.2128 -0.0517  0.1193
 5381W        W 5581   3.521  11.856  11.904 -0.0804 -0.1506 -0.1025
 5382W        W 5582  12.154   4.338  12.740  0.1248  0.0417 -0.0115
 5383W        W 5583  16.417  10.054   9.531  0.1925 -0.0209  0.0778
 5384W        W 5584   6.198  15.725   3.703 -0.3227  0.0402 -0.2743
 5385W        W 5585   0.023  12.193   5.582 -0.0548 -0.1468  0.1264
 5386W        W 5586   5.164   7.679   8.692 -0.0370  0.2080 -0.3322
 5387W        W 5587  17.567   4.997  11.717 -0.0442 -0.4334 -0.2588
 5388W        W 5588   7.985  13.301  11.567  0.1816  0.2310  0.0041
 5389W        W 5589   1.384   8.052   4.186 -0.2088 -0.0912 -0.0357
 5390W        W 5590   9.220   1.915   6.298 -0.2562 -0.0094  0.1144
 5391W        W 5591  16.997  12.295  15.120 -0.0969 -0.1754 -0.1614
 5392W        W 5592  15.917   9.763  12.261 -0.1435  0.0662  0.1448
 5393W        W 5593   1.248   0.028  13.307 -0.0587  0.1076 -0.0111
 5394W        W 5594  15.944   5.567  12.044  0.3095 -0.0286  0.0673
 5395W        W 5595  17.780   9.398  16.139 -0.0700  0.1118  0.1071
 5396W        W 5596   0.725  13.066  15.256 -0.1190 -0.1269 -0.1387
 5397W        W 5597   1.517   9.656   5.608 -0.1239 -0.0721 -0.0195
 5398W        W 5598  12.266  16.592  12.264 -0.3837  0.2926  0.1645
 5399W        W 5599   7.789   4.321  11.299 -0.0522 -0.2505 -0.0945
 5400W        W 5600   0.798   7.654  15.515  0.1376  0.2525  0.1201
 5401W        W 5601   8.136   5.926  12.875 -0.0369  0.1410  0.0554
 5402W        W 5602   3.933   2.749  17.367 -0.2597 -0.1652 -0.0169
 5403W        W 5603   7.602   8.116  16.889  0.0256 -0.0430  0.0227
 5404W        W 5604   6.017  14.714   4.443  0.2094  0.1135  0.1468
 5405W        W 5605  16.724  10.346   3.328  0.1071  0.1489 -0.2714
 5406W        W 5606   3.647  16.816  14.013 -0.2041  0.0188  0.0220
 5407W        W 5607   2.822  11.455   0.639  0.0142  0.0091  0.2596
 5408W        W 5608   1.821  11.983   2.851  0.1606 -0.3775  0.2809
 5409W        W 5609   3.443   8.839  14.845 -0.0604  0.0595  0.0155
 5410W        W 5610   6.072  11.733  18.113 -0.1056  0.2577 -0.0178
 5411W        W 5611  16.865   0.752  14.505 -0.1427  0.3214 -0.1572
 5412W        W 5612   5.451  15.508   0.166  0.0366 -0.1405  0.0186
 5413W        W 5613   3.903   3.730   9.235  0.1947 -0.3781  0.0413
 5414W        W 5614  12.502  15.436   5.613  0.1685 -0.1153  0.2665
 5415W        W 5615   1.180  13.144  14.904 -0.0947  0.0378 -0.1076
 5416W        W 5616  12.333   8.840  16.038 -0.0181  0.2969  0.0904
 5417W        W 5617   2.064  16.326   4.049  0.1357 -0.1381  0.0778
 5418W        W 5618  11.967   7.112  15.799  0.0622 -0.1257 -0.2798
 5419W        W 5619   0.951   9.907  14.509  0.0106 -0.3575 -0.2160
 5420W        W 5620  17.643   9.690   7.562  0.1431  0.0030 -0.0471
 5421W        W 5621   2.833  17.641  10.738  0.1149 -0.2665  0.1021
 5422W        W 5622   1.342  18.145  15.181  0.0745 -0.1033 -0.3835
 5423W        W 5623   0.494  10.179   3.897 -0.1353  0.1032  0.2835
 5424W        W 5624  15.981  10.435   9.279  0.0110  0.1289 -0.1468
 5425W        W 5625   5.120   6.020  17.118 -0.2070 -0.0053  0.2499
 5426W        W 5626   9.831   2.588   8.692 -0.1229 -0.4299  0.0949
 5427W        W 5627  11.539  13.768   9.419 -0.5927  0.1788 -0.1869
 5428W        W 5628  15.182  10.537   8.022  0.1583  0.1303  0.0186
 5429W        W 5629  15.100  12.576  10.899  0.0665 -0.0393  0.1809
 5430W        W 5630  17.590   6.414  14.784 -0.2496 -0.0845 -0.4024
 5431W        W 5631   1.323  13.789  17.838  0.0824 -0.1546 -0.0347
 5432W        W 5632  15.207  15.391   9.547 -0.0513  0.0577 -0.0323
 5433W        W 5633  14.805   2.361   5.050  0.1245 -0.1649 -0.1090
 5434W        W 5634  10.958   7.963  15.982  0.2233 -0.1355  0.1641
 5435W        W 5635   4.903   0.827   1.658  0.0111 -0.1688 -0.1478
 5436W        W 5636  12.553  15.531   8.687 -0.0579  0.0199  0.1355
 5437W        W 5637   0.177   6.145  11.876 -0.5466  0.0529  0.3213
 5438W        W 5638   4.499  11.980  11.102 -0.0636  0.0276 -0.1363
 5439W        W 5639   4.283   9.560   7.867  0.2314 -0.0196  0.1382
 5440W        W 5640   0.367   8.357  12.112 -0.1587  0.2596  0.1118
 5441W        W 5641  16.755   8.437  12.979 -0.0569  0.1624 -0.1424
 5442W        W 5642   0.361  12.982  11.584 -0.2209  0.0318 -0.4131
 5443W        W 5643  15.541  10.770  10.625  0.1352  0.3635  0.1575
 5444W        W 5644   2.323   0.626  17.522  0.0370 -0.0142 -0.0800
 5445W        W 5645   5.310   8.652  11.199 -0.2746 -0.1146  0.3805
 5446W        W 5646  17.539   4.605   9.555  0.0925  0.2972 -0.0629
 5447W        W 5647   3.712   7.503  14.633 -0.1263 -0.2901  0.0876
 5448W        W 5648   0.907   4.960   2.404  0.1547  0.2216 -0.2980
 5449W        W 5649   5.558   7.748  12.233 -0.1315 -0.0248  0.1715
 5450W        W 5650   0.343   6.064   9.456  0.1318 -0.0588 -0.0927
 5451W        W 5651  14.090  11.942   0.670  0.1722 -0.3335  0.2665
 5452W        W 5652  12.930   8.402  14.559 -0.1257  0.1652  0.0490
 5453W        W 5653  16.679   9.175  10.078  0.1299  0.2806 -0.0057
 5454W        W 5654  15.349   4.731   3.199  0.1456 -0.0724  0.0945
 5455W        W 5655   3.938  10.155  17.107  0.0547 -0.0101  0.2219
 5456W        W 5656  17.677   7.005  14.218  0.2523  0.1218  0.2490
 5457W        W 5657   6.192  16.264  10.106  0.1954 -0.2512  0.2589
 5458W        W 5658   7.591  13.561  11.492 -0.0210 -0.0074 -0.2269
 5459W        W 5659  17.842  11.338   1.537  0.1116  0.0131  0.1189
 5460W        W 5660   9.743  11.485   1.784 -0.0369  0.0043 -0.1883
 5461W        W 5661  13.064  12.492  11.868 -0.0095  0.3072  0.0896
 5462W        W 5662   8.156   6.905  15.551 -0.1049 -0.2224 -0.0645
 5463W        W 5663   0.346  10.139   1.225 -0.1248 -0.2581  0.0988
 5464W        W 5664  17.872  13.010   9.290 -0.2211  0.0866 -0.1626
 5465W        W 5665   6.186   5.598   0.756 -0.1504  0.2357 -0.1888
 5466W        W 5666  16.889   1.563   4.681  0.1135 -0.0369  0.1397
 5467W        W 5667   4.609   7.514  16.720 -0.1311 -0.2470 -0.1412
 5468W        W 5668   2.635   5.945  14.333 -0.1048  0.0942 -0.0815
 5469W        W 5669  16.776   6.968   1.889 -0.0238 -0.0364 -0.0779
 5470W        W 5670   6.778   2.745  11.212 -0.1309  0.0757 -0.0371
 5471W        W 5671   6.704   8.482  14.613  0.2241  0.3483  0.1648
 5472W        W 5672   6.922   6.505  15.098 -0.3634  0.4426  0.1028
 5473W        W 5673  12.595   9.391   5.450  0.0777 -0.0908  0.0615
 5474W        W 5674  10.668  16.750   9.945  0.0242 -0.0578  0.0147
 5475W        W 5675   0.242  17.608   9.925 -0.0222 -0.3474 -0.1401
 5476W        W 5676   4.033   0.129  16.806 -0.5208 -0.1422  0.1296
 5477W        W 5677   4.466  15.497  13.991  0.1410  0.2310 -0.2088
 5478W        W 5678  16.397   9.545  10.895  0.1112 -0.1769 -0.1482
 5479W        W 5679   2.057   9.032  13.706  0.3253  0.1649 -0.1211
 5480W        W 5680  11.812  16.347  16.033 -0.1897  0.0485  0.1943
 5481W        W 5681   5.074   7.331   6.977 -0.1797 -0.3176  0.1714
 5482W        W 5682   9.443  13.916  14.073  0.0285 -0.3161  0.1680
 5483W        W 5683   8.423   6.403  14.557 -0.1749 -0.1544  0.2638
 5484W        W 5684  13.330   2.391   1.072 -0.4379  0.0392 -0.1960
 5485W        W 5685   4.244   8.205   9.615 -0.3248  0.1945 -0.0748
 5486W        W 5686  10.866  17.795   8.913 -0.2407  0.2298 -0.2218
 5487W        W 5687   2.320  13.128  10.838 -0.1477 -0.2095 -0.2738
 5488W        W 5688   7.885   1.345   6.280 -0.0867 -0.1713 -0.0822
 5489W        W 5689   5.053   8.676   0.900 -0.2407  0.0786 -0.0438
 5490W        W 5690   1.722   6.146   9.058  0.0233 -0.1753 -0.0420
 5491W        W 5691   1.635   4.795  12.625  0.2264 -0.0578 -0.0638
 5492W        W 5692  14.125   9.307  10.925 -0.1673 -0.1537  0.3150
 5493W        W 5693   8.550  13.968   9.118  0.0569  0.2098 -0.2149
 5494W        W 5694   1.591   0.201  15.569 -0.0325 -0.0524 -0.1730
 5495W        W 5695  15.287   2.931  10.640 -0.2237  0.0511  0.2426
 5496W        W 5696  11.827  17.772   5.858  0.1901  0.1276 -0.4200
 5497W        W 5697   7.706   7.858  12.165  0.0516  0.1626 -0.0510
 5498W        W 5698   4.696   8.272   3.610  0.1747  0.1140  0.1562
 5499W        W 5699  15.564  14.899  15.124  0.2088  0.3926 -0.2570
 5500W        W 5700   3.376  11.041   9.545  0.1085  0.0770 -0.1582
 5501W        W 5701   3.620   4.682  15.517  0.3339 -0.1910  0.0857
 5502W        W 5702   7.982   7.334  13.099 -0.0491  0.0743 -0.3135
 5503W        W 5703   4.786  16.358   7.548 -0.1612 -0.1711 -0.0912
 5504W        W 5704  16.034   3.634  16.731  0.0138  0.0906  0.2083
 5505W        W 5705  13.350  16.000  15.116 -0.0672 -0.0695 -0.1408
 5506W        W 5706   7.664   7.439   0.054 -0.0611 -0.2228  0.1888
 5507W        W 5707   4.795   9.971   7.348  0.0606 -0.0378 -0.0774
 5508W        W 5708  13.767   9.814  15.824 -0.0174  0.2354  0.1085
 5509W        W 5709   2.269   9.680  13.043  0.0191 -0.5243  0.2385
 5510W        W 5710  14.551   1.852   9.355  0.0607 -0.0740 -0.2046
 5511W        W 5711  11.462   7.332  15.526  0.2191 -0.0674 -0.2746
 5512W        W 5712   3.748   3.767  12.196 -0.0377 -0.1225  0.1035
 5513W        W 5713   5.881   9.357  13.980 -0.0210 -0.3157 -0.0022
 5514W        W 5714  15.822  10.099   7.306  0.4618 -0.1400 -0.1737
 5515W        W 5715   5.550  13.223  14.569  0.1227  0.0183 -0.0652
 5516W        W 5716   1.577  10.202  13.239  0.2392  0.3945 -0.1979
 5517W        W 5717   2.825  16.206  11.937 -0.1686  0.0070 -0.2535
 5518W        W 5718  16.744  17.357  17.089  0.1486  0.1664 -0.1325
 5519W        W 5719  12.198  16.273   0.555  0.0118  0.0995 -0.0644
 5520W        W 5720  17.409  11.260  16.148  0.2153 -0.1205 -0.0966
 5521W        W 5721   7.081   1.209  12.753 -0.1242  0.3124  0.1466
 5522W        W 5722   2.949   0.563   0.144  0.2133 -0.0209  0.1007
 5523W        W 5723   8.973   6.764   8.600 -0.0451  0.0497  0.1330
 5524W        W 5724   1.480  14.939  12.861 -0.2094  0.1186  0.0833
 5525W        W 5725  17.595  10.619  17.648 -0.1300  0.1214 -0.2033
 5526W        W 5726   7.352   4.849   8.758 -0.1953  0.2065 -0.1870
 5527W        W 5727   6.612  16.724   8.118  0.3741  0.4220 -0.1068
 5528W        W 5728   0.750   1.355  14.882  0.3179 -0.2847  0.0440
 5529W        W 5729  17.380   6.249   4.032  0.2444  0.3158  0.0160
 5530W        W 5730  10.118  13.246   6.888 -0.2107 -0.0455 -0.1463
 5531W        W 5731   3.092   8.670   4.150 -0.0811  0.0002 -0.0426
 5532W        W 5732   2.265  11.569  16.614 -0.0876 -0.0475 -0.0680
 5533W        W 5733   7.334  10.041  16.148 -0.0522 -0.1031  0.1883
 5534W        W 5734   5.276  15.377   8.744  0.3042 -0.1728  0.1838
 5535W        W 5735   1.613   8.970  16.555  0.1533 -0.2295  0.2489
 5536W        W 5736   6.034   7.417  15.528  0.0536 -0.0861  0.0703
 5537W        W 5737  12.530   2.755  14.898 -0.1159 -0.1490  0.3061
 5538W        W 5738  16.881  11.619  16.185  0.2413  0.1070 -0.1424
 5539W        W 5739   6.086   9.171  12.628 -0.2906 -0.2594 -0.0816
 5540W        W 5740  15.485  11.244   9.231  0.2200  0.1532 -0.2275
 5541W        W 5741   0.274   8.071  14.419 -0.1727  0.0162 -0.1255
 5542W        W 5742  18.006  13.351   0.438 -0.0331  0.0438  0.0209
 5543W        W 5743  11.692  11.949  10.337  0.0598  0.0664  0.4310
 5544W        W 5744   5.527   3.531  17.557  0.0553 -0.1002 -0.0939
 5545W        W 5745   4.969   1.551   3.308 -0.0153  0.1539 -0.0525
 5546W        W 5746   4.234   0.921  16.351  0.1441  0.2681 -0.2875
 5547W        W 5747  17.819   3.773  13.842  0.3682 -0.3208  0.1277
 5548W        W 5748  15.247   2.245  16.073 -0.0567 -0.2393 -0.1296
 5549W        W 5749  17.016  11.568  13.001  0.0549 -0.1059 -0.3560
 5550W        W 5750   0.240   9.143  16.580  0.0215  0.0167  0.3262
 5551W        W 5751   2.010   1.349  11.080  0.1084 -0.1787 -0.0659
 5552W        W 5752  16.947  11.797   8.326  0.1688  0.4629  0.2811
 5553W        W 5753  17.038   6.482  12.274 -0.0978  0.2814  0.3673
 5554W        W 5754   3.460  10.573  15.227  0.0110 -0.0993 -0.2525
 5555W        W 5755   6.457  13.924  10.991  0.3728  0.1560 -0.1568
 5556W        W 5756   6.801  10.347  16.440 -0.0120 -0.0229  0.2753
 5557W        W 5757   9.516   6.849  11.983 -0.1591  0.0982  0.3042
 5558W        W 5758   6.874   8.029  12.187  0.1667  0.0153 -0.2615
 5559W        W 5759   0.016  13.140  13.406  0.4486  0.2182  0.0788
 5560W        W 5760   0.586   9.284   7.910 -0.0232  0.0389 -0.0655
 5561W        W 5761  12.825  10.869  11.953 -0.2867  0.1000 -0.1125
 5562W        W 5762   2.476  15.797  17.751  0.0918 -0.1847 -0.1765
 5563W        W 5763  17.039   5.555   1.716  0.2674 -0.1004 -0.2426
 5564W        W 5764  17.900  16.489   7.329  0.2265 -0.0498 -0.0456
 5565W        W 5765  14.467   7.273  16.475 -0.2813  0.3174 -0.1352
 5566W        W 5766  11.315  11.322   5.120 -0.1720  0.0291 -0.0319
 5567W        W 5767   5.829   1.710   9.592 -0.0459  0.3643  0.0171
 5568W        W 5768  12.940  12.453   1.325  0.3353  0.0202 -0.1563
 5569W        W 5769   0.631  17.079  15.408  0.2157  0.0673  0.1865
 5570W        W 5770   0.755  17.590  15.604 -0.4883  0.0692 -0.1990
 5571W        W 5771   6.841  16.419  15.864  0.3291 -0.0205  0.1670
 5572W        W 5772   5.280   7.051  11.539  0.0142  0.1600 -0.0129
 5573W        W 5773  17.287   9.624  15.899 -0.1555  0.0705 -0.0549
 5574W        W 5774   1.993  16.689  11.394 -0.1350 -0.3930  0.4158
 5575W        W 5775   7.643   8.830  13.667 -0.1078  0.1050 -0.0087
 5576W        W 5776   4.196  14.843  11.742 -0.1046  0.1643  0.2971
 5577W        W 5777   1.436  14.442   0.734  0.0642 -0.4094 -0.3122
 5578W        W 5778   1.736  14.418   4.557  0.1345  0.0346  0.0692
 5579W        W 5779  14.457  13.098  12.025  0.2420  0.2937  0.1556
 5580W        W 5780   3.741   5.050   1.433  0.0216 -0.1462  0.1490
 5581W        W 5781  16.672   8.349  13.455 -0.0404  0.1011  0.3785
 5582W        W 5782  16.390   7.327  15.094  0.1381  0.0752  0.3360
 5583W        W 5783  18.155  11.141   0.086 -0.2578  0.0454 -0.1131
 5584W        W 5784  17.732   7.112   9.139 -0.2056 -0.0821  0.1849
 5585W        W 5785  16.688   7.581  14.210 -0.2024  0.0632  0.0279
 5586W        W 5786   4.782  17.154   8.686  0.3004  0.2297  0.0604
 5587W        W 5787   1.166   5.960   9.092 -0.0869  0.2142 -0.3798
 5588W        W 5788   4.270  10.822  12.070 -0.0548 -0.0855 -0.0359
 5589W        W 5789   1.537  14.824  14.802 -0.2584 -0.1306  0.0085
 5590W        W 5790   1.123   9.129  10.963 -0.1606 -0.3419 -0.2681
 5591W        W 5791   6.011   5.706  17.188  0.0613  0.0577  0.1499
 5592W        W 5792  15.079  10.400   2.940 -0.0487  0.1855 -0.1782
 5593W        W 5793  16.355  12.208  12.032 -0.2194 -0.1845  0.1234
 5594W        W 5794   3.406  12.679   8.281 -0.0562  0.3101 -0.1478
 5595W        W 5795  16.051  18.143  11.979  0.0195 -0.0538  0.4052
 5596W        W 5796  14.906  11.993  16.594  0.0403  0.2036  0.2117
 5597W        W 5797   5.744  13.382  11.894  0.1581 -0.2200 -0.0148
 5598W        W 5798   9.108  14.786   8.307 -0.0000  0.0269 -0.0049
 5599W        W 5799   5.327  11.861   5.526  0.1701 -0.2117  0.0725
 5600W        W 5800   2.300  10.839   7.478  0.2870  0.1439 -0.0375
 5601W        W 5801   3.702  17.698   7.094  0.0721  0.1119  0.1722
 5602W        W 5802  15.787   5.814  16.930  0.3741 -0.0437 -0.0886
 5603W        W 5803   2.846   5.750  13.324  0.1439  0.1305 -0.1793
 5604W        W 5804  17.667  11.721   0.041  0.1984  0.1952  0.0064
 5605W        W 5805  13.328   7.964  14.333 -0.3160  0.2746 -0.2975
 5606W        W 5806   2.830   2.605  10.058  0.0275  0.2263  0.2344
 5607W        W 5807   0.509  14.859   9.932 -0.0245 -0.0463 -0.1542
 5608W        W 5808   1.020  15.232   9.169  0.1281 -0.0726  0.0007
 5609W        W 5809  17.495  10.418  11.992 -0.4022 -0.0767  0.0196
 5610W        W 5810   3.599   2.139   0.028 -0.1221 -0.0076  0.0835
 5611W        W 5811   0.745   9.445  11.051  0.2563  0.0962 -0.1758
 5612W        W 5812   5.926   6.653   1.206 -0.0855  0.3125 -0.5430
 5613W        W 5813   7.300   1.689  16.016 -0.1348  0.0055  0.1782
 5614W        W 5814  14.497  11.010  12.150 -0.2323  0.1258  0.0739
 5615W        W 5815   0.866  12.749   9.222 -0.0917  0.0531 -0.3227
 5616W        W 5816   1.287   9.750   7.454 -0.4275  0.0809  0.2025
 5617W        W 5817   9.074   5.669   0.430  0.0376 -0.1282 -0.0058
 5618W        W 5818   4.924   9.475  14.661 -0.0574 -0.0988 -0.0765
 5619W        W 5819   1.710  11.360   2.145 -0.3044  0.0317 -0.0292
 5620W        W 5820   3.203   9.317   0.142 -0.0934 -0.0036 -0.2919
 5621W        W 5821  14.576   2.244  11.174 -0.0010 -0.2090  0.1314
 5622W        W 5822  18.013   7.699   5.128 -0.2479  0.0562  0.1438
 5623W        W 5823   0.440   1.850  13.634  0.1936  0.4200  0.2448
 5624W        W 5824   5.724   9.029  10.466 -0.0671 -0.0030 -0.2400
 5625W        W 5825  16.957  17.556  17.523 -0.1374 -0.0147  0.0387
 5626W        W 5826   9.266   0.097  13.811  0.0376  0.1409  0.2090
 5627W        W 5827   6.969   0.827   9.873 -0.1558 -0.1372  0.2133
 5628W        W 5828   2.421  12.246   3.294 -0.0707  0.2739  0.0075
 5629W        W 5829   4.637  11.785  10.142 -0.0041 -0.1006  0.4009
 5630W        W 5830   4.921   2.554   7.355  0.1809  0.1001 -0.0384
 5631W        W 5831   6.540   8.845   6.609  0.0583 -0.4425  0.1143
 5632W        W 5832   0.585   5.732   9.952  0.0389 -0.1829 -0.1407
 5633W        W 5833   7.658  11.723  11.174 -0.1349 -0.0451 -0.0305
 5634W        W 5834   2.494  15.442  14.601 -0.1211 -0.0504 -0.3390
 5635W        W 5835  17.731  13.032   7.597 -0.2090 -0.0551 -0.1470
 5636W        W 5836   3.087   8.698  13.456 -0.1556  0.0543  0.2979
 5637W        W 5837   5.519   6.528   7.692 -0.0581 -0.0320 -0.2491
 5638W        W 5838   0.949   5.549   4.015 -0.2513 -0.0650  0.0590
 5639W        W 5839  14.280  10.642  12.833  0.0372 -0.2108 -0.2081
 5640W        W 5840  12.929   6.808   9.701  0.4570 -0.1989 -0.2929
 5641W        W 5841   2.266  10.621   5.501  0.1824  0.0859 -0.1708
 5642W        W 5842  13.259   4.469   0.410  0.1739 -0.1031 -0.2558
 5643W        W 5843   0.126   7.297  17.527  0.1448  0.0637  0.1494
 5644W        W 5844   3.687  13.798  16.099 -0.1003 -0.0163  0.1423
 5645W        W 5845  14.719   0.124  11.798 -0.1143  0.0046 -0.2769
 5646W        W 5846  17.629  12.021  11.527 -0.0857 -0.0777 -0.3009
 5647W        W 5847  16.394   9.935  14.364  0.1278 -0.1234 -0.2551
 5648W        W 5848   6.220   4.527   0.998 -0.1275 -0.1117  0.0787
 5649W        W 5849   8.372  14.342   0.765  0.1319 -0.0395  0.0110
 5650W        W 5850  11.254   5.599  17.919 -0.0656  0.3061  0.0634
 5651W        W 5851   3.800  14.565  15.541  0.2178  0.1492 -0.1368
 5652W        W 5852   3.880   7.836  12.884  0.1396 -0.1843 -0.0678
 5653W        W 5853   5.156  11.061  16.588  0.1271 -0.2091  0.1743
 5654W        W 5854   5.750  13.493  15.266 -0.1076  0.1440 -0.1406
 5655W        W 5855  13.586  10.369   8.583  0.0728  0.2161 -0.0762
 5656W        W 5856   6.252   4.507  16.061  0.1861  0.0986  0.2966
 5657W        W 5857  13.194   6.861  12.810  0.1069 -0.1636 -0.4403
 5658W        W 5858  16.794  17.995  10.838  0.2602  0.1922 -0.0004
 5659W        W 5859   0.918   1.169  17.905  0.2213 -0.0457 -0.2831
 5660W        W 5860   4.054   8.465   1.275 -0.1713  0.0072 -0.0872
 5661W        W 5861   5.963  13.467  13.219  0.3297  0.0919 -0.0389
 5662W        W 5862  11.806   1.445  17.419  0.1120  0.1128 -0.1151
 5663W        W 5863   8.081  10.707  14.198  0.0649  0.5107 -0.2091
 5664W        W 5864   0.961   5.668  13.036 -0.1954  0.0246 -0.1722
 5665W        W 5865   4.440  11.807  16.582 -0.0017  0.1449  0.1908
 5666W        W 5866   2.444   9.034  11.482  0.1098  0.1154 -0.1099
 5667W        W 5867   5.461   7.370  16.404  0.1037 -0.2260 -0.2179
 5668W        W 5868  14.089  10.379  15.512  0.1501 -0.2215  0.2560
 5669W        W 5869  14.581   7.919  17.982 -0.0972  0.1626 -0.2757
 5670W        W 5870   0.210  11.902   3.412  0.0415 -0.2401  0.0302
 5671W        W 5871   2.688  13.583   2.379 -0.0987  0.2374 -0.1125
 5672W        W 5872  16.392  11.417   0.424 -0.1398 -0.2909 -0.0319
 5673W        W 5873   2.978   8.088  16.114  0.1164 -0.3094  0.0045
 5674W        W 5874  17.361  10.102   7.660 -0.1073 -0.1741 -0.2693
 5675W        W 5875  17.273   4.241   6.671 -0.0321  0.1644 -0.1835
 5676W        W 5876   6.442   8.601   7.842 -0.2451 -0.2253  0.0799
 5677W        W 5877   5.549  17.450   0.123 -0.0674  0.0446 -0.0593
 5678W        W 5878  12.560   3.413   0.765 -0.1142  0.3262  0.1357
 5679W        W 5879   6.902  11.270  14.452  0.4065  0.0792 -0.3691
 5680W        W 5880   5.078   8.557  13.061 -0.0647 -0.0976 -0.0310
 5681W        W 5881   2.320  12.321  17.607 -0.1578 -0.1580  0.1123
 5682W        W 5882  16.991  13.975   2.025  0.0748 -0.2342 -0.0962
 5683W        W 5883  15.095   4.778   4.389  0.2603  0.3348 -0.0424
 5684W        W 5884   2.176   6.523   1.579  0.1260  0.1525  0.2910
 5685W        W 5885   4.671  16.222  12.969 -0.4129  0.2090  0.0303
 5686W        W 5886   4.115   4.747   1.124  0.3184  0.0043  0.0685
 5687W        W 5887  13.750  13.874  17.159 -0.0003 -0.0780  0.0896
 5688W        W 5888  11.770  11.526   8.875  0.3914  0.1469  0.1977
 5689W        W 5889   2.024   4.154   5.073 -0.0589  0.4118  0.0906
 5690W        W 5890  10.481   8.302  16.964  0.2519  0.0984 -0.0028
 5691W        W 5891   1.020  11.988  12.628 -0.3813 -0.0084 -0.2068
 5692W        W 5892  17.345   8.008  16.252 -0.0454  0.0684 -0.0862
 5693W        W 5893  14.511  12.193  17.825 -0.1844 -0.5942 -0.0171
 5694W        W 5894   8.764   8.632  16.421  0.0092  0.1429 -0.0034
 5695W        W 5895  17.094  12.629  15.668  0.0833  0.3183  0.2068
 5696W        W 5896   5.353  13.028  10.578  0.0052 -0.0010 -0.0190
 5697W        W 5897   0.524   9.401   8.478 -0.3189 -0.4423 -0.1324
 5698W        W 5898  16.503   7.570   9.879 -0.2423 -0.1766  0.2108
 5699W        W 5899   7.848  13.083   2.935  0.1042  0.2340 -0.3128
 5700W        W 5900   7.833   8.927  13.118 -0.1735  0.0969 -0.4279
 5701W        W 5901  16.466   3.311   3.228 -0.2087  0.1455 -0.2230
 5702W        W 5902   2.933   9.811   1.872 -0.2791 -0.2900 -0.0052
 5703W        W 5903   2.967  14.747  16.628  0.1787 -0.1945 -0.1870
 5704W        W 5904   8.141   5.232   1.386  0.0007 -0.1555  0.1868
 5705W        W 5905   8.425  11.838   0.086  0.0708 -0.2585 -0.1544
 5706W        W 5906  17.381   1.132  14.595 -0.0313  0.1826  0.2971
 5707W        W 5907   0.841  11.457   6.111 -0.1045  0.0197 -0.0099
 5708W        W 5908   3.653   3.656  17.014  0.0211 -0.2602  0.2055
 5709W        W 5909  15.911   4.222  11.234 -0.0236 -0.0868 -0.1918
 5710W        W 5910  17.959   8.044  14.085 -0.2820 -0.0417 -0.0033
 5711W        W 5911   3.181  10.415  14.825  0.0147 -0.0885  0.2193
 5712W        W 5912   3.545   0.551  10.802 -0.0397  0.1478 -0.0194
 5713W        W 5913   2.721   4.434   2.257 -0.2392 -0.1214 -0.0363
 5714W        W 5914   3.562   6.813   6.209  0.3808 -0.0825  0.3550
 5715W        W 5915   2.187   1.810   2.880  0.1474  0.0276 -0.0857
 5716W        W 5916   2.563  12.010  14.179  0.1315  0.0419  0.1150
 5717W        W 5917   1.223   2.842  15.761  0.1708 -0.1364  0.1494
 5718W        W 5918   4.832  10.612  15.878  0.1829  0.0541 -0.2375
 5719W        W 5919   2.228   4.342   1.337 -0.5470 -0.0939 -0.2393
 5720W        W 5920   6.918   8.290   0.718  0.0720 -0.0588  0.5001
 5721W        W 5921   7.109   3.056   0.972  0.3636 -0.0346 -0.1548
 5722W        W 5922   2.665  12.635  16.258  0.1801  0.0294  0.0590
 5723W        W 5923   2.908  10.961   3.454 -0.1032 -0.1550 -0.0438
 5724W        W 5924  15.814   7.615   0.030  0.1791 -0.1639  0.1448
 5725W        W 5925  17.992  12.393   0.044 -0.0338  0.1818  0.0646
 5726W        W 5926   5.467  17.142  12.474 -0.1266  0.2185 -0.1547
 5727W        W 5927  16.683  15.317  14.067 -0.1484  0.0272  0.1855
 5728W        W 5928   5.157   8.152   2.777  0.2049  0.2075 -0.0667
 5729W        W 5929   1.467   5.507  15.270  0.0211  0.0818  0.1274
 5730W        W 5930  16.732   6.807  14.429  0.0765  0.0488  0.0203
 5731W        W 5931   4.908   4.936  15.449 -0.2770  0.1150  0.1906
 5732W        W 5932   8.010  11.493  13.773  0.1827 -0.1779  0.0177
 5733W        W 5933   1.986  12.808   9.049 -0.0367  0.1057 -0.1251
 5734W        W 5934  16.590  10.999   9.946 -0.0456 -0.0188 -0.1947
 5735W        W 5935   7.136   7.044   3.519  0.0897  0.1534 -0.0416
 5736W        W 5936   6.543   1.421  16.704 -0.1824  0.1578  0.0159
 5737W        W 5937   2.933  12.232   1.550  0.0601  0.2380 -0.0804
 5738W        W 5938  12.520  13.317   7.414 -0.1553 -0.2638  0.0287
 5739W        W 5939   2.270  11.241   6.797  0.3879  0.0898  0.1316
 5740W        W 5940   6.671   7.331   8.932 -0.3331 -0.1905 -0.0263
 5741W        W 5941   7.067  17.553  17.902 -0.2044 -0.0065  0.0055
 5742W        W 5942   1.363   6.395  18.132 -0.0653 -0.1899 -0.2448
 5743W        W 5943  13.457   2.416   3.682 -0.1140  0.0223  0.2993
 5744W        W 5944  18.187  12.837  14.132  0.1706 -0.0919  0.1425
 5745W        W 5945   3.647   7.535   1.205 -0.3055 -0.3107  0.0186
 5746W        W 5946  16.084   9.584  16.677  0.3186  0.1063 -0.3312
 5747W        W 5947   1.481  10.499  16.542 -0.1036  0.4467  0.1306
 5748W        W 5948   9.714  10.324   1.232 -0.0585 -0.1816  0.0870
 5749W        W 5949   5.180   4.822  12.181 -0.1013  0.0708  0.0514
 5750W        W 5950   0.465   9.629   1.119 -0.0533  0.0388 -0.0468
 5751W        W 5951   2.260   8.105  10.979  0.0365 -0.0388  0.0054
 5752W        W 5952  15.242  15.318  12.074  0.0586 -0.3685 -0.1013
 5753W        W 5953   1.812   9.731  17.707  0.0471 -0.0865  0.0402
 5754W        W 5954  17.587   0.271  14.105  0.0797  0.1026  0.0701
 5755W        W 5955  13.132  15.946  13.294 -0.0770 -0.4647  0.1138
 5756W        W 5956   2.663   7.182  13.831  0.0083  0.1572  0.0722
 5757W        W 5957  17.768   7.492   0.815 -0.2450 -0.2670 -0.2680
 5758W        W 5958   8.389  15.369  16.814 -0.2010  0.3863 -0.0893
 5759W        W 5959   1.888  13.131  13.512  0.0525 -0.1267 -0.1098
 5760W        W 5960  17.462   8.357   0.981  0.1965 -0.1716  0.0567
 5761W        W 5961  16.522   7.986  13.763  0.0031 -0.1893 -0.0228
 5762W        W 5962   1.042   5.243  16.535 -0.0083  0.1592 -0.3699
 5763W        W 5963   7.643   5.368   0.569  0.0478 -0.2448  0.2122
 5764W        W 5964   5.325   5.935   3.618  0.0145 -0.0033 -0.2819
 5765W        W 5965  17.587   6.720  15.201 -0.1704 -0.1051  0.0931
 5766W        W 5966  13.150   7.468   0.267 -0.0631  0.2260  0.2610
 5767W        W 5967   9.161  10.224   0.547 -0.2186 -0.3854  0.1561
 5768W        W 5968   4.987   1.945  17.821  0.0110  0.0498 -0.2915
 5769W        W 5969  11.510  11.906   1.041 -0.1904 -0.1341  0.0858
 5770W        W 5970   0.027   9.567   5.557  0.0154  0.0560 -0.0589
 5771W        W 5971   6.011   1.284   5.386 -0.2888  0.2816 -0.1736
 5772W        W 5972  14.246   6.403   5.843  0.2461  0.0482 -0.4851
 5773W        W 5973   0.236   9.448   7.499 -0.4483  0.0915 -0.3128
 5774W        W 5974  10.174   2.348  12.124  0.3725  0.0211 -0.2045
 5775W        W 5975  12.856   6.110  14.656  0.3661 -0.3362  0.2796
 5776W        W 5976  13.843   6.284  17.739 -0.2268 -0.4709  0.0541
 5777W        W 5977   5.437   1.939   2.914 -0.0041  0.2362  0.1149
 5778W        W 5978   3.606   8.766  17.474  0.0779  0.1529  0.1121
 5779W        W 5979   4.234  15.017   1.090  0.0428 -0.0902  0.2759
 5780W        W 5980   4.039  12.447  17.588  0.1135 -0.0071 -0.2637
 5781W        W 5981   6.385   5.913   7.502  0.1928 -0.1732 -0.1980
 5782W        W 5982   7.057  13.396  14.673  0.0396 -0.1068 -0.0675
 5783W        W 5983   7.701   8.823  14.971  0.1223  0.0161  0.0714
 5784W        W 5984   5.601  15.819   6.512  0.1281 -0.1886 -0.0765
 5785W        W 5985   1.053   8.472   5.231  0.0850  0.1144 -0.0259
 5786W        W 5986   0.432   4.073   7.763  0.1302 -0.0727 -0.0648
 5787W        W 5987   7.208   9.000   1.334 -0.1369  0.1124 -0.0618
 5788W        W 5988  16.786   5.906   7.074  0.1947 -0.0697 -0.1992
 5789W        W 5989   6.665  10.655  17.428  0.2552 -0.1157  0.0747
 5790W        W 5990  16.589  12.526   8.737 -0.1992 -0.2729 -0.0473
 5791W        W 5991  16.216  11.195   0.062 -0.2210 -0.0755  0.1573
 5792W        W 5992  14.901  14.909   2.613  0.0700  0.1137  0.2660
 5793W        W 5993   2.106   8.997   6.705  0.2807  0.2039 -0.4597
 5794W        W 5994   1.404  11.341   7.329  0.0737  0.0247  0.1079
 5795W        W 5995  14.096  10.565  17.166  0.0509 -0.2796  0.0977
 5796W        W 5996   7.243   4.157   2.448 -0.3797  0.1009 -0.2187
 5797W        W 5997   4.644  16.530  17.082 -0.0018 -0.1231 -0.0448
 5798W        W 5998  13.997  11.073   0.257 -0.0573 -0.1076 -0.0304
 5799W        W 5999   0.839   6.045  13.350 -0.1769 -0.0125 -0.3765
 5800W        W 6000   6.460   7.270   6.226  0.3233 -0.0633 -0.2881
 5801W        W 6001  15.978  16.407  16.230 -0.3672 -0.3598 -0.1936
 5802W        W 6002   3.752  13.082   5.480 -0.2434 -0.0429 -0.2335
 5803W        W 6003  13.533   3.935   6.519 -0.3679  0.2158 -0.0214
 5804W        W 6004  11.449  13.789  17.220  0.0309 -0.1655  0.0409
 5805W        W 6005   3.869   9.918   7.881 -0.0313 -0.0005  0.1817
 5806W        W 6006  15.109   3.371  13.132 -0.1152 -0.0217 -0.4816
 5807W        W 6007   7.443  10.289   1.884  0.0629  0.1767  0.1742
 5808W        W 6008  15.455  12.476   7.948 -0.1772  0.1456  0.0194
 5809W        W 6009  17.239  11.739  16.530  0.4629  0.0520  0.0725
 5810W        W 6010  17.442  16.574  13.447 -0.1695  0.1621  0.1944
 5811W        W 6011  12.743  11.720  15.716  0.2095  0.1659 -0.0448
 5812W        W 6012   1.382  14.122  11.110 -0.1962  0.0509  0.1303
 5813W        W 6013   2.846   9.025  15.193  0.0552 -0.2237  0.3614
 5814W        W 6014  15.779   9.379  15.136 -0.2428 -0.1022 -0.0017
 5815W        W 6015  13.275   7.700   0.796 -0.1903  0.1567  0.0247
 5816W        W 6016   7.464   6.166   3.809 -0.2235  0.1438 -0.0625
 5817W        W 6017   3.359  18.024   5.206  0.1931 -0.0531 -0.1213
 5818W        W 6018  15.669  10.256  15.106  0.0389 -0.2314 -0.2299
 5819W        W 6019  11.892  16.986   8.275  0.1899 -0.1102  0.1750
 5820W        W 6020  13.029  17.363  13.718  0.0641  0.0259 -0.2789
 5821W        W 6021   7.065  14.316  13.620  0.0160  0.0422 -0.1523
 5822W        W 6022   2.031   2.893  15.370 -0.0268  0.2016  0.0348
 5823W        W 6023  18.069   3.534  14.537  0.3466 -0.2045 -0.1095
 5824W        W 6024   8.354   2.178   9.870 -0.2917 -0.1275 -0.2784
 5825W        W 6025   4.466   5.524  11.070 -0.2666  0.0743 -0.3944
 5826W        W 6026   5.860  11.602   7.673 -0.0747 -0.1709 -0.1586
 5827W        W 6027  10.520   8.757  15.950  0.1579  0.3103  0.1832
 5828W        W 6028   9.266   9.408   5.463  0.1119  0.0178 -0.1946
 5829W        W 6029  13.467   6.908   5.562 -0.0875 -0.1169  0.3259
 5830W        W 6030   0.073   9.974  15.519  0.0722  0.1545  0.0895
 5831W        W 6031   3.607   6.718  15.448 -0.1022  0.3352  0.0740
 5832W        W 6032   6.321  11.684   0.642 -0.2349 -0.3931 -0.0599
 5833W        W 6033   3.540   4.819   0.307  0.1161  0.2578  0.0864
 5834W        W 6034   1.179   9.848  17.142 -0.0464 -0.0596  0.1136
 5835W        W 6035   1.441   5.418  11.234 -0.1099  0.0600 -0.1680
 5836W        W 6036  10.027   4.241   7.291  0.0087  0.0324 -0.0811
 5837W        W 6037   2.637   6.527  16.962 -0.1116  0.2058  0.0943
 5838W        W 6038  13.021   4.799  18.170 -0.2407  0.0126 -0.1188
 5839W        W 6039  14.675  11.635   2.591 -0.1235  0.0469 -0.1222
 5840W        W 6040   4.794   8.691   6.892  0.0770 -0.2895  0.1089
 5841W        W 6041  14.196  11.115  13.678 -0.0283  0.1467 -0.0895
 5842W        W 6042   8.816   6.433   1.434  0.2307 -0.0363  0.2065
 5843W        W 6043   7.551   9.345  11.098 -0.1448 -0.1737  0.1343
 5844W        W 6044  17.359   4.297  17.782  0.2562  0.2164 -0.1263
 5845W        W 6045   2.241   9.021  14.452  0.5466  0.0556  0.0500
 5846W        W 6046  14.361  11.152  14.886 -0.1220 -0.1443 -0.1044
 5847W        W 6047  14.854  11.954  14.825  0.4177  0.0178  0.1714
 5848W        W 6048  13.919  12.796   6.087 -0.0076  0.1369  0.2637
 5849W        W 6049   6.386   3.074   7.868  0.1550 -0.1004  0.0175
 5850W        W 6050  14.924   4.470  17.373 -0.1637 -0.0025  0.1662
 5851W        W 6051  14.883   2.965   0.834  0.0069 -0.0119  0.1451
 5852W        W 6052  16.942   6.839  10.324  0.0890  0.0555 -0.0472
 5853W        W 6053   2.796  12.939  18.091 -0.3186 -0.2120  0.4538
 5854W        W 6054  15.374   5.731  18.146 -0.1317 -0.0264  0.0459
 5855W        W 6055   5.081  10.275  14.580 -0.1210 -0.3288  0.0723
 5856W        W 6056   2.256  12.928  13.839 -0.0731  0.0014 -0.1336
 5857W        W 6057   5.437  10.348  17.501  0.1918 -0.0441 -0.1619
 5858W        W 6058   6.553   1.211  16.134  0.0744  0.0711 -0.2106
 5859W        W 6059  17.513  10.121   5.377  0.0429 -0.0085  0.0549
 5860W        W 6060   7.239   3.908   9.094 -0.2706  0.0251 -0.3147
 5861W        W 6061   8.573  16.547  15.276 -0.4203  0.2021  0.4921
 5862W        W 6062   2.630  16.682  15.997 -0.0176 -0.0352  0.1158
 5863W        W 6063  10.191  11.154   3.112 -0.1207  0.1758  0.1425
 5864W        W 6064  15.246   5.044   3.695 -0.1642 -0.0879  0.2058
 5865W        W 6065   1.889   6.910   2.835 -0.1530  0.1368 -0.0972
 5866W        W 6066   0.302  11.518  15.447 -0.0015  0.1217  0.0024
 5867W        W 6067   0.364  17.166  14.926  0.1747 -0.3123 -0.2235
 5868W        W 6068  11.660   5.333  18.035  0.1092  0.2280 -0.2223
 5869W        W 6069   9.615  15.912   8.013 -0.1460 -0.2111  0.3067
 5870W        W 6070  15.819  10.769   2.487  0.0846  0.2611 -0.0272
 5871W        W 6071  16.771  12.282   2.904 -0.0080 -0.0782  0.2103
 5872W        W 6072   0.532   8.075  13.066 -0.1921 -0.0145  0.3877
 5873W        W 6073   0.970  16.790  11.654  0.1179 -0.1937  0.1751
 5874W        W 6074   1.305  11.500  18.114  0.0487 -0.2404 -0.2333
 5875W        W 6075   6.567  10.001   1.653 -0.2833 -0.0152 -0.0726
 5876W        W 6076   8.787   7.720   0.000  0.1766 -0.2028 -0.0552
 5877W        W 6077   5.717  15.539  10.755  0.1076 -0.0749  0.0670
 5878W        W 6078  16.772  15.761   1.924 -0.0005 -0.1004  0.4356
 5879W        W 6079  12.940  15.222  12.326 -0.1503 -0.0532  0.2253
 5880W        W 6080   3.452  14.667  12.791 -0.1009  0.1036  0.1574
 5881W        W 6081  18.005   9.686  14.661 -0.2316 -0.3555  0.5043
 5882W        W 6082   4.607  16.627  18.069  0.0789 -0.0870 -0.1164
 5883W        W 6083   3.433   7.434  11.673  0.0154 -0.2243 -0.1079
 5884W        W 6084   0.672  16.089  15.752  0.1992 -0.0672 -0.0323
 5885W        W 6085   0.520   2.929  11.879 -0.2971  0.0303 -0.2447
 5886W        W 6086  14.349   4.420   6.894 -0.1580 -0.0294 -0.0329
 5887W        W 6087  11.636   5.926   6.449  0.1205  0.2039 -0.1610
 5888W        W 6088   5.242   8.040   5.562 -0.0527 -0.0557  0.2398
 5889W        W 6089   2.330   7.537  12.041 -0.1511  0.0997 -0.2056
 5890W        W 6090  14.671   5.521   7.573  0.0252 -0.3021  0.1751
 5891W        W 6091  17.529  17.985  14.289  0.0199  0.0251 -0.1527
 5892W        W 6092  14.390  10.986   8.431  0.2010  0.1118  0.1799
 5893W        W 6093   2.956   9.984  13.126  0.2065 -0.0355  0.0103
 5894W        W 6094   3.148   0.485   1.288 -0.3392  0.0306 -0.4416
 5895W        W 6095  15.968   8.864  17.581 -0.1716 -0.2216 -0.2355
 5896W        W 6096   0.896  14.765  11.307  0.0989  0.1096 -0.1885
 5897W        W 6097  15.015   9.303   6.568 -0.0723  0.0156 -0.3025
 5898W        W 6098   3.488   4.074  16.792 -0.3094  0.1115  0.4334
 5899W        W 6099   9.791  14.128  13.059  0.1815 -0.2701  0.2200
 5900W        W 6100   3.238   9.354   1.994 -0.1766 -0.0367  0.4145
 5901W        W 6101   6.862   6.236  10.154  0.0803 -0.0712 -0.1309
 5902W        W 6102   2.885   9.136  12.338  0.2203  0.0771  0.3966
 5903W        W 6103   0.231   3.459   2.073  0.1302  0.0540  0.0913
 5904W        W 6104   2.261   5.112  18.181 -0.1144  0.0784 -0.0104
 5905W        W 6105  18.010  10.227   5.472  0.1606 -0.1288  0.0186
 5906W        W 6106  17.959  16.352  16.361  0.1275 -0.0904  0.0978
 5907W        W 6107  17.733   9.479  15.185  0.0044 -0.3091 -0.3126
 5908W        W 6108  11.313   6.155  13.103 -0.3509  0.0822  0.1312
 5909W        W 6109  10.871  10.023   5.299  0.1845 -0.0845  0.0161
 5910W        W 6110   6.208  11.224   9.500  0.0855  0.1140 -0.1668
 5911W        W 6111  15.098   9.463  13.606 -0.0381 -0.0021  0.0120
 5912W        W 6112   7.808   8.259   0.329 -0.0818 -0.0574 -0.3246
 5913W        W 6113   0.761  16.080   7.514  0.1458 -0.3041 -0.0890
 5914W        W 6114   6.434  14.839   0.537  0.0574 -0.1716 -0.1744
 5915W        W 6115  14.038  15.775  13.190  0.1123 -0.4312  0.1386
 5916W        W 6116   5.007  14.721  16.972 -0.2347  0.0083 -0.3616
 5917W        W 6117   7.010   9.600   3.786  0.1655  0.1648 -0.1492
 5918W        W 6118   1.756   4.637   4.838 -0.3882  0.3781 -0.0535
 5919W        W 6119  11.375   4.913  15.024  0.0595 -0.1591 -0.0760
 5920W        W 6120  15.136  11.963   2.656  0.0192  0.1276  0.0585
 5921W        W 6121  16.955   8.534  17.250  0.2339 -0.0404 -0.1617
 5922W        W 6122   0.101  10.888  12.114  0.1172  0.2459 -0.0329
 5923W        W 6123  16.490  13.853  13.244  0.2193 -0.0171  0.4378
 5924W        W 6124  16.970   5.840   2.613 -0.0191  0.0955  0.0717
 5925W        W 6125   1.664  10.743   6.741 -0.3679 -0.0719  0.2272
 5926W        W 6126   1.858  10.598   5.118  0.2387 -0.2326  0.2807
 5927W        W 6127   0.990   6.629   9.733 -0.1185 -0.1405 -0.0793
 5928W        W 6128   6.698   6.295  15.998 -0.1126 -0.2101  0.0415
 5929W        W 6129   9.379   6.880  15.682  0.1882 -0.0798 -0.3287
 5930W        W 6130   3.496  13.614  12.531  0.1418 -0.2707  0.1589
 5931W        W 6131  17.521   7.291  14.564 -0.0089  0.0227 -0.2266
 5932W        W 6132  16.151   3.805   2.560 -0.2352  0.2899 -0.0465
 5933W        W 6133  17.121  16.161  15.577 -0.0501  0.0017  0.2618
 5934W        W 6134   0.403   7.976   0.366 -0.0213  0.2539 -0.2963
 5935W        W 6135  16.408   8.745  10.352  0.0434 -0.2919 -0.1391
 5936W        W 6136  15.804   7.467  12.735  0.1982 -0.0547 -0.1086
 5937W        W 6137   6.254   8.348  13.805 -0.0681  0.1418  0.0059
 5938W        W 6138  10.196  13.708   6.665  0.5107 -0.2908 -0.0527
 5939W        W 6139   9.754   6.490   5.371  0.0438  0.1321 -0.1274
 5940W        W 6140   5.472  16.410   5.682  0.0734 -0.0142  0.2881
 5941W        W 6141   4.946   5.167   2.145  0.3620  0.1584  0.0601
 5942W        W 6142  17.576   3.071   2.569 -0.1553 -0.2110  0.1330
 5943W        W 6143   4.044   8.988   1.972  0.0165 -0.0895  0.0075
 5944W        W 6144   5.573   7.252  14.383  0.2481 -0.0333  0.0739
 5945W        W 6145  18.067  11.535   0.993  0.0481  0.0161 -0.1125
 5946W        W 6146   8.048  15.513   3.628 -0.0631  0.0596 -0.0362
 5947W        W 6147   6.846  15.256   1.501 -0.0479  0.1164  0.2226
 5948W        W 6148   0.718  12.825   1.256 -0.0128 -0.0156  0.2302
 5949W        W 6149  11.214   5.009  13.687 -0.1660  0.0392  0.0528
 5950W        W 6150  16.254  17.449  18.023 -0.1050 -0.1045  0.0553
 5951W        W 6151  12.364  13.965  15.471 -0.1070  0.2305  0.0400
 5952W        W 6152  13.769   9.685  13.823 -0.3397  0.1211  0.0427
 5953W        W 6153   2.764   5.747  17.919  0.2204  0.0603  0.2467
 5954W        W 6154   8.047  17.792   2.040 -0.0712 -0.1369  0.1056
 5955W        W 6155   1.550   7.952   0.770  0.2547 -0.0234  0.0292
 5956W        W 6156   3.720  11.505  12.161 -0.0630 -0.1989 -0.2595
 5957W        W 6157  15.193   9.778  16.356 -0.2187  0.1948 -0.1326
 5958W        W 6158  11.904  17.825   3.207 -0.2412  0.0010 -0.0435
 5959W        W 6159   0.814  12.666   2.512  0.2422  0.1290  0.1350
 5960W        W 6160   8.850   3.633  14.170 -0.1196  0.0429 -0.1030
 5961W        W 6161   6.087   3.496   9.977 -0.0894  0.0386 -0.2181
 5962W        W 6162   9.841   7.993  15.523  0.5705  0.1091  0.1157
 5963W        W 6163   1.327  11.106   1.123  0.1986 -0.3542  0.0197
 5964W        W 6164  16.939   9.443  10.416 -0.1511  0.1216  0.0175
 5965W        W 6165   6.111   8.822  14.069 -0.0674 -0.0497 -0.0435
 5966W        W 6166  10.925  10.975  15.464  0.1861 -0.1781 -0.0783
 5967W        W 6167   0.686   7.178   3.503 -0.0053  0.0689  0.2438
 5968W        W 6168   2.772  10.482  12.934 -0.1477  0.1616  0.2086
 5969W        W 6169  13.664  13.174  12.456 -0.1284 -0.0898 -0.2841
 5970W        W 6170  17.432   5.290   8.824  0.3513 -0.0262 -0.1693
 5971W        W 6171  16.792   4.255   3.067 -0.0103 -0.0840  0.1783
 5972W        W 6172   4.673   4.554  16.260  0.0605  0.3055 -0.0954
 5973W        W 6173   8.474   9.471   4.342  0.0441  0.0820 -0.0409
 5974W        W 6174   7.088   6.572   3.765 -0.1740  0.0007 -0.2824
 5975W        W 6175  16.420  12.706  10.360  0.3113  0.0395 -0.0554
 5976W        W 6176   2.443   6.962  15.729 -0.0467 -0.1025 -0.1338
 5977W        W 6177   8.672  16.927  12.242 -0.0966  0.0498 -0.1544
 5978W        W 6178   6.884   9.457   7.963 -0.2558 -0.0385 -0.0903
 5979W        W 6179   2.914  12.434  17.457  0.1970 -0.0995 -0.1353
 5980W        W 6180   3.212   0.001   2.983 -0.1070 -0.2827  0.1020
 5981W        W 6181   2.820  12.392  12.531 -0.0393  0.0149  0.0067
 5982W        W 6182  17.311   3.445  13.268  0.1305 -0.3764  0.2340
 5983W        W 6183   7.638   2.270   5.807 -0.0363  0.3038  0.0118
 5984W        W 6184   4.052  12.410   0.615  0.4831  0.2150 -0.1075
 5985W        W 6185  16.137  13.061  15.041  0.3021  0.0674 -0.2153
 5986W        W 6186   5.572   5.172  16.499 -0.2048  0.2598  0.2296
 5987W        W 6187   9.553  10.296   9.699  0.3045 -0.2150 -0.2011
 5988W        W 6188  14.064   5.450   9.453 -0.1017  0.0627 -0.2159
 5989W        W 6189   5.423   4.999   1.261 -0.1609  0.3124 -0.0330
 5990W        W 6190   0.731  17.482   9.729 -0.1797 -0.3030  0.0935
 5991W        W 6191   0.914  13.109  10.862  0.0026 -0.2429  0.1941
 5992W        W 6192  10.198  12.299   1.508 -0.1935  0.1487  0.0561
 5993W        W 6193   6.437   9.151  17.185  0.1354  0.4488  0.2771
 5994W        W 6194   0.455   8.582   5.176  0.1805 -0.3007  0.1099
 5995W        W 6195   1.695  15.196   1.465 -0.2626 -0.1301 -0.3821
 5996W        W 6196   2.779  10.988  15.958  0.3505  0.1468 -0.1429
 5997W        W 6197  10.972   6.303  15.045 -0.1427 -0.1037 -0.3403
 5998W        W 6198   4.630   7.433  18.019  0.1165  0.4004 -0.0507
 5999W        W 6199  16.912  13.479   1.370 -0.3642  0.3172 -0.1779
 6000W        W 6200  13.946   2.235  10.128 -0.2857  0.0383 -0.1819
 6001W        W 6201   1.178  14.454  16.185 -0.3829  0.0383 -0.1482
 6002W        W 6202  17.408   6.703  10.580 -0.2384 -0.1640 -0.0056
 6003W        W 6203   1.744   7.407  11.078 -0.0932 -0.2074  0.1064
 6004W        W 6204  17.147  10.646  17.426  0.0448  0.0043  0.2051
 6005W        W 6205  11.023   6.325   2.477 -0.1277  0.0775  0.0193
 6006W        W 6206   1.139   3.501  10.436 -0.1450 -0.0730 -0.1164
 6007W        W 6207   7.338  17.799   7.685 -0.1877  0.4165 -0.1358
 6008W        W 6208  14.304   3.521  13.750  0.3176 -0.3492  0.1728
 6009W        W 6209   3.872   5.942  15.798  0.1978 -0.2701 -0.0832
 6010W        W 6210  17.394  15.852  15.859  0.0718  0.0495  0.3113
 6011W        W 6211   0.027  16.363  11.524 -0.1163  0.0038 -0.0918
 6012W        W 6212  16.726   7.297   9.444 -0.1346 -0.2707  0.0280
 6013W        W 6213  16.492   9.051  15.370 -0.3924  0.0497  0.1702
 6014W        W 6214   2.899   8.250   7.669 -0.1881 -0.3010 -0.2614
 6015W        W 6215  17.061   6.432  16.523  0.0310  0.0259  0.0541
 6016W        W 6216   1.476  10.665  11.581  0.1158  0.0517 -0.0577
 6017W        W 6217  14.112  10.616   0.971  0.0104 -0.0423 -0.2375
 6018W        W 6218   7.621  12.687  12.505 -0.0621 -0.2760  0.2817
 6019W        W 6219   5.850   3.902  17.484  0.0015 -0.0312 -0.1853
 6020W        W 6220   5.318   0.997  18.190 -0.0761  0.2370  0.0616
 6021W        W 6221  16.830  12.060  16.405 -0.2545 -0.0858  0.1642
 6022W        W 6222   0.627  14.939  15.558 -0.1831  0.1504 -0.2244
 6023W        W 6223  14.795   3.712  13.554 -0.1822  0.2034 -0.0007
 6024W        W 6224  10.522   8.484   3.886 -0.0989  0.0508 -0.1509
 6025W        W 6225   7.107  17.680   6.871 -0.0587 -0.3539  0.0933
 6026W        W 6226  17.346  11.677   0.591  0.3417 -0.4533 -0.1320
 6027W        W 6227  15.340   8.549  13.903 -0.0036 -0.0679 -0.1404
 6028W        W 6228  15.872  16.123  14.193  0.4579  0.1817  0.0564
 6029W        W 6229  10.844   4.229  13.576  0.1089 -0.0258 -0.0315
 6030W        W 6230   2.149   3.909   5.773  0.1147 -0.0229  0.1604
 6031W        W 6231   4.221   3.373  13.533  0.0338  0.0775 -0.6165
 6032W        W 6232  17.517   9.739  11.414  0.4283  0.1249 -0.2353
 6033W        W 6233   5.355   4.010  16.601 -0.1654 -0.1056 -0.0522
 6034W        W 6234   6.961   8.824  15.525  0.0315 -0.0112 -0.2325
 6035W        W 6235   8.357   9.093  10.026  0.2352  0.0848  0.1145
 6036W        W 6236  17.117  12.783   3.526  0.1839 -0.0346 -0.1252
 6037W        W 6237  14.992   6.605  12.612 -0.0484  0.2167  0.1793
 6038W        W 6238  12.511   0.422   0.718  0.0529 -0.0309  0.2176
 6039W        W 6239   2.506  14.981  14.767  0.0379 -0.0651  0.0575
 6040W        W 6240   2.786   9.136  16.159  0.1113  0.7202  0.0714
 6041W        W 6241   7.260  17.199   7.640  0.3084  0.0646  0.1208
 6042W        W 6242   5.435   4.302   2.756 -0.1680 -0.4454 -0.0291
 6043W        W 6243  13.090  11.785   1.870 -0.3680  0.1704 -0.2103
 6044W        W 6244  12.982  10.038   4.138  0.2942 -0.2586 -0.3796
 6045W        W 6245   4.651  15.231   4.364 -0.0787  0.0462  0.0793
 6046W        W 6246   8.392  17.772   8.837 -0.0348 -0.0570  0.1960
 6047W        W 6247   0.846   9.790  13.122 -0.1176  0.1269  0.0678
 6048W        W 6248   2.486   6.159  16.202  0.0608 -0.2618  0.0480
 6049W        W 6249   8.325   9.653   4.884  0.2294  0.1058 -0.0331
 6050W        W 6250   3.959  13.081   1.135 -0.0621 -0.0187  0.2027
 6051W        W 6251  15.583  10.734   6.103 -0.1152 -0.0626  0.0630
 6052W        W 6252  11.118   4.056   1.648  0.1416  0.2683 -0.3298
 6053W        W 6253  14.998  15.594  14.250  0.2516 -0.0147  0.2953
 6054W        W 6254   4.162  16.040   2.050 -0.1673  0.2388 -0.1765
 6055W        W 6255   6.584  14.359  14.883 -0.2635  0.1020  0.1502
 6056W        W 6256   8.205   9.867   1.703  0.0044 -0.0151  0.3103
 6057W        W 6257   9.882   0.507  10.544 -0.3006  0.0882 -0.2406
 6058W        W 6258  16.765  10.193  14.617  0.2248  0.2225  0.0689
 6059W        W 6259   1.470   8.077  17.200 -0.1146 -0.1074  0.2502
 6060W        W 6260   5.780   9.404   3.274 -0.4858 -0.3127 -0.2571
 6061W        W 6261   2.898   7.051   4.974  0.2088  0.1976 -0.1528
 6062W        W 6262   0.676   1.244   1.658  0.0584  0.1241  0.3033
 6063W        W 6263   2.375  17.872   1.348 -0.0919 -0.0916 -0.5077
 6064W        W 6264  16.295  16.636   0.727  0.1164  0.0070 -0.2548
 6065W        W 6265  11.430  14.745   3.473 -0.1604 -0.1505  0.1165
 6066W        W 6266   0.903  13.036   0.807  0.0929 -0.2219  0.1376
 6067W        W 6267   0.821  10.627  16.669  0.2502 -0.1182  0.0609
 6068W        W 6268   0.673   2.773  13.302  0.1967 -0.2779 -0.2292
 6069W        W 6269   3.522   1.213  17.203  0.0272 -0.0867 -0.1464
 6070W        W 6270  14.891   5.128   8.224 -0.1456  0.2258  0.0328
 6071W        W 6271   0.700  16.129  16.232 -0.3138  0.0479 -0.2757
 6072W        W 6272  10.482   7.188   1.635  0.3574  0.0523 -0.1092
 6073W        W 6273  16.002   5.448   2.022  0.4207  0.4007 -0.1109
 6074W        W 6274  17.077  10.692   0.592  0.2100 -0.2398 -0.1139
 6075W        W 6275   0.386  13.406   8.686  0.0781 -0.2679 -0.0760
 6076W        W 6276  16.448   6.501   4.198 -0.0699 -0.0666 -0.3280
 6077W        W 6277  17.408  15.461   1.600 -0.1534  0.2352 -0.1245
 6078W        W 6278  17.215  13.817   1.615 -0.2620  0.2139 -0.1188
 6079W        W 6279   7.581   8.651   0.126  0.1307 -0.0638  0.0366
 6080W        W 6280  11.210   3.332  15.649  0.0748 -0.1029  0.3128
 6081W        W 6281  12.628   6.736  12.734  0.1145  0.0072  0.0342
 6082W        W 6282   3.384   7.381   5.867 -0.0387  0.1295  0.1682
 6083W        W 6283  15.352  11.804  13.547 -0.2481  0.3195 -0.0388
 6084W        W 6284   6.954   4.878  17.410  0.3141 -0.1270  0.2877
 6085W        W 6285   9.600   0.834   4.021  0.1884 -0.0111 -0.3556
 6086W        W 6286  16.137  14.563   0.911 -0.4116  0.1629 -0.0559
 6087W        W 6287   6.751  12.298   5.608 -0.1664 -0.0141  0.2514
 6088W        W 6288   8.259  10.555  11.967 -0.1838  0.1397 -0.0031
 6089W        W 6289   1.953   2.051  17.007 -0.1911 -0.4491 -0.0648
 6090W        W 6290   9.351  12.152  11.665  0.0127 -0.2704 -0.2373
 6091W        W 6291  15.887  11.876   8.718 -0.1620  0.0944 -0.1029
 6092W        W 6292   3.241   8.102   9.402  0.0544 -0.2683  0.3987
 6093W        W 6293   3.605  15.222  16.607 -0.2470  0.0741 -0.3379
 6094W        W 6294  13.669   8.557   4.786  0.0496  0.1435 -0.1908
 6095W        W 6295   2.119  15.431  10.540  0.1332 -0.1274  0.0059
 6096W        W 6296  16.188  11.416  15.630 -0.2600  0.5651  0.2333
 6097W        W 6297   7.607  15.560  17.179 -0.1538 -0.0746 -0.1329
 6098W        W 6298   4.783   7.842   6.239 -0.4499 -0.2204 -0.1419
 6099W        W 6299   4.551  14.897   1.782 -0.1404 -0.2870 -0.2347
 6100W        W 6300   3.310   2.951  18.075 -0.0106  0.1812 -0.4496
 6101W        W 6301   0.434  13.801  13.799  0.3959  0.0441 -0.0463
 6102W        W 6302  16.920  16.051   3.482  0.1872  0.3479 -0.0038
 6103W        W 6303  15.983  15.463  11.390  0.0272 -0.3020  0.1257
 6104W        W 6304   2.947  13.544   7.427 -0.1257 -0.1198  0.3622
 6105W        W 6305   1.792  11.009  11.266  0.1764  0.2006  0.0608
 6106W        W 6306   0.356   9.989  17.676  0.0014 -0.1209 -0.1731
 6107W        W 6307   7.395   7.852  17.714  0.0209 -0.1125  0.2565
 6108W        W 6308  13.257   8.710   5.373 -0.0959 -0.1449  0.0601
 6109W        W 6309   5.263  14.247   3.236 -0.2924  0.0054  0.1829
 6110W        W 6310  13.032  17.437  10.888 -0.0345  0.1283  0.1626
 6111W        W 6311   3.407   0.125  14.590 -0.1602 -0.1185 -0.0377
 6112W        W 6312   0.699   7.011  13.662 -0.1112  0.0081 -0.0175
 6113W        W 6313  12.454   1.074  18.086 -0.2494  0.1452  0.1358
 6114W        W 6314   7.334   0.280   2.449  0.2135 -0.2755  0.0386
 6115W        W 6315   5.139  17.126  16.356  0.1631 -0.0929 -0.0496
 6116W        W 6316   1.549  12.376   3.946  0.0202  0.0517  0.2030
 6117W        W 6317   4.081  14.502  14.747  0.1177  0.1741 -0.3045
 6118W        W 6318   1.052   8.484   0.134  0.0557 -0.2556  0.0878
 6119W        W 6319   9.247   5.969  15.784 -0.1076  0.2816  0.2329
 6120W        W 6320   8.579  11.819  13.693  0.1037 -0.0112  0.2328
 6121W        W 6321  14.528   9.932   5.733  0.0325  0.3473  0.1104
 6122W        W 6322   1.383   8.684   8.064 -0.0511 -0.3852  0.1234
 6123W        W 6323  14.177   5.566   6.453 -0.2819 -0.2799  0.0007
 6124W        W 6324  16.785   1.864   1.797  0.2302 -0.0278  0.1408
 6125W        W 6325  15.588   3.943   1.355 -0.2088 -0.1045 -0.0710
 6126W        W 6326  15.054   4.484  13.908 -0.1266 -0.0694  0.0908
 6127W        W 6327  10.637  13.491  15.867 -0.2331 -0.0748 -0.2026
 6128W        W 6328   1.290  10.944   6.417  0.0230  0.0508 -0.0925
 6129W        W 6329  13.320  12.242   3.000  0.0248  0.0947  0.3108
 6130W        W 6330   5.262  14.530   2.196 -0.4028  0.2884 -0.3317
 6131W        W 6331   0.315  15.456   6.058  0.2370  0.1459  0.0351
 6132W        W 6332   6.624   4.921  14.428 -0.1111 -0.0192  0.1123
 6133W        W 6333  11.344  10.688  15.630  0.1339  0.3330 -0.0134
 6134W        W 6334   1.581   8.669  12.725 -0.1162  0.2297  0.0383
 6135W        W 6335   1.415   5.830   0.797 -0.1815  0.1150 -0.0224
 6136W        W 6336   1.270   7.228  16.324  0.0972 -0.2041 -0.0799
 6137W        W 6337   5.229  12.451   6.203  0.0609  0.0509  0.0562
 6138W        W 6338   1.190   2.133   7.608 -0.2439 -0.1434 -0.0098
 6139W        W 6339   0.873  10.790  10.972  0.1843 -0.0566 -0.0230
 6140W        W 6340  15.144  14.290  15.874  0.0565 -0.2490  0.2862
 6141W        W 6341   4.878   8.334   4.790 -0.1676  0.1491  0.2119
 6142W        W 6342  16.906   6.889   6.029  0.1620  0.2565 -0.3158
 6143W        W 6343   1.919  13.680  15.479 -0.1662 -0.1786  0.0521
 6144W        W 6344   6.223   5.142  15.272 -0.0868 -0.3186 -0.1381
 6145W        W 6345   6.838   9.755   0.253 -0.0530 -0.1825  0.1302
 6146W        W 6346   1.959  14.125   9.519  0.1364  0.1551 -0.2268
 6147W        W 6347   1.156  15.479  18.029 -0.3639  0.2159  0.0403
 6148W        W 6348   5.159   3.233  16.200 -0.0991  0.0702  0.0499
 6149W        W 6349   3.928   8.533   2.837 -0.0477  0.0204  0.0673
 6150W        W 6350   8.472   6.542   2.181  0.2231  0.0587 -0.3299
 6151W        W 6351  13.103  17.944   1.245  0.3209  0.0294  0.3381
 6152W        W 6352  18.178  13.078   1.444 -0.2451 -0.4231 -0.1243
 6153W        W 6353   1.454  10.126   5.836 -0.0373 -0.2618 -0.3127
 6154W        W 6354  17.477  11.262  16.946 -0.1104  0.0829  0.0882
 6155W        W 6355   2.706   0.481  17.970 -0.0398  0.0267  0.3308
 6156W        W 6356   4.817   9.951  16.291  0.0339  0.0513  0.0636
 6157W        W 6357   7.078  12.516   6.445 -0.0203  0.0352 -0.0590
 6158W        W 6358   1.227  16.315   5.722  0.2650 -0.1230 -0.0824
 6159W        W 6359   5.613  17.249  14.319 -0.1230  0.0286  0.0165
 6160W        W 6360   4.956  15.587  18.129  0.1116  0.0204 -0.0902
 6161W        W 6361   6.011  12.383   6.800  0.0564 -0.0625  0.0083
 6162W        W 6362   7.986   6.198   1.319 -0.0222  0.0532 -0.2707
 6163W        W 6363   8.374  17.708   2.468  0.0300 -0.0651 -0.0207
 6164W        W 6364   0.924  15.842  14.937 -0.1866 -0.0804 -0.2483
 6165W        W 6365   0.913   6.730   4.090 -0.1326 -0.3487 -0.0592
 6166W        W 6366  14.177   7.913   2.708  0.2557 -0.2983  0.1208
 6167W        W 6367   2.473   7.256   1.136  0.1350  0.0613  0.2790
 6168W        W 6368  16.763   8.682   6.942  0.2699  0.2772  0.0288
 6169W        W 6369  10.798  10.701   0.350  0.0049 -0.0803  0.2326
 6170W        W 6370   3.054   9.545  12.826 -0.0859 -0.1070 -0.3174
 6171W        W 6371  15.857  12.819   6.061  0.0091 -0.0282  0.0642
 6172W        W 6372   8.071  15.240   1.569  0.0943 -0.1817 -0.2273
 6173W        W 6373  17.463  14.164   1.921  0.1299  0.0104 -0.1224
 6174W        W 6374   4.177  14.619  17.600 -0.4589 -0.2011  0.2267
 6175W        W 6375   9.404   8.671   1.802 -0.0968  0.3040  0.1039
 6176W        W 6376  14.129  17.920   5.500  0.0438  0.0987 -0.1784
 6177W        W 6377  16.593   4.151  12.182  0.0525 -0.3973  0.2165
 6178W        W 6378   1.240  13.831   1.960  0.3189  0.1016 -0.1081
 6179W        W 6379   4.509   7.471  16.097  0.1657  0.1441  0.2796
 6180W        W 6380   2.215  12.365  13.771 -0.4270 -0.1511  0.1560
 6181W        W 6381  15.696  13.902   4.191 -0.1314 -0.1141  0.0122
 6182W        W 6382  17.911  11.361  17.960 -0.0905 -0.1617  0.3342
 6183W        W 6383  16.792  14.441   6.618 -0.3493  0.0294 -0.2100
 6184W        W 6384   8.052   9.797   1.187  0.1591 -0.3043 -0.1726
 6185W        W 6385   9.360   9.002   5.161  0.0788 -0.0953 -0.0387
 6186W        W 6386   1.770  16.901  15.507  0.0848 -0.0160 -0.4374
 6187W        W 6387   9.203  11.147   6.919 -0.0731 -0.0879 -0.0058
 6188W        W 6388   8.052   2.486   8.353  0.3086 -0.0739  0.0834
 6189W        W 6389  15.741  17.042  16.107  0.4037 -0.0332  0.0911
 6190W        W 6390   6.306   9.866  15.611  0.0716  0.0486 -0.1310
 6191W        W 6391  13.849   1.865   5.692  0.0886 -0.1598  0.1618
 6192W        W 6392   1.518  15.169  15.266  0.3049  0.0030 -0.0502
 6193W        W 6393   7.363   3.146   6.801 -0.0145 -0.1375  0.1563
 6194W        W 6394   4.363   7.066  15.870 -0.0851 -0.0036  0.0069
 6195W        W 6395  17.542   4.545   6.411 -0.0533 -0.0807 -0.1345
 6196W        W 6396   2.164  10.278   7.279 -0.1312  0.1113 -0.0341
 6197W        W 6397  17.080  10.424  15.965  0.0553  0.1123 -0.0963
 6198W        W 6398  18.162  14.849   5.419  0.0307 -0.0487  0.1296
 6199W        W 6399   3.661  10.554   0.032 -0.2987 -0.0727 -0.0510
 6200W        W 6400   3.556   9.683   3.442 -0.0571 -0.0307  0.0249
 6201W        W 6401   7.705  12.649   1.322  0.0839  0.3129 -0.1708
 6202W        W 6402   3.201  12.780   4.194  0.0691  0.3606 -0.0227
 6203W        W 6403   6.003  16.958   6.743 -0.2511 -0.2114  0.0482
 6204W        W 6404  17.866  13.179   7.165  0.4491  0.1284 -0.3200
 6205W        W 6405   0.394   4.596  10.487 -0.4699 -0.1888 -0.1071
 6206W        W 6406  13.886   1.807   2.545  0.2154 -0.1536  0.0937
 6207W        W 6407   3.711  17.500  15.699  0.0585  0.2587 -0.1066
 6208W        W 6408  17.651   9.521  16.782 -0.0040 -0.0221  0.1136
 6209W        W 6409   5.857  14.759   4.995 -0.1154 -0.1423 -0.1706
 6210W        W 6410  12.806  11.951  14.723  0.5854  0.0758  0.1689
 6211W        W 6411  16.553  10.163  16.030 -0.0537  0.1742  0.2325
 6212W        W 6412  18.031   9.199  14.019 -0.1675 -0.2617 -0.1004
 6213W        W 6413   2.146  15.863  14.573 -0.0551  0.1608 -0.2282
 6214W        W 6414   6.046  11.573  14.192 -0.2700  0.1583 -0.0068
 6215W        W 6415   2.808  12.649   1.324  0.0641 -0.2665  0.1342
 6216W        W 6416   4.393   6.024   1.796 -0.0707 -0.1072 -0.0275
 6217W        W 6417  17.470  17.467   1.932  0.2099 -0.1928 -0.1237
 6218W        W 6418   5.708  16.292   4.744 -0.0854 -0.2056  0.0083
 6219W        W 6419  17.283   1.434  11.064  0.0618 -0.3676 -0.2745
 6220W        W 6420  16.458  11.372   2.963  0.0373  0.0423  0.0724
 6221W        W 6421   1.036  17.520  17.036 -0.1637  0.0590 -0.1676
 6222W        W 6422  17.161  15.602  15.413  0.3258 -0.2529 -0.0342
 6223W        W 6423   2.379   5.378  17.301  0.1871 -0.3168 -0.1991
 6224W        W 6424   2.837   7.372   8.399  0.2611 -0.3272  0.1122
 6225W        W 6425   1.190  15.766  16.642 -0.1681  0.0402  0.0961
 6226W        W 6426  15.289  17.544  16.593  0.0100  0.1588 -0.1458
 6227W        W 6427   1.300   7.286   8.194 -0.1368  0.0586 -0.1044
 6228W        W 6428  14.444   7.442  18.067  0.0315  0.3840 -0.0712
 6229W        W 6429  17.554  14.401   4.156 -0.1919 -0.0922 -0.0968
 6230W        W 6430  17.595   5.411   1.496 -0.1706  0.1188 -0.2637
 6231W        W 6431   1.292   1.489  16.617  0.0770 -0.0503  0.1253
 6232W        W 6432  13.894  14.225   2.248  0.1117 -0.3328  0.3342
 6233W        W 6433   2.639   8.146  16.480 -0.2963 -0.2110 -0.3973
 6234W        W 6434   7.593   6.275  13.917 -0.2716  0.1053 -0.0260
 6235W        W 6435   1.725  17.382   1.400 -0.1690 -0.1961 -0.2227
 6236W        W 6436   6.319  17.351   1.439  0.3060 -0.0596 -0.0942
 6237W        W 6437  17.531  12.253  17.306  0.2937  0.0727 -0.2288
 6238W        W 6438   1.894   8.613   3.293 -0.2334  0.0151  0.0029
 6239W        W 6439   4.704  10.463   2.092  0.0116  0.0279 -0.0401
 6240W        W 6440   6.710  11.102   6.504 -0.2779 -0.2066 -0.0911
 6241W        W 6441   1.812  13.646  17.314  0.1130  0.3081  0.2532
 6242W        W 6442   5.479  16.613   3.269 -0.4070 -0.1853  0.1416
 6243W        W 6443  10.952   0.656  17.363 -0.4093 -0.2776  0.0814
 6244W        W 6444   8.624  13.279   0.957  0.0657  0.0824  0.1144
 6245W        W 6445   4.669  17.776  10.028  0.2344 -0.0022  0.1778
 6246W        W 6446  15.806   5.784   6.010  0.3003 -0.0741 -0.1463
 6247W        W 6447   3.132   7.267  16.337  0.0178 -0.0106 -0.3134
 6248W        W 6448   6.997  13.309  15.898  0.1821 -0.1735 -0.3523
 6249W        W 6449   7.725  12.197   9.895 -0.4165 -0.0414  0.3688
 6250W        W 6450   6.917   5.833   0.050 -0.0053  0.0086 -0.2259
 6251W        W 6451   1.990  13.867   2.846 -0.0452  0.0343  0.0862
 6252W        W 6452  17.356  10.293   8.120 -0.0091  0.0108  0.0246
 6253W        W 6453   0.073   1.798  17.514 -0.1501 -0.0549 -0.0548
 6254W        W 6454   2.205   9.752   3.717  0.3642  0.1472 -0.0208
 6255W        W 6455   1.237  14.228   3.268 -0.2211  0.0898  0.3093
 6256W        W 6456   0.768   7.630   9.466 -0.0100  0.2102 -0.3686
 6257W        W 6457  15.003  13.173   1.217 -0.1439 -0.1817 -0.2772
 6258W        W 6458  13.890   9.158  16.822 -0.3281 -0.0347 -0.1369
 6259W        W 6459   9.031   7.837   2.135 -0.2391 -0.2042  0.2716
 6260W        W 6460   4.679  10.867   2.575 -0.0592  0.1428 -0.1722
 6261W        W 6461   3.036   6.470   9.886 -0.2736 -0.1595 -0.3613
 6262W        W 6462  11.539  18.061   0.576  0.2129  0.4233  0.2761
 6263W        W 6463   3.467  10.386  17.818  0.2728  0.3717 -0.2018
 6264W        W 6464  16.123   0.417  14.494  0.0709  0.1390  0.0599
 6265W        W 6465   4.526   6.943   2.419  0.1263  0.2219 -0.0088
 6266W        W 6466   3.669   8.201   2.507 -0.1719  0.0342  0.2803
 6267W        W 6467   9.182   2.105   4.951  0.0425  0.1107 -0.4257
 6268W        W 6468   8.097  16.347   6.929  0.1299 -0.1123 -0.0371
 6269W        W 6469   2.044   1.534   2.518  0.1758 -0.0101  0.3508
 6270W        W 6470  16.205  11.945   4.225  0.1136 -0.1873  0.2308
 6271W        W 6471   0.309  11.379   6.219 -0.0018 -0.1452  0.2263
 6272W        W 6472   2.710  11.894  10.193  0.1440 -0.0567 -0.1714
 6273W        W 6473  17.970  11.176  16.251  0.0992  0.0059  0.0712
 6274W        W 6474  13.728   7.899   1.393  0.0429  0.1665 -0.0828
 6275W        W 6475   0.673  16.501   5.073 -0.2808  0.0706  0.0507
 6276W        W 6476   0.915   9.233   1.352  0.5368  0.0993  0.0324
 6277W        W 6477  10.061  16.420   1.973  0.0858 -0.1904 -0.0717
 6278W        W 6478   7.524   5.043  10.232 -0.3747 -0.2335  0.2739
 6279W        W 6479  17.556   9.680   0.385 -0.1696  0.0700 -0.1197
 6280W        W 6480   5.466  11.169   3.644 -0.0754  0.1727 -0.2557
 6281W        W 6481   4.270  10.645   7.662  0.0240 -0.0768 -0.2395
 6282W        W 6482   9.157  10.557   8.987 -0.0475  0.1723  0.0345
 6283W        W 6483  10.880  16.187  16.270 -0.3188  0.0210  0.2680
 6284W        W 6484   7.340  11.354   2.779  0.0583 -0.0748 -0.1024
 6285W        W 6485   0.557  12.286   1.244 -0.0453 -0.1790 -0.3008
 6286W        W 6486  13.139   8.602  15.359 -0.0091 -0.0555  0.2098
 6287W        W 6487   0.799  14.466   9.505  0.2909  0.0928  0.3248
 6288W        W 6488  17.427  17.070   1.669 -0.2986  0.2684  0.0477
 6289W        W 6489   4.478  18.061  16.019 -0.4630 -0.0729 -0.2654
 6290W        W 6490   4.662   2.279   3.993  0.4060 -0.2323 -0.1867
 6291W        W 6491   1.923  14.624  16.518 -0.1291  0.0499  0.2174
 6292W        W 6492   1.188  17.833   9.723  0.1221  0.0847  0.1065
 6293W        W 6493   9.896  13.254  13.500  0.1359  0.3816  0.1143
 6294W        W 6494   3.347   8.748   0.179  0.0460 -0.0353  0.1677
 6295W        W 6495  16.742  10.262  15.594 -0.1877 -0.0856 -0.5305
 6296W        W 6496   6.402  10.611   6.197 -0.2057  0.0333 -0.1411
 6297W        W 6497   1.657  16.990  10.336  0.0837 -0.1072  0.0989
 6298W        W 6498  17.033   7.281  13.285  0.0904 -0.1643 -0.0715
 6299W        W 6499   9.224  10.987   8.178  0.0488 -0.0145  0.1199
 6300W        W 6500  15.452   8.095   5.579 -0.0323  0.0050 -0.1783
 6301W        W 6501  10.348  15.862  17.227 -0.0379 -0.1508 -0.0683
 6302W        W 6502   0.854  14.141   3.586 -0.3882  0.2243 -0.1517
 6303W        W 6503   5.659   1.109   1.125 -0.1633 -0.0030  0.1451
 6304W        W 6504   4.304  12.383  15.037  0.0384 -0.3338  0.1224
 6305W        W 6505   4.706  17.555  15.716 -0.0619 -0.2729 -0.2191
 6306W        W 6506   1.405  11.573   0.835  0.1417  0.1564  0.0030
 6307W        W 6507   8.865   5.054   0.546  0.0175  0.0748  0.0566
 6308W        W 6508   0.152  15.164   4.518  0.1991  0.3733 -0.0021
 6309W        W 6509  15.784  17.122   1.440 -0.3628 -0.0227  0.0348
 6310W        W 6510   1.054  15.098  14.407  0.2310 -0.4169 -0.0576
 6311W        W 6511  15.992   1.585  13.092  0.0266  0.1297  0.1426
 6312W        W 6512  17.881  16.737   6.242  0.0177  0.0570  0.0008
 6313W        W 6513   8.144  14.355  15.090  0.2882  0.2743  0.0836
 6314W        W 6514   1.913   9.099   3.122 -0.1094  0.0489  0.0400
 6315W        W 6515  13.915   2.316   7.135 -0.0417 -0.2550 -0.4376
 6316W        W 6516  15.793   9.970   4.617  0.2771 -0.0329 -0.0087
 6317W        W 6517  13.909  11.062   0.761 -0.0770  0.1703  0.1235
 6318W        W 6518  13.557  12.011   5.185  0.2782 -0.1304 -0.0680
 6319W        W 6519  11.948   6.918  16.692 -0.0809 -0.3337  0.0916
 6320W        W 6520  14.372   0.348   4.882  0.1649 -0.1304 -0.0950
 6321W        W 6521  13.534  10.353   4.958  0.0668  0.2552 -0.0410
 6322W        W 6522   2.794  11.834   0.949 -0.1101 -0.0208 -0.1787
 6323W        W 6523   1.020  12.689  15.050 -0.2164 -0.0653  0.1739
 6324W        W 6524   1.687  12.983   3.540  0.0400 -0.1733  0.0078
 6325W        W 6525  14.492  16.344  12.610  0.3671  0.1342 -0.2294
 6326W        W 6526   5.185   1.418   7.005  0.1291  0.1669  0.1306
 6327W        W 6527  12.224  11.541   0.759 -0.1759 -0.1492  0.2485
 6328W        W 6528  14.998  14.190   7.229  0.0791 -0.1316  0.0839
 6329W        W 6529   5.038   6.226   8.375  0.2468  0.0131  0.1620
 6330W        W 6530   5.264   3.337   5.274  0.0782 -0.2426 -0.0829
 6331W        W 6531  16.853  14.527   3.726 -0.1626  0.0490  0.0957
 6332W        W 6532   1.615  10.195  15.959  0.2873  0.1642  0.2185
 6333W        W 6533   5.935   2.220   8.167 -0.0372 -0.0096 -0.3089
 6334W        W 6534   2.389  11.001   3.655 -0.0785  0.0262 -0.0447
 6335W        W 6535  14.115   4.309  16.112 -0.3318  0.1945 -0.1140
 6336W        W 6536  14.510  12.760   0.465  0.2325 -0.0007  0.0043
 6337W        W 6537   4.895  13.217   3.557 -0.1525  0.3403  0.1175
 6338W        W 6538  10.867  15.002   3.551  0.2124  0.0194  0.1665
 6339W        W 6539   6.853  11.340  12.551  0.0286  0.1679 -0.2018
 6340W        W 6540   2.541  18.039  14.578  0.1692 -0.1771  0.3054
 6341W        W 6541  17.608   6.877   3.023  0.3532  0.2148  0.2264
 6342W        W 6542  14.771   7.077  17.828 -0.1133 -0.0988  0.0382
 6343W        W 6543   7.270   6.236   6.263  0.1856 -0.1337  0.4610
 6344W        W 6544   5.561  10.037   1.362  0.4734  0.3981 -0.0499
 6345W        W 6545   5.384  11.382  16.945 -0.1022 -0.0774 -0.0487
 6346W        W 6546  14.457  16.792   2.925 -0.0791  0.1261  0.3688
 6347W        W 6547  10.169  16.578  17.892 -0.6560 -0.3137 -0.1220
 6348W        W 6548  14.550  11.272   3.871 -0.0779  0.0354  0.0079
 6349W        W 6549   4.463   9.334  17.144  0.0457 -0.0222 -0.2339
 6350W        W 6550   1.203  14.840   1.017 -0.0258 -0.1402 -0.2098
 6351W        W 6551   9.863   3.369   2.163 -0.2621 -0.3894 -0.3818
 6352W        W 6552  18.143  14.096   1.336  0.3833  0.0057 -0.3664
 6353W        W 6553  17.860  12.057   4.052 -0.2102  0.0328 -0.1381
 6354W        W 6554  15.210  18.160  15.296 -0.1734  0.1610  0.0285
 6355W        W 6555  14.364   1.230   5.025  0.1875 -0.5110 -0.2920
 6356W        W 6556   5.639  16.839   7.646 -0.0113  0.1259  0.2631
 6357W        W 6557  15.184   8.507  17.181  0.3054  0.0253  0.2250
 6358W        W 6558   1.055  10.579   5.998 -0.3208 -0.3516  0.0991
 6359W        W 6559  14.979  10.195   3.398  0.0762  0.0191 -0.2786
 6360W        W 6560   7.773   4.708  15.335 -0.1906  0.0167  0.2020
 6361W        W 6561   3.842  13.362   4.544  0.0885  0.3548 -0.3626
 6362W        W 6562   8.097   6.756   4.077  0.3636 -0.2272  0.2222
 6363W        W 6563  16.776   6.810   2.631  0.0909 -0.3340  0.2181
 6364W        W 6564   5.246   0.361   9.308 -0.1747  0.1523 -0.2293
 6365W        W 6565   1.925   9.330   1.383  0.0075  0.0419  0.0160
 6366W        W 6566  15.980  14.331  15.663  0.3968 -0.1392 -0.1474
 6367W        W 6567  16.820  17.606   5.206  0.1748  0.1241  0.1738
 6368W        W 6568  11.783   9.022  14.170 -0.0260 -0.1241  0.1012
 6369W        W 6569   3.750   9.972  16.293  0.1950  0.2901  0.0185
 6370W        W 6570   5.942  12.968  12.159 -0.0312  0.0239 -0.2035
 6371W        W 6571  10.872   8.311   2.517  0.2079  0.0796 -0.1274
 6372W        W 6572  11.037   4.994   0.350 -0.0521 -0.2304  0.2240
 6373W        W 6573   2.831  12.155   7.571  0.1879  0.1454  0.0194
 6374W        W 6574   5.664   2.008  15.535 -0.3077 -0.4303 -0.2301
 6375W        W 6575   5.693   1.369   8.418  0.0818  0.1154 -0.0364
 6376W        W 6576   8.776   7.823   3.128  0.3012  0.2776 -0.2170
 6377W        W 6577  18.051  15.151   0.069 -0.1073 -0.0774 -0.2189
 6378W        W 6578   9.599   9.044   3.923 -0.1270 -0.3033 -0.1683
 6379W        W 6579   2.980  11.994   5.250  0.0735 -0.2001 -0.2642
 6380W        W 6580   0.981  11.543   7.509  0.0211  0.1073 -0.1219
 6381W        W 6581   6.243  17.012  13.124  0.3756  0.0110 -0.2455
 6382W        W 6582   7.210  16.780  15.496 -0.0411  0.0476  0.1343
 6383W        W 6583  10.277  10.256   4.089  0.0378  0.1310 -0.1493
 6384W        W 6584   6.446  11.840   8.710 -0.0453 -0.3570  0.2783
 6385W        W 6585   1.674  10.466   9.871  0.0355  0.0567  0.0761
 6386W        W 6586   6.822   8.519  12.108  0.0542 -0.0060  0.0663
 6387W        W 6587  15.171   1.115   1.502 -0.0575 -0.0830  0.2021
 6388W        W 6588  17.142   9.183  14.634 -0.0341 -0.0025 -0.0366
 6389W        W 6589   2.326   9.652   4.223 -0.3463 -0.0280 -0.1922
 6390W        W 6590   3.043  10.905  13.056 -0.1614 -0.0675 -0.1510
 6391W        W 6591   0.607  13.671  13.283  0.2558 -0.4455  0.0241
 6392W        W 6592   4.214  15.476  14.641  0.0622 -0.0424  0.0492
 6393W        W 6593   6.881  14.464   8.026  0.0803  0.0113 -0.0553
 6394W        W 6594   0.331   1.315   6.866  0.2232  0.1504  0.0112
 6395W        W 6595  16.504   7.258  14.553  0.0017 -0.1272 -0.3151
 6396W        W 6596   2.498  11.387  12.562  0.1211 -0.0873 -0.1153
 6397W        W 6597   8.035   5.473   9.691 -0.0805 -0.1779  0.1329
 6398W        W 6598  15.371   5.655   6.250  0.2241 -0.1981  0.1766
 6399W        W 6599  14.311  11.001  14.379 -0.0974 -0.1972 -0.3562
 6400W        W 6600   7.445  10.268   4.215 -0.1110  0.4238  0.1810
 6401W        W 6601   5.902   0.389  17.827 -0.1981 -0.0116  0.1325
 6402W        W 6602   5.371  15.886   5.575 -0.0842 -0.2659  0.2795
 6403W        W 6603   0.141  12.437  15.646 -0.0779 -0.1087 -0.1872
 6404W        W 6604  10.890  15.084   5.719  0.1844  0.1744  0.2171
 6405W        W 6605   3.810  16.773   0.279  0.1487 -0.1571  0.1506
 6406W        W 6606   4.717   0.473  17.730 -0.1398 -0.2051 -0.0095
 6407W        W 6607   3.149   0.279  17.924  0.0086  0.0221 -0.1592
 6408W        W 6608  12.462  15.049   8.836  0.0058 -0.0995  0.1135
 6409W        W 6609   0.917  13.584  12.859  0.2931 -0.1227 -0.1344
 6410W        W 6610   3.551  15.202  13.505 -0.0974  0.0720 -0.0074
 6411W        W 6611   8.501   9.091   2.263 -0.1239  0.1472  0.3114
 6412W        W 6612   7.267  16.304  11.520  0.0211  0.1642  0.0772
 6413W        W 6613   4.269  10.077  17.558  0.0017  0.1171  0.1021
 6414W        W 6614  17.537  11.446   6.003  0.1423 -0.1243 -0.1820
 6415W        W 6615   0.797   7.272   5.858 -0.0808  0.0979 -0.0407
 6416W        W 6616  15.052  14.087  15.337 -0.0784  0.0874 -0.3244
 6417W        W 6617   6.897  11.478   4.024 -0.1095  0.2002 -0.0458
 6418W        W 6618   7.761   6.599  16.072 -0.1031 -0.0327 -0.0622
 6419W        W 6619   7.005  12.108   1.724  0.0874  0.2359 -0.5822
 6420W        W 6620   2.660   9.541  15.035  0.5245  0.0704  0.1972
 6421W        W 6621   0.110  13.318   4.070 -0.5546  0.1837 -0.2320
 6422W        W 6622  16.564  12.531   4.822 -0.1877  0.0572  0.2113
 6423W        W 6623  16.802  13.997   3.778 -0.3350 -0.0502  0.0129
 6424W        W 6624  17.033  15.325   1.014  0.0470 -0.0297 -0.0207
 6425W        W 6625  16.684   9.579   5.840 -0.2364  0.1877  0.3903
 6426W        W 6626   3.685   8.079   6.527 -0.0592 -0.0770  0.2795
 6427W        W 6627  15.882   8.148   7.082 -0.0887  0.0909 -0.1669
 6428W        W 6628   2.540  15.428  12.707 -0.0255  0.0316  0.3070
 6429W        W 6629  12.350   6.939   0.582  0.0288  0.2396  0.1063
 6430W        W 6630  17.017  10.968   1.261 -0.0672  0.0205 -0.2126
 6431W        W 6631   2.464   6.926   0.748  0.0032  0.1784 -0.1261
 6432W        W 6632   7.410   6.807   1.372  0.0107 -0.1526  0.2943
 6433W        W 6633   6.927  14.629   0.810  0.1783 -0.1593 -0.0731
 6434W        W 6634   8.989  10.328   5.391 -0.3938  0.1321  0.1599
 6435W        W 6635  17.745  10.650   7.751  0.2116  0.1631  0.3154
 6436W        W 6636  17.576  13.864   5.382  0.2526 -0.3206  0.2759
 6437W        W 6637   7.224   3.678  16.810 -0.0222 -0.0684  0.0807
 6438W        W 6638   5.014   0.550  10.635 -0.0298 -0.1977  0.0346
 6439W        W 6639  11.881  11.822  17.550  0.0216  0.0450 -0.1471
 6440W        W 6640  11.945  15.506   7.945 -0.1201 -0.4874  0.0406
 6441W        W 6641   6.702  11.555   0.351 -0.1561  0.0234  0.0516
 6442W        W 6642   1.837  13.256   8.912 -0.3484  0.0064  0.0072
 6443W        W 6643  15.775  10.511   3.973 -0.1506  0.1564  0.0053
 6444W        W 6644   6.909  13.539   6.152 -0.0839  0.1541 -0.0285
 6445W        W 6645   0.053   2.430   4.375 -0.2539 -0.1159  0.2820
 6446W        W 6646  17.547   9.964   4.816  0.3218  0.2166  0.0042
 6447W        W 6647  15.375  13.840   7.680  0.2194 -0.1217 -0.0694
 6448W        W 6648  18.174  11.007  10.558 -0.0111  0.0839 -0.0934
 6449W        W 6649  17.378   8.287  17.342  0.0380  0.1303  0.0549
 6450W        W 6650  11.055  11.815  10.126 -0.0975  0.2746  0.2053
 6451W        W 6651  12.405   0.349   5.595 -0.1690  0.1289 -0.0442
 6452W        W 6652   5.625  11.380   0.701  0.0569  0.2414 -0.0826
 6453W        W 6653  18.079   9.233   2.535  0.0911 -0.2290  0.1134
 6454W        W 6654   2.188   8.989   9.427 -0.1379  0.0301 -0.0404
 6455W        W 6655  16.763   0.851  17.705  0.0565 -0.0279 -0.3627
 6456W        W 6656   3.076   1.282   4.974  0.0989 -0.1069 -0.0836
 6457W        W 6657  16.652  15.055   7.410 -0.0195  0.1932 -0.1893
 6458W        W 6658  14.235   4.443   9.410  0.0093 -0.0153 -0.0125
 6459W        W 6659  10.147  10.264   6.631 -0.0673 -0.2574 -0.1933
 6460W        W 6660   0.943   2.193  17.472  0.1223 -0.1406  0.1045
 6461W        W 6661   7.163   9.661   8.422 -0.1401 -0.1163  0.3432
 6462W        W 6662  16.491  15.040  15.302 -0.0582 -0.1324  0.1526
 6463W        W 6663  14.896   6.712   9.247 -0.1435 -0.0590 -0.0027
 6464W        W 6664   9.122   1.015   8.873 -0.3987  0.0909  0.0406
 6465W        W 6665   5.650  14.755  11.311  0.4399  0.0334  0.1116
 6466W        W 6666   1.277  10.851   7.407 -0.1773 -0.0028 -0.0392
 6467W        W 6667   0.068  10.296   1.654 -0.1213 -0.1990  0.2075
 6468W        W 6668   1.808  12.709  12.064 -0.1053  0.2666  0.4006
 6469W        W 6669   7.186  15.654   6.936 -0.1244 -0.0081  0.0596
 6470W        W 6670   0.157  10.797   3.660  0.2869  0.1644  0.1621
 6471W        W 6671   4.104   7.839  10.998 -0.3075  0.0990  0.2759
 6472W        W 6672  16.627  16.354  14.525 -0.0981 -0.3101  0.1986
 6473W        W 6673  15.589  12.820  11.503  0.0542 -0.0371  0.0644
 6474W        W 6674  15.667   2.214  11.631 -0.0072 -0.1477 -0.4872
 6475W        W 6675   2.902   0.429   3.346 -0.0222 -0.0949  0.1026
 6476W        W 6676  14.409  10.708  11.299  0.1720 -0.0443  0.0785
 6477W        W 6677   5.364  17.594   2.890 -0.0644  0.2621  0.2762
 6478W        W 6678   0.310   1.868   8.872 -0.1881  0.1464 -0.3194
 6479W        W 6679   2.653  10.155   4.744  0.0862  0.1502  0.1953
 6480W        W 6680   4.421  14.409  17.927  0.2081  0.0144  0.1008
 6481W        W 6681  14.822  15.677  15.521  0.1299  0.0976  0.0460
 6482W        W 6682   3.569  17.526   3.101 -0.4017 -0.0346 -0.1146
 6483W        W 6683   2.751  16.353   0.523 -0.2763 -0.1643 -0.1736
 6484W        W 6684  11.744  11.492   6.657  0.2444  0.3390 -0.0647
 6485W        W 6685  10.781  13.478   6.394 -0.1525  0.0819 -0.1526
 6486W        W 6686  17.852  15.970   8.439 -0.0571 -0.1085 -0.0078
 6487W        W 6687  17.692  13.770  10.879  0.0955  0.0412  0.1073
 6488W        W 6688   1.174   5.116   5.077  0.1947 -0.0447 -0.3387
 6489W        W 6689  11.279  13.253  12.968 -0.0496 -0.2021 -0.1247
 6490W        W 6690   7.105  14.712  16.165 -0.0201 -0.1543 -0.3448
 6491W        W 6691  17.462   3.290   1.716  0.0844  0.0146 -0.1201
 6492W        W 6692   5.200  16.535   6.998  0.1744  0.0153  0.0390
 6493W        W 6693   1.485   0.934   6.344  0.2157  0.1366  0.0348
 6494W        W 6694  14.106   9.775  12.311 -0.5105  0.0234  0.2762
 6495W        W 6695  12.670   7.258   4.286 -0.1595 -0.0893  0.1456
 6496W        W 6696  13.167   9.782   4.501  0.0334  0.0309 -0.0401
 6497W        W 6697  15.491  11.620   5.809  0.1117  0.0912 -0.1735
 6498W        W 6698   1.978  16.727   7.469 -0.3269 -0.1348  0.2158
 6499W        W 6699   0.344  11.310  13.582  0.1208 -0.0170 -0.2487
 6500W        W 6700   1.537   8.589   5.580 -0.1172  0.2587  0.0422
 6501W        W 6701   5.196  15.031   4.509  0.1145  0.0318 -0.1745
 6502W        W 6702  11.997  13.491   8.793  0.3042 -0.0110  0.1461
 6503W        W 6703   5.677  11.561   6.450 -0.1760  0.0588 -0.1145
 6504W        W 6704   2.135   7.852   2.157  0.1026 -0.0715 -0.2117
 6505W        W 6705  17.161   9.302   4.204 -0.2945 -0.0242 -0.0602
 6506W        W 6706   0.468   8.748   8.650  0.0723 -0.5127  0.1129
 6507W        W 6707   0.477   3.849   0.844  0.1748 -0.2472  0.1477
 6508W        W 6708   5.797  11.075   1.622  0.3546 -0.0459  0.3772
 6509W        W 6709   9.212  12.839   3.085 -0.4939  0.0029 -0.0332
 6510W        W 6710   3.198  12.498   7.849  0.0233 -0.2184 -0.3015
 6511W        W 6711  10.509  16.560  15.842  0.0685 -0.0607  0.1865
 6512W        W 6712   2.542   1.390  14.357 -0.2204 -0.1707 -0.2369
 6513W        W 6713  15.913  12.304   2.217 -0.4033 -0.1300 -0.3307
 6514W        W 6714  11.974  12.018   1.117  0.0276 -0.0737  0.2940
 6515W        W 6715  10.630  16.753   6.213  0.0121  0.1708  0.2367
 6516W        W 6716   5.113   1.049   4.261  0.0242  0.3788 -0.0644
 6517W        W 6717  17.431   0.145   2.532 -0.3665 -0.1562  0.3448
 6518W        W 6718   2.742  11.115   9.670 -0.0527 -0.1017  0.2830
 6519W        W 6719  16.293  11.666   3.774  0.1504 -0.1514 -0.0497
 6520W        W 6720  12.049  18.053  16.201  0.0176 -0.3061 -0.0006
 6521W        W 6721  14.026  11.908  10.601  0.2098  0.0083  0.0026
 6522W        W 6722   2.184   7.126   3.714 -0.2614  0.0604 -0.0751
 6523W        W 6723  18.187  12.435   7.633 -0.1129 -0.0415 -0.0074
 6524W        W 6724  11.740  11.595   5.666  0.2665 -0.0878 -0.0109
 6525W        W 6725  17.416   8.353   5.198  0.0817 -0.4523  0.2252
 6526W        W 6726   0.348  15.882   7.392  0.1176  0.0721 -0.0259
 6527W        W 6727   1.242   6.939   5.300  0.0945 -0.2410  0.1364
 6528W        W 6728   7.577   7.541  10.899  0.2355 -0.1659  0.0050
 6529W        W 6729   4.704  10.312  10.226  0.3621 -0.0776 -0.0910
 6530W        W 6730  17.211  13.067   2.549 -0.2726 -0.0142 -0.0187
 6531W        W 6731   8.647  14.257   7.584  0.0048 -0.0568 -0.0077
 6532W        W 6732  17.758  13.798   6.961  0.1348 -0.0044  0.0246
 6533W        W 6733  15.990  16.847  10.210 -0.0900  0.1204  0.0328
 6534W        W 6734  10.593  15.522   3.458 -0.0835  0.0818  0.1231
 6535W        W 6735  16.218   0.822   6.684 -0.0413  0.0963  0.1523
 6536W        W 6736   6.290  15.443   5.066  0.1956 -0.0646  0.0673
 6537W        W 6737  13.053  15.136   3.580 -0.1840 -0.0213  0.3056
 6538W        W 6738  13.508  10.917   1.540  0.1878  0.5932 -0.0350
 6539W        W 6739  15.658  10.382  13.259  0.0931  0.2817 -0.1756
 6540W        W 6740   4.380  15.686   2.394  0.2563 -0.2462  0.0407
 6541W        W 6741   0.434  12.843   9.899  0.0755  0.1016  0.0813
 6542W        W 6742   6.073   4.969  11.770  0.1763  0.0861  0.1741
 6543W        W 6743  17.084  16.808   9.419  0.3287  0.1620 -0.2516
 6544W        W 6744   0.740  15.730  13.689  0.1375  0.0594 -0.0704
 6545W        W 6745  15.002   8.556   8.318 -0.0958  0.1494 -0.0747
 6546W        W 6746   4.269  12.821  17.011 -0.0023 -0.1115 -0.4251
 6547W        W 6747   0.220  10.309   2.141 -0.1176 -0.1251  0.1048
 6548W        W 6748   8.417   8.862   9.091 -0.0453 -0.1948 -0.0103
 6549W        W 6749   6.149  17.602   0.654 -0.0135 -0.2146 -0.1891
 6550W        W 6750  15.729   9.496  18.104 -0.0822  0.6107 -0.1444
 6551W        W 6751   5.599  16.452   3.773 -0.3137 -0.1157  0.0135
 6552W        W 6752   6.760   2.622   6.235 -0.1276  0.0046 -0.1255
 6553W        W 6753   1.668   3.003   9.386 -0.2350 -0.2031  0.1303
 6554W        W 6754   2.377   3.530  16.000  0.0318  0.1330 -0.2902
 6555W        W 6755  17.135  15.689   5.311  0.1726  0.1318 -0.5999
 6556W        W 6756   5.953   4.134   2.328  0.2396  0.1390  0.0303
 6557W        W 6757   2.763  12.962  16.679 -0.2804 -0.2288  0.0281
 6558W        W 6758   1.044   7.251   7.684 -0.1639  0.0326 -0.0721
 6559W        W 6759   4.326   5.022   0.716  0.2210 -0.3113  0.1137
 6560W        W 6760   1.976  14.675   4.172 -0.1352  0.1368 -0.1097
 6561W        W 6761   1.023  11.806  17.027  0.1852  0.0618 -0.0988
 6562W        W 6762   6.420   0.779   8.355  0.0694 -0.0830 -0.1684
 6563W        W 6763   1.950  10.736   1.329 -0.2153 -0.0423 -0.2896
 6564W        W 6764   6.630   2.222   9.678  0.3856  0.0777 -0.2895
 6565W        W 6765   2.103  13.284   3.688  0.1181 -0.0741 -0.1659
 6566W        W 6766   0.022  14.642  11.243  0.0294 -0.2275  0.3753
 6567W        W 6767   7.211  12.514  11.793 -0.3426 -0.1854  0.1050
 6568W        W 6768   6.726   9.306   0.071 -0.0711 -0.1663  0.0157
 6569W        W 6769  15.376  15.663   7.092 -0.2096 -0.2066  0.2125
 6570W        W 6770  16.508  18.080  10.026  0.0366  0.0634 -0.1209
 6571W        W 6771  16.269   6.013   1.612  0.0559  0.1743  0.1392
 6572W        W 6772  14.769   6.068  12.753  0.0110 -0.0936 -0.1441
 6573W        W 6773   2.846   7.928   6.228 -0.0655  0.3668  0.0323
 6574W        W 6774  17.352   1.487   1.440 -0.0129 -0.0491  0.1098
 6575W        W 6775  16.428  13.981  14.064 -0.0157 -0.0073 -0.0887
 6576W        W 6776   2.095  14.090   3.311  0.1291  0.0752  0.0015
 6577W        W 6777   5.354  12.209  13.676 -0.1655  0.3775  0.2707
 6578W        W 6778   4.071   8.142   1.658 -0.1717  0.0584 -0.5102
 6579W        W 6779   3.406  17.007   5.641  0.0793  0.2855 -0.0247
 6580W        W 6780  14.040   7.631  10.742 -0.0260  0.0182  0.1894
 6581W        W 6781  14.687   9.810   9.483 -0.0320  0.0003  0.1835
 6582W        W 6782  14.235  17.515   7.457  0.1679  0.0611 -0.1500
 6583W        W 6783   0.681  12.150   6.674 -0.2531 -0.2826  0.1570
 6584W        W 6784   6.989  13.250   2.520 -0.0175  0.2912 -0.1238
 6585W        W 6785  14.024  14.992   6.326 -0.1424  0.0580  0.2274
 6586W        W 6786   5.189   8.106  15.917  0.3299 -0.1091  0.1180
 6587W        W 6787   5.558  17.667   6.683  0.1094 -0.0904  0.2047
 6588W        W 6788   2.507   9.373   7.145  0.0421  0.3322  0.2457
 6589W        W 6789   0.109   7.005   4.748  0.1398  0.3732 -0.0125
 6590W        W 6790   3.765  17.431   2.131 -0.1429  0.0372 -0.0120
 6591W        W 6791  17.350  10.487   1.311 -0.3500 -0.1875 -0.2837
 6592W        W 6792   1.946  14.856   2.216 -0.0499  0.1552  0.2279
 6593W        W 6793  17.371  11.433  13.676  0.1816 -0.1973  0.4014
 6594W        W 6794   9.869   1.279   9.584  0.0039 -0.1373 -0.0695
 6595W        W 6795  16.187   2.420  10.664 -0.1864 -0.1681 -0.1164
 6596W        W 6796  15.122  12.307   5.595  0.4398 -0.0876  0.0237
 6597W        W 6797   4.367  15.225   6.413 -0.2762 -0.0321 -0.0452
 6598W        W 6798   6.245  11.695  16.796 -0.3258 -0.0639  0.0989
 6599W        W 6799  17.769  14.040  14.298 -0.5635 -0.0310 -0.0696
 6600W        W 6800   2.903  14.736   7.866 -0.0665 -0.2619 -0.2155
 6601W        W 6801  11.388  14.775   0.304 -0.1545  0.0968  0.0645
 6602W        W 6802   3.237   4.967  15.677 -0.1182  0.0440 -0.2204
 6603W        W 6803  14.036   0.036  12.442  0.2986 -0.1189  0.1309
 6604W        W 6804   9.121  14.619   5.766  0.2722  0.0666  0.0573
 6605W        W 6805  14.718  15.779  10.361 -0.3120 -0.0419 -0.0624
 6606W        W 6806  13.905  12.860  13.538 -0.0160  0.0926 -0.0422
 6607W        W 6807  12.525  14.072  12.408  0.2048  0.1369  0.0869
 6608W        W 6808   6.557  16.428  14.915 -0.0505  0.2941 -0.0365
 6609W        W 6809  15.439   9.777   5.317 -0.0388  0.1920 -0.2517
 6610W        W 6810   8.531   7.461   2.374 -0.0751 -0.1636  0.2298
 6611W        W 6811   7.847   8.837   1.203  0.1833 -0.0386 -0.1614
 6612W        W 6812  12.543  14.898   4.898 -0.0754  0.2191  0.1756
 6613W        W 6813  15.555   7.563   4.241 -0.1610 -0.1440  0.0381
 6614W        W 6814   2.946  10.411   0.387 -0.0578 -0.0265 -0.2534
 6615W        W 6815   5.692  14.138   2.238 -0.0066 -0.2402  0.0215
 6616W        W 6816   2.201  14.597   9.534  0.0487  0.0051 -0.0133
 6617W        W 6817  16.915  16.619   8.997  0.2506 -0.2634  0.0097
 6618W        W 6818   1.761   9.251  17.463  0.0148  0.0612  0.0931
 6619W        W 6819   6.036   9.165   3.653 -0.2122 -0.0019  0.0226
 6620W        W 6820   1.113  15.941  12.334  0.0781  0.1372 -0.2123
 6621W        W 6821  17.158   9.154   3.473  0.2246  0.3054 -0.0335
 6622W        W 6822  14.963  15.059   7.799  0.2660  0.1799 -0.0423
 6623W        W 6823   3.279   5.297  10.917  0.4414 -0.1341 -0.1425
 6624W        W 6824   4.358  18.181   1.682 -0.1236 -0.0224  0.1498
 6625W        W 6825  11.256  12.070  14.279  0.2481  0.1330 -0.1843
 6626W        W 6826  17.076  15.084   1.989  0.0895 -0.0455 -0.0926
 6627W        W 6827   0.745  10.503   9.956  0.0499 -0.2286  0.2572
 6628W        W 6828  16.932   2.543  15.163 -0.0489  0.0789 -0.0404
 6629W        W 6829   3.992  17.314  11.751  0.0645  0.0951  0.0420
 6630W        W 6830  14.521  13.692   5.329  0.1313 -0.0189 -0.3296
 6631W        W 6831  16.309  12.010  12.482  0.2023  0.1170  0.1139
 6632W        W 6832   0.008  15.780  10.063 -0.1549 -0.3194 -0.1040
 6633W        W 6833  16.715  10.685   4.473 -0.1364 -0.1844  0.0484
 6634W        W 6834   2.166  10.368  18.080 -0.2718  0.1085  0.0531
 6635W        W 6835  16.160  18.175  15.313  0.1375  0.0886  0.0582
 6636W        W 6836   6.995  12.784  11.332 -0.0501 -0.2737 -0.1489
 6637W        W 6837   8.307   4.150   3.999 -0.1613  0.2382 -0.1427
 6638W        W 6838   1.662   9.628  14.182 -0.0615 -0.2656  0.0387
 6639W        W 6839  12.428   8.191   8.783  0.1046 -0.0241  0.0866
 6640W        W 6840  17.579   8.974   7.477 -0.1111  0.2282 -0.1374
 6641W        W 6841   7.014   8.719   8.418  0.1006 -0.0460 -0.1872
 6642W        W 6842  12.292  12.546   5.205  0.1860  0.1281 -0.0373
 6643W        W 6843  16.028   5.838   6.956  0.1988  0.1051  0.0563
 6644W        W 6844  14.438  15.211  13.384 -0.1582  0.1287  0.1990
 6645W        W 6845  17.190  14.372  16.193 -0.0624  0.2542  0.0820
 6646W        W 6846  15.656   9.565   4.432  0.0848  0.0940  0.0011
 6647W        W 6847  15.068   7.280  13.886 -0.0460 -0.0308  0.0400
 6648W        W 6848  11.953  15.827   7.043 -0.2422 -0.2816 -0.1393
 6649W        W 6849  17.302   7.128  12.919  0.1875  0.0164 -0.0247
 6650W        W 6850  16.436  14.497   1.998 -0.2163  0.1819  0.0169
 6651W        W 6851   0.214  10.930   5.999  0.1165  0.5062  0.2062
 6652W        W 6852   4.252   6.695   0.307  0.1825 -0.2021  0.5158
 6653W        W 6853  17.582  12.345   6.204 -0.1622 -0.2485 -0.1376
 6654W        W 6854   5.779   4.290   9.378 -0.1513  0.1590 -0.1807
 6655W        W 6855  10.269  11.465   4.114  0.0840 -0.0770  0.0186
 6656W        W 6856   8.226   2.566   6.406 -0.0087 -0.0183 -0.1412
 6657W        W 6857   0.297  13.693   4.473 -0.1363 -0.0133 -0.2793
 6658W        W 6858   7.083   6.790   1.838 -0.1251  0.3806 -0.3782
 6659W        W 6859   2.252   8.577   2.310  0.2379  0.1869  0.2653
 6660W        W 6860   1.695  12.607   9.452 -0.2641 -0.2197  0.2815
 6661W        W 6861  16.575   2.465   9.391 -0.1776 -0.0647 -0.0814
 6662W        W 6862  12.131  14.205  15.866  0.1660  0.0542 -0.0053
 6663W        W 6863  15.371   9.181   4.728  0.1785 -0.0063  0.2606
 6664W        W 6864   0.689   1.351   8.183  0.4249 -0.2065 -0.0493
 6665W        W 6865   9.196   5.633  16.127 -0.0390  0.2733  0.0295
 6666W        W 6866   5.448  10.305   9.779  0.1508  0.1441  0.0426
 6667W        W 6867  18.131   5.880   7.429  0.1103 -0.2780 -0.1207
 6668W        W 6868   9.644  12.633  11.714  0.3744 -0.0207  0.1638
 6669W        W 6869   8.922  14.594   2.568 -0.5369  0.0478 -0.1257
 6670W        W 6870  15.878  11.135  10.613 -0.0376  0.0003 -0.0388
 6671W        W 6871  17.775   7.244   9.954  0.4416 -0.0297  0.0980
 6672W        W 6872  15.688   5.547   0.344  0.2215 -0.0669  0.1388
 6673W        W 6873   2.511   7.020   4.154 -0.1754 -0.1492  0.2417
 6674W        W 6874  16.619   6.529   1.519 -0.2631 -0.0208  0.4198
 6675W        W 6875   6.362  10.354   1.264  0.2957  0.0342  0.1814
 6676W        W 6876  16.159  15.332  14.228 -0.0319  0.2297 -0.1365
 6677W        W 6877  12.125   8.892  12.596  0.1815  0.0250 -0.1960
 6678W        W 6878   6.805  11.423  18.085  0.1645 -0.2660 -0.1865
 6679W        W 6879  12.316  15.816  17.846  0.2470  0.0512  0.1891
 6680W        W 6880   6.412  14.593   0.090  0.4101  0.1211  0.4518
 6681W        W 6881   4.367  15.152   5.268 -0.0410 -0.1134  0.3218
 6682W        W 6882  15.260  13.917   6.846 -0.1899  0.0701 -0.4856
 6683W        W 6883   2.042  11.604   9.133  0.1282  0.1274 -0.2344
 6684W        W 6884   4.827   1.203   8.527 -0.1038 -0.2397  0.0988
 6685W        W 6885  17.273  14.810  15.951 -0.0643  0.2302  0.0057
 6686W        W 6886  17.678  13.651   3.601  0.1616  0.1283 -0.1103
 6687W        W 6887  16.781   0.285  10.864  0.0491  0.2140 -0.0845
 6688W        W 6888   3.768   6.675  17.204  0.2078 -0.1218  0.0668
 6689W        W 6889   3.655   3.212   3.772  0.1554  0.2240 -0.3567
 6690W        W 6890  10.530   9.951   3.572 -0.1160 -0.0320  0.0021
 6691W        W 6891   8.968  16.810   3.902  0.2162  0.1190 -0.0570
 6692W        W 6892  18.028  12.512   0.752  0.2939 -0.0603 -0.0629
 6693W        W 6893  16.561   7.146   2.999 -0.0404  0.0177 -0.2873
 6694W        W 6894   7.486  12.879  11.544  0.0940 -0.1391 -0.0871
 6695W        W 6895   1.632  15.804   4.888 -0.0561 -0.2225  0.0093
 6696W        W 6896   0.767  10.203   5.827  0.2646  0.0073  0.2391
 6697W        W 6897   3.216  14.908  10.404  0.0509 -0.0285  0.0767
 6698W        W 6898   9.205  17.487   2.064 -0.1845 -0.0893  0.2703
 6699W        W 6899   3.406  18.191   4.133  0.3336  0.0071 -0.1144
 6700W        W 6900  16.530  16.488   4.535  0.1658 -0.1790 -0.0142
 6701W        W 6901   0.059  14.711   8.380  0.3985  0.1525  0.3200
 6702W        W 6902   3.357   1.242   1.303 -0.2006  0.1302  0.0807
 6703W        W 6903   4.551   2.340   0.625  0.3521 -0.0358 -0.1892
 6704W        W 6904  16.317  12.435   6.109 -0.0792 -0.2988  0.2859
 6705W        W 6905  13.926  14.131  14.072 -0.0232  0.2072  0.3329
 6706W        W 6906   4.146  18.011   4.053 -0.3315  0.2594 -0.4525
 6707W        W 6907  17.973  11.046   1.107 -0.0735 -0.1263 -0.3087
 6708W        W 6908   0.446  12.043   5.334 -0.2314 -0.0375 -0.0548
 6709W        W 6909   4.553   7.196   5.414  0.1659 -0.3577  0.0445
 6710W        W 6910   6.631  17.709   5.041 -0.0950 -0.1472 -0.5112
 6711W        W 6911  11.275   5.609   6.541 -0.1122 -0.3292 -0.0545
 6712W        W 6912  12.840  12.993  11.642 -0.1369  0.1294 -0.4155
 6713W        W 6913   5.971  11.383  10.510 -0.1276  0.0282  0.0508
 6714W        W 6914  10.085  16.277  15.082  0.2079 -0.1200  0.2512
 6715W        W 6915  15.483   9.008  10.869 -0.1930 -0.1530 -0.1502
 6716W        W 6916   9.143  11.508  17.638  0.0696  0.0265 -0.0426
 6717W        W 6917  15.036  10.946   6.716 -0.0652 -0.2408 -0.3771
 6718W        W 6918   1.729  10.286   0.468  0.2296  0.0956  0.0072
 6719W        W 6919  11.187   4.155   7.836  0.1532  0.3363  0.2178
 6720W        W 6920   5.023   7.711  10.451 -0.0684 -0.0811  0.1021
 6721W        W 6921   3.905  10.629   7.326 -0.2916 -0.1140 -0.0293
 6722W        W 6922   3.166  15.671   5.275  0.0851 -0.0111 -0.0375
 6723W        W 6923   5.343   2.159   7.494 -0.0170  0.0770 -0.2769
 6724W        W 6924  14.405  17.407   1.186 -0.0689  0.1291  0.1972
 6725W        W 6925   0.347  13.214   5.840  0.0897 -0.0579 -0.0464
 6726W        W 6926   8.772  13.127   0.005 -0.0409 -0.3573 -0.1476
 6727W        W 6927  17.082   1.372   1.026 -0.0472  0.0094 -0.2885
 6728W        W 6928  16.690  11.169   2.026  0.0683 -0.0746  0.1113
 6729W        W 6929   1.431  12.562   0.282 -0.0770  0.1972 -0.2018
 6730W        W 6930  16.837  15.349   1.619  0.2074 -0.0019  0.2153
 6731W        W 6931   1.071  12.176   2.612 -0.1659  0.2208  0.2656
 6732W        W 6932   5.085  14.450   7.366 -0.0412  0.0325  0.0722
 6733W        W 6933   5.459   7.631   0.370 -0.0886  0.1699 -0.0208
 6734W        W 6934   1.915   1.426  17.987  0.0933 -0.0511 -0.1321
 6735W        W 6935   5.479   8.992   3.251 -0.2078 -0.1691  0.2452
 6736W        W 6936   0.267   2.789   1.165  0.0781  0.0887  0.1660
 6737W        W 6937   6.317  14.023   1.437  0.0617  0.0469 -0.1767
 6738W        W 6938   5.697  14.402   9.673 -0.0452 -0.1803  0.0343
 6739W        W 6939   6.742  16.562   9.925 -0.0774 -0.2657 -0.0452
 6740W        W 6940  17.516  10.577   3.346 -0.0447 -0.1415  0.0682
 6741W        W 6941   9.575   8.463   9.634  0.1152 -0.1781  0.1132
 6742W        W 6942   1.181  17.647   5.353  0.0913 -0.3760 -0.3914
 6743W        W 6943   7.403  15.571   0.083  0.0519 -0.1498 -0.2003
 6744W        W 6944   3.039  12.593  10.750 -0.0506 -0.1185  0.2349
 6745W        W 6945   2.809   1.228   5.445 -0.2519 -0.1098  0.0939
 6746W        W 6946   7.738  15.720  10.662  0.2991  0.0852 -0.0148
 6747W        W 6947   0.265   1.535  14.930 -0.1306 -0.1732 -0.3785
 6748W        W 6948   0.082  15.128  13.483 -0.1552  0.2062  0.0466
 6749W        W 6949   6.607  11.887   2.228 -0.2108  0.2963  0.3099
 6750W        W 6950  16.316  15.004   1.034  0.1334 -0.0194  0.0782
 6751W        W 6951   2.812  13.673   4.746 -0.1622 -0.3945 -0.0954
 6752W        W 6952   7.566  12.206   7.501  0.1221 -0.1370 -0.0344
 6753W        W 6953   5.063  13.815   6.279  0.2290  0.2638 -0.1613
 6754W        W 6954   8.921   2.844   3.884  0.1160 -0.2127 -0.1302
 6755W        W 6955  12.928   9.600  13.344  0.2841 -0.0865 -0.0237
 6756W        W 6956  16.586  14.046   9.447  0.1221 -0.0632  0.0430
 6757W        W 6957   2.751  13.567  12.378  0.2129 -0.1114  0.1504
 6758W        W 6958   1.092   9.459  15.861 -0.1220  0.1067  0.2125
 6759W        W 6959   4.314  12.150  10.350  0.1016  0.1529  0.1445
 6760W        W 6960  10.959   2.302   9.778  0.1053  0.1891 -0.0308
 6761W        W 6961   8.170  12.089   3.749  0.0417 -0.2005  0.2045
 6762W        W 6962   0.693  14.072   4.403 -0.1972  0.1720 -0.0975
 6763W        W 6963  15.631   3.970   6.825 -0.1777 -0.0287 -0.2635
 6764W        W 6964  14.424   4.726   8.523  0.0037  0.1329  0.0824
 6765W        W 6965  11.832  11.014   5.822 -0.0118  0.2299 -0.0928
 6766W        W 6966  10.937   8.728   7.897 -0.3886 -0.2966 -0.0317
 6767W        W 6967   8.710   8.748   5.791 -0.0614  0.2979  0.3168
 6768W        W 6968   8.714   0.720  15.451  0.2021 -0.1750  0.0441
 6769W        W 6969   2.539  16.946   5.104  0.2179 -0.0793  0.3512
 6770W        W 6970  17.948  16.239   0.789  0.1093 -0.1611  0.1508
 6771W        W 6971   5.112  13.855   3.494 -0.0619  0.1104  0.0159
 6772W        W 6972   1.262  17.811   7.630 -0.0531  0.3786 -0.0502
 6773W        W 6973  17.098   9.582   6.960 -0.1380  0.4056 -0.3447
 6774W        W 6974   4.529  12.467   5.527 -0.1875 -0.0259  0.0803
 6775W        W 6975   5.249   6.325  15.222  0.0333 -0.0820  0.0097
 6776W        W 6976  18.020  17.353  14.739  0.1196  0.0601  0.0034
 6777W        W 6977   3.638   3.372   2.668 -0.1238 -0.2232 -0.2132
 6778W        W 6978   3.140   4.014   1.987 -0.0826  0.0264 -0.0824
 6779W        W 6979  16.678  14.535  12.024  0.1401 -0.0872 -0.0391
 6780W        W 6980  10.074  15.613   1.807  0.1903 -0.0621 -0.0721
 6781W        W 6981  11.178   9.078   7.635  0.1879 -0.3440 -0.3615
 6782W        W 6982  15.896   8.971   8.107 -0.2160 -0.0092  0.3372
 6783W        W 6983  17.282  13.138   1.004 -0.0572  0.1242 -0.0577
 6784W        W 6984  12.830  15.259  16.295  0.2020  0.4370  0.0359
 6785W        W 6985   2.659  11.471   9.229  0.1028 -0.0433  0.0705
 6786W        W 6986   2.894  14.863  18.134  0.1090 -0.1812  0.1055
 6787W        W 6987   1.269   9.185   4.103  0.3245  0.0107 -0.0134
 6788W        W 6988   5.731   5.178   0.144 -0.0897 -0.1334 -0.1175
 6789W        W 6989  16.339   8.498   1.353 -0.1137  0.1928 -0.2769
 6790W        W 6990   6.207  13.027   0.573 -0.3523  0.0559  0.0220
 6791W        W 6991   3.411   7.192   4.414 -0.0544  0.1760 -0.0633
 6792W        W 6992   1.243  16.740   0.316 -0.0463 -0.2724 -0.1011
 6793W        W 6993   0.856   3.245  12.040  0.1108  0.3019 -0.0327
 6794W        W 6994   4.537   2.998   1.792  0.0865  0.1669  0.1654
 6795W        W 6995   5.167  12.153   5.025  0.1636 -0.0069 -0.1216
 6796W        W 6996  11.539  10.852   1.002 -0.2177 -0.3419  0.1803
 6797W        W 6997  13.359  11.313   8.910 -0.1170 -0.3017 -0.0164
 6798W        W 6998  14.897   3.115  15.571  0.3361 -0.0817  0.1207
 6799W        W 6999   2.408   9.771  13.971  0.2014 -0.2175 -0.1636
 6800W        W 7000  12.824  12.135   8.638  0.4629  0.0423 -0.1410
 6801W        W 7001   6.324  12.551   6.361 -0.2490 -0.2147  0.0537
 6802W        W 7002   3.350   7.682   4.335  0.2108  0.1198 -0.1303
 6803W        W 7003  13.310  13.111   9.545 -0.3672 -0.0967  0.0253
 6804W        W 7004  18.197   3.064  10.110 -0.2368  0.0382 -0.0534
 6805W        W 7005   9.420  13.593   6.179  0.0838  0.0264 -0.1041
 6806W        W 7006  16.420  14.236  15.867 -0.1789 -0.0830  0.1936
 6807W        W 7007   5.786  11.592   3.287 -0.1268  0.2893  0.1214
 6808W        W 7008  15.439   2.901   5.909  0.1991  0.3647  0.0104
 6809W        W 7009   5.862  11.647   3.806 -0.1201  0.0436 -0.0409
 6810W        W 7010   4.549  12.813  18.068 -0.0123 -0.3257 -0.1078
 6811W        W 7011   4.753   7.396   3.195  0.3702 -0.0758 -0.2876
 6812W        W 7012   0.390   0.262   9.978  0.1194  0.0691  0.1919
 6813W        W 7013  18.159  11.562   7.893  0.0783 -0.2954  0.2081
 6814W        W 7014  11.291  16.147   6.574  0.1808  0.0773  0.2009
 6815W        W 7015  17.420  10.013   8.536  0.0326  0.0138  0.1925
 6816W        W 7016  16.327   6.557   2.628  0.0808 -0.1164 -0.2097
 6817W        W 7017   7.501  17.012   9.720 -0.1408  0.0949  0.0658
 6818W        W 7018   2.092   1.773  11.347  0.1166 -0.1466  0.1555
 6819W        W 7019  13.653  10.360   6.717 -0.0185  0.0514 -0.0696
 6820W        W 7020  15.970  15.382   6.352 -0.0205 -0.1784  0.0336
 6821W        W 7021   7.673  12.244   2.855 -0.1059  0.0484  0.2250
 6822W        W 7022  15.513   8.556   6.922  0.0296 -0.0818 -0.1208
 6823W        W 7023  11.140  14.196   9.798  0.3444  0.0313  0.0287
 6824W        W 7024   1.786  16.525   8.184 -0.3095  0.0380  0.1121
 6825W        W 7025   3.589   1.893   5.050 -0.0734 -0.3795  0.2557
 6826W        W 7026   8.011  12.690  11.597 -0.2831  0.0696 -0.2446
 6827W        W 7027  13.124  11.192   3.611  0.1779 -0.1231 -0.0865
 6828W        W 7028   4.156  12.210   6.688  0.2058 -0.1933 -0.0718
 6829W        W 7029   6.252  17.261  10.371 -0.1811 -0.2601  0.2701
 6830W        W 7030  14.361  10.237   1.469  0.0911 -0.1521 -0.4299
 6831W        W 7031   8.054  13.860  12.844 -0.3836  0.3547 -0.0597
 6832W        W 7032   1.550  11.667   6.567  0.2289  0.2196  0.0683
 6833W        W 7033  16.290  13.395   6.265 -0.0650  0.2316 -0.2750
 6834W        W 7034  16.879  14.546   4.891  0.1663  0.0744  0.1110
 6835W        W 7035   0.360  13.239  10.820  0.2827  0.3690 -0.2712
 6836W        W 7036   8.781   4.503   0.351  0.0381 -0.0229 -0.3387
 6837W        W 7037  13.589  17.862  14.708  0.2030 -0.2690 -0.1109
 6838W        W 7038  15.840  12.006   8.232  0.2904 -0.4022 -0.1180
 6839W        W 7039   2.058  13.551   4.159  0.1506  0.0673  0.0910
 6840W        W 7040   6.850  11.305   2.790 -0.1533 -0.3031 -0.2768
 6841W        W 7041   4.769  13.522   8.961 -0.1924  0.0659  0.1598
 6842W        W 7042   5.548  14.504   6.809 -0.1095  0.1678 -0.1249
 6843W        W 7043  13.449  17.723  15.600 -0.2403  0.0078 -0.2128
 6844W        W 7044  18.083  13.782   5.130 -0.1911 -0.1630  0.0434
 6845W        W 7045   6.132  11.955  13.052  0.0932 -0.5867 -0.1314
 6846W        W 7046   2.994  13.892   7.760  0.1067  0.1126  0.0552
 6847W        W 7047   2.119  13.999  11.138  0.0095  0.0873  0.0240
 6848W        W 7048  16.530  13.534   9.159 -0.2708 -0.1337  0.0026
 6849W        W 7049   6.952   9.725  11.725  0.0350 -0.0754  0.0212
 6850W        W 7050   6.173  13.562   3.966 -0.0636 -0.1835 -0.0145
 6851W        W 7051   7.499   8.631   7.986  0.1390 -0.0884 -0.1417
 6852W        W 7052  15.200  13.417  10.294 -0.1410 -0.2890 -0.0507
 6853W        W 7053   3.450   0.448  11.770  0.0573  0.2741  0.0804
 6854W        W 7054   9.289   0.773  10.776 -0.3215 -0.3016 -0.2178
 6855W        W 7055  15.883  16.583   2.701 -0.1445 -0.2371  0.0548
 6856W        W 7056  14.036  15.483   6.167  0.0383 -0.2003 -0.0993
 6857W        W 7057   5.129  14.851  11.269  0.4717 -0.2477 -0.1403
 6858W        W 7058   0.712  15.775  15.389  0.0385 -0.1844 -0.2146
 6859W        W 7059   2.346   6.617  10.363 -0.1367  0.1621 -0.0829
 6860W        W 7060   6.189   7.189   9.705 -0.0894  0.3311  0.1949
 6861W        W 7061  14.378   0.314   9.789 -0.2494  0.0364 -0.1783
 6862W        W 7062  14.369  15.415  10.369  0.1606  0.0927  0.1274
 6863W        W 7063  10.261  16.356  11.266 -0.0099 -0.0747  0.1970
 6864W        W 7064  18.068  10.067  13.386 -0.0282 -0.0620  0.1924
 6865W        W 7065  12.903   2.010   9.218  0.0926  0.1781 -0.1537
 6866W        W 7066   5.338  10.771  10.530  0.1199 -0.1540 -0.0935
 6867W        W 7067  12.856   9.497  12.807  0.1494  0.1815 -0.1508
 6868W        W 7068  15.527  12.365  14.974 -0.1279 -0.0443  0.4835
 6869W        W 7069  17.017  15.570  12.811 -0.0558  0.2042  0.2859
 6870W        W 7070   8.879  17.517   9.167 -0.2905  0.0484  0.0601
 6871W        W 7071   2.337  13.472   0.515 -0.1262 -0.0095  0.0985
 6872W        W 7072   5.644   2.251  15.069  0.1524  0.1201 -0.0332
 6873W        W 7073   8.756   0.175  11.201 -0.1420 -0.1020  0.2721
 6874W        W 7074   4.672   8.454   4.053 -0.0918 -0.0627 -0.2553
 6875W        W 7075  15.240  14.467  15.082  0.0836 -0.2486  0.0018
 6876W        W 7076  11.937  13.982   4.638  0.1856 -0.3276 -0.0823
 6877W        W 7077   5.336   1.100   7.596 -0.0591  0.0040  0.0613
 6878W        W 7078   4.889   9.319   8.722  0.0079  0.0670  0.0335
 6879W        W 7079   0.884   0.344  10.185 -0.1593 -0.0186  0.1160
 6880W        W 7080  16.832  11.024  17.493  0.0332 -0.0280  0.1626
 6881W        W 7081   1.381  12.263   2.204 -0.0081 -0.0324 -0.1304
 6882W        W 7082  14.915   8.964   7.384 -0.0784  0.2173  0.1305
 6883W        W 7083   0.933   7.436  11.760 -0.1266  0.0410 -0.2179
 6884W        W 7084  12.815   2.326   9.986 -0.0010  0.1989  0.4484
 6885W        W 7085  16.026  16.172   7.848 -0.1716  0.5000 -0.3784
 6886W        W 7086  16.605   9.485   8.199 -0.3402 -0.0410 -0.0782
 6887W        W 7087  14.859  15.214   3.469 -0.0212 -0.3781  0.0275
 6888W        W 7088  17.768  14.812   8.084 -0.0114 -0.1601 -0.1401
 6889W        W 7089  12.320  12.559   7.228 -0.2438  0.1007  0.0395
 6890W        W 7090  16.955   7.359   7.141  0.1132  0.0466 -0.1322
 6891W        W 7091   5.323  10.860   4.987 -0.2270 -0.0184  0.1306
 6892W        W 7092   6.182   2.081   7.682  0.1650 -0.0256  0.1113
 6893W        W 7093   4.938  16.927  14.111 -0.0145 -0.1791 -0.0743
 6894W        W 7094   5.420   1.861   7.046  0.1178 -0.0926  0.1558
 6895W        W 7095  12.603  18.107  11.949 -0.0721 -0.2275 -0.4126
 6896W        W 7096  16.990   8.104   5.041 -0.3658 -0.0376  0.2470
 6897W        W 7097  17.640  10.504  14.146  0.4012 -0.1730  0.0937
 6898W        W 7098  16.615  14.509   7.443  0.2627 -0.1229 -0.2468
 6899W        W 7099  15.720  13.512   3.870  0.2422  0.1675 -0.0612
 6900W        W 7100  13.239   1.890  15.887 -0.1088  0.0751 -0.0754
 6901W        W 7101   0.361   3.092   5.494  0.0648 -0.2257 -0.0803
 6902W        W 7102   7.542  17.490  12.628 -0.0282  0.0477 -0.3045
 6903W        W 7103   5.777  10.835  12.015 -0.2456 -0.0919 -0.1263
 6904W        W 7104   0.061   0.420   2.985  0.0154 -0.0827  0.0401
 6905W        W 7105  16.380   6.864  12.287  0.1253  0.0276  0.2712
 6906W        W 7106  14.059  10.298   8.629  0.2185  0.3193  0.0977
 6907W        W 7107   2.958  12.699   3.459  0.3532  0.0701  0.1037
 6908W        W 7108  13.977   1.328   5.399  0.0567  0.0524  0.0694
 6909W        W 7109   8.671   7.306  11.938  0.1466 -0.0960  0.0505
 6910W        W 7110   8.244   0.239  10.690 -0.2914 -0.1088  0.1799
 6911W        W 7111  10.881   7.320   7.964 -0.2098 -0.1139 -0.0354
 6912W        W 7112   3.464  13.179   6.851  0.1538  0.0826 -0.0394
 6913W        W 7113   1.700  14.758   3.680  0.0782 -0.2265  0.1022
 6914W        W 7114   8.330   9.371  12.095 -0.1661 -0.0722 -0.2098
 6915W        W 7115   3.680   0.146  11.400 -0.1978 -0.1252 -0.0993
 6916W        W 7116   1.597  12.327   9.013 -0.0155 -0.1364  0.1011
 6917W        W 7117  18.063  10.537  14.992 -0.1885 -0.0012  0.2444
 6918W        W 7118   9.638  16.046   9.585 -0.0412  0.0258 -0.1238
 6919W        W 7119   2.128  13.998   8.543  0.3075  0.0476  0.0567
 6920W        W 7120   2.764   9.923  12.603 -0.1583 -0.0620  0.4147
 6921W        W 7121  15.804   9.368  10.688 -0.0394 -0.3674 -0.1109
 6922W        W 7122   7.586   3.790  10.248  0.1780  0.0032 -0.1373
 6923W        W 7123  14.238  10.310  10.124  0.1872  0.2268  0.2423
 6924W        W 7124  12.723  13.336   8.117  0.0957  0.2958 -0.0135
 6925W        W 7125   7.407   7.434   6.223  0.3068  0.0257  0.3387
 6926W        W 7126   1.961  16.060  12.146  0.0189  0.0758  0.1235
 6927W        W 7127  16.343   3.689  11.460 -0.2024 -0.2122 -0.0030
 6928W        W 7128   1.133  13.964   5.293  0.0614  0.2053 -0.3776
 6929W        W 7129   5.580   9.705   5.055  0.0793 -0.2788  0.2336
 6930W        W 7130   0.349   6.193   2.343 -0.4153 -0.4637 -0.0941
 6931W        W 7131   5.509   7.382   2.598  0.0295  0.2625  0.1359
 6932W        W 7132  17.815  14.724  11.531  0.4333 -0.0143 -0.0103
 6933W        W 7133   6.553  16.312   6.209  0.3397 -0.1773  0.3985
 6934W        W 7134   3.869   6.417   5.984  0.0325  0.1849  0.3843
 6935W        W 7135   0.327   8.472  13.297 -0.1995 -0.1063  0.0445
 6936W        W 7136   3.354  13.082   5.842  0.0153 -0.1183 -0.1678
 6937W        W 7137  15.558  10.442   2.816  0.1082 -0.2808  0.0647
 6938W        W 7138  18.175   7.956   4.289  0.2288 -0.0491 -0.1514
 6939W        W 7139   7.353  11.087   6.175  0.0232 -0.2525  0.2696
 6940W        W 7140  15.722   9.804  10.933  0.1144 -0.1275 -0.2454
 6941W        W 7141   6.252  18.167  15.148  0.1375  0.1417 -0.1713
 6942W        W 7142   5.823  11.430  11.100  0.1057 -0.0328  0.0456
 6943W        W 7143   2.915   9.587  13.811  0.1204  0.2035 -0.5006
 6944W        W 7144   2.507  13.750   5.819 -0.1207 -0.2072  0.0240
 6945W        W 7145   7.050  11.537   6.905 -0.3439  0.0031 -0.1113
 6946W        W 7146  11.976  11.914   9.891 -0.1273 -0.2168 -0.2854
 6947W        W 7147   6.539  13.959   6.065  0.0109  0.2306  0.1694
 6948W        W 7148   3.678  16.354  12.785  0.1086 -0.0755  0.2478
 6949W        W 7149   1.601  12.709   6.196 -0.2049  0.1510  0.0692
 6950W        W 7150   0.921  11.633   9.012 -0.1091  0.1269  0.0711
 6951W        W 7151   4.817  15.796  12.766  0.0503  0.1576 -0.0392
 6952W        W 7152   9.838  15.439   8.184 -0.0742  0.1473  0.0904
 6953W        W 7153   1.793   0.424  13.324 -0.1353 -0.1546 -0.1081
 6954W        W 7154  10.854  14.994   2.632  0.0111  0.3680 -0.0546
 6955W        W 7155   1.341  14.325  10.062  0.1168 -0.3665 -0.0299
 6956W        W 7156   2.889   9.436  10.783  0.1488 -0.0035  0.0774
 6957W        W 7157   0.024   2.341  10.210 -0.0149 -0.1107  0.1194
 6958W        W 7158   5.564  11.488  14.471  0.0417 -0.1779  0.0561
 6959W        W 7159   5.527   2.839  15.719  0.0015  0.1490  0.1114
 6960W        W 7160  11.953   5.379  17.375  0.3072 -0.0691  0.2570
 6961W        W 7161  15.511   1.655  12.198  0.0485 -0.0995  0.0494
 6962W        W 7162   1.369  15.554   9.296  0.0579 -0.2852 -0.0432
 6963W        W 7163   0.750  12.127   9.738 -0.0417  0.0628 -0.0747
 6964W        W 7164  13.888  16.000   6.247  0.2063 -0.3056  0.1111
 6965W        W 7165  14.314   9.825   4.356 -0.0933 -0.2717  0.2867
 6966W        W 7166   7.401   9.415   4.070  0.1471 -0.1900  0.0211
 6967W        W 7167   9.365   7.476  11.319 -0.1446 -0.1463 -0.0327
 6968W        W 7168   7.697  15.682   1.991  0.3346  0.1109 -0.1290
 6969W        W 7169   8.630   0.899   8.112  0.0792  0.0939  0.1600
 6970W        W 7170   9.448  13.363  17.381  0.1404  0.0768 -0.2586
 6971W        W 7171   5.353  11.919  11.678 -0.3285 -0.2840  0.1183
 6972W        W 7172  10.675  18.179  11.075 -0.0218 -0.0501  0.2221
 6973W        W 7173  12.921   0.441  12.738 -0.0785 -0.1988 -0.0916
 6974W        W 7174   5.005  15.737   4.683 -0.2203 -0.5102 -0.2068
 6975W        W 7175  17.613  13.500   6.390 -0.3499 -0.0061 -0.1220
 6976W        W 7176   4.815   8.537  10.317  0.2167  0.1592  0.1772
 6977W        W 7177   5.970   8.807   3.195  0.2548  0.3328  0.3063
 6978W        W 7178   0.787  14.199   6.410  0.0446  0.2602 -0.0427
 6979W        W 7179  13.300  10.186   0.349 -0.1744 -0.0456 -0.1668
 6980W        W 7180   5.026   7.120   5.619 -0.0816 -0.1492  0.1356
 6981W        W 7181   0.175  13.619   0.791 -0.0025  0.2024  0.2064
 6982W        W 7182  10.797  14.938  13.049 -0.4142 -0.2992 -0.1714
 6983W        W 7183   2.948  15.137   7.482  0.0013  0.0476 -0.2587
 6984W        W 7184   2.547  17.614   7.894 -0.2840 -0.1923  0.0345
 6985W        W 7185   2.870  10.287   1.993 -0.1717  0.0003  0.1222
 6986W        W 7186   4.850  14.093  10.205 -0.1920  0.1669 -0.1989
 6987W        W 7187   3.947   7.819  11.455  0.1600  0.2125 -0.0534
 6988W        W 7188   0.793  10.160  11.673  0.1728 -0.1633  0.0150
 6989W        W 7189   2.293   8.044   8.467 -0.0049  0.2312 -0.0043
 6990W        W 7190   9.113  15.307   8.446  0.0960 -0.1475 -0.1162
 6991W        W 7191   2.593  13.991   4.191 -0.1498  0.2202 -0.2551
 6992W        W 7192  13.468  11.123  15.490 -0.1143 -0.0338 -0.0871
 6993W        W 7193  15.148  17.665   7.187  0.3353  0.1414 -0.1061
 6994W        W 7194  16.783  12.898   8.441 -0.1702  0.2599 -0.1682
 6995W        W 7195  12.530   9.516   8.557  0.1449 -0.0306  0.0661
 6996W        W 7196   8.612  12.735  13.203 -0.0725  0.1452  0.1766
 6997W        W 7197  14.451   8.549  12.115  0.0381  0.0451 -0.0111
 6998W        W 7198   0.601   5.522  16.381  0.0468 -0.0432 -0.4699
 6999W        W 7199  16.601  15.273  10.646  0.0833  0.0688  0.0438
 7000W        W 7200  16.048  14.295   9.241 -0.0257 -0.0977  0.2435
 7001W        W 7201   1.091  18.101  10.136  0.5683  0.1734 -0.1605
 7002W        W 7202   1.900  12.605   7.415  0.0815  0.3255  0.2499
 7003W        W 7203   3.135  12.013   5.713 -0.2499 -0.1008  0.0292
 7004W        W 7204  15.808  11.742   3.916  0.1444  0.1831  0.1435
 7005W        W 7205   4.226  17.350   5.719  0.0698 -0.0713  0.0928
 7006W        W 7206  10.174  15.817  12.318 -0.0027 -0.0279  0.2617
 7007W        W 7207  15.853  12.582   8.223  0.0118 -0.1155  0.0011
 7008W        W 7208  13.713  16.782  17.695 -0.2558  0.0825  0.0187
 7009W        W 7209   1.035  14.231  11.483  0.1509 -0.0897 -0.0981
 7010W        W 7210   5.821  17.362   7.008  0.2285 -0.2648 -0.2354
 7011W        W 7211   0.837   9.965   0.929 -0.0877 -0.1089 -0.0941
 7012W        W 7212  13.710   6.220   6.058  0.3218  0.1562  0.0110
 7013W        W 7213   0.639   8.648   4.640 -0.0333 -0.1851 -0.1615
 7014W        W 7214   1.380   8.050   9.336 -0.2993 -0.0593 -0.3095
 7015W        W 7215   2.335  13.640   4.573 -0.0252 -0.0134 -0.0324
 7016W        W 7216   3.680  14.878   6.661 -0.0929 -0.1946 -0.1394
 7017W        W 7217   0.802   4.132  10.656  0.0491 -0.2193 -0.3532
 7018W        W 7218  17.901  17.933   6.575 -0.1344 -0.0507  0.1449
 7019W        W 7219   0.860  12.305   5.066 -0.5719  0.1826  0.0879
 7020W        W 7220   1.556  17.543   6.804 -0.0909  0.0317  0.3050
 7021W        W 7221  18.126   1.788  11.571  0.0914 -0.0167  0.2644
 7022W        W 7222   4.191   0.463   9.552 -0.0188  0.3872 -0.1056
 7023W        W 7223  16.991   6.504   4.000 -0.1069  0.1578 -0.1792
 7024W        W 7224   2.210  16.064   1.264  0.0068  0.2598 -0.0165
 7025W        W 7225  13.465   2.194   8.271  0.3941  0.1210  0.2590
 7026W        W 7226  13.142   9.433  11.597 -0.0140 -0.0171  0.1359
 7027W        W 7227  15.951  11.196  12.303 -0.2623 -0.0859 -0.1652
 7028W        W 7228   3.238  10.171   6.456 -0.2352  0.3109  0.0466
 7029W        W 7229   0.597  11.828  11.957 -0.0494  0.1425  0.1055
 7030W        W 7230   5.244  11.135   9.790 -0.0374  0.0545  0.1664
 7031W        W 7231  12.288  14.774   3.354  0.0899 -0.2277  0.1276
 7032W        W 7232  16.115  12.678   7.668 -0.0875  0.1080 -0.0385
 7033W        W 7233   4.525  14.323   7.014  0.1354  0.3014 -0.1551
 7034W        W 7234  15.126  13.219   8.557 -0.1082 -0.1421  0.2162
 7035W        W 7235   9.336   1.042  13.595  0.0511  0.0618 -0.0232
 7036W        W 7236  18.116  11.902   9.889  0.2657  0.1414  0.2113
 7037W        W 7237   9.964   6.275  16.233 -0.0676  0.2015  0.0086
 7038W        W 7238  13.136   2.852  17.502 -0.1570  0.0244  0.2420
 7039W        W 7239   4.746  12.344   3.577  0.1277 -0.0732  0.3151
 7040W        W 7240  10.780   3.270   3.126 -0.1821  0.2277 -0.3476
 7041W        W 7241   4.961  10.384   6.982  0.0932 -0.0702 -0.2015
 7042W        W 7242   9.155  12.901  15.901 -0.1189  0.0215  0.0029
 7043W        W 7243  15.606  10.530   8.601 -0.2182 -0.0938  0.2288
 7044W        W 7244  15.828   6.364   8.259 -0.0693 -0.3267  0.2339
 7045W        W 7245  16.081  18.161  10.296 -0.0203 -0.1933 -0.0168
 7046W        W 7246  14.994  15.374  11.656 -0.1972 -0.0772 -0.1103
 7047W        W 7247   2.235  17.324  12.878 -0.0866 -0.3311  0.0263
 7048W        W 7248   0.237   0.274   5.243 -0.1316 -0.1421  0.2260
 7049W        W 7249   0.022  16.347   6.553  0.1926 -0.3647 -0.0408
 7050W        W 7250   6.350   1.032  11.785 -0.2028 -0.0373 -0.2075
 7051W        W 7251  16.561   6.292   1.915 -0.1252 -0.0812  0.1308
 7052W        W 7252  10.202   8.216   6.910 -0.3438  0.0851 -0.1964
 7053W        W 7253   7.805   0.779   7.650 -0.0741  0.1502 -0.1847
 7054W        W 7254  16.609   7.976  17.528  0.0061 -0.2329 -0.1546
 7055W        W 7255  10.485   1.823   5.801 -0.3401 -0.0895  0.0996
 7056W        W 7256  17.706  12.818  11.890  0.2372 -0.1507 -0.1232
 7057W        W 7257  17.849  15.108  13.727  0.1874 -0.4782  0.3341
 7058W        W 7258   1.725  12.502  11.584 -0.0685  0.0778  0.1318
 7059W        W 7259  15.413  14.260  12.612  0.1468  0.1226 -0.0670
 7060W        W 7260  14.065   6.071  15.434  0.0558  0.1364 -0.0129
 7061W        W 7261  17.466  16.968   2.774  0.2821 -0.0525 -0.0423
 7062W        W 7262   1.122   3.043   9.113 -0.0629  0.2958  0.4846
 7063W        W 7263   4.744  14.482   8.629 -0.4074 -0.1959  0.0643
 7064W        W 7264   1.922   6.421  13.769  0.2270 -0.0023  0.4130
 7065W        W 7265   4.080  11.138   5.650 -0.1285  0.2631 -0.0967
 7066W        W 7266   4.730  12.463   7.461  0.0433 -0.1237  0.1282
 7067W        W 7267  17.559  14.758  13.876 -0.1271  0.0574 -0.0823
 7068W        W 7268   7.481  14.671  18.113 -0.0114  0.0427 -0.1960
 7069W        W 7269   7.786  13.478   7.583  0.2727  0.0882 -0.1331
 7070W        W 7270  17.616  12.204   3.137 -0.0056  0.2133 -0.0343
 7071W        W 7271   4.960   0.962   6.930  0.2210 -0.0129  0.2325
 7072W        W 7272   0.580  16.106   3.694  0.4871 -0.4150  0.1223
 7073W        W 7273   5.097  10.021   1.166 -0.0155 -0.0369  0.0016
 7074W        W 7274  11.779   0.836   9.453 -0.1471  0.1529 -0.0642
 7075W        W 7275   8.409  14.587  14.673 -0.0434  0.0773 -0.0123
 7076W        W 7276   2.038   7.298   6.368  0.1693  0.3869  0.4009
 7077W        W 7277   8.287   6.306  17.076  0.0552  0.1888  0.0528
 7078W        W 7278  16.423   3.631   5.232  0.0292 -0.0069 -0.0296
 7079W        W 7279  15.047  17.434  13.305 -0.1177 -0.0390 -0.0055
 7080W        W 7280   4.014   5.446  15.841  0.0140 -0.3456  0.1704
 7081W        W 7281  18.120  15.563  14.288 -0.0671  0.1753  0.0441
 7082W        W 7282  16.250  10.683   3.341  0.0620  0.0635 -0.3213
 7083W        W 7283  17.543  11.841   3.577  0.0338  0.1181 -0.2175
 7084W        W 7284   9.734  16.454  13.334 -0.0885 -0.0191 -0.2269
 7085W        W 7285   9.199  12.031   1.298 -0.1398  0.2253  0.0640
 7086W        W 7286  17.747  16.456  14.772  0.1857 -0.0556  0.0884
 7087W        W 7287  15.377  14.129   1.090  0.0094  0.1814  0.0477
 7088W        W 7288   0.476  13.695   7.082 -0.0122 -0.0980  0.2171
 7089W        W 7289   1.712  11.137   7.967  0.1048  0.0083  0.1159
 7090W        W 7290  15.096  10.617  10.488  0.0802 -0.3247  0.2579
 7091W        W 7291   3.602  16.862   3.723  0.0399  0.0195  0.1842
 7092W        W 7292   9.273  12.333  13.295  0.4057  0.2141  0.2161
 7093W        W 7293   4.208   3.128  12.688 -0.2679 -0.0680 -0.3985
 7094W        W 7294  11.224   3.044  17.566  0.1602 -0.1753 -0.0859
 7095W        W 7295  17.553   3.656  11.141  0.0487  0.0710 -0.0038
 7096W        W 7296   6.423   9.840   7.373 -0.2428  0.2635 -0.0196
 7097W        W 7297   9.026  12.967   7.034 -0.0879  0.0422  0.1353
 7098W        W 7298  14.835   0.564   3.365  0.0242 -0.1143 -0.2673
 7099W        W 7299   3.925  12.566  13.010  0.1807  0.0705  0.0235
 7100W        W 7300  16.263  12.430   5.241  0.1810 -0.0829 -0.0349
 7101W        W 7301  10.233   9.070   6.477  0.2821 -0.2224  0.0358
 7102W        W 7302   5.061  15.356  12.874  0.0047  0.0905 -0.2600
 7103W        W 7303  16.822  12.438   9.754 -0.2833  0.1317 -0.0924
 7104W        W 7304   2.799  14.297   7.562 -0.1869 -0.0075 -0.2221
 7105W        W 7305   4.183  16.347   8.965 -0.1618  0.3591 -0.3246
 7106W        W 7306  18.112   8.707  13.672 -0.2650  0.1943 -0.0136
 7107W        W 7307  14.437  17.807  12.353 -0.3152  0.0427  0.1031
 7108W        W 7308   0.573   9.997  11.127  0.0585  0.0982  0.3163
 7109W        W 7309  13.965  13.659   5.084  0.1196  0.1068 -0.1130
 7110W        W 7310   0.545   5.810   4.032 -0.1230  0.0360 -0.0250
 7111W        W 7311   4.825  10.532   2.981  0.0838 -0.0418 -0.2924
 7112W        W 7312   5.861  12.571   8.858 -0.0556  0.0758 -0.1038
 7113W        W 7313   2.761   0.811  11.292  0.1619 -0.1549 -0.0444
 7114W        W 7314   3.487   4.709  11.922  0.1384 -0.0378 -0.0607
 7115W        W 7315   7.859  15.918   7.878  0.0093  0.0214 -0.0263
 7116W        W 7316   2.756   9.622   7.474  0.1568 -0.0329 -0.0526
 7117W        W 7317  10.164   5.141   1.616 -0.1133 -0.1913 -0.1788
 7118W        W 7318   9.758  11.397  12.177 -0.0430  0.0849  0.1746
 7119W        W 7319  10.645  14.167   9.963  0.4062  0.0626  0.1942
 7120W        W 7320   1.536  12.059   9.389  0.1463  0.1732 -0.2266
 7121W        W 7321   9.507  17.026   4.856  0.0226 -0.3053  0.2234
 7122W        W 7322  10.477  13.041   6.580  0.0452 -0.2308 -0.2224
 7123W        W 7323  17.620   3.662   7.594  0.1154  0.0778 -0.1302
 7124W        W 7324  17.540  11.641  12.749  0.0626  0.0361  0.0534
 7125W        W 7325   1.707   1.293   5.976  0.0500 -0.0455 -0.1220
 7126W        W 7326  17.229   2.466  12.881 -0.1152 -0.1306  0.3855
 7127W        W 7327  18.159   0.252  11.315  0.1103 -0.3049 -0.0430
 7128W        W 7328   5.338   9.570   8.997  0.2769  0.0007 -0.0031
 7129W        W 7329   2.756  16.990   6.764  0.0167 -0.3526  0.1839
 7130W        W 7330  17.778   6.525   9.424  0.2083 -0.2326 -0.1668
 7131W        W 7331   3.661  13.699  13.336  0.2945 -0.1169  0.1368
 7132W        W 7332   6.379  13.641   9.517 -0.0841  0.0896  0.1059
 7133W        W 7333  17.925  12.373  10.026  0.1418  0.0256  0.3987
 7134W        W 7334  12.424  16.790   5.841  0.3725  0.0873  0.0730
 7135W        W 7335  16.047   6.407  14.151  0.1251  0.1435 -0.0469
 7136W        W 7336   1.659  12.562  11.071 -0.1127 -0.0768 -0.0117
 7137W        W 7337   5.681   7.761  11.023 -0.0135 -0.0929 -0.2654
 7138W        W 7338   3.653  15.132  11.140  0.0307 -0.0812  0.0446
 7139W        W 7339   7.990  12.227   7.156  0.2405 -0.1569  0.1067
 7140W        W 7340  16.748  14.885   9.484  0.0177  0.1080  0.0638
 7141W        W 7341   3.251   1.444   9.874  0.4345 -0.0169  0.1009
 7142W        W 7342   7.303   0.446  10.743 -0.3339  0.0153  0.2228
 7143W        W 7343   5.496  13.705  13.267  0.0520  0.0636  0.0925
 7144W        W 7344  13.635  15.806  10.127  0.2057 -0.0771  0.1757
 7145W        W 7345  15.506  15.575  16.921 -0.2038  0.1062  0.0703
 7146W        W 7346   3.380  11.559  12.591 -0.2192  0.1669 -0.0626
 7147W        W 7347   2.931  12.847   8.255 -0.0019  0.1483  0.0611
 7148W        W 7348   3.352   8.549   4.562 -0.1733  0.0664 -0.0488
 7149W        W 7349   7.629  17.004  15.236 -0.2176 -0.2102 -0.4762
 7150W        W 7350  13.158   8.018   9.437 -0.1098  0.1392 -0.0429
 7151W        W 7351  15.743  10.776   9.569 -0.1517 -0.2288  0.1272
 7152W        W 7352   7.566  10.033  10.456  0.0684 -0.1193  0.1436
 7153W        W 7353   5.461   0.024   5.975 -0.1600  0.1680 -0.0634
 7154W        W 7354  16.742  15.984   7.679  0.1156 -0.2391 -0.5362
 7155W        W 7355  14.226   2.978  14.963  0.1460 -0.0906 -0.1276
 7156W        W 7356   2.629   4.043   6.332  0.0269  0.0460  0.2592
 7157W        W 7357   1.782  16.562  12.193 -0.3798  0.1027  0.1613
 7158W        W 7358   5.308   5.883   1.223  0.1970 -0.1219 -0.2809
 7159W        W 7359   9.132   7.268   8.723 -0.1018 -0.0170 -0.3814
 7160W        W 7360   0.004  12.259   3.087  0.0891  0.1050  0.1848
 7161W        W 7361   2.165  10.933   1.754 -0.1609 -0.0485  0.0835
 7162W        W 7362   8.975   7.931  13.490 -0.1377 -0.0679  0.1524
 7163W        W 7363   9.711   3.209   9.495 -0.0743 -0.1530  0.1948
 7164W        W 7364   2.595  16.968   1.314 -0.0133  0.0247  0.0916
 7165W        W 7365  13.106   6.293   4.497 -0.1042  0.0494 -0.1073
 7166W        W 7366  15.438  10.101   8.762  0.1056 -0.2759 -0.2685
 7167W        W 7367   2.877  14.184  10.850 -0.0944 -0.2700  0.1603
 7168W        W 7368   2.201   5.371   3.345  0.1213 -0.1122 -0.1271
 7169W        W 7369  17.604   5.520   4.631 -0.0483  0.0106 -0.2347
 7170W        W 7370  12.269   7.960   9.583  0.1008 -0.1122 -0.1078
 7171W        W 7371  11.704  12.493  13.435  0.0805 -0.0089  0.0830
 7172W        W 7372   5.421  13.993  16.557 -0.0847  0.4667 -0.1437
 7173W        W 7373  18.015  15.090  17.116 -0.3733 -0.1665 -0.0799
 7174W        W 7374  17.723  11.786   2.676 -0.3234  0.3154 -0.1793
 7175W        W 7375   0.303   2.246   1.340 -0.1340 -0.1030 -0.0710
 7176W        W 7376   3.228   1.559  17.550  0.0963  0.2550 -0.1396
 7177W        W 7377   0.293  13.814   9.710  0.2023 -0.1410 -0.2343
 7178W        W 7378  14.750   1.747  11.086 -0.2282 -0.0425  0.0228
 7179W        W 7379   1.071   1.189  13.198  0.3369 -0.1564 -0.1215
 7180W        W 7380   2.928  12.009   4.521  0.0505 -0.1641 -0.0310
 7181W        W 7381  14.670   6.366  13.680 -0.1567 -0.1198  0.0708
 7182W        W 7382   6.682  10.699  11.642 -0.0856  0.0301 -0.0734
 7183W        W 7383  17.716  10.862  10.782  0.2957 -0.1603 -0.4911
 7184W        W 7384  12.222  15.756   8.275 -0.0774 -0.3803 -0.1048
 7185W        W 7385   4.473  13.445   5.260  0.2124 -0.1948  0.1349
 7186W        W 7386  13.340   0.043  12.944 -0.0780 -0.2917 -0.1447
 7187W        W 7387   9.246  16.338   4.176 -0.0260  0.2765  0.0733
 7188W        W 7388   2.372   8.199  13.941  0.0966 -0.0205 -0.2121
 7189W        W 7389  10.434  16.878  17.556  0.0930 -0.1599  0.0107
 7190W        W 7390   3.741  13.047   3.133 -0.1669 -0.3057  0.2063
 7191W        W 7391   3.999   6.722  16.643  0.2906  0.1118  0.3603
 7192W        W 7392  13.013   9.402  17.477 -0.0442 -0.1765 -0.0201
 7193W        W 7393   0.870  12.392   8.425 -0.1437  0.0490  0.0400
 7194W        W 7394   4.144  17.844  13.596 -0.0800 -0.2690  0.0211
 7195W        W 7395   2.765  12.436  10.273 -0.3223 -0.0615 -0.0312
 7196W        W 7396   1.597   6.666  16.276  0.2285 -0.3288 -0.0788
 7197W        W 7397   8.588   6.235   7.504 -0.2396  0.1955 -0.2897
 7198W        W 7398  17.842  11.990   7.355  0.2146  0.1061  0.0876
 7199W        W 7399   5.750   9.536   8.505  0.2416 -0.0584 -0.2430
 7200W        W 7400   4.126   7.684   2.581  0.2731 -0.0879  0.0175
 7201W        W 7401   1.496  14.697   2.084  0.1473  0.2143  0.5810
 7202W        W 7402   7.322   2.688   6.496 -0.1191 -0.0727 -0.0924
 7203W        W 7403   2.547   7.209   3.268  0.0626 -0.3268  0.0577
 7204W        W 7404  17.997   4.618  13.583  0.1502  0.2782 -0.1016
 7205W        W 7405   0.141   5.373  11.132  0.2322  0.0141 -0.2080
 7206W        W 7406  16.948  14.051  14.355  0.0689 -0.0575  0.1020
 7207W        W 7407   1.028   7.698  16.414  0.0727 -0.0288 -0.1056
 7208W        W 7408  15.591  12.035   6.447  0.0521  0.3414 -0.0538
 7209W        W 7409  16.250  12.639  13.825 -0.1007  0.1070 -0.0313
 7210W        W 7410  13.185  14.569   1.154 -0.2279 -0.0445  0.0279
 7211W        W 7411   5.719  14.976   6.947  0.0240  0.3511 -0.1671
 7212W        W 7412   9.114   6.166   7.671  0.0792  0.0401 -0.0007
 7213W        W 7413   3.103  10.732   5.615  0.2578  0.2796  0.0803
 7214W        W 7414  16.990  16.972   2.847 -0.0161  0.2029 -0.1504
 7215W        W 7415   0.586  17.143   9.361  0.2855 -0.0741 -0.1257
 7216W        W 7416   6.467   0.836   9.980 -0.0985 -0.2454  0.0147
 7217W        W 7417   6.137   9.324   8.234  0.0093 -0.2968 -0.0559
 7218W        W 7418  16.625   9.867  13.353 -0.1411 -0.0408 -0.0779
 7219W        W 7419   5.955   9.987   8.754  0.2119  0.0294  0.1781
 7220W        W 7420   2.855  10.722  11.482  0.0888  0.2220  0.0117
 7221W        W 7421  13.362  15.178  14.673  0.3473  0.0762  0.1364
 7222W        W 7422   3.651   1.685  14.848 -0.1472 -0.3029  0.1096
 7223W        W 7423   1.267   0.706   3.290  0.5154 -0.3491  0.0067
 7224W        W 7424   4.672  13.887   5.134 -0.2270 -0.1891 -0.1835
 7225W        W 7425  16.393  15.603   9.739  0.0403  0.0496 -0.2169
 7226W        W 7426  16.571  15.057   8.903  0.1400  0.2043 -0.0425
 7227W        W 7427  15.960  13.263   5.873 -0.0204  0.2506  0.0508
 7228W        W 7428  14.930  16.384   9.066 -0.1206  0.0424  0.2615
 7229W        W 7429   5.026   7.162  13.576 -0.1590 -0.0097  0.2199
 7230W        W 7430   7.565   1.948  10.128  0.1891 -0.1895 -0.2206
 7231W        W 7431  14.431  17.999   3.854  0.1591 -0.1483  0.1190
 7232W        W 7432   1.480   8.602   7.579 -0.4785  0.2674  0.3176
 7233W        W 7433   8.835  15.714   7.237  0.1582 -0.1237 -0.1875
 7234W        W 7434   4.067   1.790  10.180 -0.0564  0.0264  0.1476
 7235W        W 7435   3.866  17.200   0.006  0.4508 -0.4612  0.2522
 7236W        W 7436   3.030   3.052  11.606 -0.1061  0.0783  0.2667
 7237W        W 7437   2.377  14.788  11.387 -0.0361  0.1819 -0.4364
 7238W        W 7438   5.837   6.169   6.371 -0.1638  0.3033  0.0044
 7239W        W 7439  15.063  15.776  13.718 -0.1540 -0.2528  0.1921
 7240W        W 7440  10.394   5.146   2.161 -0.0065 -0.1286  0.1374
 7241W        W 7441  15.553   5.703  12.294  0.0868  0.1089 -0.0215
 7242W        W 7442   3.714   4.921   3.632 -0.4809 -0.0612 -0.1268
 7243W        W 7443  17.176  12.147  12.408 -0.3056 -0.0283 -0.0553
 7244W        W 7444  14.611  12.652   9.074 -0.0458 -0.0737  0.0507
 7245W        W 7445   9.756   1.498   9.120 -0.0205  0.2956  0.0789
 7246W        W 7446   0.375   9.543  16.271 -0.1657 -0.0341 -0.0548
 7247W        W 7447   5.394   6.875   9.928 -0.1771  0.1387 -0.0935
 7248W        W 7448  16.800   8.758  18.158  0.0806  0.1404 -0.0136
 7249W        W 7449  16.751  13.970  13.655  0.3043 -0.4198 -0.0338
 7250W        W 7450   1.116   9.819  15.518  0.0215  0.0088 -0.1785
 7251W        W 7451   6.293  17.240   8.719 -0.4381 -0.2274 -0.6619
 7252W        W 7452   5.419   1.342  12.213  0.1654 -0.0265 -0.2110
 7253W        W 7453  18.063  14.690  13.625 -0.2892 -0.0273 -0.0255
 7254W        W 7454   1.704  10.935   8.653  0.1861  0.0024 -0.2676
 7255W        W 7455   9.231  14.659  12.883 -0.0399  0.0065 -0.3672
 7256W        W 7456  17.788  17.819   0.654 -0.0975 -0.0949 -0.0216
 7257W        W 7457   8.078  15.940  14.335  0.1481  0.0710 -0.1111
 7258W        W 7458  16.949  10.081  17.427  0.0434 -0.0863  0.1811
 7259W        W 7459  16.963  16.798  14.318  0.1717 -0.0467 -0.0138
 7260W        W 7460   4.838  12.487   8.964  0.0311  0.2953 -0.2804
 7261W        W 7461  10.531   2.883  15.936 -0.1506 -0.0038  0.1147
 7262W        W 7462  16.003  13.551  16.363  0.0164  0.1246 -0.0029
 7263W        W 7463   3.545  16.679   8.433  0.1496 -0.0718  0.0060
 7264W        W 7464   8.757  12.771   8.332 -0.0780 -0.0363  0.1535
 7265W        W 7465   0.351   8.670   6.459  0.1639 -0.1112  0.0584
 7266W        W 7466   6.203  12.470  13.853 -0.2431 -0.0535  0.3002
 7267W        W 7467   3.507  17.735  10.841  0.0305  0.0048  0.0914
 7268W        W 7468   3.093  16.785  10.508 -0.2007 -0.0900  0.2524
 7269W        W 7469  17.769   6.510  17.168  0.2314 -0.0247 -0.0134
 7270W        W 7470   2.694   6.312   7.584 -0.2776  0.2093 -0.0288
 7271W        W 7471  17.927   9.499   9.576  0.0167  0.0678  0.0292
 7272W        W 7472  17.032   0.071  12.855 -0.3170  0.1255  0.0544
 7273W        W 7473  17.101  14.225   8.351  0.2889  0.0769 -0.2345
 7274W        W 7474   0.817   2.605   6.735  0.2569 -0.0725 -0.0277
 7275W        W 7475   0.586  14.951  13.357 -0.0319  0.0685 -0.3695
 7276W        W 7476  16.631  12.709   9.342 -0.0879 -0.0823  0.2449
 7277W        W 7477   4.641   4.538   3.494  0.2415  0.2035  0.1403
 7278W        W 7478   4.812   9.245   4.362 -0.0667  0.0884 -0.1366
 7279W        W 7479   2.426  17.479   8.621 -0.0554 -0.0099  0.4338
 7280W        W 7480  17.817  15.761   6.670  0.0559 -0.0669  0.1375
 7281W        W 7481  12.545  11.589  14.475 -0.0711 -0.2427  0.1272
 7282W        W 7482   6.804  17.181   8.311 -0.0221  0.1455  0.0519
 7283W        W 7483   3.467  17.222  16.346 -0.1287  0.0847 -0.0810
 7284W        W 7484   7.186   9.235  14.728  0.1170  0.0283  0.0038
 7285W        W 7485   5.839   7.035   5.358 -0.3501 -0.2554 -0.2463
 7286W        W 7486   8.084  16.959  17.635  0.0578 -0.1623  0.1048
 7287W        W 7487  13.847  12.353  16.480  0.4667  0.1340 -0.1131
 7288W        W 7488  10.685  14.234   4.811 -0.1120 -0.3390  0.1743
 7289W        W 7489  17.493  16.138   7.184  0.1649  0.0443  0.3084
 7290W        W 7490  14.562   9.300  11.275 -0.1044  0.2734 -0.2124
 7291W        W 7491   0.676   2.912   9.297 -0.2183 -0.1871 -0.0973
 7292W        W 7492   0.971  17.460  13.844  0.2706 -0.2787 -0.0725
 7293W        W 7493  18.115  15.267   9.040  0.2427 -0.0051 -0.2033
 7294W        W 7494   1.871  10.116   2.836 -0.0336  0.2130  0.0230
 7295W        W 7495   9.711  15.563  17.669 -0.3505 -0.1703 -0.0338
 7296W        W 7496   2.068  10.178  17.584  0.0585  0.1659  0.2799
 7297W        W 7497  11.144  12.729  11.634 -0.0372  0.1414 -0.1008
 7298W        W 7498  11.653  13.279  12.582  0.2518  0.0321 -0.2913
 7299W        W 7499   0.095   2.421  16.255 -0.1496 -0.0551  0.1146
 7300W        W 7500  17.404   6.955  13.721 -0.1566 -0.3372  0.0951
 7301W        W 7501  17.233  12.027  13.671 -0.0519  0.1155 -0.1292
 7302W        W 7502  18.176  14.791  17.639 -0.0017  0.0865 -0.1367
 7303W        W 7503   1.548  14.087   7.642 -0.1682 -0.4736 -0.1650
 7304W        W 7504   2.543   7.168   8.918  0.2138 -0.1399  0.2003
 7305W        W 7505  13.928  11.380   6.465 -0.1375  0.0611 -0.0860
 7306W        W 7506   1.207   2.545  15.339 -0.1422 -0.0107 -0.2059
 7307W        W 7507   0.747  14.251   0.104 -0.2011 -0.0796 -0.1066
 7308W        W 7508  15.444  16.439  17.241 -0.2077  0.2468 -0.0104
 7309W        W 7509   7.336  15.874   8.074  0.3727 -0.0687 -0.1842
 7310W        W 7510   4.431  14.330   3.478 -0.1836 -0.0708  0.1910
 7311W        W 7511   4.565  16.805  15.677  0.0020  0.1513 -0.0931
 7312W        W 7512   8.001  17.519   5.989 -0.0801  0.2248 -0.1100
 7313W        W 7513   7.378   4.180  12.514 -0.4596  0.0535 -0.2052
 7314W        W 7514  17.213  13.149  17.659  0.0488  0.0237  0.2600
 7315W        W 7515   8.736  14.541   4.181  0.1049  0.1541 -0.1564
 7316W        W 7516  12.445  15.338  16.002  0.1352 -0.1570  0.3096
 7317W        W 7517  13.692   8.451  12.126  0.0176 -0.0997  0.1318
 7318W        W 7518   4.109  13.738   9.518 -0.0428  0.2248 -0.2295
 7319W        W 7519   2.510   6.115   9.095 -0.0788 -0.2577 -0.1012
 7320W        W 7520  11.497  16.474  13.360 -0.0291 -0.0704 -0.3193
 7321W        W 7521  13.767   6.672   7.328  0.4215 -0.0063 -0.0177
 7322W        W 7522  11.665  17.074  11.979  0.0704 -0.0215 -0.2293
 7323W        W 7523  15.599  17.087  17.514  0.0120 -0.0489  0.1206
 7324W        W 7524   1.442   7.261  14.232 -0.0478  0.2752  0.1279
 7325W        W 7525   7.760   5.412   5.281 -0.2072  0.0409  0.0811
 7326W        W 7526   7.437   1.827   6.710 -0.0764 -0.1613  0.3227
 7327W        W 7527   0.747   7.198   8.116  0.2633 -0.3805 -0.1316
 7328W        W 7528   5.641  15.743   5.174 -0.3943  0.0011  0.1980
 7329W        W 7529   0.446   7.012  15.924  0.0882 -0.2214  0.1615
 7330W        W 7530   3.020  14.081   8.708  0.3184 -0.0897 -0.3831
 7331W        W 7531  11.285   0.224  13.523  0.0170 -0.0107 -0.0561
 7332W        W 7532   7.272  12.546  15.160 -0.0242 -0.0345 -0.2724
 7333W        W 7533   5.749   8.530  13.915 -0.0079  0.3531  0.3161
 7334W        W 7534  18.166  17.062   5.539  0.0978 -0.0883 -0.0773
 7335W        W 7535   8.684  12.055   3.314 -0.1086  0.1879  0.1428
 7336W        W 7536   1.622  10.084   7.774 -0.1155  0.0407 -0.0012
 7337W        W 7537   4.549  12.764   3.458  0.0886 -0.1774 -0.1102
 7338W        W 7538   2.248   9.330   8.582 -0.1873  0.0720  0.1391
 7339W        W 7539  16.607   9.732   7.794  0.2290 -0.4255  0.0166
 7340W        W 7540   3.256  11.834  11.118 -0.1482 -0.1716  0.2415
 7341W        W 7541   1.882  14.554   5.242  0.0726 -0.0325 -0.4076
 7342W        W 7542   6.487   3.554  15.238 -0.1041  0.1823  0.3196
 7343W        W 7543  12.016  12.701   2.530 -0.0122 -0.1391 -0.1912
 7344W        W 7544  16.503  15.938   8.602  0.1780  0.0371  0.0900
 7345W        W 7545  14.740  13.038  15.267  0.3194 -0.3486 -0.0339
 7346W        W 7546   2.142   4.798  11.873  0.1464 -0.0134 -0.0940
 7347W        W 7547  16.769  16.754   6.071  0.0385 -0.1320  0.3543
 7348W        W 7548   3.203   7.711  10.355  0.0240 -0.2734  0.1542
 7349W        W 7549  14.403   8.478   3.545 -0.1244 -0.1826 -0.0675
 7350W        W 7550  16.957  16.262   2.060 -0.1553  0.0315  0.1269
 7351W        W 7551  18.178  17.993  12.123  0.0466  0.0768 -0.1390
 7352W        W 7552  13.450  12.699   7.156  0.1042  0.2211 -0.1485
 7353W        W 7553   0.706  13.705   6.591  0.1252 -0.1464  0.0229
 7354W        W 7554   0.665  11.157   3.938  0.0706  0.2663 -0.3474
 7355W        W 7555  15.094   5.846   9.618 -0.1198  0.1869  0.0928
 7356W        W 7556  11.273  10.995   9.472 -0.1778 -0.1021  0.1385
 7357W        W 7557   5.746   1.255  10.781  0.2306  0.2084 -0.0431
 7358W        W 7558   4.961   8.559   8.267  0.0225  0.1560  0.0424
 7359W        W 7559   6.011  15.263   9.980 -0.3281 -0.0612  0.1342
 7360W        W 7560   5.863   0.843  10.260  0.0442 -0.0153  0.4526
 7361W        W 7561  10.454   0.636  10.114 -0.1634  0.2127 -0.5790
 7362W        W 7562   2.081  13.124  15.432 -0.0622  0.4043 -0.1136
 7363W        W 7563   5.017  16.133   7.158 -0.0795  0.1853  0.1685
 7364W        W 7564   1.274  12.248   0.673  0.0075 -0.3630 -0.0041
 7365W        W 7565   6.913   9.761  10.581 -0.0179  0.3190  0.1599
 7366W        W 7566   6.075  11.282  11.854 -0.0195  0.0365  0.0641
 7367W        W 7567  14.446  10.370   9.658  0.0874 -0.0003 -0.1329
 7368W        W 7568   9.438  18.092  12.350  0.0780 -0.0955  0.4369
 7369W        W 7569   3.043  15.794  10.759 -0.2120  0.0244 -0.3383
 7370W        W 7570   2.474  12.778  11.198  0.3116 -0.1616  0.1655
 7371W        W 7571   3.276  12.568  10.058 -0.4681  0.1090 -0.2966
 7372W        W 7572   2.866  17.743  10.225 -0.0217  0.0269 -0.2680
 7373W        W 7573   4.619   4.020  10.931 -0.3624  0.0405 -0.0875
 7374W        W 7574  12.042  16.983  10.025  0.0644 -0.0735  0.0002
 7375W        W 7575  17.084   6.574   8.854 -0.3461  0.2736 -0.0835
 7376W        W 7576  17.702  11.841   6.298  0.1441  0.2519  0.2450
 7377W        W 7577  10.354   9.567  17.599 -0.1190 -0.3152  0.1471
 7378W        W 7578   2.228  13.833   7.120 -0.0181  0.3466 -0.0010
 7379W        W 7579  17.105  12.532  18.093  0.0724 -0.0794 -0.1806
 7380W        W 7580   1.562   1.939   0.630 -0.2014 -0.0351  0.3987
 7381W        W 7581  15.146  15.918   1.906 -0.1276 -0.1396  0.1853
 7382W        W 7582   2.793  10.119   8.087  0.0873 -0.0861  0.2629
 7383W        W 7583  15.111  14.988  13.879 -0.3391  0.3926 -0.3296
 7384W        W 7584  16.627  11.252  13.290 -0.0842 -0.1031 -0.1707
 7385W        W 7585  10.379  15.982  10.342  0.2070  0.2166 -0.0378
 7386W        W 7586  15.138   8.850   3.266 -0.1511 -0.0534  0.1102
 7387W        W 7587   3.978  12.619   9.019  0.3448  0.0180  0.1678
 7388W        W 7588   7.397   1.641  16.885 -0.3423  0.2423 -0.0086
 7389W        W 7589   0.380   0.336  10.510 -0.0952  0.0333 -0.1341
 7390W        W 7590   6.915   0.830   3.344  0.0087 -0.0425  0.3416
 7391W        W 7591   2.731  10.355  13.453  0.1897  0.2863  0.0975
 7392W        W 7592   5.352  16.050   4.961  0.0120 -0.0059  0.0185
 7393W        W 7593  17.356  11.076   6.315 -0.1009 -0.2159 -0.1457
 7394W        W 7594  16.820   5.977  14.317 -0.0358 -0.0536  0.0772
 7395W        W 7595   6.007  13.976   3.751  0.0446 -0.0727  0.0892
 7396W        W 7596  11.433  14.353  17.108  0.1761 -0.5254 -0.1272
 7397W        W 7597  17.983   1.911  14.133  0.2029  0.2028 -0.2107
 7398W        W 7598  10.699  10.661   7.711  0.2139 -0.2827 -0.2334
 7399W        W 7599   4.977  17.737  14.105  0.4572  0.1118 -0.0443
 7400W        W 7600  15.382  11.873  16.855 -0.2068 -0.0147 -0.0314
 7401W        W 7601   2.052  17.437  11.984 -0.3287 -0.4780 -0.0987
 7402W        W 7602  16.656   9.763   7.228  0.1141  0.3575  0.3089
 7403W        W 7603   0.933  12.547   3.153 -0.3881  0.1968 -0.0215
 7404W        W 7604   2.790  14.058  17.928 -0.0014  0.0992 -0.1174
 7405W        W 7605  17.434   9.976  14.021 -0.1813  0.0995  0.2856
 7406W        W 7606  13.920  12.381   9.712 -0.0934  0.0983 -0.1315
 7407W        W 7607  16.870  14.341   7.926 -0.1965  0.0262 -0.0690
 7408W        W 7608   6.641  14.900  16.576  0.1070 -0.2295 -0.1096
 7409W        W 7609  14.953  13.921  13.296 -0.1709  0.1779 -0.2956
 7410W        W 7610   2.250   3.328  11.348  0.0767 -0.1308  0.2130
 7411W        W 7611   4.320  14.139  12.572  0.1324 -0.0607  0.1867
 7412W        W 7612  13.700  15.347  10.379  0.1521  0.0477 -0.0242
 7413W        W 7613  10.843  17.494  14.478 -0.1710  0.0177  0.0875
 7414W        W 7614  15.858   9.941  10.369  0.3728  0.0834  0.2800
 7415W        W 7615   1.411  10.858   9.477  0.2326  0.0299  0.0110
 7416W        W 7616   3.150  12.074  17.727 -0.4200  0.1126  0.1620
 7417W        W 7617   8.148  13.356  12.056 -0.1419  0.2747  0.0864
 7418W        W 7618  14.233  14.630  14.541  0.1744 -0.1025 -0.2777
 7419W        W 7619  13.150   3.421  10.783 -0.0165  0.2773  0.0807
 7420W        W 7620   0.561  13.963   8.726  0.1285 -0.0508  0.0206
 7421W        W 7621   4.781   6.811  11.463  0.1600 -0.0283  0.0790
 7422W        W 7622  17.500  14.967  14.406  0.0408 -0.0668  0.0210
 7423W        W 7623  13.555  10.552  14.500  0.1099 -0.0245 -0.2563
 7424W        W 7624   0.346   7.493  16.671 -0.0229 -0.0412 -0.3639
 7425W        W 7625   3.490   1.637   6.343  0.2667 -0.2078  0.1961
 7426W        W 7626  16.180  11.069   5.719 -0.2606 -0.0385  0.0435
 7427W        W 7627  14.068  13.303  12.212  0.4236  0.1046 -0.2797
 7428W        W 7628   6.926  11.863  17.709 -0.0441 -0.0515  0.0949
 7429W        W 7629   2.400  16.112   8.036  0.0910  0.0196 -0.1201
 7430W        W 7630   4.804  16.929   7.433  0.1530  0.0620  0.2804
 7431W        W 7631   8.818  16.220   7.001  0.1271 -0.0211  0.3088
 7432W        W 7632   4.888  15.141   7.936 -0.0473 -0.1646 -0.0697
 7433W        W 7633  12.518  10.283   5.847 -0.1980  0.1154  0.0725
 7434W        W 7634   6.154   2.004   8.818  0.2341 -0.0760 -0.3473
 7435W        W 7635  10.967   8.151   3.047  0.2485 -0.0920  0.1543
 7436W        W 7636  11.362   2.254   8.207  0.3557 -0.0599  0.2865
 7437W        W 7637   1.463   5.307  14.465 -0.2370 -0.2733  0.0825
 7438W        W 7638   4.236  12.806   3.043 -0.3870  0.0239  0.0481
 7439W        W 7639  17.157  10.459   9.416 -0.2957 -0.1856 -0.4042
 7440W        W 7640   0.269   6.204   8.131  0.1796  0.2704  0.1145
 7441W        W 7641  16.639   1.265  15.949 -0.2135  0.0798 -0.2956
 7442W        W 7642  17.888  17.108   7.523  0.0844 -0.0783 -0.2772
 7443W        W 7643  17.686   4.051   2.483  0.1562  0.0699  0.0202
 7444W        W 7644   3.985  10.392  12.076 -0.1258  0.2158 -0.2117
 7445W        W 7645   0.419   5.402   6.295  0.1354  0.0803 -0.0247
 7446W        W 7646  16.829  16.378  15.292  0.1528  0.1259 -0.0309
 7447W        W 7647  17.266  13.314  13.134 -0.1346 -0.0346  0.1848
 7448W        W 7648   0.502  12.789   7.615  0.0982  0.0262 -0.3027
 7449W        W 7649   1.857  11.441   7.521  0.1216 -0.1536  0.3334
 7450W        W 7650  10.049   9.174   3.146 -0.2709  0.1214  0.0571
 7451W        W 7651   0.052   5.244  12.385  0.3147 -0.1630  0.0127
 7452W        W 7652   4.288  11.329   8.332  0.1727  0.1946  0.0478
 7453W        W 7653  13.497  13.265   6.465 -0.0327  0.0481  0.0078
 7454W        W 7654  17.339   9.632  12.187  0.0400 -0.0885  0.1808
 7455W        W 7655  10.160   6.196   5.256 -0.1921  0.0017  0.1267
 7456W        W 7656  15.378   5.905  10.586  0.0864  0.1709  0.0131
 7457W        W 7657  17.601  11.053   8.693 -0.1959  0.3124 -0.1781
 7458W        W 7658   1.072   3.427  14.730 -0.1960 -0.2328  0.3075
 7459W        W 7659   0.624  14.672   7.530  0.0048  0.0775 -0.0321
 7460W        W 7660   4.534  15.237  10.477  0.0616 -0.1143 -0.0443
 7461W        W 7661  16.032  14.080   9.783  0.0825  0.1795  0.1084
 7462W        W 7662   0.497  10.589  13.948  0.3277 -0.6254 -0.2086
 7463W        W 7663  11.412   9.945  13.652 -0.0847 -0.2227  0.1547
 7464W        W 7664   0.232  16.077   4.074 -0.2229 -0.0670  0.1177
 7465W        W 7665   6.994  12.632   2.077 -0.1815  0.0099 -0.3205
 7466W        W 7666  15.815   0.700  14.882 -0.2030 -0.4068  0.2140
 7467W        W 7667   2.909  16.283   3.046  0.0430 -0.4553  0.0599
 7468W        W 7668   9.326  17.303  17.016 -0.0109  0.0644  0.0097
 7469W        W 7669   6.660  12.548  11.890 -0.0652 -0.1057  0.2070
 7470W        W 7670  16.240  10.820   9.646 -0.2742 -0.2781  0.0047
 7471W        W 7671   2.552  15.610   8.308 -0.0272 -0.3806  0.1242
 7472W        W 7672  11.284  11.544  14.002 -0.0230 -0.4158  0.0074
 7473W        W 7673   4.344   5.336   0.284  0.2707 -0.3072  0.3875
 7474W        W 7674  16.244   3.723  10.084 -0.2009  0.0337 -0.0258
 7475W        W 7675   4.357   3.070  16.538 -0.1024  0.0388 -0.0774
 7476W        W 7676   4.585  10.424  14.609 -0.0551  0.0700  0.0118
 7477W        W 7677   8.534  11.139   9.537  0.1706 -0.1246 -0.2231
 7478W        W 7678  16.308   0.897   2.148  0.2555 -0.0481 -0.0204
 7479W        W 7679   5.046   4.804   9.164 -0.2891  0.0076  0.1585
 7480W        W 7680   4.028  10.718   6.380  0.0483  0.1052  0.3669
 7481W        W 7681  18.061   2.428   0.057  0.1528  0.0339 -0.0363
 7482W        W 7682  12.262  10.497  10.223  0.1699 -0.0359 -0.2020
 7483W        W 7683   2.088  14.869   7.432 -0.0437 -0.5920 -0.0832
 7484W        W 7684   0.773   8.424   2.356  0.0621  0.0906 -0.3355
 7485W        W 7685   2.485   0.320  15.817  0.0371 -0.2312 -0.0432
 7486W        W 7686   4.478   0.104   9.810 -0.3345 -0.0168  0.0190
 7487W        W 7687   4.996  14.147  16.940 -0.0505  0.1032 -0.2670
 7488W        W 7688  12.965  12.146  15.182 -0.1329  0.0782 -0.1207
 7489W        W 7689   0.154  14.050   7.795  0.1506 -0.2285 -0.3049
 7490W        W 7690  11.795  15.465   9.987 -0.2792  0.3338  0.1195
 7491W        W 7691   4.677  15.544   5.615  0.4562  0.0467  0.2841
 7492W        W 7692   8.323  14.185   5.773 -0.3903 -0.0326 -0.0578
 7493W        W 7693   4.614  10.262  11.957  0.0682  0.1417 -0.4589
 7494W        W 7694  14.503  13.592   9.038  0.2735  0.0351 -0.2762
 7495W        W 7695   7.688  11.570   9.542 -0.3256  0.0478  0.0513
 7496W        W 7696  18.042   5.422  12.888 -0.1621 -0.1944  0.0933
 7497W        W 7697  17.193   8.585   2.777  0.1928  0.0284  0.0553
 7498W        W 7698  12.720  12.384  16.482  0.2662 -0.0844 -0.0006
 7499W        W 7699   0.982  17.933  16.760 -0.0204  0.0362  0.1503
 7500W        W 7700  15.397  17.321   9.145  0.0843  0.0899  0.3377
 7501W        W 7701   2.994  13.637  15.114  0.0318  0.0346  0.0665
 7502W        W 7702  13.097   9.237  13.586  0.0330  0.0286 -0.1506
 7503W        W 7703  10.753  10.070  11.941  0.4988  0.2289  0.0824
 7504W        W 7704   3.706  10.334  13.948  0.0706  0.2815  0.2680
 7505W        W 7705   9.881  11.332   2.292  0.1214 -0.0193  0.2475
 7506W        W 7706   3.072   7.001  15.142 -0.1326 -0.2668 -0.0698
 7507W        W 7707   7.779  13.354  12.360  0.0318  0.1891 -0.1807
 7508W        W 7708  15.971   0.410  15.310 -0.0721 -0.0166  0.2065
 7509W        W 7709  14.590   4.167  16.128 -0.0164 -0.1829  0.1779
 7510W        W 7710   0.429  13.785  15.854 -0.0829 -0.1414  0.0394
 7511W        W 7711   2.926   9.092   6.056 -0.1512  0.1886  0.1660
 7512W        W 7712   1.822  13.301  15.860  0.2494  0.2511 -0.2595
 7513W        W 7713   2.480  14.169   2.396 -0.2637 -0.0497  0.2926
 7514W        W 7714   7.927   9.869  16.808 -0.1220  0.0655 -0.0569
 7515W        W 7715  15.545  14.395  17.314  0.2517  0.1818 -0.3783
 7516W        W 7716  17.073   8.026  17.640 -0.3625  0.4735  0.2777
 7517W        W 7717  12.671  10.033  14.529 -0.1235  0.0765  0.0463
 7518W        W 7718  15.414  17.659   2.932  0.0514 -0.0168  0.2118
 7519W        W 7719   0.661  15.827  12.312 -0.0913 -0.0989  0.1324
 7520W        W 7720  12.693  14.366  14.724 -0.0978 -0.2575  0.1419
 7521W        W 7721  13.136  10.527  12.280  0.1191 -0.0108 -0.0909
 7522W        W 7722   1.835  18.155  10.963 -0.0124  0.3486 -0.2819
 7523W        W 7723   1.240  16.567   5.282  0.0708 -0.2469 -0.3543
 7524W        W 7724  17.181   1.834  17.812 -0.1040 -0.2020 -0.0801
 7525W        W 7725   3.431  15.252   8.347 -0.2322 -0.1423  0.0152
 7526W        W 7726   8.463  14.369  10.996 -0.0376  0.0881 -0.0438
 7527W        W 7727   2.152  10.709  11.571 -0.1335 -0.0026  0.1648
 7528W        W 7728   3.446   2.904  10.635  0.1029 -0.0879 -0.2236
 7529W        W 7729   9.984  15.043  15.474 -0.0067 -0.0848 -0.0995
 7530W        W 7730   3.317  16.190  11.802 -0.1734  0.3214 -0.0019
 7531W        W 7731   1.609  11.124  14.792 -0.0004  0.1680 -0.0242
 7532W        W 7732  12.220  11.361  17.852 -0.1745 -0.0069  0.0245
 7533W        W 7733  13.389  11.892  12.914  0.1568 -0.0013  0.0888
 7534W        W 7734   0.640  14.072  12.956 -0.0202  0.2209 -0.1703
 7535W        W 7735  13.531   7.362  13.476 -0.0867  0.0188 -0.3445
 7536W        W 7736   8.791   9.249  15.530 -0.1182  0.3421  0.1855
 7537W        W 7737   2.401  16.374  16.846  0.1722 -0.2488 -0.3902
 7538W        W 7738   4.849   6.710   9.745 -0.2874  0.0775 -0.0099
 7539W        W 7739   1.464   1.042  14.924 -0.2320 -0.0172 -0.1231
 7540W        W 7740  15.542   9.402   6.537 -0.1981  0.0444 -0.2139
 7541W        W 7741  11.746   9.061  16.664 -0.0788 -0.2040 -0.1113
 7542W        W 7742   0.366  10.930  12.953 -0.0447  0.1942  0.3776
 7543W        W 7743   3.666   9.390   5.186  0.0030  0.5182  0.1957
 7544W        W 7744  14.056  10.374  10.680  0.2920  0.0761 -0.0437
 7545W        W 7745  16.944   0.352   8.320 -0.3267 -0.2229 -0.2667
 7546W        W 7746  14.287  16.136  10.561  0.1295  0.0427 -0.2063
 7547W        W 7747   5.560  12.055  16.087  0.1469  0.0411 -0.2785
 7548W        W 7748  14.459   9.010  11.894  0.3254 -0.1536  0.1303
 7549W        W 7749   5.538   8.410  12.424 -0.1072 -0.2128 -0.0905
 7550W        W 7750  12.452  14.849   4.383 -0.2648  0.2431  0.0625
 7551W        W 7751   3.723   7.847  13.395 -0.1389 -0.4209  0.1683
 7552W        W 7752  14.545   4.895   6.866 -0.1519 -0.0158 -0.1242
 7553W        W 7753   8.902  16.172  13.739 -0.1097  0.2092  0.0247
 7554W        W 7754   2.744  17.565  13.829 -0.2998 -0.0511 -0.0990
 7555W        W 7755  13.442   3.345   6.837  0.2038 -0.0409 -0.1536
 7556W        W 7756   5.549   9.440   9.475  0.1754 -0.1000  0.0922
 7557W        W 7757   9.052  11.227  16.744  0.2610 -0.5520  0.0335
 7558W        W 7758   3.664   7.225   0.814  0.1650 -0.1460 -0.0167
 7559W        W 7759   6.406  16.117   0.175 -0.0381  0.2523 -0.0061
 7560W        W 7760   1.200   0.806   6.782 -0.1862 -0.0799 -0.1495
 7561W        W 7761   2.924   5.186  16.951  0.1096  0.2930 -0.1498
 7562W        W 7762   4.043  17.092   4.576 -0.0365 -0.2400  0.2690
 7563W        W 7763  13.200   4.503  16.568 -0.0874 -0.3199  0.1538
 7564W        W 7764  16.124  14.461  12.054  0.0188 -0.0257  0.2014
 7565W        W 7765   1.795  10.951  10.719  0.4589 -0.2349  0.4270
 7566W        W 7766   6.769  13.125   3.889  0.0122 -0.2537  0.0343
 7567W        W 7767   2.438  16.292  15.129 -0.0840 -0.0363  0.0268
 7568W        W 7768  13.919  16.140   2.483 -0.1761 -0.0893  0.0016
 7569W        W 7769   5.165  12.267  14.752  0.1334 -0.0140 -0.0491
 7570W        W 7770  16.193   0.264  12.963 -0.0587  0.0056 -0.0196
 7571W        W 7771   0.798   4.248   8.611 -0.1177 -0.1113  0.0223
 7572W        W 7772   0.330  12.299  14.659  0.0967  0.2650 -0.0158
 7573W        W 7773   7.039  12.890   9.839  0.1369 -0.1696 -0.0810
 7574W        W 7774   2.030   0.652  15.816 -0.1036 -0.0968 -0.0488
 7575W        W 7775   0.213  17.399  14.440 -0.0989  0.3743  0.3496
 7576W        W 7776   4.422  13.059  10.534 -0.0296  0.2103  0.3518
 7577W        W 7777  17.739  11.477  14.899 -0.3141 -0.0402 -0.0772
 7578W        W 7778   1.975   1.052  10.216  0.1890  0.0036  0.1323
 7579W        W 7779   9.181  13.504   9.654 -0.1208 -0.1277 -0.0616
 7580W        W 7780   0.340   8.644  11.444 -0.1793 -0.0681 -0.0693
 7581W        W 7781  11.046  10.268  16.317 -0.1841  0.3129  0.1008
 7582W        W 7782  15.043  15.030  11.319 -0.2022 -0.3289  0.2901
 7583W        W 7783   0.865  13.878  16.790  0.0651  0.0719 -0.0298
 7584W        W 7784   1.362  10.120  10.616  0.1787 -0.1400 -0.2855
 7585W        W 7785  11.417  16.797  13.741  0.2611  0.0966 -0.0441
 7586W        W 7786  14.941  11.167  17.243  0.0246 -0.2468  0.1967
 7587W        W 7787  12.797  13.506  14.074 -0.0099  0.2997 -0.2647
 7588W        W 7788   9.354  17.639   7.975  0.5891 -0.2218 -0.2292
 7589W        W 7789   3.244  16.147  12.792 -0.0468 -0.0366 -0.1063
 7590W        W 7790   5.472  14.936  15.440  0.1699  0.1348  0.0055
 7591W        W 7791   4.775  17.720   9.085  0.0653  0.1646 -0.1226
 7592W        W 7792  10.732  12.409  16.893  0.1408  0.2912  0.2532
 7593W        W 7793  16.667  11.350   3.686  0.0127 -0.0377  0.1720
 7594W        W 7794   4.093  10.785  11.600  0.0929  0.2839  0.1227
 7595W        W 7795   8.555   9.779  11.904  0.1722  0.1623  0.0901
 7596W        W 7796  10.249  17.055   9.934  0.1647  0.2033 -0.1474
 7597W        W 7797  17.604  16.370  12.920  0.3104 -0.0472 -0.3063
 7598W        W 7798  16.744   0.208  16.925 -0.2938 -0.2040 -0.1479
 7599W        W 7799  14.090   9.987   8.278 -0.0040  0.0500  0.1772
 7600W        W 7800   4.360  15.331  11.800 -0.1681  0.2865 -0.1657
 7601W        W 7801   5.735   9.558   0.003 -0.0920  0.2916 -0.5942
 7602W        W 7802   0.203   4.534  14.905 -0.2490  0.0849 -0.0014
 7603W        W 7803  12.477   7.146  13.452 -0.1798 -0.1982 -0.0856
 7604W        W 7804   1.652  15.773  14.683  0.2117  0.2618 -0.1616
 7605W        W 7805   1.736  15.611  15.153 -0.0177  0.4096 -0.1688
 7606W        W 7806  16.990   7.499  15.743  0.3614  0.0117 -0.1347
 7607W        W 7807   1.376  16.325  10.789 -0.0985 -0.0323  0.3032
 7608W        W 7808  12.024  12.192   9.457 -0.0954 -0.0297  0.0043
 7609W        W 7809   2.664   4.857   6.036  0.0659  0.2018  0.0904
 7610W        W 7810   1.901   5.875   7.479 -0.1712 -0.0567  0.1640
 7611W        W 7811   1.577  13.323   8.424  0.0773  0.0931 -0.4827
 7612W        W 7812   8.090  16.477  10.300  0.0679 -0.0177  0.0979
 7613W        W 7813   2.636  13.762   8.420 -0.0810  0.1286  0.0488
 7614W        W 7814   2.961  11.032   6.582  0.0291 -0.1933 -0.2819
 7615W        W 7815   9.286   8.199   6.940 -0.2644 -0.1090  0.1908
 7616W        W 7816  14.753   6.255  14.235  0.0185  0.0907 -0.1532
 7617W        W 7817   1.306   0.889  10.418  0.4256 -0.0243  0.2783
 7618W        W 7818  10.617   7.887  17.726  0.2892 -0.1822  0.3385
 7619W        W 7819   0.990  15.450  11.088 -0.1331 -0.0469  0.1939
 7620W        W 7820   1.896  13.637   8.192  0.0464  0.1633  0.0513
 7621W        W 7821  17.258  13.904  11.950 -0.0541  0.0341 -0.0509
 7622W        W 7822  13.264  10.328   2.936 -0.0238  0.0360  0.0614
 7623W        W 7823   6.409   0.766  10.678 -0.2282 -0.0520  0.2213
 7624W        W 7824  18.123   8.853   8.488 -0.3916  0.0315 -0.4204
 7625W        W 7825   3.201  12.226  12.024  0.1152 -0.0870  0.1367
 7626W        W 7826   7.502   5.013  11.669  0.0390  0.2267  0.0381
 7627W        W 7827   0.636   2.852   7.211  0.1624  0.1902  0.0750
 7628W        W 7828  14.203   6.055  12.474  0.0671 -0.1483  0.2184
 7629W        W 7829  17.702  14.797  16.277  0.0608  0.1091  0.3579
 7630W        W 7830  14.923  16.913  15.539  0.0982  0.0997 -0.0108
 7631W        W 7831  12.155  12.391   4.322  0.1275 -0.3072 -0.0687
 7632W        W 7832  16.197  11.723  16.870  0.3042  0.1901  0.1992
 7633W        W 7833  13.890  12.392  14.150  0.0911  0.0994  0.1544
 7634W        W 7834  10.001  11.269  17.038  0.1746  0.2113 -0.2224
 7635W        W 7835  13.690  11.907   0.998 -0.2504 -0.2421 -0.0798
 7636W        W 7836  17.683  17.436  11.180 -0.1288  0.1857  0.0528
 7637W        W 7837  13.197  13.487  14.600 -0.3476  0.0718 -0.1949
 7638W        W 7838   0.290  14.517   9.523  0.4206 -0.0672 -0.1205
 7639W        W 7839   0.951  17.480  15.013 -0.1280  0.2306 -0.4312
 7640W        W 7840   8.921  10.387   3.900  0.1826 -0.1233 -0.0694
 7641W        W 7841  14.937   0.127  12.670 -0.2419 -0.1742  0.1775
 7642W        W 7842   6.536   7.692  10.189 -0.1884 -0.0479 -0.2628
 7643W        W 7843  11.450  14.506   1.945  0.0635  0.1160 -0.1242
 7644W        W 7844  17.400   3.650   9.847  0.0432 -0.3848 -0.0360
 7645W        W 7845   3.307  14.363   1.736 -0.2130  0.2231  0.2463
 7646W        W 7846   9.993   8.164   0.543  0.4371  0.0934  0.0177
 7647W        W 7847  17.103  12.761   9.476 -0.2035 -0.1097  0.2185
 7648W        W 7848   4.433  18.128  16.490 -0.1842 -0.3817  0.0331
 7649W        W 7849   1.982  12.024   8.867 -0.2686 -0.3248  0.1533
 7650W        W 7850  12.074  15.674   2.914  0.2878 -0.2774 -0.1523
 7651W        W 7851   4.082  14.558  13.308 -0.2379 -0.2375  0.1767
 7652W        W 7852  16.471  10.220  15.155  0.0222 -0.0613  0.1528
 7653W        W 7853  13.871  15.304  17.461 -0.1088 -0.1048 -0.1067
 7654W        W 7854  14.930  15.772  17.001 -0.2902 -0.0274 -0.0008
 7655W        W 7855   5.823   8.968  16.837  0.1002 -0.0317  0.3585
 7656W        W 7856   8.075  17.396  16.792  0.0928 -0.2349  0.0899
 7657W        W 7857   8.338   7.441   7.714  0.1815  0.3525 -0.2591
 7658W        W 7858   0.676  12.703  12.917 -0.1672  0.2382  0.2518
 7659W        W 7859   4.039   5.144  11.035  0.1911  0.1864  0.1384
 7660W        W 7860   9.915  13.359   0.058  0.1635 -0.0541 -0.2352
 7661W        W 7861   2.127  13.974  15.159 -0.5379  0.1280 -0.1732
 7662W        W 7862   1.264  18.070   3.397 -0.2128 -0.0300  0.1763
 7663W        W 7863   9.285   7.683   1.674  0.1585  0.1027 -0.1274
 7664W        W 7864   2.455  16.599  12.797 -0.1710 -0.0357  0.1925
 7665W        W 7865  15.366   9.656  12.974 -0.0293 -0.1429 -0.1785
 7666W        W 7866   3.975   6.158   2.854  0.0385  0.0543 -0.2005
 7667W        W 7867  16.579   0.688  10.398  0.0882  0.0453  0.3927
 7668W        W 7868  14.685  13.144   8.138 -0.1433  0.2413 -0.1511
 7669W        W 7869  17.488   7.629  15.845  0.0427  0.0974  0.1946
 7670W        W 7870   2.823  13.387   7.899  0.0425  0.0276 -0.1549
 7671W        W 7871   1.473  15.653  17.491  0.0987  0.1711 -0.0822
 7672W        W 7872   0.153  15.616  12.069 -0.0633 -0.0538 -0.1002
 7673W        W 7873   8.337  10.711   3.960 -0.2265 -0.0208  0.1638
 7674W        W 7874   2.369  12.250  12.355  0.1323  0.0498  0.2821
 7675W        W 7875   3.965   0.729   0.104  0.0721 -0.1875 -0.0712
 7676W        W 7876   1.813  15.032  13.216  0.2035 -0.0794  0.3842
 7677W        W 7877  17.577  11.699  17.346 -0.1470 -0.0396 -0.1128
 7678W        W 7878  13.241  15.688  14.762  0.0676  0.0088  0.0187
 7679W        W 7879  17.906  11.646  13.444  0.0041 -0.1187 -0.0129
 7680W        W 7880   6.739  13.388   4.688 -0.1102 -0.3673  0.1584
 7681W        W 7881   2.520  14.817   3.387 -0.1579 -0.0049  0.0386
 7682W        W 7882  11.814   4.180  13.087 -0.1370  0.1924 -0.5229
 7683W        W 7883  17.579   8.408  12.245  0.3647 -0.2509 -0.1514
 7684W        W 7884   1.512   1.039  17.259  0.0415 -0.1783  0.1071
 7685W        W 7885  16.782  14.803  17.884 -0.2313  0.0152 -0.0237
 7686W        W 7886   1.980   9.715  14.977 -0.0391  0.0192  0.4337
 7687W        W 7887   6.689  16.416   5.733  0.2524  0.1318  0.1862
 7688W        W 7888   5.593   9.902   4.145 -0.1159 -0.1670  0.2363
 7689W        W 7889   3.793   0.245   7.679  0.0713  0.2877 -0.1715
 7690W        W 7890   2.296   2.315  10.420  0.2359 -0.0346 -0.2678
 7691W        W 7891  14.519   5.944  14.694 -0.2106 -0.0181  0.1123
 7692W        W 7892  17.318  11.048   3.416  0.1295  0.0746 -0.0665
 7693W        W 7893   2.383  17.138   7.076  0.0068  0.2209 -0.1831
 7694W        W 7894   4.210  14.956  12.745  0.1605 -0.1971 -0.0448
 7695W        W 7895   3.085   9.171   0.965  0.0562 -0.1023 -0.1837
 7696W        W 7896   0.723   4.726   5.814  0.1946  0.0249 -0.2506
 7697W        W 7897  13.767   8.697  14.004 -0.3421 -0.1392  0.1225
 7698W        W 7898   8.028  17.111  14.145  0.0008 -0.1019  0.1635
 7699W        W 7899   1.050  14.746   8.165 -0.1571 -0.0769  0.0506
 7700W        W 7900   4.085  10.285  13.556  0.3574  0.1245  0.0437
 7701W        W 7901  18.113   4.573   5.159  0.1977  0.1290 -0.0254
 7702W        W 7902   3.855  17.970  12.349  0.0232  0.2181  0.0523
 7703W        W 7903  12.874   4.230  14.449 -0.0203 -0.3213  0.0593
 7704W        W 7904   3.174  10.326  12.662  0.1310 -0.1395  0.0335
 7705W        W 7905   3.235  10.338  10.633  0.0076 -0.0480  0.0972
 7706W        W 7906   3.667  13.793   6.059 -0.2232 -0.2755  0.2123
 7707W        W 7907  13.694   7.305  15.096 -0.2443  0.1321  0.1019
 7708W        W 7908  14.123  15.276   6.724 -0.2439  0.2231  0.1246
 7709W        W 7909   9.891  13.799  14.949  0.0218 -0.1949 -0.0563
 7710W        W 7910  14.700   0.597  17.961 -0.1590 -0.1095 -0.1467
 7711W        W 7911   1.549   4.171  15.172 -0.1640 -0.0036 -0.2279
 7712W        W 7912   0.026  12.483  13.731  0.3437 -0.1737 -0.0923
 7713W        W 7913  17.449  14.471   0.562  0.0574 -0.2234  0.0545
 7714W        W 7914  16.168  14.589   2.467  0.1864 -0.2318 -0.0714
 7715W        W 7915  16.114   8.191   0.920  0.1127  0.4048 -0.0734
 7716W        W 7916   2.418   1.338   1.495 -0.0522  0.1418  0.0515
 7717W        W 7917  17.595  13.592  12.407  0.0556 -0.2399  0.1420
 7718W        W 7918  17.972  16.506  11.989 -0.3703 -0.2513 -0.4650
 7719W        W 7919  17.130  13.948   7.930  0.0039  0.0018 -0.0390
 7720W        W 7920  14.924   7.529  18.005  0.0893 -0.0973  0.0419
 7721W        W 7921   3.700  15.726   5.319 -0.0149 -0.1742 -0.0010
 7722W        W 7922  17.206  13.891   2.854  0.2780  0.2403 -0.1202
 7723W        W 7923   7.923   6.460   6.238 -0.0213 -0.1258  0.4622
 7724W        W 7924   2.515   7.226  17.386  0.1589  0.0691  0.0804
 7725W        W 7925  10.098  11.876   1.131  0.0806 -0.1270  0.1046
 7726W        W 7926   9.399  11.477   6.578 -0.2162  0.2856 -0.0136
 7727W        W 7927   1.978  12.991   2.656  0.1510 -0.0041 -0.2127
 7728W        W 7928   3.072  10.230  15.357 -0.1251 -0.0648  0.1679
 7729W        W 7929  15.369   8.222  11.359  0.0279 -0.1322  0.0801
 7730W        W 7930   0.259  10.395  11.799 -0.0914  0.3592  0.0695
 7731W        W 7931  12.473  11.578  13.332  0.0443  0.1448 -0.1310
 7732W        W 7932  15.225   6.846   2.885  0.3461  0.1421  0.1292
 7733W        W 7933   3.540   7.396  13.489  0.3219 -0.0711  0.0070
 7734W        W 7934   1.829  11.458  16.388 -0.1300  0.0702  0.0705
 7735W        W 7935  17.977   8.351   4.466  0.3228  0.0660 -0.0552
 7736W        W 7936  16.488  14.568  14.972  0.0083  0.0357  0.1414
 7737W        W 7937  17.297  13.081  16.795 -0.0687  0.0203  0.1578
 7738W        W 7938   0.103  10.636  13.596 -0.0554  0.1060 -0.0619
 7739W        W 7939   2.543  14.047  12.180  0.1334 -0.1973 -0.1280
 7740W        W 7940  16.225   9.771   0.151 -0.1874 -0.0250 -0.1212
 7741W        W 7941  17.358  16.601   9.925 -0.0848  0.0489  0.0053
 7742W        W 7942   4.792   1.444   1.972  0.0263  0.3605 -0.2942
 7743W        W 7943  14.908  11.559   0.154  0.0016  0.0077  0.1194
 7744W        W 7944  11.325  14.923  12.221  0.0616 -0.2422 -0.2751
 7745W        W 7945   3.840  15.324  15.911  0.1685  0.3605 -0.3182
 7746W        W 7946   2.869  17.070  11.807 -0.0234  0.2481  0.2566
 7747W        W 7947  14.130  13.405   7.153 -0.3390 -0.0807 -0.4597
 7748W        W 7948  17.717  13.653  16.058  0.4086 -0.1022 -0.2630
 7749W        W 7949   0.196   6.844  15.526 -0.1592  0.1558 -0.1411
 7750W        W 7950  17.452  16.071  10.718  0.0072  0.1024  0.2941
 7751W        W 7951  16.687  14.871   2.313  0.0061  0.0228  0.3382
 7752W        W 7952   9.079   3.250  15.299  0.1842 -0.0096  0.4024
 7753W        W 7953   9.372   0.595   0.758  0.2539  0.0281  0.0588
 7754W        W 7954  17.998   3.958   7.665 -0.0536 -0.2400  0.1818
 7755W        W 7955   7.101   6.491  13.524  0.2214 -0.0166  0.1528
 7756W        W 7956   9.270   0.085   9.870  0.4023 -0.0878 -0.2166
 7757W        W 7957   4.033  12.697  14.759  0.2373  0.2181 -0.0467
 7758W        W 7958  14.841  14.432   9.174  0.1086 -0.2072  0.0548
 7759W        W 7959   7.789   7.436   0.787 -0.1266 -0.0673  0.0391
 7760W        W 7960  17.722  16.813  11.528 -0.1587 -0.2014  0.1356
 7761W        W 7961  14.838   8.115  10.607  0.0829 -0.4170  0.0336
 7762W        W 7962   4.061  16.864   7.727 -0.1853  0.1045  0.2109
 7763W        W 7963   3.931  16.370  13.633  0.2083  0.2944 -0.0619
 7764W        W 7964   0.605   8.973  17.031  0.0110  0.1841 -0.0661
 7765W        W 7965  15.077  11.219  15.123 -0.4647 -0.0846  0.0293
 7766W        W 7966   9.692  14.396   2.184 -0.0228 -0.0694  0.0466
 7767W        W 7967   1.809  14.169   0.948  0.1164  0.1366  0.0309
 7768W        W 7968  15.483  12.170  15.967 -0.0369  0.0591  0.3147
 7769W        W 7969  11.801  12.118  16.595  0.0518  0.0984 -0.1639
 7770W        W 7970  10.465  16.473  12.624 -0.0264  0.1929  0.2867
 7771W        W 7971   2.160  13.728  16.508 -0.0213 -0.1793  0.0346
 7772W        W 7972  16.691  10.797  16.677 -0.1624  0.1006 -0.4024
 7773W        W 7973  14.550   8.154   3.157 -0.3625  0.2150 -0.2177
 7774W        W 7974   1.905  16.852  12.760 -0.1303  0.1775  0.2431
 7775W        W 7975   2.589  10.463  15.500 -0.2722 -0.0264  0.1084
 7776W        W 7976  16.821  14.347  18.036 -0.0494 -0.2127 -0.0229
 7777W        W 7977   2.107  14.569  16.983  0.2257  0.2717 -0.1555
 7778W        W 7978   0.318  16.190  17.076  0.3324  0.3374 -0.1284
 7779W        W 7979  12.301  10.461  15.741 -0.1673  0.1529 -0.2360
 7780W        W 7980  17.538  13.601   4.577  0.3436  0.1009  0.2399
 7781W        W 7981  14.171  12.406  14.584 -0.0418  0.2028 -0.1218
 7782W        W 7982  17.083  15.981  14.618  0.1363  0.0930  0.1652
 7783W        W 7983  14.916  17.459  11.330 -0.2107  0.1416  0.1935
 7784W        W 7984  13.367   9.309  10.464 -0.1045 -0.4003 -0.3280
 7785W        W 7985  14.408  16.329  16.807  0.2272 -0.0070 -0.0999
 7786W        W 7986   4.648  10.363   8.775 -0.1537  0.0233 -0.1585
 7787W        W 7987   0.548   1.164  11.141  0.0258 -0.1983  0.2808
 7788W        W 7988  16.595  12.827  18.095  0.0904 -0.3431  0.0130
 7789W        W 7989   3.867   0.235  14.809  0.0767 -0.0081  0.2889
 7790W        W 7990   0.263  10.968  15.430 -0.1697  0.3145  0.0632
 7791W        W 7991  16.724   0.900  15.534 -0.0112 -0.1362  0.1997
 7792W        W 7992   0.193   0.164  16.443  0.0077  0.0421  0.0389
 7793W        W 7993  15.433  13.228  13.473  0.0546 -0.0185  0.0897
 7794W        W 7994   0.850  13.706   2.338  0.0584  0.0732  0.0225
 7795W        W 7995   1.646  13.447  11.478 -0.0563  0.3625 -0.0100
 7796W        W 7996   9.149  16.261  12.878 -0.1245 -0.0848 -0.2962
 7797W        W 7997   2.676  14.841  13.314 -0.0986 -0.3088  0.0179
 7798W        W 7998  16.213   9.565  13.604 -0.2827 -0.2597 -0.3677
 7799W        W 7999  16.098   6.657   3.401  0.0523 -0.0885  0.0497
 7800W        W 8000   4.729  10.275  14.144 -0.1427  0.4222  0.1842
 7801W        W 8001   2.914  13.325   0.770 -0.3469 -0.0794  0.1482
 7802W        W 8002   8.346  16.547  14.800 -0.1951 -0.0179  0.1481
 7803W        W 8003   0.340   8.718  15.041  0.0131  0.2262 -0.1369
 7804W        W 8004  17.524   4.589  11.347 -0.0196 -0.1064  0.1090
 7805W        W 8005   1.360   5.817  13.475 -0.1502 -0.2240 -0.0572
 7806W        W 8006  14.953   1.030  17.283  0.1394  0.0945 -0.0448
 7807W        W 8007  15.023   0.213  13.579  0.0428  0.0757  0.1044
 7808W        W 8008   3.368  11.879  13.026 -0.2389  0.0433 -0.0932
 7809W        W 8009  10.897   9.262   2.427  0.2900  0.0092 -0.1433
 7810W        W 8010  11.877  11.437   1.222  0.4408 -0.0679 -0.0301
 7811W        W 8011  10.920   9.603  16.888 -0.2000  0.2227 -0.0081
 7812W        W 8012   1.492   1.557  12.282  0.0994  0.3839  0.0259
 7813W        W 8013   7.574   2.071  16.209  0.0414 -0.0904  0.1410
 7814W        W 8014   5.477  16.836  12.005 -0.2754  0.0283  0.2378
 7815W        W 8015   9.166  11.003  17.809  0.2982 -0.2376 -0.1458
 7816W        W 8016   2.148   7.694  14.375 -0.1820  0.0580  0.0181
 7817W        W 8017   2.929   7.048   0.953  0.1453  0.0453 -0.1258
 7818W        W 8018   1.881   0.331   0.840 -0.0736  0.0014 -0.0539
 7819W        W 8019   2.914  16.300  16.901 -0.4722 -0.0688 -0.0643
 7820W        W 8020  17.343  14.561   8.021 -0.2604 -0.0440  0.0024
 7821W        W 8021  15.502  16.818   8.422 -0.2417  0.2415 -0.1550
 7822W        W 8022  17.323  13.160   8.504  0.1762  0.2389 -0.3172
 7823W        W 8023   2.811  10.746   3.930  0.2571 -0.1043 -0.0888
 7824W        W 8024   3.079   4.047   2.479  0.0976  0.2908  0.0953
 7825W        W 8025   1.828   9.017  17.027 -0.2325  0.3372  0.2632
 7826W        W 8026   0.619  13.842   1.388 -0.0620  0.2377 -0.1861
 7827W        W 8027   2.987  12.993   2.301  0.0885 -0.0385 -0.0261
 7828W        W 8028   0.735   6.896   8.599 -0.2137 -0.0985 -0.0868
 7829W        W 8029   8.359   7.456  18.135  0.1462 -0.0208  0.1395
 7830W        W 8030   5.920  16.095   2.915  0.2834 -0.0632 -0.2195
 7831W        W 8031  17.700   8.470  18.141 -0.2823 -0.0369 -0.2595
 7832W        W 8032   7.993  15.463   7.681  0.0590  0.0513  0.1955
 7833W        W 8033  12.002   7.055   0.895 -0.3540 -0.5301  0.1432
 7834W        W 8034   9.891  10.764   7.269  0.1470 -0.1877  0.3758
 7835W        W 8035  17.055  12.067  10.569  0.4337  0.2824  0.1146
 7836W        W 8036  13.528   8.356   1.292  0.0896 -0.0468 -0.0323
 7837W        W 8037   0.746   9.214  16.586  0.2073 -0.1568 -0.0195
 7838W        W 8038  15.792   6.071   8.778 -0.2565  0.2389  0.0611
 7839W        W 8039   9.654  10.869  12.944 -0.2286 -0.1225  0.0714
 7840W        W 8040  17.347   5.868   0.076  0.0114  0.1542 -0.2931
 7841W        W 8041  16.683  17.712  14.680  0.2381 -0.1649 -0.0744
 7842W        W 8042  15.105  10.879   2.718 -0.1439  0.0133  0.1014
 7843W        W 8043   5.388  15.515  14.673  0.1060  0.3802  0.2683
 7844W        W 8044  10.678  16.575  14.898 -0.4837 -0.2694 -0.0622
 7845W        W 8045   0.346  13.927  12.068 -0.2234 -0.3135 -0.0253
 7846W        W 8046   4.645  17.318  14.808  0.4588  0.1290 -0.0094
 7847W        W 8047  17.601  10.842  11.691  0.0352 -0.0006 -0.4411
 7848W        W 8048   2.609   8.757   9.686  0.2933 -0.0117  0.2124
 7849W        W 8049  12.860  14.629  16.553 -0.0110 -0.2051 -0.0827
 7850W        W 8050   2.394  13.225  17.985 -0.4203 -0.2037 -0.0113
 7851W        W 8051  11.903  12.435  14.843 -0.0208 -0.1815 -0.2415
 7852W        W 8052   5.213   3.404  14.488 -0.0712  0.0013  0.0347
 7853W        W 8053   1.423  10.428  12.794  0.3203 -0.2208  0.0063
 7854W        W 8054   4.418  10.318   9.805 -0.4309 -0.2979  0.1301
 7855W        W 8055  16.202  13.767   0.088 -0.1270 -0.3062  0.2570
 7856W        W 8056  11.775  16.479   4.004 -0.0331 -0.0814 -0.0802
 7857W        W 8057  14.078   5.819  14.973 -0.0323 -0.3410 -0.1321
 7858W        W 8058   2.558  14.820   6.672 -0.0263 -0.0888 -0.1802
 7859W        W 8059   3.655  17.898   2.182  0.1409 -0.0278 -0.0977
 7860W        W 8060   1.575  11.262  12.346 -0.2488  0.0168 -0.0536
 7861W        W 8061   2.421  11.902  13.718  0.2891  0.0727 -0.4768
 7862W        W 8062  15.559   8.698  14.303  0.1140  0.1328 -0.0930
 7863W        W 8063   1.320  12.821   7.362 -0.2569  0.1020 -0.3375
 7864W        W 8064   8.161  10.491   7.831 -0.0203  0.1054  0.1799
 7865W        W 8065   5.590  10.426  12.327  0.0758  0.1856 -0.1295
 7866W        W 8066   7.102  10.164  15.250 -0.1371 -0.3770 -0.1652
 7867W        W 8067   3.037   6.360  16.077 -0.0956  0.1518  0.1075
 7868W        W 8068   4.723  18.111   8.772  0.2841  0.3175  0.2130
 7869W        W 8069   0.987   6.930  14.365 -0.0516 -0.1118  0.0137
 7870W        W 8070   1.528   8.962   5.964 -0.0108 -0.1650  0.0205
 7871W        W 8071   9.336  12.210   8.823  0.1232  0.1494 -0.0528
 7872W        W 8072   9.051  15.936   1.936 -0.0716  0.1218  0.1739
 7873W        W 8073  15.777  11.172  15.842 -0.0435 -0.2453 -0.2994
 7874W        W 8074  17.870  16.166  15.841 -0.0804 -0.0827 -0.0593
 7875W        W 8075  14.917  12.967   1.681 -0.0823 -0.2180 -0.0539
 7876W        W 8076  16.150  10.912  15.508  0.0651 -0.0804  0.2024
 7877W        W 8077  18.145  15.848   1.067  0.3539  0.1881 -0.1251
 7878W        W 8078   3.751   6.924  13.327  0.1877  0.0331  0.0118
 7879W        W 8079  18.163   7.491  10.242  0.3800 -0.2793  0.0704
 7880W        W 8080  13.288  16.923  13.639  0.2718  0.0325  0.0958
 7881W        W 8081   4.411   9.308   2.198  0.0098  0.1424 -0.1714
 7882W        W 8082  11.639   8.458  16.396 -0.0383 -0.0036  0.0820
 7883W        W 8083   2.415   8.038  16.043  0.0817 -0.2423 -0.1063
 7884W        W 8084   3.265  13.285  18.132 -0.1097 -0.4154  0.0520
 7885W        W 8085   4.436  11.198  15.668  0.2526  0.0706 -0.2027
 7886W        W 8086  13.527   3.864   1.632  0.1643  0.0655  0.2448
 7887W        W 8087  15.543  10.006  12.024  0.2709  0.0406 -0.0012
 7888W        W 8088  15.156   1.386  14.896 -0.0626 -0.2184 -0.2807
 7889W        W 8089   1.421   2.460  17.576  0.2450 -0.2009 -0.1687
 7890W        W 8090  16.325  15.321   4.948  0.0696  0.0999 -0.0519
 7891W        W 8091   2.393  15.465  12.206 -0.0762 -0.2374 -0.0296
 7892W        W 8092  10.022  11.993  15.280  0.0097  0.4705  0.0834
 7893W        W 8093   7.354  11.440  14.632  0.3030 -0.2545  0.2896
 7894W        W 8094   7.719   8.898  17.863  0.5284  0.1597  0.0305
 7895W        W 8095  15.792   9.113  16.678  0.0623  0.0093 -0.0316
 7896W        W 8096  17.463  16.180  17.592  0.0120 -0.0647 -0.0936
 7897W        W 8097   4.497  13.248  11.005  0.2808 -0.0721 -0.1403
 7898W        W 8098   2.510  17.833  12.915 -0.2376 -0.2464 -0.0872
 7899W        W 8099  11.134  12.250  13.216 -0.1158 -0.0082  0.2239
 7900W        W 8100  13.826  11.878  13.190  0.0343 -0.3790 -0.0523
 7901W        W 8101   1.187  17.028  17.229 -0.0040 -0.0750  0.1220
 7902W        W 8102   5.812  17.467  13.872  0.1631  0.1657  0.1395
 7903W        W 8103  12.904   1.432   3.065  0.1831 -0.0224 -0.0114
 7904W        W 8104   3.847  10.626  14.352 -0.0486 -0.4638 -0.2703
 7905W        W 8105   4.135  15.061   2.003 -0.0008 -0.0361  0.2339
 7906W        W 8106  18.072  11.524   2.483  0.1021 -0.0662 -0.0128
 7907W        W 8107  12.251  12.355  16.277 -0.1335 -0.3291 -0.4522
 7908W        W 8108  16.180  17.629  12.050 -0.0596  0.3127  0.1887
 7909W        W 8109   3.297  17.270   7.706 -0.2154 -0.1030 -0.0362
 7910W        W 8110   3.513   1.263   1.780 -0.0154  0.0298 -0.1926
 7911W        W 8111   9.981  13.754  17.189 -0.0763  0.0070 -0.1802
 7912W        W 8112  17.223   3.139   2.196 -0.1276  0.0645 -0.0125
 7913W        W 8113   6.893   0.574   7.228  0.1270 -0.1358 -0.0871
 7914W        W 8114  12.514  12.213   0.261 -0.2844 -0.0163 -0.0200
 7915W        W 8115   4.519  11.316  12.858 -0.1963 -0.1297 -0.1501
 7916W        W 8116  12.947  14.269   0.547  0.1250 -0.0199  0.1419
 7917W        W 8117   0.646  16.495   4.006 -0.1668 -0.0938 -0.1577
 7918W        W 8118   5.300  13.993   7.480 -0.2790  0.1256 -0.1532
 7919W        W 8119   6.485  10.237   5.293 -0.1728 -0.0794  0.2126
 7920W        W 8120   0.762  11.446  15.535 -0.1849  0.3049 -0.1645
 7921W        W 8121  11.536  10.327  17.855  0.1243 -0.1830  0.3117
 7922W        W 8122  17.774  12.839  14.453  0.0897  0.0462  0.2887
 7923W        W 8123   5.140  16.159  16.100 -0.1632  0.0807  0.0098
 7924W        W 8124  16.803  12.811  17.671  0.0655  0.1294  0.2627
 7925W        W 8125   0.447  10.481  10.814 -0.1787 -0.1496 -0.1889
 7926W        W 8126  15.029  17.033   4.509  0.1897  0.2113  0.1496
 7927W        W 8127   1.238   5.717   2.398  0.0802 -0.0396 -0.1414
 7928W        W 8128   4.224   6.641  18.017  0.2954 -0.0876 -0.0042
 7929W        W 8129   1.081  16.782  14.905  0.4229 -0.0614  0.2719
 7930W        W 8130   7.951  17.212  13.402  0.0847  0.3000  0.1859
 7931W        W 8131   8.762  12.228  13.887  0.2428  0.1288  0.1927
 7932W        W 8132  12.939   9.831   9.334 -0.0783 -0.1489 -0.1564
 7933W        W 8133  16.688  11.316  14.357  0.3041  0.1898  0.1518
 7934W        W 8134  16.581  13.583  15.037 -0.0772  0.4163 -0.2243
 7935W        W 8135   5.733   0.348  13.585 -0.2275 -0.3186  0.2670
 7936W        W 8136  14.091  10.667  16.009  0.1725  0.0382  0.0611
 7937W        W 8137  17.922   8.320  15.494 -0.1799 -0.0481  0.1986
 7938W        W 8138  16.414   4.146  10.421 -0.0902  0.2654 -0.1670
 7939W        W 8139   1.776  10.654   2.852  0.1290  0.1612 -0.0101
 7940W        W 8140   2.033  13.596  13.253  0.1451  0.0077  0.5109
 7941W        W 8141   5.061  10.352  17.159 -0.0128  0.5736 -0.2232
 7942W        W 8142   7.228   9.668  13.250 -0.2713  0.1424  0.1522
 7943W        W 8143   2.196  11.198   1.314 -0.1207 -0.0066  0.1026
 7944W        W 8144   7.526  11.688  16.110  0.1065  0.0984  0.0034
 7945W        W 8145   1.349   1.904   0.159 -0.0614 -0.3884  0.0468
 7946W        W 8146   2.123  15.750   4.740 -0.1220  0.1836  0.2781
 7947W        W 8147  14.442  18.172   5.196  0.2365 -0.0407 -0.4225
 7948W        W 8148  13.923  10.175   2.041 -0.1986  0.0269  0.2245
 7949W        W 8149  16.865   6.351  15.649  0.4167 -0.0796  0.1599
 7950W        W 8150  13.988   0.112   0.224  0.0885  0.2308 -0.2995
 7951W        W 8151   6.288  10.835  15.924  0.1388 -0.0760 -0.2952
 7952W        W 8152   0.306  11.560   9.055 -0.2704  0.1330 -0.2790
 7953W        W 8153  15.748  16.550   8.053 -0.0322  0.2323  0.1947
 7954W        W 8154  17.691  15.261  10.823  0.3034  0.1752 -0.0504
 7955W        W 8155   3.623   9.209  10.554 -0.4497 -0.0206  0.2688
 7956W        W 8156  16.710  17.310  10.225  0.0666  0.2360 -0.0713
 7957W        W 8157   0.311  12.641  16.228  0.1206  0.0255 -0.1412
 7958W        W 8158  16.910   0.741   0.441  0.0179  0.2034  0.0007
 7959W        W 8159  17.111   1.113  16.349 -0.0672  0.0243  0.0981
 7960W        W 8160  15.572  14.234  14.263  0.0014  0.0919  0.0088
 7961W        W 8161   2.407   0.080   9.351  0.2565  0.3712 -0.0103
 7962W        W 8162  14.042   9.686   7.904  0.1098  0.0265 -0.1826
 7963W        W 8163   8.468   6.660   0.381 -0.1455 -0.1989  0.0406
 7964W        W 8164   0.105   0.504   0.103 -0.2313 -0.0412 -0.2567
 7965W        W 8165   3.432  11.122   2.257  0.1754 -0.0833 -0.1698
 7966W        W 8166  17.777  14.165  15.590 -0.2103 -0.2247 -0.2263
 7967W        W 8167   7.777   1.423   0.597 -0.0639 -0.1601 -0.1769
 7968W        W 8168   5.737  13.484  17.044  0.0406  0.0495 -0.1831
 7969W        W 8169   1.179  13.407   3.086 -0.1996 -0.2347 -0.4592
 7970W        W 8170   0.606  18.207   1.871 -0.1832 -0.1004 -0.1264
 7971W        W 8171   3.045  15.652  17.502 -0.0049  0.0657  0.1383
 7972W        W 8172  13.727   5.236   0.605  0.0929 -0.2240 -0.1041
 7973W        W 8173   2.712  11.749  16.752 -0.1507 -0.1333 -0.3820
 7974W        W 8174  11.851  17.415   8.744 -0.1533  0.0955  0.0903
 7975W        W 8175   7.670  13.607   3.257 -0.2335  0.0907  0.1174
 7976W        W 8176   4.782   8.033  14.648 -0.1277 -0.0888 -0.0437
 7977W        W 8177  17.570  10.393  10.869 -0.0115  0.1445  0.3353
 7978W        W 8178   0.776  15.209  15.095  0.3279 -0.0456  0.0151
 7979W        W 8179   4.956   6.773   3.699  0.0414 -0.2907 -0.0282
 7980W        W 8180  14.596   8.936  10.947 -0.2989 -0.1053  0.0573
 7981W        W 8181  13.622   7.258   9.128 -0.0704 -0.1543 -0.0423
 7982W        W 8182   0.778   4.015  12.923  0.0749  0.0920 -0.1608
 7983W        W 8183   1.660  14.240   0.110 -0.2775  0.0872  0.2694
 7984W        W 8184   1.230   8.612  10.207 -0.0196 -0.0772 -0.3107
 7985W        W 8185   2.866  15.861  13.751  0.1346  0.0613 -0.0391
 7986W        W 8186   3.599  13.407   8.598 -0.1146  0.4585  0.0826
 7987W        W 8187   0.999  10.364  15.711 -0.0381 -0.0880  0.0906
 7988W        W 8188  11.278  17.874   1.347  0.2708  0.2311 -0.0292
 7989W        W 8189   5.627   1.363   4.411 -0.2281 -0.0307  0.0995
 7990W        W 8190  16.101  10.018  16.930  0.2982 -0.1399  0.2788
 7991W        W 8191   2.286   9.289  14.878 -0.0031 -0.0439 -0.1251
 7992W        W 8192   9.536  11.027  15.460  0.0549  0.1237 -0.1373
 7993W        W 8193   0.998  13.731   4.390 -0.1683 -0.1169  0.0981
 7994W        W 8194   2.569  17.168  15.232 -0.0058  0.0596  0.0919
 7995W        W 8195   8.274  14.359   2.296  0.5082  0.2013 -0.0042
 7996W        W 8196   4.237  11.034  16.931  0.1387 -0.0301  0.0511
 7997W        W 8197  17.652   6.903  11.580  0.1913  0.1948  0.0023
 7998W        W 8198   7.611  13.618   1.786 -0.2724 -0.0998 -0.2470
 7999W        W 8199   1.363  17.071   2.352  0.0569 -0.0530 -0.0456
 8000W        W 8200  14.080   0.572  15.709 -0.0150 -0.1884 -0.0966
 8001W        W 8201   2.315   3.036  13.908 -0.2523 -0.0832  0.1406
 8002W        W 8202   1.244  15.785  13.741 -0.2108  0.3740  0.0089
 8003W        W 8203   0.211  17.998   2.115 -0.1496  0.1173 -0.0567
 8004W        W 8204  14.976  11.194   4.215 -0.0346 -0.1429 -0.1185
 8005W        W 8205   0.295  13.327  15.029 -0.1671 -0.2384 -0.0131
 8006W        W 8206   1.940  10.024  15.397 -0.0690 -0.1596  0.1462
 8007W        W 8207   6.380   9.403   0.416 -0.0490 -0.3196  0.0842
 8008W        W 8208   0.714  11.223   4.912  0.1386  0.0854  0.2344
 8009W        W 8209  15.021   7.908   8.730  0.1140  0.0691  0.4011
 8010W        W 8210   0.996  13.795  11.202  0.3827  0.1239 -0.1806
 8011W        W 8211   8.623   6.496  16.232 -0.0079  0.2088  0.2972
 8012W        W 8212   4.156   3.382   8.414  0.0950 -0.1405 -0.0416
 8013W        W 8213  13.014  12.796  16.487 -0.0167  0.1822 -0.2599
 8014W        W 8214  14.099  10.528  14.533 -0.1520  0.0551 -0.0818
 8015W        W 8215   4.183   0.974   3.356 -0.0012  0.0553  0.0428
 8016W        W 8216  15.237  14.473   8.581 -0.0446 -0.1983  0.1529
 8017W        W 8217  11.046  11.282  17.896 -0.1763  0.2733  0.2284
 8018W        W 8218  15.516   6.807   7.549 -0.0290  0.2724 -0.0141
 8019W        W 8219  13.418  10.222   3.938 -0.2178  0.3656 -0.1526
 8020W        W 8220   9.995  11.331   8.595 -0.0436  0.3019  0.2224
 8021W        W 8221   3.590  16.858  16.718 -0.0255 -0.3243 -0.0379
 8022W        W 8222   3.611  16.515   5.565  0.0101  0.2596  0.0612
 8023W        W 8223   8.508   7.814  14.473  0.1783  0.3603  0.0822
 8024W        W 8224   4.032  16.686   0.703 -0.2620 -0.0761 -0.1637
 8025W        W 8225   4.377   2.869  13.520  0.0800 -0.2835 -0.2899
 8026W        W 8226  17.091   9.160  18.006 -0.2391 -0.1939  0.0082
 8027W        W 8227   1.116  11.566  17.509 -0.0798  0.1912 -0.0432
 8028W        W 8228  15.536   5.941  14.755  0.2364 -0.2934  0.0473
 8029W        W 8229  10.660   0.958   4.129  0.0549  0.0948 -0.4002
 8030W        W 8230  13.348  11.444  16.272  0.0285  0.0055 -0.3049
 8031W        W 8231  17.399   1.240   1.865 -0.1455 -0.0723  0.0141
 8032W        W 8232  14.193  14.197  11.050  0.2426  0.0231  0.0632
 8033W        W 8233  16.108   1.877   7.709 -0.0666  0.0041  0.1807
 8034W        W 8234  14.161   5.953  11.827 -0.1865 -0.1225  0.0593
 8035W        W 8235  15.469   0.143  11.460 -0.4138 -0.0094  0.1468
 8036W        W 8236   1.069  14.679  13.010  0.2796  0.1209 -0.0712
 8037W        W 8237  12.126  14.489  13.161 -0.0582 -0.2415 -0.0353
 8038W        W 8238  16.563   3.142   8.507 -0.1133 -0.1655  0.2115
 8039W        W 8239   1.996  18.067   8.227  0.3083 -0.1555  0.0520
 8040W        W 8240   3.554   1.678   0.357  0.1958 -0.0659  0.2057
 8041W        W 8241  15.999   2.294   0.420  0.2282  0.0106 -0.1092
 8042W        W 8242   3.859   4.391   2.497  0.2780  0.0055  0.0193
 8043W        W 8243   2.653  14.693   2.931 -0.1833  0.0130  0.1125
 8044W        W 8244   6.549  18.024  14.592  0.2413  0.1048  0.0431
 8045W        W 8245  17.589   1.037   1.125 -0.2276  0.2632 -0.0810
 8046W        W 8246   4.758  17.371  17.107 -0.0859  0.2323 -0.1361
 8047W        W 8247   2.246  14.732   2.667  0.0335 -0.0900 -0.0285
 8048W        W 8248  14.226   3.754  15.176 -0.0488 -0.1015  0.0797
 8049W        W 8249   6.695  11.488  16.896  0.2133  0.0002 -0.0182
 8050W        W 8250  11.243  15.991   0.965  0.2250  0.0487  0.3486
 8051W        W 8251   6.198  16.558   6.462 -0.3038  0.2115 -0.0501
 8052W        W 8252  13.650   1.542  14.326 -0.1515 -0.0716  0.1586
 8053W        W 8253   4.154   2.029   8.833 -0.2335  0.0691  0.0559
 8054W        W 8254   8.847  13.113  13.605  0.2090  0.0500 -0.0485
 8055W        W 8255  13.011  11.434   9.684 -0.2212  0.1167 -0.2107
 8056W        W 8256  10.316   2.485  17.827  0.1635  0.2497  0.0270
 8057W        W 8257  15.850  16.074  15.146  0.0287  0.1339  0.1805
 8058W        W 8258   1.139  14.536  14.545 -0.2328  0.0181 -0.0434
 8059W        W 8259   1.822  10.617  12.500 -0.3275  0.2711  0.2070
 8060W        W 8260   9.253  12.945  17.562  0.1326 -0.0908 -0.0019
 8061W        W 8261  11.113   0.551   6.180 -0.1401 -0.0567 -0.0798
 8062W        W 8262   3.078  18.141  16.875  0.1138 -0.0270 -0.2878
 8063W        W 8263   4.020   5.248   2.380  0.1936 -0.1122  0.0784
 8064W        W 8264   1.115  14.547   5.337  0.2965  0.1015 -0.1505
 8065W        W 8265  16.006   7.665   9.161 -0.0291  0.1042  0.0271
 8066W        W 8266   5.998   6.151  10.280  0.2930 -0.4196  0.0840
 8067W        W 8267  15.153  10.639   3.547  0.0809 -0.4459  0.2229
 8068W        W 8268  17.785   2.964  16.974  0.1164  0.0637 -0.3247
 8069W        W 8269  17.113  17.680   9.351 -0.0489  0.1910 -0.0243
 8070W        W 8270   2.975   2.953   6.362  0.2191  0.1208  0.2936
 8071W        W 8271   7.168  17.755  10.323  0.0587  0.3355 -0.0197
 8072W        W 8272   2.270  14.735  14.006 -0.1457  0.0479  0.1051
 8073W        W 8273  12.384   7.345   6.144  0.1624  0.0168  0.2456
 8074W        W 8274  17.236  16.827  18.018 -0.1587  0.0672  0.3115
 8075W        W 8275   6.444   7.483  13.335 -0.1240 -0.0692  0.1188
 8076W        W 8276  13.029   5.438   0.637  0.3595  0.0528  0.1494
 8077W        W 8277   6.963   3.016   2.429 -0.0222 -0.0866  0.2367
 8078W        W 8278  15.721  11.196   5.963 -0.1202 -0.0286  0.0649
 8079W        W 8279   1.882  10.739   0.459  0.0173  0.0179 -0.1954
 8080W        W 8280   3.003  16.541  17.849 -0.1109  0.0545  0.2356
 8081W        W 8281  12.076  17.898  15.692 -0.1048  0.1920 -0.3106
 8082W        W 8282   3.727   2.734   1.272  0.1485 -0.0543  0.1527
 8083W        W 8283  16.764   0.798   3.455  0.0212 -0.2360 -0.3409
 8084W        W 8284   7.091  15.711   3.223  0.0663 -0.0787 -0.2721
 8085W        W 8285  13.841  15.009  16.153 -0.4219  0.5607 -0.0796
 8086W        W 8286  11.848  10.562  17.304 -0.3500 -0.0811 -0.2201
 8087W        W 8287  15.858   6.792  10.799 -0.1793 -0.0294 -0.0645
 8088W        W 8288   1.922   3.307  17.460 -0.0531  0.0111  0.0285
 8089W        W 8289  16.902  13.126   4.374 -0.0163  0.3103 -0.2247
 8090W        W 8290   0.023  16.711  17.994  0.1673  0.1129  0.1563
 8091W        W 8291  13.682   0.481  12.280  0.1619 -0.2402 -0.2984
 8092W        W 8292  10.902   8.220   3.808 -0.1860 -0.0400 -0.1688
 8093W        W 8293  13.236   0.908   7.614 -0.1699 -0.1597  0.0843
 8094W        W 8294   4.722   1.929   1.903 -0.0413 -0.0287 -0.1271
 8095W        W 8295   2.002   6.693  14.272  0.1339 -0.1595 -0.0272
 8096W        W 8296  11.926   0.528  12.793 -0.1758  0.0034  0.0495
 8097W        W 8297   7.390   1.318   6.077  0.2242 -0.0261  0.1888
 8098W        W 8298   8.163  17.206   2.121 -0.2155  0.2364 -0.0355
 8099W        W 8299  16.280   3.757   1.668 -0.1216 -0.1115  0.1137
 8100W        W 8300  14.226   4.670   2.233  0.4607  0.1149 -0.3617
 8101W        W 8301   9.674   4.973   6.566 -0.3233  0.0987 -0.3089
 8102W        W 8302  17.812  12.894  16.843 -0.0167 -0.0798 -0.0816
 8103W        W 8303  17.848   2.638   2.644 -0.1487  0.0827 -0.2966
 8104W        W 8304  14.420  16.213  17.901  0.1197 -0.4011 -0.0442
 8105W        W 8305  16.347  14.422  12.504  0.1489  0.2039 -0.0019
 8106W        W 8306  15.508  13.236   1.142  0.1412  0.0122  0.4401
 8107W        W 8307   7.289  17.231   3.925  0.0056  0.0077 -0.2148
 8108W        W 8308   4.024   4.074   1.858  0.3871 -0.1440  0.1061
 8109W        W 8309  14.269  12.705  16.440 -0.0419  0.1931 -0.3660
 8110W        W 8310  10.042   2.621  11.230 -0.2889 -0.0244  0.0343
 8111W        W 8311   6.241   7.908   5.243  0.0833 -0.0425  0.1126
 8112W        W 8312   7.609  16.639  10.289  0.0740 -0.3656 -0.1005
 8113W        W 8313   4.198  11.246   0.576 -0.1578  0.0332  0.0672
 8114W        W 8314   3.702  16.305   9.039 -0.0850 -0.1719  0.0373
 8115W        W 8315   5.789  17.280   4.063 -0.0342 -0.2139  0.0008
 8116W        W 8316  16.803   2.411   5.691 -0.1086 -0.1012  0.0654
 8117W        W 8317   3.910  18.131  17.930  0.0165 -0.1077  0.0441
 8118W        W 8318  13.227   2.196   7.748  0.0278 -0.1945  0.0037
 8119W        W 8319  17.246  14.311   0.134 -0.1329 -0.3941  0.1968
 8120W        W 8320  11.231  16.968   2.032 -0.0949  0.0640 -0.0624
 8121W        W 8321   7.341   6.671   2.889 -0.0403 -0.0583 -0.1054
 8122W        W 8322   0.191  18.122  16.885 -0.0383 -0.1865 -0.1826
 8123W        W 8323  15.614  14.726  12.863 -0.1547  0.2677  0.1889
 8124W        W 8324   7.632  15.184   6.366  0.4106 -0.1190  0.0567
 8125W        W 8325   6.713  12.195   1.286  0.2830  0.0045 -0.2409
 8126W        W 8326  18.028   0.633   6.413 -0.2739 -0.0679 -0.0116
 8127W        W 8327   4.889  17.008   1.418 -0.2914 -0.0416  0.1485
 8128W        W 8328   8.492   4.624   4.209  0.2229  0.1992 -0.2318
 8129W        W 8329   1.208   6.952   8.902 -0.2858  0.0396 -0.0020
 8130W        W 8330  14.585  18.020   2.783  0.1119  0.0601 -0.1297
 8131W        W 8331   1.251  17.748   3.797 -0.1317 -0.1753 -0.1616
 8132W        W 8332   2.933  17.230  16.609 -0.2532 -0.0026  0.2547
 8133W        W 8333   7.006  15.359  17.959 -0.0075 -0.2198  0.1704
 8134W        W 8334  16.487  13.044  16.908 -0.1332 -0.0476 -0.0728
 8135W        W 8335   9.382  14.332   0.283  0.2736 -0.1770  0.2288
 8136W        W 8336   6.243   1.117  16.969  0.0459  0.0055  0.1528
 8137W        W 8337   7.658  16.336   7.396  0.0210  0.2436  0.2236
 8138W        W 8338   9.538   0.387  10.986 -0.3263  0.1211  0.0214
 8139W        W 8339   5.262  10.672  15.589 -0.0966  0.0532 -0.0093
 8140W        W 8340   1.628  10.081  16.792 -0.1238  0.1890 -0.4525
 8141W        W 8341   4.352  15.725   3.409  0.1719 -0.0473  0.0100
 8142W        W 8342   1.008   2.590  17.906 -0.2896 -0.0690 -0.3336
 8143W        W 8343   1.247   4.139   4.549  0.0592  0.1096  0.1033
 8144W        W 8344  10.657   2.163  12.203 -0.1370  0.2128  0.1230
 8145W        W 8345  11.793  16.508  17.315 -0.0565  0.0054  0.0823
 8146W        W 8346  17.155   2.235   8.447  0.3085 -0.0176  0.0472
 8147W        W 8347   2.364  16.994   8.865 -0.0292 -0.0160  0.1748
 8148W        W 8348   0.670  11.832  15.251  0.0173  0.3017 -0.1883
 8149W        W 8349   6.150   4.194  15.705 -0.1143 -0.3917  0.0753
 8150W        W 8350  10.618  14.632   1.304 -0.0457 -0.1013 -0.1497
 8151W        W 8351   6.460   2.505   7.553 -0.1518  0.3227  0.1862
 8152W        W 8352   3.447   4.225   2.970  0.4372 -0.0045  0.1284
 8153W        W 8353  16.818  14.683   3.083  0.0180  0.1804  0.0240
 8154W        W 8354   1.962  15.584   8.445  0.2255  0.0988 -0.1255
 8155W        W 8355   5.731  13.381   2.021  0.1825  0.1748 -0.4925
 8156W        W 8356   7.808  11.814  17.364  0.1616 -0.0463  0.2672
 8157W        W 8357   5.804  15.306  15.553  0.1934  0.1792  0.2959
 8158W        W 8358   8.891  12.033  15.682 -0.2584 -0.0175 -0.2484
 8159W        W 8359  13.220  17.445   1.769  0.1090  0.0023  0.0543
 8160W        W 8360   3.873   0.047   1.880  0.1210  0.1910  0.1281
 8161W        W 8361  16.876  16.700   0.777  0.1321 -0.3077 -0.0351
 8162W        W 8362   7.800  13.109   2.456 -0.2240  0.0054 -0.0740
 8163W        W 8363  11.165  14.649  16.761 -0.0171  0.0672  0.3184
 8164W        W 8364   2.297   9.885  12.546  0.0179 -0.0888 -0.2054
 8165W        W 8365   3.557   9.158  10.072 -0.0040 -0.0837 -0.2787
 8166W        W 8366   2.955   3.526   7.596  0.2187  0.0335  0.1659
 8167W        W 8367   7.648  14.200  14.934  0.0675  0.0084  0.0495
 8168W        W 8368   9.998  15.460  17.227  0.2634 -0.0906  0.2463
 8169W        W 8369   2.015  12.201   1.263 -0.2060 -0.1395 -0.2321
 8170W        W 8370   7.315  12.992   2.143 -0.1832 -0.0392  0.0275
 8171W        W 8371   7.358   0.599  14.608 -0.2080 -0.2048  0.0867
 8172W        W 8372  13.056   2.073  10.373 -0.1475 -0.0102 -0.2032
 8173W        W 8373  16.503  10.888   4.892 -0.1518  0.0054  0.0811
 8174W        W 8374   6.330   6.894   1.496  0.1071 -0.2723 -0.1335
 8175W        W 8375  14.926  15.379   1.898  0.1589  0.0503 -0.3855
 8176W        W 8376   8.967  13.941  12.403 -0.1330 -0.1709 -0.1340
 8177W        W 8377   6.382   6.981   5.350  0.1931  0.1731 -0.3160
 8178W        W 8378   5.869  10.302  16.653 -0.3088  0.1610 -0.1040
 8179W        W 8379   1.461   7.570  17.020 -0.0581 -0.0328 -0.0028
 8180W        W 8380  15.574   2.179   2.906 -0.3845 -0.4104  0.1419
 8181W        W 8381  13.439  16.893   9.088  0.0993 -0.2521  0.2432
 8182W        W 8382   0.991   3.357   6.132 -0.3144 -0.4399 -0.1451
 8183W        W 8383  15.835   9.058  17.174  0.0225 -0.0040  0.0857
 8184W        W 8384  16.390   6.661   0.252  0.0944  0.1663  0.1241
 8185W        W 8385  15.484  15.269   1.251  0.0484  0.1795  0.1276
 8186W        W 8386   4.597   4.802   2.380 -0.1199 -0.1457  0.1212
 8187W        W 8387  16.259   6.165  13.229 -0.0004  0.1106 -0.0006
 8188W        W 8388   8.588   3.565   7.505 -0.0005  0.0490  0.0237
 8189W        W 8389   7.076   1.257   8.927  0.2317  0.0350  0.0451
 8190W        W 8390  15.053   0.342   5.545 -0.1605  0.1119 -0.0462
 8191W        W 8391   3.166  11.884   1.309  0.1674 -0.1856 -0.0186
 8192W        W 8392   7.151   7.128   0.057  0.1673  0.1553 -0.0557
 8193W        W 8393   3.551   9.039  16.653 -0.0878  0.0470 -0.0788
 8194W        W 8394  17.193   0.000  18.048 -0.2231  0.0622 -0.3081
 8195W        W 8395   0.166  14.729   3.610  0.0669 -0.0961  0.1500
 8196W        W 8396  14.627  11.652   7.059  0.2820  0.0400  0.1186
 8197W        W 8397  13.686  15.262   5.331  0.0189 -0.0568 -0.2953
 8198W        W 8398   7.580   3.570   4.871 -0.0602 -0.1464  0.0720
 8199W        W 8399  18.056  14.074  17.972 -0.1134  0.0508 -0.1468
 8200W        W 8400   9.491  13.243   3.347 -0.0367 -0.0477 -0.1932
 8201W        W 8401  10.435   2.446   1.097 -0.3114 -0.0709  0.4205
 8202W        W 8402  17.891   3.531  17.072 -0.1469 -0.0675  0.3237
 8203W        W 8403  17.920  16.816   3.029  0.1194  0.3435 -0.1560
 8204W        W 8404   1.299  17.815  14.061  0.2339 -0.2174 -0.1021
 8205W        W 8405   4.388  10.494  12.427 -0.0017 -0.0849 -0.1654
 8206W        W 8406   2.915  16.794  12.755 -0.1738  0.2423 -0.3082
 8207W        W 8407  18.097   8.620  16.506 -0.0085 -0.0147 -0.2379
 8208W        W 8408   6.901   9.593  16.819 -0.0805 -0.0940 -0.1770
 8209W        W 8409   1.447  16.907  13.311  0.2295  0.1296 -0.1315
 8210W        W 8410  16.886   1.204  11.737  0.3427 -0.2899  0.1742
 8211W        W 8411   3.153   1.650  12.904  0.4209 -0.0933 -0.0260
 8212W        W 8412   3.613  10.977   0.513  0.1177 -0.1360 -0.1857
 8213W        W 8413   4.460  17.051  17.523  0.1673 -0.1800  0.2940
 8214W        W 8414  10.150   2.107  16.453 -0.2483 -0.2583 -0.1070
 8215W        W 8415   4.217  14.796   8.124  0.0800  0.2009  0.1705
 8216W        W 8416  11.216  14.012   4.035  0.1088 -0.2932 -0.0932
 8217W        W 8417   7.666  13.846   8.467 -0.0541 -0.1650  0.1857
 8218W        W 8418   1.689   7.571  15.688 -0.1703 -0.1773 -0.1664
 8219W        W 8419  15.362  16.942   3.963  0.2811  0.0140  0.0774
 8220W        W 8420   7.690   0.133   9.443  0.1169  0.0367  0.2008
 8221W        W 8421   0.566   3.682   1.841  0.3934 -0.0920  0.1096
 8222W        W 8422   1.380  11.114  10.358  0.0358 -0.4900  0.0374
 8223W        W 8423   4.622  17.102  11.908 -0.0366 -0.1177 -0.0023
 8224W        W 8424   5.912  17.273  17.901 -0.1654  0.0150  0.0348
 8225W        W 8425  10.435   0.604  14.340 -0.0470 -0.3102 -0.1784
 8226W        W 8426   3.726   6.532   3.199  0.1158 -0.2493  0.0720
 8227W        W 8427  17.536   6.147   6.392  0.1005 -0.2611  0.0794
 8228W        W 8428   5.343   7.326  13.924 -0.1836 -0.4233 -0.2810
 8229W        W 8429   1.716   4.963   0.755 -0.2746 -0.3159 -0.0685
 8230W        W 8430  13.587  16.753   5.780  0.1574 -0.0222 -0.0443
 8231W        W 8431   2.808  14.723  11.660 -0.0394 -0.1677  0.2300
 8232W        W 8432   4.360   3.462   3.598 -0.0087  0.1524 -0.5581
 8233W        W 8433   9.154   9.590   1.589 -0.0245  0.0442 -0.0291
 8234W        W 8434  13.819  16.323   5.752  0.1439 -0.0393  0.0094
 8235W        W 8435   0.689  12.898  12.330 -0.2353  0.0476 -0.0793
 8236W        W 8436   1.571   0.761   5.781 -0.0118 -0.1745 -0.1070
 8237W        W 8437   0.340   0.145  14.208 -0.1427 -0.2529  0.1192
 8238W        W 8438   8.830  13.036  16.721 -0.1499 -0.1091  0.0338
 8239W        W 8439   6.442  13.957   6.958  0.1932  0.0268 -0.2186
 8240W        W 8440  17.522   3.888  12.832 -0.1428 -0.1642 -0.3424
 8241W        W 8441  14.856  15.706  15.992 -0.1152  0.2607  0.2913
 8242W        W 8442   5.091   4.936   4.273 -0.0858 -0.0536  0.1938
 8243W        W 8443  16.630  13.673   0.417 -0.0877  0.3277  0.4364
 8244W        W 8444   4.306  16.344   0.195  0.1220 -0.2991  0.2007
 8245W        W 8445  14.483   6.819   3.697  0.0273  0.1711  0.1600
 8246W        W 8446  17.577  10.601  15.183  0.0826  0.0333  0.0423
 8247W        W 8447   2.444   0.619   5.256 -0.2527 -0.0982 -0.0423
 8248W        W 8448   3.209   2.636  17.042  0.0216  0.2909  0.2314
 8249W        W 8449   0.288  17.082  16.489  0.1170  0.0038  0.2828
 8250W        W 8450  14.180  16.378   1.081  0.0331 -0.2789  0.1687
 8251W        W 8451   9.143   1.544   8.958 -0.0652  0.1292  0.1526
 8252W        W 8452   1.053  10.414   3.412  0.2671 -0.1619 -0.1540
 8253W        W 8453   3.916  16.621  14.441 -0.1254  0.0082  0.1277
 8254W        W 8454   6.426   1.164  13.858 -0.0911 -0.1975 -0.2199
 8255W        W 8455   0.929  17.041   3.381  0.1220 -0.2750  0.4259
 8256W        W 8456   2.375  16.803  11.075  0.5805  0.0481  0.1135
 8257W        W 8457   1.013   9.407   4.896 -0.1822  0.4467  0.1740
 8258W        W 8458   5.682  15.023  15.943  0.1091 -0.0598  0.0987
 8259W        W 8459   7.134   5.518   0.507  0.2984 -0.7627  0.1488
 8260W        W 8460   2.249   2.116  17.479  0.0604  0.1555 -0.0096
 8261W        W 8461  11.080   0.928   1.758 -0.0359 -0.0820 -0.0180
 8262W        W 8462  12.330   9.424   0.274  0.1631 -0.2905  0.3569
 8263W        W 8463   6.682  13.185   9.642 -0.0805 -0.0003 -0.2983
 8264W        W 8464   5.976   9.061  15.427 -0.1241 -0.3020 -0.1293
 8265W        W 8465  15.482  13.378  17.287  0.0141  0.2018 -0.0332
 8266W        W 8466   7.336   3.582  14.309 -0.1206 -0.1795  0.0219
 8267W        W 8467   2.443  10.282  11.111 -0.1262 -0.1521 -0.0166
 8268W        W 8468   6.698  17.856   3.186  0.3298  0.0018  0.3598
 8269W        W 8469   9.948  14.589  16.172  0.3899  0.2600  0.2098
 8270W        W 8470   6.573  11.020  13.884 -0.3041 -0.1912  0.2285
 8271W        W 8471   8.535  13.749   0.702  0.4020 -0.0397  0.3325
 8272W        W 8472   2.649   4.366   9.399 -0.1004 -0.0123 -0.0275
 8273W        W 8473   0.243  12.736   5.650  0.0648  0.1143  0.1307
 8274W        W 8474   4.051  15.865   0.298  0.1156  0.0724 -0.0185
 8275W        W 8475  16.206   2.205   8.935  0.1500  0.0051  0.0407
 8276W        W 8476   1.886   0.277  18.174  0.3564 -0.3006  0.3284
 8277W        W 8477   1.114   3.985  16.554  0.1721  0.2169 -0.0474
 8278W        W 8478   2.555  17.609  14.837 -0.1955 -0.3555  0.0090
 8279W        W 8479   8.667   8.851  17.469  0.0687  0.3502  0.1912
 8280W        W 8480   7.834  12.400   1.722 -0.0856 -0.2976  0.1154
 8281W        W 8481  17.670  17.715   2.878  0.1014  0.2368 -0.1347
 8282W        W 8482  17.209  12.456   3.178  0.1692  0.0380 -0.0382
 8283W        W 8483   4.960  17.980   2.916  0.2833  0.0181 -0.0727
 8284W        W 8484   0.624  14.975   4.616 -0.1149 -0.0194  0.0078
 8285W        W 8485   4.756  16.305   8.073 -0.1188 -0.1003  0.1475
 8286W        W 8486  12.379  10.439  12.640  0.0125 -0.1669 -0.0060
 8287W        W 8487  16.446   9.790  14.911 -0.2877  0.2435 -0.0703
 8288W        W 8488   2.061  12.807   1.887  0.0220  0.4101  0.0785
 8289W        W 8489   5.279  17.051   4.950 -0.2762 -0.0710 -0.0827
 8290W        W 8490   0.377  14.433  14.754  0.0635 -0.1228  0.0434
 8291W        W 8491   0.477   1.999  11.088  0.0710 -0.0225 -0.1099
 8292W        W 8492   2.172  10.553  15.167  0.0095 -0.2064  0.0532
 8293W        W 8493  11.586  17.584   2.704  0.0247  0.0866  0.1045
 8294W        W 8494   1.612  17.762   1.792 -0.1262  0.0688  0.2749
 8295W        W 8495   3.719   0.057   4.918  0.1905 -0.1486 -0.3649
 8296W        W 8496   6.760  13.144   2.085  0.2523  0.3265 -0.1521
 8297W        W 8497  16.424   2.602  14.281 -0.1080  0.0399  0.1856
 8298W        W 8498   0.483   2.080  17.726 -0.0507 -0.0382 -0.2258
 8299W        W 8499   5.515   3.968  17.929  0.0089  0.0413  0.1392
 8300W        W 8500   3.279  14.850  17.800 -0.2650 -0.1241  0.0341
 8301W        W 8501  14.971  16.981   0.466 -0.1378  0.0956 -0.0405
 8302W        W 8502   6.013   3.425  14.377  0.1778  0.0987 -0.2354
 8303W        W 8503   2.097  11.413   3.560  0.0226  0.1794  0.0822
 8304W        W 8504   4.864   0.919   0.997 -0.2432 -0.2420 -0.1178
 8305W        W 8505   6.733  11.795   3.612  0.0681 -0.0064 -0.0141
 8306W        W 8506   5.638   1.536  15.376 -0.0108 -0.3315  0.1417
 8307W        W 8507   0.676   0.974   6.081  0.1615  0.0366  0.0263
 8308W        W 8508  18.151  15.939   9.596  0.1211 -0.3044  0.0252
 8309W        W 8509  12.840   6.680   7.599  0.0173 -0.2069 -0.1025
 8310W        W 8510   0.119  10.799  17.318 -0.1471  0.2162 -0.2492
 8311W        W 8511  14.114   2.272   5.247  0.1676 -0.0544 -0.2406
 8312W        W 8512  17.038  12.425   9.016 -0.1501 -0.1671 -0.1369
 8313W        W 8513  17.386  14.615   2.295  0.3336 -0.0158  0.2789
 8314W        W 8514   3.657  17.638  15.174  0.3853 -0.0411 -0.2131
 8315W        W 8515  11.657  11.835   3.959 -0.1899  0.1876 -0.1236
 8316W        W 8516   2.863  16.109  17.579 -0.2191  0.0819  0.0359
 8317W        W 8517   3.784  14.639   0.138 -0.0107  0.1318 -0.1882
 8318W        W 8518  14.703  14.427   5.064 -0.1903 -0.0455 -0.1641
 8319W        W 8519  16.954  13.189   5.271 -0.0188 -0.1842  0.1162
 8320W        W 8520  17.377   3.080   9.529  0.0584 -0.2378 -0.0349
 8321W        W 8521  10.001   5.124   9.826  0.0343 -0.2738 -0.1707
 8322W        W 8522  16.883  15.773   6.186 -0.0665  0.2578 -0.0956
 8323W        W 8523   0.932  14.158  14.020  0.1941 -0.0741 -0.1091
 8324W        W 8524  13.397  16.925   5.353 -0.2772  0.0442 -0.4295
 8325W        W 8525   4.133  16.446  16.953  0.1827 -0.0739  0.1628
 8326W        W 8526   7.617  17.403   4.804  0.0428  0.1137  0.0705
 8327W        W 8527   3.153  14.992  13.332  0.0506 -0.2103 -0.0576
 8328W        W 8528   5.267  12.897  17.230 -0.2112  0.1618 -0.0246
 8329W        W 8529  10.491  17.184   3.048  0.3667 -0.2364  0.0058
 8330W        W 8530   2.266  14.595  15.495 -0.0340 -0.0376  0.2027
 8331W        W 8531   6.408  15.756   0.772 -0.0347 -0.2080  0.0138
 8332W        W 8532   3.356  16.474   4.894 -0.0587 -0.1712  0.0483
 8333W        W 8533   7.445   9.732   2.142  0.0850  0.2309  0.1418
 8334W        W 8534   3.801  13.989   3.115  0.0275  0.0996  0.3291
 8335W        W 8535  15.318  13.348   1.623 -0.0762 -0.2061 -0.0656
 8336W        W 8536   0.056  11.402   3.450  0.4010  0.0097  0.1461
 8337W        W 8537  15.260   0.180   8.579 -0.1230  0.0533 -0.1509
 8338W        W 8538  11.110  13.509  17.496 -0.0662  0.1794 -0.3137
 8339W        W 8539   3.036  16.999  13.233 -0.0381 -0.0797  0.4358
 8340W        W 8540  17.883   0.238   6.720  0.0385 -0.1113  0.0519
 8341W        W 8541  15.630  12.942  10.148  0.1068 -0.1986  0.0298
 8342W        W 8542   3.165   9.590   9.448  0.2630 -0.1515 -0.1633
 8343W        W 8543   5.178  17.878  10.315  0.2034  0.3979  0.0609
 8344W        W 8544  17.729  11.057  12.587  0.2183  0.0444  0.0315
 8345W        W 8545   9.646  14.202  17.497 -0.0538 -0.2471 -0.0084
 8346W        W 8546  16.578  11.933   4.605  0.0404 -0.2022  0.0180
 8347W        W 8547   3.295   1.354   0.091 -0.1438  0.1843 -0.1135
 8348W        W 8548  14.326   7.018   5.232 -0.1064 -0.1937 -0.1045
 8349W        W 8549  13.001  16.801  12.133 -0.2392 -0.1042  0.0620
 8350W        W 8550   6.940   0.817  15.410 -0.1690 -0.0904  0.2317
 8351W        W 8551   1.636  14.741   8.329  0.0913  0.0722 -0.1915
 8352W        W 8552  15.548   1.086   3.032 -0.1473 -0.0935  0.1640
 8353W        W 8553   0.256   9.182  13.751 -0.1741  0.3969  0.0299
 8354W        W 8554   7.352  16.515   5.198 -0.1950  0.0200 -0.3021
 8355W        W 8555   3.592   3.819   5.082 -0.0225  0.0405  0.1891
 8356W        W 8556   1.029  10.489  16.229 -0.0406  0.1113  0.2791
 8357W        W 8557  12.239  14.094   3.168 -0.0429 -0.1281  0.2670
 8358W        W 8558   4.989   1.508  17.180 -0.0227  0.0634 -0.1343
 8359W        W 8559   0.846   7.763   3.213 -0.0168  0.3653 -0.1429
 8360W        W 8560  15.716  14.805  10.851  0.3677 -0.2835  0.1021
 8361W        W 8561   2.256  17.961  12.060  0.0900  0.1083  0.1007
 8362W        W 8562  13.286  15.139   4.693 -0.1491  0.0407  0.0273
 8363W        W 8563   3.980   9.083  17.891  0.1361  0.0916  0.0412
 8364W        W 8564  16.027   5.787  13.981 -0.0342 -0.0287 -0.2703
 8365W        W 8565   8.228  11.564   5.215  0.2660  0.1543  0.0136
 8366W        W 8566   3.218  14.656  15.157  0.2528 -0.0278  0.1342
 8367W        W 8567   3.084   0.755   6.012  0.0087 -0.1045 -0.1099
 8368W        W 8568   6.128  16.364  17.507  0.0371  0.1330 -0.2802
 8369W        W 8569  12.163  12.556   0.680  0.0050  0.0792  0.0773
 8370W        W 8570   7.767   4.721   2.015  0.2289  0.0367  0.1784
 8371W        W 8571   3.200  11.129   0.777  0.2808 -0.1399 -0.0255
 8372W        W 8572  11.555   6.860  16.357  0.2851 -0.0494  0.3034
 8373W        W 8573  14.917  14.493  16.723 -0.3630 -0.0930 -0.0690
 8374W        W 8574   0.196  16.435   0.868  0.1003 -0.2880  0.0228
 8375W        W 8575  15.531  17.258   5.853  0.0227 -0.4387 -0.0796
 8376W        W 8576  16.146  15.819   9.301 -0.0081  0.1530  0.0373
 8377W        W 8577  15.595  12.474   1.892 -0.3130 -0.0548  0.1394
 8378W        W 8578  11.581   0.465   8.858 -0.0362  0.0724 -0.0607
 8379W        W 8579  16.076  16.083   0.641  0.2287 -0.0688  0.0840
 8380W        W 8580   3.820  16.357   5.029  0.0497  0.1256 -0.0260
 8381W        W 8581   4.079  15.806   2.950  0.0349 -0.0499  0.6225
 8382W        W 8582   4.657   4.050  13.153 -0.0649 -0.1828 -0.2223
 8383W        W 8583   6.315   2.978   1.302  0.0918 -0.1657 -0.1119
 8384W        W 8584  16.613  11.434   8.517 -0.2625  0.0523  0.1801
 8385W        W 8585   6.993  16.391  13.486  0.0272  0.0384 -0.1965
 8386W        W 8586  14.973  16.668  11.916 -0.0994 -0.3826 -0.2665
 8387W        W 8587   5.097  11.595  15.355  0.2367 -0.0952  0.0663
 8388W        W 8588   2.014   0.511   7.133 -0.2174 -0.1928 -0.1210
 8389W        W 8589   8.480  17.051  14.765  0.1728 -0.1042 -0.4723
 8390W        W 8590   3.013  17.164   1.613 -0.0718 -0.0506 -0.2573
 8391W        W 8591   6.593  15.457   0.446 -0.0408 -0.0747 -0.2393
 8392W        W 8592   5.083  10.957   3.992 -0.1583 -0.0552 -0.0335
 8393W        W 8593   4.340   7.301   2.141 -0.2390 -0.2595 -0.2736
 8394W        W 8594   1.327  17.841  10.490  0.2677 -0.1402 -0.4079
 8395W        W 8595  16.487  13.702   2.972 -0.1157  0.3351  0.1533
 8396W        W 8596  18.091  17.610  16.054 -0.1764  0.3676 -0.0826
 8397W        W 8597  17.246   3.011  16.062 -0.0345 -0.5669 -0.3004
 8398W        W 8598   5.243  18.186   8.579  0.1189  0.1151  0.1045
 8399W        W 8599  11.800   9.448  10.839 -0.3979  0.0345 -0.0364
 8400W        W 8600   3.655  14.268  13.093  0.1254  0.0510 -0.1562
 8401W        W 8601   3.740   0.564   4.924  0.1383  0.0225  0.1224
 8402W        W 8602   1.897   2.055   4.215 -0.2444 -0.0033 -0.2398
 8403W        W 8603  12.084  10.104   3.888 -0.1248 -0.0953 -0.3630
 8404W        W 8604  15.097   2.310   2.801  0.1066  0.2791  0.3111
 8405W        W 8605   0.513   2.487   4.370  0.2238 -0.1605 -0.1144
 8406W        W 8606  18.108  17.377   3.079 -0.0044 -0.1816  0.0849
 8407W        W 8607  11.040   3.406  11.816  0.0758  0.2409 -0.1129
 8408W        W 8608   7.929   0.900   5.441  0.1146 -0.1471 -0.2859
 8409W        W 8609  17.806   9.376   0.942 -0.2438  0.2518  0.1874
 8410W        W 8610   0.949  11.922  10.356  0.1355 -0.1089  0.2608
 8411W        W 8611   4.569   2.184   2.304  0.2830 -0.2862  0.1597
 8412W        W 8612   3.448  10.843  14.772 -0.0752  0.0645 -0.0247
 8413W        W 8613  13.995   1.978   0.686  0.1032  0.3231  0.2221
 8414W        W 8614   1.250  13.487  16.831 -0.1011  0.2181  0.0653
 8415W        W 8615   5.701  17.765   7.672  0.0380 -0.2286 -0.3307
 8416W        W 8616  13.255  12.536   2.557 -0.1142 -0.0352  0.0607
 8417W        W 8617   7.670  15.119   5.880 -0.0358  0.1426 -0.0468
 8418W        W 8618  17.799  16.304   2.904  0.2739 -0.1269 -0.0533
 8419W        W 8619   6.228  11.875  14.890 -0.6871 -0.1487 -0.1068
 8420W        W 8620   1.568  16.815   8.726 -0.1451 -0.0219  0.1664
 8421W        W 8621  17.848  10.342  18.113 -0.0723  0.3336  0.0612
 8422W        W 8622   8.473  15.596   3.409 -0.1870 -0.2511  0.0643
 8423W        W 8623   0.805   8.794   2.013  0.1869  0.2867 -0.3976
 8424W        W 8624   6.596   2.653   6.818 -0.1883  0.1433  0.0079
 8425W        W 8625   4.714  16.085   6.265 -0.2316 -0.1172  0.1506
 8426W        W 8626   5.394  18.186   3.147 -0.1064  0.0773  0.0513
 8427W        W 8627   5.089   9.901  10.068 -0.1533  0.0531 -0.1721
 8428W        W 8628   4.042  15.127   7.286  0.0613  0.1799 -0.0533
 8429W        W 8629   0.187   3.656   0.465 -0.0195 -0.0472 -0.0464
 8430W        W 8630  10.448  15.037  15.613 -0.0228  0.0150  0.0940
 8431W        W 8631   3.963   7.643   6.510  0.2189  0.1674  0.1564
 8432W        W 8632   1.500  13.003  16.533 -0.0848  0.0588 -0.0790
 8433W        W 8633   3.084   5.004   6.501 -0.2008  0.2286  0.0662
 8434W        W 8634  14.639  10.108  15.123 -0.0189  0.2837  0.2400
 8435W        W 8635   3.728   9.022   2.870 -0.1373 -0.0219  0.0347
 8436W        W 8636  16.704   2.888   0.166  0.0344 -0.2215  0.1242
 8437W        W 8637  17.316  16.962   8.922 -0.0933 -0.2477  0.0449
 8438W        W 8638   5.086   3.285   7.383  0.0658  0.0819 -0.0043
 8439W        W 8639   8.292  13.754  13.316  0.1465  0.2712  0.3341
 8440W        W 8640   3.815   6.951   6.624 -0.0812 -0.3371  0.2475
 8441W        W 8641  17.482   2.420   4.817 -0.3614  0.0303  0.0039
 8442W        W 8642   4.936  12.107  14.282  0.0160  0.1784  0.1136
 8443W        W 8643  17.139  15.009  12.761  0.2322 -0.1214  0.1782
 8444W        W 8644   7.070  16.804   0.538 -0.1240 -0.0404  0.0822
 8445W        W 8645  15.748   2.827   1.693  0.2797  0.0999 -0.0556
 8446W        W 8646  16.031   4.015  12.258  0.0116  0.2063  0.0277
 8447W        W 8647   1.307   9.037  10.486 -0.1650 -0.5139 -0.0054
 8448W        W 8648   6.322  16.733   5.886  0.1140  0.0552 -0.1127
 8449W        W 8649   9.330   4.306   3.673 -0.0479 -0.4164 -0.2208
 8450W        W 8650   6.377   1.857   2.303  0.2289  0.2661 -0.2219
 8451W        W 8651  15.148  10.859  16.816 -0.2830 -0.3288  0.0310
 8452W        W 8652   3.295   0.355   4.739 -0.2614  0.2103 -0.1953
 8453W        W 8653  16.532  14.238   3.274  0.0691  0.0263  0.0267
 8454W        W 8654  15.822   1.918  16.036 -0.0480 -0.3054 -0.4002
 8455W        W 8655   0.122  17.377   9.489  0.2001  0.0712  0.1103
 8456W        W 8656   2.436  12.961   6.099 -0.3055 -0.2222 -0.0934
 8457W        W 8657  13.740  10.585   3.985  0.0464  0.0983  0.1647
 8458W        W 8658  14.950   2.135   2.043  0.0453 -0.2242 -0.2520
 8459W        W 8659  15.866   3.048   8.745  0.0504 -0.0630  0.3147
 8460W        W 8660   4.165   6.696   2.164 -0.1444  0.1665  0.0549
 8461W        W 8661   2.205   0.005   7.755 -0.0002  0.3655  0.0699
 8462W        W 8662   1.267  17.355  10.506  0.0249 -0.1705 -0.3180
 8463W        W 8663  11.501  11.355   2.519 -0.1187 -0.1236 -0.0276
 8464W        W 8664   1.383  17.442  11.306 -0.0097  0.4220  0.2278
 8465W        W 8665   7.462   5.903  10.070  0.0177 -0.1692 -0.1912
 8466W        W 8666   8.861   7.657  16.458 -0.0511  0.2845 -0.0562
 8467W        W 8667  18.048  12.708   9.650  0.0363 -0.0045  0.0781
 8468W        W 8668   0.313  17.734   7.873 -0.0190 -0.0379  0.1060
 8469W        W 8669  14.654   0.260   0.453 -0.0036  0.1528  0.0374
 8470W        W 8670  15.583  15.121   8.728  0.2398 -0.0522 -0.0427
 8471W        W 8671   9.879  16.231  14.453  0.2363  0.2381  0.1062
 8472W        W 8672  13.958   1.884   8.927 -0.1915  0.0344 -0.3146
 8473W        W 8673   0.767   6.256   4.000 -0.1151 -0.2342 -0.1035
 8474W        W 8674  17.437  15.174   3.369 -0.0091 -0.0342 -0.2012
 8475W        W 8675   0.941  11.503   1.050 -0.0279  0.1091  0.1910
 8476W        W 8676  18.116  14.324   3.432  0.1064  0.0032  0.0170
 8477W        W 8677   5.250  11.924   6.180  0.2199 -0.1682 -0.0698
 8478W        W 8678   7.597   2.279   3.879 -0.2286 -0.0360  0.1191
 8479W        W 8679   7.108  17.984   4.989 -0.0956  0.1025  0.0283
 8480W        W 8680  17.930   0.518  15.481  0.0098  0.1505 -0.0947
 8481W        W 8681  13.926   2.013   7.553 -0.1075 -0.0915 -0.0480
 8482W        W 8682   5.940  16.617  13.170 -0.2534  0.1142 -0.1095
 8483W        W 8683   4.451  16.968   4.323  0.1752 -0.1463 -0.2736
 8484W        W 8684   1.000   2.307  13.132  0.0187  0.2319  0.2815
 8485W        W 8685   7.632  15.340   7.396 -0.1182 -0.0955 -0.1091
 8486W        W 8686   4.971   0.800   3.760 -0.2042 -0.0671 -0.1183
 8487W        W 8687   2.615   0.250  14.841 -0.0146  0.2553  0.0075
 8488W        W 8688   9.018  18.065   8.103 -0.3510 -0.0589 -0.1099
 8489W        W 8689   2.944   5.688   8.340 -0.2254  0.2101  0.0755
 8490W        W 8690  17.783  10.163   9.136  0.0551  0.3873 -0.1360
 8491W        W 8691   5.096  17.819   4.141  0.1886  0.1839 -0.0242
 8492W        W 8692   3.344  17.735   6.683 -0.0146  0.2427  0.2061
 8493W        W 8693  18.063  14.330   2.971  0.3389  0.0458  0.0235
 8494W        W 8694   2.568  12.240   0.347 -0.2251 -0.1529 -0.2127
 8495W        W 8695   3.754   3.208   6.797 -0.2029  0.1652  0.3438
 8496W        W 8696   8.539  13.597   0.137 -0.0323  0.1749  0.1802
 8497W        W 8697   2.609   1.424   7.716  0.0140 -0.2684  0.0993
 8498W        W 8698   0.177  14.858   0.338 -0.3124 -0.1032  0.0069
 8499W        W 8699   1.886   2.246  11.347 -0.0424  0.0832 -0.2721
 8500W        W 8700   0.190  16.164   4.551  0.0246 -0.1198  0.0555
 8501W        W 8701   6.265  14.638   5.616  0.2369 -0.0429  0.2462
 8502W        W 8702  17.204  13.581  16.762 -0.1031  0.0284 -0.0544
 8503W        W 8703   1.791   5.714   8.736 -0.0713  0.1287  0.0237
 8504W        W 8704   9.967   3.679   3.230  0.0888 -0.0148  0.1878
 8505W        W 8705   1.062  16.931  10.187 -0.0459  0.4118  0.1529
 8506W        W 8706  16.338   1.921  12.880  0.1445  0.0097 -0.1226
 8507W        W 8707   1.107  11.843   2.257  0.0622  0.3252  0.0602
 8508W        W 8708   2.793  16.622   8.504 -0.3336 -0.1433  0.0336
 8509W        W 8709   7.547   1.293   7.848  0.2815  0.1635  0.0387
 8510W        W 8710   6.198   3.345   7.420 -0.1541  0.1601  0.2563
 8511W        W 8711   2.528  15.985   4.853 -0.1705  0.1976  0.0529
 8512W        W 8712   4.027   3.227   5.881 -0.0501  0.1919 -0.0635
 8513W        W 8713   2.697   1.312   4.620  0.1994  0.1752  0.1636
 8514W        W 8714   7.818   5.889   4.304 -0.1568  0.0263 -0.0463
 8515W        W 8715   6.877   2.277   6.600 -0.0457  0.1502 -0.0954
 8516W        W 8716   1.549  15.165   3.272  0.3617  0.2733  0.2346
 8517W        W 8717  11.899  13.716   8.155 -0.1146  0.1634 -0.3243
 8518W        W 8718  17.873   4.598   3.952  0.0604  0.0534  0.1175
 8519W        W 8719  12.594  15.771  11.119 -0.0986  0.1648  0.0333
 8520W        W 8720   3.795  18.021  10.062 -0.2240  0.0542  0.1046
 8521W        W 8721   8.999  15.600   0.681 -0.0095  0.0576  0.0049
 8522W        W 8722  15.532   4.161   2.000 -0.1833  0.0857  0.1349
 8523W        W 8723  18.134   0.664   4.703 -0.1628  0.1339 -0.0608
 8524W        W 8724   1.692   7.660   9.063  0.0683 -0.0087 -0.0852
 8525W        W 8725   3.879  17.216   3.439  0.2901  0.0784  0.1290
 8526W        W 8726   4.694  15.409  16.352  0.2353  0.2517  0.2767
 8527W        W 8727   3.167  13.999  12.345 -0.2520  0.2265  0.0775
 8528W        W 8728  15.501  16.157   7.820  0.0447 -0.0800  0.0760
 8529W        W 8729   0.857  15.371   1.247  0.2617 -0.2664  0.0113
 8530W        W 8730   7.602   7.172   3.764  0.2650  0.1829  0.0197
 8531W        W 8731   9.906   0.160  17.801  0.1861  0.3309 -0.0372
 8532W        W 8732   0.818  14.966  10.832 -0.1006 -0.3054  0.5035
 8533W        W 8733   7.901  15.733   7.253 -0.0698  0.1683 -0.1484
 8534W        W 8734   8.488  13.133   6.053 -0.0758 -0.0253  0.0896
 8535W        W 8735   3.777  12.571  10.754  0.3014 -0.0415 -0.0638
 8536W        W 8736  11.855  12.441   7.318 -0.1143 -0.0724 -0.1235
 8537W        W 8737   4.107  14.308   4.444 -0.1734 -0.0161  0.0574
 8538W        W 8738   2.537  11.646   2.141  0.1256 -0.1813 -0.0998
 8539W        W 8739  17.937   2.794   8.695  0.1138  0.1968  0.0303
 8540W        W 8740  14.830   9.797  14.758  0.0515 -0.0851  0.1318
 8541W        W 8741  16.763   3.932   4.960 -0.0039  0.0178 -0.2441
 8542W        W 8742   1.231   0.443   1.599  0.0779  0.1439  0.0398
 8543W        W 8743   3.823   1.512   5.321  0.3136  0.0676 -0.3421
 8544W        W 8744   3.313  15.471   6.094 -0.4392 -0.1031 -0.2249
 8545W        W 8745  10.938  13.620  10.653 -0.2350 -0.0716  0.0900
 8546W        W 8746   5.126  12.531  16.405  0.1776 -0.1688  0.3050
 8547W        W 8747   3.201   7.902   7.582 -0.0442  0.1283 -0.0101
 8548W        W 8748  17.958   1.563   0.643 -0.0712  0.2412  0.0577
 8549W        W 8749  15.982  10.125   0.459 -0.1894 -0.0195  0.0699
 8550W        W 8750   9.249  11.732   0.677 -0.0193 -0.0970  0.2516
 8551W        W 8751   6.765  14.377   4.450  0.3518  0.3449 -0.0493
 8552W        W 8752  16.646   1.930   9.256  0.0826 -0.3243 -0.1952
 8553W        W 8753   1.729  10.561  16.935  0.0269 -0.0635  0.0441
 8554W        W 8754  15.711  16.686   1.827 -0.0689 -0.2061 -0.0211
 8555W        W 8755   8.642  15.084   4.304 -0.0844 -0.0670 -0.2073
 8556W        W 8756   4.925  10.538  10.703  0.2321  0.3220 -0.0813
 8557W        W 8757  13.902  12.598  11.642  0.1111 -0.0524  0.1081
 8558W        W 8758   1.956   2.115  15.719  0.0576  0.2865 -0.1712
 8559W        W 8759   4.519   1.230  12.267  0.0606  0.0982  0.2847
 8560W        W 8760  15.403  18.045  14.239 -0.1921  0.0933 -0.1355
 8561W        W 8761   5.665   1.346  11.375 -0.0312  0.2982  0.0036
 8562W        W 8762  17.175   3.676  11.503 -0.0103 -0.2304 -0.1838
 8563W        W 8763  13.772   9.867   8.735  0.1536  0.1596  0.0472
 8564W        W 8764  10.423  18.011   8.992  0.0042  0.0025 -0.0241
 8565W        W 8765   2.722  11.690   7.362  0.1928  0.4098 -0.1077
 8566W        W 8766  16.409   3.953  10.957 -0.0200  0.0370 -0.3222
 8567W        W 8767  16.913  11.588  11.668  0.2575  0.2536  0.0438
 8568W        W 8768  13.235   5.777  15.961 -0.0786  0.0686  0.4921
 8569W        W 8769   3.264  11.618   0.839 -0.4458  0.0844  0.1026
 8570W        W 8770   6.555  16.606   3.458 -0.1185  0.0947  0.0078
 8571W        W 8771  11.911   3.758   9.398  0.2879  0.2080  0.0901
 8572W        W 8772  12.906  12.014   5.580 -0.0846 -0.0264  0.1280
 8573W        W 8773   2.355  12.185   6.700 -0.2339 -0.1326  0.2008
 8574W        W 8774   0.014  13.147   9.939 -0.2525  0.1261  0.0046
 8575W        W 8775   0.378  15.067  16.001  0.1683 -0.1541  0.1426
 8576W        W 8776   8.015  11.939   7.667 -0.0657  0.1388 -0.1607
 8577W        W 8777   1.298   3.894  14.168  0.0617  0.0815 -0.0553
 8578W        W 8778   9.989  13.466   3.424 -0.0388  0.1171 -0.1600
 8579W        W 8779  12.413  14.718   8.369  0.1010  0.1358  0.1410
 8580W        W 8780  16.191  16.244  11.726 -0.1093  0.2502 -0.2886
 8581W        W 8781  15.669  13.516  13.064  0.2652 -0.0215  0.0510
 8582W        W 8782   2.061   1.956   6.591 -0.1202 -0.0387 -0.0067
 8583W        W 8783  12.121  15.809  11.111 -0.3149  0.0257  0.0280
 8584W        W 8784  13.586   6.587  14.487  0.2338  0.0428 -0.0685
 8585W        W 8785   1.472  11.291   5.587  0.1262 -0.2625  0.1950
 8586W        W 8786   2.771   1.407   9.687 -0.1186  0.1451  0.0291
 8587W        W 8787   9.056  15.758  14.060 -0.0677 -0.0427 -0.3658
 8588W        W 8788   0.213  13.466   4.958  0.1597  0.1708 -0.2120
 8589W        W 8789   2.732   9.719  16.777 -0.2658  0.1370  0.2631
 8590W        W 8790   0.551  12.652   7.096  0.1134 -0.0045  0.1296
 8591W        W 8791   6.882   3.231   6.929  0.0742  0.0759 -0.0140
 8592W        W 8792   1.988   1.649   5.708  0.1487 -0.0347 -0.0070
 8593W        W 8793   3.137   5.065  11.696 -0.3448  0.0754  0.0493
 8594W        W 8794   9.198   0.652   3.508 -0.0073 -0.0654 -0.2629
 8595W        W 8795  16.262  14.237  18.147  0.0948  0.1782  0.2633
 8596W        W 8796   1.476   8.074   0.258 -0.4257 -0.0818  0.2528
 8597W        W 8797  16.412  14.535   9.474 -0.1591 -0.0562 -0.1042
 8598W        W 8798  17.446   6.046   2.608  0.1602  0.0627  0.1103
 8599W        W 8799  15.261  13.374   4.303  0.2249 -0.0853 -0.0522
 8600W        W 8800   6.630  17.875  11.485  0.2876 -0.0267  0.2012
 8601W        W 8801  16.780   0.082   9.666 -0.2795 -0.0734  0.1667
 8602W        W 8802   1.683   4.307   8.533 -0.0417 -0.1275  0.1079
 8603W        W 8803  10.820   7.403   3.243  0.1546 -0.2179 -0.1225
 8604W        W 8804   5.725  17.083   8.582  0.2419  0.2178 -0.0025
 8605W        W 8805   4.818   4.829   2.870  0.3867  0.0606  0.0463
 8606W        W 8806  17.200   9.198  10.074  0.0052  0.1930  0.3231
 8607W        W 8807   3.093  15.488   4.317 -0.2040  0.0200  0.0239
 8608W        W 8808   1.465  13.735   9.634 -0.0174 -0.0536 -0.5833
 8609W        W 8809   0.326  17.743   1.672  0.5004 -0.2670 -0.0944
 8610W        W 8810   6.310  17.845   5.639 -0.2071 -0.1479  0.0630
 8611W        W 8811   9.876  17.295   9.162 -0.3074  0.0124 -0.2237
 8612W        W 8812   2.155  10.637  16.527  0.2444  0.0646  0.0750
 8613W        W 8813   2.640   4.718   1.831  0.3217  0.1248 -0.0065
 8614W        W 8814  16.504   0.452   6.455 -0.1709  0.2253 -0.0197
 8615W        W 8815  17.976   7.170  17.891  0.0733  0.1991 -0.1298
 8616W        W 8816  17.548  12.397  16.810 -0.2524  0.0522  0.0305
 8617W        W 8817  17.310  14.528  14.662  0.2373 -0.1075  0.0336
 8618W        W 8818   0.648  14.130  17.209  0.0651 -0.0500  0.2451
 8619W        W 8819   6.221   0.493  10.296 -0.2294 -0.0266  0.0410
 8620W        W 8820   3.860  10.472  17.516 -0.1337 -0.1001  0.0786
 8621W        W 8821   3.627  13.727   8.970  0.1569 -0.1064  0.0926
 8622W        W 8822   3.696  17.836   3.848 -0.0119 -0.3416  0.0439
 8623W        W 8823   8.645  13.585  13.646 -0.1433 -0.0189  0.4155
 8624W        W 8824   6.198  12.799  17.022 -0.2019  0.2078 -0.0629
 8625W        W 8825   2.910  18.001   4.971  0.1274 -0.2051 -0.0202
 8626W        W 8826   1.297   0.508   8.227 -0.2902  0.3766 -0.4561
 8627W        W 8827  12.763  15.368  18.095 -0.1729  0.3898 -0.1890
 8628W        W 8828  10.006   6.238   7.790 -0.1555  0.0825  0.0057
 8629W        W 8829  17.465  15.399   7.912 -0.0479 -0.0242 -0.1327
 8630W        W 8830  14.433   1.899   3.918  0.3539 -0.0779 -0.1197
 8631W        W 8831   3.964  12.944  17.428  0.0557  0.1094  0.0305
 8632W        W 8832  17.324  11.331   4.406  0.2764  0.0695  0.1049
 8633W        W 8833   3.545   0.926   4.547 -0.2106 -0.0193  0.2846
 8634W        W 8834  16.207   0.844  16.451 -0.0249  0.0601 -0.3832
 8635W        W 8835  17.939  14.224  10.797  0.1275  0.0000 -0.0031
 8636W        W 8836  15.504  11.697   6.830 -0.3946 -0.1082  0.0377
 8637W        W 8837   1.199  10.169   9.222 -0.3597 -0.2692 -0.5057
 8638W        W 8838   7.505   2.857   8.986  0.2485  0.1954 -0.0103
 8639W        W 8839   2.735  15.242   6.371  0.2979  0.1896 -0.0094
 8640W        W 8840   6.850   0.668  17.567  0.1337 -0.0139  0.0824
 8641W        W 8841  16.415  14.661   5.750 -0.1733  0.1603  0.1342
 8642W        W 8842   0.133  14.787   7.468 -0.0674  0.0705  0.1825
 8643W        W 8843   7.418   9.907   7.425  0.1794 -0.3570  0.4669
 8644W        W 8844   8.212  16.833   2.453 -0.2972 -0.5871 -0.1044
 8645W        W 8845   6.444   2.139   5.929  0.0171 -0.1740  0.1225
 8646W        W 8846  13.336  14.941  12.220  0.1307 -0.1053 -0.3209
 8647W        W 8847  16.327  12.029   9.606 -0.2061 -0.2869  0.1921
 8648W        W 8848  10.346  16.106   6.702  0.0349 -0.0766  0.2304
 8649W        W 8849   4.106  14.689   1.433 -0.0837 -0.2416 -0.0326
 8650W        W 8850   1.558   1.557   9.235 -0.2757 -0.0980 -0.0577
 8651W        W 8851   0.547  15.274  13.770 -0.5029 -0.1320  0.3451
 8652W        W 8852  16.443  14.709   0.071 -0.0703  0.1285 -0.2300
 8653W        W 8853  15.639   4.372   0.498  0.2491  0.2430  0.3095
 8654W        W 8854  17.161   4.989  11.378 -0.1091 -0.0916 -0.2602
 8655W        W 8855   0.469   6.106  10.712  0.1450 -0.2041  0.1094
 8656W        W 8856  16.331  14.260   6.704 -0.1206 -0.0430 -0.2324
 8657W        W 8857   5.155   1.108   5.726  0.0553  0.2685 -0.1225
 8658W        W 8858   2.307   1.439  14.956 -0.0097  0.0577 -0.1549
 8659W        W 8859  15.251  10.657   7.520 -0.1132  0.0559  0.1848
 8660W        W 8860  14.809  15.278   0.554 -0.3109 -0.1020 -0.1890
 8661W        W 8861  16.460   0.001  14.005 -0.2182  0.1981  0.0473
 8662W        W 8862   0.510   3.192   9.993 -0.0994  0.1397  0.0991
 8663W        W 8863   2.900  15.111   3.131 -0.0429  0.1135 -0.1623
 8664W        W 8864   4.735  13.780  15.687  0.2504 -0.0247  0.1001
 8665W        W 8865   7.309   4.292   1.834  0.2447 -0.0996 -0.3742
 8666W        W 8866  16.027  12.009  16.040 -0.0595 -0.0169 -0.0379
 8667W        W 8867   2.274   3.174   5.337 -0.3244 -0.1405  0.1306
 8668W        W 8868   2.394   9.711   1.632  0.0509 -0.1404  0.1800
 8669W        W 8869   9.084   0.593   4.009 -0.0359 -0.0831  0.0957
 8670W        W 8870   2.042  16.009   5.093  0.0127  0.0172 -0.2521
 8671W        W 8871   8.291  10.196  14.077 -0.5404 -0.0726  0.2215
 8672W        W 8872   2.000  18.083  16.347  0.3755 -0.3803  0.2440
 8673W        W 8873  17.295   9.646   3.854 -0.2197 -0.2482 -0.0886
 8674W        W 8874  10.020   2.113   3.284  0.2460 -0.1316  0.1471
 8675W        W 8875  14.684  14.148  15.702  0.3272  0.1005  0.0181
 8676W        W 8876   7.867  11.887   1.903  0.3636 -0.1409  0.3140
 8677W        W 8877   2.596   2.753  11.887  0.0244  0.0135  0.2975
 8678W        W 8878  14.707   1.094   6.068  0.0121  0.0827 -0.1454
 8679W        W 8879   0.986   0.926  12.747  0.3574  0.2069  0.0310
 8680W        W 8880   0.388  10.694  16.944  0.0029 -0.2153  0.0129
 8681W        W 8881   2.929  15.218  14.699 -0.1318  0.0687  0.0889
 8682W        W 8882  12.200  11.857   5.637 -0.0319 -0.0528  0.1562
 8683W        W 8883   9.885   4.717  11.471  0.0703  0.0604  0.2114
 8684W        W 8884   1.156   3.752  12.062  0.2234  0.1625 -0.1941
 8685W        W 8885  16.935  14.665   0.249 -0.1411  0.0993 -0.0543
 8686W        W 8886   8.777  16.595   9.621  0.0410  0.0443 -0.2278
 8687W        W 8887  17.013  13.186  14.953  0.0025  0.0552 -0.2458
 8688W        W 8888  17.134   2.088  17.174 -0.0408  0.0378  0.0798
 8689W        W 8889   3.522  11.808   5.383 -0.1113 -0.0829 -0.0993
 8690W        W 8890  11.170   0.165   2.635  0.1920  0.2078 -0.5789
 8691W        W 8891  12.951   2.675   3.706 -0.1386 -0.3828  0.0966
 8692W        W 8892   1.970   9.606   5.801 -0.1513  0.0362 -0.2415
 8693W        W 8893  11.162  13.109   3.000 -0.1831  0.1016  0.2097
 8694W        W 8894  16.032  18.044   8.215 -0.0235  0.1088  0.3612
 8695W        W 8895   0.942   9.511   3.540 -0.0294 -0.1880 -0.1282
 8696W        W 8896  16.653  14.441   2.487  0.2035 -0.2922  0.0034
 8697W        W 8897   6.445   8.169   7.612 -0.2656  0.1895  0.0249
 8698W        W 8898  17.907   0.368   6.006  0.3398 -0.1094 -0.0355
 8699W        W 8899   5.372  16.970   2.312  0.2403 -0.1131 -0.2895
 8700W        W 8900  16.804   4.651   3.402  0.0284  0.0888  0.0647
 8701W        W 8901  16.520   4.989   4.755  0.0554 -0.0390 -0.0361
 8702W        W 8902  12.334   0.583  17.151  0.1503  0.2286  0.1415
 8703W        W 8903  12.323  15.685   4.853 -0.1961 -0.0701 -0.2423
 8704W        W 8904  11.820   0.186  14.765  0.1096  0.0926  0.0333
 8705W        W 8905   9.435  14.760   6.137  0.0698  0.0403 -0.0641
 8706W        W 8906  12.772   9.079   8.763  0.0346  0.0808 -0.4313
 8707W        W 8907   1.043   1.327   6.939 -0.0219 -0.0695 -0.1126
 8708W        W 8908   8.285   9.006   4.323  0.0352  0.0436 -0.1323
 8709W        W 8909   2.495  11.685  13.119 -0.1667 -0.2365  0.0994
 8710W        W 8910   9.671   4.449  10.139 -0.2991 -0.0318 -0.2165
 8711W        W 8911  16.089  12.766   4.947  0.1702 -0.1054  0.0436
 8712W        W 8912   4.877   0.107   3.291  0.0393  0.2015  0.0864
 8713W        W 8913   0.137  10.654   3.195  0.2701  0.0294  0.1135
 8714W        W 8914   4.817   1.289   6.593 -0.0924  0.1072 -0.2290
 8715W        W 8915  12.116   2.843  11.329  0.1340  0.2981 -0.1539
 8716W        W 8916   0.946   0.143  11.681 -0.0592  0.0031  0.0323
 8717W        W 8917   7.323   1.810  11.491 -0.2406  0.0259  0.1570
 8718W        W 8918   3.045  16.954   3.592 -0.0642  0.2885 -0.2897
 8719W        W 8919  14.638  18.187   5.675 -0.1972 -0.3021  0.0420
 8720W        W 8920   5.988  15.374  17.539 -0.3141 -0.1461  0.0533
 8721W        W 8921  18.008  16.158   6.959 -0.0474  0.0440  0.2148
 8722W        W 8922  18.169  13.738  16.784  0.0223 -0.2519  0.1286
 8723W        W 8923   3.274  17.722  16.501 -0.3639 -0.1601  0.0214
 8724W        W 8924   1.435  12.551   3.486  0.1829  0.0152 -0.0232
 8725W        W 8925   5.275   4.101   8.899 -0.1455  0.3085  0.0744
 8726W        W 8926   6.395  15.890  16.077  0.2804  0.1505  0.2260
 8727W        W 8927   4.590  11.886   4.185 -0.1165  0.1620 -0.3662
 8728W        W 8928   1.812  12.772   1.437  0.0118  0.2771  0.0531
 8729W        W 8929  16.545  16.978   2.110  0.1334  0.0186  0.1455
 8730W        W 8930  12.889   0.791   3.622  0.1055  0.1864  0.0776
 8731W        W 8931   7.532  17.806  11.164  0.2171  0.0502 -0.2303
 8732W        W 8932  13.631  18.175   8.689 -0.0022  0.0316 -0.1690
 8733W        W 8933   2.661   6.719  17.533 -0.0295 -0.1664  0.0344
 8734W        W 8934   2.409  15.662   1.076  0.0946  0.2574 -0.1037
 8735W        W 8935   7.487   0.998   4.278  0.1975  0.0377  0.1675
 8736W        W 8936   2.375  14.136  15.584  0.1199  0.1149 -0.1611
 8737W        W 8937  14.429  12.961  14.133  0.3161 -0.0372  0.1020
 8738W        W 8938   8.208  11.204  12.884  0.2968  0.1569 -0.1432
 8739W        W 8939   4.565   6.372  11.322  0.5945  0.2567  0.0998
 8740W        W 8940   3.867   0.241   8.834  0.0111  0.1155  0.0311
 8741W        W 8941   4.434   2.298   5.266  0.1229  0.1262  0.2221
 8742W        W 8942   9.714  16.211   4.891 -0.2075 -0.0729  0.2437
 8743W        W 8943  15.491   9.768  16.000  0.1059 -0.0201  0.0840
 8744W        W 8944   7.442  10.325   9.000  0.1197 -0.2109 -0.1455
 8745W        W 8945   2.814   0.426   6.305  0.1274 -0.0362  0.2236
 8746W        W 8946   1.063  18.159   8.056 -0.0535  0.0237  0.2238
 8747W        W 8947  17.651  17.956   1.575 -0.0596 -0.0484  0.1042
 8748W        W 8948   2.015   0.212   6.711 -0.2843  0.2217  0.2282
 8749W        W 8949   4.413   3.337   2.223 -0.2335 -0.0550  0.2170
 8750W        W 8950   3.603  16.805   7.532  0.1640 -0.1745  0.3689
 8751W        W 8951   5.071  16.403   6.031 -0.0875 -0.2615 -0.1124
 8752W        W 8952   4.963  16.393   8.559 -0.0098 -0.2106  0.1031
 8753W        W 8953   5.331   9.039   1.160 -0.1662 -0.0828 -0.4747
 8754W        W 8954  11.632   3.565   0.457 -0.6119 -0.2797  0.2110
 8755W        W 8955   3.954   1.278   8.516  0.0351  0.1293 -0.1171
 8756W        W 8956  16.905  17.394  10.798 -0.0493  0.0032 -0.4411
 8757W        W 8957  17.818  17.915  17.505  0.0534  0.2574 -0.2911
 8758W        W 8958   2.564  17.528   2.867  0.0402  0.3305 -0.2031
 8759W        W 8959   2.198  13.274   9.835 -0.0989 -0.1066  0.3555
 8760W        W 8960   0.940   8.278  12.011 -0.2052 -0.0580 -0.1161
 8761W        W 8961  16.867   1.221   6.029  0.1701 -0.1056  0.0927
 8762W        W 8962  10.912  10.459   4.530  0.0312 -0.2189 -0.1656
 8763W        W 8963  14.054   1.869   8.056 -0.0346 -0.0055 -0.0095
 8764W        W 8964  15.372   5.994   0.905 -0.1637  0.2387  0.1512
 8765W        W 8965   0.503   1.976   3.684  0.0689  0.2929  0.4475
 8766W        W 8966  13.364   0.712   8.068  0.0286 -0.0198  0.1123
 8767W        W 8967   4.191  11.787   3.091 -0.0168 -0.2317 -0.0351
 8768W        W 8968   3.959  18.083   7.343 -0.0193 -0.2067  0.2772
 8769W        W 8969   4.842  15.798   8.069  0.1527  0.0745 -0.1166
 8770W        W 8970   8.590  13.091   4.391  0.0795 -0.0510  0.3551
 8771W        W 8971   1.075   1.436   8.489  0.0344  0.0047  0.2794
 8772W        W 8972  13.339  12.401   4.968  0.0324 -0.4017  0.2568
 8773W        W 8973   1.843  15.095   8.718  0.0580 -0.2558 -0.1325
 8774W        W 8974   3.898  12.982   2.584  0.3126  0.3754  0.1292
 8775W        W 8975   2.519  13.874   2.801 -0.0891  0.1802  0.0471
 8776W        W 8976   8.449   1.937   8.526 -0.1815 -0.3157 -0.0423
 8777W        W 8977   5.826  17.602  10.277 -0.2041  0.1813  0.1807
 8778W        W 8978   0.956   8.623  11.094 -0.0403 -0.1122 -0.0370
 8779W        W 8979  10.483   5.011   3.737  0.3417 -0.0256 -0.0411
 8780W        W 8980   4.241   2.822   5.623  0.3042  0.0976  0.0603
 8781W        W 8981   3.550   6.001   4.330  0.0102 -0.2066 -0.0086
 8782W        W 8982  17.790  10.264   6.207 -0.0010 -0.4278 -0.0301
 8783W        W 8983  14.470  14.767  16.936 -0.1781 -0.2088  0.1851
 8784W        W 8984   6.690  16.877  16.904 -0.0277  0.1636 -0.0663
 8785W        W 8985   2.021  11.026  14.342 -0.0262 -0.0235  0.0083
 8786W        W 8986  13.676  16.317  17.723 -0.0991  0.0763 -0.0665
 8787W        W 8987   4.059   0.423   7.217 -0.2007  0.0139 -0.5145
 8788W        W 8988   3.340  14.112  15.877  0.2803  0.1709  0.1919
 8789W        W 8989   7.529  15.974   1.628  0.2166  0.2176 -0.1128
 8790W        W 8990   0.779  12.457  17.342 -0.0131 -0.0006  0.2790
 8791W        W 8991   7.081  10.548  13.466 -0.2061 -0.0975 -0.0451
 8792W        W 8992   6.177   0.838  16.034  0.0712 -0.0935  0.2657
 8793W        W 8993   1.474   8.328   3.514 -0.0471 -0.3691 -0.2158
 8794W        W 8994  15.559  17.359  13.094 -0.1984 -0.2215 -0.0035
 8795W        W 8995  12.583  13.649   6.547 -0.2350 -0.1359  0.1502
 8796W        W 8996   7.832  10.017  18.057  0.2006 -0.1559 -0.1724
 8797W        W 8997   3.882  10.419   4.578 -0.0912  0.2873 -0.0541
 8798W        W 8998   3.164  13.258   5.418  0.1771 -0.0839 -0.2766
 8799W        W 8999   0.993   7.565   1.473  0.1253  0.1263 -0.1643
 8800W        W 9000   5.328   3.617  15.832  0.0139  0.1024  0.2836
 8801W        W 9001  17.567   2.018   5.543  0.3503 -0.0203 -0.2188
 8802W        W 9002   4.305  15.438   0.328 -0.2480  0.0737  0.1780
 8803W        W 9003   5.923   4.238  10.385 -0.1733 -0.0931 -0.2716
 8804W        W 9004  10.255  15.121   9.968  0.1296 -0.0777 -0.1047
 8805W        W 9005   0.992   1.915  10.204 -0.0369 -0.2747 -0.2183
 8806W        W 9006  15.240  16.692   7.415 -0.0821  0.0040 -0.1491
 8807W        W 9007   6.857  15.280   3.061 -0.0916  0.0134 -0.1022
 8808W        W 9008   4.950  16.283   2.615 -0.1985 -0.0752  0.1927
 8809W        W 9009   3.972  16.922   4.118  0.0815  0.0708  0.0942
 8810W        W 9010  15.660  14.349  15.254  0.1354 -0.3371 -0.4947
 8811W        W 9011   3.769   0.816  13.726 -0.3639  0.3685  0.1365
 8812W        W 9012   4.417  17.069  13.609  0.0297 -0.0645  0.3409
 8813W        W 9013  16.442  15.969   3.357 -0.1522 -0.2406 -0.1322
 8814W        W 9014  11.342  15.121   1.901  0.1124 -0.3650 -0.0835
 8815W        W 9015   1.364  14.794  13.407  0.0317 -0.0188  0.0938
 8816W        W 9016  16.810   0.535  17.339 -0.2631 -0.0690  0.1463
 8817W        W 9017   7.758   4.336   2.290  0.2661 -0.1742  0.0047
 8818W        W 9018  17.224  17.683  17.964 -0.0536 -0.2057  0.0768
 8819W        W 9019   8.137   1.776   9.671 -0.2242 -0.0198  0.0133
 8820W        W 9020  16.631  16.486  11.896  0.1976 -0.3180 -0.2044
 8821W        W 9021  13.998  17.321  10.954  0.1973  0.4579  0.3474
 8822W        W 9022  10.510  14.550   6.307 -0.1844  0.3864 -0.1573
 8823W        W 9023  14.089  12.461   5.112 -0.0548 -0.3874  0.0934
 8824W        W 9024  17.977  15.958   3.291 -0.1156 -0.5196  0.1057
 8825W        W 9025   3.152  11.145   1.807 -0.1104  0.3377  0.2405
 8826W        W 9026  16.340   9.088   4.393 -0.1179  0.0579 -0.0065
 8827W        W 9027   6.271  14.291   4.294 -0.3883 -0.0672 -0.0798
 8828W        W 9028  10.496   5.304   6.813 -0.0036 -0.3699 -0.3441
 8829W        W 9029  12.594   0.764  12.504  0.0387  0.2638  0.0322
 8830W        W 9030   5.833   2.996   5.317  0.0370 -0.0925  0.0382
 8831W        W 9031   7.575   3.448  13.006 -0.0808 -0.0646  0.1301
 8832W        W 9032   1.790  10.460   3.832  0.0369  0.0253 -0.3656
 8833W        W 9033   0.370   9.809   8.677  0.0528 -0.1716 -0.1923
 8834W        W 9034   7.746   4.121   3.983  0.1898  0.0288  0.2265
 8835W        W 9035   5.713  15.471  12.598  0.2200  0.3259  0.0502
 8836W        W 9036  17.598   2.488  10.740  0.1144 -0.1537 -0.0833
 8837W        W 9037  16.859   0.496   1.810  0.0679 -0.0008 -0.2385
 8838W        W 9038   5.867  16.788   4.264 -0.0848  0.3998 -0.3043
 8839W        W 9039  13.378  15.664   3.980  0.0264  0.3438  0.0457
 8840W        W 9040  13.806  12.202  13.558  0.0600 -0.1508 -0.0793
 8841W        W 9041   5.473   0.941   7.085  0.1662  0.2292 -0.0889
 8842W        W 9042   1.993  16.189   7.794 -0.2865  0.2076  0.0894
 8843W        W 9043   3.244   0.839   4.157 -0.1961 -0.2338 -0.0899
 8844W        W 9044   8.795   4.220   2.624 -0.3311  0.1877  0.1103
 8845W        W 9045   3.296   0.923   7.442  0.0260 -0.1870 -0.1156
 8846W        W 9046  17.630   0.811   2.429  0.1648  0.2777  0.0048
 8847W        W 9047  11.533   8.824   6.834 -0.0442  0.0886  0.2152
 8848W        W 9048  14.182  11.268  15.803  0.5326  0.3113 -0.0439
 8849W        W 9049   0.997   1.460  12.337  0.0543  0.0632  0.1819
 8850W        W 9050   0.863  15.607  17.659  0.1029 -0.0569  0.0818
 8851W        W 9051   6.431   1.703  14.965 -0.3909 -0.5179 -0.2546
 8852W        W 9052   4.963   0.432   6.592  0.1364  0.2311  0.0107
 8853W        W 9053  12.252  13.212  13.748 -0.0425 -0.3141  0.3466
 8854W        W 9054  14.653  14.855  11.713  0.0487 -0.0815  0.0285
 8855W        W 9055  15.078   2.590   6.108 -0.0053 -0.0655  0.0530
 8856W        W 9056  14.958  16.765  17.102 -0.3732  0.1163 -0.0944
 8857W        W 9057   4.529  10.207   7.802  0.2270 -0.2078 -0.2294
 8858W        W 9058   6.436  15.254  17.747 -0.2155  0.0150 -0.1813
 8859W        W 9059   0.754   1.843   9.709  0.0421 -0.0591  0.0465
 8860W        W 9060  17.530   8.195  15.773  0.0648  0.2203  0.1426
 8861W        W 9061   4.984  10.908  11.514  0.2634  0.3592 -0.0411
 8862W        W 9062   8.154  14.138  14.636  0.2516  0.0845  0.0473
 8863W        W 9063  15.708   1.159  12.160  0.3596 -0.0712  0.1141
 8864W        W 9064   1.956   0.757  12.965  0.1637  0.1704 -0.1126
 8865W        W 9065   6.552  13.980   9.216 -0.0165 -0.0525  0.0939
 8866W        W 9066   6.197   1.236  10.151 -0.0921 -0.0389  0.2061
 8867W        W 9067   3.806   6.007  17.935  0.1358 -0.2208 -0.1198
 8868W        W 9068   2.774   3.204   2.476 -0.0462 -0.0615  0.1670
 8869W        W 9069  13.705  11.274   8.074 -0.0062  0.0377 -0.1423
 8870W        W 9070  13.013   7.426  13.570  0.0322 -0.1132  0.0306
 8871W        W 9071   6.550  17.137  10.006  0.0347 -0.0105 -0.0245
 8872W        W 9072  14.559  10.528   8.670  0.0608  0.1304 -0.1769
 8873W        W 9073  10.202  13.674   1.818 -0.2824 -0.1664  0.1634
 8874W        W 9074  17.771  12.806   6.247 -0.0501 -0.0448 -0.1720
 8875W        W 9075   3.139  13.299  10.287 -0.0291 -0.3711  0.1721
 8876W        W 9076  11.066  16.118  10.287 -0.0214  0.2014 -0.1351
 8877W        W 9077   0.520  12.539   3.791  0.0265 -0.0211 -0.0738
 8878W        W 9078   2.682   2.786  10.470  0.1934 -0.3035  0.0818
 8879W        W 9079   0.504   0.273   0.963  0.0415 -0.0881 -0.0197
 8880W        W 9080   4.054   1.918   9.382 -0.1934 -0.0101 -0.0128
 8881W        W 9081   2.691  16.706   8.019  0.3498  0.0698 -0.1292
 8882W        W 9082   5.701   1.213   8.902 -0.0116 -0.4515  0.1055
 8883W        W 9083   0.267   2.070   8.414  0.1681 -0.3257  0.2737
 8884W        W 9084   6.354   2.312   3.652 -0.3402 -0.0080 -0.0884
 8885W        W 9085  13.064  14.120   7.918  0.1022 -0.0437  0.1713
 8886W        W 9086   3.507   0.099  17.086 -0.2069  0.0442 -0.1896
 8887W        W 9087  15.366  12.958  12.936  0.1281  0.1192  0.0374
 8888W        W 9088   1.596  13.777   5.360 -0.1283  0.0336 -0.0035
 8889W        W 9089  15.719  13.797  10.705 -0.2269 -0.0857  0.0850
 8890W        W 9090   2.108  13.837   9.126  0.2760  0.0820  0.2690
 8891W        W 9091  12.885   3.411   9.303 -0.0630  0.1756 -0.1240
 8892W        W 9092   0.710  17.159  13.548 -0.0140 -0.0255 -0.2052
 8893W        W 9093   3.164   0.010   8.612  0.2198  0.3723  0.1523
 8894W        W 9094   2.343  11.163   0.769  0.4651  0.0034  0.0944
 8895W        W 9095   2.493   2.706   7.639 -0.1217  0.0397 -0.0467
 8896W        W 9096  12.696   7.041   1.754 -0.0296  0.0223 -0.2060
 8897W        W 9097  16.422   5.786  13.603  0.0039 -0.1189  0.1223
 8898W        W 9098   2.347   7.567   8.678 -0.1189  0.0302 -0.0313
 8899W        W 9099  11.277  11.117  10.581  0.0152 -0.0784 -0.3424
 8900W        W 9100   2.521  16.705  14.079 -0.1464  0.1891 -0.3351
 8901W        W 9101  13.851   1.445   9.112  0.0208 -0.0377  0.0131
 8902W        W 9102   7.499  17.430   6.695  0.2685  0.0919  0.4607
 8903W        W 9103   3.293   6.701   8.241  0.0541  0.2635  0.0595
 8904W        W 9104  16.375   0.687  12.772  0.3212 -0.1369 -0.1813
 8905W        W 9105  17.626  17.484   7.273  0.1239 -0.3551 -0.0821
 8906W        W 9106   2.841   5.441   7.305  0.0463  0.0597 -0.0133
 8907W        W 9107  17.817  15.586   1.350 -0.1729  0.0487 -0.1320
 8908W        W 9108  11.220   3.128   9.301  0.2476  0.0021  0.2342
 8909W        W 9109  17.163  15.580   8.902  0.0040  0.2530  0.2612
 8910W        W 9110  16.999   2.618   2.140  0.1513 -0.2952 -0.1721
 8911W        W 9111   0.838  13.742   5.644 -0.1586  0.0178 -0.2488
 8912W        W 9112   2.752   9.193   8.743 -0.0761 -0.0325 -0.4647
 8913W        W 9113  17.591  16.948   4.066  0.3029  0.0336  0.1687
 8914W        W 9114  17.570   3.416  12.788  0.2283 -0.0715  0.4934
 8915W        W 9115   1.998  16.750   9.138  0.0632 -0.0366  0.3228
 8916W        W 9116   4.912   4.832   7.938  0.2036 -0.1324 -0.0767
 8917W        W 9117  12.570   9.591  11.646  0.3405  0.0813  0.0887
 8918W        W 9118   2.535   8.835  17.822 -0.0001  0.1139  0.3433
 8919W        W 9119  17.887   8.912  13.138 -0.4325  0.0171  0.0299
 8920W        W 9120   5.759   3.790  15.698  0.0954  0.4028  0.2599
 8921W        W 9121   6.705  12.182   2.612  0.2504  0.2341  0.4156
 8922W        W 9122   6.426  14.162  12.833 -0.0038  0.2633  0.2846
 8923W        W 9123   4.284   1.888  13.398 -0.0785  0.0116  0.2144
 8924W        W 9124  17.461   9.960  11.828 -0.0031 -0.3353  0.1110
 8925W        W 9125   4.842  15.369   2.707  0.1026  0.1567 -0.0996
 8926W        W 9126   7.165   5.149   8.265  0.0293  0.2380 -0.0480
 8927W        W 9127   1.662  16.644   7.037 -0.0470  0.1038 -0.0360
 8928W        W 9128   4.774  16.037   1.732  0.1218  0.1804 -0.0422
 8929W        W 9129   1.003  12.979   1.633  0.1959  0.1324 -0.1651
 8930W        W 9130   2.842  15.167   8.262 -0.1587 -0.1554 -0.0390
 8931W        W 9131   5.393  14.641  10.010  0.1840  0.0141  0.1914
 8932W        W 9132  15.786  18.136   1.203 -0.1199 -0.1101 -0.0193
 8933W        W 9133  12.348  10.234  13.884 -0.1040  0.0592  0.2165
 8934W        W 9134   6.371   9.745   6.783 -0.2727  0.2237  0.1214
 8935W        W 9135  18.076  16.391  12.497  0.0836 -0.1916 -0.0370
 8936W        W 9136  16.599   5.306   9.387 -0.0482  0.1551  0.2055
 8937W        W 9137   1.903  15.306   6.132 -0.0877 -0.0679 -0.0899
 8938W        W 9138   1.162   2.315   3.137  0.1471 -0.0231 -0.0982
 8939W        W 9139  14.092   6.496  10.965 -0.1711 -0.2889  0.3236
 8940W        W 9140   5.876  18.004   9.157  0.0571  0.2222  0.0670
 8941W        W 9141   9.426  17.716   3.359  0.0884 -0.3296  0.2216
 8942W        W 9142   2.772   8.630   7.168  0.1818  0.0883  0.0783
 8943W        W 9143  15.688  15.179   5.945  0.0526 -0.2818 -0.1308
 8944W        W 9144   3.726  12.682   4.026  0.2182  0.3882 -0.0693
 8945W        W 9145  16.903  13.372   8.691  0.0776  0.1648  0.1877
 8946W        W 9146   0.759  18.155  13.239  0.1890  0.0530  0.2900
 8947W        W 9147  11.275  16.996   5.610  0.1934  0.3631  0.0380
 8948W        W 9148   2.072   0.727   3.120 -0.0339  0.1049 -0.4551
 8949W        W 9149   1.100   2.588   9.417  0.2518 -0.0851 -0.1175
 8950W        W 9150   4.301  16.560  17.503 -0.0651  0.1591  0.1151
 8951W        W 9151  15.114   3.929   8.540 -0.1091 -0.2410  0.0836
 8952W        W 9152  16.629  10.580  17.520  0.2149 -0.2531 -0.0594
 8953W        W 9153   3.494   8.553  14.424  0.1142 -0.0385  0.1968
 8954W        W 9154   2.897   1.898   6.126 -0.1747 -0.0181  0.0281
 8955W        W 9155   1.474  10.913  13.809  0.2666  0.0663  0.3021
 8956W        W 9156  17.229  14.269  13.718 -0.2612 -0.0174 -0.0349
 8957W        W 9157   7.756   3.416  11.210 -0.2546 -0.1917 -0.2498
 8958W        W 9158  14.625   9.846   8.219  0.1314 -0.1939  0.0434
 8959W        W 9159   5.677  15.131   4.400 -0.0331  0.1981  0.0677
 8960W        W 9160   5.247  17.350   1.544  0.2398 -0.0696  0.0065
 8961W        W 9161   1.588  16.189   1.373 -0.4470  0.1751 -0.3416
 8962W        W 9162   5.019  18.067  11.561  0.1761  0.2947 -0.0791
 8963W        W 9163   1.141   7.130  17.421  0.1537  0.2258  0.0093
 8964W        W 9164  17.130   6.840   7.921 -0.1384 -0.1304 -0.0315
 8965W        W 9165   6.162   3.557   2.464 -0.2062 -0.1147  0.1374
 8966W        W 9166   9.034   9.542   6.882  0.6246  0.3125 -0.1055
 8967W        W 9167   6.760  16.478  10.595 -0.0728 -0.3092  0.1059
 8968W        W 9168   5.613  17.655   4.430  0.1693 -0.0538  0.0845
 8969W        W 9169  10.262  11.879  14.351  0.0020  0.1290  0.0971
 8970W        W 9170   4.578  12.927  15.704 -0.1285  0.0708 -0.3385
 8971W        W 9171  17.753   0.100  17.149 -0.1735 -0.1059 -0.1363
 8972W        W 9172   5.433  14.501   5.091  0.1911  0.1847 -0.0494
 8973W        W 9173   2.178   3.478  16.962  0.2142 -0.1113  0.2840
 8974W        W 9174   0.683  10.262   7.889  0.1429  0.1041 -0.2724
 8975W        W 9175  15.544   9.656   9.053 -0.0619 -0.1639  0.1332
 8976W        W 9176  16.051  15.119  17.340  0.1781  0.0796  0.0596
 8977W        W 9177   1.676   4.036  15.691 -0.0168 -0.0983 -0.0519
 8978W        W 9178   2.434  16.986   7.561 -0.1016 -0.0359 -0.0286
 8979W        W 9179  15.242   9.199  12.879  0.3590 -0.3103 -0.2309
 8980W        W 9180   4.604  17.806   6.935  0.3974  0.3112 -0.0699
 8981W        W 9181   4.702   2.930   4.790 -0.3268 -0.1568  0.0817
 8982W        W 9182   0.126  12.702  11.992  0.1586 -0.0695 -0.1213
 8983W        W 9183   1.485  15.453   8.747  0.0650 -0.0549  0.0833
 8984W        W 9184  10.824   3.371  12.250 -0.1430  0.0991 -0.0816
 8985W        W 9185   4.485  17.356   0.541 -0.0922  0.0468  0.1780
 8986W        W 9186  18.021  13.751  11.339  0.0703  0.1933 -0.0935
 8987W        W 9187   1.345  17.691  15.115  0.1623 -0.1806  0.1032
 8988W        W 9188   1.564   1.276   8.690 -0.1864  0.2742  0.4364
 8989W        W 9189   4.315  10.053   5.936  0.2629  0.1762 -0.0823
 8990W        W 9190  18.060   1.861   7.373 -0.0498 -0.2298  0.2161
 8991W        W 9191   2.476   5.345  15.373  0.1690  0.3957  0.0272
 8992W        W 9192   2.705  16.450   2.140  0.0353 -0.2591 -0.1226
 8993W        W 9193   2.369   4.570  10.946  0.0231 -0.1914 -0.0045
 8994W        W 9194   2.272  13.207   9.110 -0.3887  0.0533 -0.1869
 8995W        W 9195   8.475  16.524   7.237 -0.1247 -0.0259 -0.1764
 8996W        W 9196   7.930   3.549  16.088  0.2701  0.4014 -0.0400
 8997W        W 9197  16.434   0.874  14.161 -0.2074 -0.2721 -0.0462
 8998W        W 9198   0.033  11.361  10.017 -0.0066 -0.0705 -0.1613
 8999W        W 9199  18.095   0.011   0.442 -0.1369 -0.2953  0.2615
 9000W        W 9200   6.800  15.902  17.118 -0.1845 -0.0768  0.0129
 9001W        W 9201   1.635   8.496   4.634  0.1428 -0.3161  0.0071
 9002W        W 9202  14.693   6.454   7.778  0.0192 -0.2548 -0.3508
 9003W        W 9203  16.966  12.005   3.263 -0.0553 -0.1203 -0.1302
 9004W        W 9204   2.020  15.017  18.005  0.1177 -0.3731  0.0003
 9005W        W 9205   1.617  17.624   3.434  0.0643 -0.1771  0.3303
 9006W        W 9206   6.274  15.240   3.008 -0.2367 -0.0535  0.0564
 9007W        W 9207   0.194   7.379   5.073  0.0400 -0.0509 -0.1207
 9008W        W 9208  14.080  15.519  12.795  0.2057 -0.1265  0.1531
 9009W        W 9209   0.111  12.622   3.584 -0.2285  0.2387 -0.1135
 9010W        W 9210   3.613  12.489   9.710 -0.0699  0.2059  0.3405
 9011W        W 9211   0.503  17.450   4.378 -0.0605 -0.2495  0.2088
 9012W        W 9212   0.196  15.947  10.619  0.0217 -0.3275 -0.1370
 9013W        W 9213  14.011   8.788  11.839  0.4745 -0.3293 -0.1329
 9014W        W 9214   4.776   5.622  10.678  0.1526 -0.0675 -0.1539
 9015W        W 9215  17.821  11.830  14.440 -0.1497 -0.0557  0.1956
 9016W        W 9216   1.817  15.768   1.066  0.1888  0.0508 -0.0876
 9017W        W 9217   3.674  10.702   3.048 -0.2338 -0.1354  0.1239
 9018W        W 9218   8.638  16.706   0.254  0.1626  0.0112 -0.0753
 9019W        W 9219   6.795  16.347   1.452  0.3629 -0.4288 -0.3051
 9020W        W 9220   7.185   5.690   4.025 -0.0508  0.2829  0.5490
 9021W        W 9221  12.684   3.988  13.330  0.0557  0.1289  0.2031
 9022W        W 9222   9.177   2.198   5.457  0.0784 -0.0206 -0.2533
 9023W        W 9223  17.164   1.248   9.335  0.4377  0.2192  0.1097
 9024W        W 9224   8.800   1.479  11.860  0.0641 -0.2135 -0.2897
 9025W        W 9225   6.065   9.506   4.892  0.0401 -0.0532  0.1297
 9026W        W 9226  12.559  17.136  16.162 -0.0491  0.1388  0.1646
 9027W        W 9227  17.071   0.925  15.880  0.3058  0.1858 -0.1863
 9028W        W 9228   5.774  16.471  11.186 -0.0546 -0.3335 -0.4112
 9029W        W 9229  16.750  17.009  16.342 -0.4484  0.0750 -0.0329
 9030W        W 9230   2.447  17.610  14.334  0.1431  0.3659  0.0788
 9031W        W 9231   6.708  10.546  12.976 -0.0452  0.2784 -0.0835
 9032W        W 9232  14.841  13.513   4.941  0.1769 -0.0580 -0.0180
 9033W        W 9233   0.368   9.612   2.173 -0.0893 -0.0271 -0.0151
 9034W        W 9234   3.367   0.105  15.566 -0.1174 -0.2348 -0.1032
 9035W        W 9235   6.070  14.408   8.214 -0.2377  0.1763 -0.1671
 9036W        W 9236  17.663   0.583  12.748 -0.1804 -0.2112  0.0642
 9037W        W 9237   6.688  11.370  11.091 -0.4353 -0.4325  0.0021
 9038W        W 9238  10.203   4.257   3.921 -0.0771 -0.0146 -0.0996
 9039W        W 9239   1.093   3.256   7.749 -0.0629  0.1150  0.1326
 9040W        W 9240   0.057   9.136   8.009  0.2241 -0.0948  0.2241
 9041W        W 9241  15.443   4.271   8.316 -0.3914  0.1832 -0.0971
 9042W        W 9242   2.283  13.966   6.404  0.1640  0.0791  0.0349
 9043W        W 9243   8.696   1.609   3.603  0.1244  0.1768 -0.1851
 9044W        W 9244   4.914   1.799   3.833  0.1311  0.1366 -0.1994
 9045W        W 9245   5.461  16.827   1.403  0.1458  0.3823 -0.1425
 9046W        W 9246  12.312   1.571  10.674  0.1611  0.0769 -0.0195
 9047W        W 9247  10.270  14.118   3.513 -0.3778  0.0812 -0.3000
 9048W        W 9248  14.753  10.827   8.103 -0.1526 -0.0313 -0.2624
 9049W        W 9249   1.651  16.086  13.703 -0.0890 -0.0818 -0.3764
 9050W        W 9250   4.115  16.532  10.181  0.0058 -0.0929  0.3300
 9051W        W 9251   1.645  15.510  10.583  0.0849 -0.2692 -0.0552
 9052W        W 9252   2.175  16.611   3.575  0.0214  0.0668 -0.1139
 9053W        W 9253   6.340   2.379  11.884 -0.1417 -0.2099 -0.2783
 9054W        W 9254   0.255   9.343  17.372  0.0593  0.1949  0.2911
 9055W        W 9255   0.599   7.808   6.399  0.4436  0.0073 -0.0894
 9056W        W 9256   5.872  13.157  15.598  0.1172  0.2130  0.0697
 9057W        W 9257   6.408  16.547  13.104  0.1583  0.3049  0.0907
 9058W        W 9258   1.822   1.940  14.657  0.4073 -0.2382  0.0748
 9059W        W 9259   6.941  14.497  11.870 -0.1982 -0.2715 -0.1383
 9060W        W 9260   7.021   8.705   7.051  0.3506 -0.3065  0.1051
 9061W        W 9261   5.090  16.277   4.626 -0.3608 -0.1632 -0.1489
 9062W        W 9262   3.509  14.837   3.623  0.4846  0.1239  0.2491
 9063W        W 9263   5.282   8.315  15.394  0.2407 -0.1724 -0.2918
 9064W        W 9264  16.147  15.191  16.086 -0.3228  0.1615  0.1910
 9065W        W 9265  10.924   6.465  15.567  0.1165 -0.0717 -0.1971
 9066W        W 9266  14.806  13.201  11.461 -0.0799  0.0226  0.2446
 9067W        W 9267  16.182   4.067  16.346  0.0936 -0.1724  0.0442
 9068W        W 9268  10.669   8.137   9.666  0.5027  0.0978 -0.0722
 9069W        W 9269  17.465   1.036  14.125  0.3560 -0.2057  0.0424
 9070W        W 9270  11.072  12.140   3.118  0.1767 -0.1139  0.1993
 9071W        W 9271   1.660  14.291  14.457  0.2026  0.0120  0.3550
 9072W        W 9272   9.888   0.782   4.991  0.3370  0.2340 -0.1863
 9073W        W 9273  14.850  17.623   2.545 -0.2157 -0.1073 -0.1784
 9074W        W 9274  11.639   1.861   5.887 -0.4403 -0.0712  0.0702
 9075W        W 9275   5.187   4.316   7.049  0.0146  0.0359  0.0485
 9076W        W 9276   9.864  11.944   4.237  0.1735  0.2079 -0.1072
 9077W        W 9277  14.193  16.755  13.484 -0.0821 -0.1205  0.2146
 9078W        W 9278   2.580  15.270   3.579  0.0538  0.1829 -0.2798
 9079W        W 9279   5.151  15.765   9.996  0.0291 -0.2714  0.1091
 9080W        W 9280  17.593   6.310   5.282 -0.0190  0.1346 -0.2437
 9081W        W 9281   1.322  13.409   1.349 -0.1109  0.1488 -0.0178
 9082W        W 9282   1.186  13.540  11.580 -0.2638  0.0639 -0.0777
 9083W        W 9283   0.444   5.634  11.921  0.2641  0.4124 -0.1680
 9084W        W 9284   3.045  16.714   2.362 -0.2246  0.1486  0.0551
 9085W        W 9285  17.643   8.910   4.376 -0.0833  0.0028 -0.1590
 9086W        W 9286  15.242   0.691  13.690 -0.2211  0.3811  0.0463
 9087W        W 9287   3.366   0.706   8.950  0.0928 -0.0764 -0.4623
 9088W        W 9288   0.435  15.830  13.311  0.1857 -0.0169  0.1461
 9089W        W 9289  16.585  16.786  13.982  0.2044  0.0947 -0.2665
 9090W        W 9290   0.902   0.913   5.607 -0.1303 -0.2371  0.1892
 9091W        W 9291   2.996   5.550   3.774 -0.1647 -0.2855  0.0755
 9092W        W 9292  10.090   0.291   5.454 -0.3028 -0.1767 -0.1342
 9093W        W 9293   5.187  14.378   9.387  0.0077  0.0334  0.0671
 9094W        W 9294   4.578   2.567   8.635  0.1099 -0.0357  0.2000
 9095W        W 9295  13.093   1.248   5.779  0.0623  0.1537 -0.1283
 9096W        W 9296   7.427  16.169  12.683 -0.3610  0.2099  0.1102
 9097W        W 9297   8.507  17.944   3.465  0.3583  0.0639  0.2556
 9098W        W 9298  13.672   0.665   7.564  0.0893 -0.1001  0.3088
 9099W        W 9299  17.778   0.407   5.075  0.1805  0.1229  0.2129
 9100W        W 9300   4.270  17.658  12.019 -0.1344  0.1740 -0.1293
 9101W        W 9301  14.079  18.176   8.900 -0.1546  0.0136 -0.0696
 9102W        W 9302   6.279   5.477   9.316  0.0596  0.0771 -0.1218
 9103W        W 9303   6.467   4.490   4.946 -0.3363 -0.2565 -0.3257
 9104W        W 9304   3.059  13.802   2.799  0.0508  0.1232  0.1556
 9105W        W 9305   6.183  14.531  11.448  0.0735 -0.0611 -0.0208
 9106W        W 9306   4.290   3.383   5.459  0.0925 -0.1184  0.0034
 9107W        W 9307  17.987  10.484   9.920 -0.0373 -0.0397 -0.1244
 9108W        W 9308   5.384  13.590  10.832 -0.2680  0.2229  0.1347
 9109W        W 9309  10.369   0.344  12.328  0.1213  0.1545 -0.3378
 9110W        W 9310   3.080   3.545  12.860  0.0885  0.1627  0.1514
 9111W        W 9311  16.873   1.607  13.866 -0.1390  0.0385  0.2872
 9112W        W 9312  18.172   0.450  16.027  0.0157 -0.0123 -0.0164
 9113W        W 9313  18.177  10.392  15.906 -0.0774 -0.2842 -0.0840
 9114W        W 9314  15.569  16.870   2.281  0.0670  0.1102  0.0906
 9115W        W 9315  11.570   7.176   8.673  0.1883 -0.0778 -0.2028
 9116W        W 9316  13.212   4.916  12.161 -0.1696  0.1432  0.1095
 9117W        W 9317   3.500  17.904  11.357 -0.0740 -0.1724 -0.1721
 9118W        W 9318   8.105   9.273  12.523 -0.0726 -0.0832  0.0056
 9119W        W 9319   3.401  14.277  13.831  0.0801 -0.1608 -0.2722
 9120W        W 9320  12.654   2.492   2.935  0.2423 -0.2124 -0.3166
 9121W        W 9321  16.524   7.789  15.751 -0.4250 -0.0727  0.1005
 9122W        W 9322   0.602   2.302  10.199  0.2644 -0.2194 -0.0417
 9123W        W 9323   7.618  14.436   9.793 -0.0968  0.1692 -0.0359
 9124W        W 9324  13.470  17.170   8.307  0.0715 -0.6722 -0.2046
 9125W        W 9325   0.241  13.008   3.251  0.3135  0.0783 -0.2061
 9126W        W 9326  17.668   2.426   9.006  0.2674  0.0756  0.3193
 9127W        W 9327   4.552   9.932   1.875  0.0021  0.0392 -0.0520
 9128W        W 9328   8.388  15.632  11.540  0.1529 -0.1754  0.1966
 9129W        W 9329   8.768  15.692   9.198  0.0719 -0.2483  0.1280
 9130W        W 9330   5.807   2.566  11.996  0.1414  0.1400 -0.1461
 9131W        W 9331  17.607  10.741   5.303  0.1466  0.4279  0.1867
 9132W        W 9332  10.715  13.648  14.657 -0.0380 -0.0364  0.1840
 9133W        W 9333  16.499   9.842  13.873  0.4202  0.0236 -0.3220
 9134W        W 9334   4.486  15.042   5.816 -0.1302  0.1881  0.0940
 9135W        W 9335   0.896   4.779   1.171 -0.3051  0.2739  0.1303
 9136W        W 9336  15.664  17.731   9.145  0.0469  0.0776  0.2570
 9137W        W 9337   1.462   2.231  10.889 -0.0617 -0.2107  0.2338
 9138W        W 9338  10.377  18.171  11.495 -0.0203 -0.0596 -0.1465
 9139W        W 9339   7.296   7.829   4.033  0.1431 -0.2046  0.0024
 9140W        W 9340   6.404   4.879   5.275 -0.1796 -0.0214  0.0918
 9141W        W 9341   2.745   1.858   3.751  0.3908 -0.0344  0.3513
 9142W        W 9342   3.110   0.235   6.927  0.0137  0.0279 -0.1635
 9143W        W 9343   7.999  11.958   9.394 -0.0707  0.1305 -0.1343
 9144W        W 9344  16.761  16.398  11.387  0.0436 -0.0495 -0.0527
 9145W        W 9345   1.900   1.628   9.631  0.0065 -0.0624 -0.1074
 9146W        W 9346  12.457  13.604  12.121 -0.3228 -0.1650  0.2110
 9147W        W 9347  14.245   7.249   1.019  0.1168  0.1776  0.1097
 9148W        W 9348   4.726   2.632   3.103 -0.1057 -0.2783 -0.0670
 9149W        W 9349  17.764   0.605  10.810  0.0108 -0.0075  0.2491
 9150W        W 9350   8.310   2.843  14.453  0.0804  0.2483  0.1350
 9151W        W 9351   1.385  17.269   8.886 -0.0667  0.1416 -0.1673
 9152W        W 9352  11.608  15.050  10.213  0.2118  0.0254 -0.0500
 9153W        W 9353  12.196  14.261   8.130 -0.2143  0.0147 -0.2991
 9154W        W 9354   7.208   4.031   6.186 -0.1028  0.2823  0.1655
 9155W        W 9355   2.449  12.787  15.589  0.0257  0.1120 -0.1864
 9156W        W 9356  10.462  16.952  13.605  0.0014  0.0941  0.1605
 9157W        W 9357   6.073   2.306  12.332 -0.0358 -0.0250  0.0298
 9158W        W 9358  16.706  16.149  16.635 -0.0397  0.0895 -0.1792
 9159W        W 9359   2.137  15.449   9.557  0.0119  0.2128 -0.2030
 9160W        W 9360  16.355  17.807   5.650 -0.2085 -0.2984 -0.2145
 9161W        W 9361  12.746   9.578  13.871 -0.0607  0.1177 -0.0568
 9162W        W 9362   3.956  13.540   5.354 -0.1338 -0.1082  0.1265
 9163W        W 9363   3.640   4.902   7.792  0.0784 -0.0071 -0.0361
 9164W        W 9364   3.631   7.911   0.837  0.0326  0.0844  0.0998
 9165W        W 9365  17.778   9.346   9.063 -0.0823  0.0838 -0.0283
 9166W        W 9366  17.739  12.860   8.370 -0.0383 -0.2806  0.0619
 9167W        W 9367   1.771   2.221   8.869 -0.1699  0.1077  0.1132
 9168W        W 9368   0.230  15.872   0.036 -0.3657 -0.3614 -0.1481
 9169W        W 9369   8.315  14.318   4.853  0.0999  0.0674  0.1851
 9170W        W 9370   6.426  14.851   4.222 -0.2874 -0.2311  0.2292
 9171W        W 9371  16.519  10.231  12.208  0.0170  0.1926 -0.4451
 9172W        W 9372   2.064  13.241   2.259  0.2359  0.2441  0.0225
 9173W        W 9373   6.675  16.720   0.995 -0.1009 -0.2111  0.1207
 9174W        W 9374   3.968   6.233   1.413  0.2482  0.2812 -0.3077
 9175W        W 9375  15.703   8.655   6.068  0.2499  0.1739  0.2037
 9176W        W 9376   6.854   1.974  10.508 -0.0373  0.2893  0.0603
 9177W        W 9377  15.279  13.052  11.880  0.0360  0.3814 -0.0548
 9178W        W 9378  17.840   1.545   5.925 -0.0580 -0.0914 -0.1103
 9179W        W 9379   2.109   3.460  10.854 -0.1897 -0.2587 -0.3332
 9180W        W 9380   4.743   1.676   8.225 -0.4138  0.4120  0.0757
 9181W        W 9381   3.191  17.247   9.542 -0.0505  0.2511 -0.1237
 9182W        W 9382   5.879  13.354   5.729  0.1489  0.1181 -0.1706
 9183W        W 9383  14.044  17.833  14.512 -0.0977  0.2807 -0.0927
 9184W        W 9384  13.049  17.744   9.478 -0.1133  0.0777  0.2866
 9185W        W 9385   0.292   2.350   2.910  0.0782  0.0542 -0.2277
 9186W        W 9386   6.150   7.022  14.660 -0.0420 -0.1796  0.1571
 9187W        W 9387  15.996   3.199  11.532 -0.0153  0.2125  0.0746
 9188W        W 9388   2.336   5.112   8.788 -0.1582 -0.1775 -0.0255
 9189W        W 9389   5.022   2.120   2.422 -0.1826  0.2523  0.0626
 9190W        W 9390   4.125   1.779   5.693  0.0339 -0.0348  0.1409
 9191W        W 9391   0.233  15.615   8.730  0.1791 -0.0798  0.0373
 9192W        W 9392   9.112   0.072  10.412  0.1983 -0.0493  0.0610
 9193W        W 9393  17.507  17.413   8.783  0.1166  0.3412  0.1640
 9194W        W 9394   1.822   3.146  12.073  0.1672 -0.2546  0.0291
 9195W        W 9395   9.116  15.226   9.564 -0.0483  0.0492  0.0297
 9196W        W 9396   0.565  13.131  13.137 -0.2058  0.0314 -0.0309
 9197W        W 9397   0.865  14.713  13.798  0.1987 -0.2653 -0.1699
 9198W        W 9398   0.555   3.538   7.982  0.1422 -0.0819  0.0655
 9199W        W 9399  15.553   4.541  15.920 -0.0762 -0.1223  0.0556
 9200W        W 9400  10.511  16.463   4.082  0.0624 -0.0112 -0.0354
 9201W        W 9401   1.459   1.035   7.814 -0.3704  0.2249 -0.1856
 9202W        W 9402   7.729   4.310   7.152 -0.4086  0.2430 -0.0769
 9203W        W 9403   5.824  15.521   0.687  0.0585  0.0652 -0.1315
 9204W        W 9404   0.168   0.487   8.367  0.2978  0.1430 -0.0903
 9205W        W 9405  11.118   7.883  17.959 -0.0879 -0.1258 -0.1597
 9206W        W 9406   1.914  13.898  11.719 -0.1529 -0.0499 -0.1961
 9207W        W 9407   1.607  13.112   6.540  0.2304 -0.1076  0.3130
 9208W        W 9408   6.689   2.646   8.048 -0.1411  0.0321 -0.2091
 9209W        W 9409  12.831  17.686  15.136  0.0091 -0.0852 -0.0927
 9210W        W 9410   1.678   1.171   4.575  0.0806 -0.1953  0.0040
 9211W        W 9411   0.078   7.042   9.079 -0.2913  0.0111 -0.0457
 9212W        W 9412  12.975   4.969   4.243 -0.1200  0.3983  0.1136
 9213W        W 9413   8.379   2.361   4.249  0.4382 -0.0961  0.3276
 9214W        W 9414   0.888  12.832  10.385  0.0139  0.1119 -0.2241
 9215W        W 9415  17.826  14.752  16.786  0.3372  0.1121 -0.0995
 9216W        W 9416  11.176  16.135  13.711 -0.0658 -0.0263 -0.0263
 9217W        W 9417   3.019   0.510   8.671 -0.2041  0.1781  0.0684
 9218W        W 9418   7.713   0.208  14.752  0.2815 -0.0704  0.0340
 9219W        W 9419   7.646  15.321  13.398 -0.0201  0.0245  0.0662
 9220W        W 9420  16.484   3.125  17.354 -0.2325  0.1658  0.2462
 9221W        W 9421   0.357   1.103   8.496 -0.2215 -0.1461  0.2374
 9222W        W 9422   3.950   2.765   5.256  0.1072  0.1831  0.0168
 9223W        W 9423   2.389   1.551  13.184  0.1304  0.2050  0.0143
 9224W        W 9424  17.395  18.156   0.935  0.0921  0.2857  0.1405
 9225W        W 9425   0.874  16.948   8.127  0.0028 -0.1533  0.2150
 9226W        W 9426  13.447  16.339   7.084  0.1589  0.1985 -0.2624
 9227W        W 9427   1.494  14.246   6.778 -0.2349  0.2585  0.0025
 9228W        W 9428   2.238   4.335   2.272 -0.0015  0.2871  0.0522
 9229W        W 9429   9.702   0.261   7.631  0.2174 -0.1762  0.3843
 9230W        W 9430   3.570   0.945   8.507 -0.2241 -0.0129  0.1156
 9231W        W 9431  15.488   1.722  14.988  0.2384 -0.0113 -0.2612
 9232W        W 9432   3.920  13.837   6.509 -0.2279  0.2265 -0.3745
 9233W        W 9433   5.100   8.051   0.279 -0.1317 -0.0128 -0.0600
 9234W        W 9434  15.584   2.585   5.563  0.0189  0.2154 -0.2439
 9235W        W 9435   4.922  14.539  11.623  0.2786  0.0191 -0.0228
 9236W        W 9436   3.035   1.658  16.516 -0.2553  0.0348 -0.1090
 9237W        W 9437   4.317  11.091   6.126  0.0308 -0.1588 -0.3300
 9238W        W 9438  15.424   6.039  17.148  0.3427 -0.2814 -0.1237
 9239W        W 9439   7.831  10.011   9.034 -0.2548 -0.1454  0.0515
 9240W        W 9440   1.147   0.536  12.428 -0.2532 -0.2649  0.0518
 9241W        W 9441   0.214  14.030  11.589 -0.0727 -0.1084 -0.1977
 9242W        W 9442   4.369  12.486   9.311 -0.1727  0.0268 -0.1339
 9243W        W 9443  15.054  13.424   6.961 -0.2495 -0.0180 -0.3552
 9244W        W 9444  16.129  17.961  17.825  0.2421  0.0268 -0.1713
 9245W        W 9445   5.453   0.111   7.319 -0.1537 -0.0257  0.2723
 9246W        W 9446  10.230  14.404   1.037  0.3667 -0.2576  0.0361
 9247W        W 9447   8.910  13.485   8.350 -0.2933 -0.0754  0.1254
 9248W        W 9448   0.794   2.459  11.817 -0.1969 -0.1256 -0.1590
 9249W        W 9449  12.663   2.740  17.604  0.1254  0.1870 -0.3280
 9250W        W 9450  17.644  10.442  14.672 -0.1318  0.2270 -0.1198
 9251W        W 9451   1.631   1.322  10.602  0.3177  0.0409  0.0840
 9252W        W 9452  11.641  13.772  13.736  0.0428 -0.2188 -0.1893
 9253W        W 9453  16.544   8.176  12.090  0.1707 -0.1267 -0.1176
 9254W        W 9454   9.568   5.870  13.238  0.1687 -0.0079  0.0945
 9255W        W 9455  13.746  13.657  12.299 -0.0043 -0.4108 -0.0549
 9256W        W 9456  16.843  11.801   5.273  0.1286 -0.1541 -0.1114
 9257W        W 9457   3.799   3.569   6.432 -0.1386  0.0590  0.1989
 9258W        W 9458   4.237  11.746  10.657  0.1868  0.0731  0.2654
 9259W        W 9459   0.648  10.069   0.350  0.1812  0.1662  0.0625
 9260W        W 9460   1.544  11.237  13.316 -0.1329 -0.0643 -0.0569
 9261W        W 9461  16.198   4.191   2.883  0.1493  0.0394  0.2048
 9262W        W 9462  10.523  15.285   0.695 -0.4868  0.0276  0.1936
 9263W        W 9463   1.745   7.497   0.585 -0.0356 -0.0675 -0.0580
 9264W        W 9464   0.440   2.004  16.234  0.3018 -0.0302 -0.0839
 9265W        W 9465  10.949  14.639   7.363 -0.0563  0.0784 -0.3300
 9266W        W 9466   6.936   0.030  11.281  0.1122  0.1656 -0.1558
 9267W        W 9467   2.692  11.535  14.381  0.0838 -0.0901 -0.2949
 9268W        W 9468  17.437  12.330  15.393 -0.0425 -0.1339  0.0993
 9269W        W 9469  17.919  14.103   4.325  0.2484 -0.0261  0.0297
 9270W        W 9470  13.998   0.188  14.288 -0.1109  0.0833  0.1598
 9271W        W 9471  16.422  12.853   6.483 -0.1580 -0.0536  0.0027
 9272W        W 9472  17.469  14.778   5.719  0.0550  0.1181 -0.1642
 9273W        W 9473   3.339   1.801   8.818 -0.0162 -0.2732 -0.0139
 9274W        W 9474   3.991  12.866   7.603  0.0796 -0.0108 -0.0557
 9275W        W 9475   6.416   1.618   9.760  0.6378 -0.0470  0.1957
 9276W        W 9476   1.624   5.466  12.170 -0.1652 -0.0423 -0.2867
 9277W        W 9477   9.207   8.329  10.962  0.3026  0.0533 -0.1136
 9278W        W 9478   2.953  13.319   6.645 -0.1940 -0.3310 -0.4440
 9279W        W 9479   3.880  10.027   8.427  0.0746 -0.0853  0.1082
 9280W        W 9480   1.575   2.377  16.558 -0.5190 -0.0251 -0.1668
 9281W        W 9481  14.459   5.376  14.847  0.1966 -0.0408  0.0367
 9282W        W 9482  16.948   2.136  11.087  0.0178  0.1281  0.1395
 9283W        W 9483   2.200  15.752  10.143  0.1177 -0.3730 -0.0629
 9284W        W 9484  16.725  15.033  11.842 -0.4286  0.0808  0.3297
 9285W        W 9485  16.301  16.188   2.663  0.1257 -0.1960  0.1325
 9286W        W 9486   8.348  10.993   9.070  0.0108  0.0524  0.3507
 9287W        W 9487   3.515   3.368  10.726 -0.2024 -0.2494 -0.3007
 9288W        W 9488  10.000   2.609   9.803  0.0446 -0.2416  0.1249
 9289W        W 9489   8.342  15.926   5.931  0.1291  0.0108  0.1028
 9290W        W 9490   4.381  14.236  13.535 -0.0752  0.0026  0.1392
 9291W        W 9491   4.224  16.224   2.609  0.1909 -0.2471 -0.3446
 9292W        W 9492   1.387   4.873   6.658 -0.2100  0.2334  0.1087
 9293W        W 9493  11.363   7.746   1.798 -0.0410  0.2167  0.1540
 9294W        W 9494   4.866  11.355  17.043  0.1420 -0.0289  0.2228
 9295W        W 9495  16.320   5.128   6.495 -0.0435  0.0008 -0.1298
 9296W        W 9496  15.445   6.585  11.069  0.0132 -0.0338  0.1735
 9297W        W 9497  15.236  17.548  13.968  0.2053 -0.0589  0.1914
 9298W        W 9498  18.041  16.155  15.119  0.1253  0.2017 -0.2776
 9299W        W 9499  16.773   0.393  13.266 -0.0091  0.0986  0.1754
 9300W        W 9500  10.850  13.961  17.639  0.0502 -0.0824  0.0498
 9301W        W 9501  17.170  13.465  14.325  0.0547 -0.0224 -0.0465
 9302W        W 9502   8.960  15.085  11.212 -0.0602  0.0155 -0.0321
 9303W        W 9503  14.618  16.793  12.262  0.0842  0.0175  0.1332
 9304W        W 9504   6.815   1.784   9.462 -0.2309 -0.1222  0.2099
 9305W        W 9505  12.678  10.767  10.995  0.2886  0.0921 -0.1016
 9306W        W 9506   0.540  10.163  14.348  0.0570  0.0074  0.1304
 9307W        W 9507   8.621  10.857  14.938  0.0312 -0.1684 -0.4255
 9308W        W 9508   0.562   7.696  11.838  0.1054  0.3986 -0.0547
 9309W        W 9509   8.666  18.107  14.029 -0.1044 -0.1820 -0.0120
 9310W        W 9510   9.614   2.994   9.043  0.1763 -0.3001 -0.0247
 9311W        W 9511   1.837  10.672   8.233  0.0724  0.2105  0.0828
 9312W        W 9512  11.002   7.133  13.417  0.0830  0.0893 -0.2637
 9313W        W 9513   3.069  13.507  16.629 -0.0525  0.1401 -0.1339
 9314W        W 9514   1.453   9.670  14.615 -0.1840  0.2284  0.3121
 9315W        W 9515   0.889  17.959   1.250  0.1151  0.0712 -0.0133
 9316W        W 9516   1.132  12.823  18.182  0.2533 -0.1607  0.0218
 9317W        W 9517  14.620   2.801  13.478  0.1923 -0.2666  0.1609
 9318W        W 9518   4.724  12.448  12.080 -0.1753 -0.2463 -0.0724
 9319W        W 9519   1.756  10.273  11.447  0.2480  0.0126 -0.0363
 9320W        W 9520  16.643   0.138   0.560 -0.1031  0.0595  0.1885
 9321W        W 9521  17.015  14.551  15.265 -0.3140 -0.1571  0.2458
 9322W        W 9522   1.552   9.810  11.520 -0.2645  0.1622  0.2732
 9323W        W 9523   8.445  14.953  11.127 -0.1756 -0.0723 -0.0937
 9324W        W 9524  14.713   1.692  15.085 -0.0996 -0.1854 -0.1490
 9325W        W 9525  12.244  17.014  12.608 -0.1569  0.0326 -0.1847
 9326W        W 9526   3.549   4.921   8.434  0.1847 -0.0697  0.0779
 9327W        W 9527   2.265  13.340   5.801 -0.3122 -0.0110 -0.0270
 9328W        W 9528   0.660  15.065   6.827 -0.2286  0.1554 -0.1644
 9329W        W 9529  14.268   0.605   3.321 -0.1136  0.1869 -0.3258
 9330W        W 9530   5.325  14.616  15.816 -0.3024  0.4460 -0.0080
 9331W        W 9531  12.363   2.603  10.912  0.0231  0.2589 -0.2599
 9332W        W 9532   6.823  15.556  16.203  0.1256 -0.3181 -0.1719
 9333W        W 9533   9.680  13.800  16.579  0.0267 -0.2404  0.0345
 9334W        W 9534  12.205   1.019  10.656  0.1079  0.0789 -0.1478
 9335W        W 9535   5.445   0.380  10.865  0.0380 -0.0669  0.2483
 9336W        W 9536  16.966  18.076   5.401 -0.1338 -0.1758  0.1497
 9337W        W 9537   0.608   9.298  15.679 -0.0447  0.1911 -0.3907
 9338W        W 9538  15.269  10.826   9.367  0.1793 -0.2737 -0.0146
 9339W        W 9539   4.006  16.281   8.469 -0.3635 -0.1037  0.2932
 9340W        W 9540  16.003   2.516   7.947  0.1274  0.1749 -0.1394
 9341W        W 9541  16.316  14.912  17.686  0.1303 -0.0423 -0.1509
 9342W        W 9542   4.375  17.520  12.928  0.0721 -0.0137 -0.2797
 9343W        W 9543  17.984  14.257  13.398 -0.0384  0.2603 -0.2795
 9344W        W 9544   1.448  15.030   0.564 -0.2751  0.0856  0.0847
 9345W        W 9545   1.342  15.543  10.116  0.3050 -0.2287 -0.1438
 9346W        W 9546   8.177   5.079   6.226  0.1634 -0.1291 -0.2309
 9347W        W 9547  10.663   2.415  14.073  0.1339 -0.2580 -0.1785
 9348W        W 9548   4.002   1.532   6.343  0.0531  0.0328  0.1559
 9349W        W 9549   5.505   3.613   7.433  0.1327 -0.1617  0.3328
 9350W        W 9550   4.572  17.866  13.824 -0.3249 -0.2116 -0.5268
 9351W        W 9551   6.427  17.443  13.248  0.0065  0.1326 -0.0624
 9352W        W 9552   4.302  12.300  12.786 -0.2180 -0.0887  0.1551
 9353W        W 9553   8.975   9.682  11.577  0.3826  0.1387 -0.0686
 9354W        W 9554   1.898  12.161  12.496  0.2065  0.3452 -0.0186
 9355W        W 9555   2.440  14.029   9.470  0.0674  0.2444 -0.3042
 9356W        W 9556  15.986   5.851  16.457  0.1946  0.1746 -0.2961
 9357W        W 9557   2.025  14.485  17.607 -0.0637  0.1195 -0.0689
 9358W        W 9558   0.937   3.130  13.380  0.1606  0.0322  0.3598
 9359W        W 9559   6.335   1.613  16.257 -0.0908  0.0275 -0.1041
 9360W        W 9560  16.037   3.336   0.223 -0.1040 -0.0769  0.3637
 9361W        W 9561   9.462   2.799  13.253 -0.0830  0.4589 -0.0229
 9362W        W 9562   5.917  15.065   1.938 -0.4612 -0.2033 -0.2108
 9363W        W 9563   8.852   9.543   1.043  0.1739  0.0428 -0.0369
 9364W        W 9564   2.370   4.882  16.074  0.0522  0.3554  0.0355
 9365W        W 9565  17.773   5.198  12.212 -0.1335  0.0643 -0.1088
 9366W        W 9566   5.919   9.416  17.118  0.0098 -0.0245  0.1296
 9367W        W 9567  14.540   9.123  13.501 -0.1843 -0.1662  0.2221
 9368W        W 9568   1.460  16.595  15.187  0.0787 -0.3598  0.0686
 9369W        W 9569   4.015   1.050   6.366  0.0303 -0.0686  0.0035
 9370W        W 9570  17.885  13.812   8.102  0.0966  0.2590 -0.1749
 9371W        W 9571  14.541  14.027  11.621  0.1167 -0.1456 -0.0090
 9372W        W 9572   1.034  17.984  17.235  0.1211  0.1851 -0.2004
 9373W        W 9573   6.719  13.300  10.563  0.0498  0.1177 -0.1605
 9374W        W 9574  15.961   1.377   5.018 -0.0644  0.0517  0.1401
 9375W        W 9575  16.120   1.091  12.977  0.0913  0.3686 -0.1756
 9376W        W 9576  15.823   5.694  17.577 -0.2636 -0.2250  0.0250
 9377W        W 9577   2.822  15.609  11.190 -0.1875  0.2865  0.2798
 9378W        W 9578   2.961  11.942   0.029  0.0742 -0.0488  0.1643
 9379W        W 9579   0.382  16.050  12.855 -0.0489  0.0970 -0.0560
 9380W        W 9580   8.485  11.360  14.994 -0.2252 -0.0607  0.1468
 9381W        W 9581  17.456  10.283  17.170  0.1019  0.1848 -0.1271
 9382W        W 9582   7.283  17.043  14.154  0.0950  0.1047  0.2046
 9383W        W 9583   1.815   8.670  16.227 -0.0789  0.1057 -0.0463
 9384W        W 9584  10.882  13.165  13.273 -0.1088  0.0046  0.2347
 9385W        W 9585   6.105  17.750   7.369 -0.0542 -0.0032 -0.0688
 9386W        W 9586   6.914  10.238   3.252 -0.2298 -0.0191 -0.0796
 9387W        W 9587   3.012  13.389   9.537 -0.1312  0.0559  0.0386
 9388W        W 9588  12.203   4.831   0.624 -0.0704 -0.1196 -0.1455
 9389W        W 9589   6.516  12.827  14.970 -0.0192 -0.1395  0.0530
 9390W        W 9590  16.938   7.318  13.741  0.0299 -0.0252 -0.3825
 9391W        W 9591   3.231  17.456  12.946  0.2026 -0.3101  0.3017
 9392W        W 9592   4.048  15.956   9.887  0.0459 -0.0824  0.0346
 9393W        W 9593  10.568   2.515   9.385 -0.2024 -0.1072  0.2394
 9394W        W 9594   7.325   5.151   2.168  0.2425 -0.2618  0.2392
 9395W        W 9595   0.327  11.043  10.266 -0.0158 -0.1841  0.0638
 9396W        W 9596  17.347  16.870  14.619  0.4646  0.0003  0.2690
 9397W        W 9597  17.111  14.162  11.308  0.1223  0.2371  0.0323
 9398W        W 9598   2.795   1.334  13.036  0.2825  0.0328 -0.1945
 9399W        W 9599   4.937   1.458  11.996 -0.1402  0.1172  0.0067
 9400W        W 9600   1.995  12.506  15.758 -0.0692  0.0692  0.0503
 9401W        W 9601   1.786   7.405   8.064  0.1504 -0.0297 -0.2241
 9402W        W 9602   3.388   9.146  13.082 -0.3788  0.0535  0.1414
 9403W        W 9603   2.147   3.897  16.730  0.1461  0.0452  0.0144
 9404W        W 9604  17.732  14.614  15.694 -0.1118  0.1898 -0.2647
 9405W        W 9605  18.129  17.189   1.083  0.0612  0.2513  0.1042
 9406W        W 9606  15.264   0.738  17.036  0.2561 -0.2296 -0.1462
 9407W        W 9607   3.388   4.605   6.465 -0.0809 -0.2695  0.1733
 9408W        W 9608  14.764   9.378  15.066 -0.0228 -0.1030 -0.0178
 9409W        W 9609   1.297  13.950   3.724 -0.4876 -0.0273  0.2171
 9410W        W 9610   4.507   8.204   1.970  0.2195 -0.0198  0.0265
 9411W        W 9611   5.010  13.780  18.192 -0.1475  0.0539 -0.1254
 9412W        W 9612   1.041   4.100  15.300  0.1441  0.2601  0.2102
 9413W        W 9613   2.206  17.316   1.246 -0.2696 -0.3898  0.2597
 9414W        W 9614  16.441  13.381  17.327  0.1953 -0.1335  0.1775
 9415W        W 9615  10.505  12.047   8.374 -0.0984 -0.2013  0.1368
 9416W        W 9616   7.257  17.324   6.283 -0.0563  0.0384 -0.0922
 9417W        W 9617  14.361   4.381  12.649  0.1008  0.0924 -0.1748
 9418W        W 9618   0.610   4.629  12.076  0.0076  0.2612 -0.0473
 9419W        W 9619  15.153   2.736   2.365 -0.1592 -0.0047  0.4471
 9420W        W 9620   4.730  15.821   4.219 -0.0943 -0.0131  0.0837
 9421W        W 9621  13.505  11.123  16.781 -0.1693  0.1194 -0.1266
 9422W        W 9622   4.960  16.477  10.748 -0.1213  0.0594 -0.1796
 9423W        W 9623  15.984   5.223   8.154 -0.0419  0.0916 -0.0040
 9424W        W 9624  11.788  13.760  10.409  0.0323 -0.2525 -0.3610
 9425W        W 9625  13.304  11.234   0.789 -0.3071  0.1127  0.0077
 9426W        W 9626  11.690  13.549  17.899 -0.0801  0.1214  0.0351
 9427W        W 9627   1.364   0.496  15.105 -0.2458 -0.3459 -0.0572
 9428W        W 9628   9.715  14.759  14.612  0.1857 -0.1182 -0.0411
 9429W        W 9629  17.624  16.686  16.283  0.0015  0.0608 -0.0218
 9430W        W 9630   0.560  10.596   3.580  0.0213  0.1296 -0.2103
 9431W        W 9631   7.287   6.735  11.912  0.1964 -0.0118 -0.0843
 9432W        W 9632   1.199   0.295  15.961  0.1607  0.2102 -0.1113
 9433W        W 9633  10.648   9.991  16.460 -0.1938  0.0846 -0.0216
 9434W        W 9634  17.437  13.002   8.013  0.0635  0.2240 -0.0633
 9435W        W 9635   1.738   0.331   3.895  0.0565 -0.0546  0.2528
 9436W        W 9636  14.200   1.797   2.106 -0.1555  0.0441 -0.3493
 9437W        W 9637  11.108   6.940  17.954 -0.3835 -0.1617 -0.1404
 9438W        W 9638   6.723   2.719  13.368  0.0458 -0.1295  0.1920
 9439W        W 9639   0.496  17.227  11.447  0.4275 -0.2643  0.1295
 9440W        W 9640   1.076  17.126  12.270 -0.3128  0.0944 -0.0153
 9441W        W 9641  13.966  18.063   9.920  0.2474  0.0683  0.1280
 9442W        W 9642   1.828  14.540  14.036 -0.0143 -0.2260 -0.2146
 9443W        W 9643   0.035  11.020  13.297 -0.0453  0.0092  0.0753
 9444W        W 9644   4.005  17.808  16.894 -0.3122 -0.0380  0.1421
 9445W        W 9645  15.193   4.384   5.403 -0.2007 -0.1218  0.0092
 9446W        W 9646  16.754   2.254  15.985 -0.0548  0.0767 -0.1076
 9447W        W 9647  13.853   7.255  15.659  0.0692 -0.2904  0.1066
 9448W        W 9648   0.367  17.549  12.688  0.1256 -0.1238  0.3932
 9449W        W 9649  15.159  12.289   7.551  0.0304 -0.3181 -0.0589
 9450W        W 9650   6.213  17.598  15.223 -0.2425  0.1011 -0.0634
 9451W        W 9651  10.961  14.998   7.963 -0.0267  0.2137  0.1864
 9452W        W 9652  18.098   4.795   9.793  0.1614 -0.1108 -0.1261
 9453W        W 9653  10.245   3.096  14.303  0.0293 -0.2190  0.0186
 9454W        W 9654   6.316  17.592  16.308  0.1594 -0.1229 -0.2377
 9455W        W 9655  16.884   2.823  11.419 -0.0924  0.3298 -0.3385
 9456W        W 9656   0.501   6.957  14.554 -0.0722  0.0106  0.0392
 9457W        W 9657  12.497   0.730  11.980 -0.2779  0.1596 -0.1123
 9458W        W 9658   3.194   2.628  14.792 -0.1683  0.3861  0.1209
 9459W        W 9659  10.217   9.618   2.795 -0.0273  0.2740  0.2026
 9460W        W 9660   2.306   2.388   8.955 -0.0929 -0.1336 -0.0599
 9461W        W 9661  13.048  14.756   3.921  0.3843 -0.2857  0.2825
 9462W        W 9662   2.382  12.941   5.476 -0.2678  0.0711  0.0313
 9463W        W 9663  17.690  10.486  12.569  0.0974 -0.0393 -0.2022
 9464W        W 9664  12.592  16.546   2.570  0.1075 -0.1300 -0.0929
 9465W        W 9665  15.546   1.352   0.521  0.3573 -0.2402  0.0215
 9466W        W 9666  17.384   6.422  13.785  0.1920  0.0920  0.2952
 9467W        W 9667   4.795  10.783  16.923 -0.2266 -0.1399  0.0082
 9468W        W 9668  14.215   0.374  15.187  0.1480  0.2743 -0.0373
 9469W        W 9669   0.885  16.736  13.243  0.1801 -0.2540 -0.1115
 9470W        W 9670  11.695   6.454  13.018 -0.0594 -0.3060 -0.2239
 9471W        W 9671   1.197   9.402  16.658  0.2299  0.2431  0.2962
 9472W        W 9672   1.313   1.399  14.132  0.1621 -0.0379 -0.1158
 9473W        W 9673   9.909  15.758  14.000 -0.4363  0.0086  0.2528
 9474W        W 9674   7.800   0.131  12.328  0.1529  0.4305 -0.0937
 9475W        W 9675   2.218  12.505  10.381  0.0753  0.1138 -0.0761
 9476W        W 9676  10.254   4.024   4.983 -0.0971  0.1790  0.0550
 9477W        W 9677  13.532   1.157   1.839  0.1285  0.0402  0.1672
 9478W        W 9678  16.039  14.253   1.838  0.1617  0.2775 -0.1036
 9479W        W 9679  17.943  15.262  14.919 -0.0098  0.1142 -0.0721
 9480W        W 9680  13.173  13.818  15.806  0.0820 -0.0701  0.1382
 9481W        W 9681   9.873   2.655   0.327 -0.0932 -0.2396  0.1442
 9482W        W 9682  17.630   3.229  15.793 -0.1553 -0.2820 -0.0001
 9483W        W 9683  18.175   6.242  14.713  0.0320 -0.1259  0.2415
 9484W        W 9684   8.300   5.732   5.005 -0.1532  0.3989 -0.1387
 9485W        W 9685  15.266   5.690   3.150 -0.2719  0.1261 -0.2150
 9486W        W 9686   0.339  13.259  12.134  0.0102  0.0890  0.4796
 9487W        W 9687   4.762   2.474   9.933 -0.0148 -0.0572 -0.1298
 9488W        W 9688  11.367  12.368  12.780  0.0949 -0.1376  0.2963
 9489W        W 9689   8.937   2.181  13.132  0.0838 -0.2089  0.0155
 9490W        W 9690  16.936  10.191   7.125  0.3575  0.2427  0.1764
 9491W        W 9691  18.094  11.389  14.509  0.0295  0.1309  0.0313
 9492W        W 9692  11.583   4.537  13.400 -0.1262 -0.0303 -0.0024
 9493W        W 9693   0.636   4.326  11.687  0.0463 -0.0987  0.4340
 9494W        W 9694   9.124  13.604  15.508 -0.2742 -0.2190 -0.0923
 9495W        W 9695   0.574  14.332  13.740  0.4579 -0.4724 -0.1073
 9496W        W 9696  16.809   1.210  14.565  0.1051  0.1299  0.2514
 9497W        W 9697  11.772  17.822   9.834 -0.0128 -0.3932 -0.1021
 9498W        W 9698   1.990   1.665  16.010  0.3018  0.2852  0.0111
 9499W        W 9699  17.257  12.620  16.515 -0.0082 -0.0259 -0.0304
 9500W        W 9700  17.278  13.996  12.519 -0.1105 -0.0174 -0.0329
 9501W        W 9701  12.909  12.235   2.731  0.2210  0.4969 -0.2479
 9502W        W 9702   6.181   0.228  10.694 -0.0631  0.1081 -0.0586
 9503W        W 9703   1.674   9.119  12.839  0.3543  0.1750 -0.1366
 9504W        W 9704  17.088   9.571  13.689  0.1099  0.0617 -0.0544
 9505W        W 9705   0.322   5.949  12.323  0.2008  0.2530 -0.2862
 9506W        W 9706  15.808  15.366   7.105  0.1700 -0.3586 -0.1009
 9507W        W 9707  13.277   6.210   8.535  0.2087  0.0649 -0.0163
 9508W        W 9708   1.121   3.299  11.605  0.0869  0.1515  0.1512
 9509W        W 9709   1.125   1.728   9.379  0.1268 -0.1081 -0.2470
 9510W        W 9710   2.836   0.424   4.351 -0.0374  0.1137 -0.1003
 9511W        W 9711   5.133   7.557  16.761 -0.1590 -0.1328  0.2903
 9512W        W 9712   0.810   3.631  17.436 -0.2117  0.0251 -0.0490
 9513W        W 9713   7.541  10.916  10.578 -0.0276  0.0371 -0.0844
 9514W        W 9714   5.518  14.187  17.251  0.2033  0.2849  0.1261
 9515W        W 9715   9.675  10.280  12.938 -0.2294 -0.0864  0.0031
 9516W        W 9716  18.106  16.702   7.805  0.0938 -0.1214 -0.0305
 9517W        W 9717   2.603   2.281  13.299  0.0663  0.0173  0.3682
 9518W        W 9718  17.663  16.251   7.664  0.3077  0.1020 -0.2036
 9519W        W 9719  13.168   4.473  17.254  0.0546  0.0171  0.3182
 9520W        W 9720   6.748  10.249   9.761 -0.0680  0.1998 -0.0024
 9521W        W 9721  14.859  12.139   0.033 -0.0602  0.0199 -0.3196
 9522W        W 9722  11.266  16.406   5.343 -0.1362  0.1553  0.1572
 9523W        W 9723  15.743  16.198  17.902  0.0631  0.3757  0.1371
 9524W        W 9724   3.563  14.646   6.188  0.0565 -0.0882 -0.1704
 9525W        W 9725  17.253  13.108   6.289  0.1969  0.1375 -0.3103
 9526W        W 9726   2.422   9.675  12.055  0.1245  0.1361  0.2998
 9527W        W 9727  15.347  16.404   8.760 -0.1404 -0.1579 -0.0369
 9528W        W 9728   9.499  17.669  16.711 -0.0300  0.0275 -0.0483
 9529W        W 9729  14.627  16.020   9.685 -0.2893  0.1302  0.2062
 9530W        W 9730  16.734   0.409  14.226 -0.0129  0.0728  0.3595
 9531W        W 9731   7.092  16.608  14.976  0.1934  0.0479  0.2766
 9532W        W 9732   5.167   9.297   7.745 -0.3113  0.2265 -0.3332
 9533W        W 9733  13.634   1.740  12.820  0.1034  0.0978 -0.1628
 9534W        W 9734  11.405   0.061   7.450  0.2170 -0.1678 -0.2195
 9535W        W 9735   1.894  17.785   4.400  0.1590 -0.2171  0.1355
 9536W        W 9736  17.803  10.051  14.383 -0.0529 -0.1979  0.2188
 9537W        W 9737  10.775  12.396  12.830 -0.0354 -0.0444 -0.1824
 9538W        W 9738   5.022  17.310   2.269 -0.0995  0.2051  0.1502
 9539W        W 9739   4.462  15.576  11.302 -0.2357  0.1157  0.1165
 9540W        W 9740   0.108  16.116   8.590  0.1593  0.0468 -0.0007
 9541W        W 9741   3.775   1.328   1.083 -0.3087  0.1034  0.2422
 9542W        W 9742  14.182  13.937  16.788  0.1007 -0.1365 -0.1252
 9543W        W 9743   6.939  15.368   9.746  0.0026  0.0736 -0.0803
 9544W        W 9744   3.574   3.495  16.102 -0.3672 -0.1197  0.2273
 9545W        W 9745   3.941   0.825   9.425 -0.1859 -0.1850 -0.0148
 9546W        W 9746   0.952  13.461   7.996 -0.0070  0.0532 -0.2578
 9547W        W 9747   1.067  15.568  17.190 -0.1200 -0.2896 -0.1227
 9548W        W 9748   3.104  15.438  13.588 -0.1155 -0.5081 -0.1271
 9549W        W 9749   0.135  17.096  12.789 -0.0602  0.1160 -0.0207
 9550W        W 9750   2.247   2.100  12.943  0.2681  0.3120  0.0357
 9551W        W 9751   3.677  15.869  11.945  0.2239 -0.0446  0.0614
 9552W        W 9752   0.222  13.996   2.204 -0.0297 -0.2138 -0.0877
 9553W        W 9753  14.221  12.857  12.464 -0.1998  0.1513 -0.0212
 9554W        W 9754   2.322  17.668  12.459 -0.0523 -0.0740  0.4598
 9555W        W 9755   3.336  14.710  14.034 -0.2790 -0.3459  0.1012
 9556W        W 9756   2.177   6.138   8.711 -0.2249  0.0920  0.0994
 9557W        W 9757   8.320   6.029   3.281  0.3394 -0.1177 -0.0515
 9558W        W 9758  14.636   3.476  15.827  0.0464 -0.2531  0.2425
 9559W        W 9759  17.915   7.786  13.674  0.0598  0.0855 -0.1585
 9560W        W 9760   2.924   1.565   2.387  0.2612  0.0245 -0.1537
 9561W        W 9761  16.407   8.238   8.634 -0.1164  0.1056  0.0230
 9562W        W 9762  15.666  17.264  10.102  0.0543  0.1129  0.1298
 9563W        W 9763   9.779  16.368   8.253  0.1402 -0.0908  0.1399
 9564W        W 9764  13.770  17.070  18.170  0.2100  0.0412 -0.1292
 9565W        W 9765  13.727   8.166  14.048 -0.1076 -0.0747 -0.1191
 9566W        W 9766   3.958   0.085  12.735  0.2126  0.2567 -0.2263
 9567W        W 9767  12.799  17.757  12.864  0.0967  0.1954 -0.2837
 9568W        W 9768   2.927   1.279  14.063 -0.0833 -0.3769  0.3596
 9569W        W 9769   8.321   4.049   1.594  0.0090 -0.0297 -0.0918
 9570W        W 9770   5.080   4.382  13.253 -0.0020 -0.1793  0.0979
 9571W        W 9771   4.848  13.036  12.863 -0.2751 -0.0958  0.0558
 9572W        W 9772   6.719  17.122   7.784 -0.0147 -0.3550  0.1602
 9573W        W 9773   1.258  13.343  11.100  0.0872  0.1825 -0.0216
 9574W        W 9774  13.444  16.563  18.082  0.0231 -0.0264 -0.0082
 9575W        W 9775  14.192  14.468  15.009 -0.1166 -0.2405  0.1481
 9576W        W 9776   8.087   3.008   7.142 -0.2362  0.1808  0.0716
 9577W        W 9777  17.042  16.295   1.558 -0.2612  0.2672 -0.2377
 9578W        W 9778  16.830  17.879  16.992  0.0874  0.0279  0.1307
 9579W        W 9779  13.604   1.788  13.905 -0.0302  0.1937  0.0338
 9580W        W 9780  11.303   9.956  11.999 -0.1151  0.2308 -0.2565
 9581W        W 9781   0.659  17.910  18.125  0.0827 -0.2213  0.0747
 9582W        W 9782  11.718  14.277  14.113 -0.0151  0.0611 -0.0674
 9583W        W 9783  17.921  13.317  14.336 -0.3825 -0.1262 -0.0381
 9584W        W 9784  16.922   1.396   8.466  0.0040  0.2970  0.0330
 9585W        W 9785  15.241  18.149   8.011 -0.1164  0.0358  0.2549
 9586W        W 9786  12.567  13.765   2.999  0.2527 -0.0134 -0.1278
 9587W        W 9787  15.735  10.611  14.688 -0.2120  0.1503  0.3076
 9588W        W 9788  17.281  10.691  12.798  0.0720 -0.0319  0.2454
 9589W        W 9789  13.125  15.530   6.641 -0.1292 -0.0899  0.0280
 9590W        W 9790   0.016  13.724  10.669 -0.0224  0.1380 -0.0709
 9591W        W 9791  12.106   9.575  18.006 -0.1537 -0.2107 -0.0707
 9592W        W 9792   7.050   0.290  14.110 -0.0756  0.0691 -0.1141
 9593W        W 9793   6.547  11.619  13.719  0.1878  0.2151  0.1830
 9594W        W 9794  12.707  17.824  17.024 -0.1230 -0.2418 -0.3131
 9595W        W 9795   5.684   9.993  10.361  0.0084  0.2495 -0.1074
 9596W        W 9796  17.697   0.282  16.224  0.0490 -0.1418  0.2521
 9597W        W 9797   6.131   4.117   0.623 -0.1185  0.2182  0.2358
 9598W        W 9798  15.729   8.568  17.229  0.2223  0.0073  0.2837
 9599W        W 9799   4.982  14.989   9.101  0.1378 -0.1183  0.1560
 9600W        W 9800  16.270   4.386   1.052  0.2030 -0.1197 -0.0631
 9601W        W 9801   7.505  14.159  13.018  0.0114 -0.0553  0.2715
 9602W        W 9802  16.621  15.767   2.423 -0.0787 -0.1364 -0.3092
 9603W        W 9803  17.026  13.674   9.180  0.0983 -0.0853 -0.0950
 9604W        W 9804   1.858  17.158  13.214 -0.3968 -0.1396 -0.2120
 9605W        W 9805   4.694  17.702   8.241  0.2107 -0.0025  0.2409
 9606W        W 9806  11.733   4.140   9.607 -0.1480  0.2121  0.1698
 9607W        W 9807   2.531   5.606   8.021 -0.1927  0.2316  0.1861
 9608W        W 9808  14.169   6.843  15.700 -0.1935 -0.0211  0.0198
 9609W        W 9809  16.154  16.295   4.937  0.1315  0.3540 -0.1763
 9610W        W 9810   4.652  16.555  10.022  0.0361  0.0093  0.2242
 9611W        W 9811  14.080   0.807  12.748 -0.1834 -0.0328  0.0745
 9612W        W 9812   3.235   2.776   7.886 -0.2807  0.2633  0.1819
 9613W        W 9813  18.181   1.700   7.958  0.1183 -0.1193 -0.2687
 9614W        W 9814   2.086  11.791  12.884 -0.3780  0.1462  0.1497
 9615W        W 9815   3.037   5.250  13.361 -0.2300 -0.1396 -0.0035
 9616W        W 9816  17.819  16.351  10.826 -0.0055 -0.2852  0.1559
 9617W        W 9817   1.555   1.497  14.550 -0.0287  0.2172  0.3028
 9618W        W 9818  14.475   9.062   8.787  0.0919 -0.0910 -0.3030
 9619W        W 9819   1.165  16.710  16.261 -0.3325  0.2274  0.0212
 9620W        W 9820   3.058  17.988  13.025  0.2245 -0.0838  0.3146
 9621W        W 9821   2.749  12.911   3.987  0.3363  0.1469  0.0181
 9622W        W 9822  17.137  14.998  17.544  0.0840 -0.1166 -0.0968
 9623W        W 9823  10.050   3.694  14.930 -0.1103  0.2042 -0.1376
 9624W        W 9824   1.181  17.764  18.204 -0.2927 -0.1094  0.3424
 9625W        W 9825   1.688  14.592   7.711  0.0232 -0.2766  0.3724
 9626W        W 9826   6.580  16.294   2.186 -0.1789  0.0303 -0.2256
 9627W        W 9827  10.786   1.931  13.958 -0.2079  0.0732 -0.3086
 9628W        W 9828   1.453   9.733  15.199  0.1610 -0.0003  0.0149
 9629W        W 9829   0.071  16.447  15.522  0.0138  0.0695 -0.2289
 9630W        W 9830   6.565  13.661  11.399  0.2126  0.2113  0.0042
 9631W        W 9831  17.841  15.746  10.880  0.0345 -0.1061  0.0003
 9632W        W 9832   6.442  14.257   7.770  0.1625  0.0665 -0.0386
 9633W        W 9833  10.389  10.507  15.413  0.1235 -0.3048  0.2156
 9634W        W 9834   5.798  17.230   1.257  0.0874 -0.2652 -0.0903
 9635W        W 9835   2.910  15.089   9.983 -0.0992  0.0271  0.1181
 9636W        W 9836  12.405   2.691   9.894  0.0552  0.1639 -0.2174
 9637W        W 9837  14.065  13.333  13.373  0.1966  0.2598 -0.2166
 9638W        W 9838   4.945  14.968  15.698 -0.0966 -0.4174  0.3126
 9639W        W 9839  10.076   1.044   4.056 -0.2437 -0.0168  0.1553
 9640W        W 9840   2.903  18.099  13.756  0.0110 -0.3867 -0.1912
 9641W        W 9841   1.611   0.441   1.226  0.1883  0.2792  0.2003
 9642W        W 9842  10.725  17.509   7.965 -0.2075  0.1039  0.0843
 9643W        W 9843   8.293  15.919  16.775 -0.1898 -0.0596 -0.2108
 9644W        W 9844  13.302   6.262   1.425 -0.0378 -0.2723  0.0793
 9645W        W 9845   4.093  16.788   1.522 -0.1253 -0.6232  0.2856
 9646W        W 9846  17.137   2.323   4.385  0.0726  0.0880 -0.2461
 9647W        W 9847   5.106  16.405   3.691 -0.2885  0.2707  0.1135
 9648W        W 9848   1.157  11.466  15.203  0.3320  0.0217 -0.1799
 9649W        W 9849   4.887  17.491   5.067 -0.0663  0.0424  0.0539
 9650W        W 9850   0.123   0.355   7.606  0.1801  0.2160  0.1393
 9651W        W 9851   8.086   2.532   5.745 -0.0470  0.1672 -0.0825
 9652W        W 9852   7.358   7.323   0.488  0.0919  0.0951  0.3389
 9653W        W 9853  11.159  14.632  11.397 -0.0053  0.0963  0.2154
 9654W        W 9854  16.140  15.740  17.379  0.0249  0.1763  0.2157
 9655W        W 9855   8.565  17.928  13.247 -0.0337  0.1802 -0.0806
 9656W        W 9856   5.856   1.722   2.168  0.1024  0.0552 -0.1613
 9657W        W 9857   9.506   3.439   8.185 -0.1611  0.3325 -0.1854
 9658W        W 9858   9.771  14.200  18.081 -0.0125  0.1615 -0.1082
 9659W        W 9859   1.229   2.990  10.182  0.2766  0.1993  0.0977
 9660W        W 9860   2.240  17.529  10.568  0.1061  0.1363  0.1070
 9661W        W 9861   5.377   5.718   4.449  0.0394  0.1225  0.0065
 9662W        W 9862  10.774  17.672   0.325 -0.2735 -0.0820  0.1493
 9663W        W 9863   3.927   4.587   8.672 -0.2782 -0.1337 -0.0340
 9664W        W 9864   7.371   5.087   0.230  0.2700  0.1524  0.2579
 9665W        W 9865  16.484   8.166   2.246  0.3611  0.1412  0.0276
 9666W        W 9866   2.411  17.658   0.880 -0.1649 -0.1702  0.2254
 9667W        W 9867   6.033  11.423  13.084 -0.0681  0.2576 -0.3541
 9668W        W 9868  16.878   6.842  17.480  0.0151  0.2392 -0.2889
 9669W        W 9869  16.946   4.357  10.382  0.0395 -0.0785 -0.1833
 9670W        W 9870   0.364  14.755  13.812 -0.1097  0.0168  0.0351
 9671W        W 9871  12.489   1.510  13.841  0.0377  0.2558 -0.2994
 9672W        W 9872  15.628   4.932  13.536  0.1237 -0.1981  0.1407
 9673W        W 9873   3.591  18.041  13.046  0.0106 -0.1712 -0.1030
 9674W        W 9874  15.890   4.911  17.393 -0.2369 -0.0907 -0.0521
 9675W        W 9875   1.126  17.015  17.755 -0.0641  0.0699 -0.0788
 9676W        W 9876  15.117   3.354  10.517  0.1322 -0.3215  0.4193
 9677W        W 9877   2.082  14.124   4.201 -0.4153  0.1228 -0.0427
 9678W        W 9878   3.053   0.134  14.991  0.4032  0.1778 -0.2014
 9679W        W 9879   5.110   5.498  17.797 -0.0346  0.0788  0.0231
 9680W        W 9880  16.038   5.055  12.203  0.1767 -0.0441 -0.2835
 9681W        W 9881  17.497  15.967  14.246 -0.0159  0.0932 -0.1228
 9682W        W 9882  11.847   9.866  11.176 -0.2678  0.1172 -0.0222
 9683W        W 9883   2.881   4.123  11.599  0.1289  0.0904 -0.0339
 9684W        W 9884   7.757   8.830  14.151 -0.3678  0.3077  0.2136
 9685W        W 9885   0.128  15.973  15.589 -0.1374 -0.2319  0.3640
 9686W        W 9886   4.661   6.359  12.865 -0.4289  0.0005 -0.0603
 9687W        W 9887   1.126   0.317   3.046  0.1542 -0.1063 -0.1573
 9688W        W 9888   8.035   8.248   6.416  0.0799 -0.0243  0.1487
 9689W        W 9889   8.801  12.711  16.376  0.0539  0.1110 -0.0731
 9690W        W 9890  12.357   3.606  14.565 -0.1781  0.0960 -0.0288
 9691W        W 9891  14.582   3.714  16.993  0.2901 -0.0690 -0.2155
 9692W        W 9892  18.158  17.805   2.700  0.1439 -0.2395 -0.4053
 9693W        W 9893   2.747   3.896  14.293 -0.0126 -0.3421 -0.1018
 9694W        W 9894   1.770   0.757   5.138  0.1493 -0.0998  0.1121
 9695W        W 9895   1.425  16.520  11.673  0.0363 -0.0482  0.0185
 9696W        W 9896   5.229   0.275   8.115 -0.2082  0.0409 -0.0090
 9697W        W 9897   0.561  10.337  15.971  0.3187 -0.3117  0.1852
 9698W        W 9898   3.604  14.494   5.434  0.0669  0.0469  0.1636
 9699W        W 9899  17.641  13.383  13.429  0.1636  0.3483  0.0728
 9700W        W 9900   1.695  10.287   9.406  0.0694 -0.2541  0.1647
 9701W        W 9901  14.822  14.238  16.224 -0.0852  0.0028  0.1480
 9702W        W 9902   1.844   6.537   0.091  0.2255  0.1128 -0.0489
 9703W        W 9903   1.122  17.109  16.679 -0.1900  0.1618 -0.0069
 9704W        W 9904   1.695  13.513   2.017  0.0954  0.1601  0.1001
 9705W        W 9905   8.571   0.151  15.543 -0.2111 -0.1427 -0.1873
 9706W        W 9906   6.461  15.051  13.050  0.1449 -0.1304  0.2543
 9707W        W 9907  10.918  14.173  13.556 -0.3645  0.2097  0.2998
 9708W        W 9908   5.851   1.213   9.679 -0.2725 -0.3185  0.2231
 9709W        W 9909   1.153  13.401   4.071  0.1496  0.1513 -0.0856
 9710W        W 9910   4.301   1.088   0.229 -0.5151 -0.0121 -0.0365
 9711W        W 9911   4.391  16.935  16.975  0.0029 -0.4173 -0.0707
 9712W        W 9912  15.227   0.642  16.563 -0.3932  0.0683 -0.1177
 9713W        W 9913   8.047   8.901  15.419 -0.2739  0.0816 -0.1996
 9714W        W 9914  16.508   9.890   3.384  0.3045  0.3047  0.1614
 9715W        W 9915  15.182  11.431  10.063  0.2116  0.1215 -0.1223
 9716W        W 9916   7.279  13.173   3.830 -0.4115  0.0323 -0.0243
 9717W        W 9917  16.143  12.634   9.062 -0.0215  0.0808 -0.1413
 9718W        W 9918   4.272   0.841   4.304  0.2778 -0.1709  0.4729
 9719W        W 9919  10.317   1.969  17.107 -0.0813  0.1989  0.1660
 9720W        W 9920  15.200  11.872   8.871 -0.1613  0.0388 -0.1466
 9721W        W 9921   6.447  14.630  15.376  0.0149  0.1602 -0.0184
 9722W        W 9922   9.675  16.373  15.751  0.3360  0.2170 -0.0145
 9723W        W 9923   3.447   0.784   1.859  0.2683 -0.0860 -0.0003
 9724W        W 9924   8.621  11.770  15.265 -0.2993 -0.1206 -0.2075
 9725W        W 9925   0.421  12.124  11.637 -0.1260 -0.0835 -0.1467
 9726W        W 9926   4.144  16.758   5.004 -0.0921 -0.0224  0.1178
 9727W        W 9927  15.772  13.482   5.085 -0.3533  0.2550  0.0071
 9728W        W 9928  11.396   0.048   9.754 -0.0086  0.0086  0.3635
 9729W        W 9929   5.281   8.690   1.982  0.0585 -0.1034  0.1407
 9730W        W 9930   6.066   7.429  15.052 -0.1978  0.5148  0.1919
 9731W        W 9931   3.494  13.388  16.491  0.1348  0.0285  0.0000
 9732W        W 9932  10.121   1.541   6.580 -0.0459 -0.3486  0.0790
 9733W        W 9933   3.100  10.996  11.156  0.1513  0.2460  0.1835
 9734W        W 9934  16.556  17.336  12.867  0.2242  0.1978 -0.1974
 9735W        W 9935   2.937   2.033  16.177 -0.2702  0.1788 -0.3047
 9736W        W 9936   2.963   6.860  15.813 -0.1765 -0.3897  0.0399
 9737W        W 9937   7.787  15.712  10.000 -0.0228  0.2916 -0.0787
 9738W        W 9938  15.331  15.343   0.531 -0.3377 -0.2213  0.2950
 9739W        W 9939  16.287  14.065   0.528  0.1882 -0.2143  0.2019
 9740W        W 9940   4.374  15.884  14.293  0.0703  0.0431 -0.2408
 9741W        W 9941   2.025   1.948   4.697 -0.1187 -0.1703  0.2267
 9742W        W 9942   0.539   1.864  17.208 -0.0417  0.1367 -0.5364
 9743W        W 9943  10.478  17.237   0.905  0.0915  0.0717 -0.0737
 9744W        W 9944   0.437  17.602  17.755 -0.1988  0.1364 -0.1034
 9745W        W 9945  18.175  13.547  18.039 -0.3542 -0.2512  0.0673
 9746W        W 9946   2.836  18.116  12.547 -0.0026  0.3057 -0.1012
 9747W        W 9947   6.333   5.133   8.736  0.2194  0.0809 -0.0774
 9748W        W 9948   1.158  13.791   0.962 -0.0696 -0.1302 -0.1455
 9749W        W 9949   5.105  10.768   1.904  0.1141 -0.3173 -0.2922
 9750W        W 9950   1.209  16.607   9.413 -0.0990 -0.3277  0.2093
 9751W        W 9951   3.423  15.573  15.999 -0.0887 -0.3330  0.0873
 9752W        W 9952  17.644  17.443   6.504 -0.1156  0.1433 -0.0009
 9753W        W 9953   4.147   3.891   0.771  0.0088 -0.1852  0.0903
 9754W        W 9954  11.772   3.128  17.187  0.2005 -0.1549  0.2111
 9755W        W 9955  16.833  15.683   4.228 -0.1383 -0.1643 -0.4040
 9756W        W 9956   4.674  14.276   2.492 -0.0718 -0.0066  0.2315
 9757W        W 9957   1.142   2.179   1.024 -0.1489  0.1920  0.3329
 9758W        W 9958   5.578  14.807   7.403  0.0508 -0.0310 -0.0964
 9759W        W 9959   3.661  16.292   3.633 -0.2319  0.1191  0.2998
 9760W        W 9960  15.776   4.906  16.448  0.0771 -0.0532  0.0411
 9761W        W 9961   6.372  11.289   0.126  0.2762  0.3014  0.0483
 9762W        W 9962   7.459  12.861  14.116 -0.1220  0.0630 -0.1323
 9763W        W 9963   7.604  17.010  13.705 -0.1955  0.2905  0.0126
 9764W        W 9964   0.120  16.894  17.510  0.1252  0.0666 -0.2090
 9765W        W 9965   7.247  16.719   3.890  0.0243 -0.1885 -0.0363
 9766W        W 9966  14.259  11.119   3.358  0.1376 -0.3608 -0.2261
 9767W        W 9967  17.214   0.343  17.497  0.1870  0.0335  0.1770
 9768W        W 9968   2.258  12.776   7.843 -0.3360  0.0486 -0.0464
 9769W        W 9969   4.183   7.752   9.822 -0.0216 -0.0712  0.3002
 9770W        W 9970   5.521   6.854  18.103  0.1506  0.2384 -0.4505
 9771W        W 9971   7.932  11.077   3.941 -0.1969 -0.0790  0.1512
 9772W        W 9972   7.312   2.481  11.237 -0.0757 -0.1758 -0.2743
 9773W        W 9973   4.563   0.248   2.904  0.0189 -0.3042 -0.1848
 9774W        W 9974   0.061   7.881  14.818 -0.2891 -0.2792  0.0253
 9775W        W 9975   9.885  17.561  13.099  0.1562 -0.1217 -0.0799
 9776W        W 9976  13.977  13.742   0.389 -0.1358  0.1656 -0.2802
 9777W        W 9977  13.318   4.145  11.151  0.1819 -0.2696 -0.1096
 9778W        W 9978   8.576  16.242   4.701  0.1942  0.1347  0.2047
 9779W        W 9979   7.539  14.388  13.541  0.0479 -0.1795 -0.1849
 9780W        W 9980   1.329  17.969   7.110  0.0380  0.0209  0.3321
 9781W        W 9981   5.007  11.935   0.886  0.2397  0.0121 -0.2117
 9782W        W 9982   2.183   1.064   2.272 -0.1519 -0.0419 -0.1989
 9783W        W 9983   5.256  14.855   3.224  0.1492 -0.0687  0.0980
 9784W        W 9984   2.303   2.681  17.500 -0.2657 -0.4966  0.2297
 9785W        W 9985   4.702   4.942  14.968  0.1563  0.0095  0.2798
 9786W        W 9986   3.543   1.528  16.703  0.3397 -0.1628 -0.1542
 9787W        W 9987   5.059  12.612   6.951 -0.0078 -0.4091  0.2335
 9788W        W 9988   1.500  11.228  11.613  0.1137 -0.2018  0.0201
 9789W        W 9989  11.566   7.032  13.412  0.0603  0.2029 -0.3921
 9790W        W 9990  12.022   1.170   2.510  0.1236  0.2272  0.1671
 9791W        W 9991  14.188  17.819   1.008  0.1185  0.0167  0.0432
 9792W        W 9992   1.163  17.323  13.113 -0.1630  0.2081 -0.1134
 9793W        W 9993   0.187   9.564  17.927  0.0023 -0.3182  0.1796
 9794W        W 9994  18.126  12.950  14.800 -0.1070  0.2187 -0.0824
 9795W        W 9995   9.402  10.586   7.967  0.1010  0.0029  0.2750
 9796W        W 9996  14.033   7.624  14.814  0.2523  0.0948  0.1667
 9797W        W 9997  17.491  18.152   0.300  0.0002 -0.2946  0.0921
 9798W        W 9998  17.323   1.601  16.386  0.1428 -0.1946 -0.1201
 9799W        W 9999   9.674  12.046   1.490  0.0375 -0.1154 -0.2726
 9800W        W10000  15.314  15.015   1.843 -0.0201 -0.0362  0.2311
 9801W        W10001  14.924   0.901   1.038 -0.1568  0.0634 -0.0106
 9802W        W10002   8.097   4.886  16.674 -0.0123  0.0009 -0.0835
 9803W        W10003   0.118   1.194   8.087 -0.0548 -0.0050  0.1860
 9804W        W10004  15.207  16.047  12.756  0.1745  0.3984  0.1351
 9805W        W10005  16.020   0.900  13.893  0.4472 -0.0093 -0.1764
 9806W        W10006   9.013   4.438   5.852 -0.2416  0.1591 -0.2600
 9807W        W10007   8.758  17.467   9.725  0.1877 -0.0463  0.1291
 9808W        W10008   3.348   0.299  16.585 -0.0807 -0.2082  0.1241
 9809W        W10009  16.891  16.487   3.006  0.3263 -0.2541 -0.0328
 9810W        W10010  16.969  11.216  10.252 -0.2487  0.1240  0.0806
 9811W        W10011  15.279   1.801  10.789 -0.1182  0.2181  0.1291
 9812W        W10012  15.544   4.582   2.294 -0.1531 -0.0948  0.0568
 9813W        W10013  16.525   3.889  16.681  0.3377  0.2245  0.2855
 9814W        W10014   4.961  15.618  15.911  0.1224 -0.1016 -0.1983
 9815W        W10015   2.028   3.756  13.223 -0.0485 -0.1855  0.0211
 9816W        W10016   2.113  16.493  17.989  0.3132 -0.0862 -0.0542
 9817W        W10017  18.197  10.142   0.343  0.1569  0.1055 -0.0706
 9818W        W10018   0.568   0.101   0.475  0.1176  0.2964 -0.3034
 9819W        W10019  11.733   1.386  10.267  0.0342  0.0058  0.0198
 9820W        W10020  17.650   9.114   2.326 -0.0460 -0.0782  0.0210
 9821W        W10021  15.466  15.424   8.252 -0.0845  0.2139 -0.0459
 9822W        W10022   1.128  13.941   7.885 -0.1870  0.4115 -0.3007
 9823W        W10023   3.781   1.981  10.560 -0.0020 -0.2598 -0.1015
 9824W        W10024   8.791  18.204   8.470 -0.2951 -0.0316  0.3427
 9825W        W10025  11.508  14.053  18.153  0.2221  0.1259 -0.1053
 9826W        W10026  15.414  16.987  17.060  0.2264  0.1228  0.2215
 9827W        W10027   6.991   1.358  15.265  0.1796 -0.0345 -0.0108
 9828W        W10028   8.729  10.628  14.080 -0.0806  0.1563  0.0082
 9829W        W10029   9.831  14.866  17.975 -0.0567 -0.0843 -0.1583
 9830W        W10030   3.228  15.787  15.500 -0.0577 -0.0270  0.1424
 9831W        W10031   1.072   0.360  15.483 -0.0467  0.0458  0.0674
 9832W        W10032  11.714   0.727  14.781  0.1904  0.0200 -0.1525
 9833W        W10033  17.003  18.193  13.367 -0.1417 -0.1429 -0.0341
 9834W        W10034  15.811  11.521  13.547  0.0238 -0.2758 -0.0658
 9835W        W10035   3.472  14.616  13.396 -0.0407 -0.0639  0.1449
 9836W        W10036  14.966  12.711  14.255  0.0719 -0.1181 -0.0237
 9837W        W10037   5.737  15.969  10.906 -0.2209 -0.2446 -0.1281
 9838W        W10038   2.080  11.032  12.531  0.0416  0.1747  0.1793
 9839W        W10039   2.339   0.007  12.516  0.3406  0.0823  0.1190
 9840W        W10040  14.270  16.846   1.377  0.2331 -0.1765 -0.0656
 9841W        W10041   1.446  15.959  14.130 -0.1399 -0.0375 -0.0915
 9842W        W10042  16.878   9.383   2.372 -0.1710 -0.1035  0.3055
 9843W        W10043   1.898   3.220   2.725 -0.1216  0.1672 -0.0165
 9844W        W10044   9.520  15.576  13.164  0.0447 -0.2042 -0.0690
 9845W        W10045  10.121   0.044   7.471  0.1210  0.0115 -0.1955
 9846W        W10046  13.379  13.018   0.400  0.0522  0.0262 -0.1159
 9847W        W10047   0.561  11.854  17.900  0.2706  0.0685 -0.4054
 9848W        W10048  13.465  15.320  16.888 -0.0133 -0.1407 -0.2422
 9849W        W10049  15.442   1.013  17.599  0.1098 -0.2076 -0.3415
 9850W        W10050   7.726   9.011   7.730 -0.0237 -0.2277  0.0996
 9851W        W10051  17.666  14.773  17.382  0.3298 -0.0473  0.1695
 9852W        W10052   9.165  13.848  13.653  0.0829 -0.2444 -0.0897
 9853W        W10053   5.971  15.103   7.357  0.0683  0.0023 -0.0969
 9854W        W10054  17.405   1.450  15.019  0.2019 -0.0755 -0.1971
 9855W        W10055   3.316   5.041  16.691  0.2204  0.0973 -0.1826
 9856W        W10056   2.760   7.432  14.276  0.0553 -0.1377  0.0119
 9857W        W10057  14.771   2.913   5.075 -0.3606 -0.2821 -0.1451
 9858W        W10058   3.218  15.751  12.046  0.4342  0.3325 -0.0441
 9859W        W10059  17.913   5.592  14.178 -0.1705  0.3686 -0.1147
 9860W        W10060   5.284  17.983  12.908  0.2108  0.2932 -0.1545
 9861W        W10061  16.265   1.082  11.233  0.0690  0.0312 -0.3123
 9862W        W10062   4.802  17.495  17.666  0.1328 -0.3323 -0.0168
 9863W        W10063   4.399  15.844  13.036 -0.2683  0.2463  0.0818
 9864W        W10064   2.398   2.184   0.067 -0.1054  0.3026  0.0604
 9865W        W10065   1.614   0.971  14.379  0.1583 -0.0608 -0.2846
 9866W        W10066   2.031  10.970  18.158 -0.1750  0.2247  0.0459
 9867W        W10067   2.611  15.552   9.653 -0.0844  0.0636  0.1503
 9868W        W10068   2.790  16.573  16.514  0.0252  0.1057 -0.1751
 9869W        W10069  17.671   2.044  15.726  0.0875 -0.1607 -0.2310
 9870W        W10070  10.944   4.048   0.983 -0.1907  0.1833 -0.1371
 9871W        W10071   3.637   2.559   0.252 -0.1289  0.0802  0.0719
 9872W        W10072   6.460  17.139  16.106 -0.1964 -0.1095  0.1611
 9873W        W10073   7.579   1.262  17.678  0.0493 -0.0160 -0.4089
 9874W        W10074   0.683  17.333   6.996 -0.2055 -0.2581  0.1156
 9875W        W10075   3.255   4.845   9.356  0.1728 -0.0522 -0.1983
 9876W        W10076  13.848  13.456  16.853 -0.0906  0.0857 -0.2844
 9877W        W10077  17.895  13.507   1.549 -0.2086  0.1627  0.0188
 9878W        W10078   0.593   0.544   6.877 -0.2674  0.1833 -0.1401
 9879W        W10079   5.599   9.351  12.211 -0.0986  0.1089  0.1296
 9880W        W10080   0.135  15.100   2.322 -0.1131 -0.0382  0.0130
 9881W        W10081   2.093   6.765  12.832 -0.2738  0.2691  0.1875
 9882W        W10082   5.304  17.760   7.186  0.2160 -0.0368  0.0926
 9883W        W10083  13.743  14.568   1.076 -0.0094 -0.0977  0.0326
 9884W        W10084   0.824   4.743  11.524  0.3336  0.0014 -0.2176
 9885W        W10085   3.298  15.594  14.851  0.1194 -0.0202 -0.0306
 9886W        W10086   2.059  12.907  14.365  0.2953 -0.0096  0.0161
 9887W        W10087   4.624   2.091  16.805 -0.3295 -0.2525  0.0960
 9888W        W10088  14.931   9.193  17.080 -0.0188  0.0185  0.0824
 9889W        W10089  10.969  12.834   7.949  0.1902  0.0086  0.1749
 9890W        W10090   4.137  13.398   3.035 -0.0671 -0.1046  0.2291
 9891W        W10091   5.558  17.837   8.812 -0.1621 -0.0070 -0.0782
 9892W        W10092  12.453  11.548   7.478 -0.0250 -0.0099  0.0633
 9893W        W10093   2.158  14.905  16.100 -0.2539 -0.1106  0.0766
 9894W        W10094   0.186  10.917  14.925  0.0957 -0.3777 -0.1295
 9895W        W10095   7.227   2.453  13.282  0.2494 -0.2812  0.0274
 9896W        W10096   1.791  16.764   0.215  0.0158  0.3131 -0.2480
 9897W        W10097   6.132   6.236  13.787  0.0166 -0.4707  0.0528
 9898W        W10098   3.821  12.375   8.034 -0.1601  0.1121 -0.1939
 9899W        W10099  17.755   9.526   8.497  0.3155 -0.0777 -0.2284
 9900W        W10100   8.187   3.607   4.813 -0.0726  0.1513 -0.0933
 9901W        W10101  11.557  15.736  13.930  0.1018 -0.0078  0.0149
 9902W        W10102  13.422  12.809  15.795 -0.0331 -0.2282 -0.0219
 9903W        W10103  17.533  12.309  13.135 -0.0459 -0.0925 -0.0925
 9904W        W10104   1.102  14.837   6.559  0.3537 -0.2704  0.1294
 9905W        W10105  14.474  15.354   9.049 -0.0610  0.0359 -0.2102
 9906W        W10106   9.128   5.306   4.765 -0.1077 -0.4002 -0.1691
 9907W        W10107   0.386   5.535   9.329 -0.1391 -0.1572  0.2403
 9908W        W10108   1.964   2.982   8.158 -0.1145  0.0073  0.1025
 9909W        W10109   3.060   4.196  16.979 -0.4963  0.1123  0.1515
 9910W        W10110   4.306   0.389  16.094 -0.0773 -0.0689 -0.0202
 9911W        W10111   6.639  15.876   2.867 -0.1938 -0.2294 -0.0971
 9912W        W10112  17.813  17.858  13.800  0.0261  0.1320 -0.1794
 9913W        W10113  14.188  12.202  13.255 -0.0026  0.0128 -0.2365
 9914W        W10114   6.296   2.683  17.679 -0.1180  0.1653 -0.4077
 9915W        W10115  12.779  11.743  17.398  0.0330 -0.2280 -0.2333
 9916W        W10116  17.726   0.201   1.322  0.0503 -0.0383  0.1153
 9917W        W10117   0.606  12.712   0.166  0.0526 -0.2110  0.1877
 9918W        W10118  14.045  10.258  12.532 -0.0939  0.0427 -0.0589
 9919W        W10119   8.884   3.067   1.324  0.1718  0.0660  0.0881
 9920W        W10120   9.449  15.119   2.536 -0.0488  0.0057  0.3666
 9921W        W10121   6.465   2.837  11.607  0.1922  0.1842 -0.0319
 9922W        W10122  16.176   1.092  13.457  0.3107 -0.1315  0.0276
 9923W        W10123  17.959  12.186   1.641 -0.2798 -0.0391 -0.0148
 9924W        W10124   4.883  13.790  14.701  0.0494  0.0074  0.0657
 9925W        W10125  14.972   4.703   1.482 -0.0847  0.1522  0.0293
 9926W        W10126   2.167   4.337  14.997  0.0067 -0.0022  0.0071
 9927W        W10127   1.471  16.652  16.666  0.2121  0.1867  0.0257
 9928W        W10128   8.680  16.206  16.987  0.1074  0.1296 -0.3552
 9929W        W10129   3.157  15.375  10.301  0.0586  0.4094  0.2019
 9930W        W10130  17.409  14.542  12.594 -0.2076  0.0996 -0.1772
 9931W        W10131   6.095  17.355  10.859  0.3772 -0.0574  0.1390
 9932W        W10132   4.794  16.254  11.855  0.1364 -0.1250 -0.0115
 9933W        W10133  12.512  15.753  16.376  0.0059  0.2361  0.3052
 9934W        W10134   9.267   1.349  17.197  0.1174 -0.1735 -0.0158
 9935W        W10135  14.885   5.263  14.545  0.0748  0.1797 -0.1445
 9936W        W10136   4.124  11.568   1.936 -0.0637  0.1462 -0.4225
 9937W        W10137   5.929  15.229  14.715  0.0733 -0.0458  0.1927
 9938W        W10138   1.798   6.335   7.166 -0.1498 -0.3397  0.0209
 9939W        W10139   4.988  15.588  13.768 -0.1283  0.0069 -0.1275
 9940W        W10140   3.878   3.696   5.589 -0.0304 -0.3082 -0.2772
 9941W        W10141   1.622   1.634  15.534  0.0855  0.0705 -0.1072
 9942W        W10142  13.990  10.073  16.956  0.1047  0.0920 -0.1210
 9943W        W10143   4.888   7.607  13.886  0.2365 -0.1247 -0.0770
 9944W        W10144   0.185  18.121   0.923 -0.1900 -0.4263  0.1593
 9945W        W10145  11.252   4.832  11.794  0.2342 -0.1538  0.3313
 9946W        W10146   1.338  15.226  15.856  0.2631 -0.3748 -0.0230
 9947W        W10147  13.609  10.053  14.702  0.0635  0.0559  0.0766
 9948W        W10148  15.878  16.776  12.455  0.1475 -0.1409 -0.1719
 9949W        W10149   2.378   0.161   8.182 -0.0212 -0.0411 -0.0922
 9950W        W10150   8.489  11.993   4.164  0.1305  0.0376  0.1210
 9951W        W10151  12.043  10.838  12.681  0.1264 -0.0148 -0.3088
 9952W        W10152  16.412  14.711  11.539 -0.0379 -0.3119  0.1438
 9953W        W10153  17.352   5.510  14.946 -0.1576 -0.3423 -0.2112
 9954W        W10154   8.008   9.408   4.171  0.0046 -0.0244  0.0087
 9955W        W10155   3.598  17.407  10.469  0.0641 -0.1151  0.0244
 9956W        W10156   1.760   3.014  10.435  0.0489 -0.0628 -0.1026
 9957W        W10157  13.914  14.380   7.541 -0.2738 -0.0070  0.0622
 9958W        W10158   0.046   8.703   5.477  0.1219  0.1448 -0.0902
 9959W        W10159  17.330  17.655   0.700 -0.0624 -0.2513 -0.0873
 9960W        W10160  15.949  10.637   0.527 -0.0956 -0.0013 -0.0055
 9961W        W10161   7.538  18.111  16.569  0.2858  0.3514 -0.1101
 9962W        W10162   4.812  16.740  15.105  0.0046 -0.4271  0.1446
 9963W        W10163  15.460  17.944  11.111  0.2510  0.0090 -0.0561
 9964W        W10164   7.551   0.322   5.862  0.1522 -0.0272 -0.0146
 9965W        W10165   2.678   5.006   3.001  0.1816  0.0188  0.3421
 9966W        W10166   5.882  12.016  17.053  0.2819 -0.1579 -0.0119
 9967W        W10167  17.261  12.575  12.783  0.2978  0.2849 -0.0440
 9968W        W10168   1.207   3.903  10.837  0.1228 -0.2604  0.1110
 9969W        W10169  11.178   1.818   6.739 -0.3074 -0.0196 -0.1679
 9970W        W10170   7.867  13.329   1.461 -0.1366 -0.2464  0.1141
 9971W        W10171  14.151  14.923   0.409 -0.0882  0.2756 -0.0023
 9972W        W10172  17.998   2.420  16.945  0.1732 -0.0680  0.3534
 9973W        W10173   1.981  16.387  15.478  0.1474 -0.1907 -0.3417
 9974W        W10174   4.742  13.558   2.994 -0.3550 -0.4318  0.0576
 9975W        W10175   1.508   2.357   2.577  0.2971 -0.0908 -0.0053
 9976W        W10176  15.540   2.861  11.676 -0.2612 -0.1782 -0.0541
 9977W        W10177   1.150  12.771  14.575 -0.0295  0.3221  0.0232
 9978W        W10178  14.320   8.839  14.834  0.0604  0.3554  0.0516
 9979W        W10179   2.627  17.322   5.397 -0.2774  0.0708  0.0130
 9980W        W10180   5.323   5.553  17.129  0.0314  0.0939  0.1068
 9981W        W10181   2.792  13.084  12.290  0.0104  0.0363 -0.1338
 9982W        W10182  14.250  17.296  13.454 -0.1996  0.3311 -0.0009
 9983W        W10183   5.628  14.454  16.149 -0.1675  0.2218  0.0928
 9984W        W10184  16.359   1.473  10.023  0.0205  0.2457 -0.2078
 9985W        W10185  11.527   3.087  12.688  0.1204  0.2298  0.0056
 9986W        W10186   6.627  11.818  15.936  0.1387  0.2478  0.0005
 9987W        W10187   1.321   7.667   2.770 -0.2601  0.0090  0.0823
 9988W        W10188  16.268  11.215  15.135 -0.0329 -0.2303 -0.0280
 9989W        W10189  13.608   1.822  17.978 -0.1308 -0.1470 -0.0978
 9990W        W10190  14.071   6.052  11.357  0.2756 -0.2880 -0.2274
 9991W        W10191   0.032  16.480   0.257 -0.2892  0.2774 -0.1180
 9992W        W10192   5.393  14.859  16.350 -0.2301  0.0404  0.1645
 9993W        W10193   3.093   1.061  17.395 -0.1576 -0.0647  0.0456
 9994W        W10194  14.862   7.298  16.830 -0.1766  0.2231 -0.0694
 9995W        W10195   5.116  17.839   3.612 -0.0165  0.2049  0.2231
 9996W        W10196   9.645  15.380  15.571 -0.0613 -0.0348  0.2461
 9997W        W10197   1.473  13.658  15.633 -0.0572 -0.4666 -0.0519
 9998W        W10198   5.963   0.966   8.282  0.1227  0.2035 -0.0264
 9999W        W10199  17.824   5.395  11.436 -0.0704 -0.0604 -0.1354
10000W        W10200   7.322   1.057  18.140 -0.3177  0.1649 -0.1744
10001W        W10201   9.575  14.998   8.287  0.0486  0.0604 -0.0223
10002W        W10202  17.316  14.771  11.243  0.1381 -0.1715  0.0224
10003W        W10203   4.247   2.821  17.802  0.1282  0.2324 -0.1023
10004W        W10204   8.546  14.566  15.272  0.1117  0.0453 -0.2487
10005W        W10205   3.431  12.530  11.102  0.1713  0.1734  0.2349
10006W        W10206   0.608  11.708  15.928 -0.0740  0.1300 -0.2351
10007W        W10207   4.378   3.010   0.838 -0.1464 -0.1289 -0.1261
10008W        W10208   0.689   9.682   2.564 -0.0552 -0.1076  0.0904
10009W        W10209  17.937   7.236   8.701 -0.0360  0.0026 -0.0173
10010W        W10210   1.414  15.433  14.161  0.2191  0.1151 -0.0076
10011W        W10211   3.955   3.280  16.301  0.2519  0.1888  0.0555
10012W        W10212  12.313  14.343  11.443  0.1285 -0.2679  0.0453
10013W        W10213  14.891   9.250  17.566  0.1359  0.1988 -0.1484
10014W        W10214   1.126  14.508   7.670  0.0907  0.2562 -0.1759
10015W        W10215  13.963   0.092  10.739 -0.1362 -0.0380  0.1761
10016W        W10216  17.118   7.880   0.392  0.2329  0.1490 -0.1616
10017W        W10217   5.993  13.772   3.002 -0.0177 -0.3898  0.0105
10018W        W10218   3.931  14.276   6.128  0.0472 -0.3749  0.1988
10019W        W10219   5.986  17.471   2.681  0.1371 -0.2034 -0.0120
10020W        W10220   3.569  16.632  12.364 -0.0026 -0.1879  0.1557
10021W        W10221  15.254  15.682   0.174 -0.0204  0.0891 -0.2828
10022W        W10222   3.357   6.480  14.390  0.0972 -0.0937 -0.0174
10023W        W10223   2.473  12.795  17.037 -0.0083 -0.1715  0.0624
10024W        W10224   2.918   0.537   7.421  0.0485 -0.3311  0.1368
10025W        W10225   4.336   1.665   0.118 -0.1164 -0.0535 -0.0738
10026W        W10226  13.940  14.072   4.786 -0.2407  0.0198 -0.0873
10027W        W10227  16.308   2.326  16.907 -0.0947 -0.0598  0.1249
10028W        W10228  17.568   9.681  17.754 -0.0775 -0.3955  0.2123
10029W        W10229   6.077  15.684  16.479 -0.2688  0.2293 -0.0820
10030W        W10230  14.611  17.478   2.125  0.4492  0.1541  0.0035
10031W        W10231  12.851  10.625   3.205  0.2409  0.2289 -0.3742
10032W        W10232   9.329   9.984  12.771 -0.2239  0.2294 -0.1145
10033W        W10233   1.210   6.284  10.312 -0.2731  0.0800  0.0917
10034W        W10234   4.705  16.954   5.168  0.2002  0.0841  0.0643
10035W        W10235  11.674  13.776   7.252 -0.0676 -0.2191  0.2808
10036W        W10236  11.154   4.086   9.692  0.3089 -0.1370 -0.1696
10037W        W10237  11.921   4.865  15.400  0.1102 -0.0465 -0.1200
10038W        W10238   2.205  15.756  13.797 -0.1889 -0.1383 -0.0967
10039W        W10239   6.633   0.857  17.181 -0.2396 -0.0987 -0.0837
10040W        W10240  11.777  18.099   5.041  0.1564  0.3510 -0.2141
10041W        W10241   5.030   0.087   4.145  0.3159 -0.1290 -0.0489
10042W        W10242   1.471   4.916   7.680  0.1876 -0.2344  0.1743
10043W        W10243   2.442  15.106   0.226  0.1024 -0.2331  0.0939
10044W        W10244   9.045  15.264   4.522 -0.2174  0.0527 -0.1244
10045W        W10245  12.962  13.692   1.178  0.2880  0.0684 -0.0992
10046W        W10246  14.228  13.925   1.264 -0.0939  0.0371  0.1199
10047W        W10247   6.093  13.617  16.026  0.2404  0.1149 -0.1434
10048W        W10248  11.104   3.495   6.611  0.1465 -0.1023  0.3338
10049W        W10249   9.841  16.090  16.422 -0.2794  0.1161  0.1994
10050W        W10250  12.176   5.221   4.134  0.2992  0.1298  0.0540
10051W        W10251  16.840   0.584   8.871 -0.3323 -0.0036 -0.1310
10052W        W10252  15.302  13.254  14.467  0.0944  0.0438 -0.1688
10053W        W10253  11.789  17.348   9.684  0.3481  0.2426  0.2777
10054W        W10254   3.555   7.800   3.915  0.1293 -0.1245  0.1315
10055W        W10255   1.881   2.995   4.014 -0.0286 -0.0702  0.1696
10056W        W10256   9.523   3.929   3.278 -0.2112 -0.0510  0.0483
10057W        W10257  15.048  12.683  17.368  0.1971 -0.2069  0.1084
10058W        W10258   3.519  17.037  17.213 -0.1296  0.0965 -0.0177
10059W        W10259  10.381  13.184   3.545  0.3238  0.1461  0.1017
10060W        W10260  10.866   5.508   0.004 -0.0232 -0.1210  0.0224
10061W        W10261  13.506   4.152   2.801  0.0526  0.1078  0.2788
10062W        W10262   3.610  10.773   8.259 -0.1193  0.2578 -0.2032
10063W        W10263   3.796  16.250  16.590  0.2097  0.3630  0.1264
10064W        W10264   7.105   1.156   7.657  0.4023  0.0632 -0.0043
10065W        W10265   1.065  16.295   2.769 -0.5354 -0.1612 -0.1400
10066W        W10266  11.122  15.354  17.769 -0.2038  0.3626 -0.0743
10067W        W10267   4.790   5.176   7.136  0.3161  0.2617 -0.1594
10068W        W10268   4.910  15.585   2.267  0.2536 -0.0376  0.1249
10069W        W10269   4.208  10.283   2.051 -0.0304 -0.1295  0.1074
10070W        W10270   3.924  12.196  11.895 -0.0475  0.0295  0.0286
10071W        W10271   1.370   1.683   9.810  0.0225 -0.1281 -0.3341
10072W        W10272   9.615   9.885   0.398 -0.1371 -0.0177  0.0802
10073W        W10273  14.972  16.269  17.100 -0.0188  0.1690 -0.1884
10074W        W10274  11.720  13.194   3.891 -0.0478 -0.1318 -0.1866
10075W        W10275   7.475  13.527  15.028  0.0196  0.0535  0.0869
10076W        W10276   1.782   5.519  13.311 -0.2502 -0.1616  0.1232
10077W        W10277   5.803   4.095  12.657 -0.2616 -0.2330  0.0894
10078W        W10278  18.177  13.868  14.118  0.1388  0.0424 -0.2111
10079W        W10279   9.318  15.343   2.994 -0.3183 -0.0349  0.0836
10080W        W10280   8.174   2.753  15.853 -0.1329 -0.0955 -0.0406
10081W        W10281   8.012  14.153  16.640 -0.2497 -0.0285 -0.1545
10082W        W10282   5.641   0.468   3.125  0.1305 -0.2683  0.2270
10083W        W10283   3.817  15.890  17.973  0.1283  0.1769  0.3949
10084W        W10284  10.336  12.030  14.800  0.2397  0.0802 -0.2711
10085W        W10285   5.402  10.026   4.638  0.2384  0.0314 -0.1809
10086W        W10286  10.203  18.021   1.820 -0.0795  0.2154 -0.2159
10087W        W10287  10.344   1.727  13.765  0.0415 -0.2300 -0.0738
10088W        W10288  11.908  16.554   7.427  0.2064  0.0529 -0.0044
10089W        W10289   5.305   5.057   5.511 -0.1222 -0.0896 -0.0202
10090W        W10290  13.141   4.551   7.608 -0.3966 -0.2990 -0.0704
10091W        W10291   8.598   8.133   6.488  0.4054 -0.0341  0.2206
10092W        W10292   7.600   6.698  13.647 -0.0121  0.2240 -0.0373
10093W        W10293   0.034  16.617  16.720  0.1176  0.1231 -0.2150
10094W        W10294  17.812   4.982  12.654 -0.2418  0.0473  0.1083
10095W        W10295   2.900  16.948   5.709 -0.0909  0.0539  0.1632
10096W        W10296   0.582   9.574  14.842  0.0138 -0.1312  0.1091
10097W        W10297   2.839   0.669   3.859  0.2589 -0.0186 -0.1730
10098W        W10298  10.014   2.471   4.059 -0.1531  0.1670 -0.0899
10099W        W10299  17.166   2.255  10.226  0.2155  0.0477  0.1483
10100W        W10300   9.318  16.523  14.647 -0.5366 -0.4677  0.2100
10101W        W10301  12.181   8.733   1.731 -0.2715  0.0244  0.1221
10102W        W10302   3.464   5.729  10.050 -0.2568 -0.0663  0.0649
10103W        W10303   8.656   4.887   2.349  0.3238 -0.1229 -0.2331
10104W        W10304   5.821   0.292   4.242 -0.1542  0.2579  0.0638
10105W        W10305  15.904   5.542   2.780 -0.1535 -0.1062  0.1577
10106W        W10306  10.136  16.854   3.182 -0.0571 -0.3518 -0.1398
10107W        W10307   8.488  15.553   1.565 -0.1404 -0.2059  0.3076
10108W        W10308   8.654   0.372   4.472  0.2281  0.0613  0.1885
10109W        W10309   4.663   2.487   1.855 -0.0081  0.0761 -0.1409
10110W        W10310   2.019   2.446  14.655  0.0523 -0.0955 -0.0467
10111W        W10311   8.574  14.314   1.258  0.0974  0.1429  0.0327
10112W        W10312   5.410  11.406  12.652 -0.3528  0.1432 -0.0200
10113W        W10313  16.090  13.366   9.162  0.0759 -0.2959 -0.0399
10114W        W10314  16.610   7.543  10.417  0.2583  0.1500 -0.0461
10115W        W10315   4.522  18.047  11.738 -0.2385  0.0376  0.2375
10116W        W10316   4.745  14.043  17.751 -0.0403  0.0938  0.1540
10117W        W10317  15.935  14.035  13.175 -0.1919 -0.4171  0.1127
10118W        W10318   5.922  12.551   7.345  0.3608  0.2330  0.0761
10119W        W10319  17.923  17.866   3.842 -0.2090  0.1485  0.3081
10120W        W10320  17.377   0.724   6.771 -0.1369 -0.0094  0.1287
10121W        W10321   8.348   6.655   8.272 -0.2322 -0.1030  0.0167
10122W        W10322   4.634   2.088  10.833  0.3513  0.1922 -0.0317
10123W        W10323   1.265   1.150   5.902 -0.2266  0.3814 -0.1288
10124W        W10324  15.625   6.093   2.417 -0.0237  0.0515  0.1043
10125W        W10325   3.277   1.578   5.402 -0.0555  0.2155 -0.0540
10126W        W10326   0.377   2.594   1.742  0.0267 -0.0774  0.3667
10127W        W10327   8.667   7.557   5.884 -0.0575  0.0111 -0.0995
10128W        W10328  10.015   1.527   2.482  0.0220 -0.0621 -0.2061
10129W        W10329   3.989  17.906   1.473  0.2198 -0.1059  0.1468
10130W        W10330   1.531  17.339   7.779 -0.0188  0.0415  0.3111
10131W        W10331   5.204   1.188  16.945 -0.1686 -0.0465  0.0775
10132W        W10332  16.806  17.972   7.696  0.1125 -0.2660  0.3760
10133W        W10333   6.742   2.223   4.042  0.1182  0.2322  0.3612
10134W        W10334  10.681  18.194   8.614 -0.2550 -0.1859  0.0430
10135W        W10335   7.503  16.265   2.805 -0.0997 -0.0511  0.2123
10136W        W10336  13.010   3.979  16.464  0.0445 -0.0698  0.4267
10137W        W10337   9.411   2.841   0.691 -0.1500 -0.1200  0.1950
10138W        W10338   3.154   4.072  13.046 -0.0820  0.3376  0.1435
10139W        W10339   2.539   4.106  18.164 -0.2286  0.0759 -0.0521
10140W        W10340   4.651   0.488   4.636  0.2339 -0.0715 -0.3894
10141W        W10341   1.155   3.660   2.703  0.2830  0.2427 -0.1530
10142W        W10342   3.467   4.029  11.520  0.2121 -0.0430 -0.1218
10143W        W10343  13.992   1.536  17.025 -0.1687  0.0502 -0.2871
10144W        W10344   4.045   0.323   2.643  0.3306 -0.4698  0.2034
10145W        W10345   4.131   2.226   7.400 -0.0595  0.3481 -0.1221
10146W        W10346   0.948   4.387  15.682 -0.0274  0.2176 -0.0438
10147W        W10347   9.187   2.200   1.141  0.3602 -0.2794  0.0043
10148W        W10348  14.401   4.338   0.092  0.2597  0.0663 -0.1725
10149W        W10349   9.825   2.982   0.948  0.0293 -0.0023  0.1724
10150W        W10350   7.279   8.146   5.509 -0.0014 -0.0076  0.3408
10151W        W10351   1.268  16.466   0.844 -0.0164  0.3546 -0.0824
10152W        W10352   8.853  11.816   1.535 -0.0709 -0.0721 -0.0582
10153W        W10353   8.796   7.160   6.681  0.0502 -0.0690 -0.0079
10154W        W10354   7.792   8.149   5.315 -0.0404  0.1403 -0.0742
10155W        W10355   7.150   3.491   3.558 -0.2014  0.1284  0.2848
10156W        W10356   6.108   2.168   5.012 -0.1530  0.0740  0.0673
10157W        W10357   9.093  17.172   6.591 -0.0429  0.1155  0.3714
10158W        W10358   4.493  16.220  17.855 -0.2929  0.0500 -0.0313
10159W        W10359  14.881   3.036   5.986 -0.0100  0.1655 -0.2144
10160W        W10360   5.501  17.119  17.943 -0.0529  0.3011  0.0492
10161W        W10361   8.446   3.195   4.745  0.0352 -0.1635  0.4578
10162W        W10362  10.559  11.999   2.869 -0.1489  0.2245 -0.3792
10163W        W10363   1.898  15.778   6.689 -0.0639 -0.2240  0.1832
10164W        W10364  13.539   3.752   7.582  0.1914 -0.0651 -0.0452
10165W        W10365   5.191  12.875   0.329  0.0639 -0.0065  0.2175
10166W        W10366   2.028   8.010  16.544  0.1803 -0.0159 -0.0150
10167W        W10367   1.533   5.503   2.769 -0.1205 -0.2634  0.1419
10168W        W10368   5.694  11.090   1.133 -0.0567  0.2813 -0.3042
10169W        W10369  10.441   7.914   7.337 -0.3582 -0.2129  0.0516
10170W        W10370  10.764  16.767   4.386  0.1764  0.0136  0.5571
10171W        W10371   7.654  16.748  13.237 -0.0243  0.0500  0.0382
10172W        W10372   8.044  17.496   1.116  0.1678  0.2191  0.2431
10173W        W10373   8.373   8.789  10.893 -0.1439  0.0386 -0.1514
10174W        W10374   4.958   3.881   2.149 -0.2949 -0.1766  0.0414
10175W        W10375   9.663  17.887  14.899  0.1491 -0.0714  0.0996
10176W        W10376   5.338  16.970   5.889 -0.0186  0.1205  0.2156
10177W        W10377  12.439  13.385  16.294 -0.1021 -0.1670 -0.1206
10178W        W10378   4.417  15.688   4.619 -0.1143 -0.0713  0.1052
10179W        W10379   3.749   5.257   1.955  0.0904  0.1414  0.1724
10180W        W10380  16.245   1.778  16.129 -0.1131 -0.0111  0.1471
10181W        W10381   2.693   0.022  17.842  0.1168  0.0331  0.0674
10182W        W10382  15.876   9.450   0.412  0.0348 -0.0243  0.0236
10183W        W10383  12.558   2.085   7.776 -0.2279 -0.2410  0.2380
10184W        W10384  17.457   2.475  16.735 -0.1425  0.1522  0.1388
10185W        W10385  18.062   3.135   1.329 -0.0537 -0.2514 -0.3276
10186W        W10386  10.578  11.487   3.109 -0.3347 -0.0107  0.1205
10187W        W10387   7.148  18.033   1.120 -0.0057  0.3121  0.3098
10188W        W10388   6.051   2.182   2.226 -0.0277  0.0213  0.0736
10189W        W10389   1.488   5.213   3.975 -0.0666 -0.2118 -0.0885
10190W        W10390   6.454  16.599   0.082  0.2010 -0.1663  0.1971
10191W        W10391   3.593   7.347   1.702 -0.0130  0.0177 -0.2693
10192W        W10392   5.639  16.484   2.558 -0.2482  0.1610 -0.2296
10193W        W10393   6.804   3.326   4.810  0.2664 -0.1701 -0.1369
10194W        W10394   6.131   3.250   8.401  0.0337 -0.1179  0.1098
10195W        W10395  14.186   1.178  14.969 -0.2511  0.1122 -0.1204
10196W        W10396  12.337   8.695   5.902 -0.1092 -0.0963 -0.0941
10197W        W10397   4.021   9.061   6.348 -0.1788 -0.0595 -0.0057
10198W        W10398   2.817  14.500   0.709 -0.2001 -0.0768 -0.0460
10199W        W10399   6.641   0.817   6.841  0.0422  0.0254 -0.1578
10200W        W10400  17.432  10.407   4.949 -0.2232  0.1443 -0.1275
10201W        W10401  10.721  18.104  17.279  0.1326 -0.4510 -0.0993
10202W        W10402  15.258  18.186   1.203 -0.3397  0.1762  0.0730
10203W        W10403  10.734  15.934  13.610  0.1430  0.0255 -0.0710
10204W        W10404  14.478  17.120   0.443 -0.0522  0.0780 -0.0844
10205W        W10405  12.320   3.036   1.660 -0.0685 -0.0004  0.1096
10206W        W10406   9.546   9.368   0.481  0.1992  0.1676 -0.1482
10207W        W10407  10.911   3.580  16.859 -0.1797  0.2778  0.0258
10208W        W10408  11.325   7.809  12.237 -0.0756  0.0652 -0.0017
10209W        W10409  16.610   5.459   4.921  0.0715  0.2148  0.0647
10210W        W10410   4.459   5.899   4.545  0.0565 -0.0508 -0.1805
10211W        W10411   6.206   9.828   0.736  0.0635  0.0520 -0.1813
10212W        W10412   6.356   0.158   1.681  0.0332  0.1142  0.3307
10213W        W10413  12.414  12.872  16.412  0.0060  0.2602 -0.1707
10214W        W10414  15.085   6.162   2.277  0.0718  0.2848  0.2222
10215W        W10415  11.863   9.508   0.197  0.2550  0.0857  0.1407
10216W        W10416   1.016  13.808   3.268  0.0528  0.2077 -0.1125
10217W        W10417   5.484   5.550   5.809 -0.0300  0.0463 -0.0517
10218W        W10418  11.226  16.145  13.106 -0.4102 -0.1672  0.1649
10219W        W10419  11.317  13.710  15.312 -0.0253 -0.1354 -0.1751
10220W        W10420  13.103  15.892   5.615  0.1224 -0.2723  0.2230
10221W        W10421   6.475  15.461   8.293 -0.0687  0.0084 -0.0268
10222W        W10422  11.365   8.456   3.847  0.1639 -0.1159  0.0079
10223W        W10423   8.308   0.401  14.709  0.2355  0.1418  0.3469
10224W        W10424  14.295   0.426   8.421  0.1345 -0.1334 -0.1615
10225W        W10425  10.166  16.149   7.340  0.0649 -0.0878 -0.0672
10226W        W10426   6.264   0.764  14.077  0.0966  0.0160 -0.1316
10227W        W10427  10.462  14.184   5.257 -0.1711 -0.0684  0.5000
10228W        W10428   3.672  15.524   7.428  0.0484  0.2089  0.2310
10229W        W10429   7.556  17.196  13.006  0.0543  0.0406 -0.0538
10230W        W10430   4.859  17.916  16.375 -0.1459  0.0848  0.0211
10231W        W10431   6.332  16.728  17.807 -0.1701 -0.1251  0.1586
10232W        W10432  13.944   0.278  17.522 -0.1913  0.1546  0.1115
10233W        W10433   0.184   3.727   4.028 -0.3018  0.0780  0.0525
10234W        W10434   5.667   0.001   0.915  0.2631 -0.1286  0.1000
10235W        W10435  11.995  13.636   3.839  0.0413 -0.3414 -0.4067
10236W        W10436   8.028   1.812  16.270  0.1075 -0.1143 -0.1366
10237W        W10437   4.096  16.109   4.728  0.1304  0.0794  0.3319
10238W        W10438   1.728  17.432  15.006  0.0133 -0.0144  0.0464
10239W        W10439   1.441   4.481   1.642 -0.0451  0.0752 -0.1281
10240W        W10440   6.814   4.362  16.180 -0.1308 -0.0050  0.0317
10241W        W10441   9.651  16.004   0.924 -0.2023  0.2722  0.2080
10242W        W10442  10.425   7.355   2.213  0.1106  0.4184 -0.1289
10243W        W10443   5.677   3.524  16.175  0.0669 -0.0302 -0.1551
10244W        W10444   3.593   2.156   0.522  0.0730  0.2399  0.2002
10245W        W10445   2.590  14.722   9.192  0.0932  0.2934 -0.3486
10246W        W10446   6.667   7.834  11.140 -0.0345 -0.1809  0.1106
10247W        W10447   7.597   8.543   5.542 -0.1198  0.0483 -0.1454
10248W        W10448  11.365   3.932  15.304  0.3318  0.2422 -0.0799
10249W        W10449   9.860   2.385   1.901 -0.3327  0.0831 -0.2270
10250W        W10450   4.922   2.332   5.225  0.2554 -0.0244  0.1005
10251W        W10451   0.468  15.130   7.319  0.1194  0.1149  0.0850
10252W        W10452   3.503   0.806   1.004  0.1574  0.2043  0.0078
10253W        W10453  10.528   4.347   5.322  0.0656 -0.0673 -0.1248
10254W        W10454   6.214   6.221   4.214 -0.0203 -0.0747 -0.1315
10255W        W10455   6.027  10.276   0.623  0.0894  0.0090 -0.2743
10256W        W10456   8.218   6.945   7.466  0.0897 -0.0400 -0.2554
10257W        W10457  17.206   7.525   2.456 -0.0442  0.1266 -0.2265
10258W        W10458  12.485  16.063   9.579  0.2069  0.1292 -0.0408
10259W        W10459   9.400   5.377  17.885 -0.3719 -0.0129  0.4005
10260W        W10460   2.176  17.822  16.840  0.2349 -0.2627 -0.2568
10261W        W10461   7.974  13.839  11.323 -0.2650 -0.1375 -0.4236
10262W        W10462   1.910  16.767   3.121  0.1561 -0.0422  0.0487
10263W        W10463   9.603   3.479   2.758  0.0478 -0.2094 -0.0399
10264W        W10464  12.012   1.718  15.608  0.1795 -0.0003 -0.1277
10265W        W10465  16.263   4.606   6.295 -0.1063  0.0485  0.3097
10266W        W10466   1.754   7.731   5.362 -0.0494  0.0722 -0.0130
10267W        W10467   7.254   6.594  14.037 -0.1186 -0.2969  0.0010
10268W        W10468  17.259   3.336   6.386  0.0594  0.3358 -0.1929
10269W        W10469   1.426   3.741   3.159 -0.1869  0.2642 -0.0431
10270W        W10470  11.615  17.921   7.886  0.0598 -0.0081  0.2018
10271W        W10471  11.905   2.802   7.469  0.0952  0.0098  0.0635
10272W        W10472   2.084   4.506   8.808 -0.0128 -0.0824 -0.0634
10273W        W10473   7.742  16.075   1.189 -0.0541 -0.2680  0.1775
10274W        W10474   4.904   6.269   3.441  0.0437  0.0716  0.3655
10275W        W10475   8.007   0.460  17.238  0.0639  0.0997  0.2118
10276W        W10476   2.246   3.510   2.957  0.2604 -0.1479 -0.0676
10277W        W10477   9.961  15.440   8.755 -0.1814  0.1318 -0.2346
10278W        W10478   6.175  15.207  16.637 -0.1118 -0.2474  0.2677
10279W        W10479   0.329   3.247  16.523 -0.2509  0.1254 -0.1162
10280W        W10480  10.717   2.239   2.204 -0.1609 -0.0729 -0.1384
10281W        W10481  16.655   1.006   3.022  0.0509  0.4082  0.1134
10282W        W10482   6.492   4.300   3.450  0.1515  0.2965  0.2074
10283W        W10483   1.156   1.651   4.896 -0.4555 -0.2969  0.1103
10284W        W10484   6.948  10.343   6.001 -0.2705  0.1123 -0.0449
10285W        W10485   7.410   3.824  15.646 -0.2706 -0.1341 -0.1057
10286W        W10486   0.088  13.650   8.392  0.2502 -0.1934 -0.0027
10287W        W10487  10.300   8.103   4.569  0.2152  0.1240  0.4352
10288W        W10488  16.007   4.727   6.709 -0.1351  0.0621 -0.1409
10289W        W10489   8.387  15.583   7.419  0.2376 -0.0119 -0.1910
10290W        W10490  16.703  18.080   3.209 -0.1185  0.0853  0.1379
10291W        W10491  14.161   2.945   3.314  0.3027  0.0454  0.2983
10292W        W10492   6.116  18.033   1.962 -0.1075  0.3280 -0.1653
10293W        W10493   4.962   4.000   4.613 -0.2139 -0.0953 -0.0193
10294W        W10494   3.315  16.356   2.589 -0.2158 -0.1553 -0.1792
10295W        W10495   7.168   3.893  10.584 -0.1945 -0.1587  0.0276
10296W        W10496   7.321   5.803   8.338 -0.1748 -0.1859 -0.1225
10297W        W10497   7.050   8.845   2.719 -0.0320  0.2537 -0.2735
10298W        W10498  10.073   9.538  15.490 -0.2802  0.1175 -0.0325
10299W        W10499  11.802   9.467   8.474 -0.1122  0.1035 -0.1204
10300W        W10500  12.871   3.493   5.094  0.0735 -0.1502  0.0986
10301W        W10501  14.151   2.620   1.305 -0.2496  0.1390  0.5060
10302W        W10502   9.305   4.854   3.653 -0.0244  0.0734  0.0765
10303W        W10503  11.899   1.935  17.684 -0.1479 -0.0200  0.0041
10304W        W10504   9.240   2.274   0.625 -0.1628 -0.2197  0.4920
10305W        W10505  12.491  11.047   7.968  0.1097  0.0721 -0.0797
10306W        W10506  14.392   1.330  17.870 -0.2761  0.0155 -0.2334
10307W        W10507   0.914  14.785   8.910 -0.1165  0.1935  0.1054
10308W        W10508   4.193   2.001  13.849 -0.2170 -0.0549 -0.0391
10309W        W10509   0.832  13.243   5.841 -0.2913  0.0330 -0.0269
10310W        W10510   8.642   7.543   1.124  0.3554  0.0936 -0.0693
10311W        W10511   5.294   6.707   4.133 -0.4396  0.1158  0.3411
10312W        W10512   8.350   2.093  13.955  0.5000 -0.0798  0.3788
10313W        W10513   7.608  16.763   0.460 -0.1490  0.1588  0.1478
10314W        W10514   9.431   1.745  10.772  0.3428  0.2093 -0.1828
10315W        W10515   3.694   0.687   2.597  0.0447 -0.2049  0.0009
10316W        W10516   6.497  13.292   7.694  0.1694 -0.2424 -0.2236
10317W        W10517   4.815   4.324  15.561  0.0313  0.0010 -0.0526
10318W        W10518   5.007  10.261   1.730 -0.0754 -0.1984  0.0321
10319W        W10519  16.802  17.413   1.228  0.2281 -0.0943  0.1655
10320W        W10520  15.350   4.431   4.888 -0.0180 -0.0919  0.0837
10321W        W10521  12.265  17.723   3.988  0.1508  0.0411  0.0984
10322W        W10522   8.155   5.739   3.980  0.1908 -0.2692 -0.1015
10323W        W10523   2.575   2.114  14.384  0.0778 -0.2699 -0.0530
10324W        W10524  17.335   9.640   0.898 -0.1433  0.0536 -0.0388
10325W        W10525   2.863   6.180   2.577 -0.3565  0.0577 -0.1415
10326W        W10526   0.955   6.623  11.602  0.2354 -0.0110 -0.3769
10327W        W10527   2.032   5.503   7.800  0.0042  0.0413 -0.0035
10328W        W10528  11.100  16.961  15.772 -0.1475 -0.1360 -0.2673
10329W        W10529   7.591   6.638   3.843 -0.0138  0.2245  0.1129
10330W        W10530   3.388   1.510   2.327  0.0985  0.0311  0.0749
10331W        W10531   2.537  17.911   1.837 -0.1978  0.1304  0.2132
10332W        W10532   2.771   7.663   5.592  0.1277 -0.0469  0.0905
10333W        W10533  10.451  17.260   2.500 -0.1494 -0.0308 -0.1499
10334W        W10534   7.457  17.992   1.884  0.0502  0.0910  0.0127
10335W        W10535   8.125   0.401   4.167  0.0251 -0.1081 -0.0442
10336W        W10536  18.185  10.700  12.606  0.1002  0.2068 -0.0041
10337W        W10537   9.238   4.750   0.437 -0.1854 -0.1913 -0.3273
10338W        W10538   3.468  13.461  14.255 -0.0897 -0.2468 -0.3995
10339W        W10539   6.307  12.202  10.649 -0.0469  0.1267 -0.1845
10340W        W10540   4.633   6.945  17.927  0.1649 -0.2552  0.0128
10341W        W10541  13.549   4.062  16.358  0.1774  0.0640 -0.0726
10342W        W10542  10.810   0.615   5.484  0.0308  0.0120  0.1910
10343W        W10543  10.326   5.469  12.460 -0.2250 -0.0944  0.0044
10344W        W10544   3.201   2.670   7.149 -0.0036 -0.0351 -0.0867
10345W        W10545  18.023  17.158   8.586 -0.2888 -0.0633 -0.2271
10346W        W10546   8.972  14.524   4.695 -0.0953  0.0279  0.4265
10347W        W10547   8.526   1.228  15.396 -0.1315  0.0951 -0.1016
10348W        W10548  11.277  18.096   4.187 -0.2708 -0.1326 -0.1762
10349W        W10549   8.935  13.764   1.053  0.1498  0.2370  0.0342
10350W        W10550   4.261   2.605   0.053  0.0271 -0.1421  0.0908
10351W        W10551   5.942   5.943  15.707 -0.0208 -0.2382  0.1445
10352W        W10552   9.206   2.497  13.538  0.1840 -0.0813  0.1101
10353W        W10553  12.792   4.197   5.827 -0.1281  0.1519 -0.1641
10354W        W10554   1.290   4.364   7.092 -0.0429 -0.0247 -0.1961
10355W        W10555   5.004   4.534   0.449 -0.1092  0.0380 -0.1478
10356W        W10556   3.984  17.450  17.743 -0.2745  0.1300 -0.1424
10357W        W10557   6.841   6.347  16.458  0.2175 -0.2747  0.2256
10358W        W10558   0.145  15.890   0.613  0.1868  0.0167 -0.1637
10359W        W10559   5.209   3.416  13.413  0.0410 -0.0432  0.0680
10360W        W10560  11.081   6.721  11.958  0.0770  0.0563 -0.0435
10361W        W10561   9.697   7.822   7.738  0.0091  0.0483 -0.0984
10362W        W10562  10.883   1.485  14.600  0.1013 -0.1098 -0.1287
10363W        W10563  17.861  17.583   9.790  0.0374  0.0643 -0.3286
10364W        W10564  11.968   4.414  16.574  0.0351  0.2921 -0.2259
10365W        W10565   2.795   4.428   8.537  0.3338 -0.2905 -0.1056
10366W        W10566   6.429   4.098   5.347  0.1970 -0.0991 -0.1132
10367W        W10567   2.212   1.863  17.950 -0.0497  0.1396  0.1654
10368W        W10568  14.518   7.794  16.663  0.1546  0.0443  0.3139
10369W        W10569   5.431   0.335  14.085 -0.2565  0.2718 -0.1118
10370W        W10570   8.511  14.285  16.116  0.0274  0.2754 -0.3213
10371W        W10571  15.396   2.264   5.921 -0.0100 -0.2038  0.2444
10372W        W10572  11.869   4.333   2.968  0.0391 -0.1253  0.2506
10373W        W10573  11.003  10.160   6.871 -0.1483 -0.1938 -0.1577
10374W        W10574  16.355  15.627   1.625 -0.1040 -0.3423  0.0079
10375W        W10575  17.000   6.318  17.355  0.3032 -0.0542  0.2659
10376W        W10576   7.997   3.654   3.885  0.2469  0.0058  0.0766
10377W        W10577   2.647   1.803  18.170  0.0967  0.4027 -0.1455
10378W        W10578   3.642   0.857   3.437 -0.1747 -0.4540 -0.1077
10379W        W10579   5.643  17.881   0.529  0.1212 -0.0096 -0.0099
10380W        W10580  16.322  11.984  16.492  0.0712  0.2691 -0.0975
10381W        W10581  12.648   3.306  13.268 -0.1422 -0.2414 -0.2464
10382W        W10582   1.350   2.601   0.722 -0.0080  0.2742 -0.1741
10383W        W10583  12.378   7.469   7.080 -0.4200  0.3182 -0.0063
10384W        W10584   8.643   3.818  16.985  0.1115  0.0557  0.1592
10385W        W10585  13.784   2.007   3.630  0.2270 -0.1554  0.0150
10386W        W10586  12.197  16.010  16.011 -0.1783 -0.1710 -0.2942
10387W        W10587  17.123   6.103   3.177  0.1236 -0.0468 -0.1669
10388W        W10588   7.790  15.848  15.590 -0.1343 -0.2728  0.0507
10389W        W10589   3.264  12.906   0.422  0.2022  0.1448 -0.0108
10390W        W10590  16.705   8.799   1.217  0.1252  0.0801 -0.1311
10391W        W10591   8.292   2.910   6.060 -0.1369 -0.0604  0.1295
10392W        W10592   4.723   5.236   1.678  0.1697 -0.2029  0.2527
10393W        W10593   7.398  13.693   1.046 -0.3975 -0.0494  0.0010
10394W        W10594   1.228  16.954  14.345 -0.0076 -0.1442  0.2811
10395W        W10595   8.944  14.578   1.496 -0.0435 -0.1281 -0.1812
10396W        W10596   5.804  14.344   6.436  0.3258 -0.1820 -0.0008
10397W        W10597   3.927  11.440   0.225 -0.0764  0.0498 -0.1667
10398W        W10598   9.079  17.750   7.489 -0.0531  0.0709  0.0343
10399W        W10599   5.195   7.303   8.151  0.1881 -0.1879 -0.1410
10400W        W10600   6.979  17.819   3.628  0.0005  0.1259 -0.0250
10401W        W10601   9.559   2.304  15.529  0.1859  0.2673 -0.0114
10402W        W10602   7.057   3.562  13.155  0.1806 -0.2218 -0.0207
10403W        W10603  17.146   5.079  10.858 -0.0390 -0.3759  0.1942
10404W        W10604   6.334   3.039   2.399 -0.3059 -0.2748  0.3395
10405W        W10605   9.704  14.255   2.855  0.0362  0.2829 -0.1066
10406W        W10606  10.901  17.568   3.144  0.1439 -0.0331  0.4551
10407W        W10607   4.823  15.817   0.929  0.0111 -0.1065  0.1402
10408W        W10608   2.731   0.091   4.004  0.2728  0.0488  0.1811
10409W        W10609   3.647  16.923  11.915 -0.0740  0.0115  0.0941
10410W        W10610   8.748   4.838   7.518 -0.0269  0.0481  0.0653
10411W        W10611   7.710   2.659   4.737 -0.1545 -0.2413 -0.0262
10412W        W10612   3.853  10.771  15.022  0.0576 -0.1785  0.2851
10413W        W10613   7.198   7.619  18.126 -0.0547  0.1158  0.0292
10414W        W10614  16.611  12.225  10.647 -0.0820 -0.1149  0.1582
10415W        W10615   8.105   2.988   5.430 -0.0002 -0.1626 -0.3876
10416W        W10616   7.322  17.705   1.499  0.2605 -0.2391 -0.0317
10417W        W10617   8.259   6.826   6.001 -0.0066 -0.0872  0.0722
10418W        W10618  14.570  14.244   1.059 -0.2643 -0.2446 -0.3982
10419W        W10619   0.247   6.621   1.274  0.4183 -0.1854 -0.0645
10420W        W10620   9.301  12.452   2.244  0.1294 -0.0617 -0.2364
10421W        W10621   9.894  14.839   6.378 -0.1391 -0.0409 -0.0425
10422W        W10622   4.117   1.845  17.635  0.0681 -0.1248 -0.0698
10423W        W10623  17.320   3.581   3.212 -0.0276  0.1768 -0.2506
10424W        W10624  16.577  15.860   0.861 -0.0309 -0.1916 -0.0343
10425W        W10625   0.613   6.572  16.778 -0.0107  0.0207  0.0489
10426W        W10626   2.256   1.048   4.442 -0.0641 -0.1049  0.0005
10427W        W10627   8.068   3.363  16.691 -0.0963 -0.0371  0.0143
10428W        W10628   0.502   0.259   4.521 -0.1330 -0.0529  0.3604
10429W        W10629   4.704   1.342   1.257  0.1214  0.2284  0.0392
10430W        W10630   6.604  12.196  16.319  0.3417 -0.1202  0.0329
10431W        W10631   4.773   9.884  14.426  0.1808  0.0717 -0.0320
10432W        W10632  15.769   6.711   4.991 -0.2374  0.0179 -0.0300
10433W        W10633  16.653   7.019   8.126 -0.1916  0.1187  0.0111
10434W        W10634  16.008   4.150   1.479 -0.1501  0.3348  0.2170
10435W        W10635  10.406  13.532   8.507 -0.1863 -0.1739 -0.0878
10436W        W10636  17.852  10.081  11.178 -0.1232 -0.0630 -0.0149
10437W        W10637   4.474  14.374   4.946  0.1768  0.3075  0.1675
10438W        W10638   9.582  17.877  15.481 -0.0634  0.1898 -0.2396
10439W        W10639   6.468   3.916   3.817 -0.0836  0.2760 -0.1709
10440W        W10640  13.878   3.368  15.036 -0.0163  0.0803 -0.4155
10441W        W10641   5.057   3.150   9.145  0.2413  0.0382 -0.2298
10442W        W10642  11.070  15.533   0.788 -0.0015 -0.0845  0.0297
10443W        W10643   6.906  12.785   2.600  0.1685  0.1712  0.0361
10444W        W10644   3.580   7.052   7.514  0.2580 -0.2596  0.2360
10445W        W10645   1.675  15.787  17.978 -0.0094  0.1969 -0.0382
10446W        W10646   8.922   0.423   6.962 -0.0138 -0.2682  0.1632
10447W        W10647  12.901   3.304   4.681  0.0364 -0.1301  0.3082
10448W        W10648   6.660  14.473  16.231 -0.3117  0.3063 -0.0696
10449W        W10649   8.215   0.154   3.519 -0.0446 -0.0432  0.3928
10450W        W10650   7.531   2.182  10.951 -0.0338 -0.0526  0.0397
10451W        W10651   2.772  13.322   8.910  0.0490 -0.1420  0.0926
10452W        W10652  13.323  17.721   7.781  0.1822  0.1795  0.2796
10453W        W10653   5.652   3.471  14.764 -0.0017 -0.2922  0.0855
10454W        W10654   6.634   1.146   8.692 -0.3138  0.0629 -0.2114
10455W        W10655  15.486   3.092   6.990  0.1423 -0.1469 -0.0563
10456W        W10656  17.848   3.359  10.424  0.0930 -0.3919 -0.2904
10457W        W10657  10.360   9.290   9.758 -0.4712 -0.2095 -0.1247
10458W        W10658   5.004   7.560  15.499 -0.0891  0.0137 -0.1097
10459W        W10659  10.246   6.260  10.855 -0.0065  0.1302 -0.0001
10460W        W10660   6.258   1.471   8.805 -0.2604  0.0413 -0.1822
10461W        W10661   6.535   2.250   2.013  0.2151 -0.2093  0.2345
10462W        W10662   6.545  17.268   4.685 -0.1308  0.0859  0.1340
10463W        W10663  12.852  11.300   8.338  0.0106 -0.0474 -0.0449
10464W        W10664   1.492   5.585   5.875 -0.0797 -0.2721 -0.1725
10465W        W10665   7.688  18.004   6.585 -0.0986 -0.0807 -0.1316
10466W        W10666   8.204   5.599   7.050 -0.1358 -0.0682 -0.1344
10467W        W10667   8.739   5.051   3.976  0.1335  0.1259 -0.0041
10468W        W10668   7.162   4.373  17.309  0.0348 -0.0501  0.1941
10469W        W10669   7.296   2.427   8.824  0.1403 -0.1421  0.2358
10470W        W10670   1.161   3.414   4.892 -0.0016 -0.1745 -0.0379
10471W        W10671  10.693   7.947   6.912 -0.1023  0.1916 -0.1258
10472W        W10672   7.851   0.518   3.318  0.1234  0.0968  0.0045
10473W        W10673   8.752  10.213   9.694  0.0269  0.0880  0.0936
10474W        W10674   8.405   1.978   3.848 -0.0031  0.1228 -0.0199
10475W        W10675   7.244   1.307   3.197 -0.0830  0.1065  0.0476
10476W        W10676  10.780   3.514   4.292 -0.0510 -0.1868 -0.2053
10477W        W10677   5.759  15.286   1.141 -0.0283 -0.1608  0.1193
10478W        W10678   3.287  14.608  17.306  0.1778  0.1337 -0.1142
10479W        W10679   3.653   4.754   4.758  0.2291 -0.0169  0.1069
10480W        W10680  12.868   1.190   0.151 -0.1275  0.1437 -0.2134
10481W        W10681  12.456   8.797   0.422 -0.0775  0.0602  0.1784
10482W        W10682  10.701  12.434   1.048  0.3459  0.1206 -0.0978
10483W        W10683  16.634   2.212   3.833  0.1522  0.0742  0.0147
10484W        W10684   3.644  12.523   7.598  0.0031  0.1793 -0.1581
10485W        W10685  12.188  17.571   6.585  0.0850  0.0334 -0.4214
10486W        W10686   0.935   5.256   6.543  0.2037 -0.2311  0.1392
10487W        W10687   5.144   2.295   5.932  0.3291  0.2053  0.4063
10488W        W10688   6.110   6.089   9.208 -0.0036  0.1555 -0.0952
10489W        W10689   7.344   6.402  10.193 -0.1483 -0.1032 -0.1315
10490W        W10690  16.824   5.118  12.493 -0.0883 -0.1202 -0.1741
10491W        W10691  14.849   0.602   3.881  0.1055  0.3842  0.1244
10492W        W10692  17.272   3.644   5.925  0.2074  0.0774  0.1520
10493W        W10693   1.302  12.022   0.145 -0.0943  0.2959 -0.1319
10494W        W10694   4.728   4.205   3.092 -0.2153  0.0315  0.0292
10495W        W10695   2.530   1.330  13.682 -0.0639 -0.1117  0.3023
10496W        W10696  13.855   1.737  10.008  0.1211 -0.6010 -0.1320
10497W        W10697   3.378   1.807   6.831 -0.1523 -0.0561  0.1321
10498W        W10698  12.097   1.529   5.511  0.1460 -0.1652  0.2659
10499W        W10699   3.961   4.051  11.417 -0.0025  0.3868  0.1900
10500W        W10700   6.425   9.560   9.991  0.3463 -0.0684 -0.2293
10501W        W10701   4.883  16.483   1.910 -0.0841  0.0496  0.1580
10502W        W10702  12.820   8.952  14.543  0.0880 -0.0870  0.1793
10503W        W10703  12.352  12.302   9.939 -0.0154 -0.0017 -0.0162
10504W        W10704   9.271  15.803   7.598 -0.1058 -0.0829  0.1540
10505W        W10705  13.148  15.048   1.902 -0.0445  0.0366 -0.0847
10506W        W10706  13.123   4.082   6.784  0.0683 -0.2675 -0.3681
10507W        W10707  15.651   0.696  10.256 -0.2703  0.0257 -0.1955
10508W        W10708   8.562   0.696  10.523  0.2859  0.0504 -0.0639
10509W        W10709   2.636   4.035   5.601  0.1598 -0.2144  0.3133
10510W        W10710   6.707  15.190   4.835  0.0941 -0.0891  0.1346
10511W        W10711   6.254   1.196   4.939 -0.1225 -0.0128 -0.2604
10512W        W10712   8.852  12.134  16.578 -0.1522 -0.0574 -0.0548
10513W        W10713   3.098   6.604  17.932 -0.2862 -0.1532  0.0277
10514W        W10714  14.947  12.980   6.793 -0.3003  0.2793 -0.3185
10515W        W10715   4.367   6.044  10.423  0.0196  0.0557  0.0543
10516W        W10716  18.176   1.254   6.506 -0.2232 -0.0688 -0.0082
10517W        W10717   7.216   1.888   7.214 -0.1951 -0.0024 -0.1760
10518W        W10718  11.118   7.103   6.799 -0.0304 -0.0050 -0.1575
10519W        W10719   0.923  15.908  10.007  0.2687 -0.1248  0.1505
10520W        W10720   9.792   5.248   2.368  0.0270 -0.1606 -0.4291
10521W        W10721   3.882  15.927   6.129  0.0012 -0.3158 -0.0738
10522W        W10722   4.725   9.434   7.524  0.0314 -0.3323  0.2000
10523W        W10723   4.987   3.358  15.228  0.2365  0.0512 -0.1513
10524W        W10724   2.909   7.485  11.399 -0.1618 -0.0149 -0.1046
10525W        W10725   0.155  17.064   2.318 -0.0516  0.3029  0.1629
10526W        W10726  11.486  15.623   7.241  0.0084  0.0168 -0.1739
10527W        W10727   2.468   5.126  13.956  0.1571  0.2511  0.0969
10528W        W10728   5.701   2.309  10.721 -0.0489  0.0084  0.2058
10529W        W10729   7.964  17.950   8.708 -0.2711  0.2529  0.1048
10530W        W10730   8.646   0.616   7.687  0.0811 -0.0882 -0.2429
10531W        W10731   3.399  10.336  17.329  0.0175  0.2427 -0.0634
10532W        W10732  14.094   2.269   3.984  0.1537 -0.0959  0.0472
10533W        W10733  11.252   6.108   7.207  0.1540 -0.3536  0.2653
10534W        W10734   8.688   2.766   6.399 -0.0822  0.1727  0.2447
10535W        W10735  17.972   0.385   1.724  0.0169 -0.0415 -0.1362
10536W        W10736   1.782   6.164   4.149 -0.0455  0.1862 -0.1153
10537W        W10737   9.167   0.687   4.606 -0.2509  0.2157 -0.2234
10538W        W10738   4.110  17.632   0.410 -0.1256 -0.1079 -0.1058
10539W        W10739  11.976   3.099   6.212 -0.1026  0.1705 -0.0069
10540W        W10740   2.091  11.743   6.620  0.0688  0.0532  0.0345
10541W        W10741  14.520   4.959   3.160 -0.0488 -0.3577 -0.0445
10542W        W10742   4.570   3.404   6.479 -0.2068  0.0764 -0.0791
10543W        W10743   8.560   6.556   4.148 -0.1256 -0.2258 -0.0792
10544W        W10744  15.856   6.481   2.675 -0.1492  0.1702  0.0944
10545W        W10745  10.567   4.687   8.164 -0.3153  0.3149 -0.0111
10546W        W10746  12.859   7.404  18.036 -0.2078  0.1926  0.2764
10547W        W10747  12.021   3.565  14.979  0.0676  0.3387  0.0391
10548W        W10748   7.761  17.019   2.387  0.1283  0.1201 -0.1271
10549W        W10749  13.895   3.025   4.763  0.3608  0.2287 -0.1828
10550W        W10750  13.570  16.618   0.627  0.1194 -0.4237  0.0494
10551W        W10751   7.491   4.727   1.625 -0.0882 -0.2383 -0.0317
10552W        W10752   3.963   4.237   9.304 -0.1318 -0.2529  0.0760
10553W        W10753   0.840   1.403   5.865 -0.0583  0.4213  0.3728
10554W        W10754   0.689   2.774   2.396  0.1702  0.0299  0.0491
10555W        W10755  10.568   3.264   6.592  0.0862 -0.0259 -0.2302
10556W        W10756   4.035  16.402  17.997  0.0127  0.0726  0.2149
10557W        W10757  14.139  13.032  16.852  0.1562  0.2073 -0.0009
10558W        W10758   6.760  11.833   4.948  0.2090  0.0298 -0.0727
10559W        W10759  12.272   3.050   7.857 -0.2532 -0.3644  0.0332
10560W        W10760   8.832   0.388   5.928 -0.1401 -0.3439  0.2057
10561W        W10761  15.852   3.619  17.199  0.1343 -0.0578 -0.0604
10562W        W10762  13.406  14.384   0.735 -0.0176 -0.0398  0.1331
10563W        W10763   1.936   1.386  12.227  0.0276  0.1051  0.0529
10564W        W10764   9.382   0.236   2.323 -0.3531 -0.0759 -0.1133
10565W        W10765   7.907  13.260   4.751 -0.1092 -0.2156 -0.1833
10566W        W10766  17.095  14.129   7.041 -0.0057 -0.1841 -0.0899
10567W        W10767   5.222   5.494   5.321 -0.3345 -0.0011 -0.0184
10568W        W10768   8.709   6.546   7.901 -0.1229 -0.3295 -0.3635
10569W        W10769   5.255   7.587   5.903  0.0561  0.4605  0.0524
10570W        W10770   0.088   5.592  16.841  0.1558  0.0189 -0.3725
10571W        W10771  10.778  14.868  13.634  0.0336  0.1618  0.0911
10572W        W10772  12.183   1.440   0.723  0.0432  0.2755  0.0250
10573W        W10773   3.273  14.812   2.659 -0.1825  0.0458  0.0210
10574W        W10774   8.642   0.129  10.284 -0.0285  0.2996  0.0112
10575W        W10775   4.192   0.122   2.228  0.0817  0.1157  0.1319
10576W        W10776   6.660   3.776   9.657  0.1212  0.1702  0.4157
10577W        W10777  18.201  11.549   4.439 -0.3114  0.0912  0.3257
10578W        W10778  17.467  11.008   1.532  0.1551 -0.0134  0.2865
10579W        W10779   5.484  16.100   6.088 -0.0251 -0.1336 -0.2931
10580W        W10780   3.444   2.884   5.033  0.2175 -0.0979 -0.0049
10581W        W10781  16.703  15.623   3.730  0.0338  0.3244 -0.0837
10582W        W10782   7.481   5.431   9.835 -0.2298  0.1772 -0.0147
10583W        W10783  11.764   4.911   3.245  0.1032  0.0013  0.1265
10584W        W10784   7.423   5.431   4.541  0.0255 -0.0852 -0.2276
10585W        W10785   5.901   5.356  14.383  0.1476 -0.3243 -0.2778
10586W        W10786   4.610   0.462  13.345  0.2277 -0.0336  0.1374
10587W        W10787  11.723  14.961  15.317 -0.0294 -0.0193  0.1582
10588W        W10788   9.013  11.092   9.665 -0.1894  0.1327 -0.2440
10589W        W10789  13.358  14.545  16.489 -0.1828 -0.1918  0.1841
10590W        W10790   4.651  14.988   8.601  0.0609  0.2094  0.0403
10591W        W10791   4.474   1.366  15.244 -0.1260 -0.2625 -0.0470
10592W        W10792   6.387   8.150   9.805 -0.1375  0.0248  0.2084
10593W        W10793   1.158  13.914   8.731 -0.1489  0.0912 -0.3643
10594W        W10794   3.174   8.846   6.898  0.1477  0.0907  0.0134
10595W        W10795   7.555  12.911  12.945 -0.3004  0.0178  0.2247
10596W        W10796   3.992   8.113   8.013  0.1954  0.1573  0.1182
10597W        W10797   2.645   1.827  12.855  0.1603  0.0918  0.0663
10598W        W10798   5.441   2.387   8.331  0.0103  0.0895  0.0878
10599W        W10799   2.647   1.282  10.369 -0.2250 -0.0075  0.1095
10600W        W10800   9.731   3.953   7.549  0.1087 -0.1264  0.2168
10601W        W10801   3.350   2.725   3.185  0.1498 -0.3723  0.0537
10602W        W10802   0.784   1.607   4.470  0.0292  0.2430  0.0007
10603W        W10803   5.546   9.901  16.734  0.2028  0.3954 -0.0693
10604W        W10804  12.982   6.979   2.200  0.2734 -0.0032 -0.2961
10605W        W10805   7.484   5.121  12.599  0.1631  0.0736  0.0394
10606W        W10806   1.139   1.365   7.463  0.1804 -0.0788  0.0731
10607W        W10807   9.169   7.611   5.429 -0.1521 -0.0002 -0.2244
10608W        W10808   7.624  14.153   2.885  0.0599  0.0660 -0.2146
10609W        W10809   0.622   8.225   3.264  0.2680  0.1054 -0.0662
10610W        W10810   7.504   4.228   1.353 -0.3510  0.2057  0.2552
10611W        W10811   4.775   0.367   7.984 -0.0609  0.1704  0.1510
10612W        W10812  11.469   1.743   9.404  0.1438  0.1585 -0.3426
10613W        W10813  10.899   0.818   5.049  0.0184  0.2267  0.0759
10614W        W10814   0.729  17.750   2.089  0.1983  0.2029 -0.0313
10615W        W10815   8.371   3.375   2.249 -0.0334  0.3620 -0.1513
10616W        W10816   8.424  11.845  12.312  0.0192  0.1502  0.1554
10617W        W10817   0.969  14.858   1.873 -0.1650 -0.1166  0.2316
10618W        W10818  12.626   0.378   5.102  0.1500 -0.3894 -0.0607
10619W        W10819  10.562  12.683  17.553 -0.1529  0.0670  0.1165
10620W        W10820   0.368  11.814   2.337 -0.2156  0.1624 -0.0752
10621W        W10821  12.534   1.066   7.400 -0.0292  0.2188  0.2070
10622W        W10822  12.806   6.086   8.721  0.2650 -0.1656  0.1290
10623W        W10823  16.089  17.696   4.652 -0.0556  0.2283  0.2544
10624W        W10824   4.164   4.325  13.142  0.0587 -0.1048 -0.3364
10625W        W10825   3.441   2.354   8.640  0.3656  0.0714  0.1437
10626W        W10826   6.968   3.665   3.984 -0.2703  0.0545 -0.0178
10627W        W10827   3.053   9.636   1.061 -0.3048 -0.2441 -0.1250
10628W        W10828  10.866   2.049   7.128  0.0061  0.3721  0.1020
10629W        W10829   4.304   1.759  12.046 -0.1591 -0.1910  0.1649
10630W        W10830  15.812  16.768   5.114 -0.1437 -0.3432  0.0198
10631W        W10831  17.656   9.072   8.531  0.0794  0.0154  0.0799
10632W        W10832   8.311   0.748  17.996 -0.1689  0.1899 -0.0485
10633W        W10833   3.273   7.392   3.932 -0.3387 -0.1940 -0.0451
10634W        W10834   5.449   7.187   3.187 -0.2769  0.0948 -0.4434
10635W        W10835   7.575   6.920  16.493  0.0057  0.1163  0.1017
10636W        W10836   1.181   0.169   7.624  0.0487  0.0819 -0.1731
10637W        W10837   4.301   2.599   3.511  0.0598  0.2223  0.1507
10638W        W10838  17.907   2.724   7.405 -0.0072  0.2246 -0.0777
10639W        W10839   8.805   5.109  10.025 -0.2211  0.1727  0.1945
10640W        W10840   2.568   0.219   6.756 -0.1641  0.0142  0.0206
10641W        W10841   2.179  17.836  10.102 -0.3019  0.1149 -0.1445
10642W        W10842   3.217   2.848  15.796  0.0839 -0.0021 -0.3282
10643W        W10843  15.384  10.251   6.178 -0.1043 -0.2124 -0.0382
10644W        W10844  14.833   0.210   4.226 -0.1242 -0.1809  0.1780
10645W        W10845  14.754   0.255   2.443 -0.1180 -0.1654  0.0109
10646W        W10846   3.034   0.315   2.626 -0.2988 -0.2594  0.1495
10647W        W10847   8.704   2.241  15.524 -0.0788 -0.1134 -0.0539
10648W        W10848   2.977  12.669   9.581  0.0851 -0.3003 -0.3401
10649W        W10849  16.415   0.803   8.563 -0.0109  0.0120 -0.0773
10650W        W10850   8.342   5.104   8.829 -0.1756  0.1986  0.0127
10651W        W10851  12.596  15.461   6.644  0.1963  0.3781  0.2519
10652W        W10852   6.975   1.553   1.483  0.2570  0.0374 -0.2279
10653W        W10853   3.817   1.876   7.028  0.0603  0.1693 -0.2886
10654W        W10854   7.986   3.788  10.941  0.1079 -0.2092  0.1133
10655W        W10855  15.425   5.043  12.553  0.0849 -0.1231  0.1603
10656W        W10856   1.023  15.370  12.191 -0.2243 -0.0107  0.1781
10657W        W10857   6.204   5.112   8.243  0.1548 -0.1855 -0.1904
10658W        W10858   6.727   1.765   8.946  0.1259 -0.1287  0.1077
10659W        W10859  17.270   2.657   8.854  0.1830 -0.2617  0.0309
10660W        W10860   5.253   5.340   6.385 -0.0950  0.2661  0.3712
10661W        W10861   9.079   3.819   5.094 -0.1026 -0.1430 -0.0898
10662W        W10862  13.323  13.912   0.957 -0.2770  0.0754 -0.2452
10663W        W10863   1.886  15.929   1.716  0.0745 -0.0946 -0.4533
10664W        W10864   5.028   9.139   1.718 -0.1885  0.0186 -0.0049
10665W        W10865   5.648   8.087   2.781 -0.0283  0.1265  0.0362
10666W        W10866   8.442  17.807   6.196 -0.2729 -0.0007  0.1263
10667W        W10867  13.337   4.277   1.906 -0.3386 -0.2339 -0.0873
10668W        W10868   5.074   8.216   6.514  0.1104 -0.1483  0.3302
10669W        W10869   4.632  17.388   6.602 -0.1901  0.1969  0.0145
10670W        W10870  10.287  16.952   7.189  0.2254 -0.3165  0.1079
10671W        W10871   3.103  13.103   7.185 -0.0276 -0.1567  0.0401
10672W        W10872  17.901   2.557   3.968 -0.2540  0.0347  0.2233
10673W        W10873  15.530  18.198   5.649 -0.0189 -0.0496  0.1858
10674W        W10874   6.924   0.876  10.748  0.0750  0.2030 -0.2584
10675W        W10875   8.966  15.024   6.006  0.2810 -0.1970 -0.0946
10676W        W10876   4.926  13.748  16.665 -0.0028  0.2092  0.2765
10677W        W10877   5.743   0.313  10.288  0.0641  0.2671  0.1443
10678W        W10878   7.130  15.235   1.117  0.2854 -0.0198 -0.1391
10679W        W10879   5.500   3.430  12.280 -0.0445  0.0418  0.0021
10680W        W10880   7.255   6.328   1.930 -0.0481  0.0743  0.1029
10681W        W10881   9.690  16.258   3.819 -0.2065  0.0628  0.0202
10682W        W10882   5.775   4.374   4.225  0.2550 -0.2351  0.4692
10683W        W10883   7.952  11.873   6.574  0.0369  0.4742 -0.0929
10684W        W10884   1.939  10.956  13.563  0.0947 -0.2947 -0.3516
10685W        W10885   0.310   3.762  10.803  0.2248 -0.0765 -0.0900
10686W        W10886  18.095  15.238   6.572 -0.2502  0.1170  0.0875
10687W        W10887  15.765  17.321   4.828  0.2480 -0.1902  0.1698
10688W        W10888   2.184   3.736   5.291  0.1723  0.3664 -0.0826
10689W        W10889   6.081  10.742   4.491 -0.2584  0.3562  0.1208
10690W        W10890   8.803  14.161   1.769  0.1871  0.0819 -0.3204
10691W        W10891   6.980   8.549   5.392 -0.0800  0.2361 -0.0590
10692W        W10892   2.503  18.007   9.785  0.0900  0.0117 -0.1319
10693W        W10893  15.608  15.836   3.788 -0.0758 -0.4011  0.2882
10694W        W10894   1.381   4.028   9.350 -0.1336  0.1418 -0.3327
10695W        W10895  17.219   4.309  13.976 -0.1766 -0.1026 -0.3378
10696W        W10896  14.801   1.650   7.423 -0.2443  0.1126 -0.2381
10697W        W10897  17.668   3.864  15.910  0.2720  0.0557 -0.0248
10698W        W10898  17.414   8.123   4.696 -0.0302  0.1808  0.0065
10699W        W10899  17.098   3.496   9.481 -0.1093  0.0239  0.0567
10700W        W10900   9.780   0.709   3.571 -0.1222  0.1318 -0.2908
10701W        W10901  11.117   2.959   7.904  0.2295 -0.0936  0.0726
10702W        W10902   2.956   0.652   1.827  0.0013 -0.1400 -0.0047
10703W        W10903  14.533   9.744   7.170  0.1978  0.1666  0.1361
10704W        W10904   8.855   0.821   7.306  0.0536  0.4136 -0.2032
10705W        W10905  16.195  17.344  10.140  0.0671 -0.2863 -0.0762
10706W        W10906  13.907   1.226   6.857  0.3081  0.0546 -0.2866
10707W        W10907   4.319   4.313   6.455  0.0052 -0.0738  0.2521
10708W        W10908   9.223  12.199   6.412  0.2406 -0.3194  0.4915
10709W        W10909   2.584  13.559   1.512  0.2889  0.0723  0.2408
10710W        W10910   0.104   0.382   5.749 -0.0682  0.2348 -0.3112
10711W        W10911   7.929  17.782   7.011 -0.2280 -0.0614 -0.3683
10712W        W10912   6.353   5.574  14.440 -0.0519  0.0905  0.0951
10713W        W10913   5.595   2.027   6.218 -0.1900 -0.0703  0.1710
10714W        W10914  18.168   1.946   3.724  0.2610 -0.2669  0.0326
10715W        W10915   1.365   7.485   7.222  0.0739 -0.2539 -0.1979
10716W        W10916   1.423   1.073   9.942  0.0776  0.0743 -0.1641
10717W        W10917   9.338   7.714   0.844 -0.1500 -0.0327 -0.1423
10718W        W10918   8.348  12.585   2.352 -0.0651  0.2705 -0.2458
10719W        W10919   7.120  14.225  16.384 -0.1577  0.0462  0.4259
10720W        W10920  13.091  18.080   6.921 -0.0315  0.0576 -0.2138
10721W        W10921   6.339  15.301   5.556  0.2121  0.2970  0.2101
10722W        W10922   7.501   7.765   5.182  0.1781 -0.1337  0.2244
10723W        W10923   5.619  14.279   9.136  0.1910  0.0938 -0.0007
10724W        W10924   8.518  14.885   0.495  0.1438 -0.0054  0.1321
10725W        W10925   3.505   0.484   7.342 -0.0060 -0.2388 -0.1047
10726W        W10926   8.092   8.361   4.124 -0.3543 -0.0701 -0.0384
10727W        W10927  12.836  14.431   1.588  0.0112  0.0913 -0.5644
10728W        W10928   3.689   4.911  10.578  0.0491 -0.1953 -0.0694
10729W        W10929   5.746   3.182  10.603 -0.3829 -0.0112  0.2187
10730W        W10930   4.889  16.820   2.289 -0.0600 -0.0898  0.0770
10731W        W10931  10.270   2.882   6.835 -0.0285  0.2507 -0.0044
10732W        W10932   5.878   5.321  11.526 -0.1349  0.1563 -0.1953
10733W        W10933   8.454  12.293   4.883 -0.1698 -0.0997  0.0334
10734W        W10934   7.894   9.250   2.903 -0.3203 -0.3842  0.0410
10735W        W10935   9.002  17.732  14.574 -0.2960  0.4683 -0.0666
10736W        W10936  16.229   1.508   5.413 -0.1744 -0.3279 -0.3356
10737W        W10937  15.843  17.826   5.166 -0.2136 -0.0039 -0.1665
10738W        W10938   3.670   4.896  12.633  0.0660  0.0551 -0.1456
10739W        W10939  13.394  18.199   2.832  0.0342 -0.2735  0.1479
10740W        W10940  18.071  14.602   4.440 -0.1394  0.0600  0.0780
10741W        W10941  15.352   2.591   9.196  0.1781 -0.1449 -0.1048
10742W        W10942   2.417  15.526   0.495  0.0969  0.0970  0.1870
10743W        W10943   2.912   1.408  15.114  0.3312 -0.2738 -0.3427
10744W        W10944   3.506   2.491  13.107  0.0700  0.0176  0.0414
10745W        W10945   9.154   0.868   1.636  0.0886  0.0516  0.3284
10746W        W10946   7.178   5.695   9.494 -0.0026 -0.0129  0.2784
10747W        W10947   3.045   1.682   0.441 -0.0540  0.1967  0.0432
10748W        W10948  13.754   3.048   7.653 -0.1097  0.2606 -0.1856
10749W        W10949  15.149   7.135  15.082  0.2604  0.0299 -0.0583
10750W        W10950  11.235   2.667  15.522  0.0260 -0.1541 -0.1173
10751W        W10951   0.554   3.689   9.866  0.3283 -0.1251 -0.1349
10752W        W10952  10.063  15.348   5.150 -0.0341  0.0597 -0.0523
10753W        W10953   6.267   2.496   2.505  0.0041  0.2010  0.0164
10754W        W10954   6.727   7.505  12.041 -0.1949 -0.0359 -0.2957
10755W        W10955  16.935   1.150  13.020  0.3113 -0.1952  0.0791
10756W        W10956   5.281  11.359   5.354 -0.0123 -0.1308 -0.2941
10757W        W10957   4.758   7.301   9.866 -0.1138  0.2478  0.3693
10758W        W10958   7.426   3.849   6.975 -0.0104 -0.1129 -0.0192
10759W        W10959   8.567  13.922   7.000  0.0192 -0.2284 -0.2423
10760W        W10960   3.800  10.430   4.097  0.0635  0.3653 -0.2583
10761W        W10961   4.534   2.828  13.984 -0.1731  0.1545  0.1664
10762W        W10962   8.148   4.630  12.173  0.3128  0.0004 -0.0824
10763W        W10963  16.733  16.028   6.593 -0.2568  0.0465 -0.2538
10764W        W10964  11.175   0.127  11.173 -0.2347  0.0441  0.1126
10765W        W10965   2.439   2.710   6.200  0.2103  0.1437 -0.0298
10766W        W10966   6.371   6.242  17.790 -0.0704 -0.0038  0.0479
10767W        W10967  10.197  17.921  13.457 -0.3906  0.3166  0.2588
10768W        W10968   3.044  14.620   8.870 -0.2974  0.1425 -0.2824
10769W        W10969   9.630   3.597   4.230 -0.0534 -0.0874  0.0204
10770W        W10970  10.242  17.384   4.359 -0.1686 -0.1698 -0.1459
10771W        W10971   2.613   4.929  11.689  0.0847  0.0619 -0.1183
10772W        W10972   2.839   7.929  18.021 -0.1094  0.0007  0.3705
10773W        W10973  14.155   5.767   5.134 -0.0396  0.2212 -0.2158
10774W        W10974   0.295   1.898  10.099 -0.1999  0.0894  0.1082
10775W        W10975   7.612  14.223  10.311  0.2833 -0.0980 -0.2240
10776W        W10976  15.264   0.858   5.446  0.1850  0.1006  0.1606
10777W        W10977   1.261   7.176   6.797  0.1961 -0.6587 -0.1093
10778W        W10978   4.079  11.689   1.357 -0.1195  0.2633  0.1839
10779W        W10979   9.517   1.711  11.797 -0.2393  0.0255 -0.0271
10780W        W10980  10.682  18.033   3.197  0.0069  0.1302  0.1502
10781W        W10981   2.670   9.853   3.440  0.1228  0.0206 -0.0479
10782W        W10982   5.875   7.628   6.497 -0.1458  0.2287  0.2319
10783W        W10983   3.820   1.063   5.097 -0.3141 -0.1562 -0.2111
10784W        W10984   3.511   3.365   5.959  0.2220  0.0711  0.2960
10785W        W10985   8.529  14.720   4.579  0.3757  0.1000  0.1957
10786W        W10986  10.017   2.116   8.494  0.1946 -0.0975  0.1366
10787W        W10987   4.200   0.482   7.735  0.0766  0.0487  0.0629
10788W        W10988   6.011  16.508   7.963  0.2061 -0.0624  0.1666
10789W        W10989  10.865   0.753   2.746 -0.2324  0.1725 -0.3064
10790W        W10990   3.672  16.269   4.547 -0.1837  0.0744  0.1802
10791W        W10991   3.965   4.973   8.978  0.0117  0.0881 -0.0949
10792W        W10992   9.073  17.277  17.855  0.0584 -0.2441 -0.2579
10793W        W10993   4.829  14.179   5.867 -0.3034  0.0664  0.0983
10794W        W10994   6.860   8.010   7.809 -0.2108 -0.3780 -0.1748
10795W        W10995   2.564   3.550  13.970 -0.1357  0.0358  0.0423
10796W        W10996   3.026   4.660   3.207 -0.0971 -0.0865 -0.0949
10797W        W10997   8.737   4.558   4.727 -0.3108 -0.0124  0.0018
10798W        W10998   8.612   0.377   3.961  0.0425  0.1417  0.3747
10799W        W10999  15.376  17.106   7.948  0.1716  0.5241 -0.3565
10800W        W11000  13.613   4.165  12.920  0.0147  0.2380 -0.1483
10801W        W11001   7.388  18.028   8.645  0.0097 -0.1023  0.0940
10802W        W11002   2.495  13.011   2.115 -0.0714 -0.2579 -0.0176
10803W        W11003  10.308   9.688  12.294  0.1273 -0.1819 -0.0001
10804W        W11004   6.987   0.313  11.838 -0.0193  0.0835 -0.0791
10805W        W11005   2.431   0.966   7.649 -0.1389  0.0074  0.0195
10806W        W11006  17.127   5.420  13.969  0.2328 -0.0677 -0.0890
10807W        W11007  15.017   2.555  15.098 -0.0450 -0.2331  0.2621
10808W        W11008   2.016   5.554   5.824 -0.0589  0.1231 -0.0930
10809W        W11009   4.085  16.565   4.519  0.0742  0.3331 -0.0323
10810W        W11010   2.352  16.534   6.422 -0.0707 -0.0602 -0.2132
10811W        W11011   4.618   4.665   1.043  0.2038  0.0330 -0.1595
10812W        W11012   6.562   3.304  14.773 -0.1050 -0.1704  0.3276
10813W        W11013   7.489  17.461   5.306 -0.0902 -0.0843  0.1100
10814W        W11014   6.537   6.193  11.385  0.0527  0.2540 -0.0440
10815W        W11015  14.169  16.508   6.497 -0.3304  0.2556  0.1435
10816W        W11016  10.514   1.767   6.886  0.0315  0.1415  0.0413
10817W        W11017   4.600  16.649   3.572  0.1638 -0.2353 -0.1228
10818W        W11018   4.201   0.561  15.565 -0.0972 -0.1700 -0.0829
10819W        W11019  15.991  14.651  17.995 -0.0187  0.1464  0.1318
10820W        W11020  10.351  14.409   6.745 -0.0041 -0.2332  0.1056
10821W        W11021  11.285  13.493   8.995  0.2603  0.2873 -0.2005
10822W        W11022   1.950   6.629  11.663 -0.3554  0.1062 -0.2168
10823W        W11023  12.104   1.914   0.610 -0.2910  0.0685 -0.2732
10824W        W11024   7.823  17.218   0.502  0.0916  0.1136  0.1830
10825W        W11025   2.407   7.606   9.209  0.0403 -0.1933  0.0814
10826W        W11026   0.559   3.202   5.931  0.0150  0.1470 -0.1833
10827W        W11027   9.896  13.301   1.509  0.1196 -0.3255 -0.1863
10828W        W11028  15.059   2.128   9.200  0.0143  0.0690  0.0138
10829W        W11029   6.629  16.279   8.539 -0.0306 -0.1180 -0.2990
10830W        W11030   7.801  10.526   9.853 -0.1195  0.0761 -0.0825
10831W        W11031   8.580   2.826  16.311  0.3276  0.3195 -0.0038
10832W        W11032   8.375  11.308   2.941  0.1731  0.2390 -0.0270
10833W        W11033  12.649   8.174  10.837  0.0437  0.4215 -0.1442
10834W        W11034   4.981  17.048  15.603  0.2001  0.1396 -0.0956
10835W        W11035   3.479   8.644   5.783 -0.1169  0.1682 -0.1662
10836W        W11036  11.804   4.892  10.491  0.0323  0.1274 -0.3497
10837W        W11037  13.803  13.301  10.934 -0.1725  0.0792 -0.2523
10838W        W11038  18.010   3.998  12.934 -0.2703 -0.1184 -0.0297
10839W        W11039   7.735   4.087   2.685 -0.3069 -0.0906 -0.2025
10840W        W11040   2.529  13.437   7.197 -0.1593  0.1019  0.1107
10841W        W11041   3.088  10.604  17.056 -0.2138  0.0775  0.3672
10842W        W11042   7.931   2.904  12.833 -0.0837 -0.1173 -0.1033
10843W        W11043   3.105   4.932  16.245 -0.0623  0.3733 -0.1395
10844W        W11044  12.220   6.101   2.114 -0.0323 -0.3733 -0.2365
10845W        W11045  17.148   1.402  10.511  0.2742  0.0267 -0.2544
10846W        W11046   2.812   4.046  10.391 -0.0834  0.0182  0.2726
10847W        W11047   4.777   6.024  10.011 -0.2560 -0.0935  0.1521
10848W        W11048   6.032   4.874   5.956  0.0345 -0.1615 -0.1820
10849W        W11049   4.225   0.162  11.295  0.2662  0.3513 -0.2952
10850W        W11050  16.425   9.724   9.146 -0.2710  0.1998  0.1383
10851W        W11051   9.844   5.806   7.210 -0.0539  0.1408  0.0795
10852W        W11052   8.028   4.760  17.154  0.0591 -0.0125 -0.1982
10853W        W11053  11.873  14.069   5.709 -0.0925 -0.1024  0.2052
10854W        W11054  13.170  15.803   2.912 -0.0887  0.0804  0.2088
10855W        W11055  11.681  17.643  13.570  0.2053  0.1299 -0.0254
10856W        W11056   0.753   2.734  15.577  0.3245  0.0240 -0.0354
10857W        W11057  12.574   0.465   9.069 -0.2110 -0.1234 -0.0940
10858W        W11058  15.333   7.262   5.535 -0.1418 -0.0009 -0.2856
10859W        W11059  11.890   9.789   7.041  0.1268  0.3154 -0.0369
10860W        W11060   5.148   0.629   7.273  0.0550  0.1022 -0.0342
10861W        W11061   0.222   2.444  11.113  0.0995  0.0523 -0.0834
10862W        W11062   1.738   1.480   2.053  0.1262  0.0223 -0.0403
10863W        W11063  14.474   5.609   6.914  0.0546 -0.0141  0.4099
10864W        W11064  11.805  16.969  11.427  0.1270 -0.0992 -0.1172
10865W        W11065   8.820  15.566   1.211 -0.0378 -0.0473  0.2107
10866W        W11066  16.520   2.324  12.059 -0.3132  0.0937  0.2331
10867W        W11067   6.350   7.027  15.743 -0.2708 -0.4574 -0.0888
10868W        W11068  13.415  13.040  17.503 -0.0668  0.0276 -0.1364
10869W        W11069  16.331   1.102   9.445 -0.0951  0.3043  0.1487
10870W        W11070  11.646   1.619  11.243 -0.2271 -0.0237  0.0004
10871W        W11071  11.962   7.536   1.047 -0.3643  0.0334 -0.1222
10872W        W11072  15.077  13.998   3.445  0.1041  0.1321 -0.1091
10873W        W11073   2.274   2.665  18.064  0.2335  0.1032 -0.1333
10874W        W11074  13.063  14.098  12.179 -0.2297 -0.2530  0.0799
10875W        W11075  13.119   2.638  10.469  0.2028 -0.0251  0.2207
10876W        W11076  11.467   4.476   3.355  0.1082 -0.0284 -0.1818
10877W        W11077   7.624  17.978   9.110 -0.3050  0.2415  0.2055
10878W        W11078   1.526  14.115   2.551 -0.0851 -0.1803 -0.2381
10879W        W11079   7.098  10.191  10.731 -0.1689  0.0191  0.0819
10880W        W11080  10.120   1.919  15.233 -0.0350  0.1281 -0.0051
10881W        W11081   1.266  12.997   5.592 -0.2762  0.0353  0.2286
10882W        W11082   1.404   6.230  14.693 -0.0181  0.0881  0.1776
10883W        W11083   3.718   1.008  16.368 -0.0004 -0.1419  0.1147
10884W        W11084   1.174   1.839   8.198  0.0254  0.3242  0.0127
10885W        W11085   5.323   6.138  11.798 -0.3010 -0.0685 -0.1953
10886W        W11086  10.257   4.306   8.139 -0.2317 -0.1602  0.0918
10887W        W11087  12.417   0.572  16.660 -0.1241 -0.1531  0.0560
10888W        W11088  16.286   4.928  18.140  0.1847 -0.1662 -0.0661
10889W        W11089   6.677  17.459   5.569 -0.0555  0.0321  0.2377
10890W        W11090   3.000  16.309   4.486 -0.2277  0.1948  0.0581
10891W        W11091   0.867   2.729  10.449 -0.0093  0.1060  0.5045
10892W        W11092   9.269  17.630   6.610  0.0770 -0.3070  0.1129
10893W        W11093   9.926  13.658   0.536 -0.1162  0.0012  0.1277
10894W        W11094   7.871  17.051   4.493 -0.0234 -0.3302  0.2557
10895W        W11095   7.629  16.159   9.625  0.6583  0.1221  0.1646
10896W        W11096  11.159   6.095  14.580 -0.4002 -0.2208  0.0514
10897W        W11097  12.589   7.610  13.097 -0.1063  0.0530  0.0046
10898W        W11098   4.756  15.954  10.974 -0.0023  0.0438 -0.1402
10899W        W11099  11.598   8.328   6.047 -0.2458 -0.2027  0.0184
10900W        W11100   7.718   4.908  12.140  0.0655  0.1314 -0.3599
10901W        W11101   6.483  17.466   2.832  0.0485  0.4339  0.1943
10902W        W11102   2.777   8.419   0.448 -0.0263 -0.0396  0.1467
10903W        W11103   8.962   3.095   4.899 -0.0011 -0.0082 -0.1221
10904W        W11104   8.986  16.852  13.333  0.1077 -0.1091 -0.1013
10905W        W11105   5.906  10.510   5.158  0.1170  0.3660  0.1397
10906W        W11106   8.765   6.518   0.773  0.0627  0.3569 -0.2184
10907W        W11107   2.361  14.767   5.634 -0.0083  0.3648 -0.1307
10908W        W11108   2.633   8.093  10.594  0.1774 -0.2448 -0.0493
10909W        W11109   6.213  16.836   3.854 -0.1381  0.0488 -0.0643
10910W        W11110   5.145   0.373   1.747 -0.1868 -0.0092 -0.1582
10911W        W11111   1.198  14.005   7.141 -0.3183 -0.0176  0.0994
10912W        W11112  12.492  16.894   4.921  0.0470  0.1281  0.2642
10913W        W11113   6.401   3.478  18.145 -0.1094 -0.3097 -0.0487
10914W        W11114   8.436  16.538   9.986 -0.1737 -0.1128  0.1614
10915W        W11115   2.101  15.745  11.002  0.2295 -0.2702  0.0321
10916W        W11116   8.036   0.930   0.809 -0.0577 -0.1276  0.1916
10917W        W11117   6.950  14.699  11.003  0.1533 -0.2849  0.0837
10918W        W11118  12.068   0.408  15.166 -0.2025  0.5006  0.0187
10919W        W11119   3.472   0.064  17.608  0.3885 -0.0428 -0.2250
10920W        W11120   4.888  12.331  11.107 -0.0788  0.0584 -0.0647
10921W        W11121   4.017  11.203   6.566 -0.1589  0.1216 -0.0881
10922W        W11122   4.826   1.499   4.267 -0.0103 -0.1274  0.2728
10923W        W11123   7.804   7.793   9.596 -0.1922 -0.0482 -0.1227
10924W        W11124   5.588   4.542   6.776  0.1489  0.1731  0.1364
10925W        W11125  10.211   0.277  11.154 -0.2401 -0.3355 -0.0906
10926W        W11126  10.699   2.746   3.703  0.2115  0.0885  0.2131
10927W        W11127   5.846   1.802   5.379  0.1611  0.0357 -0.0631
10928W        W11128  13.877   3.028  14.605  0.2161  0.2284  0.3102
10929W        W11129  13.806   6.757   5.235 -0.2981 -0.0793  0.4059
10930W        W11130  10.637   3.616   9.300 -0.0561  0.1204  0.1837
10931W        W11131   8.829   7.387  14.371 -0.0155 -0.1118  0.2307
10932W        W11132   6.262  14.169  11.819  0.2763 -0.0401 -0.0757
10933W        W11133   7.840   1.186   8.393  0.3055  0.1021  0.0166
10934W        W11134   4.787   2.234  10.351 -0.1340  0.0553  0.2085
10935W        W11135  16.764   6.133   8.588 -0.3255 -0.1174  0.0327
10936W        W11136   7.721   6.824   0.822  0.0284  0.0366  0.1518
10937W        W11137  10.180   6.310  10.230  0.0801  0.1985  0.1997
10938W        W11138  12.368   6.537  10.444 -0.1459  0.1706 -0.0291
10939W        W11139   0.660  16.478   9.932 -0.3902  0.4411  0.1745
10940W        W11140  10.028   1.908   6.923 -0.0712 -0.5248  0.1304
10941W        W11141  10.081   4.769   9.520  0.0841  0.0335 -0.2537
10942W        W11142   5.566   0.519   7.616  0.2980  0.0004  0.0102
10943W        W11143   8.353  13.612  16.203 -0.2137 -0.1270 -0.1929
10944W        W11144   4.443  17.258  10.027  0.1144 -0.0860 -0.4013
10945W        W11145  10.906   1.375   1.995  0.1906  0.0437 -0.0054
10946W        W11146   6.286   1.839   9.289 -0.2726 -0.1297 -0.1804
10947W        W11147   3.104   7.367   5.314 -0.3182  0.0707 -0.1387
10948W        W11148   8.120   6.802  14.534  0.2585 -0.4900 -0.0082
10949W        W11149   4.648   3.502  10.137  0.0250  0.2040  0.1637
10950W        W11150   9.493  16.392  15.206 -0.0714 -0.1352  0.2475
10951W        W11151   2.598  17.539  11.997 -0.1038 -0.0233 -0.0151
10952W        W11152   5.050   2.894  15.410  0.1837 -0.0386 -0.0375
10953W        W11153  18.066   5.317  15.079 -0.0266  0.0925  0.2211
10954W        W11154   3.232  14.436  18.106  0.4681  0.2078  0.1001
10955W        W11155  13.141   2.007   6.889 -0.2139  0.2370  0.2343
10956W        W11156   5.419   1.480   7.876  0.0126  0.0212 -0.2921
10957W        W11157   7.886  18.139  10.903  0.1023 -0.0689  0.1476
10958W        W11158  10.775   1.314  10.120  0.0702  0.1730  0.0012
10959W        W11159  12.052   1.805  14.161 -0.1662  0.1302 -0.1011
10960W        W11160  18.009  13.964   3.746  0.0748 -0.1716 -0.0251
10961W        W11161   4.738   9.893  10.471 -0.2809 -0.0921 -0.0667
10962W        W11162   2.575  15.473  10.771 -0.1654 -0.0199  0.0564
10963W        W11163   7.471  16.518   8.315 -0.2046  0.1466 -0.2944
10964W        W11164   8.070   9.042  11.741  0.2026 -0.4710  0.1441
10965W        W11165  17.039   5.741   8.218  0.0349 -0.0099  0.0499
10966W        W11166   2.113   3.439  12.504 -0.2173  0.1727 -0.2149
10967W        W11167  17.363  17.962  13.103  0.0698  0.1454  0.1903
10968W        W11168  12.597   4.605   7.599  0.3022  0.0712 -0.2394
10969W        W11169   1.446   5.902  15.594 -0.1647  0.2071  0.1088
10970W        W11170   2.925   1.736   4.263  0.3776 -0.1062 -0.1136
10971W        W11171  17.974   3.508   1.802 -0.1271  0.0676 -0.0114
10972W        W11172   8.478  11.418   8.769  0.0520 -0.1017 -0.4957
10973W        W11173   5.532   4.016  11.882  0.1658 -0.0516  0.0866
10974W        W11174   5.151   6.409   5.033  0.1419  0.2486 -0.1915
10975W        W11175  13.880   5.460   6.070 -0.2262 -0.1446  0.4108
10976W        W11176   6.059   8.124   9.465 -0.1519 -0.4347  0.1177
10977W        W11177   6.523   3.497   8.753 -0.0971  0.2216  0.0857
10978W        W11178  11.358  14.190   1.513 -0.1912 -0.2358 -0.1275
10979W        W11179   8.599   3.184  15.429  0.1823 -0.2829  0.2613
10980W        W11180   6.887   3.436  10.497  0.0159 -0.1703 -0.0004
10981W        W11181  15.275  15.898  11.526 -0.0817  0.3422  0.0661
10982W        W11182  10.424  18.207   4.715 -0.2962  0.0474 -0.0026
10983W        W11183   6.200   5.725  10.384 -0.2277  0.0368 -0.1216
10984W        W11184   7.667   4.917   3.020 -0.0727  0.2712 -0.2158
10985W        W11185   8.914   3.954   5.955  0.0258 -0.1932 -0.1300
10986W        W11186  17.772  15.817  17.580 -0.2350  0.1182 -0.0129
10987W        W11187   1.795   1.848  10.491  0.0709 -0.1402  0.1641
10988W        W11188   2.353  12.734  13.384 -0.0597  0.0535 -0.0760
10989W        W11189  14.964   6.984   3.742 -0.2131 -0.3162  0.1656
10990W        W11190  18.170   5.201   8.742 -0.1968  0.2538 -0.1769
10991W        W11191  14.544  17.795   1.720 -0.2522  0.0263  0.1267
10992W        W11192   4.843   2.047   3.314  0.0204  0.2854  0.1598
10993W        W11193   5.619   4.727  12.652 -0.0219 -0.1916  0.3477
10994W        W11194   5.727   6.119   8.852  0.3011 -0.0107 -0.3241
10995W        W11195   7.612   6.179   5.861 -0.2943  0.2280 -0.2138
10996W        W11196  16.066   2.385  12.332 -0.2376  0.0599 -0.1530
10997W        W11197   4.027  17.234  16.267  0.1790 -0.0736  0.0748
10998W        W11198  11.616   7.862   5.069  0.2460  0.1309  0.0334
10999W        W11199   1.504   2.722  12.258  0.1420 -0.0708  0.3380
11000W        W11200  13.752   3.244   9.886 -0.0951  0.0990 -0.2761
11001W        W11201   2.646  16.078  11.070 -0.2729  0.2012 -0.1948
11002W        W11202   8.942   2.963   0.330 -0.1191 -0.0116 -0.3103
11003W        W11203   8.215   0.087   8.318  0.0180  0.1543  0.1218
11004W        W11204   2.373  14.749  16.524  0.1001 -0.1030 -0.2649
11005W        W11205   7.733   4.618   5.680 -0.0217 -0.2278 -0.0676
11006W        W11206   6.041   0.959   1.740 -0.0585 -0.0852  0.1968
11007W        W11207   4.108   4.413  16.236  0.1784 -0.2138 -0.1429
11008W        W11208   9.482  12.893   2.554 -0.1348 -0.0863 -0.2083
11009W        W11209  16.206  11.091   8.672 -0.1246  0.1965 -0.0676
11010W        W11210   9.305   4.568   6.694  0.1053  0.0545 -0.0161
11011W        W11211   0.069  10.275   8.768 -0.2707 -0.3225  0.0091
11012W        W11212   7.659   9.559  12.519 -0.0442  0.1305  0.1282
11013W        W11213   7.016  17.813  17.435 -0.1451  0.0427  0.1449
11014W        W11214  16.712   3.095   9.476 -0.1336 -0.1819  0.0603
11015W        W11215  15.693   6.799   8.026  0.1212  0.0962 -0.3693
11016W        W11216   0.330   3.769  13.203  0.1618 -0.2967 -0.1713
11017W        W11217   7.300   2.271   6.921 -0.1998 -0.0149 -0.1102
11018W        W11218   7.534  16.545   0.937 -0.0722 -0.1710  0.0455
11019W        W11219   3.225  15.243   6.541 -0.1764  0.2125 -0.1345
11020W        W11220   2.633  14.298   3.724  0.0148  0.0499  0.1245
11021W        W11221   2.897  17.972   6.950 -0.2501 -0.1455  0.4772
11022W        W11222  12.616   2.710   9.016  0.2025 -0.1493 -0.1210
11023W        W11223   2.036   4.560  12.558 -0.0064 -0.1248  0.1097
11024W        W11224  16.693   1.847  11.827  0.1139 -0.0965  0.0339
11025W        W11225   5.340  14.353  12.411  0.0651  0.1960  0.1024
11026W        W11226   7.562   1.431  12.863 -0.0679 -0.1987 -0.0343
11027W        W11227   5.623  15.561  11.744  0.1540 -0.1160  0.1379
11028W        W11228   9.573   3.024   9.947 -0.0485 -0.2017  0.3525
11029W        W11229  11.130  15.157   5.302  0.0265 -0.1614 -0.1872
11030W        W11230   6.332  14.288   9.575  0.2399 -0.1311 -0.1478
11031W        W11231  17.747  16.726  14.284  0.0521 -0.0629 -0.0704
11032W        W11232  17.962   9.344  12.841  0.0477 -0.0555  0.1895
11033W        W11233   8.388  17.149  10.920  0.0183 -0.2478 -0.3623
11034W        W11234   0.249   8.248   4.671 -0.0503  0.3936 -0.1816
11035W        W11235   3.762   5.331   2.807  0.1103  0.0800 -0.1888
11036W        W11236   3.489   2.445  15.586 -0.1832  0.2009  0.0090
11037W        W11237   2.132  12.354   4.075  0.0078 -0.0961 -0.5268
11038W        W11238  16.197   7.370   7.451  0.3197 -0.0680  0.2002
11039W        W11239  13.535  14.992   8.117 -0.1827 -0.0943  0.3664
11040W        W11240   0.008   3.473  13.487  0.0249  0.0847  0.0910
11041W        W11241  13.104  17.111   9.544 -0.1001  0.0192  0.1973
11042W        W11242   3.785   8.428  13.205 -0.0179 -0.1340  0.4504
11043W        W11243   8.547   3.119   7.284 -0.1748 -0.1912 -0.0273
11044W        W11244   8.401   2.158   7.653 -0.3288 -0.1764 -0.1471
11045W        W11245   4.568  16.061   5.514 -0.0709 -0.2242 -0.1191
11046W        W11246   2.388  12.237   4.811 -0.1077  0.0967 -0.0211
11047W        W11247   9.450  17.399   7.511  0.3383  0.2359  0.2610
11048W        W11248  12.729   9.429  12.324 -0.3786 -0.2098  0.0754
11049W        W11249   2.675   6.062   8.083  0.2160  0.0619  0.1063
11050W        W11250   6.422   2.695  16.576 -0.2428  0.3027  0.0331
11051W        W11251   6.729  12.859   6.456 -0.2051 -0.0471  0.1803
11052W        W11252   1.604   2.618  13.416 -0.0187  0.2184 -0.0092
11053W        W11253  10.044  17.343   3.040  0.0134  0.1126  0.0738
11054W        W11254  12.227   3.638   6.897 -0.0918  0.1078 -0.2971
11055W        W11255   6.625   8.459   8.774 -0.2885  0.0642  0.0681
11056W        W11256   7.243  15.852  16.944 -0.1290 -0.1983 -0.1997
11057W        W11257   6.669   4.698   9.817  0.1630  0.0520 -0.1047
11058W        W11258   6.639  16.211   6.743 -0.1314  0.0793  0.1789
11059W        W11259  14.606   2.868  12.988  0.2265  0.0254  0.0759
11060W        W11260   2.911   7.772   9.896  0.1683 -0.5429 -0.0840
11061W        W11261   7.911   3.735   6.124  0.0014  0.0105  0.1651
11062W        W11262   1.657   0.559  12.514  0.1219  0.4057 -0.1064
11063W        W11263   2.002   7.027  10.753  0.0581 -0.1528 -0.1867
11064W        W11264   9.824  14.738  10.149 -0.0401  0.0748  0.2841
11065W        W11265   9.976   8.259   5.380  0.1181  0.3731 -0.0310
11066W        W11266  10.925   3.021  13.555  0.1151 -0.3284  0.0282
11067W        W11267   4.935   3.889   9.328  0.2481 -0.0610  0.1713
11068W        W11268   1.687  16.572  16.255  0.2669  0.0327  0.1383
11069W        W11269   3.490  17.484   8.174 -0.2640  0.0883 -0.0819
11070W        W11270  18.004  17.772  10.277 -0.1048 -0.1207 -0.0236
11071W        W11271  11.257   8.978   5.304 -0.1198 -0.0503 -0.3367
11072W        W11272   6.510  11.240   4.272 -0.0359 -0.0880 -0.0053
11073W        W11273  17.992   0.426  14.317 -0.0477 -0.2096 -0.0071
11074W        W11274  11.271   3.806  12.108  0.2024  0.0534 -0.0694
11075W        W11275   8.969   0.207   7.657  0.1110 -0.4226 -0.2043
11076W        W11276   5.349   3.608  10.438  0.0055  0.0319  0.2676
11077W        W11277   5.208   2.556   3.416 -0.2576 -0.0600 -0.0933
11078W        W11278   8.569   4.496  17.973 -0.2308 -0.1018 -0.1690
11079W        W11279   5.859  16.215  15.574 -0.0001 -0.0171 -0.1485
11080W        W11280   6.731  17.194   1.271  0.2157 -0.0033  0.1804
11081W        W11281   7.008   2.594  15.831 -0.3890 -0.0999 -0.2760
11082W        W11282   9.881   0.632  11.324 -0.0108  0.2842 -0.3218
11083W        W11283  14.840   4.422   0.544 -0.3804  0.0946 -0.0891
11084W        W11284  11.110   4.421  13.244 -0.1363 -0.1165  0.1174
11085W        W11285   6.712   3.587  11.316 -0.0934 -0.1308 -0.4493
11086W        W11286  10.015   3.802   5.954  0.0269  0.0646 -0.1563
11087W        W11287   1.234   4.295  10.413 -0.1238  0.0165  0.1461
11088W        W11288   4.913  18.049   7.285  0.1576 -0.3447 -0.1471
11089W        W11289  14.298  14.462   8.448 -0.0999  0.3079  0.2726
11090W        W11290   4.569   3.683   9.593  0.2308 -0.0684 -0.0914
11091W        W11291  17.148   4.912  15.596 -0.0811  0.0514 -0.1296
11092W        W11292   3.658   2.152  10.081 -0.0548 -0.0063 -0.2637
11093W        W11293  13.688   7.531  11.765  0.2496 -0.1261 -0.0474
11094W        W11294   0.939   9.731   8.815 -0.1315  0.1206  0.2130
11095W        W11295  10.474   5.974   6.383  0.1357  0.1478  0.0117
11096W        W11296   6.910   5.497  12.263  0.1871  0.2546  0.0635
11097W        W11297   3.471   6.920  12.465  0.2191 -0.1147 -0.1724
11098W        W11298   9.081   7.004  14.465  0.0421 -0.2018 -0.0738
11099W        W11299   4.943   7.054   4.080  0.0019 -0.1828 -0.2195
11100W        W11300  18.202  10.956   7.652  0.1060 -0.0068 -0.1332
11101W        W11301   3.035   9.690  11.697  0.1357  0.1605 -0.1081
11102W        W11302   3.877   0.215  10.430 -0.0142  0.0904  0.3975
11103W        W11303  13.994  11.426  13.978 -0.1866  0.1432 -0.2780
11104W        W11304   2.309  13.029  10.266 -0.0486 -0.2747 -0.0240
11105W        W11305   6.885   8.775   9.502  0.2036 -0.5169 -0.0134
11106W        W11306   2.394   2.481  12.275  0.1359 -0.0290  0.1340
11107W        W11307   6.807  14.516   1.794 -0.0466  0.0422  0.0030
11108W        W11308   6.973  18.109   7.350 -0.2276  0.2012 -0.0774
11109W        W11309   0.376   1.449   7.768  0.2705  0.0373  0.4012
11110W        W11310   5.824  12.338  10.167 -0.0523 -0.3369  0.0470
11111W        W11311   9.170   3.243   2.788 -0.0166 -0.0017 -0.2719
11112W        W11312  13.578   5.571   8.058  0.2103 -0.2800  0.1513
11113W        W11313   0.581   6.353   4.982  0.1427  0.2167 -0.2947
11114W        W11314  13.130  16.563   6.095  0.1993  0.2508  0.0633
11115W        W11315   7.163  12.384  12.265  0.1713 -0.0334  0.1411
11116W        W11316   7.449   1.107   9.257 -0.2577 -0.4118 -0.1769
11117W        W11317  17.999   4.886   9.310 -0.0018  0.2255  0.0299
11118W        W11318   2.560  11.565   4.352  0.3192  0.1357  0.2376
11119W        W11319   8.236   1.119  10.478  0.0760 -0.1692  0.1813
11120W        W11320   5.861   4.150   8.902 -0.3127  0.1085  0.3427
11121W        W11321  10.877   0.343  15.274  0.0142  0.0705 -0.1364
11122W        W11322   7.861   3.275   6.326  0.1064  0.0572 -0.0255
11123W        W11323   5.750   9.385   7.535  0.2233 -0.1083  0.1024
11124W        W11324   1.264   1.875   2.543  0.0194 -0.0424 -0.3515
11125W        W11325   8.108  16.449   0.075 -0.1540 -0.1163  0.1404
11126W        W11326   7.670   4.062   9.816 -0.1024  0.2678 -0.0493
11127W        W11327   7.058   2.768   6.918 -0.3838  0.0204  0.2241
11128W        W11328  16.806  10.786  16.171  0.0291 -0.2037  0.1090
11129W        W11329   2.788   2.265   4.331 -0.0950  0.0299  0.0584
11130W        W11330   8.177   3.318  10.730  0.1234 -0.4029 -0.0620
11131W        W11331   7.020   4.320  13.227  0.0542 -0.2984  0.1356
11132W        W11332  11.191  13.052  12.489  0.0457 -0.0689 -0.4540
11133W        W11333   4.826   7.410   6.556  0.1552  0.2582 -0.2421
11134W        W11334   1.980   2.651  12.063  0.2432 -0.0291 -0.0895
11135W        W11335   4.621   0.308  10.814  0.1282 -0.1958  0.1223
11136W        W11336  17.378  13.740   8.319  0.1177  0.2550  0.1216
11137W        W11337   8.667   0.577  13.457 -0.1770 -0.0247 -0.2160
11138W        W11338   2.450   6.979   9.366  0.0843  0.2152 -0.3160
11139W        W11339  16.235   1.109   0.804 -0.1430  0.0783  0.0837
11140W        W11340   3.389   3.431   8.422 -0.1097 -0.2246 -0.0524
11141W        W11341  11.724   1.723  12.235 -0.0285 -0.0004  0.0732
11142W        W11342   2.640   9.962   3.956  0.1213 -0.0586  0.2663
11143W        W11343   3.117   9.621   8.854  0.2179  0.1662  0.0255
11144W        W11344   9.700   6.699   6.158  0.0602 -0.0811 -0.0090
11145W        W11345   6.572  12.927   9.074  0.0238 -0.0993 -0.1911
11146W        W11346  15.899   7.163   4.775 -0.2095  0.1344 -0.0081
11147W        W11347   4.749   2.122   8.941  0.2091  0.1916  0.1290
11148W        W11348   9.707   3.746  17.067  0.1770 -0.0464 -0.2838
11149W        W11349  11.184   6.817  13.830 -0.0285  0.0730 -0.3158
11150W        W11350   2.787  17.818   9.372  0.0675  0.2926 -0.0110
11151W        W11351   3.269   2.921   3.811 -0.1098  0.1103 -0.0231
11152W        W11352  10.255   4.106   7.685  0.3976 -0.0312  0.0998
11153W        W11353   4.549   2.112   4.758  0.1193  0.2747  0.0870
11154W        W11354   7.762  17.366   1.875  0.0770 -0.3070 -0.2723
11155W        W11355  13.994   6.073  15.945 -0.0376 -0.0720  0.3068
11156W        W11356   5.182  12.719   7.597  0.0613 -0.2234 -0.1287
11157W        W11357  10.863  13.748   8.899 -0.2430 -0.0180  0.0577
11158W        W11358   7.064  16.165   5.543  0.0343  0.0063  0.4711
11159W        W11359   5.276   6.693  11.213  0.1774  0.1691  0.0998
11160W        W11360   4.830  12.784  10.351  0.0197  0.0517 -0.2392
11161W        W11361  11.090   5.306   9.031  0.0591  0.0014  0.0456
11162W        W11362  10.952  12.638   3.013  0.0324 -0.1558 -0.0401
11163W        W11363   9.855   5.283   6.127 -0.0718  0.0144 -0.1011
11164W        W11364   3.373   3.619   7.358  0.3478 -0.0897 -0.0053
11165W        W11365   3.465  14.035   4.054 -0.0696 -0.0059 -0.0164
11166W        W11366   7.246   3.152  11.910 -0.2731  0.2627  0.2200
11167W        W11367  12.117  17.810   8.924 -0.2390  0.0730  0.0626
11168W        W11368  14.713   5.310   0.564  0.0911  0.0949  0.0875
11169W        W11369   2.015   9.540   6.603 -0.0545  0.3612  0.0187
11170W        W11370   3.660   2.859  13.537  0.0924  0.2336  0.1503
11171W        W11371   7.150   8.868   4.268  0.1235 -0.1472  0.2486
11172W        W11372   0.548  17.129   7.445 -0.1178 -0.0796 -0.2025
11173W        W11373   9.551   1.412   0.165 -0.1336 -0.0800  0.1692
11174W        W11374   4.977  17.012   4.551 -0.0324  0.0091 -0.1426
11175W        W11375  15.068   2.522   7.706  0.2497 -0.2823  0.0247
11176W        W11376   6.939   9.242  10.420 -0.0670  0.2356  0.2526
11177W        W11377   9.142   3.947  10.936  0.2864  0.1177  0.1115
11178W        W11378  10.188   8.193  13.346  0.2103  0.1379 -0.1519
11179W        W11379   9.813   9.200   9.832 -0.0064  0.0537 -0.2646
11180W        W11380   2.824  11.021   7.988  0.0782  0.0555  0.2760
11181W        W11381   3.506   5.288  10.258  0.2054  0.1515 -0.3107
11182W        W11382  11.690   9.834   9.415 -0.4420  0.1746  0.1126
11183W        W11383   7.870  15.464   0.254 -0.1049 -0.1381 -0.1581
11184W        W11384  16.389  15.696  13.877 -0.2445  0.1262 -0.0024
11185W        W11385   1.113  16.515   8.935  0.0215 -0.0693 -0.0828
11186W        W11386   1.765  14.140   4.972  0.2300  0.0050 -0.1055
11187W        W11387   9.734   6.953   9.927  0.0867 -0.0372  0.0897
11188W        W11388   3.500   1.454  11.689 -0.0529  0.0403 -0.1430
11189W        W11389   7.161   1.107  14.488  0.4742  0.1570  0.1675
11190W        W11390   7.199  13.818   2.794 -0.0201 -0.1021 -0.0352
11191W        W11391   3.138   4.953  10.014  0.1666  0.0509 -0.0156
11192W        W11392   8.809   0.905   5.883 -0.0217  0.2587 -0.0300
11193W        W11393   4.813   1.391  17.599 -0.2075  0.1433  0.4176
11194W        W11394   7.883  11.859   5.019 -0.0900  0.1984  0.1491
11195W        W11395   1.218   2.641  14.270  0.1196  0.1134 -0.2852
11196W        W11396   1.424   5.122   2.379 -0.1385 -0.3299 -0.0586
11197W        W11397   9.206   1.539   6.743  0.3921 -0.2060 -0.0848
11198W        W11398  14.332   3.716   2.355  0.2266 -0.0459 -0.2730
11199W        W11399   3.990  10.882   0.168 -0.0870  0.0967  0.5772
11200W        W11400   5.334   2.528   2.625 -0.2968 -0.1934 -0.0123
11201W        W11401   6.679   1.353  17.700 -0.2132 -0.1903 -0.1042
11202W        W11402   7.700  16.476  11.268  0.0123  0.0289 -0.1926
11203W        W11403   8.822  14.221   5.649  0.0576  0.0457 -0.1042
11204W        W11404   9.445   3.438   8.745  0.2676 -0.0076 -0.0335
11205W        W11405   8.111   3.231  14.707 -0.0217  0.2076 -0.0648
11206W        W11406   7.758   1.512   7.075  0.0002  0.2305  0.0562
11207W        W11407  10.129  11.202   7.131 -0.0888 -0.1344 -0.0775
11208W        W11408  16.183   9.400   7.984  0.4217 -0.2106  0.0451
11209W        W11409  10.703   0.291   7.080 -0.1855 -0.0972 -0.1251
11210W        W11410   2.506   4.400  13.511  0.0433  0.1711 -0.0980
11211W        W11411  17.490   7.505   8.892 -0.1075 -0.1821  0.0380
11212W        W11412   0.947   9.184  11.865 -0.3904 -0.0351 -0.1190
11213W        W11413   9.897   0.408  12.098  0.2356 -0.0516 -0.2697
11214W        W11414  17.283   5.035   6.059 -0.3617 -0.0475  0.0089
11215W        W11415   9.354  16.795  12.975 -0.1162  0.0621 -0.0512
11216W        W11416   1.985   4.874   8.448  0.1062  0.0794 -0.0718
11217W        W11417  10.784   6.269   6.933  0.0165  0.0680  0.0394
11218W        W11418   5.941  13.203  18.146  0.0044 -0.2021  0.1068
11219W        W11419  10.233   2.781   2.872 -0.1700 -0.0012  0.2412
11220W        W11420  12.471   4.329  10.990  0.0564  0.1508  0.0290
11221W        W11421   6.370  11.213  14.276  0.2074 -0.0035  0.1103
11222W        W11422  16.567   0.789  11.477  0.1310 -0.0935  0.1344
11223W        W11423   4.018   1.569  16.891 -0.3184  0.2787  0.1567
11224W        W11424   7.551   8.558   8.520 -0.3564  0.1320 -0.3924
11225W        W11425  10.565   4.841   6.812 -0.4915  0.0843 -0.0070
11226W        W11426   1.718   3.745  13.790  0.4742  0.1480 -0.0630
11227W        W11427   6.505   0.347  15.249 -0.2064 -0.2678  0.1437
11228W        W11428  11.878   7.934  10.945 -0.1892 -0.1058 -0.2546
11229W        W11429   6.021   0.394  15.045  0.1527 -0.1398 -0.2884
11230W        W11430   7.148   1.452   8.077 -0.2190 -0.0549  0.0305
11231W        W11431   8.886   9.926   6.433  0.0693 -0.0544  0.0808
11232W        W11432  12.675   4.345  17.274  0.0108 -0.1869 -0.0801
11233W        W11433   3.853   2.288   1.477 -0.1286 -0.2343 -0.0019
11234W        W11434   6.236  13.693  15.038 -0.1356  0.1140  0.1304
11235W        W11435  13.476   6.016  10.914 -0.0147  0.0020 -0.1664
11236W        W11436   2.941   1.160   1.632  0.0413  0.1118 -0.2126
11237W        W11437   9.417   4.304  17.911  0.0692 -0.1260  0.1253
11238W        W11438   8.581   6.841  10.018  0.0504 -0.0417  0.0388
11239W        W11439  10.801   4.362   7.229 -0.0377  0.3534  0.0606
11240W        W11440   6.257   6.721  12.221 -0.1478  0.0637 -0.0431
11241W        W11441  11.104   6.900   2.561  0.3238  0.1940  0.0731
11242W        W11442   2.020  17.806  15.826  0.2274 -0.0010 -0.1844
11243W        W11443  16.169   4.165  18.080 -0.2470  0.0189 -0.0306
11244W        W11444   8.648  11.053   2.087 -0.1602  0.1782 -0.0319
11245W        W11445   8.138  17.592   0.365  0.1104  0.1695 -0.1887
11246W        W11446   1.089  14.862  16.495  0.1257  0.0540 -0.0706
11247W        W11447  12.955   2.323  17.518  0.1480 -0.2095 -0.0505
11248W        W11448  12.344   2.753  15.751  0.3802 -0.1826 -0.1544
11249W        W11449   1.306   9.017  12.477 -0.1460  0.0183 -0.2638
11250W        W11450  10.343  12.755  15.832  0.4192 -0.1700 -0.0691
11251W        W11451   5.126   7.058   9.540  0.0985  0.1065  0.2804
11252W        W11452   4.271   2.283   4.261  0.1281 -0.0649  0.0258
11253W        W11453   7.777   2.725   6.180  0.1128 -0.1810 -0.2976
11254W        W11454   6.913   5.108   7.715  0.4575 -0.0025  0.5606
11255W        W11455   1.568  18.061  15.937 -0.0379  0.0808  0.1180
11256W        W11456   7.311   0.704  15.817 -0.2076  0.0907 -0.4179
11257W        W11457   9.546   5.596  10.793  0.0600  0.1113  0.1479
11258W        W11458   7.872   7.689  14.649 -0.0200 -0.0812  0.1510
11259W        W11459   0.378  15.741   7.906 -0.5039  0.1992  0.1559
11260W        W11460   6.536  12.142  14.608 -0.3376 -0.5284  0.2024
11261W        W11461  17.847   7.734  15.375  0.3131 -0.1571 -0.2368
11262W        W11462   8.144  18.186  14.904  0.0263 -0.1308 -0.0624
11263W        W11463   5.279   1.286  16.400  0.3623 -0.1732 -0.2812
11264W        W11464   9.486   0.284   8.180  0.1294  0.1744 -0.1324
11265W        W11465  10.114   0.618   8.840  0.0007 -0.1294  0.1058
11266W        W11466   8.741   4.063   8.765  0.1668  0.0344  0.0023
11267W        W11467   4.312  15.831  16.465  0.1649  0.3872 -0.0808
11268W        W11468   5.394   3.052   9.516 -0.2550 -0.0789  0.2604
11269W        W11469   7.663  13.732   7.184  0.1252  0.0837 -0.2759
11270W        W11470   0.567   5.556  11.474 -0.2730 -0.0537 -0.0516
11271W        W11471   2.745   7.403   0.612 -0.0378 -0.0745  0.0462
11272W        W11472  15.848   5.846  15.966 -0.0187 -0.0713  0.0370
11273W        W11473   5.980  15.724  10.277 -0.1223 -0.1511  0.2281
11274W        W11474   3.394   1.405  14.218  0.1176  0.1924  0.2684
11275W        W11475   7.747   4.276  12.143  0.2487  0.0242 -0.1293
11276W        W11476   2.731   6.830  14.217  0.1889  0.2267  0.0359
11277W        W11477   7.220   2.543   5.982 -0.0774 -0.2157  0.0240
11278W        W11478   1.097   3.596  13.674 -0.1730  0.2587  0.2319
11279W        W11479  11.454   8.262  17.787 -0.2371  0.3804 -0.1149
11280W        W11480   7.307   0.167   9.124 -0.1173  0.1658  0.1710
11281W        W11481   1.654   0.862  17.951 -0.0454  0.2224 -0.0212
11282W        W11482   3.941   3.068  10.199  0.0023 -0.0587  0.1301
11283W        W11483   1.455   2.431  12.893  0.0125 -0.1235 -0.2992
11284W        W11484   7.753  16.621  14.935  0.2998  0.0771 -0.0474
11285W        W11485   2.508  17.320  10.215 -0.2594  0.2523 -0.2069
11286W        W11486   5.181  11.698  12.177 -0.2318  0.0637  0.0026
11287W        W11487  11.583  15.660   0.656 -0.2200 -0.0246  0.1993
11288W        W11488   8.097  14.876   4.594 -0.1485  0.0492 -0.1101
11289W        W11489  10.377   4.688  11.287 -0.3427 -0.0044 -0.1933
11290W        W11490  18.104  17.740  15.107  0.3170  0.0839  0.0055
11291W        W11491   6.915  15.215  11.034 -0.0603  0.3156  0.2007
11292W        W11492   3.513   6.968   2.550  0.0443  0.1055  0.1730
11293W        W11493   4.871   7.157  15.857  0.0273  0.0450  0.0783
11294W        W11494   2.886   5.249  11.276 -0.0064  0.3965 -0.1634
11295W        W11495  11.129  17.349  10.208 -0.0894 -0.1378 -0.0334
11296W        W11496   3.668   1.491  16.061 -0.1895 -0.0933 -0.1072
11297W        W11497   3.305   7.053  18.162  0.0953 -0.0157 -0.3245
11298W        W11498  16.267  13.906  12.813 -0.0806 -0.1742 -0.0431
11299W        W11499   3.390  17.420   3.617 -0.1878 -0.0397 -0.0740
11300W        W11500  10.440   5.332   4.807  0.0851  0.0512 -0.0925
11301W        W11501  13.501   3.589  14.817 -0.0857 -0.0158  0.0171
11302W        W11502   3.842   7.382  13.060 -0.0015  0.1603  0.0295
11303W        W11503   7.887   3.602  13.544 -0.0429 -0.1514  0.1401
11304W        W11504   0.049   7.484  15.242  0.2356  0.2130  0.1528
11305W        W11505  15.295   3.244  11.949  0.1622  0.1120 -0.0012
11306W        W11506   7.093  12.175  11.050  0.0016 -0.0713 -0.0097
11307W        W11507   8.880   5.009   1.189 -0.0744  0.0651  0.1725
11308W        W11508  13.365   8.922  14.473  0.0644  0.2574  0.2425
11309W        W11509  11.717   0.546   4.875  0.1328  0.1337 -0.0026
11310W        W11510   2.129   4.145  14.144  0.1562 -0.3627  0.4332
11311W        W11511   6.554  18.042  12.319  0.0953  0.0106  0.1453
11312W        W11512   7.830   4.089  13.480  0.2615  0.3192 -0.0624
11313W        W11513   3.638  14.936  14.352  0.1340 -0.1090  0.2340
11314W        W11514   3.702  10.573  13.407 -0.1631  0.1176  0.0982
11315W        W11515  17.285   0.473  10.856 -0.2928  0.0532 -0.3341
11316W        W11516   7.704  17.475  15.291 -0.0972 -0.1530  0.0313
11317W        W11517   7.001   0.381   0.586 -0.1774 -0.2769  0.4259
11318W        W11518   3.088  12.053  14.082  0.3350  0.3115 -0.0374
11319W        W11519   0.466  17.727  13.653 -0.0705 -0.1620 -0.1733
11320W        W11520   6.097  18.054   3.311 -0.1405 -0.1739  0.0238
11321W        W11521  12.397  16.519   9.253  0.0929  0.1464  0.1006
11322W        W11522   1.618  18.079   5.131  0.1992 -0.0908 -0.0582
11323W        W11523  17.759   0.218  17.701 -0.0289  0.0542 -0.0648
11324W        W11524   4.490  14.620  11.389 -0.2163 -0.0268  0.1704
11325W        W11525   3.949   5.462  10.070  0.0460 -0.0744 -0.0344
11326W        W11526  11.472  14.485  10.348 -0.0239  0.1258  0.1598
11327W        W11527  16.859   1.919  14.607 -0.1601  0.1192 -0.1486
11328W        W11528   2.988   0.714  16.465  0.4493 -0.0807 -0.2462
11329W        W11529  12.405  10.796  13.010 -0.0586 -0.0200  0.0224
11330W        W11530   8.321  14.416  17.028  0.0758  0.0935 -0.0465
11331W        W11531   5.260  17.848  12.053 -0.2668  0.1895  0.1655
11332W        W11532   5.643   3.786  10.897  0.2685  0.0064 -0.2596
11333W        W11533   5.354   1.879  16.441  0.1908 -0.0766  0.1443
11334W        W11534   2.652   2.936  14.633 -0.0605  0.1155  0.0360
11335W        W11535   4.067   8.596   9.891 -0.1609 -0.0083 -0.0452
11336W        W11536   0.697   4.015  17.883 -0.0551 -0.0946 -0.1067
11337W        W11537  11.330   1.612  16.444 -0.0742  0.1390 -0.2275
11338W        W11538   4.769   7.517  12.771  0.2024 -0.1071 -0.0510
11339W        W11539   4.116   5.471   7.222  0.0089  0.0752 -0.1989
11340W        W11540   6.671   6.233  13.815  0.1140  0.1813  0.2416
11341W        W11541   0.857  10.365   6.922 -0.2237 -0.2512  0.1334
11342W        W11542  12.157   8.042  13.979  0.3158 -0.0748  0.2961
11343W        W11543  11.326  10.031   9.212 -0.0607  0.1580 -0.1634
11344W        W11544   9.842  14.659   0.217  0.2565 -0.5538 -0.2179
11345W        W11545   5.873  14.339  12.095  0.0979  0.1631 -0.2538
11346W        W11546   9.625  11.913  12.889 -0.1523 -0.2273 -0.1042
11347W        W11547   4.410   7.311   4.160 -0.2045 -0.2349  0.2638
11348W        W11548  12.995   0.595  12.243 -0.1850 -0.0017 -0.2905
11349W        W11549  12.763   2.851  13.148  0.0282 -0.0355 -0.0570
11350W        W11550   6.312   8.225  17.018  0.1125 -0.1590  0.0469
11351W        W11551   7.797  14.316  15.452  0.4204  0.0759 -0.0871
11352W        W11552  17.153   6.460  15.187 -0.1639 -0.0877 -0.0747
11353W        W11553   2.555  14.157  12.759 -0.0196  0.0453  0.1736
11354W        W11554   9.225  15.847  13.463 -0.0279 -0.0998 -0.0859
11355W        W11555   2.127  12.976   8.604  0.0413  0.2281  0.2435
11356W        W11556   6.754   5.937   8.397  0.0001  0.1357 -0.0111
11357W        W11557  15.161   0.843   1.975  0.4174  0.0437  0.0921
11358W        W11558   7.284   6.780   8.688  0.2057 -0.0772  0.0769
11359W        W11559  15.397  17.060  11.016  0.0811 -0.0553  0.0391
11360W        W11560  11.287   0.067  12.162 -0.0497  0.1585 -0.2580
11361W        W11561   7.820   8.398  15.544 -0.5361  0.1066 -0.0793
11362W        W11562   0.928  11.269   0.198 -0.2797 -0.2987  0.0863
11363W        W11563   6.420   2.891  10.682 -0.1138  0.2161  0.0249
11364W        W11564   7.260  16.856   2.437  0.0208  0.1596 -0.0592
11365W        W11565  17.185   3.329  12.483  0.0788  0.0761  0.0485
11366W        W11566   8.599   1.906  11.640 -0.0575  0.0379  0.1503
11367W        W11567   5.220  10.248  12.655  0.4449  0.0882  0.0211
11368W        W11568  15.035  17.137  10.403 -0.1851  0.2087 -0.0277
11369W        W11569  11.321   6.838  12.419  0.0090 -0.1161 -0.0319
11370W        W11570  11.255  15.512  15.705  0.0422 -0.0380 -0.0354
11371W        W11571   0.093  12.474  11.355 -0.0623  0.0390  0.2129
11372W        W11572   8.299   1.627  15.180 -0.2643  0.1133  0.3409
11373W        W11573  16.321   3.662  13.093 -0.0666 -0.0183  0.0160
11374W        W11574   3.035   7.580  13.887 -0.2681 -0.1602 -0.2255
11375W        W11575   3.265   4.450  16.563 -0.0169 -0.0315 -0.0079
11376W        W11576   7.355   0.672  17.747 -0.2641  0.0085  0.1554
11377W        W11577   4.165  16.472  10.707 -0.1750 -0.0072  0.1743
11378W        W11578  10.364   5.095  10.700  0.3822 -0.0612 -0.1566
11379W        W11579  16.099  18.190  12.493  0.1540 -0.0691  0.0118
11380W        W11580   6.184   3.044   1.784  0.1521 -0.0539  0.1098
11381W        W11581  13.821   4.932   4.907  0.0808 -0.4053  0.1616
11382W        W11582   9.292   1.105   5.498  0.1064  0.1735  0.1583
11383W        W11583   6.631   8.017   7.045 -0.2896  0.1221  0.1663
11384W        W11584  11.717   0.271  13.833 -0.2253  0.0076 -0.0788
11385W        W11585  10.600  16.957  12.718 -0.1300 -0.0067  0.0729
11386W        W11586   9.647   3.348  13.237 -0.0841 -0.1414  0.0996
11387W        W11587  17.789   5.428   8.481 -0.1576 -0.0016  0.3719
11388W        W11588   7.223   4.027   8.235 -0.1382  0.0592 -0.1433
11389W        W11589   4.815   2.519  10.930 -0.1405  0.0707  0.1948
11390W        W11590   3.649   2.521  16.988 -0.0894  0.4594  0.1138
11391W        W11591   3.007  18.140  16.375 -0.1740 -0.0972  0.0282
11392W        W11592   7.950   7.033   5.657  0.0423  0.2717  0.0113
11393W        W11593   9.726   0.897  12.398  0.0141 -0.0883  0.0410
11394W        W11594   2.941   8.146  13.238  0.0385 -0.2006  0.0634
11395W        W11595   1.603   3.699  12.307 -0.0402 -0.3068 -0.0628
11396W        W11596   9.681  17.946  11.165  0.2264 -0.0382  0.5365
11397W        W11597   6.909  17.304  16.683 -0.0157 -0.0546  0.0464
11398W        W11598  12.541  14.492  16.070 -0.1249 -0.0392 -0.0610
11399W        W11599   1.698   1.102  16.720 -0.0890  0.2600 -0.1594
11400W        W11600   6.174  15.226  10.534  0.2504 -0.0018  0.0223
11401W        W11601   7.556  10.628  12.691  0.0598 -0.0027  0.2718
11402W        W11602   7.665  14.198  18.060  0.3256  0.0638  0.0019
11403W        W11603   5.611   4.979  15.178  0.1647  0.1002 -0.1002
11404W        W11604   7.701   1.475   9.524 -0.1307  0.1919  0.1798
11405W        W11605  11.488  15.533  12.944  0.2407  0.1930 -0.0372
11406W        W11606   9.645   5.692  16.889 -0.2277  0.1995 -0.0642
11407W        W11607  11.824  17.073   5.670 -0.2749  0.2210  0.0315
11408W        W11608  13.614   2.076   4.233  0.2002  0.0983  0.1980
11409W        W11609   8.151  15.441   8.622  0.3387 -0.1377  0.0796
11410W        W11610  17.637  15.370  14.097 -0.1222 -0.0486  0.1543
11411W        W11611  10.528   3.353   1.403  0.0856 -0.0307  0.2589
11412W        W11612   7.339  12.718   0.880 -0.2796  0.0928 -0.1118
11413W        W11613   2.302  15.093  15.392 -0.0403 -0.0350  0.1587
11414W        W11614   7.902   0.058  17.514 -0.0228 -0.0864  0.0169
11415W        W11615  16.302   1.397   3.921 -0.2354  0.0307 -0.0541
11416W        W11616   4.934   4.472  13.755 -0.1444  0.1596  0.3035
11417W        W11617   4.705  17.127  16.080 -0.2047 -0.2230 -0.0145
11418W        W11618   4.754   2.520   3.566  0.1135  0.1858 -0.2528
11419W        W11619   6.333   2.229  17.866 -0.0710 -0.2830 -0.2096
11420W        W11620  10.453   1.812   6.271 -0.2414  0.3512  0.0371
11421W        W11621   7.301  15.338  12.968 -0.0340  0.4673 -0.1197
11422W        W11622   4.593   7.979  12.252  0.0096 -0.0006 -0.0532
11423W        W11623   8.975   3.830  11.368 -0.2276 -0.0031  0.0335
11424W        W11624  10.460   1.384  11.716  0.1667  0.0557 -0.1626
11425W        W11625   8.666   3.777  12.302 -0.1096 -0.3252  0.0114
11426W        W11626  11.964   9.505  10.299 -0.1861 -0.0635 -0.0116
11427W        W11627   6.946   0.176  14.651  0.2566 -0.4328  0.1091
11428W        W11628   5.230  10.426  14.146 -0.0608 -0.0596  0.0160
11429W        W11629   5.554  14.714   2.519 -0.0553 -0.2919 -0.4444
11430W        W11630   4.327  15.117  12.282 -0.0315 -0.1613  0.3016
11431W        W11631  11.447   1.120   2.107 -0.0819  0.0249 -0.1541
11432W        W11632   3.801   0.814  11.988  0.1587  0.0259 -0.3446
11433W        W11633  17.148  14.426  16.987  0.0034  0.0711  0.2237
11434W        W11634   6.214   7.785   0.017  0.0281 -0.0112 -0.0207
11435W        W11635   0.650   3.674   2.723 -0.1062  0.0756 -0.1226
11436W        W11636  13.148   8.662  11.289  0.0643  0.0848 -0.0440
11437W        W11637   3.917   3.451   2.195  0.0707  0.1904  0.1105
11438W        W11638   1.083  14.976  15.445  0.1516  0.2095 -0.0315
11439W        W11639   4.483   9.557  13.459  0.0718  0.0053  0.1168
11440W        W11640  14.366   8.393   6.945 -0.4027  0.1019  0.0225
11441W        W11641   3.701   2.147   2.212 -0.2162  0.2775  0.2020
11442W        W11642   6.934  10.982  17.711 -0.0955 -0.1165 -0.1752
11443W        W11643   6.121   3.344   4.116  0.1008  0.2599 -0.2038
11444W        W11644   9.195  12.959   2.168 -0.3754  0.3239 -0.0923
11445W        W11645  10.589  17.035   0.392 -0.1560  0.0913  0.0825
11446W        W11646   5.313   3.754   1.755 -0.1049  0.4164  0.2055
11447W        W11647   5.493   9.410  15.474  0.0031  0.0947 -0.0545
11448W        W11648   5.304  13.518   8.934  0.0755  0.0953 -0.0199
11449W        W11649  11.530   1.347  12.992 -0.0260  0.1221 -0.1910
11450W        W11650   2.822   3.640   9.348  0.0929 -0.1978  0.1813
11451W        W11651   6.472   7.797  12.517 -0.0175  0.0547  0.0891
11452W        W11652   9.712   9.497  11.816 -0.0008  0.1807  0.0670
11453W        W11653   3.350   3.426  17.361  0.1002  0.1714 -0.1036
11454W        W11654   3.910  18.005  11.073  0.2564 -0.4942 -0.3145
11455W        W11655   5.268   2.652  10.558  0.1261  0.0473 -0.1591
11456W        W11656  14.803  10.836  13.578  0.2252 -0.2187  0.1886
11457W        W11657   1.453   0.809   3.741  0.0684 -0.1815  0.0151
11458W        W11658   7.069  15.918  12.882  0.0346  0.1889 -0.1336
11459W        W11659  17.307   2.105   7.019 -0.0159  0.0467 -0.1373
11460W        W11660  11.010   3.587  15.297 -0.0233  0.0968  0.1233
11461W        W11661   7.234   5.570  12.636 -0.1098  0.3948  0.0095
11462W        W11662   2.736   1.721  14.673  0.3945  0.2419 -0.0646
11463W        W11663   3.488  15.753  13.075 -0.1255 -0.1022 -0.0724
11464W        W11664   8.849  14.212   0.837 -0.5099 -0.0219  0.2596
11465W        W11665  17.098   3.218  15.595  0.3566 -0.0618 -0.0103
11466W        W11666   8.202  15.393   9.838 -0.1294 -0.0276 -0.2817
11467W        W11667   1.970   8.411  17.224  0.1351  0.5829 -0.0751
11468W        W11668   3.559  12.951   4.504  0.1709 -0.0465  0.0291
11469W        W11669   3.770   4.268   4.757 -0.1855 -0.0851  0.3346
11470W        W11670  13.641  11.635   4.851 -0.2311  0.0820  0.1204
11471W        W11671   2.543   5.716  13.903  0.3265 -0.0040  0.0392
11472W        W11672   9.988   2.807   7.342 -0.1995 -0.0969  0.2581
11473W        W11673   2.441   0.001  10.286  0.1084 -0.0329  0.1020
11474W        W11674   4.480   6.382   9.787 -0.0369  0.0464  0.1305
11475W        W11675   1.300  11.382  15.679  0.0633 -0.0378  0.1056
11476W        W11676  16.234   0.905  18.061 -0.2156  0.0475 -0.0890
11477W        W11677   5.990   4.622  14.008 -0.0978  0.2283  0.3758
11478W        W11678   0.635   6.657  14.100  0.0570 -0.2291 -0.3187
11479W        W11679  11.778   1.552  16.788  0.0073 -0.4335 -0.0949
11480W        W11680   1.058  14.732   7.182  0.0328  0.1684  0.2456
11481W        W11681   3.683   3.753  15.671 -0.0215  0.0044  0.1486
11482W        W11682   5.611   5.654   0.214 -0.0485 -0.0186 -0.0722
11483W        W11683   1.855  17.064  13.903  0.0064  0.0566  0.1627
11484W        W11684  16.166  10.799  16.726 -0.1511 -0.1823 -0.0213
11485W        W11685   3.480   6.448   1.459  0.2519 -0.0687 -0.5616
11486W        W11686   5.470  17.348  11.969  0.0735 -0.1254  0.2377
11487W        W11687   1.970   5.112  14.146 -0.0537  0.3131 -0.1132
11488W        W11688   5.183  17.968  17.939 -0.2294  0.2242  0.0144
11489W        W11689   0.548   5.573  10.948  0.0940  0.1173 -0.1119
11490W        W11690   2.988   1.604  12.448 -0.0597 -0.0944  0.1969
11491W        W11691   2.252   6.435  14.988 -0.0028 -0.0858  0.4004
11492W        W11692  16.932  15.941   5.725 -0.0833 -0.1010 -0.1109
11493W        W11693   8.140   4.247  11.745 -0.0065 -0.1102  0.1017
11494W        W11694   9.851  14.612  15.662 -0.4173 -0.3809 -0.0141
11495W        W11695   1.343  12.828  14.115 -0.1576  0.0209  0.3140
11496W        W11696  16.252   2.288  11.583 -0.2372  0.0495 -0.0795
11497W        W11697   6.979  16.252  12.509 -0.0274 -0.0081 -0.1159
11498W        W11698   7.858  15.237  16.785 -0.0011 -0.0972  0.0248
11499W        W11699   9.980   2.541  10.691 -0.1241  0.0536 -0.0153
11500W        W11700   7.829  16.442  12.858  0.0993 -0.1798 -0.0806
11501W        W11701   4.158   4.660  10.739  0.0009  0.1912  0.0044
11502W        W11702   0.949  14.988   9.635 -0.1995 -0.1592  0.2429
11503W        W11703  17.725   3.174  13.182 -0.0097  0.0763  0.0054
11504W        W11704   8.853   1.507  12.364  0.1255  0.0075  0.0335
11505W        W11705  11.234   6.833   8.051  0.0592 -0.0208  0.1347
11506W        W11706  17.250   4.108  15.992  0.1220 -0.1592 -0.2205
11507W        W11707   1.093  16.106  17.458 -0.0632 -0.2380  0.1378
11508W        W11708   9.713   6.541  10.230  0.1015  0.2691  0.0456
11509W        W11709   4.593   4.720   9.916  0.0138  0.2347 -0.0691
11510W        W11710   7.176  16.761  10.545  0.1214  0.0336 -0.2014
11511W        W11711   4.428   3.816   6.710  0.0062  0.1942  0.0961
11512W        W11712   2.967  12.035  17.088  0.1153 -0.0987  0.1887
11513W        W11713  17.685   2.631  13.129  0.0617 -0.2748  0.0148
11514W        W11714   3.927   1.216  14.944 -0.0132  0.1515  0.0998
11515W        W11715  11.330   3.630   9.545 -0.1372 -0.2216 -0.0296
11516W        W11716   4.470   4.342   1.645  0.1802 -0.0087 -0.0630
11517W        W11717   9.167   5.479  13.308  0.1692 -0.0380 -0.0535
11518W        W11718   4.961   5.655   3.461 -0.0610  0.0663 -0.0817
11519W        W11719   4.398   3.890  15.587 -0.0156  0.0180 -0.0140
11520W        W11720   2.135   2.866   9.236 -0.0979  0.0460 -0.0296
11521W        W11721   1.889   4.150  11.628  0.1077  0.2133  0.0230
11522W        W11722   6.397   5.849  18.121 -0.0591  0.5403 -0.0615
11523W        W11723   9.553  18.103   0.021  0.0046 -0.1921  0.0748
11524W        W11724   8.924  12.581   0.272 -0.1307  0.0111  0.0970
11525W        W11725   8.682   5.515  10.902  0.3358 -0.1567  0.1577
11526W        W11726   5.846  10.056   4.831 -0.3972 -0.3746  0.3896
11527W        W11727   5.467   1.183  14.104  0.2469  0.2070 -0.0848
11528W        W11728  16.895   6.336  12.738  0.0840 -0.0204  0.3998
11529W        W11729   7.947  12.044  12.947 -0.0329 -0.2162  0.1271
11530W        W11730   4.078   4.780  13.460  0.0198  0.1243  0.3044
11531W        W11731   9.938   3.108  13.575 -0.1804  0.4242  0.1310
11532W        W11732   4.184   6.197  14.684  0.0067 -0.1996 -0.2358
11533W        W11733   2.910   8.894  18.187  0.0197  0.1998  0.1783
11534W        W11734   4.184   3.744  13.132  0.3368 -0.0897  0.0711
11535W        W11735  10.324   3.309  12.102 -0.0687 -0.3268  0.0842
11536W        W11736   1.776  13.958  12.533 -0.0211 -0.0047  0.4911
11537W        W11737   0.516   0.481  14.829  0.2551  0.2335  0.0656
11538W        W11738   0.875  10.621  11.723  0.1106 -0.1058  0.0121
11539W        W11739   3.253  12.862  14.871  0.2906  0.0239  0.3595
11540W        W11740   8.051   2.031  11.735 -0.0016 -0.0474 -0.2889
11541W        W11741   5.833   1.788  11.405  0.0137 -0.3922 -0.1444
11542W        W11742  17.413   1.427  16.816  0.2305  0.1643 -0.2219
11543W        W11743   7.542   5.683  16.030  0.2102 -0.0925 -0.2331
11544W        W11744   0.381   9.190  15.188  0.0374 -0.0408  0.2260
11545W        W11745   7.014   8.184   7.290 -0.2588 -0.0861 -0.2483
11546W        W11746   3.740   8.401  15.487 -0.1012  0.0447  0.2657
11547W        W11747  10.045  11.832   7.983 -0.0590  0.0542  0.1849
11548W        W11748  11.787   0.153  17.311  0.1901 -0.2618  0.0273
11549W        W11749   3.601  11.415   6.478  0.0911  0.1161 -0.1592
11550W        W11750   5.859  14.658  15.640 -0.1164  0.1204 -0.1825
11551W        W11751   4.440   7.478  10.778 -0.0695 -0.1952  0.0213
11552W        W11752   7.123   1.799  11.022  0.3195  0.2756 -0.0634
11553W        W11753   5.173  12.438   1.783  0.0751 -0.0220  0.0249
11554W        W11754   4.771   2.053  13.412  0.2720  0.0401  0.1887
11555W        W11755   6.339   0.082  13.672 -0.0162 -0.1748  0.2934
11556W        W11756   1.417   2.098  13.330  0.1090 -0.2702 -0.0628
11557W        W11757   2.977   8.379  11.873 -0.1749  0.0886 -0.0690
11558W        W11758  17.884   4.129  15.403  0.1519 -0.1365  0.1758
11559W        W11759   6.556   6.379   5.764  0.4842  0.2924  0.2187
11560W        W11760   2.791   1.472  17.316 -0.2823  0.0204  0.0624
11561W        W11761   4.163   4.113   7.426  0.0516  0.2492  0.0125
11562W        W11762   7.773  16.538   8.754  0.1750 -0.0435 -0.0359
11563W        W11763   9.240   4.083  12.814 -0.1030 -0.2522  0.1060
11564W        W11764  14.987  13.290   7.700 -0.1379  0.0866  0.1012
11565W        W11765  14.588   3.775  14.127 -0.0112  0.2668 -0.0543
11566W        W11766  13.610   4.833  10.070  0.0336 -0.0590 -0.0512
11567W        W11767   4.357   4.085   4.527 -0.3134 -0.3288  0.0313
11568W        W11768   5.285  17.198   4.147  0.1925 -0.0249 -0.3065
11569W        W11769   5.110   0.783  14.128  0.1054 -0.0962 -0.0449
11570W        W11770  11.776  15.919  13.174  0.3076  0.1080  0.1741
11571W        W11771   5.955  10.370  10.659 -0.0459  0.0338 -0.1243
11572W        W11772  16.863  13.200   0.574  0.2884  0.0399 -0.0644
11573W        W11773   6.830  16.186   3.322 -0.0735 -0.0553  0.0245
11574W        W11774   4.252  14.743   9.416 -0.0662  0.1732 -0.1397
11575W        W11775   5.625   2.379  16.513  0.1842 -0.1619  0.0098
11576W        W11776  17.634   3.800  10.511  0.1186 -0.0846 -0.1074
11577W        W11777   8.377  17.742  14.721  0.1364 -0.0447  0.2222
11578W        W11778   6.754   2.579  14.980 -0.0513  0.0343 -0.1544
11579W        W11779  12.207  16.505   1.021 -0.1486  0.0073 -0.2667
11580W        W11780   7.677   9.600   5.973  0.0604 -0.0145  0.0786
11581W        W11781   3.590   7.054  11.969  0.2081 -0.1188 -0.0135
11582W        W11782  11.212   3.136   4.334  0.2112 -0.0084  0.0403
11583W        W11783   4.025   3.027   2.492  0.1502 -0.0136  0.0845
11584W        W11784   8.093   1.922   4.239 -0.2569  0.1792  0.1638
11585W        W11785  10.448   0.506   2.916  0.0635 -0.1527 -0.2564
11586W        W11786   2.512   1.229  11.642  0.3377  0.0068 -0.1765
11587W        W11787   3.875   2.358  15.929 -0.0965 -0.1172 -0.1088
11588W        W11788  15.277   2.110  11.942 -0.4547  0.3069 -0.0301
11589W        W11789   1.497   2.612  10.428 -0.1422  0.2880  0.0382
11590W        W11790  16.218   4.991  11.280 -0.0663 -0.1793 -0.0234
11591W        W11791   9.488   0.128  15.182  0.0901 -0.2065  0.1334
11592W        W11792   5.447   0.379   9.854 -0.0298  0.4371 -0.2339
11593W        W11793   3.285   5.977  16.818  0.1178  0.0295 -0.2493
11594W        W11794   3.248  16.941  15.755  0.0775 -0.3488  0.0812
11595W        W11795  12.163   4.900   8.449  0.1508 -0.1971 -0.1840
11596W        W11796  13.232   2.711   4.798  0.5052  0.1591 -0.0827
11597W        W11797   8.729  13.985  11.907 -0.1924  0.1128  0.2984
11598W        W11798   7.347   3.059  11.150  0.0868 -0.0694 -0.0582
11599W        W11799   1.507  18.206   8.793 -0.0287 -0.0923 -0.2102
11600W        W11800   2.972   2.663  16.241 -0.0024 -0.0292  0.0245
11601W        W11801  10.695   4.591  12.514  0.0791 -0.0392 -0.0008
11602W        W11802   9.960  17.720  12.579 -0.1850  0.1219  0.2273
11603W        W11803  16.574   3.410  14.435 -0.0251 -0.1658 -0.0081
11604W        W11804   7.405   3.296   5.681 -0.1308  0.2040 -0.2087
11605W        W11805   2.376  14.442  15.985 -0.0853  0.2451  0.0080
11606W        W11806   7.200   1.269   5.102  0.1489 -0.0898  0.0461
11607W        W11807  10.491   6.364  14.089  0.0334  0.3195  0.3422
11608W        W11808  13.185   4.977  15.393  0.0925 -0.0488  0.0663
11609W        W11809   8.393   5.791   9.430 -0.3145  0.2428 -0.1712
11610W        W11810   3.868  14.569   9.068 -0.0456  0.1388 -0.1480
11611W        W11811  16.897  14.142  14.875 -0.0612  0.1449 -0.0643
11612W        W11812   3.183   2.501  11.516  0.1281  0.0317 -0.1640
11613W        W11813   2.606   2.827  11.341 -0.0207  0.0793  0.0795
11614W        W11814   7.915   6.908   3.407  0.0690 -0.1635  0.0985
11615W        W11815  10.905   0.774   3.718 -0.0066  0.1617 -0.0980
11616W        W11816   1.655   0.382  16.185  0.1564 -0.1727  0.0961
11617W        W11817   5.358  12.501   5.332  0.0923  0.1542  0.2543
11618W        W11818   2.646   7.733   1.958 -0.0928 -0.0744  0.0139
11619W        W11819   1.152   5.145  10.472  0.1312 -0.0789  0.1330
11620W        W11820   2.728   5.467  14.306 -0.5760 -0.0376 -0.1716
11621W        W11821  12.988   7.974   5.948 -0.1358 -0.0041  0.0970
11622W        W11822  13.295   7.847  13.449 -0.0899 -0.0107  0.5243
11623W        W11823   1.934   0.187  10.059  0.2573  0.0854  0.0601
11624W        W11824   6.404   6.127  10.534 -0.3530 -0.3706 -0.2229
11625W        W11825   4.523   1.615   6.379 -0.1741  0.1051 -0.2629
11626W        W11826   7.989   4.220   5.837  0.2224 -0.1116 -0.2741
11627W        W11827   3.247  18.080   0.645  0.3260 -0.0360 -0.4195
11628W        W11828   4.412   8.876  17.049  0.1233  0.2670 -0.1051
11629W        W11829  11.257  15.590  10.946  0.3329 -0.0514  0.0467
11630W        W11830  13.786   7.767   4.356 -0.2463 -0.0467  0.0332
11631W        W11831   7.191  17.905  16.095  0.1538 -0.1434  0.0703
11632W        W11832   3.806  16.088   7.126  0.3065  0.2667  0.4052
11633W        W11833   5.922   6.476  17.913 -0.0422  0.1907 -0.0716
11634W        W11834   7.936  18.146   0.690 -0.0311  0.1447  0.2431
11635W        W11835   0.882   4.286  11.189  0.0841  0.1206  0.0144
11636W        W11836   4.486  13.223  13.686  0.0003  0.0725  0.2059
11637W        W11837  17.110   4.425  16.981  0.0467  0.0223  0.1212
11638W        W11838  10.469   3.879  13.457 -0.2550 -0.1491  0.0291
11639W        W11839  17.470   6.881   2.058 -0.0286 -0.1534 -0.0879
11640W        W11840   0.955   5.295  11.303  0.1576  0.0146  0.0366
11641W        W11841  11.556   2.326   2.763  0.2031  0.1693  0.1540
11642W        W11842   7.297   6.349  17.214 -0.1446  0.1146 -0.1848
11643W        W11843   5.323  16.697   4.067  0.1625 -0.2297  0.3660
11644W        W11844   6.666  18.159   1.319  0.2292  0.1051  0.0718
11645W        W11845   4.969  11.131  18.106 -0.0581  0.3007  0.0748
11646W        W11846   4.944   1.493   0.795 -0.4405 -0.0709 -0.1139
11647W        W11847   4.368   1.440  10.976 -0.0234  0.2314 -0.0343
11648W        W11848   0.959  11.111   1.447  0.4040 -0.0145  0.0293
11649W        W11849   5.288   0.691   1.079  0.0106  0.1672  0.0710
11650W        W11850  11.836   1.002  15.994 -0.1791 -0.2662  0.0389
11651W        W11851   2.975   6.738  16.524  0.3542  0.0983  0.2603
11652W        W11852  11.912   0.322  15.899  0.0280  0.0856  0.3213
11653W        W11853  17.706  15.602  17.102  0.0255 -0.1720 -0.0990
11654W        W11854  13.177   1.047   3.322  0.2782 -0.2665  0.1514
11655W        W11855  17.585  14.095   3.287 -0.1610 -0.0051 -0.1700
11656W        W11856  15.260   6.568  13.481 -0.2863  0.0807  0.0101
11657W        W11857   3.965   5.421   0.592  0.2220  0.0593  0.0483
11658W        W11858  11.306   4.196   2.894 -0.1551  0.2157  0.0645
11659W        W11859   5.970  17.176  16.205 -0.1682  0.1858  0.0870
11660W        W11860   5.658   1.250   0.365 -0.1109 -0.3598  0.1466
11661W        W11861   9.305   5.648  12.011  0.3853 -0.1276  0.1977
11662W        W11862  11.328   5.468  13.980  0.2855 -0.2832  0.1599
11663W        W11863   4.198   2.086  18.135  0.0824  0.1439  0.1029
11664W        W11864   0.578   5.099   3.415  0.3685  0.1957  0.3207
11665W        W11865   5.236   0.649   2.199 -0.1288 -0.1202  0.1235
11666W        W11866  15.466   5.213  17.605 -0.0199  0.2528 -0.2349
11667W        W11867   8.892  15.395  13.150 -0.4034 -0.0118  0.1976
11668W        W11868   9.951   5.434   6.714  0.1330 -0.1736 -0.0185
11669W        W11869   6.239   2.385  16.241  0.1330 -0.0637 -0.0970
11670W        W11870   1.419   0.200  14.710 -0.2634 -0.0612  0.3309
11671W        W11871   7.967   5.932   7.433  0.0826 -0.0564  0.2403
11672W        W11872   7.059  16.427   0.893 -0.0940 -0.0815  0.2828
11673W        W11873   9.933   5.522   1.352  0.0972 -0.2388  0.1339
11674W        W11874   9.366   4.741   1.832 -0.0380 -0.1575  0.1192
11675W        W11875   4.805  11.634   9.009 -0.1940  0.1963 -0.3254
11676W        W11876   6.529   2.377  10.907 -0.1608 -0.0588 -0.2038
11677W        W11877   9.223  18.137  11.869 -0.1346  0.0507 -0.1717
11678W        W11878   4.797   2.587   2.498 -0.0263 -0.2680  0.1062
11679W        W11879   5.363   5.133   7.938 -0.0123 -0.0819  0.0675
11680W        W11880   6.933   1.807  15.570 -0.4487 -0.2138 -0.1195
11681W        W11881  17.115  16.360  13.131 -0.0121  0.0076  0.4030
11682W        W11882   3.828   3.722  17.582 -0.1038  0.0469  0.0273
11683W        W11883   3.503  10.140   3.699  0.1690 -0.0402  0.0539
11684W        W11884   9.920   5.000  10.447 -0.3229  0.0079 -0.0859
11685W        W11885  17.438   1.996  11.130  0.0343  0.0012  0.4091
11686W        W11886   3.952   0.801  15.921  0.0811  0.0923 -0.2758
11687W        W11887   6.037   5.254   1.587  0.0643  0.0609 -0.4972
11688W        W11888   2.059   4.588   0.677  0.0335 -0.0489  0.5080
11689W        W11889   3.759   5.725  17.063  0.1291  0.1040  0.0803
11690W        W11890  17.778  13.608  15.557 -0.0231 -0.0311 -0.5671
11691W        W11891   2.794  17.101  15.702  0.0860 -0.1346  0.2266
11692W        W11892   5.760   4.855  14.381 -0.2550  0.0888 -0.1310
11693W        W11893   7.093  15.270  15.871 -0.0509  0.0989  0.0064
11694W        W11894  11.460   3.750   6.868 -0.1323 -0.1288 -0.1405
11695W        W11895   0.348   5.125  11.490  0.0338  0.0842  0.1120
11696W        W11896   3.726  17.007  15.941  0.2064 -0.0731  0.1564
11697W        W11897   2.215  12.554   0.462  0.1027 -0.1460  0.2782
11698W        W11898  11.530  11.761  13.518 -0.1033  0.0266 -0.2824
11699W        W11899   2.753   2.768   2.255 -0.0628 -0.0864 -0.1350
11700W        W11900   4.961   8.598  15.980  0.4098 -0.1440  0.1816
11701W        W11901   8.930  10.771   3.579  0.0374  0.1477 -0.1136
11702W        W11902   1.174   9.736  18.144  0.1365  0.1538 -0.1603
11703W        W11903  10.723   9.764   2.540 -0.3026  0.0774  0.0200
11704W        W11904   6.798  17.157   5.167 -0.2526 -0.3034 -0.4234
11705W        W11905   7.883  11.609  10.659  0.0897 -0.2089  0.0470
11706W        W11906   5.827  17.541  15.565 -0.1261  0.1027  0.0557
11707W        W11907   9.103   0.990  15.510  0.1149 -0.2922 -0.1414
11708W        W11908   9.140  13.372  13.869 -0.0155 -0.3652 -0.0848
11709W        W11909   9.692  11.295   3.196 -0.3334  0.0630 -0.0539
11710W        W11910  10.713   0.799  16.490 -0.3593  0.1090  0.1175
11711W        W11911   9.572  15.290   4.489  0.1105  0.1284  0.2495
11712W        W11912   4.201   2.609  14.947  0.0427  0.1780 -0.2607
11713W        W11913  10.656  15.193   1.194  0.2431  0.1593 -0.0466
11714W        W11914  13.873  17.986  12.899  0.1160  0.0782  0.0555
11715W        W11915   8.259   1.494  15.780 -0.0130  0.0060  0.0879
11716W        W11916   2.226  16.995  18.115 -0.2727  0.0423  0.0866
11717W        W11917   8.149  10.427  16.282  0.0710 -0.1547  0.1525
11718W        W11918   8.515   1.142  12.592 -0.2264 -0.0050  0.0235
11719W        W11919   7.016  13.166  17.081  0.0438 -0.0673  0.0090
11720W        W11920   8.587   0.710   2.121 -0.1691  0.1606  0.0241
11721W        W11921  17.129   6.226  13.371  0.1283  0.1566 -0.1375
11722W        W11922   9.737  12.878   9.486 -0.1581 -0.0022  0.1299
11723W        W11923   5.606  12.973  16.793  0.1365 -0.2945 -0.2012
11724W        W11924   2.346  17.186  11.465  0.1890  0.2151 -0.0230
11725W        W11925  15.946  17.545   1.094 -0.0926  0.2227 -0.0784
11726W        W11926   6.713  12.088  10.252 -0.0814  0.0710 -0.0434
11727W        W11927   3.911  15.506   6.513 -0.3456 -0.2033 -0.1134
11728W        W11928   3.294   3.084  16.307 -0.0008  0.1174 -0.1048
11729W        W11929  12.481   2.287  14.835  0.2934 -0.2699  0.0713
11730W        W11930   2.626  11.653  16.295 -0.0094 -0.2262  0.0011
11731W        W11931   9.537   3.963  16.626  0.1709 -0.0158  0.0002
11732W        W11932  17.390   3.419  15.216 -0.0379  0.0566 -0.0004
11733W        W11933   0.556  12.135  15.642  0.0143 -0.0285  0.1164
11734W        W11934   2.528  17.831  11.094 -0.3118  0.3573 -0.2403
11735W        W11935   5.807  15.902   0.028 -0.2820 -0.1094  0.0455
11736W        W11936   0.269   3.634  17.618 -0.0036  0.1750 -0.0805
11737W        W11937   9.072  17.352   0.529  0.1100  0.0048  0.0400
11738W        W11938   7.092  13.455  15.372  0.5389 -0.3664 -0.2946
11739W        W11939   0.438   6.635   2.194 -0.0394  0.1772  0.0519
11740W        W11940   9.185   0.170   0.883 -0.0314  0.1012  0.3372
11741W        W11941  10.756   7.063   0.704 -0.0546  0.1954  0.0584
11742W        W11942   9.892   0.859  16.199  0.0066 -0.2443  0.2788
11743W        W11943   9.285   1.042   1.179  0.1811  0.0450  0.0511
11744W        W11944  10.612  17.667  15.203 -0.2151 -0.1374 -0.2030
11745W        W11945  12.885   8.329  12.611  0.2162  0.1513 -0.3133
11746W        W11946   3.354   3.740   1.124 -0.1772  0.2069  0.0278
11747W        W11947   9.349   6.623   3.641  0.2052 -0.1868  0.2632
11748W        W11948   3.099   5.680   0.272  0.4184  0.2132  0.2154
11749W        W11949   5.730  16.493   9.750  0.3280  0.2358 -0.0602
11750W        W11950   4.740   9.517  16.493  0.0637 -0.2166  0.2346
11751W        W11951   3.201  11.770   7.486  0.0715  0.1063 -0.0697
11752W        W11952   7.000   9.024  17.790  0.1773  0.1063 -0.1562
11753W        W11953  11.762   5.799   9.469 -0.3589  0.0794 -0.0885
11754W        W11954   9.860   5.035  16.359 -0.1746  0.1900  0.2639
11755W        W11955  12.541   1.967  13.706  0.2199 -0.0625 -0.1890
11756W        W11956   1.516   1.838  17.902  0.2017 -0.0255  0.0385
11757W        W11957   8.987  18.121  16.565  0.0154  0.4153 -0.0652
11758W        W11958  17.124   4.055  16.667  0.1470  0.0958 -0.0783
11759W        W11959   0.207  14.629  14.279 -0.0189 -0.0290  0.3715
11760W        W11960  13.387   3.249  14.358 -0.0668  0.0322 -0.0774
11761W        W11961   5.781  15.436  14.234  0.3634  0.1873  0.1514
11762W        W11962   4.975   1.662  16.692  0.0037 -0.3041  0.0549
11763W        W11963   9.906  14.870   8.820  0.1464 -0.0155 -0.2794
11764W        W11964   3.855   4.200   0.431 -0.1969  0.0714 -0.1811
11765W        W11965  16.224   3.951  17.183 -0.0041 -0.1674 -0.3184
11766W        W11966  15.659   2.469   8.308 -0.2007  0.0710 -0.0031
11767W        W11967   3.757  17.895  14.736  0.0605 -0.0959 -0.0275
11768W        W11968   9.750  11.271   9.788 -0.0581 -0.0342 -0.0008
11769W        W11969   2.542   4.704  14.604 -0.0696  0.1271  0.0712
11770W        W11970  10.130   5.072  15.146 -0.0282 -0.3403 -0.0835
11771W        W11971  16.338   1.765  13.628  0.1648 -0.4008 -0.0470
11772W        W11972  11.127   4.568   5.092 -0.1504  0.0939  0.1072
11773W        W11973  10.052   8.298   8.730  0.0121 -0.1242  0.1567
11774W        W11974  10.184  12.007  17.908 -0.0143 -0.0373 -0.0005
11775W        W11975  15.698  11.717   4.411 -0.1366 -0.0376 -0.0363
11776W        W11976   2.510   3.946   9.675 -0.0028 -0.2066  0.0616
11777W        W11977   6.880   3.919  13.516 -0.2806 -0.0172 -0.1128
11778W        W11978  14.311   0.465   3.875  0.1896  0.2116 -0.1068
11779W        W11979   7.463   1.056   2.019 -0.4331  0.0609 -0.0382
11780W        W11980   7.676   3.556   1.890 -0.0247 -0.1494  0.0955
11781W        W11981   4.849  16.146  15.193 -0.3951  0.1090 -0.0877
11782W        W11982   6.995   1.633   0.504 -0.4558 -0.1701 -0.1458
11783W        W11983   6.909   7.703  17.739  0.0180 -0.0014 -0.0697
11784W        W11984   8.820  16.237  17.502  0.1944  0.2781 -0.0068
11785W        W11985   6.335   9.917  16.178  0.0594 -0.2864  0.0783
11786W        W11986   2.066   7.979  12.838 -0.3319 -0.1620 -0.4471
11787W        W11987   0.251   2.881  17.742  0.1086 -0.0771  0.2398
11788W        W11988   7.066   4.446   1.386 -0.1132  0.1095  0.1247
11789W        W11989   7.206   3.208   1.606  0.1078 -0.0040  0.2864
11790W        W11990   9.026  16.711  11.319  0.0165 -0.1027  0.1717
11791W        W11991   2.714   4.888  13.533  0.0243  0.0834 -0.0862
11792W        W11992   5.384   4.274  17.533  0.2346 -0.0079 -0.1616
11793W        W11993   4.960  12.935  12.233 -0.0385 -0.0600  0.2198
11794W        W11994   9.740   0.833  13.353 -0.3243 -0.3194 -0.1421
11795W        W11995   0.541   2.836   3.655  0.1827 -0.2951 -0.1020
11796W        W11996   5.022   4.248  10.637  0.0207 -0.2880  0.3609
11797W        W11997   7.259   7.376   2.494 -0.1964  0.1056 -0.1499
11798W        W11998   2.050   5.692  11.994 -0.1681 -0.1036  0.1404
11799W        W11999   8.661   8.653   1.143  0.2309 -0.2017 -0.3306
11800W        W12000   2.685   0.661  15.550  0.0067 -0.3956  0.4375
11801W        W12001   7.358   7.776   2.141  0.0397  0.0020  0.1796
11802W        W12002   6.444  17.674   3.564  0.1884 -0.0875  0.0287
11803W        W12003   2.372  16.515   3.111  0.0112 -0.0844 -0.1416
11804W        W12004   3.153  10.482   3.200 -0.1338  0.0499 -0.2913
11805W        W12005  10.656   0.557   0.694  0.3236  0.0232 -0.1361
11806W        W12006   3.573   8.522  16.608  0.0063 -0.0708 -0.0550
11807W        W12007   0.843   6.465  10.659 -0.0970  0.1956  0.0338
11808W        W12008   7.037  12.186  14.388 -0.0597 -0.0771 -0.1703
11809W        W12009   0.872   6.212   0.154 -0.0177 -0.2760  0.1141
11810W        W12010   1.239  15.584  15.416  0.1018  0.3186  0.1181
11811W        W12011  15.158  14.047  11.882 -0.0448 -0.1056  0.1099
11812W        W12012   6.554   1.580  15.812 -0.2053  0.0968  0.1184
11813W        W12013   6.563  11.686  13.149 -0.0449 -0.1213 -0.0216
11814W        W12014   4.356   0.478  14.671 -0.2323  0.3397 -0.1937
11815W        W12015   1.478   2.811  13.844 -0.0861  0.0313  0.2141
11816W        W12016  17.040  13.863  13.264 -0.0580  0.0074  0.0152
11817W        W12017   5.942  11.647   1.027  0.0798  0.0843 -0.3909
11818W        W12018   4.499   2.711   3.958 -0.1015 -0.0545  0.0911
11819W        W12019  15.950  16.746  17.169 -0.1768 -0.0130 -0.0953
11820W        W12020  13.616   3.615   5.625  0.1902  0.0185 -0.0666
11821W        W12021   4.539   2.538  14.527  0.1106 -0.1005  0.1972
11822W        W12022  16.439  13.684   8.693  0.2699 -0.0285 -0.0301
11823W        W12023  12.813   3.059   1.584  0.2375 -0.0069 -0.0371
11824W        W12024   0.935  17.278  11.707  0.1419  0.0414 -0.3992
11825W        W12025   1.661   2.789  14.525 -0.0133  0.3003 -0.2332
11826W        W12026   2.389   6.171  13.797 -0.2601  0.0806  0.1180
11827W        W12027   3.271  16.153  13.793 -0.4202 -0.0722 -0.0447
11828W        W12028   2.208   7.345   2.778 -0.1074  0.1629  0.2333
11829W        W12029   4.687   0.963   5.754  0.0948 -0.1329  0.1265
11830W        W12030   3.364  13.844  12.980  0.0393  0.3038  0.2237
11831W        W12031   1.271   3.884   8.370  0.0774 -0.1482 -0.1599
11832W        W12032   6.403   0.538  13.063 -0.0139 -0.0454 -0.1517
11833W        W12033   7.130   7.681  10.124  0.2294  0.3161  0.0823
11834W        W12034  11.317   8.993  15.920 -0.2523 -0.2810  0.0165
11835W        W12035   7.808  17.690   0.689  0.0228 -0.0953 -0.1481
11836W        W12036   2.124   2.220  14.190 -0.1390 -0.0423 -0.2595
11837W        W12037   5.867  14.241   0.433  0.0258  0.1939 -0.4425
11838W        W12038   8.823   4.966  10.909  0.0901 -0.0944 -0.3337
11839W        W12039  14.747   0.182  18.205 -0.0573  0.2831 -0.1220
11840W        W12040  11.484  12.664  16.273 -0.0934  0.0152  0.2884
11841W        W12041  14.006  17.374   3.744 -0.0836  0.1544 -0.0418
11842W        W12042   8.830  10.109  13.290  0.0272 -0.1974 -0.1699
11843W        W12043   8.971  10.267  15.805 -0.0722 -0.2383 -0.2583
11844W        W12044  10.027  14.452  17.781 -0.0244  0.1963 -0.0202
11845W        W12045  15.012   9.420   3.220 -0.0673  0.2469  0.1755
11846W        W12046   8.096   2.784  14.961  0.4005  0.1489  0.1782
11847W        W12047   9.450  14.883  15.453 -0.0453 -0.0418 -0.3955
11848W        W12048   2.747   0.756   2.281  0.1030  0.0013 -0.4046
11849W        W12049   9.977  17.672   8.381  0.1472 -0.2906 -0.0728
11850W        W12050   5.013   0.712   4.903 -0.1402  0.0708 -0.0203
11851W        W12051   0.136  17.491  15.598  0.1533  0.0370  0.1704
11852W        W12052   8.972   4.572   3.962  0.0015 -0.0763 -0.2188
11853W        W12053  14.897  12.136   1.280 -0.3991 -0.1685  0.1360
11854W        W12054   6.136  13.262  11.624  0.2875 -0.3834 -0.2799
11855W        W12055   7.191   0.854   2.946  0.1556 -0.2226 -0.0919
11856W        W12056   8.371   0.677   6.164  0.1469  0.2137 -0.0683
11857W        W12057   9.008  17.670  16.839  0.0689  0.1543  0.0772
11858W        W12058  16.562   8.088   3.981 -0.1794 -0.2003 -0.0346
11859W        W12059  17.813   0.586  13.311 -0.0638 -0.4755 -0.0247
11860W        W12060   3.760   3.455   1.566  0.0093  0.4386 -0.2728
11861W        W12061   6.270  17.643   9.094  0.0420 -0.2049  0.2740
11862W        W12062   3.884   6.427  15.160 -0.0162 -0.1868 -0.4253
11863W        W12063  11.620   2.868   0.596  0.1404 -0.1238  0.3159
11864W        W12064   9.186   6.434  16.420 -0.0378  0.1809  0.1582
11865W        W12065  16.874   8.674  10.091  0.1787  0.1546  0.2121
11866W        W12066  17.907   2.995   0.810  0.0008 -0.1960  0.0598
11867W        W12067   3.892   8.523  12.163  0.2401  0.3686  0.0872
11868W        W12068  10.624  16.141  11.570 -0.0216  0.3011  0.1643
11869W        W12069  14.283  17.304   1.680  0.0297  0.1473  0.4072
11870W        W12070   4.753  16.083  10.082 -0.3292 -0.0377  0.0715
11871W        W12071   6.433  13.253   4.293  0.2612  0.1140  0.0993
11872W        W12072   6.629   6.631  15.594 -0.1842  0.0719 -0.1539
11873W        W12073   3.387   9.384  15.689  0.0900  0.0814 -0.0975
11874W        W12074  12.457  11.850   6.274  0.1487  0.1273 -0.2752
11875W        W12075   4.698   6.044  17.762 -0.2149 -0.2879  0.1790
11876W        W12076   7.644   1.546  16.377 -0.2381  0.3382  0.2265
11877W        W12077  11.731   9.062  14.807 -0.4330  0.0980  0.0952
11878W        W12078   0.903   4.556   1.700  0.0946  0.1903 -0.0388
11879W        W12079  14.596  12.009   5.500  0.2934  0.1270 -0.2233
11880W        W12080   3.610  11.996  14.837  0.1307 -0.2234 -0.2449
11881W        W12081   9.834  16.602  14.848  0.0690  0.2208 -0.0212
11882W        W12082   8.721   4.499   8.325  0.1254  0.1244 -0.0848
11883W        W12083   8.149  13.497   1.928 -0.0103  0.0744 -0.0472
11884W        W12084   9.504   6.384  17.358  0.2972 -0.1590  0.0469
11885W        W12085   9.953  13.420  14.527  0.0717 -0.0889  0.1710
11886W        W12086   6.428   4.414  15.245  0.0547 -0.3227  0.0951
11887W        W12087   3.870   2.257  17.399 -0.1198 -0.1617  0.0562
11888W        W12088   5.723  18.162  14.278 -0.1087 -0.0408  0.0072
11889W        W12089   5.443  18.174   2.628  0.4001  0.1598  0.3414
11890W        W12090   2.403   4.910   0.412 -0.1746 -0.1255  0.0589
11891W        W12091   3.094   2.740  13.780 -0.0191  0.2132 -0.0016
11892W        W12092   0.074  15.203  13.965 -0.1279 -0.1289  0.1891
11893W        W12093   6.483   4.365  10.832 -0.0736 -0.3578 -0.1287
11894W        W12094   5.743  14.327  11.623  0.3981 -0.2501  0.0077
11895W        W12095   0.008  13.232  16.871 -0.0864 -0.4035 -0.0614
11896W        W12096   2.410  10.670   0.297  0.3838  0.0042  0.1483
11897W        W12097  14.036   4.926   0.188  0.0510 -0.2033 -0.0109
11898W        W12098   4.097   3.862  16.968 -0.1930 -0.1183 -0.2438
11899W        W12099  12.455   7.291  11.107 -0.1138 -0.1256  0.5442
11900W        W12100  17.847  10.965  12.085  0.0090 -0.1762  0.2871
11901W        W12101   9.094  13.779   1.512  0.2169  0.0679  0.1260
11902W        W12102   1.008   0.873  14.936 -0.0004 -0.0532  0.0098
11903W        W12103  11.260  17.895  17.092 -0.0482  0.0428 -0.1228
11904W        W12104  15.303  12.050   9.564  0.3205  0.0093  0.0655
11905W        W12105  12.162   3.754   4.871  0.3129 -0.0631  0.5704
11906W        W12106   2.801   4.293  16.464  0.4015 -0.2399  0.0226
11907W        W12107  18.139  12.320  13.221 -0.2179 -0.0193 -0.0918
11908W        W12108   0.630   2.343  17.055  0.0450  0.3129  0.0667
11909W        W12109  13.630   0.977  12.565 -0.3306  0.2014 -0.4931
11910W        W12110   4.539   2.301   7.120  0.0438  0.0171 -0.2651
11911W        W12111  11.338   3.258   5.082 -0.2951 -0.1734  0.0885
11912W        W12112   6.614   7.525   5.319 -0.4942 -0.0104 -0.1013
11913W        W12113   5.926   3.677   1.527 -0.1463 -0.3058  0.0925
11914W        W12114   6.966  14.997  13.057  0.0049 -0.1754  0.1702
11915W        W12115   3.513   2.355  12.257  0.1513  0.1182 -0.2162
11916W        W12116   9.314   5.002  10.177  0.0471 -0.0399 -0.0546
11917W        W12117   7.952  17.150   9.522 -0.2199 -0.3653 -0.0235
11918W        W12118   4.103   2.025   0.463 -0.1408  0.0022 -0.0475
11919W        W12119  16.336   5.566  13.035  0.3355  0.0527  0.0966
11920W        W12120  14.490   4.459   6.357 -0.0891 -0.3342  0.1693
11921W        W12121   8.604   6.932  14.381 -0.0646 -0.2935  0.0029
11922W        W12122   5.928  17.234   0.399 -0.0004  0.0224 -0.2535
11923W        W12123   1.589   7.650  16.242  0.0861  0.1974 -0.0861
11924W        W12124   3.925   3.792   4.584 -0.0972  0.0237  0.4118
11925W        W12125   5.657   4.516  11.855  0.0792  0.1616 -0.4458
11926W        W12126   4.525  18.016  15.478  0.0677  0.1307 -0.0757
11927W        W12127   8.237  18.158  11.492 -0.3485 -0.0886 -0.0333
11928W        W12128   4.197   6.054   6.324 -0.1496 -0.0490  0.0485
11929W        W12129  12.372   9.781   6.790 -0.2280 -0.3128 -0.2569
11930W        W12130  12.137  16.873   4.103 -0.0022  0.1866 -0.1705
11931W        W12131   6.241   1.759  12.494  0.0698 -0.0332 -0.0306
11932W        W12132  14.600   3.804   8.449 -0.1643  0.1088 -0.1215
11933W        W12133   7.747   3.368   8.788  0.0194 -0.1313 -0.0569
11934W        W12134   5.546   4.413  14.945  0.2927 -0.1031  0.2716
11935W        W12135   7.389   4.820  14.545 -0.1047  0.0253 -0.1083
11936W        W12136   4.543  16.746  16.372  0.2278  0.1685 -0.2392
11937W        W12137   4.729  14.567  15.865 -0.0935 -0.1834  0.3065
11938W        W12138   3.837   0.989  17.846  0.0115 -0.0645 -0.0078
11939W        W12139  14.247   7.948   4.297 -0.1697  0.1792  0.0031
11940W        W12140  13.668   2.301  15.044 -0.6263 -0.3258  0.1367
11941W        W12141   0.501   3.709   1.336  0.1649 -0.1935  0.0452
11942W        W12142   4.160  10.261  14.066 -0.0428 -0.1773 -0.0325
11943W        W12143  10.196   3.544  10.286 -0.1769 -0.5045 -0.2918
11944W        W12144  11.646   3.460   2.701 -0.0322 -0.0984 -0.2635
11945W        W12145   8.130   0.458   5.248  0.2168 -0.1140  0.3633
11946W        W12146   6.635   8.407   2.172  0.1050 -0.1414  0.0923
11947W        W12147   6.802  18.008  17.874 -0.0013  0.1589  0.1707
11948W        W12148  12.115   6.177   5.171  0.2259  0.0560  0.1057
11949W        W12149   6.743   8.435  12.618 -0.2271 -0.2632  0.3306
11950W        W12150   1.748   0.808  11.176  0.0936  0.0244 -0.0127
11951W        W12151   8.630   5.644  16.963 -0.0209 -0.0588 -0.1852
11952W        W12152   8.827  17.211   0.125  0.2735  0.0289  0.1950
11953W        W12153   4.810   0.228   5.591 -0.4461 -0.1970 -0.1546
11954W        W12154   1.059   1.122   3.639 -0.1498  0.0133  0.2382
11955W        W12155   3.146   7.683   1.742  0.0202  0.0850 -0.0316
11956W        W12156   7.198   0.936   1.235 -0.0625 -0.1988  0.1750
11957W        W12157   3.635   9.392  17.578  0.1948  0.2905  0.1678
11958W        W12158  10.578  16.956   1.816  0.3449  0.0773 -0.2169
11959W        W12159   7.673  17.111  17.375 -0.2535 -0.1597  0.2217
11960W        W12160   6.901   4.123   3.063  0.0430  0.1770 -0.3828
11961W        W12161  10.344  17.563   2.071  0.0209  0.1115  0.1752
11962W        W12162   9.065  12.927   4.323 -0.1221 -0.0641  0.0183
11963W        W12163   8.065  14.297  10.613 -0.2229 -0.0077  0.1068
11964W        W12164   0.762   5.520  10.383 -0.2592  0.0497  0.1439
11965W        W12165   8.213  15.477   6.910 -0.1250 -0.1385 -0.0778
11966W        W12166   0.018   2.858  16.668  0.2404 -0.3329 -0.2157
11967W        W12167  16.488   6.565   8.707 -0.4287  0.0646 -0.4130
11968W        W12168   7.610  14.926   0.965  0.0205  0.0416  0.1855
11969W        W12169   9.148  18.154  14.275 -0.0656  0.1437 -0.3599
11970W        W12170   6.185   7.569  13.824 -0.1364 -0.1329 -0.1659
11971W        W12171  14.360   1.178  15.519 -0.1645  0.2558  0.0750
11972W        W12172   8.880   5.236  17.247 -0.2958 -0.3618 -0.0423
11973W        W12173   5.383  17.220  13.874 -0.0001 -0.3016  0.0668
11974W        W12174   3.374   5.451  17.096 -0.2173  0.1869  0.1010
11975W        W12175   3.215   5.967  14.200  0.0070  0.0439 -0.1190
11976W        W12176   9.507  14.971   3.931  0.2067 -0.0269  0.3097
11977W        W12177   5.185   7.372   3.569  0.1266  0.3366 -0.1109
11978W        W12178   3.005   9.475  16.420 -0.1006 -0.0900 -0.2619
11979W        W12179  10.222   0.709  13.177  0.0488 -0.2508  0.1187
11980W        W12180  10.280   6.608  16.217  0.0585  0.0165  0.4118
11981W        W12181   5.874  15.588   9.582 -0.1051 -0.1164  0.0914
11982W        W12182   3.799  13.980  17.844  0.2386 -0.5625  0.0527
11983W        W12183  14.019  14.469  16.898  0.1439  0.0849  0.0388
11984W        W12184   2.495  15.335  13.614  0.1349 -0.0714 -0.0866
11985W        W12185  10.697  10.480   5.412  0.0199  0.1059  0.2268
11986W        W12186   2.096  17.990  18.030  0.1068 -0.1007  0.3635
11987W        W12187   9.566   5.394  16.497 -0.0734  0.1630  0.1498
11988W        W12188   3.953   4.591   1.567 -0.0538  0.0888  0.0707
11989W        W12189  11.468   5.811  14.819  0.0389 -0.3090  0.0270
11990W        W12190   7.718   2.930   0.280 -0.3281  0.1563 -0.1665
11991W        W12191   4.742   0.759   0.034  0.1936 -0.0853  0.0768
11992W        W12192   5.468  17.656  13.534 -0.2030 -0.1583 -0.1032
11993W        W12193   5.880   2.680   3.495  0.0716  0.0363 -0.1016
11994W        W12194  11.449   6.232  15.059  0.1809 -0.0351  0.0431
11995W        W12195  13.666   4.734  11.455 -0.1494 -0.2690  0.0633
11996W        W12196   8.300   6.006  14.054 -0.0155  0.1957 -0.0007
11997W        W12197   1.104   2.591  16.911 -0.2004 -0.0134 -0.1510
11998W        W12198   0.658   2.084   1.014 -0.0699  0.0988  0.1517
11999W        W12199  13.884  16.276   4.073  0.0397  0.2130 -0.0673
12000W        W12200   0.196  16.782  12.362 -0.0576 -0.0025  0.0532
12001W        W12201   0.258   7.906  10.815 -0.2134 -0.1223 -0.1694
12002W        W12202  10.657   6.547   7.307  0.1051  0.0053  0.0139
12003W        W12203   2.220   3.592   0.384  0.0518 -0.1188  0.2085
12004W        W12204   7.621  17.155  16.870 -0.2530  0.0980  0.0134
12005W        W12205  16.276   7.864  14.184 -0.0998  0.0636  0.0249
12006W        W12206  10.000  17.781   4.944 -0.0593 -0.0147 -0.3649
12007W        W12207  17.811   1.069  15.529 -0.1676  0.0164 -0.0629
12008W        W12208   1.615   8.785  13.642  0.0217  0.0917 -0.1841
12009W        W12209  10.341   3.752   2.289  0.3283  0.1036  0.0803
12010W        W12210   9.764   2.266  18.019 -0.3807  0.0357 -0.2973
12011W        W12211   7.148   6.773  14.550 -0.2739  0.0048 -0.1314
12012W        W12212   4.650  17.896  12.269 -0.1270 -0.2865 -0.0412
12013W        W12213   9.393   7.138  18.136 -0.1857 -0.0228 -0.0799
12014W        W12214  10.123  10.783  16.212  0.1764  0.1184  0.1570
12015W        W12215  17.101   1.036  17.393  0.0423 -0.1604 -0.1096
12016W        W12216  17.722   1.679  12.704 -0.2515  0.0419 -0.1262
12017W        W12217  10.947   1.843  16.213  0.2621 -0.1637  0.1617
12018W        W12218  12.158   2.526  13.401 -0.0557 -0.2679  0.0369
12019W        W12219   0.451   4.153   2.019  0.0080 -0.0670 -0.3078
12020W        W12220  17.597   8.933  12.215  0.2754  0.3450  0.0113
12021W        W12221   7.329   2.223  10.487 -0.1423 -0.1129  0.0773
12022W        W12222   5.740   8.347  15.231  0.0982  0.0372 -0.0607
12023W        W12223   5.402   2.358   1.521 -0.1267 -0.2305 -0.1562
12024W        W12224   2.243   3.981  12.556  0.0004 -0.3388 -0.0543
12025W        W12225   3.621   7.846  17.409 -0.1396 -0.1223  0.2267
12026W        W12226   6.623   4.982   2.635 -0.1212 -0.2184 -0.1737
12027W        W12227   9.509   6.975   8.536 -0.0932 -0.0358  0.2541
12028W        W12228  11.348   9.404  14.949  0.1744  0.2397 -0.0683
12029W        W12229   4.018   8.865   3.279  0.1445  0.0881 -0.0902
12030W        W12230   2.917  18.177  15.855 -0.0083  0.1408  0.0983
12031W        W12231   7.375   7.340  17.760  0.2097  0.0444 -0.1558
12032W        W12232   5.750   8.757   2.608  0.2321 -0.1509 -0.0397
12033W        W12233   5.409   5.368   3.514 -0.1327  0.0377 -0.0722
12034W        W12234  10.326   7.245   0.280  0.0311 -0.0737 -0.1117
12035W        W12235  10.502   4.997  17.563  0.0443 -0.0833 -0.0015
12036W        W12236   6.998   1.874   0.962  0.0756 -0.0784 -0.0008
12037W        W12237  10.707  13.490   2.735 -0.1873  0.0341 -0.0308
12038W        W12238  16.330   2.535  17.407 -0.2912  0.0886  0.1698
12039W        W12239  14.268   3.383   8.198 -0.1019  0.1566  0.0731
12040W        W12240  10.047   0.752   2.693  0.1251 -0.0545 -0.1104
12041W        W12241   5.400   5.862   6.759 -0.0918  0.2908  0.2189
12042W        W12242   5.077   2.475  14.073  0.0489  0.0571  0.2555
12043W        W12243   2.803   2.915  17.891  0.1022  0.0845 -0.0893
12044W        W12244  12.637  16.399  11.942  0.1555 -0.0450  0.0064
12045W        W12245   1.021  10.998  15.860 -0.0016  0.0854  0.2406
12046W        W12246   7.594  17.995   0.289  0.2021  0.0899 -0.1024
12047W        W12247   5.958   4.256   2.857 -0.2014  0.2076  0.2596
12048W        W12248   6.734   5.219   3.346 -0.2664 -0.1183 -0.3774
12049W        W12249   0.202   7.859  16.221  0.1371 -0.0145  0.2408
12050W        W12250   2.633   5.443   0.374  0.1462 -0.1594  0.0147
12051W        W12251   0.044   0.721  10.384  0.2553  0.2352  0.3111
12052W        W12252   6.360  16.250   8.942  0.2463 -0.1782 -0.4889
12053W        W12253   3.524   3.222   3.287  0.2602  0.2877 -0.0379
12054W        W12254   3.335   2.671  14.292  0.0514  0.0895  0.0581
12055W        W12255   9.671  14.292   4.324  0.3431  0.2141 -0.1347
12056W        W12256   4.837   9.482  15.656 -0.2768  0.1976 -0.2015
12057W        W12257   9.736   1.861   0.103  0.2124  0.1520  0.2400
12058W        W12258   5.816  10.454  14.957  0.2350 -0.1505 -0.0956
12059W        W12259   6.820   3.626   9.189 -0.0536 -0.2367 -0.1481
12060W        W12260  12.798   7.277   6.808 -0.1111  0.1708 -0.2518
12061W        W12261  14.471  15.835   5.381 -0.1182  0.1358 -0.1383
12062W        W12262   9.229  14.641   5.258  0.1224 -0.0061 -0.0003
12063W        W12263   2.282   1.067  14.074  0.1092  0.0373  0.1504
12064W        W12264   6.763  10.961   3.917  0.4283 -0.0124  0.0050
12065W        W12265   2.843   2.289   0.604 -0.1836  0.0539  0.1337
12066W        W12266  13.955   5.314  16.637  0.3705 -0.1897  0.0968
12067W        W12267  17.694   2.040   0.174  0.0007  0.0775  0.3972
12068W        W12268   1.858  16.283   0.955 -0.0968 -0.0213  0.1061
12069W        W12269  10.636  10.687   2.512 -0.0223 -0.0976 -0.0720
12070W        W12270  17.306   9.129  10.567 -0.1792  0.1046  0.2937
12071W        W12271  17.403  12.825   3.948 -0.0996  0.2065  0.0683
12072W        W12272  11.884  16.165   6.602 -0.1220 -0.1676  0.4618
12073W        W12273   0.169   6.606   0.814  0.2745  0.0187  0.0179
12074W        W12274   5.552   9.157  17.325  0.1952  0.2187  0.2390
12075W        W12275   2.802  17.666   0.449 -0.2137 -0.0248  0.0139
12076W        W12276   8.973   0.929   6.824  0.1163  0.0092 -0.0886
12077W        W12277  11.426  16.459  12.697  0.1485 -0.0893 -0.1066
12078W        W12278   3.130   2.118   0.245 -0.1098 -0.0381 -0.0606
12079W        W12279   6.406  10.744   2.225 -0.0646 -0.0756  0.1350
12080W        W12280  10.886  16.713  16.211 -0.0731  0.0765  0.0949
12081W        W12281  14.184  10.010   2.697 -0.1076 -0.1808  0.1018
12082W        W12282   6.766   9.008  14.511  0.0070 -0.2470 -0.1864
12083W        W12283  10.262   3.975   3.507  0.1902 -0.0857 -0.2901
12084W        W12284   6.075  10.021   5.313 -0.0452 -0.0093 -0.1513
12085W        W12285  14.478  13.260  13.056  0.0896 -0.5445  0.0377
12086W        W12286   9.388   9.752   2.008  0.1971 -0.3241  0.3128
12087W        W12287   0.620   0.856  13.115  0.1284  0.1976  0.1145
12088W        W12288   2.527   9.570   6.637  0.0829  0.0662 -0.2353
12089W        W12289   2.619   9.379  17.099  0.0098 -0.1461  0.0396
12090W        W12290   3.851  17.958   6.715 -0.0829 -0.0249 -0.2791
12091W        W12291  17.823   1.878   2.471  0.0081  0.0254  0.1113
12092W        W12292   1.842   9.032   8.499  0.2869  0.0071  0.0840
12093W        W12293   8.125   1.316   4.523 -0.2508  0.0769 -0.0284
12094W        W12294   4.831   3.902   1.649  0.2764 -0.2849 -0.0008
12095W        W12295  10.003   7.688   2.271 -0.0142  0.2722  0.3189
12096W        W12296   6.618  14.324  10.119  0.0105 -0.0937  0.0925
12097W        W12297   8.128   4.612  18.200 -0.3647  0.0535  0.0984
12098W        W12298   0.991  12.597   0.484  0.0465 -0.0770  0.0574
12099W        W12299  13.793  13.216   3.693  0.0794  0.0232  0.1045
12100W        W12300   7.656   3.891   0.978  0.0998  0.0226  0.0180
12101W        W12301   9.902   3.971   4.412 -0.2408  0.0426  0.2219
12102W        W12302   8.010   8.531  18.079 -0.2565 -0.2150 -0.3289
12103W        W12303   4.570   7.311   4.879  0.1267 -0.2991  0.4150
12104W        W12304   5.733   7.302   2.156 -0.2188 -0.0766 -0.0260
12105W        W12305   6.077   3.598   3.625  0.2150 -0.1324 -0.0359
12106W        W12306   8.901  14.590   0.554 -0.0486 -0.0781 -0.1080
12107W        W12307   4.272   6.001   5.092  0.2365  0.1574  0.1618
12108W        W12308   0.165  16.821   6.677 -0.0678  0.1717  0.2419
12109W        W12309   5.416  17.931   1.433 -0.2306 -0.0949  0.3474
12110W        W12310  10.059   4.996   3.462  0.1519  0.0032  0.1564
12111W        W12311   3.833   3.162  13.188 -0.4292 -0.1145 -0.0087
12112W        W12312  15.308   4.959  15.665 -0.2404  0.1258 -0.0038
12113W        W12313   5.910  12.469   5.600 -0.2789  0.0039  0.1868
12114W        W12314   4.742   3.856   1.104 -0.1042 -0.0147  0.1301
12115W        W12315   0.015   0.064   9.032  0.0339 -0.0149  0.2194
12116W        W12316   7.533  13.806   8.994  0.0848 -0.0637  0.0257
12117W        W12317   8.417  17.683   4.222  0.5090  0.1947  0.1846
12118W        W12318   0.378   7.201   5.539 -0.0746 -0.0720 -0.0442
12119W        W12319   3.994   5.008   6.370 -0.5117  0.1247  0.0856
12120W        W12320   3.439   3.589   1.997 -0.0088 -0.0978  0.0278
12121W        W12321  11.309   8.011  14.201  0.3238 -0.0357  0.0502
12122W        W12322   6.802   4.135   1.728 -0.0246  0.0207 -0.0323
12123W        W12323  15.070   9.386   9.465 -0.1621 -0.0017 -0.1538
12124W        W12324   2.380   2.685  14.981 -0.0485  0.0417  0.3930
12125W        W12325  17.923   5.333  13.775  0.1978 -0.1178  0.0786
12126W        W12326   7.140  14.674   0.310  0.1513 -0.2519 -0.1265
12127W        W12327   2.323   7.713   0.888 -0.2085 -0.2435 -0.0078
12128W        W12328  18.060   0.805   5.709 -0.0806 -0.2301 -0.0576
12129W        W12329   1.416   6.204  17.197 -0.1420  0.1846 -0.3507
12130W        W12330  11.236   2.097  17.103 -0.2821  0.0815 -0.1452
12131W        W12331  11.619   3.762   5.050  0.1764  0.1598 -0.1068
12132W        W12332   5.216   3.611   9.064 -0.1892  0.0225  0.0518
12133W        W12333   2.761   3.346   2.998  0.0516  0.0862  0.0483
12134W        W12334   1.322  17.277   0.012  0.0301  0.0337 -0.1168
12135W        W12335   0.890   6.171   0.688 -0.3158 -0.2673 -0.0139
12136W        W12336   8.777   5.960  17.814 -0.3465  0.1820  0.1043
12137W        W12337   6.690   8.568  16.893 -0.0605  0.1324 -0.0053
12138W        W12338   6.318  16.157   2.598 -0.1055 -0.1825  0.1404
12139W        W12339   2.765   7.647   1.043 -0.1529 -0.2330 -0.1500
12140W        W12340   5.657   7.797   5.626 -0.0596  0.0704 -0.0624
12141W        W12341   6.298   3.139   5.933  0.1294  0.3803  0.1148
12142W        W12342   8.386  11.463   1.794  0.0567 -0.2729  0.5052
12143W        W12343  17.364  10.856  14.491 -0.2457  0.0057  0.0576
12144W        W12344   9.145  17.200   2.684  0.1357 -0.1306 -0.1868
12145W        W12345  18.010   6.478   3.517  0.0021 -0.0635 -0.0479
12146W        W12346   7.153  15.617   2.239  0.0897  0.2109  0.0200
12147W        W12347  13.716   6.777   7.922 -0.1227  0.2218 -0.0777
12148W        W12348   6.306   9.014   6.055 -0.1387  0.0095 -0.0739
12149W        W12349   7.107   3.531   2.608  0.0110  0.0358 -0.0884
12150W        W12350   2.907   9.111   5.565  0.0025  0.1065  0.2456
12151W        W12351   5.855   3.144   2.236  0.2682 -0.1863 -0.2467
12152W        W12352  11.097   0.935   8.934 -0.1773 -0.1475  0.1863
12153W        W12353  15.089  15.000   3.070  0.1171  0.0308  0.0711
12154W        W12354  12.560  14.588  13.976  0.0364  0.1421 -0.0930
12155W        W12355   3.511  17.594   1.213  0.1616  0.2712 -0.1281
12156W        W12356  16.703   3.482   4.672 -0.3481 -0.1410 -0.1554
12157W        W12357   4.661   6.019   6.034 -0.0017 -0.1400 -0.2624
12158W        W12358  14.588   8.427   9.762  0.1567 -0.1411 -0.1535
12159W        W12359   3.617   1.918   5.576  0.1382  0.2551  0.0700
12160W        W12360   5.085   7.894  17.583 -0.0901  0.2316  0.1057
12161W        W12361   8.512   0.868   0.749 -0.4371  0.0089  0.1224
12162W        W12362   9.878   0.645   0.643  0.0053  0.2359  0.0487
12163W        W12363   6.048   6.640   7.360 -0.2759  0.2942 -0.0728
12164W        W12364  11.255  10.658  10.291 -0.0780  0.3022 -0.1028
12165W        W12365   4.651   8.478   8.693  0.0625  0.1523  0.0792
12166W        W12366  15.037   7.291  15.902 -0.1193  0.0282 -0.1684
12167W        W12367  15.685   2.074   2.057  0.2287  0.0061  0.2942
12168W        W12368   1.032  13.548   6.957  0.1834  0.0673  0.1591
12169W        W12369   1.466   7.557   1.765  0.0740  0.0038  0.3395
12170W        W12370   3.450  12.450  12.724 -0.2038 -0.1103 -0.2114
12171W        W12371  13.879   1.904  15.245 -0.1305  0.0957 -0.0598
12172W        W12372  10.434  14.122  15.376 -0.3411  0.0292  0.0095
12173W        W12373   3.197   6.471   3.214  0.2296  0.0551 -0.1260
12174W        W12374   5.282  11.206   7.880 -0.3905  0.0163  0.4160
12175W        W12375   6.756   4.154   2.597 -0.1996  0.1851  0.0221
12176W        W12376   0.968  10.944  17.955 -0.0067 -0.1423  0.1479
12177W        W12377   4.259   3.249   7.945  0.0623 -0.1451  0.2670
12178W        W12378   1.872   9.240   8.024 -0.5329  0.0695 -0.1239
12179W        W12379  11.646  13.115   9.042 -0.1062  0.0127  0.0848
12180W        W12380   5.578   0.489   2.587 -0.1389 -0.2485  0.0917
12181W        W12381   6.355  18.013   0.422 -0.2321  0.0612 -0.3603
12182W        W12382   3.347   7.742   5.023 -0.1737 -0.1748  0.1569
12183W        W12383   3.647   1.916   4.500 -0.2167 -0.3980 -0.0577
12184W        W12384   0.494   6.860   6.061 -0.0885 -0.2175  0.0752
12185W        W12385   3.901   6.937  12.790  0.0942 -0.2234  0.1547
12186W        W12386   2.790   5.279   4.191 -0.1328 -0.0139  0.1692
12187W        W12387   8.897  15.403  12.172 -0.1682 -0.0999 -0.0637
12188W        W12388   1.295  11.067  10.975  0.3192 -0.2012 -0.1386
12189W        W12389   8.349   8.301  15.329  0.1758 -0.1538 -0.0606
12190W        W12390   7.703  10.232   6.669  0.2021 -0.2129  0.0159
12191W        W12391   7.751   0.842  16.088 -0.0531  0.0941  0.0547
12192W        W12392   6.427   6.453  17.096 -0.5031 -0.1681  0.0240
12193W        W12393   7.574   9.718  17.618 -0.0448 -0.2201  0.0921
12194W        W12394   4.526   5.838   0.397 -0.1110 -0.0847 -0.1328
12195W        W12395   5.786   6.563  16.919 -0.4703  0.0389  0.0304
12196W        W12396  13.210  17.472  16.751 -0.0592  0.0293  0.1730
12197W        W12397  10.695   0.013   0.020  0.1895  0.0766  0.1445
12198W        W12398  16.469   8.414  16.384  0.2874  0.0112 -0.3514
12199W        W12399  11.054   6.471   5.431 -0.2254 -0.1362 -0.2235
12200W        W12400   1.819   0.881  16.244 -0.2763 -0.0023 -0.1227
12201W        W12401   1.933   5.654  17.206 -0.1515 -0.0715  0.1602
12202W        W12402   9.906  13.381  17.561 -0.0396  0.2694 -0.1559
12203W        W12403  11.016   8.458  15.184 -0.0385  0.0821  0.0337
12204W        W12404   0.259   8.489   1.683 -0.0361 -0.0447  0.0800
12205W        W12405   9.285  14.664   3.613  0.1860 -0.2629 -0.2731
12206W        W12406   4.495  14.339  14.179 -0.0908 -0.2432 -0.0978
12207W        W12407  12.019   9.474  14.441  0.3571 -0.1613  0.2074
12208W        W12408  12.471  17.526  11.952  0.0028  0.0981 -0.4179
12209W        W12409   5.383   3.460   2.167  0.1455  0.0412 -0.0946
12210W        W12410   4.001   2.377  10.880 -0.2460 -0.2442 -0.1744
12211W        W12411   3.162   6.375   4.412  0.0349  0.1350  0.1775
12212W        W12412   7.298   6.534  17.675  0.0370 -0.2313 -0.0941
12213W        W12413   3.202   8.539  17.974  0.0203 -0.0377 -0.1409
12214W        W12414   0.387   5.036  16.218  0.3966  0.1497  0.0194
12215W        W12415   0.895   6.448   4.513  0.1826  0.3005  0.1458
12216W        W12416   4.189   7.187  18.132 -0.1720  0.2057 -0.0144
12217W        W12417   8.405  11.216   7.278 -0.1500  0.3710  0.1499
12218W        W12418   5.438  11.870  17.481  0.0789 -0.0197  0.1400
12219W        W12419   0.168   0.131  13.389  0.0606 -0.0867 -0.1406
12220W        W12420   3.321  11.762   3.884 -0.0020 -0.2555  0.0216
12221W        W12421   4.593   0.862   7.894 -0.0763 -0.2168 -0.1187
12222W        W12422  12.122  16.372   8.289  0.1357 -0.2492 -0.2250
12223W        W12423  11.128   1.440  15.948  0.0131  0.1318 -0.0004
12224W        W12424  13.781   2.183   4.869  0.1210 -0.1474  0.0423
12225W        W12425   2.875  17.195   3.148 -0.0508  0.2003 -0.3564
12226W        W12426   1.856   5.123   2.110 -0.2764  0.2227  0.0169
12227W        W12427   6.720   3.111  12.027  0.2447  0.0590 -0.0865
12228W        W12428   7.928  17.778  16.485  0.2376  0.0207  0.3960
12229W        W12429  10.410   4.328  16.998 -0.0247 -0.1772 -0.0625
12230W        W12430   8.269   2.142  17.072  0.2440 -0.1238 -0.0963
12231W        W12431   5.731   7.397  11.381  0.0567  0.2724 -0.1399
12232W        W12432   5.029   1.127  15.977  0.0223  0.0013 -0.2433
12233W        W12433   9.393   8.387   2.178  0.0369 -0.1798 -0.3828
12234W        W12434   8.430   8.037  15.855 -0.1552 -0.0256  0.0446
12235W        W12435   4.139   7.611   0.213 -0.2622 -0.1436 -0.3391
12236W        W12436   9.490   2.981   5.305 -0.0204  0.1967  0.2625
12237W        W12437   4.627  12.393   4.114  0.1059  0.0568  0.2161
12238W        W12438   7.292   8.588   1.055  0.1579  0.1787 -0.1317
12239W        W12439   6.058   6.936  15.296 -0.3331 -0.2072  0.3109
12240W        W12440   2.004  13.402  12.814 -0.1056 -0.1103  0.1411
12241W        W12441  10.494  10.632  11.171  0.0850  0.1776  0.0094
12242W        W12442   1.252   2.782  11.818 -0.0885 -0.1125  0.1438
12243W        W12443   5.455   9.965   8.664  0.1094 -0.0001  0.0025
12244W        W12444   9.038  10.562   8.415  0.1438 -0.4387 -0.3432
12245W        W12445   5.443   4.328  12.876 -0.2139 -0.2021 -0.0286
12246W        W12446   5.939   9.305   5.850  0.0192 -0.0010 -0.0884
12247W        W12447   1.901   0.634  16.685 -0.0235  0.1567 -0.2981
12248W        W12448   1.386  13.135  15.757 -0.0174 -0.0530  0.0860
12249W        W12449  14.778   8.373  16.406 -0.1980 -0.0100  0.0024
12250W        W12450   8.628   9.370   3.331 -0.1241  0.1335 -0.4702
12251W        W12451   8.524   7.091   5.611  0.1076  0.1273 -0.1411
12252W        W12452   4.508   0.989  17.621 -0.2043 -0.3520 -0.0592
12253W        W12453   4.254   9.415  13.881  0.4457  0.1313  0.0435
12254W        W12454   0.994   8.659  12.740  0.1467  0.2485 -0.0577
12255W        W12455   4.079   2.449   6.221  0.0081 -0.0094  0.1052
12256W        W12456   6.930   4.888  14.015 -0.0208  0.2757 -0.0005
12257W        W12457   6.151   9.018   2.743 -0.1340 -0.1409  0.2411
12258W        W12458   3.488   3.106   1.814  0.1636 -0.1538  0.2939
12259W        W12459   1.582  11.844  13.336  0.0133 -0.0876 -0.0500
12260W        W12460   5.636   8.607   8.713  0.1635 -0.1101 -0.2741
12261W        W12461   5.818   9.454  15.070  0.1723  0.0346  0.1800
12262W        W12462  16.597   7.383   8.522 -0.0479 -0.1717  0.5461
12263W        W12463   7.583   5.506  17.632 -0.4407 -0.2847 -0.0993
12264W        W12464   2.376   3.108   3.932  0.0617 -0.0536 -0.1246
12265W        W12465   7.159   5.259  15.584 -0.1154  0.2543  0.0409
12266W        W12466   7.958   2.759   1.537  0.0115  0.1101 -0.1351
12267W        W12467   6.667   5.153   9.084 -0.2881 -0.1776 -0.1062
12268W        W12468   5.546   7.801  10.114 -0.1285 -0.0813  0.1656
12269W        W12469   0.534   3.480  12.813  0.0251  0.0314 -0.2803
12270W        W12470   7.972   1.495  16.755  0.0547  0.1804 -0.0452
12271W        W12471   4.029   7.930   4.331 -0.0657  0.1529  0.4667
12272W        W12472  11.427  10.461   2.811  0.1185  0.1879  0.0076
12273W        W12473   8.709  12.732   1.421  0.0210  0.0568  0.0164
12274W        W12474   7.675  12.627  17.114  0.0235 -0.0216 -0.2119
12275W        W12475   6.923   7.175  13.161 -0.2794  0.4713 -0.3348
12276W        W12476   5.665   6.429   5.086  0.2740 -0.3352  0.0414
12277W        W12477  17.873   7.094  10.518 -0.1833 -0.1497 -0.0434
12278W        W12478   9.053   7.582  12.078 -0.0473  0.0296  0.0548
12279W        W12479   1.631  15.735  16.167  0.0511  0.4383 -0.2948
12280W        W12480   0.110   2.112  14.418 -0.0731  0.0356  0.1350
12281W        W12481   7.522   3.299   0.789  0.0252  0.0808 -0.1585
12282W        W12482   1.370   9.665   9.096  0.4125 -0.2214 -0.3266
12283W        W12483   0.295  11.122   1.158  0.1681  0.3130  0.0081
12284W        W12484   5.195   3.446  11.872 -0.1505  0.1286 -0.1149
12285W        W12485  14.103   3.702  17.199  0.2888  0.2220 -0.1435
12286W        W12486  16.203   8.028   4.410 -0.3178 -0.3307  0.1909
12287W        W12487  12.062   2.142   5.117  0.0947  0.0670  0.2079
12288W        W12488   9.297   8.826   4.232  0.2275  0.0036 -0.0109
12289W        W12489   5.111   4.505   7.515  0.0306  0.0700  0.2067
12290W        W12490   4.249  11.266   1.140 -0.1894  0.3585  0.1349
12291W        W12491   0.615   4.494  17.715  0.1508  0.0624 -0.1334
12292W        W12492   6.548   6.855  16.619  0.1573  0.0835 -0.0482
12293W        W12493  14.613   5.825  13.338  0.1572  0.1669 -0.1273
12294W        W12494   2.666   5.083   0.804  0.1086 -0.0158  0.0783
12295W        W12495   6.502   2.549   1.622  0.0158 -0.0385 -0.0463
12296W        W12496   0.180  13.515   7.929  0.0790  0.1413  0.0962
12297W        W12497  13.441  17.359   5.147 -0.3256 -0.0178 -0.1758
12298W        W12498   8.512   1.161   3.334 -0.2500 -0.0914 -0.1949
12299W        W12499  17.539   7.731   5.008 -0.1362  0.3474  0.0711
12300W        W12500   3.177  13.641   8.700 -0.0266 -0.2315  0.0417
12301W        W12501   8.178   3.016   0.171  0.0045  0.0495  0.2141
12302W        W12502   4.467   9.113  14.642  0.0633  0.0881 -0.0572
12303W        W12503  17.967   5.167  17.433  0.0358 -0.1928  0.3089
12304W        W12504   4.058  11.223   3.959  0.0577  0.3316 -0.2371
12305W        W12505   4.307   2.071   1.011  0.5724  0.2863  0.1136
12306W        W12506  14.187   5.341   3.061 -0.1909  0.2999 -0.3036
12307W        W12507   7.617   6.543   4.699  0.0793 -0.0452  0.1370
12308W        W12508   6.921  15.278  15.369  0.0098  0.2981 -0.2047
12309W        W12509  17.006   8.361  16.477 -0.0329 -0.0760  0.2089
12310W        W12510   7.990  15.358  17.946  0.0369 -0.1128 -0.1380
12311W        W12511  11.314   2.780   8.286  0.3849 -0.0010 -0.3558
12312W        W12512   6.412   7.429  11.135 -0.0447  0.1122  0.2254
12313W        W12513  11.328   5.345   3.266  0.2332  0.0603 -0.2614
12314W        W12514   6.249   0.899  15.443 -0.0582 -0.0977  0.3547
12315W        W12515  12.140   8.933  17.150  0.2042 -0.0144 -0.0067
12316W        W12516   4.752   8.778   6.005  0.1512  0.1162  0.1077
12317W        W12517  13.501   6.410  16.033 -0.0598  0.0581 -0.0753
12318W        W12518  17.320   3.272  17.094 -0.2066  0.0388  0.0243
12319W        W12519  17.136  12.440   0.832 -0.2259 -0.0206  0.0575
12320W        W12520   3.600   3.737  11.117 -0.5019 -0.2406  0.2031
12321W        W12521   0.384   6.647   9.826 -0.0519 -0.0502 -0.1363
12322W        W12522   4.549   7.453   2.672 -0.2475 -0.2490 -0.1483
12323W        W12523   3.300  14.229   0.866 -0.1033  0.1926  0.0281
12324W        W12524   3.357   9.019  15.330 -0.0278  0.2925  0.0298
12325W        W12525   7.586   5.871  17.257 -0.4807  0.1910  0.1660
12326W        W12526  10.538   6.532   3.360 -0.0413 -0.0021 -0.2291
12327W        W12527   4.128  17.593  15.411  0.0347  0.0245 -0.0595
12328W        W12528   3.345   0.652   5.582  0.2186 -0.0282  0.2276
12329W        W12529   3.074   8.922   2.184  0.0188  0.0860  0.0109
12330W        W12530   6.163   5.242   5.628 -0.0680  0.0485  0.0822
12331W        W12531   6.630  12.298   6.711  0.1507 -0.0344  0.1175
12332W        W12532   9.477   6.569   4.906 -0.1521 -0.1297  0.1326
12333W        W12533   8.822   3.303  15.977  0.0571  0.3061 -0.0552
12334W        W12534   7.735  11.396   2.435  0.0201 -0.0954  0.2213
12335W        W12535   3.569  12.235  13.867 -0.1918  0.0161 -0.0343
12336W        W12536   8.888  16.684  10.211  0.0388 -0.0120  0.0986
12337W        W12537   7.686   6.905   4.369  0.5136 -0.2728 -0.1335
12338W        W12538   1.742   0.829   8.203 -0.2891  0.2995  0.0496
12339W        W12539  15.031   1.664   9.379 -0.0085  0.2163  0.1215
12340W        W12540   4.300   8.078   3.967 -0.1213  0.1041  0.0419
12341W        W12541  11.335   2.806   4.848  0.2162 -0.2242  0.2862
12342W        W12542   3.241  15.390   7.178  0.3150 -0.1496 -0.0417
12343W        W12543   4.829   0.320   0.355  0.1470 -0.0023  0.2570
12344W        W12544   3.943  11.550   9.755 -0.0356 -0.0761  0.2431
12345W        W12545   9.286   6.271   5.294  0.0782 -0.0370 -0.0025
12346W        W12546   0.894  14.513   4.598  0.0972  0.0364  0.2231
12347W        W12547   2.073  12.696  17.378 -0.1544 -0.0097 -0.2785
12348W        W12548   5.855  17.725   1.591  0.4117  0.0321  0.0982
12349W        W12549   5.421   6.051   1.733 -0.1264  0.3986  0.1316
12350W        W12550   6.269   5.064   3.109  0.2184  0.0570 -0.2142
12351W        W12551  14.845   3.107  10.224 -0.3295 -0.1294 -0.0316
12352W        W12552   6.275   9.323  14.369  0.0725 -0.0212 -0.1878
12353W        W12553  17.503  12.194   0.001 -0.2020  0.0776  0.2538
12354W        W12554   5.897   8.711   5.572 -0.1958  0.2540  0.2591
12355W        W12555  15.271   5.475  14.762  0.3393 -0.2907  0.1240
12356W        W12556  17.055   3.245   2.738  0.0807  0.0166  0.2838
12357W        W12557  11.184   3.959  16.618  0.0604  0.0807  0.0860
12358W        W12558   5.484  17.832  11.128 -0.2009 -0.3530  0.0039
12359W        W12559  13.280  10.918  13.764  0.2116  0.0075 -0.2139
12360W        W12560   8.012  11.482  15.968 -0.1805  0.1535  0.1415
12361W        W12561   6.431  11.076  15.499  0.0022 -0.2141  0.0804
12362W        W12562   4.909   9.764  13.231 -0.0451 -0.0949  0.1632
12363W        W12563   3.247  10.582   2.163  0.0978  0.0061  0.1075
12364W        W12564   6.438   0.686   1.704 -0.1805 -0.1687 -0.2722
12365W        W12565  13.971  11.563   3.186 -0.3918 -0.2728  0.2871
12366W        W12566   7.912   4.447  16.186  0.0447  0.0525 -0.1748
12367W        W12567   4.636   3.746  17.667 -0.0252  0.0421  0.0163
12368W        W12568   6.398  16.209   3.680 -0.2022  0.1155  0.4364
12369W        W12569  17.187   3.273   4.473 -0.1818  0.3538  0.2163
12370W        W12570  18.058   2.887   5.496 -0.0398 -0.1594  0.1182
12371W        W12571  11.962  15.034   2.672  0.1473  0.3964  0.0767
12372W        W12572   6.727  15.401  12.790  0.0816 -0.1445 -0.0366
12373W        W12573   0.681   2.415   3.314 -0.0086  0.0491 -0.0635
12374W        W12574   2.946   7.177   1.759 -0.2342 -0.1564 -0.0717
12375W        W12575   9.108  15.522   2.495  0.2593  0.1568  0.1769
12376W        W12576   5.265   6.586   0.281 -0.0343 -0.0733  0.2765
12377W        W12577   7.824   7.433   5.979 -0.0615  0.2638 -0.0896
12378W        W12578   6.895  11.345  13.488  0.0040 -0.1239  0.1208
12379W        W12579   2.917  12.200   9.851 -0.1411 -0.0172  0.2439
12380W        W12580   6.250  11.724  11.404 -0.0564 -0.1299  0.2023
12381W        W12581   5.383   9.364   0.731  0.0550 -0.2132 -0.3125
12382W        W12582   7.524   9.833   0.952  0.0177  0.1457  0.1922
12383W        W12583   6.737   4.518   6.546  0.2961 -0.1508  0.0916
12384W        W12584   1.130   2.414   7.999 -0.1222 -0.1175 -0.1492
12385W        W12585   2.572  14.721  10.144 -0.0397 -0.1742  0.1855
12386W        W12586  12.962   9.506   1.017 -0.2979  0.0030 -0.2729
12387W        W12587   7.917   5.172   7.116 -0.1014  0.2458 -0.2208
12388W        W12588   5.534  11.375  17.443  0.1717  0.1356 -0.1429
12389W        W12589   2.477   8.791  13.867  0.0104  0.3278 -0.0404
12390W        W12590   5.115   4.653   0.952 -0.0827 -0.2331  0.2241
12391W        W12591   6.891   5.230   4.284  0.0387  0.3217 -0.1744
12392W        W12592   6.808   7.292  17.418  0.1856 -0.1007 -0.2547
12393W        W12593   4.809   4.978   4.668 -0.0282  0.1461 -0.1075
12394W        W12594   0.089   7.969  15.357 -0.0285 -0.4866  0.1368
12395W        W12595  14.274  12.132   9.396  0.2361 -0.0707  0.0454
12396W        W12596   2.303   9.658   6.146  0.2852  0.0824  0.0934
12397W        W12597   2.539   0.037  14.080 -0.2020  0.2303 -0.1388
12398W        W12598  11.872   8.986  11.744  0.0279  0.1121 -0.0805
12399W        W12599   3.057  10.829   1.203  0.0601 -0.2741 -0.1797
12400W        W12600  17.663   8.611   2.354  0.0951  0.2560  0.1283
12401W        W12601  11.445   3.089   7.521  0.0350 -0.0841  0.0235
12402W        W12602  13.209   5.495  14.931  0.0019  0.2168 -0.0424
12403W        W12603  10.823  16.383  13.391 -0.3468  0.0992 -0.0267
12404W        W12604  14.864  16.317   8.136 -0.0717 -0.0840 -0.4487
12405W        W12605   1.452   3.140   8.239 -0.1218 -0.0972 -0.1038
12406W        W12606  13.125   9.696  17.109 -0.3824  0.4197  0.0707
12407W        W12607  15.224   7.381  11.903 -0.2090  0.1338  0.1667
12408W        W12608   4.011   2.954   0.248 -0.3620  0.1997 -0.1309
12409W        W12609   3.816  14.492  17.878  0.1934 -0.3375  0.0200
12410W        W12610   2.118   8.387   4.685 -0.3735  0.3341  0.0188
12411W        W12611   9.451   1.261   8.585  0.1883  0.0576 -0.4463
12412W        W12612   0.921   4.691  14.695 -0.3974  0.2555 -0.4841
12413W        W12613   4.094   1.973   1.816  0.1553 -0.0401 -0.2027
12414W        W12614   4.782   3.477   3.359 -0.0784 -0.1128  0.1785
12415W        W12615  17.716  10.432  16.774  0.2646 -0.0098 -0.2244
12416W        W12616   8.582  14.612   8.413  0.0956 -0.1220  0.3304
12417W        W12617  11.983   4.582   4.233  0.0160 -0.2434 -0.5308
12418W        W12618   3.615   5.333   8.780 -0.0709 -0.0849  0.0578
12419W        W12619  12.120   5.966   7.161 -0.1263 -0.0055 -0.3599
12420W        W12620  12.923  16.791  13.203 -0.0344  0.1833  0.2353
12421W        W12621   5.145   6.846  16.583  0.0380 -0.2558  0.3655
12422W        W12622  14.168   5.914   9.260  0.1754 -0.0099 -0.0194
12423W        W12623   3.213   4.285   3.503 -0.2349  0.0142 -0.0714
12424W        W12624   3.923   9.935   6.987  0.0517 -0.0167 -0.0271
12425W        W12625   5.013  10.690   8.983 -0.0576  0.0194  0.1265
12426W        W12626   6.919   6.637   6.028  0.0212  0.0676 -0.0747
12427W        W12627   2.396   8.113   9.443  0.3209 -0.0716  0.2304
12428W        W12628   6.349   9.597   5.308  0.2912  0.2916 -0.3023
12429W        W12629  13.844   2.457   2.199 -0.3388 -0.2748  0.2092
12430W        W12630   7.124   4.500   3.459  0.0317  0.0700  0.3892
12431W        W12631   4.675   5.673   8.091  0.1195 -0.1994  0.3343
12432W        W12632   8.185   8.964   5.902 -0.0921  0.1352 -0.0280
12433W        W12633   7.351  17.156   7.064 -0.0297  0.4037 -0.1695
12434W        W12634  13.376   9.467   1.951  0.1270  0.0677 -0.1345
12435W        W12635  13.770  17.585   7.428  0.2911 -0.0186 -0.1140
12436W        W12636   5.242   4.760   4.797 -0.1092 -0.1730  0.1689
12437W        W12637   3.542   4.068   3.808  0.0673 -0.3261 -0.1507
12438W        W12638   1.576   7.127   9.775 -0.1405 -0.0647 -0.4482
12439W        W12639  12.139   3.277  11.596 -0.1974 -0.2217 -0.0421
12440W        W12640  11.172   3.409   2.867 -0.1003  0.0746 -0.3932
12441W        W12641   6.409  14.384   3.485  0.1907  0.0036  0.2056
12442W        W12642   7.445   4.917   3.455  0.0417  0.1504 -0.2473
12443W        W12643   9.866  10.130   5.773  0.0969 -0.1300 -0.1402
12444W        W12644   5.827   2.310   7.364 -0.0767  0.0346 -0.0297
12445W        W12645   3.358  12.253   9.318  0.1666  0.0761  0.0594
12446W        W12646  14.090  18.078   7.264  0.0970 -0.2835 -0.0607
12447W        W12647  14.666   6.800   2.492  0.0408 -0.0471  0.3326
12448W        W12648   8.987   1.800  16.410  0.1408  0.1703 -0.0194
12449W        W12649  17.377   3.748   8.036 -0.0062  0.5070 -0.0500
12450W        W12650  13.057   8.153   5.494 -0.0559  0.3092  0.1346
12451W        W12651  11.616   9.680   5.630 -0.3368 -0.0457 -0.0548
12452W        W12652   9.341   5.063   9.341 -0.0444 -0.2748  0.0828
12453W        W12653   8.524   7.780  15.433 -0.0625  0.0990 -0.2003
12454W        W12654  14.351   6.916   2.941 -0.0507  0.0073  0.2712
12455W        W12655   8.681   4.933  18.157  0.0453 -0.1436  0.0782
12456W        W12656   8.361   4.546   9.647 -0.1996  0.2183  0.1618
12457W        W12657  11.043   3.891  15.748  0.3131 -0.0687  0.0534
12458W        W12658   8.190   3.658   1.288 -0.1656  0.2415  0.1381
12459W        W12659  11.867   5.658  10.743  0.0081 -0.1718 -0.3197
12460W        W12660   1.400   0.994   0.345  0.0625 -0.3273 -0.3259
12461W        W12661  11.497   8.505   1.858  0.3279  0.1590 -0.2449
12462W        W12662  11.443  10.137   2.356 -0.0682  0.0081 -0.0650
12463W        W12663  15.228   0.571  10.044 -0.1811  0.1819 -0.1906
12464W        W12664  13.202   7.831   8.503  0.1583 -0.0481 -0.0012
12465W        W12665   1.399  17.979   6.009  0.1363 -0.0763 -0.1387
12466W        W12666  12.414  10.963   6.727  0.0331  0.0433  0.0361
12467W        W12667   6.098   8.598  11.238  0.0364  0.1259 -0.2710
12468W        W12668   7.934   1.707   2.064  0.2113 -0.0072  0.0417
12469W        W12669   9.891   5.397   8.135  0.3698 -0.3571  0.2031
12470W        W12670  11.103   9.467   2.823 -0.0842  0.0945 -0.3033
12471W        W12671   4.090  14.940   4.331  0.0180 -0.1654  0.0320
12472W        W12672   1.082   2.470   5.519 -0.0462  0.0445 -0.0750
12473W        W12673  12.037   6.463   8.710 -0.2993  0.2208  0.1065
12474W        W12674   8.358   7.797  10.021  0.0996  0.1029  0.0012
12475W        W12675   7.228   4.808   7.393 -0.0955  0.0714 -0.0083
12476W        W12676  13.607   9.574  12.104  0.2338 -0.3191 -0.0511
12477W        W12677  15.013  11.755   7.593  0.0134  0.2122 -0.1249
12478W        W12678   5.596   2.391   3.130 -0.0445  0.2215  0.1472
12479W        W12679   5.454   9.113   5.656  0.1818 -0.1510 -0.3113
12480W        W12680   2.657   4.083   1.093  0.1406  0.0383  0.0031
12481W        W12681  10.233   9.648   3.326  0.1714 -0.0637  0.2728
12482W        W12682   3.308   4.678   5.484  0.1361 -0.0910 -0.0667
12483W        W12683  15.492   1.208  10.017 -0.0331  0.2763  0.1418
12484W        W12684   5.110  12.705   3.407  0.1505  0.0335  0.1377
12485W        W12685   5.383   9.732   0.372  0.2952 -0.0656 -0.2012
12486W        W12686   4.368   6.468   1.590  0.0363  0.1141  0.1175
12487W        W12687   0.496   1.392   2.702  0.2413  0.1974 -0.1225
12488W        W12688   4.810  18.042   0.114 -0.3648  0.4769 -0.1374
12489W        W12689   9.610  17.015   0.477  0.1865  0.2692 -0.3602
12490W        W12690   9.949   8.925   9.458 -0.1587 -0.4324  0.0491
12491W        W12691   6.667   1.327   5.171 -0.2412 -0.0448  0.0584
12492W        W12692  14.574  11.968   0.912 -0.3366  0.2320  0.0092
12493W        W12693   9.843   4.369   9.416 -0.3311  0.3700 -0.0932
12494W        W12694   1.066   7.389   1.962  0.0948 -0.2365  0.1318
12495W        W12695   2.762   1.379   5.899  0.0853 -0.0967 -0.3372
12496W        W12696   7.849   2.584   1.060 -0.2517  0.0504  0.0146
12497W        W12697   3.119  13.823   5.420 -0.0752 -0.0585  0.1577
12498W        W12698   2.843   4.547   5.679 -0.1231 -0.0316 -0.0629
12499W        W12699  12.907   4.209  17.726 -0.0211  0.0590 -0.4503
12500W        W12700  15.087   3.015   0.376  0.0620  0.0685 -0.0439
12501W        W12701  10.791   5.877  14.916 -0.0548  0.1075 -0.0151
12502W        W12702   8.669   0.181   3.326 -0.0090  0.0651  0.0078
12503W        W12703   9.025   2.201   9.140  0.0665 -0.3026 -0.0254
12504W        W12704   4.389   0.410  16.605 -0.1663 -0.1923  0.2084
12505W        W12705   3.339  12.362  13.317  0.0632 -0.3395  0.1829
12506W        W12706   3.020  17.658   5.348  0.1089 -0.3001 -0.1656
12507W        W12707   6.853   1.565   8.450  0.0434 -0.1115  0.0214
12508W        W12708   3.155   4.953   8.095 -0.0647  0.1327  0.0631
12509W        W12709  17.502   9.273   6.149  0.3249  0.0198  0.2948
12510W        W12710   3.037  16.015   4.915  0.1392  0.1982 -0.0822
12511W        W12711  11.005   4.312   3.256  0.0305  0.2043 -0.0281
12512W        W12712  13.439   0.224   1.074  0.0692 -0.0393 -0.0311
12513W        W12713   4.386   2.583  10.713 -0.0119 -0.1967 -0.0169
12514W        W12714   7.220  11.267   5.553 -0.2173 -0.0374 -0.4501
12515W        W12715   9.093  11.990   3.562 -0.2130 -0.0427  0.2923
12516W        W12716  11.337  10.949   0.555  0.0474 -0.2540  0.1416
12517W        W12717   5.948   5.277  12.126  0.2523  0.3015 -0.2873
12518W        W12718  10.728   4.249   2.044 -0.3650  0.2227 -0.4064
12519W        W12719   1.039   5.250   6.030 -0.1469 -0.2779 -0.2049
12520W        W12720   3.432   4.371   9.302 -0.1794  0.2117 -0.1212
12521W        W12721   4.892   8.759   4.382  0.2912 -0.1399 -0.0538
12522W        W12722  16.101   6.855   2.960  0.0833 -0.1273 -0.0970
12523W        W12723  14.900   3.652   6.752  0.1463  0.2078 -0.0754
12524W        W12724  16.573  17.849   9.574  0.0124 -0.2448 -0.1775
12525W        W12725   2.549  16.575   0.067 -0.1904  0.2886 -0.0282
12526W        W12726  15.876   0.228   6.338  0.0965 -0.3084  0.0194
12527W        W12727  11.207   9.185  12.756 -0.2433  0.1352 -0.1599
12528W        W12728  10.078   3.406   1.144  0.0575 -0.2574 -0.2351
12529W        W12729  12.075  10.891   9.988 -0.0366 -0.1490 -0.1518
12530W        W12730   9.866   8.971   0.511 -0.1365  0.2389  0.0089
12531W        W12731  13.356   5.454  11.634  0.1436 -0.0777  0.0500
12532W        W12732  10.220   7.475   2.688  0.2336  0.1186 -0.1803
12533W        W12733  14.530   0.666   7.395 -0.1234 -0.1939 -0.0192
12534W        W12734   8.510   8.149   3.353 -0.2053  0.0369  0.1849
12535W        W12735   3.159   5.511  12.025 -0.2909 -0.1191 -0.0769
12536W        W12736   8.680   1.430  17.287  0.0286  0.1655 -0.1442
12537W        W12737   3.416   2.168   1.246  0.0687 -0.1439 -0.2148
12538W        W12738   6.094   9.981  10.039 -0.0553  0.2058  0.2182
12539W        W12739  17.098  13.026   6.889 -0.2078  0.2822  0.1902
12540W        W12740   5.075   9.771   6.170  0.0577 -0.2541 -0.2148
12541W        W12741   3.006   7.547   6.531  0.1479 -0.0075 -0.0794
12542W        W12742   8.537  10.007   3.965 -0.0345 -0.0248  0.0801
12543W        W12743  10.192   7.349   8.720 -0.3141 -0.0245 -0.1694
12544W        W12744  14.539   4.850  10.855  0.0424  0.1386  0.0711
12545W        W12745   7.997   8.657   2.099  0.0244 -0.1452  0.0406
12546W        W12746  12.132   0.565  14.548 -0.1745 -0.0724 -0.3507
12547W        W12747  10.529  14.774   0.324 -0.1863 -0.0834  0.1094
12548W        W12748   0.896   9.557   9.891 -0.1217 -0.1146  0.3938
12549W        W12749   7.625   5.364   9.344 -0.0502 -0.0178  0.1924
12550W        W12750   0.685  10.927  14.755  0.2136  0.0216 -0.1367
12551W        W12751  11.636   2.310  17.480 -0.1952 -0.1800  0.0049
12552W        W12752   4.375   2.436   9.067  0.0719 -0.1919 -0.2005
12553W        W12753   7.880   8.456   4.548  0.0762  0.1127 -0.0207
12554W        W12754  15.449   3.749   0.924  0.1035 -0.0170 -0.0270
12555W        W12755   3.964  17.679   5.336 -0.0167 -0.3349  0.0667
12556W        W12756   7.852   5.318  11.870  0.1275 -0.3787  0.1470
12557W        W12757   2.423  11.193   0.205 -0.2120  0.0396 -0.1322
12558W        W12758   8.199  10.903   6.906 -0.1929 -0.3196  0.1346
12559W        W12759  17.058   9.591   1.398 -0.0048  0.3014  0.0909
12560W        W12760   4.525   5.130   3.765  0.1973  0.2872  0.1376
12561W        W12761   7.802   7.190  14.408  0.1021  0.0461 -0.2483
12562W        W12762   4.414   0.523   3.315 -0.0968 -0.0603 -0.0827
12563W        W12763  16.757   5.926  10.119 -0.4198 -0.0979 -0.1807
12564W        W12764   4.952   7.674   2.445 -0.1752  0.1009  0.0626
12565W        W12765   4.620   3.017   9.967  0.0653  0.0335  0.5193
12566W        W12766   5.266   9.642  18.016  0.1718  0.1148 -0.0067
12567W        W12767   0.708   5.152   9.329  0.3652 -0.2946  0.1569
12568W        W12768   0.004  12.134   1.194 -0.1095  0.1316 -0.2083
12569W        W12769   4.489   2.192   6.564  0.0223 -0.4967 -0.0215
12570W        W12770   7.808   4.540  12.536  0.2044  0.0344 -0.0561
12571W        W12771  17.764  11.134  17.575  0.0513  0.0855  0.3844
12572W        W12772   7.287   5.750   6.041 -0.0200 -0.1034 -0.4271
12573W        W12773   7.861   5.892   5.173 -0.1314 -0.0785  0.1101
12574W        W12774   8.127  15.797  13.242 -0.0090  0.0552 -0.1257
12575W        W12775   6.944   7.196   6.194  0.1210  0.1142 -0.1074
12576W        W12776  11.289   6.334  10.393  0.0165 -0.0745  0.0155
12577W        W12777   4.633   7.847   9.615  0.0036 -0.1457  0.4249
12578W        W12778   3.459   9.212   2.414  0.1457 -0.0028  0.0066
12579W        W12779  15.254  14.815   2.307 -0.0031 -0.0057 -0.0462
12580W        W12780   7.100   1.528   5.548 -0.1646  0.1117 -0.3773
12581W        W12781   5.428   1.489   2.342  0.1208 -0.1746 -0.1024
12582W        W12782   4.270   7.576  13.276  0.0699  0.0444 -0.1772
12583W        W12783   2.896   2.214   4.850 -0.0698  0.1604  0.0369
12584W        W12784   4.467   7.067   8.326 -0.1403  0.0401  0.1664
12585W        W12785   6.042   4.581   3.237 -0.1033 -0.2924 -0.2851
12586W        W12786   9.960   4.766   1.315  0.0798 -0.1477 -0.0653
12587W        W12787   9.381   0.884  16.295  0.0647 -0.1205 -0.0383
12588W        W12788   8.043   8.605   8.133 -0.0183 -0.3673 -0.0212
12589W        W12789  17.967   1.945  10.157 -0.1008  0.2562 -0.2439
12590W        W12790   6.424   7.646   5.793  0.0586 -0.2047  0.1081
12591W        W12791  10.904   5.805   9.008 -0.1142 -0.1885 -0.0366
12592W        W12792   3.695   0.688   0.598 -0.2443 -0.0548 -0.1603
12593W        W12793   2.339   8.077  11.467  0.1736 -0.0007  0.1768
12594W        W12794   5.667   4.663  11.399 -0.3686  0.0755 -0.1322
12595W        W12795   1.134  17.852   1.748  0.1467  0.1846 -0.2968
12596W        W12796   7.324   0.744   4.971  0.0216 -0.0710  0.0303
12597W        W12797   3.062  13.822   4.261 -0.2429 -0.0307  0.4500
12598W        W12798  13.074   5.123   2.762  0.1043  0.1076  0.2310
12599W        W12799  10.390   2.206  15.605  0.0295 -0.1509 -0.0989
12600W        W12800  12.239   4.580   7.069  0.1442 -0.2704 -0.1484
12601W        W12801   9.351   1.226   4.115  0.1835  0.2595 -0.0221
12602W        W12802  15.599  10.149   3.631  0.2743 -0.0263 -0.0644
12603W        W12803   4.105   8.179  18.194 -0.0948 -0.1653  0.0702
12604W        W12804  17.839  12.083   5.263  0.0918 -0.3132  0.0919
12605W        W12805   1.932   2.645   2.559  0.2624  0.1984  0.5283
12606W        W12806   1.609   6.170  16.051  0.2549 -0.1943 -0.0491
12607W        W12807  11.891   2.052   9.772  0.0089  0.0098  0.1919
12608W        W12808   5.895   0.711  16.399 -0.1330 -0.0531 -0.3980
12609W        W12809   1.869   4.791   2.539  0.0266  0.2907 -0.0065
12610W        W12810  12.517  18.026  12.425 -0.0524 -0.0112 -0.0997
12611W        W12811   7.032   0.011   3.345 -0.0206 -0.1279 -0.0258
12612W        W12812   4.379  16.370   1.766 -0.0797 -0.1436  0.0844
12613W        W12813   7.491   6.541   7.049  0.0168 -0.3226 -0.1736
12614W        W12814  11.234   4.834   3.149  0.2752  0.2117 -0.0700
12615W        W12815   2.169   6.996   1.484 -0.0765 -0.0660 -0.1056
12616W        W12816   8.408  13.139  15.736  0.2990  0.0797  0.2205
12617W        W12817   6.345  15.803   2.110 -0.0727 -0.0234  0.0541
12618W        W12818   9.095   7.375   4.313 -0.2857  0.1000 -0.0970
12619W        W12819   4.011   5.163  13.132  0.0194  0.4583  0.2387
12620W        W12820   7.083   7.560  14.842  0.3587 -0.1586  0.2280
12621W        W12821  16.574   0.900   3.873  0.1510 -0.1102 -0.1536
12622W        W12822  11.972   3.934   5.755  0.0645  0.2695  0.0072
12623W        W12823  11.077   0.604   4.216 -0.1459 -0.3270  0.2317
12624W        W12824   0.007   6.165  10.553 -0.1329  0.1686 -0.0948
12625W        W12825   5.101   5.272  10.909 -0.1844 -0.0180 -0.2841
12626W        W12826  10.757   1.584   5.346  0.1357  0.2940 -0.0652
12627W        W12827   9.506   1.216   4.954  0.2710 -0.0122  0.3008
12628W        W12828  10.735   9.772   6.089  0.2679  0.3769 -0.2121
12629W        W12829  12.711   5.115  11.236  0.1060 -0.1360 -0.2615
12630W        W12830   8.443   1.109   6.407  0.0150  0.1734  0.0296
12631W        W12831  10.434   7.749  13.442 -0.1179 -0.2159  0.1460
12632W        W12832  10.007   4.741   8.006  0.1946  0.0585  0.0107
12633W        W12833   8.569   1.710   8.134  0.1906  0.2356  0.2326
12634W        W12834   4.796   4.243   0.780 -0.1626  0.2593  0.1109
12635W        W12835   8.186   6.540   4.592 -0.0776 -0.1438 -0.0806
12636W        W12836   8.209   5.570   6.049  0.1291  0.0877  0.0884
12637W        W12837   6.104   2.226   0.762 -0.2525  0.0124  0.3546
12638W        W12838   3.385   6.658   0.952 -0.1405  0.0658 -0.0756
12639W        W12839  16.265   2.583  13.205 -0.0853  0.1212  0.0210
12640W        W12840   2.864   1.763  13.301 -0.2571 -0.2585 -0.1271
12641W        W12841  13.048   8.757   8.480  0.2292  0.0517 -0.0018
12642W        W12842   2.119  12.937   3.174  0.0057  0.2343 -0.0517
12643W        W12843   8.492  12.329  12.074  0.1392  0.1449 -0.2632
12644W        W12844   7.902   1.892   6.646 -0.3615  0.0652 -0.1895
12645W        W12845   5.391   1.893   9.488  0.2230  0.0193 -0.0816
12646W        W12846  14.266   4.242  14.175 -0.0890  0.2307 -0.2167
12647W        W12847   7.051  11.458  16.031 -0.2535 -0.4294 -0.1828
12648W        W12848   5.253   3.461   4.428 -0.5175  0.0708  0.1515
12649W        W12849   2.318  14.825   3.866  0.2005  0.0244  0.0450
12650W        W12850  11.388   7.397   5.059 -0.1849  0.0086 -0.3565
12651W        W12851   5.872   7.692   4.396 -0.0352  0.0767 -0.2514
12652W        W12852  10.041  11.662  11.880  0.0133  0.0826 -0.1892
12653W        W12853   8.183  16.415  16.910  0.2949  0.0746  0.0039
12654W        W12854   7.488   5.478   8.814 -0.1349 -0.1438  0.0593
12655W        W12855   4.305   7.610   3.059 -0.0706 -0.0623  0.0636
12656W        W12856   9.195  16.835  16.694 -0.1938  0.0161 -0.0626
12657W        W12857   1.507   1.725   5.711 -0.0301  0.2153  0.0764
12658W        W12858   9.990   4.224   2.223 -0.1287  0.2576  0.1813
12659W        W12859  15.208   9.728   6.925  0.1346 -0.0620  0.1306
12660W        W12860   4.252  17.475  13.911 -0.2260  0.1836  0.0414
12661W        W12861   0.687   7.556   1.069  0.2067  0.1161 -0.2411
12662W        W12862   2.586  11.646   0.239 -0.2568 -0.0491 -0.1721
12663W        W12863   0.537   7.728  14.145  0.0270 -0.1083  0.0978
12664W        W12864  12.159  10.053   4.858  0.0963 -0.1778  0.1353
12665W        W12865   1.508   9.676   8.043  0.0823  0.0917 -0.1509
12666W        W12866   7.490   5.148  13.970 -0.1206 -0.2372  0.0999
12667W        W12867   8.276   5.654   4.447  0.0453 -0.0316 -0.1630
12668W        W12868  15.249   4.567   3.959 -0.1992 -0.2149 -0.0221
12669W        W12869  17.916   9.702   2.525  0.0553  0.0306 -0.0979
12670W        W12870   4.506   1.624   2.656  0.4524  0.0502 -0.1516
12671W        W12871  16.439  16.937   9.895 -0.2193  0.2128 -0.3580
12672W        W12872   9.515   2.517   5.560 -0.1523 -0.1186  0.0050
12673W        W12873  13.655   6.708   9.311  0.0136  0.1155  0.1605
12674W        W12874   2.275   6.887   2.489  0.2654  0.1428  0.0281
12675W        W12875   1.179  13.011   2.695  0.0616 -0.0729  0.0463
12676W        W12876   8.855   3.483   5.978  0.4591  0.1535  0.1619
12677W        W12877   4.352   7.820   8.248 -0.2712  0.5206 -0.1697
12678W        W12878   5.712  11.296  13.502  0.0343 -0.1930  0.1735
12679W        W12879   4.838  12.797   2.567  0.1745 -0.0685 -0.3281
12680W        W12880   3.194   2.473  18.053  0.0586 -0.5264 -0.0238
12681W        W12881  13.879  10.084   0.494 -0.5768 -0.1782 -0.0498
12682W        W12882  16.372   0.438   4.732 -0.0280 -0.2263 -0.1143
12683W        W12883   7.746   0.973  10.492  0.1408 -0.2028 -0.1631
12684W        W12884   8.521   4.066   9.670  0.1321 -0.1508  0.1167
12685W        W12885   6.373   4.284   7.542  0.2793 -0.1393  0.0208
12686W        W12886   2.924   4.768   1.144 -0.2238  0.0150  0.0267
12687W        W12887   7.861   4.007   0.083 -0.0857  0.0386  0.2646
12688W        W12888   7.008  12.528   8.186  0.1578 -0.0924  0.0582
12689W        W12889   7.923   5.166   4.842 -0.2027 -0.0408 -0.0987
12690W        W12890   4.679  14.753   6.905  0.0747 -0.0155 -0.4478
12691W        W12891   4.187   1.983  17.123 -0.0463 -0.0377 -0.0590
12692W        W12892   7.706   0.605  13.745 -0.1749  0.1892 -0.1392
12693W        W12893  14.908   5.732   0.088 -0.0256 -0.0352  0.3465
12694W        W12894   4.207   2.257  12.042 -0.2410  0.3208  0.2085
12695W        W12895   0.879   9.860  15.058  0.3597  0.2634 -0.0090
12696W        W12896   8.230  10.368   0.655  0.1138 -0.1146  0.1572
12697W        W12897   1.101  10.545  17.721  0.1031  0.0352  0.1518
12698W        W12898  11.381  17.381   7.001  0.2947 -0.1444 -0.0193
12699W        W12899   6.039   0.346   5.115 -0.2526 -0.0147  0.1316
12700W        W12900   3.391   8.680  12.039 -0.1616  0.3374  0.1138
12701W        W12901   9.668  10.116   8.783 -0.2243  0.1256 -0.1532
12702W        W12902   7.720  16.507   4.415  0.1768  0.0324 -0.3377
12703W        W12903  11.626   8.344  12.950  0.2456 -0.0350 -0.0853
12704W        W12904  17.891   4.573   7.953 -0.2343 -0.1743 -0.0472
12705W        W12905   6.686   7.429  15.806  0.3194  0.1588  0.0424
12706W        W12906  15.218  11.015   0.304  0.0449 -0.2281 -0.2275
12707W        W12907  17.670   5.086   4.241 -0.1839 -0.2158 -0.1190
12708W        W12908  15.697   8.032   9.364 -0.0630 -0.1202  0.0296
12709W        W12909   1.768  12.089   7.480  0.0972  0.0310  0.0582
12710W        W12910  16.043   1.663  15.670 -0.1232 -0.1262  0.1002
12711W        W12911  16.465  17.314   5.590 -0.1164 -0.1767  0.1444
12712W        W12912  15.496   7.191   1.480  0.0009  0.1231 -0.1038
12713W        W12913   7.574  10.298   5.194 -0.1593 -0.1188  0.1416
12714W        W12914  10.715  13.876   6.764  0.0457 -0.0304 -0.0673
12715W        W12915   1.904   5.216  16.839 -0.2604 -0.2987 -0.3526
12716W        W12916   6.778  11.181   7.064 -0.1120 -0.0968 -0.0881
12717W        W12917  11.317  10.437   1.175  0.0823 -0.0147  0.3031
12718W        W12918   2.193   6.168   6.178 -0.2152 -0.0862  0.2964
12719W        W12919   3.595   9.168   1.095 -0.0247 -0.1497 -0.3455
12720W        W12920   5.585  12.696   1.394 -0.0193 -0.0398 -0.0069
12721W        W12921  10.426   7.099   3.074  0.0901 -0.0825  0.0219
12722W        W12922   0.345   2.353   8.059  0.2934  0.0649  0.0406
12723W        W12923   5.278  10.038   5.608  0.1476  0.1149 -0.1236
12724W        W12924  13.913   6.112   1.963 -0.3068  0.2432 -0.1696
12725W        W12925  15.485   4.090   4.031  0.3009  0.1448  0.0029
12726W        W12926   8.850   5.167  15.115 -0.0220 -0.1828  0.0011
12727W        W12927   4.531  16.076   8.612 -0.1336 -0.2231  0.2015
12728W        W12928   4.146  11.226   9.115 -0.0412 -0.0727  0.1317
12729W        W12929   5.197   5.538   1.923 -0.1052  0.0826  0.1926
12730W        W12930  17.348  15.688   7.055 -0.0190 -0.2587 -0.0146
12731W        W12931   3.615  15.461  10.689  0.2531 -0.2538  0.0958
12732W        W12932   7.802   4.271  14.748  0.4302  0.1717 -0.0328
12733W        W12933   8.954   5.111   5.696 -0.0172 -0.1946  0.0243
12734W        W12934   8.196   3.936  12.169 -0.0264 -0.1977 -0.0189
12735W        W12935   7.706   3.648   9.278 -0.1910 -0.0573 -0.0562
12736W        W12936   4.006   8.498   5.713 -0.3501  0.2229  0.1158
12737W        W12937  15.598   7.053   6.723 -0.2328  0.1568 -0.0477
12738W        W12938  16.172   4.426  15.920 -0.1895  0.0024 -0.2453
12739W        W12939  12.773   4.885   9.036  0.1415  0.2167  0.0999
12740W        W12940   7.693   7.664   2.560 -0.1432 -0.1656  0.0372
12741W        W12941   2.579   1.820   4.638 -0.1070 -0.1837 -0.0565
12742W        W12942   6.281   4.009   1.157 -0.0643 -0.2090  0.0546
12743W        W12943   2.781  11.693  15.349 -0.1733  0.0075  0.3592
12744W        W12944  16.383   5.723   4.184 -0.0366 -0.1896 -0.3170
12745W        W12945  10.511   6.760   8.662 -0.2677 -0.1511  0.0604
12746W        W12946   0.187   2.193  12.330 -0.0030  0.3327 -0.0185
12747W        W12947  11.173   5.692   3.640 -0.3505 -0.2114 -0.2360
12748W        W12948   1.218   4.979   4.561  0.0190  0.0868 -0.0325
12749W        W12949   3.655   9.062   6.829  0.1108  0.2012 -0.0270
12750W        W12950   6.956   6.751   1.018 -0.1537 -0.0085 -0.1137
12751W        W12951   8.933   9.616   4.568 -0.0279 -0.1508  0.0496
12752W        W12952   1.016   7.300   8.559  0.0764 -0.0873 -0.1866
12753W        W12953  11.516   8.579  15.034 -0.0681  0.2235  0.2213
12754W        W12954   2.261   4.524   3.772  0.0471  0.3130 -0.2268
12755W        W12955   4.260   4.449   2.123 -0.1748 -0.2562  0.0336
12756W        W12956   1.420   9.119   1.383  0.1970  0.1337  0.1050
12757W        W12957  10.375   7.174   3.961  0.0738  0.1693  0.0068
12758W        W12958   0.932  18.203   6.043  0.1223 -0.0961 -0.2783
12759W        W12959   1.420   6.136  16.552  0.2018 -0.0181  0.1272
12760W        W12960   8.078   6.062   5.931  0.1419  0.1021  0.0189
12761W        W12961   7.040  13.791  11.381 -0.2021  0.0251  0.0266
12762W        W12962   3.986   7.147   7.677 -0.0226  0.2367 -0.0246
12763W        W12963   5.847   0.734  13.278  0.3387  0.1274  0.1946
12764W        W12964  15.373  18.157   4.329 -0.3278  0.1085  0.3048
12765W        W12965   9.594   7.314  12.158 -0.1034  0.1695  0.0335
12766W        W12966   6.336   6.673   4.585 -0.3401  0.1608 -0.3108
12767W        W12967   1.218  10.686  10.481 -0.2450  0.0144  0.0241
12768W        W12968   0.460   7.498   7.271  0.1245  0.1485  0.2228
12769W        W12969  10.281  10.192   3.212  0.0538 -0.1356  0.3100
12770W        W12970   9.508   7.579   5.870  0.0895 -0.0031 -0.0551
12771W        W12971   3.031  10.364   4.078  0.2165 -0.0564 -0.1279
12772W        W12972   2.669  13.312   5.416  0.0344  0.0689  0.3033
12773W        W12973   1.540   3.450  10.114 -0.0826  0.0913 -0.2404
12774W        W12974   0.091  15.668   6.489 -0.0484  0.0889  0.3630
12775W        W12975   3.886  18.161   5.407 -0.2681  0.0817  0.0133
12776W        W12976   4.219  12.463  15.657  0.1415  0.0921  0.1895
12777W        W12977  12.693   8.619   4.140 -0.0017 -0.0458 -0.0372
12778W        W12978  10.092  17.531   7.834  0.1995  0.0132  0.1004
12779W        W12979   8.906   8.351   2.147 -0.1896 -0.0932 -0.0775
12780W        W12980   2.001  13.036   5.073 -0.3154  0.2888  0.1477
12781W        W12981   8.115  15.169   7.306 -0.1380  0.0243  0.2012
12782W        W12982   8.409   8.497   9.471  0.2598  0.1308 -0.1803
12783W        W12983   6.198   4.872   2.188 -0.0562  0.3803 -0.0965
12784W        W12984  11.435   9.384   7.407 -0.4414 -0.4687 -0.0380
12785W        W12985  12.835   2.365  14.028 -0.1189 -0.0388  0.0908
12786W        W12986  14.296   8.546  17.378 -0.2222  0.1005 -0.0262
12787W        W12987   9.355  10.129   3.710  0.1112  0.0030 -0.2303
12788W        W12988   6.869   9.108   1.858 -0.0354  0.2095 -0.2528
12789W        W12989   9.906  18.094   4.545  0.0342  0.0779  0.0522
12790W        W12990   6.849   4.819  17.908 -0.0583  0.1487 -0.0344
12791W        W12991  12.008   3.044  12.564 -0.2125 -0.0914 -0.1268
12792W        W12992   5.698   9.212   9.892 -0.3652 -0.2244  0.1533
12793W        W12993   1.867   6.181   3.222  0.1275  0.0889  0.2729
12794W        W12994   8.864  15.986   5.868  0.1092 -0.1974  0.0762
12795W        W12995  16.584   1.988  10.820  0.2730  0.2564  0.3120
12796W        W12996  15.464   3.827  17.413 -0.3207 -0.0262 -0.1233
12797W        W12997   8.570  12.759   5.164  0.0167 -0.2015  0.1132
12798W        W12998   5.822   3.017   7.804 -0.0359  0.3071 -0.0591
12799W        W12999  17.857   3.336   8.739 -0.0438 -0.1394 -0.2479
12800W        W13000  13.769   9.861   6.845 -0.0997 -0.0567 -0.1647
12801W        W13001   5.603   3.625   6.502  0.1431  0.1101 -0.1932
12802W        W13002   2.344   8.297   4.180  0.0389  0.1448 -0.1112
12803W        W13003   8.244   4.180  11.182 -0.1300  0.1145 -0.2215
12804W        W13004   8.075   9.836   4.535 -0.0806 -0.0785 -0.1493
12805W        W13005   8.539   2.903   5.135  0.1063  0.1213  0.0927
12806W        W13006   8.678   2.302   9.439 -0.0234 -0.2811  0.0454
12807W        W13007   4.231   9.931  14.469  0.0750 -0.0359  0.2758
12808W        W13008   9.467  10.274   6.673 -0.0672  0.0450  0.0818
12809W        W13009   2.455   8.829   6.002  0.1605  0.0753 -0.4421
12810W        W13010   7.870   5.839   8.703 -0.0719 -0.0900  0.1920
12811W        W13011   6.022  10.779   2.574  0.1894 -0.3966  0.0979
12812W        W13012  14.813   7.846   3.479  0.2098 -0.3209  0.2799
12813W        W13013  10.775  14.209   8.937  0.0492 -0.3487  0.1431
12814W        W13014   4.972   6.062   7.920  0.2889  0.2958 -0.0863
12815W        W13015   8.379  17.114   1.203 -0.2712 -0.0791  0.1167
12816W        W13016   4.750   4.486  11.485  0.0720 -0.0190 -0.0235
12817W        W13017   1.110   7.057   3.812 -0.0642  0.0857  0.0726
12818W        W13018   1.302   6.056   5.327  0.4064 -0.2213  0.0238
12819W        W13019   3.431  13.581  13.733 -0.0859 -0.1101  0.0024
12820W        W13020   1.272   3.592   5.375 -0.0294 -0.0481  0.2504
12821W        W13021   2.428   6.528  12.461  0.2705  0.3372 -0.2344
12822W        W13022   0.928   9.590  16.296 -0.0366 -0.1787 -0.2087
12823W        W13023  12.722  10.302  10.447  0.3019 -0.0475 -0.3219
12824W        W13024   5.741   4.704   3.808 -0.0631  0.2262 -0.0894
12825W        W13025   3.238  10.663   3.651  0.1467 -0.2869 -0.2296
12826W        W13026   4.668   2.179  14.210  0.1351 -0.1528 -0.2167
12827W        W13027   4.222   8.964  12.168 -0.0484  0.2219  0.0613
12828W        W13028   6.135   6.070   8.488  0.0383  0.1873 -0.2277
12829W        W13029   9.423  16.735  11.784  0.1155 -0.0877 -0.2266
12830W        W13030   8.995   2.917  13.695 -0.0230 -0.0261  0.1237
12831W        W13031  10.441  12.278   5.195  0.0698 -0.4074  0.0769
12832W        W13032   3.936   4.206   4.206 -0.0148 -0.1014 -0.1184
12833W        W13033  13.935  14.389   3.948 -0.0611  0.0570  0.1960
12834W        W13034   0.348   1.869   0.023 -0.0426 -0.2966 -0.0455
12835W        W13035  14.401   2.983   6.440  0.0256 -0.1999  0.1318
12836W        W13036   7.073   3.994  17.764  0.0285  0.3328 -0.0557
12837W        W13037   1.877   1.602   8.856 -0.0418  0.0128 -0.1032
12838W        W13038  12.000   6.422  11.087 -0.0506  0.0952  0.1449
12839W        W13039   4.234   8.469  10.395 -0.2993  0.1098  0.2830
12840W        W13040  15.942   8.090   8.476 -0.0750  0.0067  0.0158
12841W        W13041   3.226   8.352  12.469 -0.1485  0.0397  0.1138
12842W        W13042   2.625   1.590   2.986 -0.1441 -0.0881 -0.1436
12843W        W13043  13.118   1.090   6.426  0.3897 -0.2290 -0.2178
12844W        W13044   6.474   5.598   3.148 -0.1336 -0.0494  0.0649
12845W        W13045   9.293   6.427   8.827 -0.2343  0.0604  0.1535
12846W        W13046   2.541  10.787   6.941  0.0398 -0.3216  0.1550
12847W        W13047   2.889   2.520  12.362  0.2153 -0.0721 -0.1476
12848W        W13048   5.734   7.285  10.170  0.4803 -0.1271  0.0266
12849W        W13049   5.669   6.912   4.452  0.1805 -0.1497  0.2118
12850W        W13050  16.244   1.081   5.735 -0.0571 -0.0577  0.1759
12851W        W13051   5.399   0.822   9.153 -0.1424  0.0540 -0.3699
12852W        W13052  14.804   9.158  12.571  0.3011  0.0151  0.0167
12853W        W13053   4.233   3.876  13.818  0.3161 -0.0952  0.0257
12854W        W13054   0.425   6.133   0.430 -0.1467  0.0376 -0.3280
12855W        W13055   7.713   9.935   5.508 -0.0721  0.1969 -0.1140
12856W        W13056   6.878   6.313  11.927 -0.0469  0.0802  0.0858
12857W        W13057  10.045  14.886   7.799  0.1187 -0.2028  0.1767
12858W        W13058   6.682   8.431   6.781  0.0394 -0.1489 -0.1685
12859W        W13059   4.220   8.920   0.376  0.1315 -0.1931 -0.0667
12860W        W13060  16.467   4.457  15.486 -0.1240 -0.2018  0.0204
12861W        W13061   2.323   1.804  11.807 -0.0641  0.0617  0.0903
12862W        W13062   8.016   1.323  11.280  0.1490  0.1484  0.2152
12863W        W13063   9.464   2.216  10.654 -0.3063 -0.2351 -0.1523
12864W        W13064   0.153   5.583   2.449 -0.2183  0.1202 -0.0192
12865W        W13065   3.495  13.584   5.647 -0.1968 -0.0570  0.0370
12866W        W13066   8.356   4.925   7.007 -0.0744  0.0066 -0.1913
12867W        W13067   7.126   8.288   9.632 -0.0307  0.1009 -0.0521
12868W        W13068  14.166  13.813   7.818  0.3639 -0.1144 -0.1239
12869W        W13069   2.668  11.192  11.046 -0.3154 -0.1688 -0.0945
12870W        W13070   3.339   6.074  12.232 -0.0282  0.0418 -0.0763
12871W        W13071  12.860   3.465   5.829  0.0345  0.0797 -0.0946
12872W        W13072   5.077  16.726  11.204 -0.1965  0.1329 -0.2694
12873W        W13073   3.409   3.813   9.129  0.1150  0.1587  0.0660
12874W        W13074   8.029   6.606   2.070  0.0447 -0.1197 -0.0981
12875W        W13075   7.926   3.506   0.938  0.1319  0.1085  0.3915
12876W        W13076   7.004   2.501  14.126  0.0920 -0.0033  0.0718
12877W        W13077  11.111   9.947  13.208  0.0941  0.0706 -0.0308
12878W        W13078  12.053   8.290   4.983 -0.0201 -0.0578 -0.0227
12879W        W13079   7.180  15.025   8.822  0.0402  0.0986  0.1651
12880W        W13080  18.110   2.305   8.671 -0.0084  0.4346 -0.1834
12881W        W13081   0.646  13.946   0.845 -0.1398 -0.2067  0.0638
12882W        W13082  10.989  16.823   8.526  0.0450 -0.2155  0.2652
12883W        W13083   5.056   4.728   5.743 -0.3713  0.0308  0.1532
12884W        W13084   5.746   0.310   5.642 -0.0143 -0.0100  0.2086
12885W        W13085   6.603  15.764   7.912 -0.1262 -0.2199 -0.3108
12886W        W13086  15.332   4.356   8.786 -0.2167  0.1537 -0.4026
12887W        W13087   7.751   5.167  15.092  0.2041  0.1110 -0.0176
12888W        W13088  11.315   8.195  13.267 -0.1773 -0.1780 -0.2012
12889W        W13089   7.070   4.748   6.884 -0.0199 -0.0821 -0.0951
12890W        W13090  15.118   0.775   5.884  0.4768 -0.0857  0.0937
12891W        W13091   8.437  17.369   5.890 -0.0556 -0.2493 -0.1308
12892W        W13092  14.291   1.709   5.684 -0.1167 -0.0489 -0.1315
12893W        W13093   3.727   5.922   5.109  0.0475 -0.1282  0.2187
12894W        W13094   7.676  11.825   3.669  0.1446 -0.1823 -0.0142
12895W        W13095   3.181  10.407  13.233  0.1409  0.1309 -0.1281
12896W        W13096   3.985   2.482   9.418  0.0052 -0.0256  0.2165
12897W        W13097   6.855   3.043   2.904 -0.0949 -0.0482 -0.2127
12898W        W13098   2.744   8.403   9.189  0.3739  0.0050  0.1436
12899W        W13099  13.482   6.173   2.475  0.1110 -0.0387  0.0228
12900W        W13100  15.401   2.055  14.242  0.0411  0.1001 -0.0376
12901W        W13101   7.176   4.642   0.194  0.2148  0.1557  0.0159
12902W        W13102   2.631   1.605  11.325 -0.0872  0.1020  0.1035
12903W        W13103   6.930   7.047  12.517  0.0387 -0.2303  0.1458
12904W        W13104   0.407   4.824   2.562 -0.0068 -0.0820 -0.1616
12905W        W13105  17.931   4.274   1.352 -0.0682  0.2771 -0.1509
12906W        W13106   1.331   4.540   9.355  0.0921  0.0839 -0.0165
12907W        W13107  17.460   6.987   8.753 -0.1488 -0.0333 -0.1317
12908W        W13108   4.643  15.478   6.075 -0.1106 -0.1694  0.1659
12909W        W13109   6.293   5.125  16.012 -0.1044 -0.0921  0.1051
12910W        W13110   5.080   7.904   9.948  0.0409  0.2777  0.0298
12911W        W13111  17.243   1.561   3.655 -0.2277  0.2917 -0.3618
12912W        W13112  12.464   7.290   0.969 -0.1307 -0.1091 -0.2583
12913W        W13113  10.016  17.191   5.639 -0.2048 -0.2311  0.1147
12914W        W13114  12.865   6.337  15.110 -0.2557  0.0390  0.0790
12915W        W13115   6.234  10.044  13.705 -0.0159  0.0616 -0.0936
12916W        W13116   4.072  16.421   5.428  0.2881  0.0677 -0.0808
12917W        W13117   8.917   5.963  17.262  0.1220 -0.1080 -0.0585
12918W        W13118   6.886   4.993   5.449  0.0712  0.0176  0.0251
12919W        W13119   2.569   6.280   8.536 -0.2768 -0.2313  0.0973
12920W        W13120  15.639  17.503  11.056  0.1462 -0.1346  0.3468
12921W        W13121   1.218  17.597  16.418  0.2223 -0.0042 -0.1362
12922W        W13122   2.819  14.298   5.111 -0.0292  0.1038 -0.0926
12923W        W13123   3.695  14.846  11.579 -0.2818 -0.0320 -0.3518
12924W        W13124  14.453  16.770   8.174 -0.2905 -0.0434 -0.2966
12925W        W13125   8.016   8.092  14.964 -0.4856  0.0308 -0.0109
12926W        W13126   0.103   6.720   2.569 -0.1338 -0.0849 -0.2224
12927W        W13127   4.446  16.443   5.834  0.1071 -0.0827 -0.1848
12928W        W13128   7.480   9.422   2.548 -0.1720 -0.0051 -0.0209
12929W        W13129   4.721   3.086   4.258 -0.0278 -0.1748  0.0943
12930W        W13130  14.294   3.261   9.012  0.2088  0.0325  0.1567
12931W        W13131  14.638   1.635   4.941  0.3275 -0.2466  0.1499
12932W        W13132   8.729   1.882   9.831  0.1319 -0.1193  0.1381
12933W        W13133   2.804   4.173  15.818  0.5012  0.0641 -0.1592
12934W        W13134   0.567   8.233   8.731 -0.4548  0.3581  0.1305
12935W        W13135   0.495  16.012  11.581  0.3155 -0.0087 -0.1191
12936W        W13136   7.025   9.004   6.598 -0.0332  0.2351 -0.0646
12937W        W13137   4.899  14.915   7.386 -0.0663 -0.0191  0.2011
12938W        W13138   4.790   6.784  16.284 -0.0648  0.3572 -0.0895
12939W        W13139  11.767  12.048   7.023 -0.1151  0.1845  0.2100
12940W        W13140   6.417  14.983  14.836 -0.1603  0.0300  0.1275
12941W        W13141  11.831   8.576   7.104 -0.1104 -0.0217 -0.1112
12942W        W13142   1.728  13.800  10.431 -0.0266  0.1955  0.0740
12943W        W13143  12.524   4.366  15.671 -0.0379  0.0040  0.0128
12944W        W13144   4.653   8.151  10.526  0.0000 -0.0641  0.0201
12945W        W13145  10.458  14.006   6.290 -0.0309  0.0658  0.1872
12946W        W13146  18.021   8.566   9.491 -0.0637 -0.1673 -0.0786
12947W        W13147   4.589   9.280   5.639  0.3508  0.0156 -0.0368
12948W        W13148   4.303   0.540   0.393 -0.4026 -0.0318 -0.2247
12949W        W13149   1.989   3.002   6.811  0.1942  0.1158  0.3583
12950W        W13150   4.298  17.111  11.378 -0.1315 -0.1031 -0.1413
12951W        W13151  10.116  15.006  10.460  0.3620  0.2982 -0.2268
12952W        W13152   6.710   2.087   8.134 -0.0112  0.3168  0.1327
12953W        W13153  11.797   6.224   4.787  0.2001  0.1533  0.1267
12954W        W13154   0.913  12.895  13.466  0.0503 -0.1686  0.1297
12955W        W13155   3.979   4.087  12.452  0.1854 -0.0731  0.1754
12956W        W13156   6.310   8.097   2.472 -0.1099 -0.1604 -0.0036
12957W        W13157   8.030   6.202   2.906  0.5154  0.1936 -0.1321
12958W        W13158  12.857  11.892  12.152 -0.0030  0.2412 -0.0040
12959W        W13159   6.456  16.274   8.010  0.1779  0.1439  0.1522
12960W        W13160   3.625  16.443   7.891  0.1021 -0.2422 -0.0380
12961W        W13161   7.209   5.148   9.161 -0.0601 -0.1273 -0.0715
12962W        W13162   4.808   8.771  14.106 -0.3684 -0.0281  0.3029
12963W        W13163   6.221  11.802  16.294 -0.0418  0.0749  0.0366
12964W        W13164   8.518   4.058   8.102 -0.3225 -0.1827 -0.0328
12965W        W13165   5.034  16.609   4.976 -0.0039 -0.0621  0.2256
12966W        W13166  12.675   9.765   9.757  0.0103  0.0061  0.2252
12967W        W13167   7.462  13.237   7.122 -0.1126  0.2987  0.2095
12968W        W13168  16.379  13.344  12.720 -0.4174  0.2065 -0.0299
12969W        W13169  18.053   8.744   7.446  0.0517 -0.1732 -0.3504
12970W        W13170   9.142   8.244  13.947  0.0317 -0.2068  0.3059
12971W        W13171  16.795   7.912   9.671 -0.3025 -0.0480 -0.1012
12972W        W13172   4.384   2.522  17.285  0.1993 -0.1859  0.0231
12973W        W13173  10.862   0.373  12.343 -0.0979 -0.2225  0.0669
12974W        W13174   5.252   5.694   8.132 -0.1420 -0.0276 -0.2532
12975W        W13175   1.367   3.781  12.961  0.2152 -0.1167 -0.0656
12976W        W13176  11.781  17.388   6.286 -0.2098  0.1235 -0.1077
12977W        W13177   9.529  10.106   8.277 -0.0553 -0.2878 -0.1276
12978W        W13178   2.873   5.030   5.525 -0.1072 -0.1432 -0.0139
12979W        W13179  14.457  16.808   5.864 -0.0228 -0.2105 -0.4089
12980W        W13180   6.841   4.926  12.145  0.0962 -0.3113  0.2272
12981W        W13181   0.915   3.063   8.639  0.2494 -0.0362 -0.1201
12982W        W13182  15.654   2.327   0.902  0.0966  0.3251 -0.2006
12983W        W13183   8.486  10.136  12.572  0.0307 -0.0104 -0.3021
12984W        W13184   6.318  10.387   6.634  0.5115 -0.1889 -0.0032
12985W        W13185   6.989   6.625   7.743 -0.1557 -0.4214  0.3304
12986W        W13186  10.310   3.340  15.164 -0.2690 -0.1627  0.1848
12987W        W13187   1.515  12.565   6.688  0.0396  0.1681 -0.1217
12988W        W13188  17.391  16.494   6.817 -0.0637  0.1543  0.2266
12989W        W13189  11.620  11.829  10.797  0.2741  0.1136 -0.1253
12990W        W13190   4.494   4.063   5.979  0.1364  0.0884  0.1051
12991W        W13191  17.327  10.084   2.532 -0.1185  0.2338 -0.2198
12992W        W13192   8.616   8.083   9.197  0.0956  0.0508 -0.3955
12993W        W13193   6.094   8.626   3.701  0.2789  0.1114  0.0298
12994W        W13194   3.925   1.800  12.944 -0.3862  0.0763  0.0949
12995W        W13195  11.089  16.795  10.294  0.1870  0.3166  0.1363
12996W        W13196  13.434   4.188   8.997 -0.0062 -0.1980 -0.3216
12997W        W13197  17.087   1.982  10.616  0.2717 -0.1026 -0.0329
12998W        W13198   9.631   8.348   8.463  0.0494  0.1324  0.2591
12999W        W13199  14.570   9.946   7.729 -0.0501  0.0267 -0.0715
13000W        W13200  12.823   7.603  11.359 -0.3595 -0.0205  0.0755
13001W        W13201  12.149   7.798  17.889 -0.0347 -0.0828 -0.1176
13002W        W13202   2.870   9.665   2.950  0.0474 -0.1301 -0.2510
13003W        W13203   5.737   1.320   4.927  0.0346  0.0926 -0.2193
13004W        W13204   7.954   6.579  16.693  0.1582  0.1846  0.3842
13005W        W13205  13.546   1.803   7.828 -0.3447  0.1615  0.0684
13006W        W13206   7.395  17.861   4.567  0.1053 -0.2970 -0.1322
13007W        W13207   6.232  15.917   5.340 -0.1361 -0.0021 -0.0716
13008W        W13208   9.110   7.444   1.268 -0.1013  0.0742  0.3094
13009W        W13209   0.587   8.710   5.597  0.1934 -0.0708 -0.2286
13010W        W13210  10.235  10.802   4.053 -0.1797 -0.2181 -0.0489
13011W        W13211  17.945   8.414  13.233 -0.0419  0.2583 -0.2248
13012W        W13212  13.681   2.426   6.521 -0.2674  0.2730 -0.2603
13013W        W13213   2.685  14.098  13.269  0.4112 -0.1193  0.2744
13014W        W13214   6.644   5.293   8.360 -0.0144 -0.2731  0.2440
13015W        W13215  10.375  15.978   3.243  0.1608 -0.0842 -0.2394
13016W        W13216   7.665   0.871   5.921 -0.1195  0.0235 -0.1905
13017W        W13217   6.547  16.163   9.411 -0.0567 -0.0244  0.0403
13018W        W13218   4.639   5.094   6.121  0.3383 -0.2087 -0.0588
13019W        W13219   2.717  11.291  12.981 -0.2084  0.1480 -0.2543
13020W        W13220   3.671  17.589   8.993 -0.1731 -0.1739  0.0000
13021W        W13221   1.985   6.324  12.530  0.0781 -0.2332  0.1165
13022W        W13222   7.327   7.144  11.069 -0.1026 -0.0214 -0.0673
13023W        W13223   7.087   3.457   9.576  0.1666  0.1456 -0.0941
13024W        W13224   5.890   4.845  16.123 -0.2924  0.0476  0.1123
13025W        W13225   9.546   9.167   3.421  0.0353 -0.2064 -0.1060
13026W        W13226   4.975   6.137  12.211  0.4494  0.0388  0.0551
13027W        W13227  17.498   6.640  12.188  0.1983 -0.2487 -0.2232
13028W        W13228   7.807   1.667  17.700 -0.0267  0.3032  0.0879
13029W        W13229  10.083   3.561   4.775 -0.0990 -0.1443  0.1123
13030W        W13230   5.535   1.628  11.806 -0.0278 -0.0465 -0.0750
13031W        W13231  12.698  15.566   8.169  0.0146 -0.3104 -0.1912
13032W        W13232   6.504   3.728   8.177 -0.0323 -0.0453 -0.0548
13033W        W13233  17.594   3.485   9.437  0.0782  0.1680  0.3369
13034W        W13234  12.321   7.004  10.291 -0.0809  0.2153 -0.3632
13035W        W13235   4.947   9.645   2.538 -0.0833 -0.2235  0.0953
13036W        W13236   7.693   4.402  17.265  0.1349  0.1071  0.0535
13037W        W13237   7.218   8.527  17.010  0.1248 -0.0029  0.0719
13038W        W13238   7.161   4.939   6.462 -0.1476  0.3263  0.1735
13039W        W13239   6.249   4.582   7.954 -0.2641 -0.2071 -0.0252
13040W        W13240   7.544  11.801   0.624 -0.1047  0.0542  0.0335
13041W        W13241   5.719   9.390  16.646 -0.0660 -0.3632  0.0440
13042W        W13242  16.946   0.383  10.389 -0.2925  0.0336  0.1569
13043W        W13243   8.343   5.042   2.689  0.2304  0.1359  0.4861
13044W        W13244   5.828  10.381  16.188  0.0691  0.1738  0.1483
13045W        W13245   0.028   4.760  14.197  0.0774 -0.2396 -0.0786
13046W        W13246   8.896   3.690  12.880  0.0627  0.0351  0.0147
13047W        W13247   8.240   8.716  13.738 -0.2018  0.4068 -0.1160
13048W        W13248   4.987  16.498   9.037 -0.0521 -0.0376 -0.0014
13049W        W13249   8.776   4.019   7.628  0.0193 -0.0491 -0.0420
13050W        W13250   2.466  11.745   7.849  0.2317 -0.2198 -0.2067
13051W        W13251  10.472   4.847   5.149  0.2491 -0.0833 -0.0361
13052W        W13252  18.123   9.454  12.109  0.3194 -0.0451  0.3744
13053W        W13253  11.942   7.691  15.351 -0.2343 -0.1722 -0.1120
13054W        W13254  14.310   2.280  14.036  0.0874 -0.0937 -0.1670
13055W        W13255   6.570   3.453   2.728  0.2775 -0.0665 -0.0415
13056W        W13256  14.901   5.116   9.194 -0.0371  0.2010 -0.1562
13057W        W13257   6.276   4.417   4.054  0.2710  0.1320  0.1262
13058W        W13258   5.314  12.299   7.986 -0.3303 -0.0172 -0.0639
13059W        W13259   0.613   9.066  14.776  0.2006  0.2223  0.0243
13060W        W13260  12.140  17.875  11.798 -0.1028 -0.2120  0.2653
13061W        W13261   3.884  13.865   7.350  0.2822  0.0789  0.0623
13062W        W13262   4.437   3.939   9.214 -0.0740 -0.2454  0.2364
13063W        W13263   3.880   5.284   8.243 -0.0364  0.0067 -0.4267
13064W        W13264  15.066   8.346   6.551 -0.0135  0.2852  0.1834
13065W        W13265   3.578  14.055   6.938 -0.0279  0.0456 -0.0786
13066W        W13266   1.556   3.778   5.002  0.0318  0.0097  0.0245
13067W        W13267   3.749   7.675  12.002 -0.1893 -0.3580 -0.1453
13068W        W13268  12.927  12.752  12.634  0.0614 -0.3033 -0.1807
13069W        W13269   6.282   6.498  14.252  0.0063  0.2416 -0.4242
13070W        W13270  13.057  11.488  11.910 -0.1169 -0.3011  0.0774
13071W        W13271  14.976   7.370   4.811  0.1109  0.0322 -0.3760
13072W        W13272  15.494   3.554  10.139  0.0689 -0.2743  0.0280
13073W        W13273   4.425   9.352   9.384  0.0753  0.2919  0.0275
13074W        W13274   2.607   6.970  11.480  0.1195 -0.0067 -0.2162
13075W        W13275   4.824   8.787   9.200 -0.3158  0.1631  0.0577
13076W        W13276   1.378  14.093   4.514  0.1242 -0.2376 -0.2624
13077W        W13277   0.095   8.633  10.933 -0.2478 -0.1903  0.0659
13078W        W13278  10.498   7.448  16.561  0.0584  0.2626  0.0874
13079W        W13279  17.669   6.008   2.127 -0.2847  0.0098 -0.2275
13080W        W13280   1.213  12.140   6.758  0.0053 -0.0995 -0.2094
13081W        W13281   4.192  13.944   5.212  0.1425 -0.1092 -0.1248
13082W        W13282   4.004   9.994   3.412 -0.2079 -0.0370 -0.3122
13083W        W13283  17.813   1.099  11.600 -0.1726  0.0385  0.2617
13084W        W13284   2.481   6.282   6.699 -0.2940  0.0432 -0.1004
13085W        W13285  10.573   3.633   4.823  0.0971 -0.0660  0.5625
13086W        W13286   1.787   1.688   5.248  0.2117 -0.0279  0.1496
13087W        W13287   1.040   9.904   7.858  0.1398  0.0702  0.0834
13088W        W13288   8.848   3.897   9.245 -0.3338  0.0463  0.1916
13089W        W13289  16.114  13.077   8.156  0.0763 -0.0537 -0.1840
13090W        W13290   2.248   4.128   6.684  0.2477 -0.1773  0.0180
13091W        W13291   1.281   3.785   5.963 -0.1805 -0.2060  0.0325
13092W        W13292  12.449   7.863   6.154 -0.0001 -0.4208  0.2023
13093W        W13293   0.274   3.916  13.752  0.1809  0.1290  0.0224
13094W        W13294  15.117  10.727   6.248  0.2502  0.0726 -0.2922
13095W        W13295  12.446   1.812   5.216 -0.0159 -0.1072 -0.1540
13096W        W13296   0.906   0.250  17.629  0.1721  0.0989  0.3127
13097W        W13297   6.458   9.086   8.693  0.0915  0.0360 -0.3826
13098W        W13298   1.146   0.832   7.428 -0.0449 -0.0571 -0.1703
13099W        W13299   6.206   4.349  17.462  0.2215  0.1260 -0.0922
13100W        W13300   2.113  10.178   3.410 -0.1905  0.0742  0.0625
13101W        W13301   3.984  17.864  11.537  0.0485 -0.0865 -0.0652
13102W        W13302   0.862   6.020   8.624 -0.0409  0.1042 -0.5153
13103W        W13303  18.162  17.457   4.501  0.0490  0.0004  0.0869
13104W        W13304  15.820  12.096  16.657  0.0748  0.1831 -0.0120
13105W        W13305  16.651   4.801  10.199 -0.0272  0.1297 -0.1480
13106W        W13306   4.487   0.216  18.140 -0.3089 -0.0314 -0.1007
13107W        W13307   5.154   5.809   7.183  0.2869 -0.0757  0.0871
13108W        W13308   1.334   7.796   6.810  0.1624  0.0681  0.0557
13109W        W13309   3.759   4.760   9.429  0.2323  0.0271  0.0255
13110W        W13310   4.719  13.096   5.570  0.2549  0.0322 -0.2280
13111W        W13311   5.683   1.863   7.632  0.1596  0.3675 -0.0145
13112W        W13312   6.532   7.863   1.140  0.0552  0.0045  0.0514
13113W        W13313   7.435   7.675  13.888 -0.1747  0.2156  0.1495
13114W        W13314   7.801   6.410   4.262 -0.0394 -0.0178 -0.2471
13115W        W13315  14.962   7.747  10.130  0.0869 -0.3836 -0.0425
13116W        W13316   5.474   7.370   5.310  0.2050 -0.1164 -0.1683
13117W        W13317  11.365   2.134   7.198 -0.1524 -0.1312 -0.0916
13118W        W13318  12.640   9.876  10.692 -0.0295 -0.0600  0.0554
13119W        W13319   4.640   2.988   1.270  0.4224 -0.1040  0.0568
13120W        W13320  13.311   3.396   6.009  0.1329 -0.1624 -0.0502
13121W        W13321   3.514   4.547   0.749  0.0065 -0.2305 -0.0572
13122W        W13322  14.714   6.920   8.423 -0.0423 -0.0353 -0.2476
13123W        W13323   3.489   7.725  13.936  0.1521 -0.0965  0.0579
13124W        W13324   6.082   6.195  11.514  0.1074  0.0616  0.0518
13125W        W13325   5.013   9.099  12.080 -0.3184  0.0226  0.2691
13126W        W13326   3.190   2.702  11.960 -0.0141 -0.2117  0.1258
13127W        W13327  15.411   5.896  15.235  0.0475  0.0201 -0.0365
13128W        W13328   7.470   6.738   2.177 -0.1149 -0.2016  0.2430
13129W        W13329  10.621   1.291  13.640 -0.0516 -0.0595  0.0056
13130W        W13330   7.639  12.150  12.532  0.1687  0.1071 -0.2344
13131W        W13331   2.051   8.347  10.362 -0.1986  0.4709 -0.1164
13132W        W13332   8.879   4.951   7.031 -0.1457 -0.0634  0.0289
13133W        W13333   0.782   6.586  13.262  0.0233 -0.2203 -0.3093
13134W        W13334   6.721   7.455   3.818 -0.0070 -0.1089 -0.1414
13135W        W13335   1.750  13.524   2.600 -0.4208  0.1441 -0.1228
13136W        W13336  10.146   5.893   6.723 -0.0049  0.3483  0.1792
13137W        W13337   9.626   3.766  11.835 -0.1213  0.1167 -0.2166
13138W        W13338  16.627   9.490  18.117 -0.1622  0.5483  0.0817
13139W        W13339   5.536  12.924  11.025  0.0105 -0.1853 -0.0444
13140W        W13340   6.087   8.082  11.786 -0.1647  0.0665  0.0307
13141W        W13341   8.363   3.820   5.982 -0.2340  0.0453  0.1501
13142W        W13342  13.068   8.559   9.407  0.0425 -0.0103  0.0686
13143W        W13343   5.629   4.327   3.322  0.0485  0.0029  0.1568
13144W        W13344   4.985   7.189   2.789  0.1209  0.0935  0.1127
13145W        W13345   0.115   4.973  12.892  0.0056 -0.0781 -0.1685
13146W        W13346  14.007   4.000   7.743  0.1284  0.0229 -0.2218
13147W        W13347   4.172   6.985  10.441  0.0255 -0.1221  0.3439
13148W        W13348   5.272   7.908   7.551  0.1807  0.3586  0.1790
13149W        W13349   2.717  14.405   9.760  0.1297 -0.1273  0.0035
13150W        W13350   5.177   2.851   5.136 -0.0461  0.2732 -0.0766
13151W        W13351  16.712   2.359   8.845  0.0734 -0.2522 -0.1160
13152W        W13352   7.008   1.263   9.472 -0.0860 -0.1632 -0.2339
13153W        W13353   5.721   5.417  16.902 -0.0848  0.1208 -0.0440
13154W        W13354  16.206   8.776   3.633 -0.0062  0.2961 -0.2058
13155W        W13355   7.794   9.804  14.192 -0.0105  0.2194  0.1124
13156W        W13356  14.540   3.881   7.869 -0.0871  0.2236  0.1122
13157W        W13357   5.578   8.911   6.500  0.0812 -0.0868 -0.0373
13158W        W13358   7.046   4.840   5.935  0.2983  0.1587  0.0506
13159W        W13359  18.025  10.485  12.110  0.1080 -0.1681 -0.0150
13160W        W13360  11.384   2.329  13.150  0.1745  0.0559  0.3357
13161W        W13361  13.883   5.283   9.858  0.0304  0.0697 -0.0094
13162W        W13362   0.426  13.349   9.777 -0.2822  0.3042 -0.2674
13163W        W13363   5.619  13.142   6.703  0.1907 -0.1183 -0.0783
13164W        W13364  10.552   1.684  12.219 -0.0173 -0.2292  0.0300
13165W        W13365   4.511   8.315   8.202  0.0667 -0.4612 -0.0046
13166W        W13366   3.693  13.109   7.960  0.0415 -0.1419  0.0898
13167W        W13367  10.116  14.864  11.287  0.0587 -0.0885  0.0461
13168W        W13368  11.102   4.547   4.455  0.0702 -0.2276 -0.0840
13169W        W13369   8.339   4.641   5.974 -0.5521 -0.1447  0.0936
13170W        W13370   5.320   6.176   9.171  0.0712 -0.1301 -0.2578
13171W        W13371  14.366   3.582   2.858 -0.4031  0.2752  0.0880
13172W        W13372  17.258  16.730  13.909  0.0641  0.0959 -0.1180
13173W        W13373   7.838   2.210   4.963 -0.0390  0.3136  0.1909
13174W        W13374   0.050   4.430   1.059  0.2919  0.1852  0.2011
13175W        W13375   0.234   3.329   1.630 -0.2926 -0.1984 -0.1588
13176W        W13376   0.357   2.651  12.387 -0.1391 -0.2271  0.3374
13177W        W13377  11.244   6.358   1.026  0.2702  0.0676  0.2556
13178W        W13378   4.187   6.866  17.563 -0.1742  0.1288 -0.1106
13179W        W13379   6.142   3.109   9.171 -0.0817 -0.0658  0.2753
13180W        W13380  10.472  16.786   2.706 -0.0152  0.3759 -0.4130
13181W        W13381  14.028   5.086  11.594  0.2798 -0.0521  0.0805
13182W        W13382   2.030  15.728   7.385  0.2965  0.1495 -0.2662
13183W        W13383   9.902   1.128   7.755  0.0131  0.2879 -0.0491
13184W        W13384   6.647   7.906  13.166  0.0775 -0.0431  0.1591
13185W        W13385  11.608   9.615   5.033  0.3784 -0.0389  0.1031
13186W        W13386  10.421   3.194  13.591  0.2282 -0.0295 -0.2241
13187W        W13387   5.428  16.724   0.947  0.1258  0.2535  0.3001
13188W        W13388   1.878   3.840   9.511 -0.3281 -0.0286 -0.0675
13189W        W13389   2.025   6.080  14.676 -0.4342  0.0394 -0.0582
13190W        W13390   2.987   6.882   9.206 -0.2750 -0.2815  0.1217
13191W        W13391   6.291  12.513   7.728 -0.1199  0.2110  0.0277
13192W        W13392  17.850   6.043   3.792 -0.2308  0.0474 -0.4389
13193W        W13393  17.633   5.547  17.483  0.0055 -0.1977  0.1910
13194W        W13394  14.300  13.055   3.335  0.0949 -0.1222  0.1856
13195W        W13395   0.341   4.769  10.969  0.1553 -0.1469  0.1499
13196W        W13396   7.827   3.256  10.247 -0.3303  0.0662 -0.0937
13197W        W13397   1.537   3.998   6.355 -0.1668 -0.0063  0.2259
13198W        W13398   2.532  16.883  16.794  0.1546  0.1670 -0.1228
13199W        W13399  11.645   6.521  13.565 -0.2125 -0.0096 -0.0098
13200W        W13400  10.210  12.587   6.326  0.2287 -0.1655 -0.0598
13201W        W13401  13.424   5.615  13.576  0.1153 -0.3067 -0.2272
13202W        W13402   7.578   8.715  10.346 -0.0743 -0.1448  0.0022
13203W        W13403   3.748   7.875   2.918 -0.3280  0.0728  0.1783
13204W        W13404   0.061  17.537   7.310 -0.0054  0.0481 -0.0883
13205W        W13405  17.351  12.618  14.124  0.0862 -0.4324  0.1062
13206W        W13406   5.709  10.487   7.321  0.2259 -0.0470 -0.5838
13207W        W13407  12.654   3.765   6.733 -0.0556  0.0973  0.2935
13208W        W13408   7.044   4.417  14.252  0.1839 -0.0794 -0.0243
13209W        W13409   9.301   8.414   0.150 -0.1649 -0.1132 -0.2062
13210W        W13410  12.731  10.059   7.858  0.1526 -0.0828 -0.0457
13211W        W13411   1.316   3.187  12.152 -0.0155 -0.0185 -0.0553
13212W        W13412  12.047   8.042   7.873 -0.1016 -0.4122 -0.1796
13213W        W13413   9.539   9.721  10.906  0.0041  0.0500  0.3235
13214W        W13414  12.666  17.934  14.425  0.2756  0.4063 -0.3077
13215W        W13415   3.857  10.953  10.566  0.0546 -0.3110  0.3162
13216W        W13416   1.649  12.825  16.058 -0.3047  0.2007  0.0980
13217W        W13417   0.471  17.740   9.326  0.0591 -0.3296 -0.2195
13218W        W13418   7.665  12.703   9.819 -0.2212  0.3508  0.1363
13219W        W13419   1.464   9.501  12.035 -0.0173 -0.3240  0.0801
13220W        W13420   8.115   3.380   9.632  0.2041  0.0113  0.1141
13221W        W13421   6.797   7.167  16.909 -0.2520 -0.1298  0.0130
13222W        W13422   8.466   2.422   6.004 -0.0671  0.1579  0.0004
13223W        W13423   5.531   4.271  10.776 -0.0802 -0.1159 -0.1225
13224W        W13424   4.392  18.102  17.063  0.0590  0.2200  0.3355
13225W        W13425   2.090   4.638  14.418  0.1711  0.1483  0.2595
13226W        W13426   3.025  10.923   8.591 -0.2371  0.0401  0.0210
13227W        W13427   0.635  11.271  14.103  0.1743  0.0583 -0.0304
13228W        W13428  10.725  16.225  14.411  0.1472 -0.0574 -0.1629
13229W        W13429   1.794   6.227  11.437 -0.2368 -0.1796  0.2066
13230W        W13430   1.666   4.689  14.121  0.1648 -0.3240 -0.0489
13231W        W13431   7.279   8.017  13.236 -0.1052  0.2258 -0.0808
13232W        W13432   4.837   7.572  11.660  0.0745 -0.0386  0.0963
13233W        W13433  13.002  13.314   4.776 -0.1049  0.1630 -0.1875
13234W        W13434   4.250  16.920   3.273  0.0170  0.0024  0.0858
13235W        W13435   9.196   7.710   8.890 -0.0626 -0.3214  0.0473
13236W        W13436  14.138   4.080   9.824 -0.0112 -0.0981  0.1928
13237W        W13437   1.041   6.627  13.811 -0.1197 -0.1520  0.0394
13238W        W13438  17.703   8.476   7.719  0.1373  0.2227  0.2458
13239W        W13439   7.869  16.351  17.823  0.0843  0.1805  0.2002
13240W        W13440  10.295   6.875  10.924 -0.2425 -0.1747  0.2904
13241W        W13441   7.247   2.976   3.461  0.2762 -0.0417 -0.1459
13242W        W13442   2.819   3.618  15.137  0.2030 -0.1062 -0.0392
13243W        W13443   3.626   8.528  10.233  0.1239  0.0894 -0.2297
13244W        W13444  17.290   8.515  16.828 -0.0802  0.2966 -0.2087
13245W        W13445  10.949   0.532  13.759  0.0706 -0.0221 -0.0594
13246W        W13446  10.635   5.965   5.478 -0.1081 -0.0609  0.1889
13247W        W13447   6.994   5.462   8.659 -0.1319  0.3142 -0.1737
13248W        W13448  18.118  10.537   8.051 -0.1389  0.1601  0.1989
13249W        W13449  17.813   5.977  15.891  0.0114  0.3301 -0.0966
13250W        W13450   5.586   7.286  12.799 -0.1313 -0.1401 -0.0934
13251W        W13451   1.636  14.832   0.138  0.3074 -0.0695  0.0816
13252W        W13452  11.046   1.040  13.751 -0.2902  0.1790 -0.0273
13253W        W13453   4.321   2.964   8.823  0.1793 -0.2423 -0.4473
13254W        W13454   8.047   4.712   7.380 -0.2708 -0.1167  0.2108
13255W        W13455   2.334   7.572  12.676 -0.2491  0.3206 -0.0921
13256W        W13456  11.856  13.191  11.021 -0.0925  0.2535  0.0182
13257W        W13457   3.548   7.230   7.961  0.2771  0.3759  0.1847
13258W        W13458   2.823   1.784   5.642  0.0223  0.3167  0.2137
13259W        W13459   1.190   5.143   8.569 -0.1652 -0.1292  0.0339
13260W        W13460   4.277   8.253  12.868 -0.1662  0.0056  0.3476
13261W        W13461   6.201   3.104  16.871 -0.2258  0.1282  0.0297
13262W        W13462   4.069   7.399  16.643  0.0446  0.0787 -0.1514
13263W        W13463   3.077   1.413   8.081  0.1894 -0.0555  0.2436
13264W        W13464   2.864   6.242  16.508 -0.0780 -0.0659 -0.1407
13265W        W13465   0.516   5.687  13.296 -0.1043  0.1416  0.1979
13266W        W13466   4.421   2.202  12.512 -0.2581  0.0465  0.0828
13267W        W13467   9.039   7.897  11.693 -0.0713 -0.0672 -0.0347
13268W        W13468   9.471   9.364  13.882  0.1243 -0.0542 -0.0578
13269W        W13469   4.821   9.855  15.259  0.0664 -0.0159 -0.3565
13270W        W13470  15.971   8.028   5.597 -0.0987 -0.0193  0.2076
13271W        W13471   9.850  13.488  12.967 -0.0081 -0.0315  0.1293
13272W        W13472   1.885   2.084  13.740  0.2392  0.0626  0.3060
13273W        W13473  13.285   4.106  12.044  0.0253 -0.3866  0.1500
13274W        W13474  14.182   8.341   9.406 -0.1106  0.1037 -0.1269
13275W        W13475   7.974   0.716  11.332 -0.0951  0.1666  0.0077
13276W        W13476   7.760   8.169  13.175  0.0513  0.0144  0.1863
13277W        W13477   2.438   4.405  17.789 -0.1927 -0.1087 -0.4491
13278W        W13478   5.672   5.156   6.183  0.2161 -0.0799  0.0961
13279W        W13479   1.573   1.156  11.971  0.0694 -0.2806 -0.0775
13280W        W13480  17.962   4.720   1.447  0.2253 -0.0196 -0.2119
13281W        W13481   1.236   4.412   8.268  0.1023  0.2359  0.1752
13282W        W13482   9.663  11.964  14.391  0.0420  0.0908 -0.2471
13283W        W13483   0.236  13.518  11.639 -0.2182  0.0460 -0.2170
13284W        W13484   3.489   2.334   6.879  0.3439  0.1465 -0.2346
13285W        W13485   1.709  17.239  17.885 -0.0352 -0.2001  0.1673
13286W        W13486   6.891   7.326  11.080 -0.3425  0.0029 -0.1853
13287W        W13487  17.198   1.702   9.097 -0.2197 -0.2681 -0.1046
13288W        W13488   6.721   6.019  16.791  0.2754  0.1794 -0.1408
13289W        W13489   3.046   6.005  15.260 -0.0749 -0.2658 -0.0091
13290W        W13490   9.703   4.034   2.827  0.0787  0.1225 -0.2923
13291W        W13491   8.251   8.349  11.303  0.0490  0.0060  0.1121
13292W        W13492  10.561   4.349   6.726  0.1321 -0.0266  0.2036
13293W        W13493  17.961  11.088   8.056  0.3006  0.0197  0.0381
13294W        W13494   0.532   3.830   5.297  0.3291 -0.1544  0.0401
13295W        W13495   3.443   9.538  16.200  0.3089  0.2492 -0.1244
13296W        W13496   5.139   7.761  18.057  0.4715  0.1834  0.3165
13297W        W13497   8.646   6.018  10.721  0.0187  0.2442  0.0497
13298W        W13498   1.156  12.817  15.487  0.2370  0.4864  0.0928
13299W        W13499  17.472  12.204   9.034 -0.1279  0.1910 -0.0454
13300W        W13500   8.400  12.258  10.252  0.0256  0.0372 -0.0007
13301W        W13501  14.194  12.510  13.789 -0.0268 -0.0290 -0.0803
13302W        W13502   7.647   0.610   0.032 -0.0491 -0.0424 -0.1075
13303W        W13503   2.353   5.272  11.996  0.2684  0.0421  0.0728
13304W        W13504   6.763   7.896   2.517  0.2172  0.0113  0.1476
13305W        W13505   4.038   9.959   9.939  0.5082  0.4353  0.1437
13306W        W13506   8.732  10.996  10.182 -0.0423 -0.1006  0.1221
13307W        W13507   8.966  11.528   5.269 -0.2838 -0.0261  0.0789
13308W        W13508   7.936   8.569  13.428 -0.0025  0.1479  0.0900
13309W        W13509   9.816   1.222  17.026 -0.0629  0.0536  0.1135
13310W        W13510  17.333   4.874  12.686  0.1285 -0.1858  0.0651
13311W        W13511   4.870  16.813   8.312 -0.0099 -0.0750 -0.1323
13312W        W13512  11.138   5.434   8.078 -0.1882 -0.2162 -0.1207
13313W        W13513   7.612   7.343  16.339 -0.1280 -0.3789  0.0888
13314W        W13514   8.919  13.630   9.230  0.4681  0.2670 -0.0154
13315W        W13515   5.169   4.806   7.009  0.3366  0.2359  0.1108
13316W        W13516   6.048   5.493   7.564 -0.0141 -0.0427 -0.1235
13317W        W13517   2.570   8.867  12.658  0.0437  0.1120  0.1372
13318W        W13518   1.763  12.945  12.538 -0.4482  0.1044 -0.0725
13319W        W13519   1.002  17.944  12.452  0.0353  0.1015  0.2302
13320W        W13520   2.679   8.948   6.730  0.0949  0.0353 -0.1719
13321W        W13521  10.189   7.695  14.392  0.3078 -0.0692 -0.0161
13322W        W13522  16.485   8.295  17.170 -0.0118 -0.1102 -0.1610
13323W        W13523   3.122   1.048  15.412  0.1048  0.1162 -0.0694
13324W        W13524   6.708   2.486  17.441  0.1563 -0.0547  0.0659
13325W        W13525  11.905  12.599  16.542 -0.1880  0.0851  0.0125
13326W        W13526   8.473   8.894  11.905 -0.0188  0.1031 -0.1301
13327W        W13527  15.094   1.148  13.834  0.0593  0.4800 -0.0840
13328W        W13528   6.502  15.951   5.869 -0.0148 -0.0437  0.1912
13329W        W13529   4.721   4.759   1.881 -0.1341 -0.0981 -0.0794
13330W        W13530   7.157   7.111   4.624  0.0202 -0.1345 -0.4210
13331W        W13531   4.876  12.714  17.710  0.2075 -0.1124 -0.1961
13332W        W13532   4.505  14.487  10.329 -0.1141  0.2170 -0.0739
13333W        W13533   8.469  10.306   1.189  0.2285  0.1191 -0.0331
13334W        W13534   3.561   5.291  11.731 -0.1583  0.1037 -0.0545
13335W        W13535   4.712   3.491  13.388  0.1901  0.0190 -0.1353
13336W        W13536   2.061   5.407  13.723  0.0910  0.1438 -0.3486
13337W        W13537  18.052  11.888  14.881 -0.4517  0.0490  0.1375
13338W        W13538   3.213  17.137   1.154 -0.0136  0.2668 -0.1125
13339W        W13539   8.221  12.268  15.172  0.0676 -0.1755  0.4570
13340W        W13540  14.587   1.218   6.614 -0.0988 -0.0631  0.1941
13341W        W13541   2.098   7.267  13.042  0.0944  0.2342 -0.1986
13342W        W13542  14.176   1.667  12.853 -0.1994 -0.0516  0.3150
13343W        W13543   8.674   2.293  12.001  0.3230 -0.2228 -0.1585
13344W        W13544   8.795   7.650   8.582 -0.1189 -0.0175  0.0546
13345W        W13545  15.846   6.105  15.126  0.0325 -0.2130 -0.2242
13346W        W13546  13.389   7.748   6.205  0.0634  0.0117  0.1306
13347W        W13547  15.401   3.972  11.265 -0.0733 -0.1135  0.0936
13348W        W13548   6.189   9.071  10.287  0.2647 -0.2321  0.2058
13349W        W13549   5.400   4.627   8.856 -0.2203 -0.0816  0.1156
13350W        W13550  13.266  15.009   6.979 -0.0337 -0.0585 -0.2470
13351W        W13551   7.533   4.261   9.341 -0.0006 -0.1517 -0.3961
13352W        W13552   3.044   0.439   9.277 -0.1680 -0.2752 -0.1530
13353W        W13553  13.428   6.376  12.692 -0.2398  0.1313  0.2243
13354W        W13554  14.372   3.689   9.575 -0.0290 -0.3688  0.1454
13355W        W13555   3.981   6.035   7.733  0.0321 -0.0808 -0.2356
13356W        W13556   3.469  18.096   8.146  0.1948  0.0918  0.1642
13357W        W13557   3.597   2.045  13.748 -0.2065  0.0012 -0.0725
13358W        W13558   2.198   0.662   9.845 -0.1931 -0.3963  0.2055
13359W        W13559   1.679   9.939  17.295  0.2000 -0.2909 -0.3041
13360W        W13560   0.497   4.221  12.454 -0.0348  0.0908  0.1965
13361W        W13561   0.898  10.091  17.440  0.0607  0.0778 -0.0366
13362W        W13562   4.313  11.424  14.573 -0.3021 -0.1089  0.0528
13363W        W13563   2.722   3.647   0.076 -0.0564 -0.0438  0.1557
13364W        W13564   7.659  12.296  11.720 -0.0630  0.0947 -0.1091
13365W        W13565   5.384   5.750  15.712  0.2162  0.0412 -0.5135
13366W        W13566   5.668   6.231   1.328  0.1123  0.5490  0.0081
13367W        W13567  10.462   1.480   0.009 -0.0370 -0.0950 -0.1647
13368W        W13568  12.423   5.270   8.783  0.3594 -0.0787  0.1074
13369W        W13569   5.656   7.205   8.238  0.0731  0.1027 -0.0733
13370W        W13570   8.119  10.057  12.250 -0.1145  0.2233  0.2445
13371W        W13571   0.209   2.848   2.633 -0.1014  0.2794  0.2269
13372W        W13572   1.441   8.531  13.193 -0.0726  0.2682  0.3042
13373W        W13573   6.543  17.442  14.455  0.2651 -0.1310  0.1880
13374W        W13574  10.385  17.655  13.052  0.0091  0.2573 -0.2451
13375W        W13575   8.843   0.932  13.748  0.1349  0.0113 -0.2174
13376W        W13576   5.016   6.537  11.907  0.0614  0.0116 -0.4851
13377W        W13577   5.402   2.665   8.745  0.0919 -0.1425 -0.1017
13378W        W13578   4.905  12.941  10.824  0.0975  0.1347  0.0996
13379W        W13579   1.616   2.177   7.993 -0.2249 -0.1217  0.0765
13380W        W13580   2.963  10.105   6.033 -0.0699  0.2696 -0.1021
13381W        W13581   1.388   3.328   2.397  0.3028 -0.2471  0.3068
13382W        W13582   1.486  16.628  14.674  0.3451  0.1088 -0.1532
13383W        W13583   4.753   7.017  16.833 -0.2309  0.1203 -0.1565
13384W        W13584   2.998  14.050   2.285  0.0651  0.0409  0.1962
13385W        W13585   5.550  15.057  14.440  0.2092  0.2339  0.2490
13386W        W13586   9.146   4.569   7.193 -0.1053 -0.2403  0.0235
13387W        W13587   2.645   5.792  16.517 -0.0051  0.2484  0.3578
13388W        W13588   6.320   5.854  12.395  0.1844  0.0894 -0.2046
13389W        W13589  11.586  15.790   4.390  0.1060  0.0557  0.2246
13390W        W13590   8.005   2.728  11.586  0.1779 -0.1026 -0.0312
13391W        W13591   4.312   4.451   9.607 -0.1630 -0.1782  0.1517
13392W        W13592   4.282  15.655   9.111 -0.3984  0.0629  0.1214
13393W        W13593   6.072   2.057  11.036  0.2601  0.0745  0.0169
13394W        W13594   4.590   9.288  11.893  0.0486 -0.2087 -0.1101
13395W        W13595   0.028   8.682   6.063  0.0118  0.1963 -0.2424
13396W        W13596   4.695   8.984  12.439  0.1737 -0.0194 -0.0805
13397W        W13597  14.096   8.297   5.124  0.1680  0.1578 -0.3651
13398W        W13598  16.469   9.719  11.446  0.1442 -0.1090 -0.0710
13399W        W13599  18.076  12.052  10.432 -0.1716  0.1787  0.1597
13400W        W13600  17.634  16.453  16.857 -0.1969 -0.0140  0.0140
13401W        W13601   9.549   5.455  12.929  0.2028  0.1165 -0.1256
13402W        W13602  11.970   2.504   0.774 -0.0769 -0.0161  0.1411
13403W        W13603   9.036   3.933   2.183 -0.1196  0.3847 -0.2174
13404W        W13604  10.906   7.597   9.722  0.2430 -0.2221 -0.1984
13405W        W13605   8.583  10.106   8.532  0.0293 -0.1571  0.0895
13406W        W13606   6.982   4.471  15.298  0.1767  0.1203  0.1799
13407W        W13607  12.026  11.473  10.817  0.2331  0.3669  0.0541
13408W        W13608   5.314   1.214  15.577  0.2234 -0.3706 -0.1273
13409W        W13609  14.265   8.381  14.171  0.0573 -0.1002  0.0023
13410W        W13610   7.148  12.627  10.901  0.1384 -0.1507 -0.0915
13411W        W13611   5.096   1.210  14.467  0.0456 -0.0838  0.2631
13412W        W13612   0.619   9.347  13.106  0.2743 -0.3297  0.0139
13413W        W13613  15.995   1.877  12.511  0.1624  0.0118 -0.2525
13414W        W13614   4.443   7.310  17.564  0.1903  0.0412 -0.0918
13415W        W13615   3.043   0.563  10.888  0.0154  0.1329  0.0969
13416W        W13616   5.231  10.565  11.106  0.3447 -0.0675 -0.2166
13417W        W13617   0.210  11.315  17.160 -0.0198 -0.0313  0.0284
13418W        W13618  16.291  16.881  12.940 -0.2187  0.1934  0.0283
13419W        W13619   2.089  16.520  13.962  0.0132 -0.1915  0.0035
13420W        W13620   6.942   7.053   4.055 -0.0564  0.2086 -0.1414
13421W        W13621   3.858   4.008  13.424 -0.1078  0.0398  0.0470
13422W        W13622   3.653   7.949  10.330  0.0488  0.1676  0.0191
13423W        W13623  13.081  15.905   7.972  0.1831 -0.4094  0.3780
13424W        W13624   4.223  17.557  10.361  0.2700 -0.2037 -0.0795
13425W        W13625   8.917   4.497  16.543  0.0755  0.1748  0.1384
13426W        W13626  17.148   7.047  16.856  0.0996  0.0551  0.0516
13427W        W13627   9.415   5.813  17.311  0.1156 -0.2591  0.3191
13428W        W13628  15.709   2.458   3.834 -0.2519  0.2253  0.0157
13429W        W13629   4.591  10.599  12.852 -0.2130 -0.0875 -0.0516
13430W        W13630  11.362   0.940   1.348 -0.1332  0.0831  0.0301
13431W        W13631   5.707   6.875  11.322  0.3600 -0.0954  0.2133
13432W        W13632   0.294   5.231  10.618 -0.0464  0.1474  0.3106
13433W        W13633  17.935  10.227  11.667  0.0112  0.1450 -0.1332
13434W        W13634  11.174   2.001  12.213  0.1904  0.1587  0.1485
13435W        W13635   4.152  14.201   2.610 -0.1678  0.2885  0.1939
13436W        W13636   8.519   1.917   6.030  0.1715 -0.0202  0.1051
13437W        W13637   6.412  11.805   5.485  0.1172  0.0725  0.0453
13438W        W13638   2.562   3.785   7.891 -0.1478 -0.3154  0.1032
13439W        W13639   8.397  10.061  14.894  0.3864  0.0142 -0.0227
13440W        W13640   4.892   1.090   9.888  0.0312 -0.1219  0.4419
13441W        W13641   1.685  11.381   4.182 -0.0079  0.0155 -0.0314
13442W        W13642  16.891   5.872  10.851 -0.4107 -0.2329 -0.1837
13443W        W13643   6.756  14.424   9.372 -0.2519  0.0064  0.0490
13444W        W13644   8.894   7.052   2.322  0.1673 -0.1754  0.0817
13445W        W13645  14.291   9.227  16.405  0.3310  0.1682 -0.2644
13446W        W13646   9.901   9.250  13.498 -0.0463 -0.2190  0.0469
13447W        W13647  14.127   1.060  10.439 -0.1385 -0.5014 -0.0562
13448W        W13648  11.866   6.392  16.610  0.2055  0.0873 -0.0966
13449W        W13649   9.425   5.383  12.454 -0.0735  0.1783 -0.1856
13450W        W13650   9.020  14.341   6.164  0.3780 -0.2180 -0.0342
13451W        W13651   2.711   5.191  14.731  0.0234  0.1791 -0.0129
13452W        W13652   8.597   1.047  17.682  0.1480 -0.2560 -0.3241
13453W        W13653   6.355   1.969  10.610 -0.1653  0.0078 -0.0890
13454W        W13654  10.626  11.141   0.463 -0.0518  0.0885 -0.0238
13455W        W13655   4.517   5.927   3.382  0.1141 -0.0028 -0.2434
13456W        W13656   4.010  17.800  13.089  0.0935  0.0370  0.2563
13457W        W13657   8.717   3.328  14.954 -0.1192 -0.0499  0.0905
13458W        W13658   8.123   5.010  15.533 -0.0093  0.1331  0.1376
13459W        W13659   7.138  16.621   5.753  0.0319 -0.0455 -0.1439
13460W        W13660  13.321   0.045  11.649  0.0718 -0.1838 -0.1818
13461W        W13661   2.028  16.887  16.469 -0.2016 -0.0494  0.1504
13462W        W13662  12.244  10.661  11.838  0.2624  0.3328  0.2152
13463W        W13663   3.140  14.965   6.969 -0.1098  0.0627 -0.1119
13464W        W13664   8.837   0.897   2.523  0.1162  0.0547 -0.2332
13465W        W13665  14.123   7.218  11.832 -0.1486  0.0788 -0.1014
13466W        W13666   8.326  11.725  12.789  0.0322  0.0972 -0.0322
13467W        W13667  17.676   7.076  12.494 -0.1055 -0.0898  0.1888
13468W        W13668   7.434   7.822  10.538  0.1614  0.0459 -0.0735
13469W        W13669   5.300  10.077  11.206  0.0855  0.0247 -0.0720
13470W        W13670   4.271  13.453   2.211  0.0414  0.0995 -0.0984
13471W        W13671  12.310  13.033   7.041 -0.0175 -0.0807 -0.1155
13472W        W13672   4.930  15.922   5.791  0.0332 -0.0602 -0.0683
13473W        W13673   8.304   8.363   7.684 -0.1710  0.2478  0.3159
13474W        W13674  14.594  10.201   1.905 -0.0548  0.0036 -0.2054
13475W        W13675   2.759   6.178  15.704  0.1717  0.0060  0.2634
13476W        W13676   2.110   9.658  17.347 -0.3382  0.1545  0.0537
13477W        W13677   6.121   8.033  10.241  0.1208  0.0539  0.1738
13478W        W13678   4.810   1.164  16.639  0.0117  0.0664  0.1656
13479W        W13679   3.755   2.700  14.789 -0.2451  0.2420 -0.1417
13480W        W13680   5.116   7.895  15.196  0.1134  0.1903 -0.0129
13481W        W13681   1.867  10.012  13.915 -0.0726 -0.0448 -0.0157
13482W        W13682  14.418  18.053   3.321  0.2666  0.0613  0.1227
13483W        W13683  10.380   2.884  16.457  0.0814  0.2282 -0.2156
13484W        W13684  11.183   3.389  13.951  0.0308  0.4297  0.0600
13485W        W13685   1.051  13.189  14.331 -0.0291  0.3011  0.0202
13486W        W13686   5.141  10.278  12.103 -0.0981 -0.2664 -0.1412
13487W        W13687   5.412   8.679  17.190  0.0739  0.1022 -0.2290
13488W        W13688   7.854   8.643  11.286  0.0910 -0.0828  0.4191
13489W        W13689  15.389   1.141  16.360  0.2831  0.0582  0.0362
13490W        W13690  14.093  16.655  14.061  0.1323 -0.2248 -0.0039
13491W        W13691   0.044   5.033   0.224  0.0147  0.1802  0.2493
13492W        W13692  14.295   3.067  12.032  0.0541  0.2438 -0.0506
13493W        W13693   3.339  15.407  17.924  0.1096  0.0692  0.4268
13494W        W13694   2.429   6.176  10.155 -0.2310 -0.1013 -0.2515
13495W        W13695   8.725   9.401  10.294  0.0628 -0.1005 -0.3834
13496W        W13696  17.046   8.283   6.173  0.2005  0.0358 -0.0756
13497W        W13697   8.436   0.629   5.675  0.1024 -0.0482 -0.2188
13498W        W13698   7.191  15.853  11.363  0.0845  0.0540  0.0384
13499W        W13699  16.403  11.276  10.897 -0.0899 -0.0594 -0.0437
13500W        W13700   4.698   5.320  10.276 -0.0777  0.1504 -0.3502
13501W        W13701   5.395   4.649  15.513 -0.4632  0.0616 -0.2359
13502W        W13702   8.050   3.862  15.726 -0.1612  0.1299  0.0468
13503W        W13703   2.250  10.567  12.754 -0.1902 -0.0388 -0.1501
13504W        W13704   8.817   4.411   9.549 -0.5836  0.3083 -0.2558
13505W        W13705  16.855   1.409  15.495  0.3157  0.1543  0.1433
13506W        W13706   4.272   1.989   6.099  0.3131  0.0813 -0.0305
13507W        W13707   1.753   9.483  16.659  0.0238 -0.4019  0.2605
13508W        W13708   9.108   8.698   3.798  0.1035 -0.3822  0.1295
13509W        W13709   5.691   6.411  12.734 -0.0593 -0.1648  0.0967
13510W        W13710   2.022   9.925  14.418 -0.1102 -0.1108 -0.1066
13511W        W13711   4.890   3.237  15.762 -0.0388  0.3032  0.4095
13512W        W13712  12.035  18.175  12.741 -0.2389 -0.0966 -0.0849
13513W        W13713   7.002   7.872  14.405  0.1542  0.1906  0.0806
13514W        W13714   7.626   1.916  14.599 -0.2098  0.1862  0.2170
13515W        W13715   8.869   6.089   8.808  0.1876 -0.0458  0.1498
13516W        W13716  10.900   5.158   3.544 -0.1931  0.0567  0.1624
13517W        W13717   6.854   7.272  10.177  0.2134  0.2573  0.1238
13518W        W13718   9.078  14.377   9.970  0.1403  0.1886 -0.4933
13519W        W13719   7.218   9.251   7.592  0.0043 -0.2394  0.1644
13520W        W13720   0.467   4.133   0.136 -0.2361  0.1128  0.0937
13521W        W13721   5.817   4.441   7.796  0.0787  0.1762  0.1923
13522W        W13722  13.513  16.650   8.422 -0.0619 -0.0276  0.3782
13523W        W13723   6.819  12.427  14.922  0.1017  0.3753 -0.0471
13524W        W13724   2.400   4.805  12.288 -0.0212 -0.0558 -0.2101
13525W        W13725  17.380   8.788   7.933  0.0396  0.0119 -0.0953
13526W        W13726   7.003  11.179  15.590 -0.0985 -0.0873 -0.0253
13527W        W13727   6.145   0.082   8.302  0.0907  0.2856 -0.0033
13528W        W13728   2.283  11.111   4.311 -0.1903  0.0716  0.1123
13529W        W13729   2.037   5.462  17.698 -0.1414 -0.0957  0.1455
13530W        W13730   2.941  17.537  15.131  0.0080  0.0119 -0.2543
13531W        W13731   1.900   7.257   5.560 -0.0967  0.2895 -0.1973
13532W        W13732   7.014   6.980  15.510  0.0478  0.0260 -0.1564
13533W        W13733   6.179   1.724   0.642 -0.0512  0.1620 -0.0158
13534W        W13734   1.563   4.114  13.381 -0.1351 -0.0794  0.3455
13535W        W13735  17.938  13.552   8.993  0.0723 -0.1844  0.0768
13536W        W13736  11.419   2.258   9.710  0.0273 -0.0717  0.0279
13537W        W13737   7.904   6.810  12.315 -0.2083  0.2233  0.0643
13538W        W13738   3.260   9.273  11.435 -0.1326 -0.0129  0.0441
13539W        W13739  10.324  11.498  10.942  0.0859 -0.0297  0.3221
13540W        W13740   2.751  11.381   8.746  0.0627  0.2327  0.3563
13541W        W13741   2.306   4.616   6.433  0.0631  0.3414  0.1371
13542W        W13742   7.460   1.347   6.566 -0.2779 -0.1022  0.1744
13543W        W13743   8.169  12.415   9.017  0.0113 -0.1329  0.0575
13544W        W13744   9.445   0.593  14.867 -0.0051 -0.0045  0.0402
13545W        W13745   7.642   0.978  13.089 -0.1155 -0.0018  0.2389
13546W        W13746   6.046   2.246   5.598 -0.1580  0.1396 -0.0894
13547W        W13747   7.546   2.827  13.145  0.0942  0.2151  0.0692
13548W        W13748   6.330   8.258  12.847  0.5254 -0.0064 -0.1252
13549W        W13749   8.590   7.842  13.123  0.3024  0.0040  0.2236
13550W        W13750   6.341   5.513  13.928 -0.0460 -0.0341 -0.1533
13551W        W13751   3.860   4.312  11.975  0.1829 -0.0704 -0.0726
13552W        W13752   9.511   6.089   9.476  0.1704  0.1130  0.0888
13553W        W13753   1.004   2.676  13.638 -0.1845  0.2692 -0.0461
13554W        W13754   3.848   1.693  13.978 -0.0982 -0.0254  0.0771
13555W        W13755   3.397  11.427  14.691  0.0642  0.0223 -0.1272
13556W        W13756   5.292   1.672  17.557 -0.2292  0.0883  0.0108
13557W        W13757   7.212   4.442   9.742  0.1061  0.2528  0.2199
13558W        W13758  11.510  11.603   7.120  0.0617  0.0886 -0.0974
13559W        W13759  10.532   6.445   5.565  0.0356  0.0334 -0.1102
13560W        W13760   8.306   5.301   5.196 -0.0804  0.0224  0.2614
13561W        W13761  12.410   8.742   8.985  0.0624  0.0132 -0.2326
13562W        W13762   2.708  16.249  13.321 -0.1391 -0.2466 -0.1097
13563W        W13763   7.825   3.838   8.229  0.1967  0.0856 -0.0276
13564W        W13764   7.650   4.288   8.445  0.1061  0.0058  0.1849
13565W        W13765   3.742   6.586   7.588 -0.2513  0.0693  0.0273
13566W        W13766   6.466  10.903  10.340 -0.2943 -0.0468 -0.1363
13567W        W13767   3.586   5.627   4.634  0.3020 -0.0226 -0.0326
13568W        W13768   6.933   3.102  15.914  0.0050 -0.1142  0.1166
13569W        W13769   2.272  15.241  10.034 -0.1161  0.2395 -0.2531
13570W        W13770  17.767  13.195  12.203 -0.2209 -0.0191  0.0623
13571W        W13771   4.373  13.785   6.683 -0.0576 -0.0610  0.3950
13572W        W13772   4.437   7.354  14.146  0.0880 -0.3193 -0.0937
13573W        W13773   0.414   8.219  14.858  0.0228 -0.4176  0.1331
13574W        W13774   7.214   9.677  14.574  0.0309 -0.1355  0.2518
13575W        W13775   2.810   1.173  14.695  0.1376 -0.2994  0.1097
13576W        W13776   0.225   3.209   7.245 -0.2015  0.3339  0.1424
13577W        W13777   8.747   1.343  12.983 -0.0083  0.0604  0.0272
13578W        W13778   3.879  13.731  12.819  0.1094 -0.0717  0.2520
13579W        W13779   9.468   7.247   0.937  0.1793  0.2049  0.0735
13580W        W13780   4.353  12.463  11.794  0.0243 -0.2921  0.3039
13581W        W13781   1.398   1.911  17.434 -0.4277  0.2071  0.0526
13582W        W13782  16.395   6.742  16.932 -0.3594 -0.0595 -0.2527
13583W        W13783   6.570   9.329  16.314 -0.1258 -0.1907 -0.0687
13584W        W13784  14.382   6.951   1.866  0.0260 -0.1087  0.2153
13585W        W13785   4.937   8.202   9.583  0.2243  0.3156  0.1939
13586W        W13786   7.855   4.202   7.632  0.0727 -0.2737  0.1294
13587W        W13787   8.780   6.104  16.667 -0.1657  0.1185  0.0472
13588W        W13788   2.058   2.288   2.896  0.1086 -0.2174  0.0161
13589W        W13789   7.166   0.366   1.107 -0.0523 -0.2951  0.1837
13590W        W13790  10.141   6.884  11.615  0.1259  0.0371 -0.1679
13591W        W13791   9.750  15.462  11.505 -0.0718 -0.1625  0.0896
13592W        W13792  10.416   3.977   7.154 -0.5428  0.1983  0.2526
13593W        W13793   5.582   5.180  10.683  0.0242  0.2180 -0.1526
13594W        W13794   7.987   0.951  16.653 -0.4601  0.1576 -0.0624
13595W        W13795   1.327   2.064  14.542 -0.1114  0.1399  0.1145
13596W        W13796   1.896   6.997  13.834 -0.0984 -0.1950 -0.1378
13597W        W13797   0.975   1.345  15.711  0.1121 -0.0739 -0.2238
13598W        W13798   2.953   7.407  16.785  0.1852 -0.0916  0.2766
13599W        W13799   3.727   6.594   3.709 -0.3728  0.1536  0.1216
13600W        W13800   6.091   4.330  11.707  0.2924 -0.2039 -0.0178
13601W        W13801   3.207   1.568  15.477  0.0358  0.0704  0.1804
13602W        W13802  14.489   0.936  12.360  0.0529  0.1624 -0.3428
13603W        W13803   8.225   3.269  15.793  0.0338  0.1768 -0.3538
13604W        W13804   4.180   3.555  10.056  0.0978  0.0759 -0.1052
13605W        W13805   7.202   5.780  15.549 -0.2615 -0.0104 -0.1586
13606W        W13806   2.645   4.510   4.378  0.1763 -0.2285  0.0396
13607W        W13807   2.780   2.186  10.359 -0.2397 -0.1915 -0.0123
13608W        W13808   0.048   7.321  12.549 -0.0126  0.1527 -0.3810
13609W        W13809   9.125   6.842   7.728 -0.1074 -0.1125  0.0202
13610W        W13810  14.073  14.858   4.200 -0.2394  0.0478  0.0746
13611W        W13811   6.788   8.361  10.601 -0.0301 -0.0342 -0.1699
13612W        W13812  14.327   6.443   4.086  0.1263  0.3828 -0.0775
13613W        W13813  14.455   8.752   0.433  0.0290 -0.0797 -0.3556
13614W        W13814   5.757   6.583  16.178 -0.0393  0.0528 -0.0969
13615W        W13815  12.114   6.661  12.729  0.1339 -0.0205  0.1123
13616W        W13816   9.716   4.568  15.790 -0.1487  0.0251 -0.1373
13617W        W13817   2.357   3.687  14.454 -0.2365  0.0518  0.1313
13618W        W13818   7.056  10.069  12.082 -0.2909  0.0384 -0.2194
13619W        W13819   4.759   4.608  14.617 -0.1477  0.1792  0.3810
13620W        W13820   8.044   9.285   8.801  0.0237 -0.1795 -0.0843
13621W        W13821   5.670   1.932   1.443 -0.2652  0.1948  0.2023
13622W        W13822  14.919   4.713   7.277 -0.2954 -0.0230  0.1348
13623W        W13823   2.661   7.779  14.695  0.1136  0.0817 -0.1920
13624W        W13824  16.942   4.333  11.440  0.0158  0.0672  0.0454
13625W        W13825  17.802   8.449  10.678  0.0113 -0.0683  0.0864
13626W        W13826  14.941  17.136  10.886 -0.0019 -0.2373 -0.1028
13627W        W13827   4.359   1.954  12.906 -0.0541 -0.0420 -0.2786
13628W        W13828   8.362   8.177   0.134 -0.2709  0.0002  0.0038
13629W        W13829   7.426  12.917   2.641 -0.2976 -0.1811 -0.4375
13630W        W13830  12.258   4.218  13.298  0.1415 -0.0345 -0.0429
13631W        W13831  15.939   5.488  12.537 -0.0873  0.0308  0.1837
13632W        W13832   5.834   2.816   0.122 -0.2381  0.0588 -0.1033
13633W        W13833   2.957  11.794  11.710  0.0560 -0.0513  0.1677
13634W        W13834   1.800   3.195  13.790 -0.0481  0.0246 -0.1372
13635W        W13835   1.491   4.474  11.623  0.2353  0.0555  0.0618
13636W        W13836   2.906  11.250  16.494  0.0072 -0.2213 -0.3096
13637W        W13837   4.769   9.510  11.240 -0.0655 -0.1748  0.2599
13638W        W13838   3.875   8.545  10.761  0.1285 -0.1096  0.1377
13639W        W13839  14.094  17.778   1.542 -0.1204  0.1844 -0.0871
13640W        W13840   0.255  11.784  16.404 -0.2009  0.1834  0.1319
13641W        W13841   7.571   5.474  10.550  0.6007  0.0585  0.1578
13642W        W13842   1.168  10.079   2.262 -0.1060  0.1772  0.1677
13643W        W13843   7.383  17.491  10.795 -0.2459  0.2058  0.2589
13644W        W13844  12.331   8.497  15.631  0.1212  0.1635 -0.2947
13645W        W13845   9.252   6.512   0.696 -0.4689  0.0467 -0.2389
13646W        W13846   4.231  10.813  13.347 -0.0016 -0.1016  0.1775
13647W        W13847   6.095   0.894   6.304 -0.2230  0.2512  0.0059
13648W        W13848   5.686   4.470   4.725 -0.0398 -0.2987  0.4104
13649W        W13849   8.330   3.619   0.588  0.0503  0.2865  0.0650
13650W        W13850   6.282   8.393   5.508 -0.1451 -0.2043 -0.4157
13651W        W13851   6.034   1.328  12.329 -0.1846 -0.0617 -0.3606
13652W        W13852   8.208   4.755  17.712 -0.1942  0.0864 -0.1898
13653W        W13853   0.394   2.307  12.766 -0.3388  0.2856  0.1747
13654W        W13854   1.982   3.538  14.772  0.0437  0.0628 -0.2324
13655W        W13855  16.201  13.024  13.498  0.0258  0.1970 -0.0011
13656W        W13856   8.164   1.626  17.307 -0.1613 -0.0809  0.4510
13657W        W13857   3.988  11.190  15.360  0.0868  0.2251 -0.0779
13658W        W13858  17.345   1.874   1.050  0.0542 -0.3314 -0.1537
13659W        W13859   7.033   3.205  13.561 -0.1029 -0.1201 -0.3839
13660W        W13860  18.183   2.571  11.530 -0.0080  0.1014  0.4121
13661W        W13861   2.782  17.414  11.430  0.2128 -0.1262  0.1938
13662W        W13862   4.745  17.857  17.342  0.2242 -0.3717  0.1706
13663W        W13863   2.968   9.521  13.316 -0.1938 -0.1292 -0.2802
13664W        W13864   6.896   1.999   2.258 -0.3553 -0.2382  0.1349
13665W        W13865   5.523   2.742  14.150  0.2585  0.1246 -0.1978
13666W        W13866   6.443   3.187  14.260 -0.3424 -0.3064 -0.0984
13667W        W13867  14.249  14.747   7.794 -0.1947  0.2136  0.0421
13668W        W13868  15.740  16.081  17.398  0.3256  0.1834  0.2430
13669W        W13869   8.937   6.121   0.578 -0.1589 -0.2171 -0.0202
13670W        W13870   8.410  12.912  17.048  0.1087  0.1850  0.3060
13671W        W13871   7.161   9.024   0.135 -0.0293 -0.0171  0.3646
13672W        W13872  17.923   5.077  15.448  0.0880  0.0507 -0.4260
13673W        W13873   6.443   3.189  15.675 -0.1887 -0.2707 -0.0141
13674W        W13874   2.310   9.007  17.129 -0.0321 -0.0693  0.0169
13675W        W13875   6.488   5.728  10.916 -0.1206  0.2219 -0.2845
13676W        W13876   7.044   3.441  16.400  0.2527  0.3046 -0.1020
13677W        W13877   7.277   2.986  14.190  0.2852 -0.1584 -0.2410
13678W        W13878  13.048   3.227  10.304 -0.1739 -0.0226 -0.3679
13679W        W13879   5.949   2.771   6.279 -0.1539 -0.0186  0.1177
13680W        W13880   8.946   4.897   4.419 -0.0033 -0.1372 -0.1275
13681W        W13881   6.426  10.630   0.257 -0.0355  0.0281  0.1868
13682W        W13882   7.059   2.608  16.837  0.0360  0.1107 -0.1742
13683W        W13883  16.236   8.596  12.351  0.0112  0.0914  0.1560
13684W        W13884   3.326   6.859  13.549 -0.3419 -0.6390 -0.0049
13685W        W13885   9.735   9.280  18.169 -0.0309  0.2427  0.0271
13686W        W13886   4.566   7.646  14.934  0.1583 -0.0633 -0.0915
13687W        W13887  15.615  16.802   0.500  0.2531 -0.2894  0.1242
13688W        W13888   1.248   5.900  12.117  0.0708  0.1263 -0.1196
13689W        W13889   1.643  12.761   3.002 -0.2178  0.0093 -0.1116
13690W        W13890   7.496  10.104   3.154  0.4831 -0.2388  0.2351
13691W        W13891   6.282   8.399  10.693  0.5650  0.1539 -0.0274
13692W        W13892  17.010   8.396  11.558 -0.0108 -0.1858  0.0268
13693W        W13893   5.517  13.731  15.605  0.1060  0.3006  0.2181
13694W        W13894   3.682   8.351  17.137  0.1627  0.0384  0.0303
13695W        W13895   9.713   8.663   9.106 -0.0920 -0.1285  0.1440
13696W        W13896   9.356   1.684   1.373  0.0994 -0.0531  0.2296
13697W        W13897   5.113  17.325   8.305 -0.5009 -0.0373 -0.1337
13698W        W13898  14.066   9.935  14.542 -0.1327 -0.2897 -0.1050
13699W        W13899   7.463  15.316  16.197 -0.1162 -0.0050  0.0625
13700W        W13900  15.574   7.051  18.116 -0.1466  0.5108  0.2261
13701W        W13901   0.011   9.032  17.055 -0.1977 -0.1135  0.0763
13702W        W13902   1.455   3.260  16.988  0.0796  0.3405  0.1818
13703W        W13903   4.337   8.866  14.203  0.3267 -0.0160 -0.2584
13704W        W13904   5.173   5.268  15.066 -0.0721 -0.2484  0.1376
13705W        W13905   4.556  11.785  14.735  0.1182 -0.0974  0.2863
13706W        W13906   4.476  12.323   0.202 -0.1304 -0.4559  0.0534
13707W        W13907  15.304  11.717   4.866  0.0697  0.2267  0.3251
13708W        W13908   2.790   4.701   9.721 -0.0822 -0.2497  0.1379
13709W        W13909   0.002   5.878  17.711  0.2246 -0.0283  0.1372
13710W        W13910  11.342  15.911   5.322 -0.2346 -0.2796 -0.2404
13711W        W13911  14.339   0.701  13.717 -0.3604  0.3012 -0.2116
13712W        W13912   6.046   8.904   6.475 -0.1005 -0.3341  0.2721
13713W        W13913   7.602  15.808  14.108 -0.0997  0.3690  0.0314
13714W        W13914   3.604   8.257  16.139  0.1946 -0.0288  0.1518
13715W        W13915   9.071   4.513   2.294 -0.0723  0.0001  0.1389
13716W        W13916   1.736   9.967  11.939 -0.3006  0.1478  0.3723
13717W        W13917  16.916   9.406  11.451  0.0798 -0.0359  0.1095
13718W        W13918  12.340  16.552  11.576  0.1221  0.1617  0.0094
13719W        W13919   6.372   7.833   3.820 -0.2567 -0.1765  0.2417
13720W        W13920  13.581  14.656   9.869 -0.2251 -0.2637  0.2731
13721W        W13921  15.235   2.350   3.700  0.0674  0.1796  0.1576
13722W        W13922  16.261   6.284  11.987  0.1991 -0.0303 -0.1788
13723W        W13923   5.076   5.195   5.929 -0.1586 -0.0496 -0.0490
13724W        W13924   0.446   9.352  12.276  0.1142  0.3640 -0.1592
13725W        W13925   8.981   7.842   3.609 -0.0104  0.2747  0.2399
13726W        W13926   4.344  11.330  11.930  0.3148  0.1063 -0.1761
13727W        W13927  12.349   7.178  17.341  0.2717 -0.0958  0.0788
13728W        W13928   5.880   1.484   6.314 -0.0368 -0.2700 -0.0611
13729W        W13929   8.113  11.182   0.732  0.0417 -0.2188  0.0558
13730W        W13930  10.609  13.953   0.233  0.0372  0.2112  0.0562
13731W        W13931  17.454   0.519   2.883  0.0247 -0.3064  0.0579
13732W        W13932   5.364  10.597   5.594 -0.2613 -0.0041 -0.1573
13733W        W13933  17.913   1.324   1.490  0.3726 -0.0002 -0.1812
13734W        W13934  13.381  12.887  16.792  0.0249 -0.4256 -0.2429
13735W        W13935   5.326   8.097  13.760 -0.1308 -0.3268 -0.2750
13736W        W13936  17.431   5.215  13.566 -0.0243  0.0573 -0.0481
13737W        W13937  11.237   1.836  13.029 -0.2789 -0.1275 -0.0084
13738W        W13938   0.235  11.347   8.603 -0.4192 -0.2016  0.2239
13739W        W13939   1.135  13.790  10.693 -0.0652 -0.5019 -0.1592
13740W        W13940   8.124   9.875  17.575 -0.3175 -0.0455  0.0846
13741W        W13941  10.063   8.744  12.990 -0.0450  0.1795  0.2608
13742W        W13942   5.634   4.730   5.738  0.1417 -0.4810 -0.0880
13743W        W13943   0.424  11.444   0.028 -0.1133  0.0674 -0.2087
13744W        W13944   6.625   0.987  14.522  0.1648  0.0956 -0.2983
13745W        W13945   0.411   7.180  14.101 -0.1790 -0.0977 -0.1491
13746W        W13946   6.736   3.542   1.788 -0.2854 -0.1378 -0.0482
13747W        W13947   0.376   7.391   9.268  0.1365  0.1257  0.0956
13748W        W13948   5.011   8.742  15.337 -0.2253  0.1109  0.1930
13749W        W13949   5.376   0.387   0.713  0.1561  0.2043 -0.0361
13750W        W13950   6.790   9.404  17.450 -0.0933 -0.2345  0.1307
13751W        W13951  15.366   6.819  14.672  0.2599  0.0268  0.0794
13752W        W13952   5.892   2.827   3.925  0.0975  0.0270  0.2516
13753W        W13953   2.125   7.938   7.502 -0.1002  0.1311 -0.0159
13754W        W13954   4.262  12.317  12.282  0.2142  0.1502 -0.0038
13755W        W13955   8.525   6.207   2.658 -0.2278 -0.2228 -0.1309
13756W        W13956   6.197   1.358  17.880 -0.2284  0.1371 -0.0151
13757W        W13957   3.842   3.280  17.353 -0.1365  0.3646  0.0586
13758W        W13958   7.639   6.086  12.801 -0.1902  0.2246  0.3113
13759W        W13959   3.341   0.078  11.000  0.2059 -0.2609  0.0590
13760W        W13960   9.020   4.561  17.582  0.1273  0.0133  0.3335
13761W        W13961   4.963   8.984  14.557  0.3297 -0.0106  0.2232
13762W        W13962  13.910   5.099  17.202 -0.0239  0.0550 -0.4831
13763W        W13963   5.818  13.347   9.201 -0.2973 -0.1074  0.1764
13764W        W13964  15.912   6.931  16.997 -0.0575  0.0602  0.1057
13765W        W13965  12.592  17.062   1.518 -0.4239 -0.2179  0.2329
13766W        W13966   5.059   7.312   4.898  0.2868  0.0439  0.3715
13767W        W13967   2.145  15.904   0.684  0.2223  0.1584 -0.0512
13768W        W13968  16.385   1.265   7.360  0.0398 -0.1429 -0.2489
13769W        W13969  12.718   9.598   1.461 -0.0027  0.0974 -0.3096
13770W        W13970   4.873   6.247   1.722  0.2993  0.1277  0.0040
13771W        W13971   3.021  10.711   1.704 -0.1265 -0.3589  0.0644
13772W        W13972   4.653   8.718  17.894  0.1323  0.1976 -0.1014
13773W        W13973  13.986  11.397  10.499  0.1427 -0.1241 -0.0190
13774W        W13974   6.647   4.208   0.812  0.2813  0.0780 -0.4637
13775W        W13975   1.533   7.319   2.220  0.0661 -0.1962  0.1277
13776W        W13976   9.649  17.688  17.247  0.3846  0.0735  0.0854
13777W        W13977   1.027   4.003   0.100 -0.3041 -0.1107  0.2763
13778W        W13978   5.660   5.479  11.123  0.0074 -0.2445  0.2837
13779W        W13979   1.382   8.369  11.065 -0.0315 -0.0602 -0.3311
13780W        W13980   9.770   5.323   0.073 -0.0110 -0.1747  0.3141
13781W        W13981   8.258   3.846   7.707 -0.0252 -0.2014 -0.1017
13782W        W13982   8.032  11.697   0.929  0.0973 -0.0524 -0.0872
13783W        W13983  13.392   7.536   1.264  0.0347 -0.3151  0.1910
13784W        W13984  17.867   5.524  16.489 -0.0801  0.0715 -0.1559
13785W        W13985   9.409  15.778  10.376 -0.0145  0.3319 -0.0378
13786W        W13986  13.842   5.832   4.274 -0.0323  0.4477  0.1732
13787W        W13987   7.688   1.420  10.306  0.0918 -0.0312  0.4068
13788W        W13988   1.460   5.261  17.021 -0.0880 -0.3685  0.1474
13789W        W13989   2.358  16.141   1.801 -0.1445 -0.0048  0.0810
13790W        W13990  12.260   4.070  18.091 -0.0647 -0.0780 -0.2520
13791W        W13991   7.582   9.654   3.080 -0.1859 -0.0014  0.0210
13792W        W13992   3.705   8.676  17.957  0.0722 -0.0637  0.2235
13793W        W13993   7.126  15.210  12.524 -0.2597 -0.0632 -0.0194
13794W        W13994  12.560   2.431  17.955 -0.2089  0.1404  0.0532
13795W        W13995  14.805   7.227  10.684 -0.1724 -0.0616 -0.2745
13796W        W13996   7.778  14.194  12.176 -0.2864 -0.0233 -0.1213
13797W        W13997  11.203   6.580   2.919  0.0230 -0.0237  0.1565
13798W        W13998  12.429  11.007   8.478  0.1919  0.0243  0.1964
13799W        W13999   8.050   8.154   1.986  0.3974  0.1671  0.1189
13800W        W14000   9.353  14.802  14.997 -0.1411 -0.2757 -0.3769
13801W        W14001   6.572   1.448  12.785  0.1185  0.0622  0.1686
13802W        W14002   4.922  14.433   9.844 -0.0578 -0.2230  0.2559
13803W        W14003   9.144   5.576  16.987 -0.1541 -0.2019  0.0449
13804W        W14004   3.145  10.859   7.527 -0.0514  0.2562 -0.4571
13805W        W14005   2.753   3.689   1.817  0.0002 -0.0359  0.0757
13806W        W14006   8.841   1.655   1.570 -0.3135 -0.3276  0.1635
13807W        W14007  12.775  14.734  15.147  0.2162 -0.0830  0.0526
13808W        W14008   3.438   7.439   3.145 -0.1794  0.0826 -0.0456
13809W        W14009   5.030  10.432  16.292 -0.0214 -0.0068 -0.1816
13810W        W14010  11.528   6.670  16.860 -0.2770  0.0461  0.0500
13811W        W14011   2.987   2.623   5.050 -0.1142  0.0506 -0.1800
13812W        W14012  13.932   6.632   0.474  0.0340  0.1062 -0.1537
13813W        W14013   3.458   0.924  11.670  0.4147 -0.1014 -0.2248
13814W        W14014   5.047   1.624  16.123 -0.0629 -0.1145 -0.0674
13815W        W14015  15.765   8.055   4.235  0.0181 -0.1728 -0.0721
13816W        W14016   2.858   7.120   6.917 -0.0102 -0.3248 -0.0617
13817W        W14017   4.561   3.782   0.558  0.1616 -0.0605  0.1876
13818W        W14018   2.103   1.528  16.749  0.2358 -0.1119  0.2258
13819W        W14019   4.101   7.423  14.946 -0.3332  0.0903 -0.0902
13820W        W14020  13.690   5.958   1.514  0.1296  0.0707 -0.0272
13821W        W14021   5.378  16.779  13.695 -0.1452  0.2176 -0.1417
13822W        W14022   6.249  16.914  13.634  0.0805 -0.2347 -0.0124
13823W        W14023  17.019   3.188   9.861 -0.4097 -0.0224 -0.1974
13824W        W14024   0.989   9.768   5.823 -0.1483  0.2240 -0.1677
13825W        W14025   9.760   1.276  16.482  0.1876 -0.0573 -0.2737
13826W        W14026   4.475   9.368   8.471  0.0094  0.0785 -0.0265
13827W        W14027  16.924  16.750   2.352 -0.0609 -0.5045  0.0001
13828W        W14028   7.434   0.141  15.529 -0.0080 -0.0213  0.0075
13829W        W14029   4.475   6.037   2.891 -0.0391 -0.2979  0.1013
13830W        W14030   5.261   7.148   4.471  0.1141  0.3760  0.0169
13831W        W14031   2.419   5.793  15.626 -0.0776  0.1671 -0.1050
13832W        W14032   6.836   8.641  14.130  0.1738  0.2228 -0.1970
13833W        W14033   0.754   7.759  17.698 -0.0059  0.0100 -0.3473
13834W        W14034   2.045  10.673  13.997 -0.0703  0.0063  0.1297
13835W        W14035   6.789   8.946  11.853 -0.1097 -0.0839  0.0813
13836W        W14036   7.338   3.403  17.269 -0.2109 -0.0879 -0.1517
13837W        W14037  14.802   4.887  15.726  0.0051 -0.0142 -0.1720
13838W        W14038   3.850   6.418  13.538  0.2601 -0.0446  0.3098
13839W        W14039   1.711   3.965  10.870  0.0261 -0.1945  0.1709
13840W        W14040   8.365   5.982  15.479 -0.2539  0.2136  0.0320
13841W        W14041   9.441  14.599   8.811  0.0184  0.1017 -0.0586
13842W        W14042   2.815  10.636   0.833 -0.2464 -0.2619 -0.0509
13843W        W14043   6.880   7.571   2.073 -0.0489  0.0533 -0.3805
13844W        W14044   8.280   4.642  15.282  0.2052 -0.4312 -0.1013
13845W        W14045   2.816   8.324  17.744  0.0273 -0.0479  0.2045
13846W        W14046   1.994   4.334  15.487  0.0141 -0.1491  0.1774
13847W        W14047   3.284   9.603  15.244  0.4348  0.3677  0.1262
13848W        W14048   0.883   3.737   5.626  0.2073 -0.1937 -0.0086
13849W        W14049   7.225   1.633  14.566 -0.1555 -0.0731  0.0761
13850W        W14050   3.164   5.574  10.497 -0.0571 -0.1507  0.2179
13851W        W14051   6.466   2.953   8.698 -0.3358  0.0829 -0.2474
13852W        W14052   6.208   4.322   0.151  0.2071 -0.1115 -0.0434
13853W        W14053   3.408   1.899  16.318  0.0941  0.0046  0.0109
13854W        W14054  12.894   4.339   4.752  0.0575 -0.0621  0.1609
13855W        W14055   8.239   5.566   2.537 -0.0225  0.1007  0.2973
13856W        W14056   4.126   0.654  13.388 -0.1312  0.1385  0.2493
13857W        W14057  10.152   3.471   0.661  0.2264 -0.0772 -0.1439
13858W        W14058   4.673   3.020  12.610 -0.0752  0.1124 -0.2159
13859W        W14059  13.455   6.252  12.141  0.0288 -0.1517  0.0436
13860W        W14060  15.438  12.980  11.102 -0.1175 -0.0598  0.3536
13861W        W14061   0.768   3.639  10.875 -0.1175 -0.0937  0.0754
13862W        W14062  11.795   7.036  12.442  0.1972 -0.0224 -0.1913
13863W        W14063   2.967   5.066   3.719  0.0330 -0.1247 -0.0608
13864W        W14064   5.421  14.590   0.499 -0.1014 -0.0217 -0.0690
13865W        W14065   7.552   6.867  16.992 -0.4610 -0.1624  0.1788
13866W        W14066   5.728   6.406   9.231  0.1030 -0.3883 -0.1675
13867W        W14067   7.410   1.887   5.255 -0.0458 -0.2814 -0.0198
13868W        W14068   9.628   8.505   0.475  0.2798 -0.0705 -0.0699
13869W        W14069   2.679  13.357  11.214 -0.0126  0.0221  0.0411
13870W        W14070   6.679   6.027  15.078  0.0868 -0.5235 -0.0741
13871W        W14071   9.480  11.602   2.232 -0.2557  0.0859 -0.0626
13872W        W14072  11.854   5.322  14.053 -0.0888 -0.0841  0.0087
13873W        W14073  13.333  17.025   0.371 -0.1710  0.1665 -0.1451
13874W        W14074   2.025   9.502  10.743  0.1968 -0.2213  0.4629
13875W        W14075   0.678   6.604  12.066  0.0274  0.1499  0.1903
13876W        W14076  13.763   8.308   2.672  0.1525 -0.0544  0.2406
13877W        W14077   3.567   6.111  17.398 -0.3449  0.0194 -0.0582
13878W        W14078   9.239   8.178  15.897 -0.2326  0.0380 -0.1757
13879W        W14079  10.198   9.848  11.749 -0.0984  0.0726  0.0184
13880W        W14080   5.831  10.549  17.179  0.2244  0.1599 -0.1399
13881W        W14081   9.066   9.527   5.959  0.1723  0.0908 -0.3830
13882W        W14082   6.709   4.810   1.109 -0.3703 -0.0395  0.0465
13883W        W14083   8.691   6.206   9.328  0.3402  0.0331  0.1478
13884W        W14084  11.653   7.714  13.928 -0.0521  0.0550  0.2277
13885W        W14085   4.132   7.726  13.744  0.0709 -0.4017  0.2124
13886W        W14086   5.520   9.866  13.178  0.1246  0.0566 -0.1190
13887W        W14087   8.299   4.375   3.463 -0.0624 -0.2684 -0.0352
13888W        W14088   7.373  12.250  16.164 -0.2926  0.1313 -0.1034
13889W        W14089  16.655   0.592  13.742 -0.1997 -0.2012  0.1389
13890W        W14090  16.854  13.778   3.227  0.0392  0.2472 -0.0454
13891W        W14091  12.135   5.256  18.066  0.1324 -0.1002 -0.0307
13892W        W14092   9.912   1.132   8.269  0.3499 -0.2577 -0.0256
13893W        W14093   6.413  12.719  12.261 -0.2001  0.1520 -0.0831
13894W        W14094   7.702  11.461   5.595  0.1437  0.2376  0.0344
13895W        W14095  10.941   2.631   1.219 -0.0897 -0.2922  0.0092
13896W        W14096  11.299   5.902  13.540 -0.1841 -0.1338 -0.1990
13897W        W14097  17.463  11.270  11.089  0.0603  0.2532 -0.2258
13898W        W14098   3.232   5.018   0.772  0.1666  0.5025  0.0674
13899W        W14099  14.442  17.712   4.831  0.2130  0.0051 -0.2423
13900W        W14100   9.435   4.236  12.108 -0.1188 -0.0252  0.0712
13901W        W14101   8.887   1.935  15.880  0.3737 -0.1265 -0.3344
13902W        W14102   0.088   6.414   1.797 -0.0154  0.0439 -0.0407
13903W        W14103   0.544   5.684   0.824  0.2051 -0.2370  0.0480
13904W        W14104   0.954   1.279  11.417  0.1164 -0.2562  0.3062
13905W        W14105   7.941   2.829  17.481  0.0993  0.2170 -0.0398
13906W        W14106  16.666   8.577  13.887  0.1707 -0.1368  0.1395
13907W        W14107   5.155   7.969  17.026 -0.0587 -0.2797  0.2988
13908W        W14108   3.626  16.745   4.594  0.1179  0.0613 -0.0407
13909W        W14109   2.873   0.353  16.767  0.0966 -0.0613  0.0841
13910W        W14110  10.142   0.887  13.642  0.0352  0.0087  0.0242
13911W        W14111  15.863   3.450  14.582 -0.1266 -0.2723 -0.0483
13912W        W14112   8.944   6.104  12.006  0.0066 -0.3536 -0.2518
13913W        W14113   3.427   6.903   1.789 -0.3438  0.0210 -0.1823
13914W        W14114   6.661   2.031   1.590 -0.0295  0.0508  0.3287
13915W        W14115   8.931  13.655  12.792 -0.0425 -0.4640  0.3430
13916W        W14116   9.096   1.992   3.344 -0.3394 -0.4412 -0.0147
13917W        W14117   3.539   9.521   9.123  0.2870  0.2696 -0.0950
13918W        W14118  11.614   9.543   0.751 -0.0235  0.1346 -0.3641
13919W        W14119   9.504   7.819  17.225 -0.0175  0.2780 -0.0846
13920W        W14120   4.666  18.145  14.328  0.0730 -0.1313  0.0821
13921W        W14121   8.182   2.033   0.849 -0.2678 -0.3254 -0.1781
13922W        W14122   7.711  15.775  16.638 -0.0600 -0.0611  0.2037
13923W        W14123   6.639   6.719   2.426  0.2149  0.2100 -0.1071
13924W        W14124  13.581   4.122   3.700 -0.0240  0.2852 -0.0836
13925W        W14125   9.621  13.011  17.875 -0.4373 -0.3362  0.2300
13926W        W14126  15.969   0.009  16.476 -0.3031 -0.1786 -0.0848
13927W        W14127  15.975   7.810  17.641  0.2381  0.1394 -0.0653
13928W        W14128   6.810  10.400  11.092  0.0248  0.1435  0.1132
13929W        W14129   7.979  14.184  17.393  0.1098 -0.1943 -0.0669
13930W        W14130   9.321   7.986   8.323  0.3224  0.3715  0.0520
13931W        W14131   3.866  13.547  11.260  0.1285 -0.2719  0.0072
13932W        W14132  16.588   6.677  15.399 -0.0630 -0.0694 -0.0653
13933W        W14133   0.453   8.853  11.873 -0.4513  0.1042 -0.1700
13934W        W14134   7.932   3.413   6.883  0.1966 -0.0956  0.2221
13935W        W14135  12.241  16.214  16.468  0.2945  0.0524 -0.0581
13936W        W14136   1.007   9.000  13.185 -0.2664 -0.0332  0.0400
13937W        W14137   5.250   8.860   3.969 -0.1225  0.1064  0.0714
13938W        W14138   5.003   6.240  15.709  0.0453  0.2972  0.0184
13939W        W14139   9.228   2.957   9.439  0.1447 -0.1265  0.0155
13940W        W14140   5.674  14.668   3.992 -0.0354  0.0452  0.0844
13941W        W14141   0.045   6.411  16.423  0.0343  0.1571 -0.1852
13942W        W14142  10.452   9.577  13.796  0.1275 -0.0824 -0.1047
13943W        W14143  16.405   6.278   5.499 -0.0130  0.1157 -0.0206
13944W        W14144   3.272   4.080   0.596 -0.1712  0.3686 -0.1497
13945W        W14145  13.957   7.687   7.818 -0.0198  0.1948  0.0273
13946W        W14146   3.935  12.328   1.827 -0.0199 -0.1910  0.2031
13947W        W14147   5.696   5.826   8.418 -0.1579  0.2780  0.3946
13948W        W14148  10.540   5.276   5.392 -0.0971  0.0958 -0.0148
13949W        W14149   4.263   6.483   1.017 -0.2043  0.1373 -0.0517
13950W        W14150   2.921   0.550  17.526  0.0538  0.1240  0.1014
13951W        W14151  11.571  15.191  16.148  0.0034 -0.2088  0.2138
13952W        W14152  12.684   6.675   8.181 -0.0888 -0.1297 -0.2282
13953W        W14153  17.833  16.705   0.587  0.3490 -0.0453  0.0403
13954W        W14154  10.619   3.741  10.242  0.1812 -0.4101 -0.0724
13955W        W14155   8.726  15.544   2.073  0.3416 -0.3235  0.0012
13956W        W14156   5.522   8.896  11.545 -0.3370  0.1827 -0.1465
13957W        W14157   7.948   7.548  14.025  0.0041  0.2457  0.4332
13958W        W14158  12.544   1.181  14.879  0.1016  0.1063 -0.3134
13959W        W14159   0.158   5.467  18.157 -0.2042  0.1877 -0.0587
13960W        W14160   9.051   3.346  12.565 -0.1394  0.2539  0.2216
13961W        W14161  10.204   6.973  17.620  0.1404  0.2515 -0.0412
13962W        W14162   5.715   5.706   3.692  0.2470  0.4175  0.1674
13963W        W14163   3.102  10.374  18.146 -0.0659 -0.1527  0.0850
13964W        W14164   7.374   0.206   0.062  0.0079  0.0350  0.0952
13965W        W14165  13.887   8.179  15.332  0.0523 -0.1010  0.0203
13966W        W14166   4.030   4.473  14.607 -0.3785 -0.0568 -0.0102
13967W        W14167   5.764   1.138  17.675  0.3211  0.1183  0.1862
13968W        W14168   2.427   0.777   7.169  0.0623  0.1506 -0.2243
13969W        W14169   2.727  11.074   7.461 -0.1001  0.0544 -0.0692
13970W        W14170   7.143  17.551   1.002  0.2250  0.0754 -0.0239
13971W        W14171  15.338   4.273  14.284  0.0229  0.0143  0.1890
13972W        W14172  11.733  10.714  13.486 -0.0988 -0.3982 -0.2239
13973W        W14173   2.249   4.637  13.022 -0.0414 -0.0398 -0.3027
13974W        W14174   0.710   2.394   0.106 -0.0296 -0.1042 -0.0320
13975W        W14175   0.339  10.390  16.485  0.2109  0.0143  0.0495
13976W        W14176   0.916   8.787  17.857  0.0620  0.3003 -0.0747
13977W        W14177   5.654   4.167  15.389  0.1351 -0.0266  0.6088
13978W        W14178   5.579   8.675   3.567  0.2520  0.1269 -0.2615
13979W        W14179   5.998   8.120   0.433  0.1644 -0.1033 -0.0571
13980W        W14180   6.692  15.463   1.067 -0.0586 -0.0283 -0.0835
13981W        W14181   7.365  15.272   3.011  0.2685 -0.1273  0.0301
13982W        W14182   8.144   5.280   0.401 -0.0405 -0.1706  0.0636
13983W        W14183   4.727   3.889  15.103  0.0069 -0.2371 -0.0385
13984W        W14184   1.763  17.555   3.921  0.0972 -0.1166  0.0722
13985W        W14185   0.058  10.503   9.500 -0.3556 -0.3702 -0.0728
13986W        W14186   5.200   9.451   9.821 -0.1112  0.1726  0.0667
13987W        W14187   4.640   8.613   7.392 -0.0559 -0.1211  0.2379
13988W        W14188   9.193   8.543   5.018 -0.2239  0.1291  0.0786
13989W        W14189   8.184   7.725  12.469  0.0385  0.2236 -0.0502
13990W        W14190   5.538   6.278  16.598 -0.0298  0.0627 -0.0834
13991W        W14191   1.171  13.900  13.212 -0.0566  0.3049 -0.2613
13992W        W14192  16.361  11.274  17.554 -0.2964 -0.2556 -0.0818
13993W        W14193  12.382   5.064  15.339  0.1029 -0.1902 -0.1254
13994W        W14194  13.685  11.496  12.818  0.1294  0.1620  0.1888
13995W        W14195  15.073  11.848  15.866  0.1725 -0.2329  0.0389
13996W        W14196   5.125   1.492  18.051 -0.3234 -0.0970  0.2608
13997W        W14197   7.901  10.885  17.508  0.0293  0.0345 -0.1368
13998W        W14198   8.826   4.580  15.171 -0.0231  0.0381  0.0587
13999W        W14199   6.965   6.497  10.559  0.5104 -0.0107  0.1284
14000W        W14200   8.519  13.830  14.369  0.0520  0.0862 -0.1683
14001W        W14201  10.196   0.892   9.810 -0.2249 -0.1340 -0.1593
14002W        W14202   2.844   5.251  17.445  0.0732 -0.0157  0.0752
14003W        W14203  17.093  11.030  10.860  0.1564 -0.1651  0.0387
14004W        W14204   3.752   1.873   0.912  0.0662 -0.0528 -0.1619
14005W        W14205   0.793  13.608   8.984 -0.0174  0.2105 -0.0572
14006W        W14206   2.064  10.677   7.016 -0.0075 -0.1842  0.1347
14007W        W14207   5.344   4.245  14.069  0.3351  0.0671 -0.0707
14008W        W14208   9.918  14.073  10.887  0.3305  0.0490 -0.0304
14009W        W14209   3.244   8.320   6.320  0.2642 -0.0948  0.1777
14010W        W14210   3.857   6.955  15.035  0.0284  0.2217  0.0045
14011W        W14211   4.655   3.134  16.162 -0.0716  0.1241 -0.1831
14012W        W14212   6.879   9.802  13.603  0.0527  0.2752  0.0163
14013W        W14213   0.782   3.496  16.426  0.0128  0.1049 -0.0857
14014W        W14214   5.955  14.034  14.121  0.2484 -0.0532  0.0172
14015W        W14215   2.873  10.547   4.531 -0.2406 -0.1478  0.0033
14016W        W14216   9.213  17.871  16.118  0.1639  0.0461 -0.0211
14017W        W14217   1.880   5.700   0.830 -0.3802 -0.2047 -0.0426
14018W        W14218   4.903   3.750  15.599 -0.0108 -0.0438 -0.1718
14019W        W14219   6.185  11.555   1.791 -0.2848 -0.2856  0.1173
14020W        W14220   7.658   1.930   1.662  0.0857 -0.0264 -0.2699
14021W        W14221   2.222   7.505  10.249 -0.2739 -0.0085  0.2062
14022W        W14222   5.151  10.192  13.160  0.0559 -0.0855 -0.0895
14023W        W14223   9.396  10.957  16.470  0.4135  0.0286 -0.1170
14024W        W14224   5.277   5.410  16.209 -0.0802  0.0210 -0.1530
14025W        W14225   2.109   9.758   1.139  0.0022 -0.0651 -0.0398
14026W        W14226   4.261   4.349   0.690 -0.1474  0.1211 -0.1204
14027W        W14227   8.117  11.936  15.550 -0.0339  0.2724 -0.2064
14028W        W14228  16.084  10.812   1.272  0.1228  0.2311  0.3186
14029W        W14229   0.944   7.013  18.028 -0.5477 -0.3531 -0.1815
14030W        W14230   6.178   5.079   0.437 -0.2965 -0.2018 -0.1341
14031W        W14231   4.977   6.646   2.040  0.1980 -0.0160 -0.2518
14032W        W14232   5.421  10.092   6.056 -0.5274  0.0671 -0.0940
14033W        W14233   4.965   0.752   5.413 -0.1551  0.0692  0.2109
14034W        W14234  15.709  14.259   7.940 -0.0409 -0.2830 -0.2805
14035W        W14235   6.105   1.795  15.766  0.4090  0.0768 -0.3708
14036W        W14236   1.059  10.514  15.166  0.2187  0.0184  0.2766
14037W        W14237   2.056   6.798  15.328 -0.0400  0.2595  0.2895
14038W        W14238   7.496   9.778   3.774 -0.0642  0.0379 -0.1296
14039W        W14239   2.599   5.782  17.430  0.1770 -0.2311  0.1398
14040W        W14240  12.782  11.969   1.449 -0.2470  0.1479  0.0435
14041W        W14241   2.269   8.571   6.979 -0.0458 -0.3252  0.0301
14042W        W14242   6.495  13.657   2.912  0.0377 -0.1572 -0.0464
14043W        W14243   6.822   5.511  15.271 -0.1722  0.1378 -0.0371
14044W        W14244   7.329   5.717   2.789  0.0699  0.0225  0.1557
14045W        W14245   7.379   8.896   6.283  0.1624  0.0767 -0.0209
14046W        W14246  17.369   9.288  17.592  0.0633  0.2597 -0.2353
14047W        W14247   3.968  11.169  12.996 -0.1598  0.2481  0.0588
14048W        W14248   1.547   6.547   3.163 -0.1561 -0.0706  0.1139
14049W        W14249   7.387  15.120   9.291 -0.3413 -0.1591 -0.2237
14050W        W14250   1.526  11.164  15.312 -0.0399  0.1326  0.0355
14051W        W14251   4.538  13.898   6.103  0.4572 -0.2402  0.1448
14052W        W14252   4.494   9.780   0.460 -0.2154 -0.0372  0.1086
14053W        W14253   2.758   5.092  15.730 -0.4414  0.2898  0.1173
14054W        W14254   6.993   9.833   7.646 -0.1082 -0.0027  0.2841
14055W        W14255   1.193  14.985  16.945 -0.0448 -0.0809  0.3056
14056W        W14256   9.933   4.488   2.705 -0.1947 -0.0225  0.3515
14057W        W14257   6.663  13.354  15.017 -0.1732 -0.2547  0.3139
14058W        W14258   5.966   4.224   3.677  0.1921  0.2283 -0.0062
14059W        W14259   3.495   9.117   6.093  0.3357 -0.0797  0.0184
14060W        W14260  18.046  13.189  11.779 -0.1617 -0.3156 -0.1851
14061W        W14261  16.119   0.543   5.718  0.1888 -0.2162  0.3587
14062W        W14262   9.526   8.968  16.829  0.2191  0.2944  0.1357
14063W        W14263  13.174  10.512   1.135 -0.1134 -0.0199  0.3174
14064W        W14264   7.807  10.771   9.055  0.0329  0.2235  0.0124
14065W        W14265  15.620   7.056  17.419 -0.1265 -0.0008 -0.3021
14066W        W14266   6.865  15.158   6.285 -0.1076  0.0748 -0.0530
14067W        W14267  10.968   8.196  17.552 -0.1460 -0.0007  0.0495
14068W        W14268   8.197   6.058   2.320 -0.1281 -0.1787 -0.1179
14069W        W14269   5.906  10.844  10.462 -0.0527 -0.1173 -0.0974
14070W        W14270  17.460  13.136   0.477  0.0199  0.2658 -0.0441
14071W        W14271   1.531  17.661   0.453  0.0094 -0.2510  0.2206
14072W        W14272   9.108   2.576   7.908 -0.2829 -0.3575  0.0269
14073W        W14273   7.033   8.860  10.777 -0.3131  0.1286  0.2283
14074W        W14274   6.079   7.473  14.346 -0.0269 -0.0687  0.4289
14075W        W14275  12.198  13.146   5.766  0.0492 -0.0586 -0.0795
14076W        W14276   1.771  13.791   7.258  0.1309 -0.0784 -0.0085
14077W        W14277   2.963  15.454  13.123 -0.0295 -0.0561  0.0973
14078W        W14278   4.625   5.278  12.274  0.0571  0.0648  0.3178
14079W        W14279   3.565  15.307   9.424  0.1014  0.2462 -0.0496
14080W        W14280  13.419   6.553  13.965  0.1207  0.0493 -0.0133
14081W        W14281   8.323  11.619  16.917 -0.1859  0.0115  0.0537
14082W        W14282  17.603  12.686   3.374 -0.3030  0.0278  0.3762
14083W        W14283   6.314  12.911   0.004  0.1870 -0.0497  0.1999
14084W        W14284   9.583   7.690  16.757  0.2507 -0.0413  0.0448
14085W        W14285  11.737  10.911   9.091  0.0102  0.1554 -0.2040
14086W        W14286   4.605  11.501   3.311  0.0446  0.1302 -0.0518
14087W        W14287   5.068   1.851   7.855 -0.0807 -0.2116 -0.2510
14088W        W14288   4.107  10.767   3.760 -0.0697  0.1190 -0.0699
14089W        W14289   2.835  10.630  14.552 -0.0119 -0.1684 -0.2994
14090W        W14290   2.701  11.775  14.838 -0.0343  0.0520 -0.1122
14091W        W14291  17.959   8.915   9.909  0.1766 -0.3311 -0.2594
14092W        W14292   1.149   5.627   4.912 -0.2534  0.0686  0.2806
14093W        W14293  17.180   0.245   1.321 -0.0481 -0.2039 -0.1332
14094W        W14294   2.985   9.486   4.330 -0.0107  0.0915  0.4232
14095W        W14295  13.803  13.598   8.414  0.1834 -0.2791 -0.0027
14096W        W14296   7.844  16.203   3.168  0.1529 -0.0367 -0.1569
14097W        W14297   5.928  16.000   7.125 -0.0733 -0.0327  0.1212
14098W        W14298   0.900  10.024   4.817 -0.3107 -0.0723 -0.0560
14099W        W14299   9.320  14.999  13.250  0.2291  0.1273 -0.2363
14100W        W14300   5.142   2.930   4.375 -0.2459  0.0255 -0.0324
14101W        W14301  17.776  11.276   4.652  0.1547  0.0960 -0.2519
14102W        W14302  17.949  11.377  10.815 -0.2924 -0.1068 -0.2629
14103W        W14303   7.190  12.561   4.896 -0.1462  0.0875 -0.1064
14104W        W14304   4.079   7.106   1.762 -0.0437  0.3055  0.1185
14105W        W14305  17.079   8.462  14.573  0.0983  0.0266 -0.0933
14106W        W14306  16.171  13.711   4.025 -0.0368 -0.0115 -0.0257
14107W        W14307   1.991   6.015   5.111  0.3652 -0.1675 -0.2621
14108W        W14308  17.782   6.592   0.444 -0.2487  0.1959  0.1465
14109W        W14309   7.214  16.940  17.048 -0.1115 -0.3715 -0.0823
14110W        W14310   4.816   2.389   1.067  0.1982  0.0870 -0.0864
14111W        W14311   7.430  12.343   7.021  0.0602  0.1567 -0.0605
14112W        W14312   5.587  12.146   6.942  0.0382  0.0456  0.2415
14113W        W14313   9.192   6.509   7.289 -0.2020 -0.0187 -0.1812
14114W        W14314  15.575  11.863  15.220 -0.0933 -0.0970 -0.2376
14115W        W14315   8.766   4.700   5.495  0.0728  0.0032 -0.6114
14116W        W14316   4.986  13.126  18.128 -0.3669 -0.0707  0.1014
14117W        W14317   8.616   7.205   7.197  0.0372  0.0509 -0.0097
14118W        W14318  15.127   9.639  17.645  0.2196  0.1536  0.3318
14119W        W14319   2.380  13.543   8.088  0.0600  0.4156  0.1726
14120W        W14320   5.430   5.097   8.944 -0.1778 -0.3830  0.0238
14121W        W14321   1.802  13.775  17.802 -0.1153 -0.1827 -0.0879
14122W        W14322   6.876   2.545   9.954  0.1164  0.0655 -0.1435
14123W        W14323   8.369  11.531   4.178 -0.1804 -0.1069 -0.1443
14124W        W14324  11.892   0.886   5.562 -0.0549 -0.2424 -0.0767
14125W        W14325   7.495   7.938  15.442 -0.0750 -0.2839 -0.3512
14126W        W14326   1.775  14.302   2.945  0.0582  0.1851  0.1030
14127W        W14327   3.295   2.008   3.854  0.1312 -0.0372 -0.0855
14128W        W14328  10.031   6.538  17.887 -0.2086  0.0153 -0.1664
14129W        W14329  10.619   1.293  15.542 -0.1284  0.2213 -0.0937
14130W        W14330  12.178   3.505  12.523 -0.1811  0.1793 -0.0249
14131W        W14331   7.755  10.033  17.302  0.1301 -0.0843  0.0846
14132W        W14332   8.211  10.511   9.148  0.2129 -0.2007 -0.0653
14133W        W14333   2.473   0.237   7.313  0.1128 -0.3077  0.0587
14134W        W14334   0.261   3.734  18.072  0.2896  0.1320  0.1599
14135W        W14335   0.774   9.329   2.854 -0.0172 -0.2148 -0.2513
14136W        W14336   4.854   6.563   2.489 -0.0174  0.1805  0.3019
14137W        W14337   1.256  11.966   4.940  0.0624  0.0998 -0.1135
14138W        W14338   7.592   7.715   1.229  0.1002 -0.3198 -0.0952
14139W        W14339   5.341  14.262   4.277  0.1207 -0.3145 -0.1717
14140W        W14340   6.564   7.388  12.867 -0.0580  0.0416 -0.1774
14141W        W14341   6.413   4.461   1.886 -0.0802  0.1037  0.0795
14142W        W14342   1.749   8.149  16.188  0.1387 -0.2516  0.4095
14143W        W14343  17.905  12.648   2.915 -0.0335  0.0242 -0.0848
14144W        W14344  11.731   8.910  16.175 -0.0065  0.1599  0.1622
14145W        W14345   1.053  12.826   5.104 -0.2369  0.0732 -0.1459
14146W        W14346   2.370  17.086  11.958  0.0172 -0.1857 -0.0073
14147W        W14347   1.678  14.680   1.199  0.2522 -0.1949  0.4931
14148W        W14348   4.023   1.368  16.401 -0.0537 -0.0349  0.0314
14149W        W14349  16.876   3.017  16.945 -0.1045  0.1771  0.1544
14150W        W14350   2.386  14.912   8.768  0.0254  0.2848  0.0420
14151W        W14351   4.566   4.983   3.255 -0.3103 -0.4564 -0.2189
14152W        W14352   7.760   7.808   3.995 -0.1230  0.0408 -0.1359
14153W        W14353   6.223   0.514  11.097  0.1676 -0.0597  0.2975
14154W        W14354  17.828  10.998   2.581  0.0850  0.2106 -0.1017
14155W        W14355   7.550   7.606   9.205  0.0659 -0.1817  0.2715
14156W        W14356   9.717   4.450  16.369 -0.0229  0.1312 -0.0685
14157W        W14357   0.783  14.439  13.333  0.1347  0.1592 -0.0584
14158W        W14358   0.999   8.901   7.437  0.0856  0.2533  0.0543
14159W        W14359   2.314   8.962   1.379  0.2511  0.1504 -0.0367
14160W        W14360   0.632   4.375   0.967  0.1373 -0.0941 -0.1663
14161W        W14361   4.547   9.406   0.925 -0.2205 -0.0421  0.2777
14162W        W14362   2.739   0.001   6.044 -0.1053 -0.0069 -0.4607
14163W        W14363  15.162  18.097   4.808 -0.0428 -0.0868  0.6407
14164W        W14364   4.445  13.695  17.534  0.0401  0.0381  0.1354
14165W        W14365   7.287   2.435   4.327  0.3544 -0.0296  0.0993
14166W        W14366   5.643  10.750   3.002  0.1874 -0.2155 -0.1087
14167W        W14367  13.276  11.160   2.544  0.1914 -0.0455 -0.0945
14168W        W14368   5.318   0.076   5.524 -0.0217  0.2321 -0.1158
14169W        W14369  14.965  16.089  15.277  0.0447 -0.0186  0.2955
14170W        W14370   7.163  10.744   2.008  0.1596  0.1576 -0.1440
14171W        W14371   2.954  17.067  10.114 -0.1632 -0.3923  0.1640
14172W        W14372   5.974   8.144   4.670  0.0802 -0.3580  0.2052
14173W        W14373   3.284  13.695   0.872  0.4259  0.3739 -0.1151
14174W        W14374   1.475  17.440   5.782  0.2580 -0.2045 -0.0292
14175W        W14375   8.692   6.310   8.356 -0.3280 -0.2473  0.1099
14176W        W14376  13.072   9.132  15.682 -0.0612  0.2828  0.0302
14177W        W14377   8.786  10.278   9.170  0.2632  0.0351 -0.0086
14178W        W14378   9.491  15.146  12.741 -0.2360 -0.3936  0.1003
14179W        W14379   6.591   1.759  17.972 -0.0226 -0.0733  0.1093
14180W        W14380   3.795   1.217   0.142  0.3272 -0.2638  0.1602
14181W        W14381  17.396  13.389   5.439  0.0041 -0.3128 -0.0746
14182W        W14382   5.994   4.332  13.620  0.3050 -0.0873 -0.2940
14183W        W14383   5.754   9.842  15.406 -0.0886  0.4738 -0.1073
14184W        W14384   6.361   4.839   1.471  0.0033 -0.3451  0.0485
14185W        W14385  10.971   9.639   1.017 -0.0111 -0.0614  0.1055
14186W        W14386   8.105  12.797   5.003 -0.4644 -0.1429 -0.0234
14187W        W14387   8.915   8.195   4.687 -0.3888 -0.5102 -0.1028
14188W        W14388  13.731  11.760   8.075 -0.0230  0.1759  0.1282
14189W        W14389   4.467   2.041   8.410  0.2962 -0.2088  0.0944
14190W        W14390   1.598  15.705   6.327  0.1894 -0.1413 -0.0240
14191W        W14391  18.068   9.967  17.812  0.0950 -0.0873  0.0651
14192W        W14392  11.860   7.601   7.269  0.0276  0.0591 -0.1881
14193W        W14393   3.624  10.184   7.501  0.1879  0.2945  0.2418
14194W        W14394  10.716   8.309   8.745 -0.1591 -0.1646 -0.2195
14195W        W14395   6.525  12.157  17.644  0.1402  0.1495 -0.1146
14196W        W14396   2.560   6.590  16.011 -0.0582  0.0198  0.0901
14197W        W14397  15.133  13.683  17.524 -0.3225  0.2612  0.0700
14198W        W14398  16.823  13.619   4.651  0.0945  0.2024 -0.1335
14199W        W14399   8.621   8.115   2.680 -0.0733 -0.0826  0.0280
14200W        W14400   7.311   7.381  16.717  0.3990  0.1721 -0.0823
14201W        W14401   7.311  11.758  15.298  0.1056 -0.0867  0.1565
14202W        W14402   5.793   6.812   8.682 -0.3088 -0.0138  0.0292
14203W        W14403   8.540   2.351  12.913 -0.1368  0.0021 -0.0367
14204W        W14404   7.496  13.152   3.374 -0.0589 -0.0114  0.0196
14205W        W14405   9.762   5.746   2.176  0.4855 -0.0946 -0.0240
14206W        W14406  10.993  11.941   0.838  0.2175 -0.2660  0.1524
14207W        W14407   0.409  13.211   1.062  0.2093  0.2883  0.1336
14208W        W14408   8.663   9.603   0.036 -0.0506  0.2370 -0.1557
14209W        W14409   2.592   0.343  17.211 -0.0389 -0.1164  0.1053
14210W        W14410   2.216  11.290   2.244  0.0212 -0.2616 -0.1812
14211W        W14411   3.367  11.981   3.420 -0.0061  0.0178 -0.0392
14212W        W14412  10.442  14.818   2.327  0.0796 -0.0929  0.1692
14213W        W14413   4.804   6.520  17.004 -0.1116 -0.1979 -0.0870
14214W        W14414   4.930  13.156   9.665  0.0408  0.1193  0.1622
14215W        W14415  11.332   7.719   0.759 -0.0969  0.1646 -0.0388
14216W        W14416   2.242  11.497  18.079 -0.0237 -0.0151 -0.2607
14217W        W14417  11.536  13.707   1.917 -0.3092 -0.0201 -0.2918
14218W        W14418   3.380  12.796   5.358  0.0306 -0.4132  0.2173
14219W        W14419  12.058   5.489   9.078 -0.0334 -0.0982  0.2180
14220W        W14420   4.587   7.874   0.402 -0.0582  0.0182  0.0914
14221W        W14421   8.039  12.842   5.550  0.0267 -0.1508  0.0080
14222W        W14422   9.873  10.791   1.626  0.2551  0.2780 -0.1143
14223W        W14423  16.295  13.964   9.045 -0.3394  0.0191 -0.2503
14224W        W14424  16.557  14.139   8.308  0.3211  0.1001  0.1344
14225W        W14425   5.612  13.866   3.308  0.0356 -0.2453 -0.0643
14226W        W14426   5.415   0.558   5.196 -0.1981 -0.0894  0.1649
14227W        W14427   5.799  10.337  15.459  0.1571 -0.2268 -0.0168
14228W        W14428  15.165  10.168   0.178 -0.0798 -0.1020  0.1418
14229W        W14429   4.846   6.738  13.830 -0.0510 -0.0538  0.1764
14230W        W14430   3.513   8.271   7.655  0.4594 -0.0277  0.0075
14231W        W14431   1.779  13.470   5.780  0.2634 -0.0888 -0.0705
14232W        W14432   4.828  11.529   2.312 -0.0279 -0.4560 -0.0054
14233W        W14433   5.678   0.391  16.728  0.2118  0.3583  0.1178
14234W        W14434  16.567   8.972   0.750  0.1844 -0.0720  0.0307
14235W        W14435  17.040   4.883   2.469  0.0650 -0.2453  0.0717
14236W        W14436   4.970   6.354   4.396 -0.0072  0.0772  0.0639
14237W        W14437   5.574  17.717   4.943 -0.0759 -0.1910  0.0256
14238W        W14438  10.550   4.138   0.144 -0.0222  0.2109 -0.0131
14239W        W14439   3.424  13.404   3.586  0.1589  0.1894 -0.0352
14240W        W14440   9.767  12.342   2.494 -0.0277 -0.0747  0.2447
14241W        W14441   0.184  12.679   1.645 -0.1108 -0.3107  0.1303
14242W        W14442  10.712  10.112  18.088  0.0303 -0.1356 -0.0392
14243W        W14443  13.470  12.267  15.967 -0.1326  0.0654  0.4253
14244W        W14444   7.160   6.014  16.252  0.1058  0.0262  0.0298
14245W        W14445   7.495   1.895  17.982 -0.0815 -0.2288 -0.1463
14246W        W14446   5.647  17.740  17.908  0.0027  0.0060 -0.1414
14247W        W14447   6.006  10.654   1.509 -0.3130  0.1034  0.0735
14248W        W14448   9.322   7.704  16.341  0.0172 -0.1373 -0.0119
14249W        W14449  13.097  12.227  12.407  0.0631  0.1451 -0.0112
14250W        W14450   9.529  10.864   3.510  0.2332  0.3031  0.0058
14251W        W14451   4.108  10.266   6.336  0.1991 -0.1412 -0.1425
14252W        W14452  16.221   3.196  16.236 -0.0357 -0.0313 -0.0737
14253W        W14453   0.664  12.765   5.953  0.0101  0.2236 -0.1161
14254W        W14454   1.438  15.345   1.038 -0.0131 -0.1265 -0.2369
14255W        W14455   6.569   7.152   2.670  0.1230  0.0652  0.1159
14256W        W14456   9.373   8.865  12.616 -0.3241 -0.2312  0.0424
14257W        W14457  15.406   8.863  17.011  0.0456  0.0929  0.1692
14258W        W14458   6.691  16.434   0.546  0.0460  0.0059  0.0362
14259W        W14459   6.093   7.457   5.462  0.2336  0.1818 -0.0541
14260W        W14460   2.749  12.554   2.378  0.2527  0.0289 -0.2409
14261W        W14461   8.885   6.198   2.317  0.0427  0.1194 -0.3215
14262W        W14462   2.696   5.319  12.519  0.0068 -0.2357 -0.3403
14263W        W14463  15.467   9.310  16.251 -0.0384 -0.1112  0.2817
14264W        W14464   7.201   9.491   6.529  0.1883  0.1450  0.5018
14265W        W14465  17.759  11.866   8.752  0.1054  0.2700 -0.0345
14266W        W14466  15.577  10.520   2.110 -0.0382 -0.1451  0.0090
14267W        W14467   5.316   9.120   0.175 -0.1484  0.1329 -0.1223
14268W        W14468  13.538   1.313  15.352  0.0345  0.2021  0.0466
14269W        W14469  14.615   6.417   1.296  0.0318 -0.0011 -0.0294
14270W        W14470  11.389   5.476   2.132  0.3389 -0.0784 -0.0132
14271W        W14471  10.330   4.545   3.535 -0.1319  0.0441 -0.1236
14272W        W14472  17.025   2.510  16.460  0.1001 -0.0054 -0.0067
14273W        W14473   8.692  10.994   6.899  0.1960  0.0884  0.1262
14274W        W14474   8.141   9.812  11.024  0.0468 -0.3441 -0.0404
14275W        W14475   1.631   1.409   0.744  0.0861  0.0351  0.0840
14276W        W14476  10.318  13.660   2.333  0.0097  0.2404  0.1086
14277W        W14477  10.500   2.718   4.608  0.2184 -0.0298  0.3389
14278W        W14478  17.254   8.620  10.776 -0.0392 -0.0775 -0.2206
14279W        W14479   6.324   7.474   0.774 -0.4296 -0.2184 -0.2045
14280W        W14480  11.192  15.641   6.689 -0.2866 -0.1187 -0.0931
14281W        W14481   9.265  13.306  13.387 -0.2091 -0.1122 -0.1431
14282W        W14482   2.965   0.961   9.003 -0.0263  0.1200  0.2764
14283W        W14483   5.090  13.741   0.777 -0.0143 -0.0744 -0.0107
14284W        W14484  12.538   6.205  11.970 -0.0112  0.0467 -0.2689
14285W        W14485   2.960  15.073  12.756  0.2031  0.0871  0.0872
14286W        W14486  16.800   4.529   4.122  0.0079 -0.1444 -0.3064
14287W        W14487  10.429  10.603   1.737 -0.3021  0.2180  0.0533
14288W        W14488   7.617   7.471   4.805 -0.0866  0.1979 -0.1172
14289W        W14489   1.498  12.455  16.531 -0.1034 -0.1081 -0.0646
14290W        W14490   3.556   9.058   1.646 -0.1350 -0.0336  0.2637
14291W        W14491   6.497   8.199  18.028 -0.1155  0.2261  0.1183
14292W        W14492   1.386   6.420   4.535  0.1093 -0.2468 -0.1527
14293W        W14493   5.951   3.682   4.558  0.1284 -0.1039  0.0943
14294W        W14494   4.831   4.356  12.308 -0.1270  0.4535 -0.3057
14295W        W14495   6.221   4.673  14.466 -0.3890  0.1711  0.1808
14296W        W14496   8.142   8.969  17.657  0.0583 -0.1273 -0.1177
14297W        W14497   8.803  11.317   0.845 -0.0817  0.0431 -0.4199
14298W        W14498   8.834  10.606   0.621 -0.1171 -0.0078  0.3120
14299W        W14499   0.519  11.178  16.595  0.0986 -0.2216  0.0130
14300W        W14500   0.697  15.165   6.129  0.3017  0.2423 -0.3500
14301W        W14501   1.644  11.640   3.133 -0.0361  0.0231  0.0227
14302W        W14502   4.412  11.601   8.763 -0.0445  0.4378 -0.0631
14303W        W14503   7.309   8.866  14.418 -0.1878  0.2430 -0.0248
14304W        W14504  16.599  12.780  11.964 -0.1262 -0.3357 -0.1172
14305W        W14505   0.558   5.524   1.837 -0.1043 -0.0607  0.2239
14306W        W14506   2.697  15.347  16.684  0.0606 -0.0098 -0.1152
14307W        W14507  10.150   1.357   2.967  0.1121 -0.0636  0.0932
14308W        W14508  12.406  13.386   9.592  0.3001  0.1153  0.1542
14309W        W14509   1.499   2.104  10.118 -0.1552 -0.2773 -0.1037
14310W        W14510  10.796   0.906   9.822  0.1280  0.0196  0.2274
14311W        W14511   5.490  16.479   9.263 -0.1864 -0.0203 -0.0979
14312W        W14512   1.582  10.109   8.904  0.1999  0.2697 -0.1255
14313W        W14513  13.365   5.157  15.900 -0.1699  0.3198 -0.0306
14314W        W14514   8.221   8.520   1.432  0.3576 -0.0168 -0.0981
14315W        W14515   9.078   6.120   0.070  0.1303 -0.1863  0.0355
14316W        W14516   1.004   9.427  13.503  0.0206 -0.1269 -0.2271
14317W        W14517   7.871   9.429   3.677 -0.0191 -0.2166  0.2446
14318W        W14518   4.792  12.139   1.827 -0.2299 -0.1027 -0.2183
14319W        W14519   6.853  10.484  14.873  0.0106 -0.0648  0.1188
14320W        W14520   0.313   7.078   0.616 -0.1239 -0.0015 -0.2927
14321W        W14521   3.431   8.760   6.421 -0.3638 -0.2580  0.3849
14322W        W14522  12.457   5.593  16.674 -0.2318 -0.2182  0.2330
14323W        W14523   1.378  17.980   2.184 -0.1435  0.0299  0.4216
14324W        W14524   5.448  11.178   3.151 -0.1604  0.1696  0.1441
14325W        W14525   8.968  10.600  17.402 -0.0500 -0.3166 -0.1070
14326W        W14526   6.380   8.468   0.368  0.1245  0.1859  0.3488
14327W        W14527  11.268  10.337   8.401 -0.1630 -0.1233 -0.2557
14328W        W14528  11.694  15.123   7.296  0.1899 -0.0838  0.2050
14329W        W14529   6.849   8.464  17.664  0.3183 -0.0324 -0.0697
14330W        W14530   9.027   8.658  10.170  0.2404  0.0186  0.1139
14331W        W14531   6.921  13.409   7.893  0.1785 -0.2704  0.1504
14332W        W14532  17.895   5.402   0.156 -0.0337  0.0652 -0.3623
14333W        W14533   1.548  17.376   4.410 -0.2153 -0.1818  0.0164
14334W        W14534  16.953  17.996   8.354 -0.0634  0.0148  0.3456
14335W        W14535  13.924  16.039  10.905 -0.1567 -0.0286  0.0948
14336W        W14536  18.076  16.169   3.739 -0.0012  0.1129  0.2124
14337W        W14537   6.087   5.309  16.463  0.3210 -0.1476 -0.3144
14338W        W14538   1.938   5.146  16.232  0.0104 -0.0226 -0.1950
14339W        W14539   1.690   9.146   6.540  0.0315  0.2075  0.2541
14340W        W14540   3.764  13.316   5.970  0.1354 -0.0026 -0.1666
14341W        W14541   8.346   7.366   3.341  0.0600 -0.1987 -0.0426
14342W        W14542  10.360   3.862   8.334 -0.0748  0.0784  0.0132
14343W        W14543   7.787   5.942  14.233  0.0876 -0.2208  0.1913
14344W        W14544   0.752   9.517   0.757 -0.1331  0.1449 -0.1042
14345W        W14545   6.067   2.148   4.034 -0.1435 -0.2795  0.1300
14346W        W14546  17.471  11.797  15.290 -0.0208  0.1299 -0.1117
14347W        W14547  15.700   7.313   7.697  0.0933 -0.1413 -0.1679
14348W        W14548   7.535  13.640   3.770 -0.1362  0.3890 -0.2308
14349W        W14549   0.424   0.706   1.280 -0.0242 -0.0656 -0.0829
14350W        W14550  18.079   7.987   3.335  0.0429  0.0370 -0.0905
14351W        W14551  10.260   5.591  11.972 -0.3152  0.1874  0.1558
14352W        W14552   0.666   7.334  17.387  0.4559  0.0061  0.0777
14353W        W14553   9.192   9.935  14.505  0.1612 -0.0603  0.0150
14354W        W14554   1.051  12.284  16.932  0.1283  0.1535  0.2076
14355W        W14555   8.013   7.882  15.594  0.2390  0.1204  0.1079
14356W        W14556   8.119   8.537   3.616  0.0233  0.1204  0.2461
14357W        W14557  10.281   9.013   1.463  0.0199  0.2964 -0.1365
14358W        W14558  18.157  12.018   0.453 -0.1619  0.0342  0.1027
14359W        W14559   6.196   8.175   3.483 -0.0202 -0.0946  0.1067
14360W        W14560   1.192  10.442   5.054  0.1444 -0.0290 -0.0614
14361W        W14561   0.702  16.837  10.732 -0.0598  0.0357 -0.3476
14362W        W14562   3.267   8.885   3.011 -0.1297  0.3533 -0.0542
14363W        W14563   6.665  14.701   9.762 -0.1740  0.0693 -0.0904
14364W        W14564  17.648   7.897  14.483 -0.1584  0.3744  0.1463
14365W        W14565   0.217   8.912  15.657  0.4117 -0.1137 -0.3424
14366W        W14566  16.558  14.426   5.315 -0.0085  0.0721 -0.3093
14367W        W14567   5.404   2.615   0.949  0.1344  0.1529  0.1321
14368W        W14568   9.583  13.768  14.542  0.3128  0.1725  0.0939
14369W        W14569   3.956   4.707   0.561 -0.0345 -0.1820  0.2029
14370W        W14570   4.320  15.197   4.740  0.2072 -0.3154  0.1337
14371W        W14571   8.980  17.719  13.099  0.2479  0.0270 -0.1007
14372W        W14572   4.890  17.034  17.938  0.3056 -0.4296  0.1311
14373W        W14573   4.203   7.356  10.141 -0.0980 -0.2364  0.3559
14374W        W14574   8.057   6.857   6.458 -0.2537 -0.2152  0.1109
14375W        W14575   2.754  14.064  15.243  0.1696  0.1642  0.2209
14376W        W14576   8.402  15.803   2.442  0.2515 -0.2983 -0.1843
14377W        W14577   7.081  12.171   5.211 -0.1392 -0.0293 -0.0187
14378W        W14578   6.338   6.037  12.970 -0.1569 -0.1066  0.1387
14379W        W14579   0.766  14.158  15.965 -0.1360  0.0956  0.2823
14380W        W14580   8.274  17.378  15.341  0.1609 -0.0263  0.0871
14381W        W14581  17.877  10.542   0.820  0.1923  0.0128  0.2765
14382W        W14582  14.886  13.531  14.622  0.3079 -0.0468 -0.1130
14383W        W14583   3.452   7.410   8.942 -0.0685 -0.1034  0.0066
14384W        W14584  11.385  11.906   0.483  0.0179  0.0671 -0.0031
14385W        W14585   9.342  10.169   9.245  0.1938 -0.1298  0.0606
14386W        W14586  10.972  13.130   2.510  0.0103 -0.3778  0.3064
14387W        W14587   1.259  14.510   8.533  0.0322 -0.0281 -0.1054
14388W        W14588   3.054   9.932   0.163  0.0297 -0.2072  0.4543
14389W        W14589   7.476  14.140  17.380  0.2768  0.1297  0.3687
14390W        W14590   3.217   1.541   3.632 -0.1251 -0.1886  0.0661
14391W        W14591   6.648  12.699  17.056  0.0552  0.0029  0.2929
14392W        W14592   6.848  14.219   8.924 -0.0617 -0.0037 -0.0267
14393W        W14593  15.708   8.116   3.418  0.0479 -0.4065  0.0817
14394W        W14594   5.185  17.349   3.642  0.0557 -0.1914 -0.0984
14395W        W14595  14.568  12.936   2.582  0.2273 -0.0690  0.1143
14396W        W14596  10.565  12.129   0.702 -0.1707 -0.2973 -0.0476
14397W        W14597   9.612  11.124  17.429  0.0544  0.1033  0.0080
14398W        W14598   4.210  13.477  10.283  0.0714 -0.2333 -0.0004
14399W        W14599   5.714   8.679   4.097  0.0311 -0.1288 -0.0612
14400W        W14600   4.051   6.169  17.181  0.1869 -0.2075  0.1169
14401W        W14601   7.492   1.697   5.773  0.0611 -0.1121 -0.2129
14402W        W14602   2.745   4.387   1.401 -0.1520 -0.0829  0.1455
14403W        W14603   7.966  10.700   5.020 -0.0036  0.2611  0.0879
14404W        W14604   8.326   6.847  16.370 -0.0844 -0.0296 -0.0171
14405W        W14605  16.891   3.382   0.071  0.4934  0.0217  0.2826
14406W        W14606   8.070  13.762  12.351  0.0439 -0.1732  0.1946
14407W        W14607  17.205   2.441   1.364  0.1384  0.1971  0.1222
14408W        W14608   6.493   5.816   2.674  0.0815 -0.1526  0.2185
14409W        W14609   6.907  13.406   3.022  0.0912 -0.1874 -0.1674
14410W        W14610  11.598   7.020   4.058  0.1691  0.3127 -0.0048
14411W        W14611   2.648   4.226   1.815  0.0195  0.2212  0.0298
14412W        W14612  16.870   5.519  13.316  0.3357 -0.0928  0.1580
14413W        W14613  10.297  15.018   6.798 -0.0933  0.0997  0.0490
14414W        W14614   7.067  10.158   3.768 -0.0671 -0.1952 -0.1473
14415W        W14615   5.194  10.379  10.210 -0.1681 -0.0676  0.1134
14416W        W14616   3.622   9.175   3.376 -0.1774  0.0648 -0.1173
14417W        W14617   6.104  16.719  12.721  0.0261  0.2967  0.0703
14418W        W14618   2.089  10.661   3.472 -0.2331 -0.1369 -0.0593
14419W        W14619   5.261   3.606   0.799  0.2406 -0.0574  0.0145
14420W        W14620  12.095   1.457   8.866  0.2272 -0.0802 -0.3528
14421W        W14621   2.359   8.793  11.939  0.1224  0.2281  0.0243
14422W        W14622   7.313   9.165   4.627 -0.1527 -0.1139  0.0654
14423W        W14623   5.793   6.534   0.207 -0.0231 -0.0772  0.2565
14424W        W14624   3.881  10.421  15.393 -0.1165 -0.1003 -0.1739
14425W        W14625   1.210  12.100   8.137  0.0990 -0.1016 -0.1518
14426W        W14626   7.922   9.932   3.977  0.0102 -0.0553  0.0386
14427W        W14627   5.354   7.579  17.266 -0.1537 -0.0992 -0.0847
14428W        W14628  10.735  13.649   0.760 -0.0910  0.2785  0.1071
14429W        W14629   5.919  10.074   9.575  0.2426 -0.0585 -0.0308
14430W        W14630   5.052   5.731  11.809 -0.0813 -0.2707 -0.2188
14431W        W14631   5.099   8.780   7.775  0.0229  0.2509 -0.0256
14432W        W14632   0.236   8.901   9.224 -0.0441 -0.1323 -0.1805
14433W        W14633   1.804  16.578  10.017 -0.0113 -0.2586 -0.3503
14434W        W14634   6.879  11.290  10.583 -0.0207  0.0611  0.0392
14435W        W14635   6.366  10.165   4.440 -0.4794 -0.1106 -0.1841
14436W        W14636   3.113   7.889  10.822 -0.3463 -0.0444  0.2775
14437W        W14637   5.469   7.603   6.835 -0.1189 -0.1437  0.0212
14438W        W14638  16.525   3.354  10.401  0.1529  0.1262 -0.0281
14439W        W14639  16.135   7.894   6.150 -0.2665  0.3892  0.3508
14440W        W14640   0.747  13.686   5.155 -0.0956 -0.2975 -0.0633
14441W        W14641   1.367   9.233   2.283  0.3295  0.1338  0.3663
14442W        W14642   2.610   8.726  16.733 -0.0782  0.0903 -0.2448
14443W        W14643   9.339  13.378   2.380 -0.0493  0.0474  0.1862
14444W        W14644   9.380  15.262  12.025  0.2941 -0.0824  0.1077
14445W        W14645   4.380   8.712   2.978  0.0367  0.2791 -0.0450
14446W        W14646  16.583  12.242   6.573 -0.1027  0.1808  0.1092
14447W        W14647   8.863   5.798   7.292  0.0137  0.0380 -0.3015
14448W        W14648  18.083   8.068   6.694  0.2458 -0.0431 -0.0049
14449W        W14649   4.886   3.805   7.715  0.0556 -0.2773 -0.1219
14450W        W14650  18.033  13.404   9.513 -0.0909  0.0785 -0.1400
14451W        W14651   3.170   4.632   4.660  0.1449 -0.1530 -0.1892
14452W        W14652  11.079   3.950  10.560  0.0230 -0.0434  0.1404
14453W        W14653   1.405  10.321   7.020 -0.0191  0.2279 -0.1021
14454W        W14654   4.644  12.499  10.701  0.0415  0.0698  0.0552
14455W        W14655  16.146  13.337   3.700 -0.1215  0.0303 -0.1182
14456W        W14656   9.208  12.052   5.930 -0.2223  0.1401 -0.1010
14457W        W14657   9.850  10.639   5.151 -0.1416  0.0118  0.1057
14458W        W14658   4.868   8.455  10.851 -0.1192  0.2178 -0.1261
14459W        W14659  11.880  10.290  10.941 -0.2410 -0.1554  0.0364
14460W        W14660   4.940   6.826   8.434  0.2961  0.0692 -0.0258
14461W        W14661  12.644  12.961  14.010 -0.2842  0.0509  0.1158
14462W        W14662   1.676   8.164   7.745  0.0184  0.0513 -0.0206
14463W        W14663   1.583   6.864   3.593 -0.0564 -0.3177  0.0682
14464W        W14664   1.866   8.980   7.454  0.1862  0.1644  0.1657
14465W        W14665   1.091  15.462   0.316 -0.1449  0.3225 -0.2486
14466W        W14666   3.215   6.730   7.709 -0.0041  0.0325 -0.0911
14467W        W14667  12.019   9.976  17.180  0.0984 -0.0510 -0.0937
14468W        W14668   6.253  11.268  16.252  0.3158 -0.0099 -0.0008
14469W        W14669   1.660  12.469   5.731 -0.0032  0.1232  0.0601
14470W        W14670   8.143   9.429   9.614  0.2643 -0.0710 -0.0809
14471W        W14671   0.554  10.881   5.227  0.0840 -0.1280 -0.1628
14472W        W14672  16.765   6.444  10.017  0.1691 -0.2251  0.0493
14473W        W14673   4.773   9.942  11.547 -0.0146 -0.1335  0.0163
14474W        W14674   1.595   6.670   7.990 -0.0829  0.3441 -0.0556
14475W        W14675   6.070  14.744   6.667 -0.2036  0.1926  0.3148
14476W        W14676   8.821   8.211  18.136  0.0065 -0.0923  0.1517
14477W        W14677  14.117   3.651   5.782 -0.0014  0.2093 -0.2965
14478W        W14678   3.921   4.295   3.010 -0.0791  0.4477 -0.3062
14479W        W14679  11.322   7.638   4.605  0.4171 -0.1031 -0.0122
14480W        W14680   5.184  16.550   8.044  0.2302 -0.1637  0.1569
14481W        W14681   3.112   6.152   5.102  0.1591 -0.2164 -0.1098
14482W        W14682   7.592  13.037  10.247 -0.0738 -0.0983  0.0363
14483W        W14683   1.272   7.553   5.390  0.1075  0.0009 -0.1430
14484W        W14684   4.928  17.335   9.422 -0.0573 -0.0372 -0.0964
14485W        W14685   6.853  13.143  18.036  0.1464  0.1333  0.1356
14486W        W14686   1.409  14.298  10.619  0.0774 -0.2875  0.1929
14487W        W14687   3.611  10.909   3.869  0.0781 -0.1197  0.3119
14488W        W14688   9.738  12.393   6.461 -0.0897 -0.2482 -0.2579
14489W        W14689   7.332  11.974   9.025 -0.0253 -0.3169 -0.0689
14490W        W14690   6.344   1.922   1.139  0.0227 -0.3158 -0.3191
14491W        W14691   7.173   5.204  11.236  0.1675 -0.0608  0.1945
14492W        W14692   5.196  16.655   7.510  0.1551 -0.2991  0.1223
14493W        W14693   6.243   8.074   6.661  0.0301  0.2770 -0.2267
14494W        W14694   5.277  13.266   5.652  0.2376 -0.3669 -0.3066
14495W        W14695   3.385   5.561  13.702  0.2984 -0.1453  0.3379
14496W        W14696  15.485  10.276  17.958 -0.0365  0.1653  0.2309
14497W        W14697   4.075  11.705   9.256 -0.1455 -0.0941 -0.1391
14498W        W14698   5.924  10.227  17.642 -0.1555  0.0045 -0.1230
14499W        W14699  10.333   5.558   7.843  0.4251 -0.0450  0.2637
14500W        W14700  14.432  12.660   6.112 -0.1587  0.1804 -0.1714
14501W        W14701  11.815  10.407   0.970  0.2928  0.2097 -0.0937
14502W        W14702  15.671   9.690   8.538 -0.5640 -0.0109  0.0156
14503W        W14703   8.037  14.558   2.674 -0.0788 -0.3134  0.1769
14504W        W14704  11.082  14.956   1.125  0.0872  0.0117 -0.2868
14505W        W14705   7.007  12.364   0.808  0.1448 -0.1339  0.1657
14506W        W14706   8.372   0.876   9.082 -0.3216 -0.0186  0.1681
14507W        W14707   2.516   4.905   9.343 -0.2211  0.0175 -0.3124
14508W        W14708  14.202   8.182  16.514  0.2703  0.1260  0.0298
14509W        W14709   1.839  12.838   4.000 -0.2860 -0.3946  0.1249
14510W        W14710   5.197   2.526   2.139  0.0259  0.0009 -0.2805
14511W        W14711   0.096  14.839   6.839  0.1770 -0.0300  0.0437
14512W        W14712   3.686   7.826  18.143 -0.1118 -0.3086  0.1596
14513W        W14713   8.187   0.793   8.403  0.2022  0.0700 -0.0238
14514W        W14714   8.289  12.606   7.162  0.2469  0.3441 -0.0466
14515W        W14715   2.133   8.327   7.945  0.1654  0.3839 -0.0616
14516W        W14716  12.066   3.682  17.487  0.6580 -0.1594  0.1133
14517W        W14717   6.069   4.464   5.475  0.1351 -0.0295 -0.1753
14518W        W14718   9.298   8.324   7.435 -0.2293 -0.0886  0.1232
14519W        W14719   8.469  10.418   0.192 -0.0493 -0.1126 -0.1968
14520W        W14720   1.975  17.157  11.193 -0.0582 -0.1235  0.0587
14521W        W14721   9.323   4.428   9.767  0.0853  0.2581 -0.1707
14522W        W14722   6.818   3.827   3.472  0.1425  0.0828 -0.1078
14523W        W14723   1.437  14.049  13.989 -0.2302 -0.0943  0.0362
14524W        W14724   1.919  12.257   6.247 -0.1088 -0.1295  0.0011
14525W        W14725  11.681  12.522  14.002  0.2730 -0.0090 -0.0554
14526W        W14726   4.288  13.407   1.051  0.2345  0.1138 -0.1559
14527W        W14727  12.782   2.646   1.916  0.1423 -0.3854  0.2983
14528W        W14728   9.154   8.679   7.145  0.3447  0.0438 -0.1125
14529W        W14729   0.007  12.126   4.519  0.1057  0.0544  0.1756
14530W        W14730  10.082  15.618   3.664 -0.1454  0.0950  0.0196
14531W        W14731   8.855   7.910   0.811 -0.1160 -0.1432  0.0147
14532W        W14732   6.400  17.450   8.001  0.1784  0.1167 -0.0255
14533W        W14733  12.074  10.552   4.182  0.0124 -0.0975 -0.1016
14534W        W14734  17.333   9.182   5.683 -0.2128 -0.0020 -0.1507
14535W        W14735   4.061  10.687   5.432 -0.2252 -0.1538  0.1336
14536W        W14736   3.888   7.417  11.252 -0.1588  0.1108  0.4536
14537W        W14737   6.252  14.380  17.768  0.0875 -0.1991  0.0802
14538W        W14738   7.271   9.111   3.645 -0.1827 -0.0751 -0.1387
14539W        W14739  13.052  11.292   5.029  0.0829 -0.0604  0.0287
14540W        W14740  15.358  13.756   1.905  0.3904  0.1806  0.0729
14541W        W14741   3.202  17.196   4.024 -0.1460  0.0478 -0.1486
14542W        W14742   2.245   3.857   2.038 -0.0492  0.0209 -0.2445
14543W        W14743   2.994   0.066  17.369 -0.0975  0.5363  0.0294
14544W        W14744  12.605   3.268  14.860  0.2328  0.1772 -0.0041
14545W        W14745   4.391   7.768  17.062  0.2157  0.2111 -0.1174
14546W        W14746   7.448   3.335   7.731  0.1541 -0.2478  0.1334
14547W        W14747   9.294   3.220   6.288  0.0332 -0.2543  0.1003
14548W        W14748  10.588  11.116   7.158  0.2083 -0.2550  0.0767
14549W        W14749   5.351   3.340   6.856 -0.1401 -0.1433  0.2249
14550W        W14750  17.676  10.917   6.749  0.0721 -0.0063 -0.3940
14551W        W14751   0.567  10.407   0.878 -0.0273 -0.0164  0.0111
14552W        W14752   0.784   1.868  10.637 -0.0684  0.2920 -0.0880
14553W        W14753  11.949  12.996   8.571 -0.1004  0.0413 -0.1437
14554W        W14754   0.682   9.376  14.394  0.0928 -0.0959 -0.0557
14555W        W14755   4.621   1.087   4.022 -0.0437  0.1144  0.1716
14556W        W14756  10.595   5.455  14.651 -0.1132  0.1816 -0.3286
14557W        W14757   8.940  13.380  17.374  0.0118  0.1411 -0.1175
14558W        W14758   9.092  12.671   5.272  0.0543 -0.1823 -0.0622
14559W        W14759   3.109   6.153   0.632 -0.0998  0.3055  0.0675
14560W        W14760  12.262   9.046   8.685  0.0763  0.3307 -0.1576
14561W        W14761  11.097  13.919  14.813 -0.2719  0.1230 -0.1544
14562W        W14762  10.812  16.385   6.606  0.3232 -0.1076  0.0107
14563W        W14763   3.290   5.995   1.684  0.0761  0.2377 -0.0046
14564W        W14764   6.285   4.167   9.531 -0.1063  0.1855 -0.3752
14565W        W14765  15.913   2.827  10.029 -0.3262 -0.1033  0.5323
14566W        W14766  10.703   6.908   5.352 -0.0218  0.0198  0.0257
14567W        W14767   6.407  11.435  15.194  0.1889  0.0267 -0.0402
14568W        W14768   2.707   1.877  15.236  0.1716  0.1315 -0.0316
14569W        W14769   3.276  12.326   4.525 -0.0499  0.0154  0.3103
14570W        W14770  14.247  14.185  17.736  0.0810  0.1937  0.0115
14571W        W14771   3.765  14.195   1.030 -0.2136  0.0163  0.1109
14572W        W14772   0.817   0.196  12.280 -0.0882  0.0169 -0.0144
14573W        W14773   1.082  18.014   5.030 -0.2963  0.0352 -0.2385
14574W        W14774   9.219  13.872   4.028 -0.0466 -0.1434  0.0015
14575W        W14775   2.054  15.039   6.626  0.0482  0.0948 -0.1302
14576W        W14776   9.068   1.937  12.466 -0.1636 -0.5144  0.5152
14577W        W14777   1.330   8.228  15.261 -0.2139  0.1733  0.2471
14578W        W14778   7.922   9.888   9.654  0.0376 -0.0851  0.2402
14579W        W14779   9.982  15.849   6.896  0.1152  0.0868 -0.2020
14580W        W14780   3.009   3.270   3.477  0.4799  0.1272 -0.0500
14581W        W14781  17.249   5.303   4.344  0.0036 -0.0248 -0.0611
14582W        W14782   8.587   7.735   0.435 -0.1542 -0.1813  0.2175
14583W        W14783   3.767  13.906   9.853  0.0513  0.0062  0.1655
14584W        W14784  17.628  17.837   9.205  0.2218 -0.0052  0.2407
14585W        W14785   5.520  10.175   7.764 -0.0326 -0.0576  0.0504
14586W        W14786   3.692   3.536  13.566 -0.0846 -0.1588 -0.0476
14587W        W14787   4.758  10.801   7.953  0.1399 -0.0320 -0.1224
14588W        W14788  10.403   4.850   4.538  0.0660  0.2575 -0.2227
14589W        W14789  13.849   4.573   4.495 -0.0795 -0.1821  0.1455
14590W        W14790  17.808  14.466  17.749 -0.0150  0.4375 -0.3105
14591W        W14791   1.501   4.120  12.003 -0.0114  0.1668  0.1753
14592W        W14792  15.587   6.665   3.165 -0.0138  0.1019  0.0391
14593W        W14793  12.954  16.974  15.587  0.1296  0.0892 -0.0626
14594W        W14794   2.684   9.745   9.796  0.0453  0.1307 -0.0226
14595W        W14795  14.908   4.705   3.405 -0.1339 -0.0107 -0.1224
14596W        W14796   8.192  10.286   4.852 -0.1375 -0.0514  0.0189
14597W        W14797   6.962   6.047   3.773 -0.0706 -0.1222 -0.0652
14598W        W14798  10.272  15.428   5.883  0.4334 -0.1783  0.0542
14599W        W14799   6.498  10.166   0.401 -0.1645  0.1130 -0.2529
14600W        W14800   9.833  11.897  12.342  0.1704 -0.1307  0.2587
14601W        W14801   1.636  13.772   1.589  0.3102 -0.2831 -0.0223
14602W        W14802   4.515   9.521  10.809  0.0088 -0.0491  0.2724
14603W        W14803   0.840   8.600   7.854 -0.3121 -0.0927 -0.0064
14604W        W14804   4.519  10.977   4.007 -0.0164 -0.0610 -0.1137
14605W        W14805   5.090  13.553   9.423  0.0394  0.1810 -0.1584
14606W        W14806   7.925  12.586  10.240 -0.0989  0.2678  0.1193
14607W        W14807   6.646   5.416   0.156 -0.2652  0.0938  0.0348
14608W        W14808   4.020   9.871   1.799  0.0255  0.2772 -0.1578
14609W        W14809   8.009  18.098   1.265 -0.1249 -0.0326  0.2035
14610W        W14810  17.521   5.858   5.008  0.0018  0.0321  0.1097
14611W        W14811   1.969   6.559   4.958 -0.0109  0.1278  0.4026
14612W        W14812   2.753   6.814  10.151 -0.3181 -0.1437 -0.3410
14613W        W14813  17.755  10.065   6.774 -0.1219  0.0785 -0.1628
14614W        W14814   3.588   8.923  11.573 -0.2308  0.0781 -0.4640
14615W        W14815   5.270  17.180   1.077 -0.2710 -0.1600 -0.2552
14616W        W14816   2.663  13.462   4.202  0.0670 -0.0480 -0.1766
14617W        W14817  16.169   1.943  10.489 -0.1700  0.1931  0.1017
14618W        W14818   8.928   9.506   5.065 -0.2189  0.0590 -0.0814
14619W        W14819   3.038  10.043  17.119  0.0730 -0.3099  0.0653
14620W        W14820   3.539  14.226   5.846 -0.3068 -0.3375 -0.2709
14621W        W14821   6.209   5.861   9.633 -0.0257  0.1099  0.0592
14622W        W14822  17.700  13.982   1.537  0.0226  0.1959  0.0950
14623W        W14823   7.548   3.367  16.585 -0.2492 -0.0850 -0.0510
14624W        W14824   2.891   6.544   4.866  0.1581  0.0174 -0.1462
14625W        W14825   6.094   5.478   2.769  0.2335  0.0118  0.0602
14626W        W14826  12.154   1.456   7.555  0.5690  0.2225 -0.1990
14627W        W14827   4.606   8.569   5.349  0.0460 -0.0477  0.2422
14628W        W14828   4.417   6.096   4.147 -0.0531  0.0027  0.2220
14629W        W14829   5.681  10.067  17.182 -0.0681 -0.0818  0.0407
14630W        W14830  12.400   9.642   8.103  0.2078 -0.0781 -0.1925
14631W        W14831  10.009  11.502   0.829  0.1551 -0.0968  0.0595
14632W        W14832   4.519  10.487  13.749  0.0194 -0.1228  0.2606
14633W        W14833  16.220  12.179  17.022 -0.3044 -0.2742  0.1174
14634W        W14834   7.252   7.049  16.028  0.1217  0.1603 -0.1594
14635W        W14835   6.474  11.323   2.173  0.0577 -0.2323 -0.0269
14636W        W14836   9.263   6.402   6.628  0.1857 -0.1145 -0.2911
14637W        W14837  12.625  11.343   7.028  0.1481 -0.1425 -0.2594
14638W        W14838   6.484  14.708   4.763 -0.0856 -0.4511  0.2213
14639W        W14839   1.613   7.944   5.894  0.0416 -0.1513  0.2758
14640W        W14840   8.965   8.927  14.709  0.0687 -0.0534  0.0100
14641W        W14841   0.214   8.887   3.946  0.0154  0.3342  0.1830
14642W        W14842   3.728  12.076  11.025  0.1048  0.2553  0.1630
14643W        W14843   7.602  11.569   1.136  0.0178  0.0651  0.1429
14644W        W14844   5.455  16.993   8.135 -0.2788  0.0824  0.2103
14645W        W14845   0.778  15.665   6.015 -0.1075  0.1232  0.0713
14646W        W14846   4.562  11.734   2.726  0.3864 -0.2869 -0.1437
14647W        W14847   4.929   7.826   6.759 -0.2342 -0.1659  0.1385
14648W        W14848   7.155  16.852   8.090  0.2064  0.0051 -0.0271
14649W        W14849   7.105  12.530   1.280  0.1307  0.1181 -0.4011
14650W        W14850   5.691   0.360  17.377  0.0420 -0.0691  0.3030
14651W        W14851  18.133  10.362   3.723 -0.1463  0.2314 -0.0771
14652W        W14852   2.485  13.896  16.028  0.0003  0.4033 -0.0070
14653W        W14853  15.827  10.437   4.468 -0.1362  0.0015  0.0408
14654W        W14854   1.521  15.644   2.492  0.0082  0.2251  0.1547
14655W        W14855  17.004  10.459   2.646  0.2260 -0.1999  0.0495
14656W        W14856   9.332  12.083   4.570  0.3158 -0.2559  0.1912
14657W        W14857  10.084   2.383   9.321 -0.1089 -0.1128  0.4801
14658W        W14858   4.932   2.134   8.298  0.0670 -0.3001  0.1361
14659W        W14859   6.642  11.397   8.507 -0.1256  0.2895 -0.2840
14660W        W14860   6.140  14.115   0.013 -0.0647  0.0857  0.0683
14661W        W14861   3.205   6.398  11.742  0.0197  0.0084 -0.2150
14662W        W14862   4.862   6.137  10.555 -0.1524  0.0508 -0.1723
14663W        W14863  12.113   8.241   5.907  0.2132  0.1581  0.1791
14664W        W14864  17.925   9.370   5.951  0.0398  0.4443 -0.1867
14665W        W14865   1.177   8.955   6.848  0.0483 -0.0897  0.0054
14666W        W14866  10.860   7.449  11.327 -0.2788  0.3112 -0.0438
14667W        W14867   4.401   8.836   5.700 -0.0296 -0.0112 -0.4573
14668W        W14868   7.179  15.766   4.182  0.0206  0.0246  0.0632
14669W        W14869   8.123  12.242   4.404  0.0064  0.1003  0.0235
14670W        W14870  17.875   9.716   4.339  0.0274  0.1201 -0.0410
14671W        W14871   2.031  10.045   5.530  0.0171 -0.0789 -0.2115
14672W        W14872   4.118  13.290   9.760 -0.3172  0.0448 -0.1723
14673W        W14873   1.744  17.142   4.820  0.2995  0.2645 -0.3491
14674W        W14874   5.556  17.279   0.691  0.0402 -0.0639  0.1309
14675W        W14875  18.065   7.024   0.544 -0.0951  0.0996 -0.1349
14676W        W14876   3.789   9.474   2.034  0.2862  0.1624  0.0658
14677W        W14877   7.362  15.852   5.240  0.2079  0.0241 -0.1840
14678W        W14878  15.685   6.827   1.224 -0.0510 -0.0498 -0.0493
14679W        W14879  13.010   5.282   8.605  0.1268 -0.0869 -0.2718
14680W        W14880  11.417   5.997   0.704  0.0931 -0.1280  0.2760
14681W        W14881  11.759   5.514   5.822  0.2404  0.0178 -0.1063
14682W        W14882  10.215   5.226  17.981  0.0819  0.0872 -0.2078
14683W        W14883   6.057  16.534   9.342  0.1720 -0.0564  0.1414
14684W        W14884  14.699   7.269   8.882  0.1808 -0.3042 -0.0122
14685W        W14885   5.980  11.273  17.703 -0.0003 -0.2468  0.1452
14686W        W14886  12.053   5.114   2.920 -0.0843 -0.1753  0.1836
14687W        W14887  11.750   1.902   4.852 -0.1935 -0.1545  0.0490
14688W        W14888   6.276  11.466   4.685  0.0483 -0.1125 -0.2578
14689W        W14889  16.781  14.931   0.810  0.0733  0.2799 -0.0996
14690W        W14890   1.622   7.223  17.427 -0.3026  0.1518  0.1084
14691W        W14891   8.046  14.178   7.307 -0.1623  0.2060 -0.3470
14692W        W14892  11.230  13.828   7.661  0.1914  0.1569 -0.3077
14693W        W14893   1.999  11.663   8.021 -0.2808  0.0135 -0.0837
14694W        W14894  14.685   9.558   4.006 -0.0621 -0.2744 -0.1603
14695W        W14895   5.692   4.934   2.024  0.2324 -0.3283  0.1741
14696W        W14896   7.769   2.720   5.241  0.0694 -0.0373  0.1843
14697W        W14897   0.921  18.018   7.362  0.1045 -0.0352 -0.2405
14698W        W14898   5.332   6.849  14.203  0.4006 -0.3812  0.0661
14699W        W14899   3.762   6.904   5.761  0.2486  0.2662  0.1084
14700W        W14900   4.847  10.277  17.604  0.2245  0.3128  0.2815
14701W        W14901   4.130   2.603   0.580 -0.2172  0.0940  0.2228
14702W        W14902   9.448  11.466  17.073  0.0474  0.1242 -0.0387
14703W        W14903   2.120  11.767   4.767 -0.0366  0.2503 -0.1028
14704W        W14904   8.283  16.353   2.375 -0.1384 -0.1220 -0.2352
14705W        W14905   1.092  11.854   9.402 -0.0276 -0.1102  0.1581
14706W        W14906   8.193  10.306   8.306  0.0075  0.0972  0.0097
14707W        W14907  10.824   4.279  11.171  0.2237 -0.0574 -0.0985
14708W        W14908   4.351  17.681   7.771  0.0226  0.0425  0.0732
14709W        W14909   2.854  11.914   3.525  0.0843 -0.0193 -0.2805
14710W        W14910   6.459  17.646   1.855  0.0298 -0.0183 -0.2228
14711W        W14911   5.080   8.416   5.218  0.1354 -0.0116 -0.1600
14712W        W14912   6.526  11.198   7.536 -0.0888  0.4205  0.0275
14713W        W14913  10.297  16.513   1.560 -0.2295 -0.1074 -0.1709
14714W        W14914  11.367   0.631   5.179  0.2237  0.0642  0.0907
14715W        W14915  11.955  17.087   0.423 -0.1563  0.0717 -0.2808
14716W        W14916   2.497  12.427   9.545  0.1980  0.1778  0.0564
14717W        W14917   4.145   7.911  10.470  0.2460 -0.1216  0.1566
14718W        W14918   9.329   5.697   4.283  0.2147 -0.3979  0.2291
14719W        W14919   1.724  13.000   7.051  0.0804 -0.2478  0.1409
14720W        W14920   3.026   7.928  17.389 -0.1524  0.1809 -0.2080
14721W        W14921   1.212  16.833  10.647 -0.0147  0.0488  0.1112
14722W        W14922   5.263   2.902   7.767 -0.0169 -0.1205 -0.2457
14723W        W14923   3.948   6.153  10.718  0.0310 -0.3063  0.0851
14724W        W14924  15.702   8.006   1.701 -0.4051 -0.2114 -0.3710
14725W        W14925   4.508   3.348   7.398 -0.0887 -0.0293 -0.1257
14726W        W14926   4.759  14.324   4.286 -0.2341 -0.0454  0.2126
14727W        W14927   6.066   7.215   4.503 -0.0508  0.0296 -0.1542
14728W        W14928   1.466   7.951  16.626  0.0108  0.1792  0.4318
14729W        W14929  11.547   4.813  17.323  0.0458  0.3877  0.0881
14730W        W14930   2.202   8.859   8.855 -0.0200  0.0453 -0.1310
14731W        W14931  10.547   6.205   0.305 -0.2737 -0.2047 -0.0846
14732W        W14932   1.574   5.327   7.904  0.0448 -0.2849 -0.4258
14733W        W14933   3.888  13.239   3.675  0.0869 -0.0781  0.0756
14734W        W14934  16.236  11.320   4.966 -0.0436 -0.1248 -0.0997
14735W        W14935  11.229  14.177   7.265  0.1993  0.0775 -0.0697
14736W        W14936   1.520  13.428   3.485  0.4184 -0.0176 -0.1261
14737W        W14937  12.550   3.754   9.113  0.0541  0.0591  0.0779
14738W        W14938   2.205   7.432   1.758  0.1759 -0.0677 -0.2875
14739W        W14939   3.528  14.543  14.599  0.3003 -0.0757  0.1424
14740W        W14940   9.885   4.074  12.186 -0.0187 -0.1089  0.1852
14741W        W14941   3.422   7.553  12.534  0.0618  0.0454 -0.0210
14742W        W14942   3.532  16.223  13.243  0.0728  0.1794 -0.0245
14743W        W14943   9.294   8.286   0.892  0.0775  0.0331  0.1614
14744W        W14944   7.351   9.304  12.949  0.0165 -0.0183 -0.2917
14745W        W14945   0.668  11.773   1.898  0.1526  0.0509 -0.0930
14746W        W14946  17.741  15.538   3.506 -0.0608 -0.0510  0.2896
14747W        W14947   1.571   5.878   3.465 -0.0562  0.1600 -0.0102
14748W        W14948   3.423   2.398   2.566  0.1022 -0.0117 -0.2909
14749W        W14949   1.878   9.363   2.364 -0.0391  0.4575  0.1579
14750W        W14950   4.996   3.197   2.962  0.0606  0.2223 -0.1480
14751W        W14951  10.198  15.098   8.400 -0.3085 -0.0224  0.2810
14752W        W14952   4.430   4.755   4.093  0.0549  0.2961 -0.0145
14753W        W14953   3.458  15.241  13.050  0.0671 -0.1411 -0.0257
14754W        W14954   4.342  10.915  14.784  0.0063 -0.0829  0.0362
14755W        W14955   2.580  10.887  12.634  0.0222  0.1188  0.2894
14756W        W14956   0.279   6.617   6.799 -0.1611 -0.0724  0.0007
14757W        W14957   8.538  10.645  12.389  0.2434  0.1591 -0.1703
14758W        W14958   9.726   0.587   9.525 -0.4832 -0.0845 -0.0488
14759W        W14959  15.613   7.118   9.653  0.0139 -0.0384  0.1239
14760W        W14960  18.105  12.096  16.185  0.0629 -0.1286 -0.0037
14761W        W14961  10.852   4.970  10.425 -0.1951  0.1398 -0.1946
14762W        W14962   1.618   4.187   3.202 -0.1075  0.0451  0.1037
14763W        W14963   5.615   7.285   6.245 -0.3924  0.2201  0.1179
14764W        W14964   4.231  13.630   7.664  0.0217 -0.0982 -0.0506
14765W        W14965   0.778  14.159   3.044  0.0331 -0.0952  0.2075
14766W        W14966   4.159  14.015  11.381 -0.2328 -0.2190 -0.0026
14767W        W14967   3.160  10.598  10.252 -0.2150  0.0563 -0.1759
14768W        W14968   0.746  10.626   7.316  0.1159 -0.0271 -0.0489
14769W        W14969   7.594  13.665   6.610  0.0804  0.2012 -0.0474
14770W        W14970   5.913  12.623   0.188  0.3429  0.4912 -0.3398
14771W        W14971  18.189  12.298   4.979 -0.3423  0.0497  0.0549
14772W        W14972   0.765   4.427  10.245 -0.1803 -0.0610  0.3463
14773W        W14973   5.496  13.041   8.798 -0.1825  0.0592  0.1778
14774W        W14974  16.019   2.321  12.849 -0.1438 -0.1786 -0.2149
14775W        W14975   5.447  12.309   5.777 -0.0267 -0.0817 -0.1661
14776W        W14976   4.195   7.636   3.827 -0.4320  0.0607 -0.0147
14777W        W14977  16.123   8.434   8.073 -0.0136  0.3786 -0.2025
14778W        W14978  16.077  13.815   6.620 -0.1380  0.1737 -0.0505
14779W        W14979  11.617  14.485   7.091 -0.0933  0.0797 -0.0835
14780W        W14980   9.686   5.494   5.402  0.2349  0.1365  0.1083
14781W        W14981   7.605   9.788   4.364  0.1506 -0.0429  0.0097
14782W        W14982   2.906   5.150   9.601  0.1283 -0.0781 -0.0819
14783W        W14983   5.791   5.939   4.375 -0.1063  0.2685  0.1898
14784W        W14984   7.473  11.830  13.063 -0.1192  0.1147 -0.2494
14785W        W14985  14.389  14.101   6.408  0.1912  0.0670  0.0133
14786W        W14986   5.449  13.190   4.281 -0.3975  0.0746  0.0142
14787W        W14987   5.876   6.428   4.567 -0.2964  0.1539  0.3402
14788W        W14988   9.658   2.585   2.366 -0.1676  0.1292 -0.3504
14789W        W14989   2.989   3.008   7.478  0.3415 -0.1655 -0.0226
14790W        W14990  16.450  17.334  15.381  0.2462  0.0006  0.1015
14791W        W14991   7.098   3.716   4.856  0.1034  0.0912  0.1770
14792W        W14992   4.255   4.402   8.360 -0.0987  0.4555 -0.4212
14793W        W14993  14.623  14.138   5.574  0.3202  0.4276  0.0779
14794W        W14994  12.615  11.576   3.034 -0.2759  0.0793 -0.2009
14795W        W14995   4.105   4.656   3.454 -0.1838 -0.1873 -0.0879
14796W        W14996   6.082  13.839   1.979 -0.3324 -0.1939  0.2552
14797W        W14997  17.521   7.822   3.031  0.0946 -0.2580 -0.2143
14798W        W14998  12.466  15.291   7.470 -0.3549  0.0138 -0.1605
14799W        W14999  18.078   4.371   9.498  0.0670  0.0816  0.0894
14800W        W15000   4.550  14.739   6.206 -0.0895 -0.1261  0.1908
14801W        W15001   1.721  17.986   2.572  0.2667 -0.1137  0.3287
14802W        W15002   4.875   4.393   8.129 -0.1072 -0.0991  0.1037
14803W        W15003   1.877   8.209   4.221 -0.0021 -0.1160 -0.0947
14804W        W15004   5.792  12.836  17.803 -0.1325 -0.1396  0.0387
14805W        W15005   5.678   9.664   7.995 -0.2409  0.0643 -0.2726
14806W        W15006   1.197  16.259   7.357  0.1092  0.1843 -0.1602
14807W        W15007  11.291  12.737  13.608 -0.1203 -0.2482  0.2423
14808W        W15008   6.203  11.962   4.667 -0.0429 -0.0633 -0.3335
14809W        W15009   3.293   5.071  12.318 -0.0085 -0.2993 -0.3943
14810W        W15010  10.227   2.445  17.301 -0.1253  0.1688  0.3652
14811W        W15011   4.507  15.349  13.047  0.1808  0.0817 -0.1201
14812W        W15012  16.269   9.321   5.113 -0.0299  0.0905 -0.1782
14813W        W15013   5.864  10.551   7.872  0.1008  0.0439 -0.5407
14814W        W15014  11.872   1.146   1.035  0.0568  0.0583 -0.2980
14815W        W15015   6.432   9.313   2.176  0.2026 -0.1083 -0.2600
14816W        W15016   1.923   5.722  11.360  0.0957 -0.2087  0.0444
14817W        W15017   7.576   1.032  13.590 -0.0891  0.1313 -0.0248
14818W        W15018   8.542  15.335   4.778  0.0973 -0.0265  0.2216
14819W        W15019   7.819   9.446  15.333 -0.2178 -0.0672  0.2170
14820W        W15020   5.799   0.492  12.122 -0.0458 -0.0925  0.2534
14821W        W15021  16.183   4.550   9.661  0.0311  0.2593  0.1237
14822W        W15022   8.325  11.801   8.998 -0.0041 -0.1044  0.1238
14823W        W15023  17.506   9.416  11.009 -0.1199  0.2800  0.1271
14824W        W15024   0.911   8.709   8.377 -0.0348 -0.0466 -0.1533
14825W        W15025   5.333   6.734  13.058 -0.0922 -0.1963 -0.1725
14826W        W15026   3.527   8.785   0.729 -0.0828  0.1228  0.2018
14827W        W15027   3.217   3.684   2.813 -0.0604 -0.0034  0.2846
14828W        W15028   1.217  15.855   8.871  0.3130  0.1075  0.1784
14829W        W15029  13.864   6.234   3.941 -0.1354  0.0571 -0.0566
14830W        W15030  16.748  14.093  12.933 -0.1564 -0.0659 -0.1428
14831W        W15031  17.651  13.832   0.471  0.1857  0.3257  0.1597
14832W        W15032   1.629   6.985  11.436 -0.2330  0.2422 -0.0142
14833W        W15033   5.711   2.773  10.924  0.1559  0.0239 -0.1465
14834W        W15034   5.307   1.181  11.721  0.0595  0.2089 -0.1563
14835W        W15035   6.680   1.977  17.353  0.1595  0.2308 -0.1309
14836W        W15036   3.711   9.683  16.725  0.1341  0.0276  0.3712
14837W        W15037   4.956  11.628  12.720  0.2831 -0.0301  0.0689
14838W        W15038  17.752   5.990   5.921  0.0086 -0.1571 -0.0481
14839W        W15039   2.250   1.046   0.538 -0.1154 -0.0665  0.1199
14840W        W15040  15.332   1.284   9.516  0.0673 -0.4171 -0.0901
14841W        W15041   6.419  16.695   5.374 -0.1955  0.3010  0.3582
14842W        W15042   8.207   5.539  13.199 -0.0415  0.0021  0.0533
14843W        W15043   7.912   5.835  13.759 -0.0453 -0.2420  0.0626
14844W        W15044   2.916   0.025  10.092 -0.2178  0.0348  0.0324
14845W        W15045   5.675   6.111  13.813  0.0532 -0.0387  0.0042
14846W        W15046   1.693   7.420   6.008 -0.1462  0.1145  0.1207
14847W        W15047   0.122   0.200  15.620  0.0045 -0.1959  0.1348
14848W        W15048   6.139   9.115  13.553 -0.0734  0.1272  0.1669
14849W        W15049   5.741  12.673  12.729 -0.0008  0.4669 -0.2743
14850W        W15050   0.958   7.143   9.929 -0.2892  0.0060  0.0225
14851W        W15051   3.886  11.170  10.081 -0.2495 -0.0823  0.1189
14852W        W15052   4.990   9.772   9.522 -0.0477 -0.0236 -0.1769
14853W        W15053   5.654   8.156  14.271  0.3781 -0.1690  0.1369
14854W        W15054  16.950   6.218   8.057  0.0957  0.2055  0.0163
14855W        W15055  17.897   6.024  11.698  0.2137  0.2310  0.0223
14856W        W15056   4.779   9.766  12.030 -0.0824 -0.2777 -0.0246
14857W        W15057   7.820  12.044   8.923  0.2054 -0.1291  0.1358
14858W        W15058   6.603   8.806  10.482  0.0018 -0.1853  0.0493
14859W        W15059   2.701   8.875  10.285  0.0861 -0.1694 -0.2073
14860W        W15060  16.035  13.179   7.537 -0.1123 -0.1564  0.1187
14861W        W15061   3.177   6.625  13.964  0.2241 -0.0078  0.0273
14862W        W15062  10.238   7.790   0.959 -0.0978  0.1814 -0.1506
14863W        W15063  11.123   6.562   5.986  0.1802  0.0021 -0.3205
14864W        W15064   4.013  10.148   5.076  0.3660 -0.1245 -0.3144
14865W        W15065   6.068  14.393  10.039  0.0371  0.2491 -0.1238
14866W        W15066  13.455   4.631   2.899 -0.0826 -0.1904  0.1125
14867W        W15067  12.334   9.764   8.915 -0.2278 -0.2473 -0.1465
14868W        W15068   8.228   1.324   9.408  0.1788  0.0735  0.0730
14869W        W15069   7.236   5.103   2.643  0.0285  0.0028 -0.3018
14870W        W15070   7.124   6.226   4.213  0.0440  0.1701 -0.0706
14871W        W15071   8.758   1.103   1.360 -0.0636 -0.3358  0.0183
14872W        W15072   1.952   2.649  13.974  0.1753 -0.2524  0.2734
14873W        W15073   0.672  16.320   7.061  0.1483 -0.0003 -0.2262
14874W        W15074   5.903   6.035  17.680  0.1379  0.1453 -0.1524
14875W        W15075   8.445  17.099   4.357 -0.2108 -0.2139  0.0846
14876W        W15076   3.388   7.959  15.286 -0.0849  0.1155 -0.1184
14877W        W15077   1.904   8.970  15.262 -0.1307  0.1458  0.1043
14878W        W15078   4.381  16.588   7.438 -0.0373 -0.1342 -0.0951
14879W        W15079   2.896  11.578  17.325 -0.0961 -0.1455  0.1441
14880W        W15080  18.191   0.369  10.812 -0.4078 -0.0385  0.1493
14881W        W15081   1.902  10.199  12.883  0.1294 -0.0751  0.0486
14882W        W15082   5.334  14.844   9.417 -0.1226 -0.3987  0.1609
14883W        W15083   1.989  12.890  11.306 -0.3084 -0.2620  0.0702
14884W        W15084  11.968   9.898  14.011  0.1033  0.1923  0.1762
14885W        W15085  10.114  10.129  16.240 -0.2228  0.0112 -0.0292
14886W        W15086   2.987  11.899   8.451 -0.1782  0.0949  0.2065
14887W        W15087  10.721  16.829  10.791 -0.2142 -0.0326 -0.3316
14888W        W15088  16.969   6.305   4.439  0.0155 -0.1254 -0.1771
14889W        W15089  17.578  11.820   9.262 -0.1480 -0.0229 -0.0705
14890W        W15090  10.525   5.701   2.993 -0.0263 -0.0009 -0.0473
14891W        W15091   5.021  12.913   8.685  0.0072  0.1283  0.0700
14892W        W15092  15.363  17.539  11.452  0.1436  0.0341 -0.2023
14893W        W15093   3.167  13.879   5.900 -0.2853 -0.0730 -0.2657
14894W        W15094  15.103   7.167   2.535  0.0516  0.0583  0.1021
14895W        W15095   5.254  11.096  14.731  0.1520  0.0015 -0.1629
14896W        W15096   8.986  10.085  13.852  0.1352 -0.2375  0.2433
14897W        W15097  17.660   6.343   9.923 -0.0689 -0.0592 -0.0218
14898W        W15098   8.101   8.701  10.335 -0.0606  0.2104  0.1574
14899W        W15099   2.576  14.412  16.820  0.0022 -0.1186  0.0783
14900W        W15100   5.092  11.018  15.192 -0.2259  0.1720  0.2637
14901W        W15101   8.567   9.073  12.403 -0.1632  0.1747 -0.0410
14902W        W15102  10.194   6.613  14.560 -0.0899  0.0734  0.5031
14903W        W15103   1.206  10.152   4.322 -0.0391 -0.0326 -0.1432
14904W        W15104   4.129  11.079  11.010 -0.5130 -0.0503  0.0354
14905W        W15105   6.425   5.087   9.606 -0.0517 -0.0732  0.2033
14906W        W15106   5.897  17.356   8.971  0.0338  0.0704  0.0834
14907W        W15107   6.327   4.811  15.651  0.2167 -0.0299 -0.1130
14908W        W15108   2.347   9.630  15.383 -0.1684 -0.2445 -0.2666
14909W        W15109   0.905   4.799  14.117  0.4940  0.1401 -0.2910
14910W        W15110   7.010   7.169   9.691  0.0479  0.2371 -0.2730
14911W        W15111  10.729  14.217  14.139 -0.3179  0.2916 -0.0921
14912W        W15112   8.820  10.895   4.087 -0.0673  0.3287  0.3669
14913W        W15113   8.998  15.001  14.694 -0.1088 -0.0718 -0.0792
14914W        W15114   0.003  11.956  13.796  0.0146  0.0209  0.0763
14915W        W15115   8.585   5.553   3.921 -0.0508 -0.2888 -0.1068
14916W        W15116   3.482  11.397   9.830 -0.1374 -0.1799  0.0143
14917W        W15117  11.888  12.153   8.966 -0.2412  0.0093  0.1280
14918W        W15118   3.190   0.745   8.259 -0.2351  0.0684  0.1317
14919W        W15119   4.916  10.626  13.437  0.2458 -0.1791  0.1141
14920W        W15120   1.950   6.402  17.168  0.0508  0.0253 -0.0628
14921W        W15121   3.081  15.884   5.815 -0.2780  0.1342 -0.1091
14922W        W15122   0.724   7.093   2.043 -0.0379  0.0391 -0.1337
14923W        W15123  14.995   4.480  15.434  0.0190  0.0816 -0.2336
14924W        W15124   0.861  17.965  15.235 -0.0922 -0.0971 -0.0148
14925W        W15125   5.130   9.858   2.966  0.0227 -0.0503 -0.0082
14926W        W15126   2.484  10.171   6.131  0.0918  0.2402  0.2271
14927W        W15127   9.797  15.773   9.059 -0.2114  0.0240 -0.0715
14928W        W15128  17.989   5.891   4.738 -0.1194  0.0589 -0.0454
14929W        W15129   5.044   4.555   9.672  0.2213  0.1120 -0.2352
14930W        W15130   5.919   1.368   3.194  0.0021  0.2278  0.2494
14931W        W15131   1.503   9.658  10.486 -0.1743 -0.2485 -0.0191
14932W        W15132   3.094  17.957  15.416 -0.1859  0.0202  0.2896
14933W        W15133   5.791  15.476   4.083  0.3213  0.0413  0.0735
14934W        W15134   5.444  17.485  10.718 -0.0542  0.1689 -0.3656
14935W        W15135  13.320   0.369   5.980  0.2477  0.1523  0.0794
14936W        W15136   5.484  14.007   3.862  0.0850  0.0081 -0.0571
14937W        W15137   6.336  16.197   3.171  0.0992 -0.1184 -0.0196
14938W        W15138   3.373   7.596  13.063  0.0185 -0.0643  0.1341
14939W        W15139   1.246   4.073   5.474  0.0480 -0.0096  0.2609
14940W        W15140   8.203  13.656   5.532  0.0776 -0.2349 -0.1264
14941W        W15141   4.345   6.941   4.551  0.0893 -0.0849  0.1223
14942W        W15142   6.958   4.722  10.967 -0.1468  0.2658 -0.0984
14943W        W15143   7.136  14.605   4.135 -0.0568  0.1332  0.1189
14944W        W15144   7.011   5.248   7.198 -0.1125  0.0901  0.2370
14945W        W15145   7.758   1.368  17.215 -0.0080 -0.1370 -0.1415
14946W        W15146   6.130  16.434   4.537  0.0670  0.2835  0.0026
14947W        W15147   4.740   1.074  15.518  0.2358 -0.0074 -0.3757
14948W        W15148   1.382   7.771  10.550  0.2828  0.0109 -0.0088
14949W        W15149   2.974   5.968  11.876 -0.0445 -0.2173  0.2031
14950W        W15150   8.383  14.853  11.964 -0.2078 -0.0650  0.1088
14951W        W15151  12.751  11.007   7.511  0.0993  0.2364  0.0476
14952W        W15152   2.005   5.939   9.822  0.0407  0.1768 -0.2701
14953W        W15153   3.575  15.619   8.080 -0.3382 -0.2099  0.0584
14954W        W15154   1.288  12.059   9.878 -0.2581  0.1326  0.1276
14955W        W15155  15.413   4.950   2.689 -0.1386 -0.0433  0.1066
14956W        W15156   5.574  11.960  12.142 -0.3838  0.3323  0.1790
14957W        W15157   5.188   9.365  12.567  0.0863  0.0631 -0.0275
14958W        W15158   6.998  10.569   5.352  0.2282  0.1835 -0.2966
14959W        W15159   5.272   8.150  14.616  0.1583 -0.1343 -0.0708
14960W        W15160  17.873  12.592  10.491  0.3670 -0.2514 -0.2002
14961W        W15161  17.000   8.944  12.195  0.3517  0.1441 -0.0374
14962W        W15162   2.074   9.112  11.801 -0.0170  0.0184 -0.0384
14963W        W15163   6.424   2.334   8.535  0.0011 -0.1048 -0.1731
14964W        W15164  17.995   8.531   6.884  0.3221  0.0139 -0.1866
14965W        W15165  11.343   3.714   4.300  0.1396  0.0390  0.1216
14966W        W15166   0.649  12.616  15.846 -0.4813 -0.3091 -0.1458
14967W        W15167   8.311  10.589   2.076 -0.2145 -0.0956  0.4564
14968W        W15168   8.629  12.800  10.891  0.0869  0.0092  0.0948
14969W        W15169   9.734   6.379  14.508  0.0063 -0.2042 -0.1785
14970W        W15170   6.301  12.295   9.580  0.0534 -0.0526  0.1476
14971W        W15171   7.077   7.021  11.497  0.2138 -0.0069  0.0498
14972W        W15172  17.359   5.343  12.470 -0.2106  0.2500 -0.0611
14973W        W15173   7.523  13.635   9.547 -0.1029  0.0259 -0.5201
14974W        W15174   0.734  14.297   7.872 -0.1539 -0.0687  0.0401
14975W        W15175   2.124   6.801   1.968 -0.1214  0.1977 -0.0424
14976W        W15176  16.144   7.294  14.170  0.1176 -0.1100 -0.2294
14977W        W15177  11.047  10.292  12.354  0.1544  0.0839 -0.2557
14978W        W15178  10.373   5.986  12.470  0.1881  0.0970 -0.0870
14979W        W15179   3.668  15.575   5.782  0.2322  0.0364 -0.3049
14980W        W15180  11.048  15.688  10.475 -0.0094  0.2458  0.0742
14981W        W15181   6.648  13.073  10.150  0.1826  0.1030 -0.0189
14982W        W15182   8.321   9.965   9.298 -0.1554  0.0081 -0.0459
14983W        W15183   5.779   7.113   7.622 -0.1301 -0.2312 -0.1370
14984W        W15184   5.314  12.091  10.911  0.2018 -0.0557 -0.1526
14985W        W15185  13.800  13.588   5.601  0.0372 -0.0640  0.1896
14986W        W15186   3.301   3.299   6.498  0.1509 -0.1630 -0.0775
14987W        W15187   1.205   4.873   1.988  0.0229  0.1274  0.0998
14988W        W15188   2.340   6.555   8.930 -0.2092 -0.0350 -0.0033
14989W        W15189   1.629  12.523  10.447  0.0470  0.1696 -0.0526
14990W        W15190   3.625  12.103  10.009  0.1169 -0.1305 -0.0980
14991W        W15191  11.494   4.286   4.329  0.0917  0.2030 -0.1764
14992W        W15192   5.622  12.801   7.869  0.1962 -0.3455 -0.2215
14993W        W15193   3.863  10.385   6.773  0.0456  0.0581 -0.2688
14994W        W15194   8.448  11.080   4.315  0.2444  0.1416 -0.0404
14995W        W15195   7.174  14.307   3.015 -0.1490 -0.0137  0.0603
14996W        W15196   8.210   8.148  10.433  0.1816  0.3035  0.0525
14997W        W15197   4.794  13.574   3.907 -0.0246  0.0952 -0.1198
14998W        W15198   8.371  13.430  10.973 -0.0348  0.0853  0.3297
14999W        W15199   9.096  13.854   2.108  0.1456  0.1598  0.1826
15000W        W15200   4.352   5.914  11.370 -0.1927  0.0199  0.3994
15001W        W15201  10.230   2.117  14.786 -0.0272  0.0981  0.1144
15002W        W15202   4.821  14.855   4.957  0.0379 -0.0991 -0.1101
15003W        W15203   5.227  13.987   9.795  0.1249 -0.0962  0.1298
15004W        W15204   7.641   2.663  14.908 -0.1266 -0.0390 -0.1916
15005W        W15205   4.316   9.198   3.019  0.3116 -0.0287  0.3283
15006W        W15206   0.546  10.647  15.147  0.3136  0.3219 -0.1556
15007W        W15207   9.600  12.546   6.930  0.0158  0.0601 -0.1754
15008W        W15208   2.997  11.136  11.742  0.2220 -0.2088 -0.2211
15009W        W15209   7.606   4.499  10.086  0.1068 -0.2048 -0.2464
15010W        W15210  11.593   8.742  12.587  0.1101  0.0337  0.3562
15011W        W15211   6.943   0.819   1.679  0.1479  0.0875  0.0670
15012W        W15212   8.690  10.691  10.632  0.1784  0.0427  0.0179
15013W        W15213   5.677  13.241  12.864  0.0738  0.0405  0.0368
15014W        W15214   8.974  10.465  12.457  0.0112 -0.0342  0.3701
15015W        W15215  15.098   9.012  14.272 -0.0516 -0.0177 -0.0357
15016W        W15216   4.257  18.191  10.753  0.0922 -0.0021  0.1244
15017W        W15217   6.377   9.171  13.118 -0.0999 -0.0396 -0.1507
15018W        W15218   3.447   0.460  14.964  0.1746 -0.3052 -0.1081
15019W        W15219  13.404  17.442  11.572 -0.0549  0.1970 -0.0198
15020W        W15220   8.445  14.624  13.846 -0.0758 -0.0026 -0.0686
15021W        W15221   1.163   4.774   6.270  0.1551  0.1710  0.1882
15022W        W15222   6.465   7.836  15.772 -0.1335 -0.1005  0.0367
15023W        W15223   4.190  12.872   5.860  0.3994  0.1951 -0.0974
15024W        W15224   3.941  13.493  14.367  0.1134  0.0828  0.3442
15025W        W15225  18.125   4.265   0.133  0.1762 -0.2148 -0.1092
15026W        W15226   1.130   8.668   4.805 -0.0811 -0.0009 -0.1668
15027W        W15227   5.583   3.184  14.225  0.2173 -0.2330  0.0873
15028W        W15228   9.271   9.819   2.979  0.2299 -0.0474 -0.0270
15029W        W15229  16.747  11.081   0.555  0.0038 -0.1137 -0.1429
15030W        W15230  12.471  11.334  12.897  0.2292 -0.0773  0.1507
15031W        W15231   0.014   7.618  11.204  0.1437 -0.0956  0.1822
15032W        W15232   7.947   9.393  17.805 -0.1727  0.1994 -0.1549
15033W        W15233  17.700   1.321   3.996  0.0789  0.0060 -0.1232
15034W        W15234  14.504  16.815  16.324  0.0031  0.1776 -0.2121
15035W        W15235  11.547   3.526  15.087  0.1557 -0.1828 -0.1045
15036W        W15236   4.265  10.796   8.244 -0.2683 -0.0543 -0.1909
15037W        W15237   4.276  10.083   9.081 -0.1107 -0.1821  0.0206
15038W        W15238  10.113  13.026  10.180 -0.1740  0.1422 -0.4347
15039W        W15239  11.052   3.125   1.330  0.1982  0.2006 -0.0604
15040W        W15240   0.212   8.214   6.300  0.0789  0.0826  0.1298
15041W        W15241  12.287  16.872  13.081 -0.0527 -0.1907  0.2249
15042W        W15242  11.426   4.860   7.134 -0.0456  0.0429 -0.0677
15043W        W15243   1.421   0.802  12.975  0.0322  0.2204 -0.1370
15044W        W15244   9.343   4.097   6.213 -0.1104  0.1171  0.1224
15045W        W15245   8.473  10.173   5.677 -0.1733  0.0315 -0.1607
15046W        W15246   9.940   1.115   3.409  0.1761 -0.2713  0.0522
15047W        W15247   2.225  10.309   1.226 -0.0732 -0.1311 -0.0237
15048W        W15248   1.823  11.941   4.307  0.1019  0.0923  0.0647
15049W        W15249   0.799   8.755   9.480  0.0701 -0.1920  0.3910
15050W        W15250   4.548   9.614  12.436 -0.1270  0.1198 -0.2012
15051W        W15251  12.900   9.954  11.551 -0.3640 -0.2467  0.1903
15052W        W15252  16.469   9.698  16.016  0.2127  0.0920  0.0399
15053W        W15253   3.191  11.120   3.983 -0.2403  0.0314 -0.0484
15054W        W15254  17.213  16.880   7.926 -0.0865  0.2183 -0.2085
15055W        W15255  10.554  10.453   9.676 -0.4792 -0.0208 -0.0461
15056W        W15256   7.416  14.666  10.201 -0.4798 -0.1619 -0.0215
15057W        W15257   7.746   5.004   2.521 -0.0362 -0.3574  0.2371
15058W        W15258   4.596  11.150  14.274 -0.1192  0.2117  0.2308
15059W        W15259   3.733   0.721  11.314 -0.0500  0.0417 -0.0541
15060W        W15260   8.648  10.818  12.816 -0.0746 -0.1306 -0.0584
15061W        W15261   2.977   9.294   7.024  0.0389 -0.0332 -0.3838
15062W        W15262   5.946   9.556  10.268  0.0110 -0.1252 -0.1202
15063W        W15263   1.959  12.487   8.621 -0.3706  0.0252  0.1554
15064W        W15264  15.736  12.995   7.179 -0.3399  0.1709 -0.0884
15065W        W15265   5.252  13.255   7.660 -0.0235  0.2258 -0.2512
15066W        W15266   2.011   5.262   5.188  0.2742 -0.3194 -0.0105
15067W        W15267  11.793  15.378   6.253 -0.0945  0.1405 -0.0779
15068W        W15268   2.824  12.280   6.045 -0.3116 -0.2006  0.0338
15069W        W15269   8.805   9.326   5.517 -0.1321  0.0298 -0.3419
15070W        W15270   5.161  12.842  11.347 -0.0942  0.0642 -0.1265
15071W        W15271  10.161   9.005  12.055  0.0234  0.0365  0.1552
15072W        W15272  13.014   7.878  12.908  0.1525  0.3012 -0.4332
15073W        W15273  11.086  12.331  11.974  0.0420 -0.1760  0.0508
15074W        W15274  16.146  12.103  11.570 -0.1509  0.4629  0.2801
15075W        W15275   5.728  12.286   7.727 -0.3708 -0.1554 -0.1869
15076W        W15276  17.854   2.581   6.770  0.2651 -0.0144  0.1867
15077W        W15277   3.942   9.394   0.711 -0.0996  0.0486 -0.0853
15078W        W15278  16.795   8.767   3.047 -0.0914 -0.0813 -0.1968
15079W        W15279   9.667   9.036  16.332  0.0119  0.0559  0.2435
15080W        W15280   3.029   8.706  11.345 -0.0829  0.0414  0.0207
15081W        W15281   7.880   5.773   3.078  0.1953 -0.1937  0.0152
15082W        W15282   6.274   7.139   3.481  0.1476  0.0289  0.1694
15083W        W15283   4.231   8.623   1.739  0.1478  0.0775  0.0447
15084W        W15284   4.899   3.976  11.405 -0.0901  0.0516  0.4259
15085W        W15285   6.667  11.987   3.119  0.1812  0.0955 -0.1867
15086W        W15286   5.372  11.981  15.186 -0.2366 -0.0716  0.3380
15087W        W15287   2.391   8.461  10.061  0.1192  0.0522 -0.0980
15088W        W15288   3.881  12.180   9.391  0.0717  0.0853  0.0081
15089W        W15289   0.534  10.367   4.452 -0.0176  0.0916  0.0683
15090W        W15290   1.498   6.219   6.548  0.0494 -0.0469 -0.0099
15091W        W15291  16.573   8.527   8.255  0.0514 -0.0494  0.2670
15092W        W15292  15.055  10.154  10.256  0.0599 -0.0374  0.2500
15093W        W15293   4.739   6.516   1.230 -0.0314 -0.0288 -0.0021
15094W        W15294   5.328  11.305   9.340 -0.1574 -0.0798  0.1529
15095W        W15295   7.143  11.591   9.341 -0.1214 -0.0607 -0.0342
15096W        W15296  14.502  10.146  14.612 -0.1179 -0.1243  0.0829
15097W        W15297   6.979   9.628   7.154 -0.0091 -0.1228 -0.0345
15098W        W15298  14.480   3.872  12.716  0.0900  0.3710 -0.1315
15099W        W15299   3.086   6.107   9.188  0.2202 -0.0543 -0.1756
15100W        W15300   5.674   4.656  10.468 -0.0187  0.0347 -0.1843
15101W        W15301   3.426   9.801  12.029  0.2950 -0.1289 -0.0779
15102W        W15302   6.446   8.826  12.770 -0.0915  0.1831  0.4546
15103W        W15303   8.618  14.451  17.865 -0.2103 -0.0450 -0.1932
15104W        W15304   2.318  15.758   9.243  0.0090  0.0792 -0.0793
15105W        W15305   4.367   5.493   4.889  0.1738  0.2652 -0.0102
15106W        W15306   1.853   8.309  11.225  0.2724  0.2746 -0.2030
15107W        W15307   2.603  16.553   5.445 -0.1108  0.2973  0.0654
15108W        W15308  14.888  10.033   6.907  0.0661 -0.0041 -0.3594
15109W        W15309  10.106   4.675   9.991 -0.0991 -0.0928 -0.1605
15110W        W15310   5.262  10.365   6.553  0.1153 -0.2081 -0.2022
15111W        W15311   0.693   7.771   1.828  0.0712  0.2526 -0.0525
15112W        W15312  15.661   7.942   5.086  0.0265 -0.1255 -0.0677
15113W        W15313  11.675  12.909  11.423  0.1128  0.3628 -0.2416
15114W        W15314   2.982   8.719  14.846 -0.2921 -0.0102 -0.0754
15115W        W15315  10.703   9.256   6.753 -0.0921 -0.4965 -0.1339
15116W        W15316  17.267   2.964   5.182 -0.1573 -0.2429 -0.1095
15117W        W15317   1.733   9.157   5.497 -0.2209 -0.0327  0.0673
15118W        W15318   7.020  14.000  13.193 -0.1923 -0.1241  0.2860
15119W        W15319   9.428  12.285   5.085  0.0066  0.0321 -0.1065
15120W        W15320   5.587  12.063   0.100 -0.0373  0.1598  0.0022
15121W        W15321   3.312  10.470  11.225  0.4043 -0.0951  0.0603
15122W        W15322  18.096   4.181  15.872  0.1074 -0.0153  0.2183
15123W        W15323   7.150   7.744  10.962 -0.2243 -0.0279  0.1512
15124W        W15324   9.916   1.156   5.394  0.0480  0.0635 -0.0073
15125W        W15325   7.284  10.721   1.554 -0.1799  0.0120  0.2848
15126W        W15326   6.669   8.887   9.070  0.2747 -0.1534 -0.0939
15127W        W15327   2.404  13.528   9.418  0.0774  0.2186 -0.3339
15128W        W15328   0.692  16.561   3.511 -0.1448  0.0145 -0.0217
15129W        W15329  17.798  10.011  10.586  0.1116 -0.1210  0.1941
15130W        W15330  16.682  11.243   7.589 -0.3029  0.0006  0.1538
15131W        W15331  15.023  13.686   5.422 -0.1360 -0.1023  0.5154
15132W        W15332   1.606   6.375  12.951  0.1055  0.3732  0.1722
15133W        W15333   4.702   6.329  14.743  0.0722  0.0113  0.1374
15134W        W15334   4.030   8.151  10.059 -0.1611 -0.0404 -0.1472
15135W        W15335   6.179   6.503  12.804  0.0320  0.3068 -0.0505
15136W        W15336   2.824   6.556  11.351 -0.1438  0.0701 -0.2103
15137W        W15337   9.575  12.620   9.115 -0.0954  0.1352  0.2794
15138W        W15338   8.786  12.253  12.435  0.1541 -0.1707 -0.4027
15139W        W15339   2.244   4.845   9.802 -0.1805  0.1011 -0.0830
15140W        W15340   8.825   4.756  14.409  0.1325 -0.0020  0.0049
15141W        W15341   2.966   6.517  14.972  0.0297  0.2109  0.0937
15142W        W15342   5.295  13.026  16.376  0.1598 -0.1052 -0.0626
15143W        W15343   7.895  11.245  11.487  0.3140 -0.1163  0.2368
15144W        W15344   0.415   8.263   7.361 -0.1458 -0.2234  0.0661
15145W        W15345   5.820   3.150  12.578 -0.2170 -0.0140  0.2559
15146W        W15346  16.927  15.985   8.931  0.0300 -0.1425 -0.1165
15147W        W15347  15.323   4.545   6.778 -0.0926  0.0107  0.0596
15148W        W15348   1.951   1.930   9.273  0.1058 -0.2950  0.0669
15149W        W15349   2.874   6.662   5.889 -0.0452  0.0910  0.1196
15150W        W15350   7.953   6.540   5.729  0.1948  0.2704 -0.0343
15151W        W15351   9.759   5.634  11.804 -0.0416 -0.1488  0.0313
15152W        W15352   3.649  11.661  16.825 -0.1858 -0.1964  0.2913
15153W        W15353   8.879   0.520  10.148  0.1176 -0.0583 -0.3017
15154W        W15354   6.034   4.066  14.019  0.0271 -0.3122  0.1255
15155W        W15355   2.336  15.371   7.483 -0.2802  0.2716 -0.1674
15156W        W15356  12.043  14.885   4.702  0.1645  0.0712  0.0149
15157W        W15357  17.576   4.766  13.333 -0.4743  0.1184 -0.1258
15158W        W15358  17.684   5.019   1.167  0.2126  0.2108  0.0958
15159W        W15359   4.224  14.345   0.889 -0.0185 -0.2041  0.2987
15160W        W15360   3.778  11.321   7.048  0.1523 -0.0368 -0.0167
15161W        W15361  15.988   3.003   7.246 -0.0855  0.1482  0.1086
15162W        W15362  14.797   8.298   1.389  0.1121  0.1568  0.1713
15163W        W15363   8.044   1.606   8.474  0.0624 -0.3161  0.0064
15164W        W15364  14.936   7.451  12.881 -0.1547 -0.2554  0.2798
15165W        W15365   3.740   5.539   7.627  0.0833  0.1038  0.0446
15166W        W15366   5.160  12.650  11.818  0.2120  0.0558  0.3583
15167W        W15367   6.514  10.836   9.848 -0.3606  0.0820 -0.1276
15168W        W15368   7.997   9.144  11.241 -0.2551  0.0280 -0.1180
15169W        W15369   4.584  16.171  10.522  0.1701 -0.1976 -0.2688
15170W        W15370   8.307  11.224  11.140 -0.4350 -0.0780  0.2732
15171W        W15371  10.936   8.089  17.050  0.2365  0.1851  0.0451
15172W        W15372   7.710  11.586   9.050  0.0639 -0.1854  0.0400
15173W        W15373   4.039  15.324   2.460  0.1408  0.0059  0.1840
15174W        W15374   7.435  16.316   9.071 -0.0397  0.2572 -0.1404
15175W        W15375   5.209   6.167   7.499  0.0961 -0.2406 -0.0387
15176W        W15376   4.866  17.377   2.775  0.3020  0.0959 -0.0961
15177W        W15377  10.058   1.903   9.963 -0.0906  0.5754  0.1879
15178W        W15378   5.197   4.677   2.182  0.3251 -0.0799 -0.1343
15179W        W15379   4.198   9.461   1.601 -0.1283 -0.0925  0.0953
15180W        W15380   9.504   1.342  13.112  0.1292  0.0177 -0.1622
15181W        W15381   7.801  10.834  11.872  0.2961  0.1060 -0.2094
15182W        W15382   5.917   1.092   4.023 -0.3122  0.3102 -0.5021
15183W        W15383   2.886   8.396  10.307  0.1266  0.2497 -0.1266
15184W        W15384   5.867  13.135   9.715 -0.0582 -0.2212 -0.2398
15185W        W15385   5.426   2.773  13.657  0.0580 -0.0879 -0.1188
15186W        W15386   6.753  18.095  15.050 -0.3223 -0.0017  0.2266
15187W        W15387   4.229   2.479  14.157  0.1504 -0.0695 -0.1308
15188W        W15388   8.704  17.411   2.772  0.3511 -0.2937  0.0037
15189W        W15389   7.633  13.304  10.648  0.2635 -0.0346  0.2312
15190W        W15390   5.984   1.128   5.870 -0.2647  0.0406 -0.0727
15191W        W15391   9.027   4.460   8.862  0.0706 -0.0161  0.1884
15192W        W15392   8.182   2.588   9.552  0.3018  0.1262  0.2416
15193W        W15393  12.920  10.551   7.519  0.1940 -0.0425  0.0129
15194W        W15394   5.894   6.807   4.931  0.1435  0.0144 -0.0579
15195W        W15395   2.063   7.045   7.845 -0.2154  0.0337 -0.1006
15196W        W15396  12.480  10.908   8.981 -0.0961 -0.0160  0.2148
15197W        W15397   0.363  15.974   6.216 -0.2022  0.2201 -0.2046
15198W        W15398  17.445   5.581  15.881 -0.1653  0.2010  0.2061
15199W        W15399  11.409  14.197  13.438  0.0049 -0.0425  0.1583
15200W        W15400   8.732   5.635  10.358  0.1709  0.1359 -0.1842
15201W        W15401   3.158   3.409   8.944 -0.1370 -0.0837  0.0082
15202W        W15402  10.527   7.439  12.617  0.3291  0.0420  0.3383
15203W        W15403   6.553   9.598   8.349 -0.1670 -0.0950 -0.0453
15204W        W15404   0.197  10.122   7.783  0.0057 -0.2467 -0.0588
15205W        W15405   0.235   7.154   2.073 -0.0615  0.2443 -0.5239
15206W        W15406   7.972  13.156   6.406 -0.1498 -0.1913 -0.0149
15207W        W15407  17.335  10.426  13.722 -0.2415  0.3622  0.0554
15208W        W15408   2.081  11.752  10.675  0.0536  0.0993 -0.1321
15209W        W15409  12.398   9.916   3.123 -0.2490  0.1049  0.2844
15210W        W15410   7.814  15.007   9.897  0.3111 -0.0831 -0.0552
15211W        W15411   8.809   6.598   9.056  0.0635  0.2100  0.2569
15212W        W15412  10.267  14.649   9.992  0.0361  0.0314  0.0253
15213W        W15413   4.405   9.347   4.014 -0.1805  0.1232  0.0479
15214W        W15414   2.266   1.013  12.642 -0.2351  0.2523  0.1142
15215W        W15415   0.433   0.959   2.478 -0.0850 -0.1299  0.0225
15216W        W15416   5.630   8.265   5.840  0.1665  0.2887  0.0786
15217W        W15417   2.469  11.666  11.922 -0.2881 -0.1987  0.2215
15218W        W15418  15.558   2.516  13.099  0.0474 -0.0673 -0.1181
15219W        W15419   7.895   5.766   8.225  0.1714 -0.2409 -0.2676
15220W        W15420  14.486   1.317  10.670  0.1123  0.0616 -0.0953
15221W        W15421   5.404   9.653  14.547  0.1235 -0.1911  0.2100
15222W        W15422  10.861  15.118  17.347 -0.3408  0.1687  0.1602
15223W        W15423  10.883   8.259  14.139  0.0993 -0.3389 -0.2510
15224W        W15424  11.167  11.244   7.144  0.2936  0.1517  0.1299
15225W        W15425  15.053   9.828  12.091 -0.1423  0.2004  0.0338
15226W        W15426   4.324   4.938   7.295  0.1782 -0.0196  0.0949
15227W        W15427   2.558  11.588  10.586 -0.2074 -0.0087 -0.1735
15228W        W15428   8.763   6.663  11.267 -0.1211 -0.2748  0.2046
15229W        W15429   5.292  13.793   2.898 -0.2324  0.1210  0.1403
15230W        W15430   5.115  15.006   8.418  0.0331 -0.2419  0.2811
15231W        W15431   7.177   6.784  12.896  0.0757 -0.0609  0.2197
15232W        W15432  12.931  10.449   4.404 -0.0356  0.0933 -0.4144
15233W        W15433   7.288  10.490   8.521  0.4721  0.1598  0.3747
15234W        W15434  15.849   5.403  16.265  0.1390  0.1273 -0.1962
15235W        W15435  11.883  10.851  15.570 -0.1055  0.0604  0.0115
15236W        W15436  17.682   1.192  16.408 -0.5421  0.0404 -0.2661
15237W        W15437   0.484  10.974  18.005  0.2558 -0.0697  0.1823
15238W        W15438  17.446   7.047  16.478  0.1068  0.1325 -0.1006
15239W        W15439   2.690   0.794  14.292 -0.0112 -0.2792 -0.0599
15240W        W15440   2.937   3.935   1.467  0.0401  0.0101  0.0057
15241W        W15441   4.199  10.619   9.510 -0.1926 -0.2311  0.0224
15242W        W15442   5.965  16.988  11.243 -0.0860  0.3476  0.3164
15243W        W15443  11.716  11.274   0.573 -0.0798  0.0010 -0.0354
15244W        W15444   4.773   3.576   3.994 -0.2568  0.2644 -0.1681
15245W        W15445  14.512  13.171   2.146  0.2436  0.0047  0.2369
15246W        W15446   1.610  13.177  17.999 -0.1257 -0.1065 -0.0069
15247W        W15447   6.214   7.996  13.419 -0.2554 -0.1459 -0.0858
15248W        W15448   4.552   7.137   0.304  0.2219 -0.1904 -0.1201
15249W        W15449   6.421   3.517  10.431  0.0749 -0.5498  0.1085
15250W        W15450  14.546  12.093   9.899  0.0317  0.1011 -0.1615
15251W        W15451   9.443  10.337   2.862 -0.2129  0.0548 -0.2461
15252W        W15452   2.073  11.951  14.103  0.1077 -0.2071  0.0497
15253W        W15453   6.111   9.087   1.470  0.0904  0.3119  0.0087
15254W        W15454   6.407   9.606  13.372  0.1493  0.0712 -0.0769
15255W        W15455   4.494  12.795   1.732  0.2355  0.0986 -0.2563
15256W        W15456  15.706   3.346  17.618  0.2974 -0.0379 -0.1432
15257W        W15457   3.113  14.808  10.900 -0.0319 -0.2098 -0.1201
15258W        W15458   2.843  10.637  17.670 -0.0666 -0.1291 -0.0510
15259W        W15459   0.980  12.146  16.039  0.0220 -0.2139  0.2698
15260W        W15460   4.059   2.647   3.122 -0.0732  0.2991  0.3230
15261W        W15461   4.615   1.190  14.080  0.0800  0.0449 -0.1229
15262W        W15462   0.119  12.737  16.770 -0.0870 -0.1667  0.0576
15263W        W15463   3.677  10.133  14.437 -0.2904  0.1065 -0.1387
15264W        W15464  10.415   9.350  11.154  0.1177 -0.2024  0.1948
15265W        W15465  15.348   9.488   5.803 -0.0885  0.0049  0.1822
15266W        W15466  15.600   8.719  13.465  0.0105  0.0321  0.1969
15267W        W15467   8.026  13.833   6.767  0.0818  0.1186 -0.0524
15268W        W15468   0.709  11.083   7.703  0.0989 -0.2469  0.0462
15269W        W15469   9.782  11.833  18.155  0.3148 -0.1020  0.0095
15270W        W15470   6.628   2.106   0.650  0.0108  0.0741 -0.0510
15271W        W15471   5.902   8.552  13.387 -0.2190  0.0288 -0.1380
15272W        W15472   2.629  14.116  16.437  0.3490  0.3207  0.1592
15273W        W15473  12.299   8.208  17.450 -0.0892  0.0674 -0.0072
15274W        W15474   6.393  10.673   9.398  0.2166 -0.0834  0.0259
15275W        W15475   6.402  16.933  10.782 -0.4202  0.0522  0.0761
15276W        W15476   9.156   3.890  12.343 -0.0076 -0.3347 -0.0991
15277W        W15477  17.748   8.583  17.593  0.0526 -0.1396 -0.0237
15278W        W15478   4.766   8.604   1.878 -0.2633 -0.1827 -0.2334
15279W        W15479   2.498   4.374   6.011  0.0468 -0.0010 -0.1470
15280W        W15480  18.068   8.896   0.640  0.0254 -0.3287  0.3045
15281W        W15481   2.428   6.876   5.102 -0.2248 -0.0159 -0.0235
15282W        W15482   0.055  12.133  12.776  0.2787 -0.2821  0.2044
15283W        W15483   4.134  15.459  12.701 -0.0218  0.3121 -0.3123
15284W        W15484   3.416  10.105   6.904 -0.3749  0.1873 -0.4426
15285W        W15485   3.119   8.175   8.918  0.2154  0.3418 -0.1571
15286W        W15486   5.302   7.581  11.481 -0.0448 -0.0150 -0.0602
15287W        W15487  13.960   7.194   8.087  0.2068  0.0473 -0.0921
15288W        W15488   8.414  14.236  13.291  0.0082 -0.1007 -0.1303
15289W        W15489   0.101  18.102  11.664 -0.1177 -0.0272  0.0523
15290W        W15490   3.239  14.155  13.354 -0.0403 -0.2103 -0.0294
15291W        W15491   0.945  15.862  11.321  0.1113  0.0099 -0.0532
15292W        W15492  11.854  17.427  11.745  0.1132  0.1535 -0.0136
15293W        W15493   2.164  16.709  13.192  0.0752  0.3083 -0.0162
15294W        W15494   5.146   7.328  12.491  0.2970  0.1794  0.2895
15295W        W15495   5.167  11.047   0.967  0.0169 -0.1700 -0.3132
15296W        W15496   6.491   8.838  11.441  0.0867 -0.2183  0.2920
15297W        W15497   1.385   8.558  16.483  0.2485 -0.3073  0.3164
15298W        W15498   0.986   7.663   7.982  0.0324  0.0589 -0.0601
15299W        W15499  10.416   7.895  16.354  0.0496 -0.2012  0.1834
15300W        W15500   1.974   5.348  15.258 -0.0578  0.0131  0.0900
15301W        W15501   1.514  12.978   4.339  0.0289  0.7705  0.0471
15302W        W15502   6.421   9.352  11.641 -0.0451 -0.4169 -0.2309
15303W        W15503  10.911   2.315   8.479 -0.4307  0.0967 -0.1025
15304W        W15504   1.469   7.563  11.928 -0.1680 -0.1292  0.1403
15305W        W15505   4.692   4.404  15.080 -0.1065 -0.0173  0.0115
15306W        W15506   6.356   4.443  16.567  0.0030  0.1402  0.2279
15307W        W15507   8.143   7.411   7.205 -0.1197 -0.0789 -0.0631
15308W        W15508   4.560  13.382  16.012 -0.5769 -0.3398 -0.3052
15309W        W15509   2.718   8.653   1.837 -0.1099 -0.1052 -0.0589
15310W        W15510  15.568   6.066  13.710  0.0303 -0.1210  0.0981
15311W        W15511   9.706   9.864  10.454 -0.0150  0.1482  0.0283
15312W        W15512   7.095   5.945   8.768 -0.0333 -0.3660 -0.0585
15313W        W15513   3.163   6.427  15.516  0.2344 -0.1308  0.3440
15314W        W15514  15.834   5.252  13.940 -0.0254  0.0289 -0.0231
15315W        W15515   8.795   3.442   0.482 -0.0347  0.0298  0.3206
15316W        W15516   5.385  14.047  11.892  0.2994  0.2041 -0.0060
15317W        W15517   2.680   0.677  12.333 -0.2497 -0.1090 -0.0987
15318W        W15518   7.197   5.956  13.582 -0.0921 -0.0368 -0.0509
15319W        W15519   7.567  10.824   3.734 -0.3049  0.1066  0.2781
15320W        W15520   2.636  12.608  12.103  0.3199  0.1951  0.1227
15321W        W15521  10.313   6.613   0.115 -0.2413  0.2091 -0.0329
15322W        W15522   4.678   6.961   6.436  0.1003  0.1198  0.0817
15323W        W15523   3.248  13.571  12.097 -0.2886 -0.0652 -0.2336
15324W        W15524   4.313   8.152  14.668  0.1451  0.0373 -0.1398
15325W        W15525   9.992   6.851   7.778  0.1660  0.1566  0.0901
15326W        W15526   1.752   8.639  12.217 -0.0605 -0.1498  0.3506
15327W        W15527   5.934   7.284  10.898  0.2764  0.1835  0.2238
15328W        W15528   8.069   2.018  13.539 -0.1174  0.2166  0.1011
15329W        W15529   1.925   6.397   9.989  0.0768  0.0706  0.0274
15330W        W15530   5.240   8.649  14.896  0.0289  0.0706 -0.0698
15331W        W15531   0.982   0.248  13.819 -0.1138 -0.0507 -0.0745
15332W        W15532   9.364   9.928  11.393 -0.2068 -0.0701 -0.1181
15333W        W15533   6.618   9.116  10.951  0.0907 -0.1671 -0.0324
15334W        W15534  17.226  13.424   9.674 -0.0863  0.1594 -0.2399
15335W        W15535   5.914   4.104  11.243  0.1465 -0.0941  0.1175
15336W        W15536  15.717   4.341   3.220  0.1045  0.0293  0.2661
15337W        W15537   3.310  16.722  11.003  0.1022 -0.0011  0.0849
15338W        W15538   7.072   2.633   1.285  0.1791 -0.1509  0.3015
15339W        W15539  12.438   5.216  17.015  0.3106 -0.0367  0.1255
15340W        W15540   8.259   1.675   8.958 -0.0089  0.1108 -0.0560
15341W        W15541   7.361  14.069   6.559 -0.1027 -0.0250  0.2743
15342W        W15542  10.499  10.012   5.680 -0.0236 -0.1977  0.0134
15343W        W15543   6.109   6.767   9.132 -0.1141 -0.1528 -0.0014
15344W        W15544   7.917  14.939  13.166 -0.0117  0.3803  0.0196
15345W        W15545   3.557  10.253   8.064 -0.2314  0.1281 -0.0313
15346W        W15546  10.822   1.449  11.306 -0.2037  0.0083 -0.0483
15347W        W15547   7.321   9.969  14.077 -0.0780 -0.2040  0.2371
15348W        W15548   6.541   1.606  10.290  0.0712  0.1274  0.1166
15349W        W15549   1.306   6.826   8.368 -0.1934  0.0713  0.3159
15350W        W15550   6.503  11.891   1.716 -0.0551  0.0449 -0.1892
15351W        W15551   8.419   4.749   3.736  0.0990  0.4358  0.0840
15352W        W15552  13.694  14.327  15.248 -0.0227  0.1340  0.0774
15353W        W15553   7.558   6.253  13.390  0.0469 -0.2162 -0.0026
15354W        W15554  14.361  15.036  12.554  0.0141  0.0146 -0.0508
15355W        W15555  17.281   9.813  13.307 -0.0298 -0.0548  0.0368
15356W        W15556  10.425   3.224   4.554 -0.1937  0.1336 -0.0071
15357W        W15557  13.583  17.749   2.002  0.3566 -0.0813 -0.1736
15358W        W15558  17.867  12.717  13.349  0.0713 -0.0749  0.3097
15359W        W15559   9.663  14.657  12.573  0.1222  0.0785 -0.2595
15360W        W15560   2.593  17.018   9.745 -0.1636 -0.2413  0.0370
15361W        W15561   2.887  12.718  15.764  0.2284  0.1838 -0.0169
15362W        W15562   0.193   9.987   5.284 -0.2238 -0.0817  0.1099
15363W        W15563   3.955   2.260  15.281  0.2231  0.1205 -0.0278
15364W        W15564  17.352  14.759  16.602  0.2180 -0.0903 -0.0586
15365W        W15565  18.186  14.508  12.746 -0.2170 -0.1560  0.0662
15366W        W15566   8.814  16.222   9.991 -0.6797  0.1933  0.2711
15367W        W15567  13.006  13.732  17.813 -0.1086 -0.1123 -0.1109
15368W        W15568   4.451  16.287  16.553  0.1711  0.1735  0.2674
15369W        W15569   0.271   5.750  12.772 -0.1934  0.2535 -0.1252
15370W        W15570   7.369   8.492  10.793  0.2046 -0.1282 -0.2797
15371W        W15571   3.795  12.684  11.804 -0.0288  0.4328  0.0443
15372W        W15572   0.871  12.241  11.806 -0.1109  0.0708 -0.1928
15373W        W15573   0.593   1.949  11.924  0.2175 -0.2574 -0.0497
15374W        W15574  11.391  10.870   5.101 -0.1409 -0.2894 -0.1086
15375W        W15575  16.426   6.962   4.406 -0.0871 -0.1934 -0.2831
15376W        W15576   5.479   7.170  17.645  0.2745  0.2948  0.1531
15377W        W15577   6.732   8.579  15.846 -0.0263 -0.4508 -0.0008
15378W        W15578   3.993   5.298   9.423 -0.0799 -0.0202 -0.1241
15379W        W15579  10.278   7.915  10.514  0.1360 -0.2196  0.3457
15380W        W15580  16.952   7.606  17.416 -0.1122 -0.3656  0.2473
15381W        W15581   6.205  16.614  15.324  0.1974  0.2168  0.3781
15382W        W15582  11.166   3.622   4.770  0.1522 -0.1083 -0.1149
15383W        W15583   9.116  12.145  15.110 -0.1761 -0.0841  0.0025
15384W        W15584   9.909   6.304   3.344  0.3078  0.0787 -0.1682
15385W        W15585   3.343   9.928   1.396  0.0801 -0.1672 -0.2731
15386W        W15586   2.462   1.778  10.347 -0.0407  0.2463  0.1313
15387W        W15587   5.245  12.039  12.547  0.0345 -0.1019 -0.0469
15388W        W15588  10.104   9.707  16.628  0.1129 -0.0923  0.0715
15389W        W15589  16.153  16.630  15.733 -0.1510  0.1045 -0.0695
15390W        W15590   5.967   2.901  16.483  0.1433 -0.2478 -0.3957
15391W        W15591  12.862  12.835  15.605 -0.5110  0.3067  0.1605
15392W        W15592   7.651   5.353   8.371  0.0333  0.0812 -0.2616
15393W        W15593   2.573   8.450  18.176 -0.2900  0.1454  0.1636
15394W        W15594  14.464   5.182  12.348  0.3080 -0.1647 -0.2755
15395W        W15595   9.748  10.134  11.080  0.2418 -0.2379 -0.0849
15396W        W15596   7.116  13.112  13.851 -0.0117  0.0535  0.1908
15397W        W15597   0.910   3.223  11.085  0.2112 -0.1405 -0.4092
15398W        W15598   2.485  13.661  13.063 -0.0609  0.1600  0.0138
15399W        W15599   5.366   8.520   6.806  0.4988  0.1120 -0.0800
15400W        W15600   2.736   7.375  10.119  0.2828  0.2496 -0.0749
15401W        W15601   6.829  11.981  13.836 -0.0520  0.2454  0.5029
15402W        W15602   4.798   3.996   8.850  0.0630 -0.3522 -0.0937
15403W        W15603   3.474   6.120   8.905 -0.1890  0.3649 -0.2141
15404W        W15604   9.375   8.211   9.005  0.0909 -0.1208 -0.4269
15405W        W15605   9.783   3.165  11.899  0.0368  0.0987  0.0283
15406W        W15606   3.650  12.040  12.417 -0.3739 -0.1304 -0.0678
15407W        W15607  11.653   7.126   8.147  0.0657  0.1606 -0.2280
15408W        W15608   0.696  10.988   6.279 -0.1977  0.2968  0.3327
15409W        W15609   3.608   6.841   7.073  0.0827  0.1033  0.1860
15410W        W15610   3.756  12.560  10.239 -0.1194  0.2214 -0.1212
15411W        W15611   0.445  13.683  14.295  0.0415 -0.0705  0.2616
15412W        W15612   4.731   9.669   1.455 -0.1224  0.0463  0.0884
15413W        W15613   2.928  18.189   9.078 -0.0288 -0.0079 -0.1478
15414W        W15614  16.101  14.012   8.103 -0.2189  0.1775 -0.1934
15415W        W15615   5.686  18.101  17.031  0.0166 -0.0739  0.0488
15416W        W15616   9.463   0.994   7.565 -0.1279 -0.0686  0.2546
15417W        W15617   1.610   4.534  18.015  0.0239  0.2920 -0.0536
15418W        W15618   0.539  11.902   8.738  0.0902  0.1670  0.2592
15419W        W15619  13.947  14.457   6.508  0.1068  0.0306  0.1116
15420W        W15620   7.113  11.775  12.334  0.2135  0.0221  0.0503
15421W        W15621   9.893  10.052  14.659 -0.1298 -0.0596 -0.0107
15422W        W15622   6.496   5.238  11.801 -0.0103  0.1870  0.0713
15423W        W15623   5.040   7.116  18.163 -0.0149  0.1977  0.0735
15424W        W15624  17.447   3.127  14.566 -0.0826  0.1486 -0.0401
15425W        W15625   2.184  15.698  12.965 -0.1741 -0.0144  0.0927
15426W        W15626   4.916   7.171  14.142  0.2759 -0.0771 -0.1753
15427W        W15627   6.973   3.449  14.000  0.3072 -0.1438 -0.1800
15428W        W15628   1.781   1.539  10.106 -0.2689  0.2904  0.2188
15429W        W15629   6.607   8.960   4.480 -0.3359 -0.0461  0.1199
15430W        W15630  13.110   0.295   8.815  0.1979 -0.2418  0.2189
15431W        W15631   4.847  13.136  17.379 -0.0586  0.2701 -0.0807
15432W        W15632   3.925   5.159  15.454 -0.2333  0.0590 -0.0259
15433W        W15633   5.124   4.423  11.135 -0.0490 -0.1536  0.1735
15434W        W15634   6.283  13.469   4.841 -0.0300 -0.0050 -0.2321
15435W        W15635   0.011  14.634  10.007 -0.0545  0.1041  0.3531
15436W        W15636  16.632  10.532   9.545  0.0916  0.0404 -0.1366
15437W        W15637   8.518   3.646  10.579  0.0531  0.1286 -0.0914
15438W        W15638  17.091   5.331   9.188 -0.1240  0.1516  0.0295
15439W        W15639  16.729   9.166  11.893 -0.1722  0.0119 -0.1782
15440W        W15640   0.793   9.151  12.700 -0.1402  0.1387 -0.1412
15441W        W15641  14.608   6.926   7.556  0.1134 -0.1746 -0.1039
15442W        W15642   3.017   1.145   0.587 -0.0182 -0.1973  0.3801
15443W        W15643   5.513   6.960   9.140  0.0664 -0.1181 -0.3950
15444W        W15644   6.098   7.228  12.064  0.0880 -0.0700  0.0237
15445W        W15645   0.429   5.219  10.053 -0.4290 -0.0493  0.2067
15446W        W15646  16.429  11.045   6.274 -0.0614  0.1089 -0.0158
15447W        W15647   7.362   0.773   0.772 -0.4130  0.1631 -0.0007
15448W        W15648   9.009  15.389  16.983 -0.3005  0.1290 -0.0083
15449W        W15649   6.268  10.136  10.996  0.0767 -0.2462 -0.1869
15450W        W15650   2.528  10.360   4.285 -0.1322 -0.0529 -0.1735
15451W        W15651   4.880   7.207   2.137  0.1780 -0.2675  0.1860
15452W        W15652   2.616  10.835   8.898 -0.0578 -0.1679  0.1703
15453W        W15653   7.766  11.293  12.046 -0.0526 -0.1571 -0.0044
15454W        W15654   7.411  16.387   7.847 -0.1597 -0.0294 -0.0344
15455W        W15655   9.162  10.375  13.031 -0.1499 -0.1678 -0.0208
15456W        W15656   0.178   6.987  11.152 -0.1829  0.0227 -0.0412
15457W        W15657   0.699   8.295   6.553 -0.0729 -0.0342 -0.1768
15458W        W15658   5.758   5.842  11.475  0.1163  0.1500 -0.1561
15459W        W15659  18.007   5.018  13.316  0.1328 -0.0150  0.1753
15460W        W15660   7.906   8.193  15.996 -0.0072  0.0161  0.1828
15461W        W15661  17.673   2.232  12.682 -0.0594  0.0535 -0.0602
15462W        W15662   9.398   2.105   2.747 -0.0646  0.1343 -0.1274
15463W        W15663  12.867   7.151   8.785 -0.0354 -0.1086  0.1183
15464W        W15664   2.374   7.326  14.680 -0.0461 -0.1220  0.0233
15465W        W15665   4.049  13.786   8.698 -0.1618 -0.0022 -0.0106
15466W        W15666   3.566  12.210  11.470 -0.0126  0.1352  0.1657
15467W        W15667   4.526   8.908   0.785 -0.3042 -0.1548 -0.5268
15468W        W15668  11.031  15.073  11.149  0.1281 -0.0831 -0.3754
15469W        W15669   4.908  10.808  13.920  0.0396 -0.2116 -0.2508
15470W        W15670   0.484  10.140   6.683 -0.2789  0.0146  0.1969
15471W        W15671  15.467   9.422  11.210  0.2036 -0.1401 -0.2550
15472W        W15672   6.700  11.845  10.879  0.2165 -0.0250  0.0549
15473W        W15673   5.130   3.938   3.173 -0.1338  0.0443 -0.0699
15474W        W15674   3.109   3.917   8.607 -0.2261 -0.2969 -0.2607
15475W        W15675   9.171  12.987   9.780 -0.0847 -0.3063 -0.2244
15476W        W15676   5.746   5.573   5.319  0.0141  0.1351 -0.1696
15477W        W15677  17.059  13.154  15.625 -0.2012  0.1573 -0.0147
15478W        W15678  14.101   6.835  10.601  0.0996 -0.0020 -0.0026
15479W        W15679  15.238   6.823   7.000 -0.1653 -0.4561 -0.0049
15480W        W15680   3.259   2.946   8.386 -0.2234  0.1948  0.3994
15481W        W15681  17.484   7.932  13.940 -0.1206 -0.1896  0.3698
15482W        W15682   6.704  10.681  15.634 -0.0453  0.2103 -0.1730
15483W        W15683   6.119   1.402  17.359 -0.1681  0.1208 -0.0212
15484W        W15684   3.062   6.897  11.706 -0.2906  0.1461  0.1967
15485W        W15685   4.408  10.708  14.163 -0.3550 -0.0252  0.0445
15486W        W15686  18.184   5.319   4.401 -0.1230 -0.0043 -0.0428
15487W        W15687   8.537   9.220  14.430 -0.5312 -0.0217 -0.0412
15488W        W15688   7.188   7.855  16.672  0.1792  0.0587  0.0375
15489W        W15689  10.251   4.820  16.922 -0.0926  0.0686  0.0994
15490W        W15690   5.154  10.256   4.272  0.1136  0.0036  0.1148
15491W        W15691  10.458   4.145   1.040  0.1825 -0.3234  0.2346
15492W        W15692   5.877   7.477   2.958  0.2012  0.4068 -0.3231
15493W        W15693   5.547  15.665  11.275  0.0557  0.0602 -0.0519
15494W        W15694   4.864  16.838  13.547  0.1455 -0.1293 -0.1736
15495W        W15695   2.692   8.636  13.157 -0.1213 -0.1869  0.2838
15496W        W15696  11.979  11.573   7.564 -0.0745  0.1263  0.0529
15497W        W15697  14.531  10.708  15.719  0.0194  0.2118  0.0645
15498W        W15698   5.372   5.317  13.626  0.3032 -0.0436  0.1917
15499W        W15699   8.155  12.010  16.582  0.0720  0.2671  0.2245
15500W        W15700   7.435   5.734   0.212  0.1572 -0.0510  0.1317
15501W        W15701  10.347   3.758  17.066  0.1137 -0.4786  0.2492
15502W        W15702   0.747   9.770  14.083 -0.4402  0.4107  0.0813
15503W        W15703  13.937  11.152  16.194 -0.2062 -0.2216  0.0317
15504W        W15704   9.975   3.035  10.876  0.1503  0.0207  0.0229
15505W        W15705   6.873   9.320  15.496 -0.2607 -0.0206 -0.2106
15506W        W15706   9.203   3.612  13.280 -0.2685 -0.0596  0.1705
15507W        W15707  18.156   7.233  15.690  0.0625 -0.0418  0.2110
15508W        W15708   7.257   2.313  11.715  0.0201  0.4636 -0.2807
15509W        W15709   6.978  13.289  11.406  0.2259  0.1132  0.2349
15510W        W15710   3.552  12.488  14.772 -0.2725 -0.0523 -0.3810
15511W        W15711   1.365  13.748   8.282  0.1276 -0.2999 -0.3409
15512W        W15712  18.009   0.142  15.227  0.0841  0.2423 -0.2971
15513W        W15713   8.543  12.554   0.762  0.4664 -0.1837 -0.2454
15514W        W15714   7.558   0.556   4.603 -0.2872  0.0074  0.2645
15515W        W15715  12.376   6.482  15.025 -0.1487  0.1007  0.0602
15516W        W15716   0.263   2.393   4.849 -0.1101  0.1880 -0.2884
15517W        W15717   6.056   8.716   9.020  0.0531  0.2918  0.0669
15518W        W15718  10.691  13.804  15.112  0.0577  0.0580  0.0906
15519W        W15719   3.411  10.825  10.757  0.0320  0.0790  0.1224
15520W        W15720   7.410   3.127   8.527 -0.0813 -0.1102  0.1778
15521W        W15721   9.342  14.870  10.894 -0.0212  0.1216 -0.2269
15522W        W15722   8.425  14.185  17.517 -0.2035  0.2049 -0.0446
15523W        W15723   6.652   3.441   9.995 -0.2918  0.2220  0.0026
15524W        W15724  12.454   5.745  12.806 -0.1304  0.2852  0.1008
15525W        W15725   2.935  11.753  13.317 -0.0436 -0.5601  0.1465
15526W        W15726   9.298   5.935   0.865  0.0051  0.0155 -0.2133
15527W        W15727   8.911  11.485  10.377  0.1643 -0.1639 -0.3847
15528W        W15728  17.840   3.972  11.953  0.0291  0.1310  0.0337
15529W        W15729   4.633   6.638  15.722 -0.0056  0.0607  0.0847
15530W        W15730  12.357   1.914   3.724  0.0633  0.2318  0.3013
15531W        W15731   0.558   7.474  13.601  0.2603  0.0460  0.1788
15532W        W15732  11.623  17.921  12.473  0.0949  0.3610 -0.2079
15533W        W15733   8.633  13.643  15.529  0.0329 -0.0201  0.0523
15534W        W15734   7.693  11.976  13.884  0.0901 -0.2154 -0.0271
15535W        W15735   9.917   2.825  17.557 -0.0640  0.1270  0.0684
15536W        W15736   6.277   4.876   6.527  0.1742 -0.2635 -0.1069
15537W        W15737   1.972  16.190   2.973  0.1661 -0.0443  0.0015
15538W        W15738   2.157  14.200  16.370  0.4039 -0.3351 -0.0450
15539W        W15739   4.226   6.845   5.526  0.1211 -0.0363  0.0749
15540W        W15740   1.153   7.570  15.912  0.1055 -0.2791 -0.1677
15541W        W15741   5.625  10.035  13.889  0.0586 -0.0532 -0.0316
15542W        W15742   2.503  10.997  11.732  0.1584  0.0717  0.3953
15543W        W15743   2.045   7.913  11.877  0.0627 -0.2041  0.1428
15544W        W15744   9.788  16.543   6.481 -0.0458 -0.3070  0.2251
15545W        W15745   9.788  12.689  16.985 -0.0054 -0.3001  0.3316
15546W        W15746  15.086   3.540  15.057  0.3240 -0.0335 -0.1163
15547W        W15747   7.803  11.701   7.067 -0.1332  0.0357  0.2640
15548W        W15748   3.096   7.120   8.746 -0.1545 -0.0770  0.1505
15549W        W15749  12.011  13.049  12.370  0.0311  0.1388  0.3561
15550W        W15750   4.480   6.434   4.635  0.0881 -0.2044  0.2952
15551W        W15751  11.503  14.701  14.041 -0.3475 -0.2093 -0.1469
15552W        W15752   4.826   8.209   2.392  0.1241 -0.1662 -0.0987
15553W        W15753   7.026  11.577  13.012  0.2101 -0.2768 -0.0832
15554W        W15754  13.199  17.896   0.286  0.0177  0.0410  0.2148
15555W        W15755   8.231  11.277  17.710  0.1125 -0.2662  0.0036
15556W        W15756   5.866  12.598   9.704 -0.1059 -0.0732  0.2309
15557W        W15757   1.814   5.975  16.848  0.2242  0.0508 -0.2016
15558W        W15758   4.588  13.190  12.432 -0.1987 -0.0606  0.1083
15559W        W15759  13.112   3.429  12.595 -0.1524 -0.1835  0.0852
15560W        W15760  18.134   3.076   9.045  0.4184 -0.0810 -0.1020
15561W        W15761   7.981  16.621   8.289  0.0374 -0.0187  0.5247
15562W        W15762   5.801   8.248   9.019 -0.0979 -0.1221 -0.5637
15563W        W15763   0.711  13.327  14.694 -0.0214  0.1312  0.0020
15564W        W15764   0.700   9.305   7.227  0.3665 -0.0563  0.2665
15565W        W15765   1.919   5.243   9.634 -0.0993 -0.0908 -0.2359
15566W        W15766  16.738   7.411   5.892  0.0818 -0.1749  0.0880
15567W        W15767   1.439   6.681   4.015  0.1807 -0.2565  0.4135
15568W        W15768  16.523   2.241   5.241  0.1185  0.1269  0.1698
15569W        W15769   6.863  11.167  16.540 -0.0562  0.0821 -0.1952
15570W        W15770  12.513   6.243  11.085  0.0150 -0.0691  0.1721
15571W        W15771   5.003   5.028   9.999 -0.3081 -0.1802 -0.1700
15572W        W15772   6.682  13.890  12.220  0.1923  0.1839 -0.1057
15573W        W15773  15.362   9.579  11.682 -0.1601  0.0245  0.1648
15574W        W15774   2.701   0.810  17.204  0.0909  0.2891 -0.1181
15575W        W15775  17.669   8.920  10.908  0.2704 -0.1489 -0.1935
15576W        W15776   7.066   7.527   4.948 -0.0091 -0.0200 -0.1153
15577W        W15777  15.055   4.007  13.958  0.2605 -0.1099 -0.2612
15578W        W15778   4.583  11.922   1.292 -0.0319 -0.2346  0.3385
15579W        W15779   4.812  15.481  10.795  0.1058 -0.1117  0.0923
15580W        W15780   6.985  10.601   9.007 -0.4132  0.1283 -0.0514
15581W        W15781   2.308   5.142  14.502  0.0062  0.1228  0.1422
15582W        W15782   8.866   3.178  10.523 -0.0461 -0.1506 -0.1010
15583W        W15783   9.132   7.369   0.274 -0.2446 -0.2384  0.0749
15584W        W15784   6.488  12.606  13.143 -0.4765  0.2601 -0.1422
15585W        W15785  12.489   5.805   9.439 -0.0815  0.0085  0.0534
15586W        W15786   6.806   5.988  12.261  0.0870  0.1854 -0.1710
15587W        W15787  12.234  13.195   9.080 -0.1357 -0.0088  0.1130
15588W        W15788   9.611   7.252  13.798  0.4493  0.0458 -0.2881
15589W        W15789   8.509   3.788   4.476 -0.0731 -0.0407  0.0431
15590W        W15790   2.995   7.003  11.179  0.2558 -0.0335  0.2381
15591W        W15791   7.128   6.028   1.031 -0.4022  0.1239 -0.0160
15592W        W15792  14.878   9.822  12.930 -0.1413  0.1508  0.4417
15593W        W15793   9.587  16.052  13.028  0.3909 -0.2046 -0.0991
15594W        W15794   4.447  10.436   2.571 -0.1236  0.1288 -0.1229
15595W        W15795  15.689  11.486   0.367  0.1258 -0.2446 -0.0994
15596W        W15796   1.160   8.193   7.904  0.1492  0.0528  0.2387
15597W        W15797   1.730   8.505   0.182  0.0687  0.0088  0.0371
15598W        W15798   4.255  11.498  14.028  0.3115 -0.0935  0.2199
15599W        W15799   6.706   6.402   4.146  0.0770  0.0251 -0.2536
15600W        W15800  13.998   3.189   2.862 -0.1172 -0.1217 -0.0815
15601W        W15801   6.014   1.429  11.764  0.2286 -0.2791 -0.3021
15602W        W15802  10.465   1.237   6.261 -0.2090  0.0843 -0.0155
15603W        W15803  17.162   9.747  12.671 -0.0336 -0.1464  0.0235
15604W        W15804   7.116   4.609   9.268 -0.1072 -0.1165  0.3814
15605W        W15805   5.109  12.862  16.783 -0.0005  0.0457  0.0908
15606W        W15806   4.467   6.237  12.242 -0.2329  0.0912  0.0259
15607W        W15807   3.882   9.350  13.303  0.0611 -0.1940  0.0744
15608W        W15808   5.574  11.750  15.618  0.0267  0.3030 -0.1056
15609W        W15809   0.130   8.699  14.641  0.2890 -0.1237  0.1995
15610W        W15810   1.297   4.313  12.840 -0.3001  0.1191  0.1885
15611W        W15811  10.033  12.204   2.900  0.1588 -0.0828  0.3141
15612W        W15812   6.243   9.306  16.750  0.4067  0.1552 -0.1984
15613W        W15813  11.098  16.088   9.750  0.2034  0.0614  0.2466
15614W        W15814   0.270   9.191  12.804  0.2517 -0.1292 -0.0743
15615W        W15815   6.135  11.274  13.775  0.0277 -0.0490  0.1376
15616W        W15816   9.299  17.528   5.741  0.1407  0.1296 -0.0242
15617W        W15817  17.080   5.642   4.715  0.1370  0.1735 -0.0487
15618W        W15818  17.234   7.099  12.296 -0.0994 -0.0184 -0.3199
15619W        W15819   4.254   9.348  10.404  0.0957  0.1018 -0.0279
15620W        W15820  17.113  13.943  17.154  0.2315  0.1265  0.1050
15621W        W15821  17.860  10.311   1.296  0.0321 -0.0422  0.1049
15622W        W15822   3.238  14.445  16.848 -0.2105 -0.2324  0.3390
15623W        W15823   7.034   7.059  14.965 -0.3567  0.5184  0.1534
15624W        W15824  11.463   5.087   3.689  0.0063  0.1000 -0.5280
15625W        W15825   6.451   3.946  17.943 -0.2052 -0.0439 -0.3419
15626W        W15826   3.754  11.232   8.326  0.1058 -0.1047 -0.2206
15627W        W15827  10.882   6.521  18.160 -0.0360 -0.0860  0.0837
15628W        W15828   5.036   4.204  14.766 -0.1999 -0.2365  0.3850
15629W        W15829  18.078   8.540  12.341  0.0023  0.0722  0.1125
15630W        W15830   9.938   8.950  15.487 -0.1080  0.1366 -0.3807
15631W        W15831  17.850  10.599  11.247 -0.2076 -0.1761 -0.0870
15632W        W15832   6.347   8.184  12.202 -0.0339 -0.0188 -0.2076
15633W        W15833   0.259  13.128   0.615  0.1303  0.0941 -0.1939
15634W        W15834   4.037   9.137  17.346  0.1910  0.0111  0.0833
15635W        W15835   3.805  12.558   2.882 -0.1228 -0.2080  0.0699
15636W        W15836   3.189  13.043  14.300 -0.2123  0.0384  0.3802
15637W        W15837   5.954   8.210   4.098  0.2263 -0.0209 -0.0722
15638W        W15838   8.051   0.061  16.401  0.0164 -0.1870 -0.2606
15639W        W15839  17.136   3.715  10.740 -0.0351  0.3471 -0.2759
15640W        W15840   3.244  16.112   0.590 -0.3556 -0.1873  0.0627
15641W        W15841  10.190   8.588  12.460 -0.2583  0.0503  0.0931
15642W        W15842  12.260   3.901   6.446  0.3043 -0.1253  0.3350
15643W        W15843  12.865   7.669  14.371 -0.0273 -0.0909 -0.0542
15644W        W15844   0.506   2.084  14.065 -0.0147 -0.0120  0.1192
15645W        W15845  13.957   5.666   8.820 -0.1704 -0.2829 -0.0013
15646W        W15846   0.351  11.377  11.951 -0.3861  0.0011 -0.0456
15647W        W15847   2.848  13.213   0.287 -0.1235 -0.1428 -0.0455
15648W        W15848   0.585   8.830   2.617 -0.0209  0.1534 -0.2744
15649W        W15849  16.637  11.959  15.952  0.0783  0.1114 -0.0333
15650W        W15850  13.043  10.924   4.587  0.0395 -0.1427 -0.4451
15651W        W15851   2.867  17.426   8.324 -0.2287  0.1225  0.1808
15652W        W15852   6.730   7.798   0.004 -0.1275 -0.1263 -0.2865
15653W        W15853  13.623  15.782  18.126 -0.1409  0.1822 -0.0656
15654W        W15854   6.761  12.931   5.632  0.0273  0.1671  0.0616
15655W        W15855  10.809   5.403  17.699  0.1104  0.1066  0.0782
15656W        W15856   4.090  11.921   4.557 -0.1466 -0.3760 -0.1045
15657W        W15857  15.550  14.164   3.155  0.2074 -0.2457 -0.0338
15658W        W15858   3.660   5.450  11.201  0.2312 -0.2194  0.3739
15659W        W15859  16.493  15.166  16.580  0.3003 -0.0091 -0.0351
15660W        W15860   4.577   1.203  16.127 -0.1841  0.0447  0.0655
15661W        W15861   1.019   6.083  13.917  0.0175  0.1076 -0.2011
15662W        W15862  10.362   7.948  12.337 -0.1922  0.0255  0.1192
15663W        W15863  17.574  14.796   6.833  0.2234  0.1943 -0.0706
15664W        W15864   1.553   7.315   8.691 -0.2469  0.3280 -0.1286
15665W        W15865  11.173  12.853   0.135  0.2698 -0.2038 -0.2721
15666W        W15866   7.592   5.180   1.123 -0.0663  0.0881  0.0275
15667W        W15867   6.742   4.891  15.360 -0.2174 -0.0622 -0.1201
15668W        W15868   7.513   7.951  14.363 -0.1000 -0.0775 -0.4170
15669W        W15869   4.100  17.633   9.339 -0.1203  0.0125  0.2740
15670W        W15870  12.061  12.081   6.072  0.4159  0.2329  0.3613
15671W        W15871  10.330  17.408  12.489 -0.1247 -0.1538  0.1686
15672W        W15872  12.807   8.201  15.557  0.2061  0.3508 -0.0380
15673W        W15873  12.660   4.864   4.844  0.2958  0.1136 -0.1878
15674W        W15874   2.035  16.718  15.915 -0.0585 -0.3160  0.1780
15675W        W15875   2.365   9.437   3.267  0.0084 -0.0009 -0.0271
15676W        W15876   2.564  14.688  12.723 -0.2904  0.1371 -0.1250
15677W        W15877  14.502  15.392   1.500  0.2080 -0.1926  0.1120
15678W        W15878   5.601   9.052  12.665 -0.0289  0.1239  0.2776
15679W        W15879  10.646   3.662  11.870  0.2319  0.1287 -0.1487
15680W        W15880   4.251  11.646  15.514  0.3259  0.0538 -0.4156
15681W        W15881   7.956  14.630   5.058  0.1063  0.0287 -0.1444
15682W        W15882  17.013   9.092  13.750  0.1379 -0.0684  0.1867
15683W        W15883   6.472  13.941  17.680  0.0531  0.0531  0.0079
15684W        W15884   6.496   4.242  13.312 -0.0792 -0.1726  0.1988
15685W        W15885   6.235   5.153  13.538  0.0029 -0.1152 -0.1807
15686W        W15886   7.842  13.347   9.939 -0.2376 -0.2786  0.0163
15687W        W15887   5.761  12.356   2.721 -0.2095 -0.0743 -0.0951
15688W        W15888   2.667  16.022  14.755  0.1647  0.0457 -0.0913
15689W        W15889   6.132  14.222   5.910  0.1491 -0.0033 -0.1650
15690W        W15890  15.403   9.362   0.287  0.2070  0.0197 -0.0872
15691W        W15891  17.656  16.325  13.970 -0.0995  0.1462  0.4199
15692W        W15892   6.895  11.075   2.338  0.0348 -0.1178  0.1689
15693W        W15893   0.111  11.810  14.253  0.0121 -0.0673 -0.0416
15694W        W15894   8.887  14.593  14.943  0.1438 -0.2330  0.1316
15695W        W15895  16.667  17.405   0.671 -0.0027  0.2720 -0.2101
15696W        W15896   1.603  15.266  17.884  0.2260  0.1387 -0.2148
15697W        W15897   7.577  11.611  16.945 -0.1173  0.1206  0.1300
15698W        W15898  16.457  11.410   7.971 -0.0044 -0.1030  0.0182
15699W        W15899   3.131  15.153  16.478  0.1351 -0.0759 -0.1345
15700W        W15900  17.151   8.405   8.257  0.1302  0.0206 -0.0904
15701W        W15901  16.501   0.469  18.171 -0.1151  0.2543  0.1227
15702W        W15902   5.306   3.541  16.593  0.1778  0.2295  0.1002
15703W        W15903   0.186   1.680  14.024  0.0382  0.0679 -0.0450
15704W        W15904   5.305   2.353  15.469 -0.0885 -0.0523 -0.1184
15705W        W15905   2.459  16.031   0.316 -0.2311 -0.0868 -0.2305
15706W        W15906  14.008  13.021   1.333 -0.1284 -0.3972 -0.0927
15707W        W15907  10.505  11.070   4.472 -0.2716 -0.0566  0.4432
15708W        W15908   3.544   0.540  18.140  0.1634  0.1403  0.0811
15709W        W15909  11.417   7.111   4.499 -0.0173  0.1292 -0.0807
15710W        W15910   7.959   8.523   6.921 -0.0565 -0.1125 -0.0341
15711W        W15911   6.616   7.758  17.311 -0.2463 -0.1632 -0.2053
15712W        W15912   0.605   8.067   9.850 -0.0629 -0.0070  0.2465
15713W        W15913   1.740   3.943   5.490 -0.0191  0.0032  0.0324
15714W        W15914  10.343  12.199  13.670 -0.1126  0.1469 -0.0598
15715W        W15915   3.246  13.528  16.088  0.2003  0.2065  0.0065
15716W        W15916   5.654   8.671   5.109  0.1855  0.0578  0.1971
15717W        W15917   0.695  11.904   7.628  0.0598 -0.2813  0.0792
15718W        W15918   2.361  10.594  16.061 -0.2103  0.2028 -0.2475
15719W        W15919   3.587   8.738  11.137  0.0149 -0.2885 -0.2195
15720W        W15920  16.348  17.662  10.671  0.3562 -0.2777 -0.2526
15721W        W15921   2.920  12.066  10.651 -0.0595 -0.0577  0.2249
15722W        W15922  13.152   6.457   8.034  0.1301  0.0630 -0.0945
15723W        W15923   8.024   5.251   0.870 -0.0015 -0.3694  0.0047
15724W        W15924   0.344   8.567  10.174 -0.1490 -0.1521 -0.1087
15725W        W15925   4.868  11.455   6.894  0.1149 -0.0888 -0.1390
15726W        W15926   1.924  10.195   2.288  0.2279 -0.2673 -0.1546
15727W        W15927  11.523   9.593  15.379 -0.0163  0.2159  0.2035
15728W        W15928  17.813   9.219  11.331  0.0010  0.1098  0.1205
15729W        W15929  16.484  13.916  17.365 -0.1601  0.2639  0.1897
15730W        W15930  15.536   8.780  12.736  0.0107 -0.2399  0.1912
15731W        W15931   5.407  14.017   6.934 -0.1847 -0.1588 -0.0672
15732W        W15932  15.270  10.797   4.298 -0.2964 -0.1119 -0.5205
15733W        W15933  15.443  10.972   7.957  0.0463 -0.1421 -0.4565
15734W        W15934   8.677  13.713  10.567 -0.1060 -0.1429 -0.0480
15735W        W15935  10.369  10.336  14.189  0.1219 -0.1628 -0.1699
15736W        W15936   1.050  12.406  12.907 -0.3372  0.1123  0.1422
15737W        W15937   6.953   0.906  16.105 -0.0218  0.0910 -0.0677
15738W        W15938  16.259   3.619  18.034 -0.0497  0.1008 -0.1734
15739W        W15939  11.894   6.887   9.972 -0.0884  0.0286  0.1303
15740W        W15940   2.034  14.892   0.465 -0.2630 -0.2050  0.0930
15741W        W15941   8.171  11.728  15.070 -0.0420  0.0297 -0.0821
15742W        W15942   3.346  11.793  17.314 -0.0756  0.3816  0.1779
15743W        W15943   6.962  16.684   8.494  0.0761 -0.0196  0.0133
15744W        W15944   8.813   5.848  13.322  0.0827 -0.2177 -0.2118
15745W        W15945   9.296  16.062  15.916 -0.2125 -0.1994 -0.1660
15746W        W15946  12.871   8.174   4.365 -0.2622 -0.1884  0.1590
15747W        W15947  15.323  12.076  17.411  0.0851  0.2324 -0.4748
15748W        W15948  15.401   6.275  12.585 -0.0166  0.0227 -0.3108
15749W        W15949   2.690   8.378  11.013  0.3110 -0.4019 -0.1499
15750W        W15950   0.531  14.405  16.719 -0.2151  0.0026  0.0703
15751W        W15951   9.462  10.444  15.640  0.0034 -0.0197 -0.2418
15752W        W15952   9.588  11.691   1.093  0.4797 -0.2018 -0.3469
15753W        W15953   7.024   6.238  14.704  0.1302 -0.0456  0.0608
15754W        W15954  17.378  13.400  17.249 -0.0774 -0.1543  0.1194
15755W        W15955  16.732  11.088  15.331  0.2507  0.3277 -0.3758
15756W        W15956   7.392  13.243  13.349 -0.1172  0.1730 -0.2828
15757W        W15957   4.587  15.007   0.464  0.3063  0.3505 -0.1413
15758W        W15958   9.454   9.214  10.899  0.0841  0.0452 -0.0415
15759W        W15959   4.436   5.775  14.918 -0.1959 -0.0409 -0.0807
15760W        W15960  10.365   5.066  11.652  0.0579  0.0016  0.0273
15761W        W15961   8.433  13.412  16.967  0.0675  0.4181  0.0960
15762W        W15962   1.606   9.083  15.965  0.0992  0.0124 -0.2963
15763W        W15963   3.967   9.420   2.654 -0.0744 -0.0786  0.5038
15764W        W15964   2.745   2.449  16.680  0.1936 -0.1463 -0.4502
15765W        W15965   0.523   8.038  15.663  0.1861  0.0584 -0.0811
15766W        W15966  17.723  11.664  11.211 -0.3130  0.2262  0.1080
15767W        W15967   2.162   4.137   7.144  0.1976  0.3419  0.0071
15768W        W15968   6.196  11.127   0.896  0.1974  0.1042  0.0576
15769W        W15969   9.177   8.743   2.729 -0.1405  0.1371  0.1229
15770W        W15970   1.727   7.122  16.300  0.0375  0.4651  0.0355
15771W        W15971   6.393  14.414  16.754  0.1747 -0.0380  0.4722
15772W        W15972   7.631   8.869   2.829  0.0061  0.2537  0.0275
15773W        W15973   3.927   7.975   7.497  0.2581  0.0206  0.1346
15774W        W15974  15.112  17.105  12.915 -0.2559  0.0831 -0.2378
15775W        W15975  17.733   9.385   3.917  0.0277  0.0821 -0.1934
15776W        W15976   3.028   8.757  17.571 -0.2052 -0.0580  0.1444
15777W        W15977  14.459  11.089  13.232 -0.2711  0.1686  0.0244
15778W        W15978   5.190  12.974  15.897  0.0390  0.3169  0.2781
15779W        W15979  10.982   5.070  14.195  0.1487  0.1020  0.0484
15780W        W15980  16.976  13.254  11.183 -0.0608  0.1265  0.2027
15781W        W15981   1.903   8.747   6.222  0.1155 -0.2514 -0.0131
15782W        W15982   1.798   7.583  12.808 -0.0104 -0.0120 -0.0305
15783W        W15983   8.644   9.207   4.828  0.3888 -0.0639 -0.2660
15784W        W15984   2.098  15.226  13.882 -0.0219 -0.0693 -0.3295
15785W        W15985   5.903   3.508   0.949 -0.1362 -0.0134  0.0602
15786W        W15986   2.436   0.376  11.446 -0.3809 -0.2130  0.1383
15787W        W15987   2.579   7.985   0.251 -0.2723  0.4710  0.2057
15788W        W15988   0.963   5.473   1.531  0.1796  0.1726 -0.0649
15789W        W15989   0.986  15.663   1.843  0.0673  0.1061  0.1608
15790W        W15990   2.701   0.860  12.830  0.0339 -0.1883 -0.0472
15791W        W15991   3.261   7.882   1.260  0.0513 -0.0114  0.1965
15792W        W15992  10.923  17.250  15.121  0.1693  0.0112 -0.0593
15793W        W15993  17.462   7.873   9.793  0.1207  0.3438 -0.2041
15794W        W15994   0.557   5.853   8.980 -0.1571 -0.1750 -0.0959
15795W        W15995   2.987   7.389  10.839  0.0910  0.3298  0.2261
15796W        W15996  12.818  11.779  14.152 -0.1744 -0.0670 -0.1419
15797W        W15997   6.340   9.891   4.862 -0.1299 -0.0751 -0.0476
15798W        W15998  10.653   7.566  16.052  0.3245  0.3743 -0.0918
15799W        W15999   1.569  16.811   2.732 -0.0170 -0.0422 -0.1223
15800W        W16000  10.007  10.840  15.494 -0.0780 -0.3589 -0.0067
15801W        W16001   3.638  10.563  12.822  0.0168  0.2421 -0.2537
15802W        W16002  17.864   9.313   0.409 -0.0591 -0.1297 -0.3220
15803W        W16003  16.017  14.006  14.559 -0.0236 -0.2111 -0.2905
15804W        W16004   7.575  10.012  12.230  0.1240  0.0519  0.3600
15805W        W16005  12.412   4.537  14.111 -0.0727 -0.0356 -0.1106
15806W        W16006   7.737   6.973   1.777 -0.1347 -0.3711 -0.0732
15807W        W16007   4.104   3.717  16.039  0.0719  0.0189  0.0535
15808W        W16008   1.764   6.456   2.700  0.2464  0.0537 -0.0090
15809W        W16009  14.510  16.615  11.320  0.2399 -0.1244 -0.0457
15810W        W16010   1.775  12.951   9.923  0.0205 -0.3120 -0.1166
15811W        W16011   4.368   7.934  16.468  0.1919 -0.1330 -0.4741
15812W        W16012   6.844   1.643  11.450 -0.0096  0.1207 -0.0423
15813W        W16013  12.174   2.768  17.711 -0.1473 -0.0411 -0.1656
15814W        W16014  10.573  15.884   7.161 -0.2209  0.0794 -0.1654
15815W        W16015   0.564  12.894   4.418  0.0148 -0.0533  0.1984
15816W        W16016  14.305   8.408  14.653  0.0943  0.1027 -0.0077
15817W        W16017   4.487   5.275  15.596 -0.1797 -0.1041 -0.2574
15818W        W16018   5.106  14.658  14.273  0.0340 -0.0354  0.2275
15819W        W16019   2.143   5.791   3.987  0.1496  0.0613 -0.1828
15820W        W16020   4.391   4.806   1.542  0.0070 -0.3165  0.1035
15821W        W16021   2.770   4.936   2.311 -0.0438 -0.0659 -0.0664
15822W        W16022   2.323  17.198   0.344  0.2270  0.0454 -0.2007
15823W        W16023   7.384  10.257  17.033  0.0031 -0.0718 -0.2281
15824W        W16024  15.406   8.468  15.661 -0.1967 -0.1091 -0.1702
15825W        W16025   9.366   5.093   0.802  0.0790  0.3119  0.0459
15826W        W16026   4.261   8.237  15.654  0.0831  0.2334 -0.0882
15827W        W16027   7.170   7.454  15.759 -0.0010 -0.2093  0.0984
15828W        W16028   4.099   9.475   0.239  0.3990 -0.0716 -0.2446
15829W        W16029   9.848   7.398  14.176 -0.1827 -0.5181  0.0249
15830W        W16030   1.269   6.239   2.032  0.0531  0.0786 -0.0592
15831W        W16031   8.799  12.978  15.468  0.1316  0.0888 -0.4377
15832W        W16032   6.327   8.260  15.938 -0.0155 -0.0103  0.2298
15833W        W16033   4.115   1.910  10.928 -0.0434  0.0656  0.0885
15834W        W16034   6.187   9.898  10.535 -0.2431  0.0959  0.0334
15835W        W16035   9.182   3.561   3.147  0.1411  0.2614 -0.1097
15836W        W16036   7.062  16.104   2.864 -0.1345  0.0309  0.2624
15837W        W16037   7.141  13.723  17.014  0.2503  0.1227  0.0646
15838W        W16038   2.825   6.269  14.011  0.0730 -0.2554 -0.2001
15839W        W16039   9.195   5.173   0.161 -0.0319  0.0023  0.0760
15840W        W16040   3.387  10.446  16.276 -0.1087 -0.0122  0.0108
15841W        W16041   5.516   3.370  13.758 -0.0399 -0.0258  0.1597
15842W        W16042   8.974   6.605   3.116 -0.0557  0.0032  0.1484
15843W        W16043   5.527   5.109  11.918  0.0681 -0.0223 -0.0490
15844W        W16044   3.252  14.380  16.317  0.0692  0.0318  0.1635
15845W        W16045   5.807   6.935  15.773  0.0527  0.3591 -0.0053
15846W        W16046   6.800  17.140  14.881 -0.1398  0.0861 -0.1068
15847W        W16047   6.478   9.713  17.182  0.1812 -0.0142 -0.2951
15848W        W16048   2.657   8.379   6.145  0.2512  0.1570  0.0133
15849W        W16049   5.097   8.760  17.736  0.0524  0.0397  0.2698
15850W        W16050   4.279   6.798  11.478  0.0265  0.0271  0.0492
15851W        W16051   5.812  12.209  17.547 -0.0410  0.1486 -0.0416
15852W        W16052   7.067   9.394  10.887  0.2148 -0.1708  0.2381
15853W        W16053   3.709  10.888   6.805  0.2485  0.1652  0.0980
15854W        W16054  11.836   5.016   8.047  0.0555 -0.1673  0.0709
15855W        W16055   6.241  16.784   2.112 -0.0255  0.0525 -0.1195
15856W        W16056   7.771  11.465  12.920  0.2246  0.1602 -0.1679
15857W        W16057   4.102   5.434  17.917  0.2951  0.0481 -0.0262
15858W        W16058   8.907   7.104  12.810 -0.2640  0.2463  0.0277
15859W        W16059   3.889  14.000  14.850 -0.0535  0.2364 -0.0113
15860W        W16060   7.913   8.409  13.940 -0.1539 -0.0468  0.0742
15861W        W16061  17.293  10.760  10.474 -0.0781 -0.1603  0.0357
15862W        W16062   6.593   7.923  11.781  0.1159 -0.2298  0.1740
15863W        W16063   2.608  15.717  15.881  0.1693  0.0992 -0.0568
15864W        W16064   9.130   9.613   2.533  0.0631  0.0907  0.1186
15865W        W16065   3.500  11.362  16.415 -0.3546 -0.1562  0.1895
15866W        W16066   0.704   7.640   0.035 -0.0384  0.1278  0.0078
15867W        W16067   6.318   7.373  17.111 -0.1439  0.0787 -0.3027
15868W        W16068  17.983   9.593  11.002  0.1214  0.0808 -0.0112
15869W        W16069   6.421  10.557  16.777 -0.1887 -0.0099  0.1896
15870W        W16070   2.666  10.522   7.332 -0.1798 -0.2334  0.1134
15871W        W16071   6.802   8.508   1.195  0.1618  0.3003 -0.1726
15872W        W16072   9.538   7.287   1.427 -0.0213 -0.0952  0.1779
15873W        W16073  11.575   6.005  12.614  0.2971  0.1862 -0.1617
15874W        W16074   7.955   7.860  10.815 -0.1185  0.0682  0.2040
15875W        W16075   1.959  16.307   4.610 -0.2044 -0.3027 -0.1484
15876W        W16076   6.037  11.300   7.319 -0.2091 -0.2906 -0.1210
15877W        W16077  17.807   9.411   8.008  0.1116 -0.0546 -0.2886
15878W        W16078   5.014   2.484   0.605 -0.0114  0.0324  0.0377
15879W        W16079  17.592   2.648   0.116  0.1027  0.0623  0.1916
15880W        W16080   1.913  14.714  14.533  0.4985  0.1203  0.2705
15881W        W16081   7.480   8.374   7.160  0.0714  0.1105 -0.0616
15882W        W16082   4.679  12.062  13.069  0.2185  0.1688 -0.0107
15883W        W16083   0.277  14.182  16.229  0.0429 -0.1364 -0.0601
15884W        W16084   7.553   9.376  14.154 -0.3126  0.1433 -0.3246
15885W        W16085  17.916   2.843   6.035 -0.1042 -0.3141  0.1378
15886W        W16086   3.598  13.295  17.322  0.4069  0.0700 -0.3163
15887W        W16087   5.892   4.757  14.865 -0.0561 -0.0915  0.1394
15888W        W16088  14.070   6.091   0.359  0.0736 -0.0289 -0.1717
15889W        W16089   8.509   3.307  12.728 -0.0520 -0.0934 -0.0206
15890W        W16090   8.503   9.639  15.758  0.0060 -0.1899 -0.2269
15891W        W16091   9.948  13.600  10.882 -0.1551 -0.0156 -0.1789
15892W        W16092   2.416  15.572  16.333 -0.2362  0.2557 -0.0121
15893W        W16093   2.883   5.302   2.621 -0.1539 -0.1259  0.1015
15894W        W16094  15.206   9.483   2.746 -0.2752  0.0476  0.0018
15895W        W16095   5.659   9.259   2.826 -0.1048  0.0422  0.1231
15896W        W16096   1.230   6.125   1.490  0.0539  0.0511  0.0988
15897W        W16097   3.459  14.771  16.521  0.0506  0.2127 -0.2148
15898W        W16098   8.482   7.364  13.948 -0.3914  0.0816 -0.1413
15899W        W16099   9.377   7.988  14.977 -0.0090  0.2172  0.0331
15900W        W16100  14.558   5.235  17.780 -0.0004 -0.0587  0.1713
15901W        W16101   4.937  11.215   3.546  0.4880  0.4362 -0.0931
15902W        W16102   6.111  11.839   8.297 -0.0652  0.0226  0.1084
15903W        W16103  11.040   2.921   3.360  0.0428 -0.0170  0.3009
15904W        W16104   2.252  14.616  14.988 -0.0698  0.2937  0.0178
15905W        W16105   2.079   7.103   4.326 -0.1308  0.0666 -0.0283
15906W        W16106  11.885  13.120   9.572  0.1493  0.0153  0.3348
15907W        W16107   9.960  12.827  15.484 -0.2441  0.0675 -0.1379
15908W        W16108   6.934   9.126  12.775 -0.2107  0.1019  0.0644
15909W        W16109  10.561   5.629  11.572  0.1728  0.1252  0.3494
15910W        W16110   4.272   6.842  15.386  0.0295  0.2987  0.3675
15911W        W16111   9.901  14.332   8.738 -0.3555 -0.0956  0.0571
15912W        W16112   4.767  11.031   3.054  0.1464  0.1747  0.2908
15913W        W16113  13.836   7.729  14.271  0.2208  0.2896  0.1023
15914W        W16114   4.706   3.395  14.820 -0.1760  0.2349  0.0845
15915W        W16115   3.229  13.071   3.258  0.0908 -0.1090  0.3611
15916W        W16116   3.090   2.232  15.256  0.1543 -0.1521  0.2446
15917W        W16117   0.850  10.032   9.803 -0.0380 -0.0558  0.4532
15918W        W16118   4.799   7.541  12.201 -0.0568  0.0911  0.3808
15919W        W16119   2.101   7.615  16.140  0.1847  0.2497 -0.3025
15920W        W16120  14.987   9.530  11.390  0.0451  0.1251  0.2394
15921W        W16121   1.088  10.646   1.068 -0.3291  0.2095 -0.0059
15922W        W16122   4.815  13.689  17.161 -0.1219  0.0168  0.3811
15923W        W16123   4.803  16.620  17.585  0.0196  0.3398  0.0927
15924W        W16124   5.981  12.806  10.206 -0.3377  0.2965  0.0453
15925W        W16125   3.532  10.052  15.294  0.2449 -0.0238  0.1362
15926W        W16126  13.968   0.741   3.745  0.0183 -0.1750  0.2445
15927W        W16127   4.436  13.884  11.842  0.0126 -0.2784  0.0295
15928W        W16128  11.891  11.367  14.195 -0.2629  0.2141  0.1646
15929W        W16129  12.699   0.235  17.361 -0.2785  0.0865 -0.2060
15930W        W16130   3.403  14.428   3.090 -0.2386  0.1523  0.2431
15931W        W16131  16.763   2.751  17.435 -0.1403  0.0475  0.2068
15932W        W16132  16.432   7.620   1.480  0.1071  0.0316 -0.1817
15933W        W16133  13.064  11.506  14.562 -0.2169  0.2321 -0.0717
15934W        W16134  15.016   5.549  10.521  0.3037  0.2986  0.0816
15935W        W16135   7.949   4.056   3.569  0.1464 -0.0128  0.1030
15936W        W16136   4.489   8.937  10.046 -0.2547 -0.2202  0.0277
15937W        W16137  16.040  13.874   0.997  0.0013  0.3437  0.2624
15938W        W16138   0.917  10.686   9.182  0.0488 -0.1461 -0.2627
15939W        W16139   9.005  13.353  12.377 -0.1472  0.2066 -0.3749
15940W        W16140  12.586  15.492   0.456  0.0697  0.1710 -0.0461
15941W        W16141   1.403  14.916   6.153  0.1466  0.0499  0.2009
15942W        W16142   3.822   5.193   4.498  0.3817 -0.1076 -0.3123
15943W        W16143  14.267  12.329  11.376  0.2029  0.0524  0.1808
15944W        W16144   4.389   9.650  15.533  0.0964 -0.1856  0.0853
15945W        W16145  15.556   8.202  14.280 -0.2076  0.5660 -0.1418
15946W        W16146   4.429   5.192  16.150 -0.1598  0.2325 -0.1957
15947W        W16147   0.995   3.529   3.255 -0.1108  0.0526  0.0011
15948W        W16148   9.030  11.351  15.032  0.0670  0.1554  0.1368
15949W        W16149  13.529   2.318  12.416  0.2163 -0.1185 -0.0624
15950W        W16150   6.748   5.047  11.381 -0.0769 -0.0556  0.0712
15951W        W16151   1.010   8.228  15.758 -0.1451  0.0911 -0.0620
15952W        W16152   6.655  15.394  17.226  0.1690  0.4000 -0.1483
15953W        W16153   9.122  15.356   9.080 -0.1395  0.1084  0.0833
15954W        W16154   2.406  13.677  14.447 -0.0298 -0.0357 -0.2672
15955W        W16155   3.081   6.659   0.594  0.0580  0.2238 -0.2599
15956W        W16156   3.127  16.173  15.246  0.1320  0.3608  0.1936
15957W        W16157  10.817  13.619  13.848 -0.0528  0.0184  0.0121
15958W        W16158   4.005  14.788  16.611  0.0283  0.1790  0.0260
15959W        W16159  18.124  10.424   7.465  0.1955 -0.3703  0.1806
15960W        W16160   2.439   9.499  14.428 -0.1195  0.0289 -0.2418
15961W        W16161  13.617   3.343  16.853  0.0057  0.1431 -0.2006
15962W        W16162   7.527   7.126   9.535  0.0974  0.2731 -0.0558
15963W        W16163   5.004  12.370  12.819  0.0381 -0.0123  0.1668
15964W        W16164  15.522  10.209   9.536  0.2351  0.1252 -0.3600
15965W        W16165   5.915   5.215  10.284 -0.2001 -0.1112  0.0907
15966W        W16166   5.536   7.865   9.595  0.0451 -0.1852  0.1168
15967W        W16167   2.659   6.389   0.367  0.0332 -0.1602 -0.3159
15968W        W16168   8.992  14.138  11.469  0.0046 -0.1152  0.2145
15969W        W16169   8.792  15.325   3.181 -0.1138  0.2631  0.0648
15970W        W16170  13.193   0.888   6.867 -0.0547 -0.0032  0.2218
15971W        W16171   5.840  16.159   9.118  0.1710  0.2116 -0.0975
15972W        W16172   5.168   8.059  13.278  0.0839  0.3273 -0.0504
15973W        W16173  11.164  16.424  11.366 -0.1922  0.1933 -0.1817
15974W        W16174  17.787   0.652  13.950 -0.3175  0.1712  0.1078
15975W        W16175   7.272   4.404  14.844  0.2604  0.2762 -0.1807
15976W        W16176  10.413   7.848   3.199 -0.5340  0.0144  0.1021
15977W        W16177   2.786   7.318  15.481 -0.0666  0.0569 -0.4290
15978W        W16178  15.973   6.329   2.115 -0.3555 -0.2659 -0.0099
15979W        W16179   8.615   8.570  14.896  0.2347 -0.0713 -0.1838
15980W        W16180   9.349   1.643   2.070 -0.2070 -0.0609 -0.0800
15981W        W16181   4.854   5.578  14.254 -0.2495  0.2568 -0.3083
15982W        W16182   6.684  16.881  13.406 -0.1751  0.1483  0.2183
15983W        W16183  14.086   1.997   2.987  0.0404  0.0230  0.0909
15984W        W16184   4.572  17.705   1.628 -0.0180  0.1562 -0.1490
15985W        W16185  10.011   1.665  16.685  0.2296 -0.1054  0.0642
15986W        W16186   0.944   5.564   0.057 -0.1927 -0.2043 -0.2835
15987W        W16187  10.911   0.416  16.138  0.1381 -0.2632  0.0788
15988W        W16188   1.899   8.416   1.949 -0.0141  0.0609 -0.0501
15989W        W16189  16.558  12.685  15.691 -0.2288  0.0404 -0.1148
15990W        W16190   5.606   5.032   6.636 -0.0643  0.1667 -0.1621
15991W        W16191   5.372   7.174  16.923  0.2868 -0.1931  0.1680
15992W        W16192  11.330  16.575   8.832 -0.0986  0.2378 -0.1232
15993W        W16193  11.489  11.577  12.970  0.1442  0.2253 -0.1761
15994W        W16194   6.932  12.071  11.915 -0.0056  0.0454 -0.0616
15995W        W16195  14.016   8.156  17.841 -0.2835  0.3354 -0.2060
15996W        W16196   0.211   8.166  16.673 -0.1359 -0.1822 -0.1324
15997W        W16197  10.768  13.197  12.777  0.0310 -0.1883  0.1363
15998W        W16198   5.938   8.957  13.074  0.0475  0.2513  0.1590
15999W        W16199  16.684  12.349  17.901 -0.0028  0.4301 -0.0318
16000W        W16200   3.121  16.847  16.945  0.1225  0.2882 -0.0814
16001W        W16201   2.639  11.586   8.274 -0.1881  0.3264 -0.2174
16002W        W16202  17.660   1.558  10.756  0.0350  0.2338 -0.2720
16003W        W16203   4.475  11.021  13.731  0.1764  0.3572 -0.1902
16004W        W16204   7.198  13.778   8.165 -0.3333 -0.1471  0.1610
16005W        W16205   8.191  12.211  12.517 -0.0483  0.3380 -0.2974
16006W        W16206  15.636   7.794   3.820 -0.3087 -0.2322  0.1684
16007W        W16207  13.404  17.230  12.925  0.0176  0.3640  0.2521
16008W        W16208  15.407   2.950   1.135  0.3286  0.1087  0.1943
16009W        W16209   4.472  12.237   0.906  0.0902 -0.1802  0.0263
16010W        W16210   2.376  12.995   0.200  0.1206  0.1062  0.1184
16011W        W16211   6.145  17.682  17.790 -0.0590  0.3323  0.3681
16012W        W16212   5.112  10.833   8.315  0.1239 -0.1242  0.1807
16013W        W16213   3.796  10.840  17.845 -0.0914  0.1525  0.1530
16014W        W16214   7.025  11.426  13.952  0.1930 -0.4877  0.2469
16015W        W16215   5.358  10.652   6.992  0.0966  0.1990  0.2083
16016W        W16216   1.005  10.121   1.759 -0.2408  0.1533  0.2347
16017W        W16217  15.416  16.277   2.198 -0.2163  0.1551  0.3512
16018W        W16218   0.159  17.720   4.047 -0.0919 -0.0427 -0.0303
16019W        W16219   3.742   5.759   9.639 -0.0913  0.2577  0.3205
16020W        W16220   2.965  14.436  11.301  0.1322  0.0123 -0.0913
16021W        W16221   7.937   6.442  17.640  0.0397 -0.1544  0.0922
16022W        W16222   2.240   0.927  15.304 -0.2818 -0.2875 -0.2894
16023W        W16223   6.060  12.045   2.001 -0.0271  0.0579 -0.0163
16024W        W16224   4.635   3.943   2.520  0.0396  0.2035 -0.1503
16025W        W16225  14.562   2.729  11.602 -0.1743  0.0690  0.4601
16026W        W16226   5.536   1.610  17.124  0.2589 -0.0767  0.1818
16027W        W16227  16.883   7.593   3.880 -0.1202  0.1129  0.1205
16028W        W16228   0.277   9.035   5.842  0.1253 -0.0901 -0.3196
16029W        W16229   5.606   1.462   7.338  0.1402  0.1807  0.2840
16030W        W16230   6.368  16.859   0.505  0.1245 -0.0265 -0.4181
16031W        W16231  15.857  17.049   8.132 -0.2021 -0.0769 -0.2291
16032W        W16232   7.452  12.176   1.480 -0.3501  0.1693 -0.2690
16033W        W16233   2.939  11.133  17.041 -0.2562 -0.0098  0.1426
16034W        W16234   2.405  10.030   2.065 -0.1155 -0.0114 -0.2442
16035W        W16235   1.126  11.703  16.119 -0.1275 -0.0257  0.2024
16036W        W16236   2.253  15.557  16.969  0.0720  0.0637 -0.0295
16037W        W16237   8.209   7.000   2.978  0.1472  0.0361  0.0881
16038W        W16238   1.900   8.749   7.977  0.0475 -0.1619  0.2926
16039W        W16239   2.498  10.121   5.308  0.2687 -0.2953 -0.0294
16040W        W16240   5.311   9.083   5.161 -0.0768  0.1730  0.0397
16041W        W16241  16.279  18.104   1.448  0.2213  0.1433  0.3681
16042W        W16242   3.355  10.066   2.321  0.0277  0.1150 -0.1971
16043W        W16243   7.618  13.784  17.808 -0.0507 -0.0773 -0.0588
16044W        W16244  10.239  12.258   4.708 -0.2733  0.3020 -0.0724
16045W        W16245  16.454  12.711   8.093 -0.0669 -0.1388 -0.0146
16046W        W16246   6.037  15.566  17.059 -0.0204  0.2000  0.1178
16047W        W16247   6.240   9.762   1.997  0.0509 -0.0885  0.0181
16048W        W16248   7.560   4.130  14.372  0.0819  0.1233 -0.0591
16049W        W16249  10.201   7.492   1.343 -0.2763  0.0200 -0.0052
16050W        W16250  10.408  18.135   3.616 -0.1551  0.0983 -0.1269
16051W        W16251   4.046  12.340   5.868  0.2550 -0.2238 -0.1350
16052W        W16252   4.679   0.580   7.468  0.2175 -0.1262 -0.0328
16053W        W16253   0.384   3.267   1.050 -0.0087  0.2083 -0.2100
16054W        W16254   7.540  16.413  15.335 -0.1119  0.1846  0.1805
16055W        W16255   8.923   2.695   0.816 -0.1638  0.1690 -0.0578
16056W        W16256   2.895  12.692   2.922 -0.0866 -0.0476 -0.0981
16057W        W16257  16.454  11.450  12.294 -0.1083  0.0199 -0.3075
16058W        W16258   5.816  13.369  16.536 -0.0618 -0.2248  0.2864
16059W        W16259   9.509  14.739  17.554  0.0325 -0.0485 -0.1202
16060W        W16260   5.930   3.457  12.033  0.1364 -0.1237  0.1196
16061W        W16261  15.645  12.270  14.407  0.0411 -0.0026 -0.2050
16062W        W16262   6.528   0.319   8.525 -0.0078  0.2185  0.2606
16063W        W16263  16.405  15.837  16.906 -0.0875  0.3634  0.1549
16064W        W16264  11.086  12.573   1.468  0.3090 -0.0220 -0.2929
16065W        W16265  18.080   7.192   6.283 -0.2657  0.1283  0.0158
16066W        W16266   4.131   5.631   2.019  0.2793  0.0431  0.0867
16067W        W16267   4.759  12.120   6.442 -0.1972  0.0717  0.0388
16068W        W16268  16.623  10.683  11.710 -0.0301 -0.3330  0.1903
16069W        W16269   5.464  15.408  15.189 -0.1428  0.0992 -0.2740
16070W        W16270   8.576   1.435   9.766  0.2399  0.0099  0.1719
16071W        W16271   3.796  15.455  17.715  0.0203  0.2340 -0.2419
16072W        W16272   0.306   8.615   2.172 -0.0849 -0.1172  0.3057
16073W        W16273  18.148   7.098  11.608 -0.3147  0.0233 -0.3887
16074W        W16274  15.839   4.470  15.514 -0.1348  0.2790 -0.1517
16075W        W16275  11.009   8.138  15.520  0.0339 -0.1134 -0.2936
16076W        W16276   9.640  16.468   1.033  0.1982  0.1678  0.0743
16077W        W16277   4.285  12.352  13.296  0.2503  0.0306 -0.1922
16078W        W16278  10.314   2.316   2.940 -0.1041  0.3028  0.0805
16079W        W16279  10.424   9.830   5.182  0.3411  0.0808 -0.1135
16080W        W16280   0.975  14.260   9.035 -0.0426  0.0823  0.0707
16081W        W16281   1.048  12.614   6.852  0.1066  0.1771  0.0930
16082W        W16282  11.380   3.448   1.437 -0.3287 -0.0490 -0.2166
16083W        W16283   5.422  14.655  17.854  0.2347 -0.1965 -0.0381
16084W        W16284  11.881  13.399  17.017 -0.2297 -0.0136 -0.4766
16085W        W16285   4.964   3.955   5.835 -0.2789 -0.2119  0.0530
16086W        W16286  14.475   5.391   8.625  0.1078  0.4248 -0.1439
16087W        W16287  10.347   2.369  13.128 -0.2053 -0.0438 -0.5716
16088W        W16288   8.985  11.304   3.642  0.0896 -0.2397 -0.1242
16089W        W16289   8.351   7.915  16.397 -0.0499 -0.1525 -0.0682
16090W        W16290   9.948   1.635   3.289 -0.1933  0.0193 -0.2103
16091W        W16291   7.768   8.259   2.417  0.0333 -0.1091  0.0131
16092W        W16292   5.771   8.020  16.991 -0.1166  0.0261 -0.1687
16093W        W16293   8.197  16.846   8.715  0.0013  0.0617 -0.1256
16094W        W16294   6.018  17.014   1.719 -0.0342 -0.0571 -0.3081
16095W        W16295   5.865   6.033   1.981  0.3542  0.0457 -0.3265
16096W        W16296   9.126   2.706   7.445  0.0393 -0.1240 -0.0149
16097W        W16297   4.226  12.924  12.743  0.0857 -0.2731  0.1223
16098W        W16298   6.287  17.299  17.382  0.0162  0.1117 -0.2510
16099W        W16299   4.513  15.138   2.365 -0.0776 -0.4356  0.2182
16100W        W16300   3.447   9.016   4.925  0.1231  0.0142 -0.1840
16101W        W16301   5.760  11.993   6.040  0.0980 -0.3135 -0.1392
16102W        W16302  16.422  14.330  14.443  0.1040  0.2850 -0.3075
16103W        W16303   3.440  15.573   1.248  0.2280  0.0369 -0.0123
16104W        W16304  14.966  12.753   8.507 -0.0592  0.0701 -0.0820
16105W        W16305   4.514  12.099   7.812 -0.3963 -0.2530 -0.0841
16106W        W16306  10.065   8.407  16.156  0.0699  0.0198  0.0122
16107W        W16307   9.336   0.664   2.072  0.0338  0.1410 -0.1892
16108W        W16308   1.159   9.934   6.662  0.2210 -0.0012 -0.0761
16109W        W16309   2.301   8.666  13.441  0.3339 -0.0517 -0.1558
16110W        W16310   0.346   4.692   0.709  0.0061 -0.0190 -0.0005
16111W        W16311   4.364  11.988   9.801  0.2498  0.1082  0.0275
16112W        W16312   4.788  12.959  16.180  0.0497  0.0335 -0.1282
16113W        W16313   1.448  16.884   9.811  0.0023 -0.0936 -0.0455
16114W        W16314  18.122  17.930  11.122 -0.3971  0.2022  0.0439
16115W        W16315   5.939  14.034   7.824 -0.0589 -0.1578 -0.1498
16116W        W16316  17.821  12.214   7.847  0.0423  0.3281  0.0574
16117W        W16317   5.617   9.952  17.978  0.1147  0.2009 -0.2967
16118W        W16318  17.087   1.083  15.144 -0.1195 -0.2270 -0.0814
16119W        W16319   4.472  10.761  18.184  0.0547 -0.1824 -0.1132
16120W        W16320   3.703  14.588  16.938 -0.2559  0.1723 -0.4536
16121W        W16321   9.450  11.751   3.984 -0.2211 -0.2599 -0.0770
16122W        W16322  16.995  12.987   1.432 -0.0862  0.1732 -0.1247
16123W        W16323   5.824   8.501  11.652 -0.0220  0.0562 -0.0295
16124W        W16324   8.890  14.488  12.529 -0.0181 -0.0926 -0.0692
16125W        W16325   1.575   0.384   0.385 -0.0541  0.0922 -0.2537
16126W        W16326  17.918   0.254   0.871  0.0592 -0.1314 -0.1614
16127W        W16327   1.169  11.502  12.536 -0.1756  0.1436  0.1807
16128W        W16328  13.741  14.824   7.685 -0.1257 -0.1549  0.0193
16129W        W16329   7.599  16.762   5.543  0.0901 -0.0417  0.0271
16130W        W16330   0.521  13.270   1.559 -0.1032  0.0726 -0.1738
16131W        W16331  15.368   9.439  15.641  0.0997  0.0777 -0.0545
16132W        W16332  11.580   2.595   4.280 -0.1498 -0.2076  0.0659
16133W        W16333   6.543   9.127   7.990  0.3479  0.4824  0.1930
16134W        W16334   5.168  12.414   3.885  0.0658  0.0047  0.2679
16135W        W16335   0.387  14.995  11.283  0.2277  0.2129 -0.1604
16136W        W16336   3.240  12.680  13.797  0.0153 -0.1428 -0.3483
16137W        W16337   6.432  12.083  13.489 -0.0892 -0.0549  0.0521
16138W        W16338   0.163   8.867   1.066 -0.0067 -0.0439  0.2716
16139W        W16339   5.026  15.773  11.404  0.2894  0.3364 -0.2415
16140W        W16340   7.490   5.638   3.357 -0.2037 -0.1422  0.1586
16141W        W16341   3.790   2.286   3.276 -0.2439  0.0940  0.1195
16142W        W16342   6.274  14.808  16.234 -0.1769 -0.0075  0.0397
16143W        W16343   2.904   3.877   6.671 -0.0572 -0.2176  0.2091
16144W        W16344  10.359  16.379   5.750 -0.0334  0.2694 -0.0812
16145W        W16345   5.162   0.808  15.326  0.3252 -0.1873 -0.0082
16146W        W16346   6.339  15.268  15.368  0.0036  0.1937 -0.0610
16147W        W16347   3.711  16.263  14.753  0.0908 -0.1143 -0.0321
16148W        W16348   6.815   9.674   2.028  0.0830 -0.1222  0.0338
16149W        W16349   9.568   1.710   9.781 -0.1550 -0.0150  0.1225
16150W        W16350  12.051   3.053   5.591 -0.1536 -0.2338  0.1004
16151W        W16351   9.969   6.004  12.070 -0.4548  0.1302  0.0181
16152W        W16352  10.443  11.663   0.721 -0.1041 -0.2069  0.0325
16153W        W16353   4.092  11.511   7.923  0.1745  0.1493 -0.0284
16154W        W16354   3.590   8.742   7.245 -0.0652  0.2180  0.0482
16155W        W16355   5.192   3.970  13.670 -0.0932  0.4897  0.2482
16156W        W16356   1.938  11.565   1.010  0.3944 -0.3719  0.1353
16157W        W16357   3.792  15.458  15.030 -0.2915 -0.3864 -0.1787
16158W        W16358  12.507  12.063   3.067  0.3715  0.0876 -0.2786
16159W        W16359   7.137  12.935   6.757  0.1100  0.3765  0.5014
16160W        W16360   3.533  15.186   1.883 -0.0318 -0.2076 -0.2671
16161W        W16361  17.275   8.713  11.847  0.0006  0.1694 -0.1652
16162W        W16362   1.662  16.170   6.952  0.0105  0.1378  0.0049
16163W        W16363   6.236  13.173   9.362  0.1885 -0.1588 -0.0957
16164W        W16364  15.376  16.263   2.778 -0.0597  0.4696  0.0058
16165W        W16365   9.017   9.286  16.967  0.0412 -0.0251 -0.2721
16166W        W16366   3.069  12.749   0.865  0.0994  0.0958  0.0665
16167W        W16367   3.015   0.240   2.122  0.0882 -0.2577  0.1217
16168W        W16368   4.970   8.211  14.102 -0.0362 -0.1030  0.4110
16169W        W16369   1.723  16.746  10.983  0.2668  0.2384 -0.0541
16170W        W16370   2.537   2.763  13.559 -0.0693  0.0424  0.0272
16171W        W16371  16.548  15.594   5.417 -0.1949  0.2110  0.0827
16172W        W16372   8.809   6.645   3.651  0.0234 -0.1248  0.0422
16173W        W16373   5.464   8.237  17.868  0.0650 -0.0564  0.2624
16174W        W16374  13.663  11.759  13.838  0.0946 -0.0062 -0.2004
16175W        W16375  15.544   5.159   2.093 -0.1195 -0.2991 -0.2500
16176W        W16376   6.473   5.935   3.609  0.2401 -0.1088 -0.0872
16177W        W16377   5.945   0.253   6.175 -0.1020 -0.0972  0.1932
16178W        W16378   5.967   5.275   9.023  0.0035 -0.0488  0.4691
16179W        W16379   3.154   9.916   3.289  0.1373  0.2508  0.2044
16180W        W16380  13.006  10.130   4.792 -0.1323 -0.2223 -0.2678
16181W        W16381   3.300   0.083  12.667  0.0183  0.1748  0.1625
16182W        W16382   2.101  11.670   2.547  0.1676 -0.0465  0.1035
16183W        W16383   4.070  15.136  15.432 -0.1000  0.2641 -0.0096
16184W        W16384  18.020   1.630   3.160  0.0672  0.1377  0.1542
16185W        W16385   6.561  11.963   4.364 -0.2876  0.2403 -0.1513
16186W        W16386   5.500  16.980  14.691  0.0493 -0.0219 -0.3535
16187W        W16387   0.904  16.979   9.681  0.1671  0.1396 -0.4520
16188W        W16388  15.518  14.098  15.648  0.1178 -0.2104  0.0030
16189W        W16389  11.808  14.680   1.471  0.0398  0.0291  0.2585
16190W        W16390   2.032  12.820  17.857  0.0137  0.0425  0.3378
16191W        W16391  14.289   7.521  10.019 -0.0704 -0.0127 -0.0418
16192W        W16392   0.382  10.497  14.651 -0.0199  0.5108 -0.1379
16193W        W16393   6.895  16.623   5.290 -0.1739 -0.1634 -0.4222
16194W        W16394   3.277  15.498  16.985 -0.1396 -0.0938  0.1612
16195W        W16395   8.022  17.312  14.877  0.1479 -0.0352  0.0300
16196W        W16396  17.304   6.582   6.183 -0.1170  0.1563  0.2369
16197W        W16397  11.750  10.684   3.357  0.3501 -0.0559  0.1111
16198W        W16398   4.683  16.650  11.592  0.3685  0.2750  0.1839
16199W        W16399   1.303  13.854  10.136  0.0182 -0.1218 -0.3449
16200W        W16400  15.042   1.877   3.702  0.1717  0.1230  0.3203
16201W        W16401   0.892   4.199  12.114 -0.2317  0.1462  0.3832
16202W        W16402  10.206  13.785   9.545  0.1188 -0.1199  0.2367
16203W        W16403   5.872   7.221   1.196 -0.0554  0.1553  0.1130
16204W        W16404  14.894   7.362   8.441 -0.0248  0.1889  0.1404
16205W        W16405   5.313  11.745   0.362  0.0515  0.1293  0.0880
16206W        W16406   4.717   8.825   0.252 -0.2680  0.1601  0.1594
16207W        W16407   5.368  11.387   8.393 -0.1059 -0.0640  0.0470
16208W        W16408   0.219  14.634   2.257 -0.3118 -0.0554  0.0037
16209W        W16409   2.179  10.190  12.125  0.4559 -0.2192  0.0511
16210W        W16410   7.901   2.249  17.594  0.1968  0.0194 -0.0769
16211W        W16411   4.679  12.887   0.392  0.1965 -0.0554  0.2364
16212W        W16412  16.786   6.827  15.906 -0.2675  0.1152 -0.0252
16213W        W16413   5.433  11.097  11.259  0.4148 -0.1183 -0.0033
16214W        W16414   3.282  12.712   1.372  0.0406 -0.0964 -0.2709
16215W        W16415   0.122   1.757   4.594 -0.1239  0.0470  0.1891
16216W        W16416   8.222  14.963   2.793  0.0015 -0.0104 -0.1811
16217W        W16417   1.169  13.752   9.202  0.0768 -0.1612 -0.2819
16218W        W16418  13.939   8.234   5.650  0.0943 -0.3246 -0.2903
16219W        W16419   3.083   0.015   5.604  0.0021 -0.3902  0.3016
16220W        W16420  17.759  11.300  13.128 -0.2130  0.4195  0.0304
16221W        W16421  11.714   7.826  17.477 -0.0267 -0.1210  0.2200
16222W        W16422   6.198  12.653   9.254 -0.0403 -0.2696  0.0573
16223W        W16423  15.802   6.343   6.165 -0.0539 -0.3696 -0.0258
16224W        W16424   9.541  17.303  17.604  0.2397  0.1622  0.2695
16225W        W16425   1.610   9.803   4.199 -0.0070 -0.0744  0.0156
16226W        W16426   4.232   4.992   8.566  0.0487  0.2273 -0.0112
16227W        W16427   2.270  12.129   0.754 -0.0007 -0.2105  0.3672
16228W        W16428  17.689  11.079   1.975  0.1936 -0.0743 -0.0600
16229W        W16429   0.563  15.932   0.914  0.3163 -0.0774 -0.1005
16230W        W16430   5.538   0.244  14.614  0.0642  0.0609 -0.0059
16231W        W16431   8.487  13.584   5.164 -0.2855  0.0442 -0.0337
16232W        W16432   9.521  16.849  17.146 -0.0384  0.3147  0.2868
16233W        W16433   6.725   8.898   3.123  0.2763 -0.0623 -0.2137
16234W        W16434   8.592  14.060   0.340  0.2018  0.1024  0.0722
16235W        W16435   1.256  13.004   3.780 -0.1863  0.0510 -0.1042
16236W        W16436   6.259   2.588   8.962 -0.3725  0.1554  0.0984
16237W        W16437   9.284  17.008   6.003 -0.1835  0.0278 -0.1515
16238W        W16438   1.940   0.823   1.434 -0.0044 -0.0038 -0.0628
16239W        W16439   4.900   0.835   8.888  0.0575 -0.0670 -0.1263
16240W        W16440  17.109  13.795  10.965 -0.0916 -0.2131 -0.0226
16241W        W16441   3.358   6.797   4.657  0.1384 -0.3141 -0.3596
16242W        W16442   7.895  12.495   8.601 -0.0587 -0.0810 -0.0783
16243W        W16443  11.066  10.336   3.701  0.2532 -0.0353  0.2130
16244W        W16444   5.325  10.343   2.911  0.0949  0.1703 -0.0975
16245W        W16445  12.576   7.821  16.084  0.2247  0.1784  0.0645
16246W        W16446   9.310  11.017  13.350 -0.0309  0.1406  0.2264
16247W        W16447   7.250  11.437  17.769 -0.5382  0.1278  0.1665
16248W        W16448   6.750  13.021   3.400 -0.0438  0.0638  0.0892
16249W        W16449   9.833  13.948   1.626 -0.0041  0.2745 -0.0908
16250W        W16450   8.539   2.605  11.606  0.1937 -0.1345 -0.0763
16251W        W16451   3.170  12.801   6.718 -0.1426  0.0768  0.2660
16252W        W16452  12.256   1.418   3.784  0.0083 -0.1549  0.2843
16253W        W16453   3.507  15.314  12.174  0.2664  0.0084 -0.0092
16254W        W16454   3.104   1.182   8.533  0.0437 -0.1609 -0.1308
16255W        W16455  14.727  12.453  16.673  0.3875  0.1728  0.1747
16256W        W16456   7.929   9.005   5.427  0.1784  0.0324  0.2987
16257W        W16457   1.729   9.129   0.202  0.1591  0.3577 -0.2845
16258W        W16458   6.740  16.738  15.265  0.0170  0.3808 -0.0915
16259W        W16459   3.148   6.398   0.174 -0.1910 -0.1659 -0.4330
16260W        W16460   0.609  17.501  16.534 -0.2539 -0.1874 -0.1453
16261W        W16461   1.613   9.599   1.165  0.2417 -0.0072  0.3009
16262W        W16462   1.095   0.186  12.765 -0.1677 -0.2003  0.0140
16263W        W16463   1.364   6.341   0.406 -0.1782  0.0247  0.0349
16264W        W16464   4.811  12.670   6.440 -0.3785  0.1244 -0.2375
16265W        W16465   7.114   8.616  18.074 -0.3341  0.0920 -0.3340
16266W        W16466   3.112  10.661  15.681  0.2862 -0.1815  0.1398
16267W        W16467   7.866  15.884  17.533  0.1280  0.1213  0.1531
16268W        W16468  11.333   1.458   5.964  0.0855 -0.1196 -0.1434
16269W        W16469   5.683  16.674   6.412 -0.3751 -0.0656 -0.0660
16270W        W16470   1.816  15.179  17.214  0.1058 -0.2214 -0.6178
16271W        W16471   9.444  14.369   9.644  0.0131  0.1251  0.0865
16272W        W16472   5.473  11.125   2.026  0.0860 -0.1272  0.1576
16273W        W16473  15.316  14.713   1.372  0.3118  0.0086 -0.1887
16274W        W16474   2.683   7.104   5.471 -0.0490 -0.2571 -0.3538
16275W        W16475   1.041   8.586   3.359  0.1158 -0.0581  0.0684
16276W        W16476   2.363  15.111   2.340  0.0316 -0.1148 -0.0079
16277W        W16477   3.383   7.384  11.157  0.1332  0.0608  0.1691
16278W        W16478   9.062   3.759   2.627 -0.2196  0.3168 -0.2515
16279W        W16479   5.296  11.260   6.269  0.1855  0.2264 -0.0049
16280W        W16480   8.138   1.929   1.608 -0.0790  0.3088 -0.2117
16281W        W16481   7.157  10.038  16.647 -0.0829 -0.2198 -0.0064
16282W        W16482   1.267  13.509   2.510  0.0813  0.0675 -0.3718
16283W        W16483  13.968  11.012  16.715 -0.1695 -0.0487  0.3925
16284W        W16484  11.888  12.999   3.414  0.0491 -0.2373 -0.2623
16285W        W16485   1.792  16.420  13.122  0.1025 -0.2146  0.4549
16286W        W16486   4.566  17.445  12.496  0.1699 -0.1151  0.0477
16287W        W16487  15.631  11.029   1.197  0.2041  0.0430  0.0951
16288W        W16488  17.669  14.890   4.231  0.0710  0.2873  0.0891
16289W        W16489  10.441   6.643  15.716 -0.1505  0.0714  0.1137
16290W        W16490   3.730  14.958   4.023  0.1340  0.1773 -0.1535
16291W        W16491   9.011   1.927   5.882  0.0296  0.2192  0.1003
16292W        W16492   1.380   6.841  17.796  0.2712  0.1702 -0.2640
16293W        W16493   6.562  10.281  11.945 -0.1486  0.0071 -0.0975
16294W        W16494   0.610  14.623   6.575  0.2889 -0.3725 -0.0606
16295W        W16495   5.781  14.579  13.713 -0.2246 -0.2144 -0.1197
16296W        W16496   5.375   8.969   2.334  0.1471 -0.2243 -0.3359
16297W        W16497   3.869  14.262  14.242  0.0737  0.2033 -0.3445
16298W        W16498  17.948   1.384  14.034  0.1385 -0.0250  0.3775
16299W        W16499   0.995  14.324  16.631 -0.0905  0.0545 -0.1899
16300W        W16500  16.573   0.913   1.691  0.0683  0.0786 -0.0153
16301W        W16501  11.088   3.527   7.153 -0.0814 -0.0427  0.1127
16302W        W16502   7.882   5.657   5.718 -0.0804  0.2782  0.0336
16303W        W16503  10.757   1.054  12.068 -0.0286 -0.2892  0.1963
16304W        W16504   4.286   0.917  11.842 -0.2270 -0.2149 -0.0913
16305W        W16505  16.348  11.031  12.616 -0.0433  0.0808  0.0799
16306W        W16506   5.927  13.159   5.210 -0.0514 -0.0235 -0.2101
16307W        W16507   5.900   7.884  14.566  0.0934 -0.0570 -0.1472
16308W        W16508   0.449  18.013  15.588  0.1527  0.0996  0.2311
16309W        W16509   9.735  14.483   7.841 -0.0819 -0.3849  0.1848
16310W        W16510   6.721   6.542  12.975  0.1095 -0.0117 -0.1830
16311W        W16511   1.954   8.770   4.257 -0.4265  0.0010 -0.0403
16312W        W16512   9.153   0.106   4.103  0.1495  0.0042  0.0583
16313W        W16513  16.596  10.302   2.434 -0.0263 -0.1450  0.2495
16314W        W16514   9.268  16.775   0.855  0.1128  0.1161 -0.1720
16315W        W16515   4.128  15.870  13.872 -0.0488 -0.0849  0.0357
16316W        W16516   0.776  17.087  14.607 -0.1606 -0.0778  0.3708
16317W        W16517   4.647  14.753  13.990  0.0844  0.1724 -0.0726
16318W        W16518   3.820  14.749   3.256  0.1337 -0.0049 -0.1247
16319W        W16519  14.241  10.334  16.541 -0.1626  0.1363 -0.0031
16320W        W16520   7.739   8.989   4.512  0.1523  0.0421 -0.2866
16321W        W16521  10.104   0.318   3.617  0.1628 -0.0501 -0.2786
16322W        W16522   6.385   7.370  16.609  0.0510  0.1386  0.0005
16323W        W16523   8.324   9.892   0.335 -0.0805  0.3095 -0.1087
16324W        W16524  17.712   7.610  18.020  0.1908 -0.2437 -0.0125
16325W        W16525  17.261  10.126   6.013  0.0654  0.0403  0.1410
16326W        W16526   2.023   6.754   6.334 -0.0389  0.2542 -0.0681
16327W        W16527   4.865   9.299  14.191 -0.1167 -0.3412 -0.2245
16328W        W16528   8.670  12.263   1.232 -0.0130  0.0520 -0.1868
16329W        W16529   3.860  13.203  11.673  0.0047  0.0930 -0.0211
16330W        W16530  15.808  15.757   3.316 -0.0831 -0.1032  0.0321
16331W        W16531   2.607  13.272   3.684  0.0698 -0.2972  0.1446
16332W        W16532  13.859   6.466  10.202 -0.0543 -0.2089  0.0615
16333W        W16533   3.785  16.202   6.637 -0.3999 -0.1827  0.0570
16334W        W16534   4.925  14.445   5.265 -0.1356 -0.1678  0.0335
16335W        W16535  15.073  12.085   6.125  0.4942  0.0084  0.3135
16336W        W16536   7.738  18.071   2.339 -0.0647  0.2783 -0.1383
16337W        W16537   8.219   0.627  13.698  0.5884 -0.2904 -0.2746
16338W        W16538   8.602   2.762  16.873 -0.0152  0.0695  0.0042
16339W        W16539   2.650  17.369   5.980  0.2604  0.3225  0.2297
16340W        W16540   8.574   9.406  16.222 -0.2223 -0.0893 -0.1339
16341W        W16541   5.878  11.282   2.831 -0.1396 -0.2791  0.1089
16342W        W16542   1.972   2.561  16.845  0.1233  0.2137  0.0362
16343W        W16543  10.849  17.362   2.127  0.1217  0.4039  0.0267
16344W        W16544  13.143   4.240   2.472 -0.2133  0.2990  0.0381
16345W        W16545   3.126  13.106  15.678  0.0173 -0.3452 -0.3021
16346W        W16546   6.169  12.057   6.397 -0.1427  0.0529 -0.1708
16347W        W16547   7.309   6.508  16.244 -0.3501  0.0574 -0.4687
16348W        W16548   1.214   9.082   6.357 -0.1259  0.1492 -0.0098
16349W        W16549   2.406  11.908   9.405 -0.5654 -0.0166  0.1727
16350W        W16550   4.517  12.981   8.815  0.1360  0.2078  0.3143
16351W        W16551  10.736   1.517   4.457 -0.0200 -0.3026  0.3439
16352W        W16552   9.391  14.317   3.250  0.3283 -0.2091  0.1102
16353W        W16553   0.819  10.980  16.995 -0.0427  0.1739  0.0928
16354W        W16554   8.606  18.160   2.393  0.1796 -0.2370 -0.0311
16355W        W16555  10.736  12.261   3.863  0.0151  0.0942  0.4768
16356W        W16556   6.577  15.294  10.133 -0.0451  0.0591 -0.1506
16357W        W16557  11.695   3.037   4.104  0.0631 -0.0471 -0.1117
16358W        W16558   4.169  17.967   0.804 -0.2045 -0.1343  0.0750
16359W        W16559   0.928  12.420   6.313  0.1736 -0.1096  0.0096
16360W        W16560   6.484  10.099  12.919 -0.3504 -0.1193  0.0492
16361W        W16561   8.694  17.018   0.637 -0.2340 -0.0483  0.1978
16362W        W16562  17.346   0.261  15.848  0.1517  0.2073 -0.3169
16363W        W16563   5.107  11.594   3.246 -0.0538  0.2176 -0.0824
16364W        W16564   6.281  10.942  12.956  0.0505 -0.1027  0.1470
16365W        W16565   5.386  18.138  13.782 -0.1222 -0.0226 -0.0486
16366W        W16566   3.410  10.402   4.707  0.0888  0.1208  0.0367
16367W        W16567   2.010  16.080   8.310  0.0281 -0.1139 -0.0795
16368W        W16568   0.806  12.389  11.348 -0.1666  0.3547  0.1461
16369W        W16569  11.246   1.661   2.181 -0.2176 -0.0644  0.0013
16370W        W16570   8.131  16.720   0.559  0.0716 -0.4154  0.0871
16371W        W16571   7.677  13.989   7.611  0.1207 -0.1144 -0.0158
16372W        W16572   1.299  12.726  12.556  0.1490 -0.1790 -0.1656
16373W        W16573   7.782  13.742  11.962 -0.1566 -0.0083 -0.3678
16374W        W16574   9.259  14.665   6.892 -0.3486 -0.0327  0.0496
16375W        W16575   6.834  12.280   3.670 -0.2696 -0.0604 -0.1990
16376W        W16576   1.906  14.134  17.281 -0.1901  0.3107 -0.0794
16377W        W16577   7.099  15.730   1.353 -0.0299 -0.1088 -0.5272
16378W        W16578  13.891  13.473  15.288 -0.0541  0.0787  0.2171
16379W        W16579   6.211  11.336   6.411  0.0463 -0.0717 -0.1255
16380W        W16580   5.550   8.425   1.147 -0.0901 -0.2511 -0.0275
16381W        W16581   2.632  11.962  17.587  0.1218 -0.1899 -0.1094
16382W        W16582  11.514  15.952   3.881  0.1912  0.0010 -0.1887
16383W        W16583  14.829   4.500   6.768 -0.3000 -0.2195 -0.0429
16384W        W16584  13.976   6.375  12.818 -0.1399 -0.1138  0.0730
16385W        W16585   3.896  12.522  12.528 -0.0538  0.1379 -0.1694
16386W        W16586   4.720   5.655   2.053  0.2245 -0.0309  0.1504
16387W        W16587   9.050  15.893  17.262  0.3975  0.2958 -0.4885
16388W        W16588  16.491  11.832   2.678  0.0364 -0.1093 -0.2763
16389W        W16589   4.622  14.674   0.090 -0.2047  0.0914 -0.0139
16390W        W16590   9.534   9.755   6.880 -0.1514  0.0709  0.0367
16391W        W16591   5.059  13.724   7.857 -0.1768 -0.0830  0.1529
16392W        W16592   4.444   0.667   3.789 -0.2590  0.0729  0.1300
16393W        W16593  11.326  14.021  16.248  0.3721  0.2112 -0.1189
16394W        W16594   9.269   5.716   4.967 -0.0084  0.0378 -0.2274
16395W        W16595   2.731   5.943   7.217 -0.1912  0.2133  0.0945
16396W        W16596   0.934   2.662   2.849  0.0505  0.1709  0.0081
16397W        W16597   3.286  13.890   4.934 -0.1156  0.1977  0.0814
16398W        W16598   4.066  10.400  18.042  0.0543 -0.2662  0.0224
16399W        W16599   4.598  17.890   0.628  0.1542 -0.2494  0.2319
16400W        W16600   3.782  15.849   3.463  0.0255  0.2211  0.0941
16401W        W16601  11.499  17.778   8.766 -0.0656  0.2089 -0.2306
16402W        W16602   2.800   6.531   5.377 -0.0205  0.1858  0.1048
16403W        W16603   3.511  14.614  15.995  0.1360 -0.2069  0.1686
16404W        W16604   8.443   7.869   7.380 -0.3603 -0.1607 -0.1954
16405W        W16605   2.369  12.493  14.315 -0.1311 -0.4179  0.0859
16406W        W16606   1.727  11.983  16.609  0.0603  0.2096  0.2660
16407W        W16607   2.110  12.758   4.507  0.2548  0.0879  0.1799
16408W        W16608  10.343   8.825   5.385 -0.0276  0.0080 -0.0509
16409W        W16609   6.736   8.169   5.549  0.0371 -0.5494 -0.2442
16410W        W16610  15.414  12.970   1.985 -0.2991 -0.1759 -0.1935
16411W        W16611   7.436   2.660  10.735 -0.2669 -0.1699  0.1324
16412W        W16612   4.836  13.920   6.710  0.1112 -0.1754 -0.1142
16413W        W16613  11.761   4.481   7.272  0.0056  0.0340  0.1185
16414W        W16614   1.265   7.646   4.436 -0.3547 -0.1177  0.0845
16415W        W16615  12.514   3.751   4.510 -0.0397 -0.0948 -0.2502
16416W        W16616  15.830  11.262   3.186  0.0701 -0.2731 -0.0450
16417W        W16617   9.462   9.764   4.531  0.0177 -0.3291  0.0745
16418W        W16618   9.683  10.493  12.040  0.2299 -0.0581 -0.2746
16419W        W16619  17.568   9.818   6.264  0.0285  0.3317 -0.2478
16420W        W16620  11.120   4.712   3.694 -0.3174 -0.2227  0.0682
16421W        W16621   6.940  17.044   3.616  0.3572  0.1262 -0.1481
16422W        W16622   3.936   1.612   8.899 -0.2796  0.0586  0.1411
16423W        W16623   3.168  12.498  16.427  0.2057 -0.0460  0.3539
16424W        W16624  18.134  15.952   9.012 -0.0003  0.0906  0.0904
16425W        W16625  12.250   4.534  11.494  0.1025  0.2158 -0.0624
16426W        W16626   1.760   1.057  12.624  0.0680  0.1755 -0.1040
16427W        W16627  16.068  11.631   9.469 -0.2499  0.3091 -0.2186
16428W        W16628  16.750   9.927   6.712  0.0113  0.0744 -0.0528
16429W        W16629  14.935   7.564  14.887 -0.3337  0.1357 -0.0095
16430W        W16630   4.379  11.104   7.835 -0.2359 -0.1024 -0.1055
16431W        W16631  13.107  10.556   8.976 -0.1904  0.1600 -0.1803
16432W        W16632  17.057  10.402  10.893 -0.1084 -0.2425 -0.1892
16433W        W16633  10.455   3.594  12.976 -0.4209  0.1033  0.2265
16434W        W16634  11.130  11.687   6.168  0.3445 -0.1108  0.2746
16435W        W16635  10.841  10.108   0.897 -0.0814 -0.0165  0.5605
16436W        W16636   7.793  17.893   4.222  0.1082  0.0852  0.0101
16437W        W16637   5.880  13.971   1.240  0.0174  0.1991 -0.3049
16438W        W16638   9.634   4.642   5.073  0.0073 -0.0464  0.2072
16439W        W16639   7.256  15.839  10.861  0.0376 -0.0322  0.0179
16440W        W16640   2.429   9.982  10.522 -0.0550 -0.1185 -0.1792
16441W        W16641   5.186   2.053   1.140 -0.0483  0.0712 -0.2079
16442W        W16642   6.457  15.280   0.019 -0.0694 -0.0959 -0.1628
16443W        W16643   2.453   4.821   1.288  0.2993 -0.2062 -0.2320
16444W        W16644  10.408   3.739  12.334 -0.2255  0.0867 -0.2243
16445W        W16645  10.860   0.207   5.181  0.0128  0.2270  0.0877
16446W        W16646   8.073   4.349  10.043 -0.1577  0.0929  0.1865
16447W        W16647  10.723  14.476   0.757 -0.1327  0.2672  0.0245
16448W        W16648   2.449   7.068   7.334 -0.0488 -0.3218 -0.2848
16449W        W16649   3.918  11.133  13.535  0.2266  0.3602 -0.1642
16450W        W16650  10.624  10.688   4.959 -0.0613 -0.2675 -0.1257
16451W        W16651   4.544  11.296   5.468  0.1012  0.0450 -0.0523
16452W        W16652   7.036  13.857   4.682 -0.0318 -0.2548 -0.1784
16453W        W16653   3.794  14.076  15.586 -0.2449 -0.0776 -0.0935
16454W        W16654   3.140  14.442   6.002  0.0283 -0.2197  0.1671
16455W        W16655   3.694  12.682   6.725 -0.1467 -0.2301  0.2321
16456W        W16656   9.763  16.658   4.132 -0.2652  0.2667 -0.5342
16457W        W16657   2.565  12.245  13.320  0.4356 -0.2951 -0.0786
16458W        W16658   9.810  13.272   5.316  0.0485 -0.1748  0.0931
16459W        W16659   2.463  15.623   7.075 -0.1234  0.0429 -0.0652
16460W        W16660   5.156   5.070   3.129  0.0648  0.1926 -0.0400
16461W        W16661  16.577  17.510   0.172 -0.0265 -0.1960  0.0754
16462W        W16662  16.004  13.759   2.042  0.1148 -0.0822  0.0995
16463W        W16663  17.832  13.928  11.821  0.1456  0.1271  0.1551
16464W        W16664  15.193  16.212   6.192 -0.0359  0.2181  0.0567
16465W        W16665   1.738  15.928   8.849 -0.1306 -0.2935  0.0971
16466W        W16666  11.038  12.581   3.666  0.4486 -0.1113 -0.0293
16467W        W16667  11.559   8.840   3.141 -0.2352  0.0655  0.1215
16468W        W16668   7.407  11.397  11.495  0.1147 -0.0131  0.0947
16469W        W16669  14.691   1.760  10.216  0.1007 -0.2806  0.1568
16470W        W16670   4.682  14.094   8.256  0.0350  0.1734  0.0540
16471W        W16671   6.284   0.027   6.700  0.1351 -0.1311 -0.0515
16472W        W16672   2.955  11.377   2.913  0.3818 -0.0677  0.0516
16473W        W16673  16.972  10.545   4.902  0.1109  0.0941 -0.0669
16474W        W16674   5.242   9.975   3.806 -0.3603 -0.0709 -0.0685
16475W        W16675  16.540   7.820  15.104 -0.0826  0.1269  0.0904
16476W        W16676   2.657  16.746  17.249 -0.1044 -0.3418 -0.3432
16477W        W16677   2.470  16.280   4.441 -0.1455  0.2276 -0.2462
16478W        W16678  13.499  10.692   9.338  0.1972 -0.0149 -0.0072
16479W        W16679   0.214   7.675   1.938 -0.1233 -0.2153  0.4497
16480W        W16680   7.315   8.246   0.219  0.0415  0.0090  0.0398
16481W        W16681   3.520  12.862   2.262 -0.0649 -0.0217  0.1896
16482W        W16682   6.162   6.161  11.007 -0.0352  0.1337 -0.2173
16483W        W16683   3.966  11.772   6.907 -0.0432 -0.1495 -0.2219
16484W        W16684   4.177  11.699  16.965 -0.2125 -0.3378 -0.0315
16485W        W16685  14.927  11.426   6.744 -0.1274 -0.0439 -0.1599
16486W        W16686  14.811  14.349   3.810 -0.0011  0.0154  0.1291
16487W        W16687   3.633  17.677  13.446 -0.0384 -0.3541 -0.1008
16488W        W16688   4.251   1.014   8.819 -0.2558 -0.0535 -0.1090
16489W        W16689  14.376  11.112   7.281  0.0090  0.0293  0.1618
16490W        W16690   5.006  14.024   3.961  0.1494 -0.1271 -0.0842
16491W        W16691  11.036  14.187   5.521 -0.1482 -0.1124  0.0664
16492W        W16692  10.344  16.158   0.518 -0.0214  0.1449  0.1094
16493W        W16693   3.669   3.843   0.791  0.1081  0.1985 -0.2773
16494W        W16694   7.157   8.757   5.840 -0.2789  0.0589 -0.1590
16495W        W16695   1.198   6.679  15.024 -0.0950 -0.3227 -0.2454
16496W        W16696   8.434  16.113   3.367 -0.0020  0.0431  0.2942
16497W        W16697   5.113  11.826  13.926 -0.0111  0.0257  0.0457
16498W        W16698   2.460  14.525  12.033  0.1497  0.0730 -0.0406
16499W        W16699  16.702   8.373  17.780  0.1374  0.0607 -0.0539
16500W        W16700   8.586   0.117   6.880  0.1152 -0.3286  0.1433
16501W        W16701   4.379   7.707   6.835  0.0509  0.0120 -0.0711
16502W        W16702   2.704   0.532   1.019 -0.1966 -0.1737  0.0096
16503W        W16703  13.568  10.850   8.782 -0.1305  0.1674 -0.0275
16504W        W16704   7.213  10.142   5.586  0.0194 -0.3235  0.3048
16505W        W16705   8.684  15.684   8.272 -0.2825  0.0573  0.2282
16506W        W16706   7.964  16.699   7.396 -0.0152 -0.2417 -0.0270
16507W        W16707   5.028   9.261   9.216  0.1076  0.1676 -0.0615
16508W        W16708   4.832  16.149   0.040 -0.0985 -0.2967 -0.0695
16509W        W16709   8.229   2.104  15.223  0.0481  0.0949  0.0320
16510W        W16710  18.204  13.474  16.331 -0.2040 -0.2052 -0.0683
16511W        W16711   0.252   5.565   3.122  0.0939  0.0084 -0.1358
16512W        W16712  14.566   7.077   1.400  0.0519 -0.4704  0.0503
16513W        W16713   6.574   7.140   4.861 -0.0311  0.1441 -0.2836
16514W        W16714   5.627   0.477   0.269 -0.2691 -0.1117 -0.0755
16515W        W16715   2.234  10.697   4.005 -0.1270  0.0463  0.2097
16516W        W16716   6.604   0.434  11.464  0.0118  0.1703  0.1454
16517W        W16717  12.929  12.992   8.424  0.2909 -0.0093 -0.0413
16518W        W16718   5.559  13.418   2.536  0.0756  0.1303  0.0600
16519W        W16719   7.205   6.318  13.024  0.0411 -0.3108 -0.0684
16520W        W16720   7.439   0.641  15.317 -0.1090 -0.1853  0.2667
16521W        W16721  17.911  13.911   8.613 -0.1989  0.3369  0.1196
16522W        W16722   3.037   8.399   1.390  0.2040  0.0359  0.1013
16523W        W16723  11.972   9.685  16.100 -0.0780  0.0365 -0.0640
16524W        W16724  12.546  13.985   4.491 -0.0033 -0.0985  0.0880
16525W        W16725   5.169  13.881  17.528 -0.2501  0.1320  0.1313
16526W        W16726  15.384  15.078  10.317 -0.1547 -0.1229 -0.1734
16527W        W16727   7.417  12.086   4.831  0.2470  0.2489 -0.0629
16528W        W16728  11.682   2.629  12.828 -0.1444 -0.0853  0.0875
16529W        W16729  12.964   6.749   5.510  0.0335  0.0661  0.3122
16530W        W16730  13.229  16.983  11.710  0.2933  0.3028 -0.4146
16531W        W16731   3.559   5.212   9.288 -0.2065 -0.0749 -0.0034
16532W        W16732  16.103  13.101  16.615 -0.0505  0.2741  0.1816
16533W        W16733   4.511  10.986   6.523  0.0907 -0.1254 -0.2255
16534W        W16734   1.540   6.338   3.637 -0.2877  0.2560  0.3286
16535W        W16735  17.897  10.628   2.069 -0.1051 -0.1439 -0.1499
16536W        W16736   7.817   9.120   1.925  0.0195 -0.1923  0.1189
16537W        W16737   4.868  10.617   0.845  0.4466  0.1153 -0.4857
16538W        W16738   5.004  14.242   0.852  0.0058  0.5004 -0.3077
16539W        W16739   5.521  15.489  16.867  0.0326 -0.3764  0.0502
16540W        W16740  11.616   0.688   0.193 -0.0288  0.0145  0.0855
16541W        W16741  13.356   8.445   8.209 -0.1118  0.2400  0.0832
16542W        W16742   8.003  16.110   4.675  0.4249  0.3292  0.4726
16543W        W16743   9.101  13.079  10.273 -0.0809 -0.0815  0.0632
16544W        W16744  11.098   9.002  10.312  0.1431 -0.0392 -0.0702
16545W        W16745   7.075  14.632  12.363 -0.1064 -0.2577 -0.2086
16546W        W16746   3.997   7.239  15.437  0.0835 -0.5406  0.2288
16547W        W16747   8.936  14.302   7.094  0.0544 -0.1062 -0.0646
16548W        W16748   3.367   0.069   9.437 -0.0339 -0.0805 -0.1396
16549W        W16749   4.588  16.444  11.149 -0.0260 -0.1002  0.1503
16550W        W16750   0.432  10.462   2.536 -0.2641  0.2426 -0.1378
16551W        W16751   7.908  13.373   6.906  0.0966  0.3662 -0.1795
16552W        W16752   7.792  16.948  11.958 -0.2936  0.1958 -0.1214
16553W        W16753   0.412  13.982   0.423  0.0174 -0.0468 -0.1078
16554W        W16754   2.380   8.468   3.390 -0.0810  0.2755 -0.2454
16555W        W16755   9.488  17.676   2.382  0.1781 -0.0136  0.1289
16556W        W16756   6.133  17.555   3.188 -0.0165 -0.2099  0.2128
16557W        W16757   0.491  15.768   1.931 -0.1061 -0.1561 -0.1282
16558W        W16758   1.327  13.984  16.698 -0.1393  0.2427 -0.0329
16559W        W16759   6.793   9.030   3.976 -0.1471 -0.2671 -0.2210
16560W        W16760   7.055   8.129  17.970 -0.0601  0.1249 -0.1442
16561W        W16761   5.572  14.675   8.530  0.3709  0.1933 -0.0973
16562W        W16762   7.714   5.748   7.034  0.0470  0.1648 -0.2404
16563W        W16763  16.977   5.529   5.853  0.0662  0.1143  0.2289
16564W        W16764  14.717  13.562   8.467  0.1351  0.0374  0.1594
16565W        W16765   8.414  10.813   0.652  0.3535 -0.2229 -0.1302
16566W        W16766  12.282   6.805   2.736 -0.0891 -0.1944  0.0383
16567W        W16767   5.326   2.430  12.838  0.1251 -0.1454 -0.1081
16568W        W16768  10.136  11.744   3.020 -0.1965  0.0336 -0.0221
16569W        W16769   8.096   0.061   6.957 -0.1553 -0.1741 -0.0290
16570W        W16770  17.082  13.532   6.484 -0.4296 -0.1365 -0.1245
16571W        W16771   8.344  12.537   0.304 -0.2396 -0.1195 -0.0604
16572W        W16772   7.866  13.332  12.864  0.0354  0.0989 -0.3047
16573W        W16773   3.839  12.380   6.288  0.0892  0.2526  0.0447
16574W        W16774  13.323  13.459   4.178  0.1859  0.4177 -0.0538
16575W        W16775   3.899   9.719   3.917  0.0291 -0.2268 -0.0100
16576W        W16776   8.367   6.316   8.790  0.2157 -0.0272  0.2600
16577W        W16777   9.229  15.008  16.702  0.0415 -0.0181 -0.1875
16578W        W16778   7.109  11.740   3.072 -0.2408 -0.0529 -0.3068
16579W        W16779   6.674  13.476  11.824  0.3581 -0.1551 -0.1090
16580W        W16780  15.838  17.919   6.391 -0.4503  0.1766  0.2088
16581W        W16781   6.765  15.869   2.396  0.3709  0.0421  0.2511
16582W        W16782   3.940  11.476   4.539 -0.1502  0.3447 -0.1259
16583W        W16783  15.241  11.712  12.786  0.0888  0.1742 -0.2086
16584W        W16784   4.229   3.391   0.498 -0.0606 -0.2585 -0.0012
16585W        W16785  13.524  12.489   8.813  0.0196  0.1492 -0.1947
16586W        W16786   9.713  17.545   5.332 -0.1689 -0.0405 -0.2620
16587W        W16787   1.607  13.684   1.088 -0.1104 -0.0371  0.2850
16588W        W16788   0.647   3.688   6.049  0.1049  0.1571  0.0363
16589W        W16789   7.448  12.239  17.363 -0.0217 -0.0655  0.0742
16590W        W16790   6.041  15.084  12.265 -0.1533 -0.2617 -0.1253
16591W        W16791   8.849  11.816   9.158 -0.1134 -0.0501 -0.0842
16592W        W16792   5.682   2.862   6.865  0.2848  0.0023  0.1387
16593W        W16793   2.404  13.604  15.607  0.0709  0.0563 -0.1489
16594W        W16794  15.059   2.495   3.242 -0.1348 -0.1355 -0.0891
16595W        W16795   8.606  14.017  16.610  0.2216 -0.1208  0.0265
16596W        W16796   6.290  17.537  15.827 -0.0109  0.0657  0.1863
16597W        W16797  10.445  13.707   5.097  0.0157 -0.1130 -0.2924
16598W        W16798   5.415  11.708   3.587  0.1989 -0.1089  0.0098
16599W        W16799   0.189  14.237   4.259 -0.0838  0.0731 -0.1829
16600W        W16800   5.887  10.179   3.359  0.0348  0.1084  0.2488
16601W        W16801   8.637   9.577   2.339 -0.2313 -0.0369  0.0685
16602W        W16802   5.267  11.964  17.027  0.1715 -0.1625  0.3449
16603W        W16803   8.848  11.831   1.032  0.0993 -0.2814 -0.0078
16604W        W16804   7.098   7.528   7.979 -0.0133  0.0057  0.2537
16605W        W16805   3.472  11.290  15.871 -0.1217 -0.2200  0.0618
16606W        W16806   5.213  11.426   2.731 -0.1723  0.2232 -0.1908
16607W        W16807   5.703  11.645   6.996 -0.0658 -0.1334 -0.0417
16608W        W16808  13.690  11.689   6.777  0.1880 -0.1122 -0.2019
16609W        W16809   5.297  10.805   4.401 -0.1604  0.3133  0.2258
16610W        W16810   6.084  14.791   9.730  0.2203 -0.1225  0.0377
16611W        W16811  12.349  15.940  14.489  0.3781  0.1138 -0.0175
16612W        W16812   3.444  17.015   3.211  0.0122 -0.0404 -0.1100
16613W        W16813  12.576   5.611   8.044  0.2210 -0.2585 -0.0230
16614W        W16814   4.033   1.405   1.561 -0.2971 -0.0120 -0.1700
16615W        W16815   7.603  15.507   4.859 -0.3155 -0.1294 -0.1525
16616W        W16816  12.260   3.905   1.693 -0.2035  0.3921 -0.0496
16617W        W16817   0.281  11.458  17.775  0.2373 -0.0246  0.0680
16618W        W16818   3.980  15.254   3.187  0.2144  0.3767 -0.3561
16619W        W16819   2.256  13.073   4.194  0.4140  0.1944 -0.1677
16620W        W16820   4.504  14.079   3.875 -0.1151 -0.0986 -0.2489
16621W        W16821   8.651   7.363   3.919 -0.0537 -0.2909  0.0600
16622W        W16822   0.645  17.186  16.974 -0.0777 -0.0252 -0.2206
16623W        W16823  12.745  11.808   6.725 -0.1357  0.0677  0.1130
16624W        W16824   8.994  14.985   3.985 -0.2975 -0.3183  0.1521
16625W        W16825   9.194   6.495  15.924 -0.1661 -0.1744  0.2872
16626W        W16826  14.091  15.671   0.189 -0.1224  0.0990  0.0595
16627W        W16827   7.483  14.132  16.073 -0.0949 -0.0270 -0.1268
16628W        W16828   1.443  14.855   8.874  0.0114  0.0009 -0.1521
16629W        W16829   3.673  17.313   6.725  0.1962  0.1706 -0.1875
16630W        W16830   5.668   8.894  10.992 -0.3157  0.2946  0.0884
16631W        W16831   8.125   3.776   9.895  0.0283  0.0170 -0.0034
16632W        W16832  16.019  17.677   3.750  0.0954  0.1559  0.1355
16633W        W16833   3.521  11.694   8.528  0.0414 -0.4025 -0.0424
16634W        W16834   6.062   0.647  16.907  0.1378  0.0544  0.1991
16635W        W16835  10.529  12.997   4.439  0.2371 -0.0959  0.5330
16636W        W16836   2.312   8.181  15.211 -0.0528  0.1323  0.0613
16637W        W16837   9.790  11.405   4.204 -0.0638  0.0919 -0.0524
16638W        W16838   4.435  13.980   9.890  0.1150 -0.1471  0.1160
16639W        W16839   4.228   1.587  12.560  0.0166 -0.0258 -0.3298
16640W        W16840   0.020  13.087   7.587  0.0041 -0.1311 -0.1063
16641W        W16841  14.308   9.539   3.499  0.1784  0.0439  0.1611
16642W        W16842   4.235   9.048   8.163  0.1790 -0.1784  0.2628
16643W        W16843   4.782  11.961   5.946  0.0313  0.1413  0.0415
16644W        W16844  16.026  13.334   6.713  0.0123  0.1687  0.3810
16645W        W16845   3.925  12.519   4.466  0.1090 -0.1126  0.1954
16646W        W16846   4.657   9.730  17.451 -0.4258  0.0690  0.0316
16647W        W16847   4.193   4.278   5.665 -0.0614  0.1544 -0.1691
16648W        W16848   7.516  10.377  13.200 -0.0311  0.1017 -0.0216
16649W        W16849   5.931   9.983  12.464  0.1083  0.0757  0.1113
16650W        W16850   3.765   1.955   8.455  0.2261 -0.0589  0.1438
16651W        W16851   6.291   8.859  16.823 -0.1050  0.2845  0.0001
16652W        W16852  10.479  17.819   6.199  0.2122 -0.1216 -0.1479
16653W        W16853   6.540  14.936   2.623  0.0419 -0.3393  0.0628
16654W        W16854   3.633   6.318  16.867  0.2530  0.0723 -0.3508
16655W        W16855  14.910  13.229   9.919 -0.2126 -0.0138 -0.1787
16656W        W16856  11.131  12.692   6.858 -0.0349  0.2509  0.1633
16657W        W16857   5.760  13.106   3.928 -0.1979 -0.3733 -0.1203
16658W        W16858   6.730  15.418   4.332 -0.0823  0.3680  0.0424
16659W        W16859   9.964  11.680   7.118 -0.0830  0.1266  0.0325
16660W        W16860   2.689  16.163  16.142  0.1370 -0.1700 -0.3880
16661W        W16861   5.257   7.483   2.062  0.4530 -0.1229 -0.1061
16662W        W16862  17.125  12.914  10.764 -0.1538 -0.1333  0.0492
16663W        W16863  17.375  13.361  10.955  0.2528 -0.1215  0.1693
16664W        W16864   0.831  10.023   8.281  0.1886  0.1895  0.2017
16665W        W16865   3.349   8.316   2.932  0.1308  0.1511  0.0475
16666W        W16866   6.048   9.387  16.181 -0.1010  0.0737  0.0281
16667W        W16867   5.293   9.729   1.645  0.0438 -0.0439  0.4683
16668W        W16868   4.362   5.577   6.093  0.1550 -0.2444  0.0674
16669W        W16869   4.548   9.022   1.796 -0.0155 -0.2260 -0.1146
16670W        W16870   6.366  11.130   2.655  0.0929  0.1481 -0.3460
16671W        W16871  17.285  15.200   5.374  0.0938 -0.0716  0.0287
16672W        W16872   4.040   1.595   4.799 -0.0065  0.1123 -0.1505
16673W        W16873   8.530   6.778   6.958  0.1057 -0.0624  0.3323
16674W        W16874   7.098   2.756   9.238  0.0884  0.0819  0.0000
16675W        W16875  11.956   5.525  16.778 -0.1375 -0.0456  0.0931
16676W        W16876   5.798  10.755  17.732 -0.4288  0.2105 -0.1401
16677W        W16877   5.855  16.840   0.661  0.0383  0.2070 -0.0422
16678W        W16878  11.147   8.233   1.614 -0.1843 -0.0293 -0.0546
16679W        W16879   7.078  15.506   0.680  0.3060 -0.2456  0.0088
16680W        W16880   8.053  15.999   0.221  0.1968 -0.2063  0.0693
16681W        W16881   9.521   9.133   6.006 -0.1120 -0.1772 -0.0294
16682W        W16882   3.427  11.459   2.746  0.1055 -0.0606 -0.2445
16683W        W16883  10.989   0.920   4.570  0.0337 -0.2394  0.1719
16684W        W16884   5.286  16.309   6.560 -0.0232  0.0941 -0.3665
16685W        W16885   1.891   2.946   6.088  0.3273  0.0985  0.1060
16686W        W16886   7.256  10.132   4.700  0.0193  0.0110 -0.3030
16687W        W16887   7.173   2.291  18.199 -0.2944 -0.0952  0.0171
16688W        W16888   9.681   8.837  17.332  0.0660 -0.2436  0.0154
16689W        W16889  16.107   7.730   5.223  0.3874 -0.2372  0.2069
16690W        W16890   7.701  14.407   2.372 -0.2046  0.0311 -0.0566
16691W        W16891  13.797  11.507   9.480  0.2787  0.1098 -0.3529
16692W        W16892   3.940  15.552   1.105 -0.3273 -0.1069  0.1236
16693W        W16893   3.392   8.683   1.228 -0.1358 -0.0840 -0.0114
16694W        W16894  13.880  17.889   6.762 -0.0239 -0.1870  0.3654
16695W        W16895   4.810  14.310   6.342 -0.0429 -0.1751  0.2901
16696W        W16896   1.971  16.916   3.910  0.1651  0.0754 -0.1825
16697W        W16897   3.814  12.039  13.474  0.2886 -0.1516 -0.1307
16698W        W16898   4.500  12.714   7.813 -0.0799  0.0508 -0.2267
16699W        W16899   6.467  15.028   6.051  0.0106  0.3153 -0.1058
16700W        W16900   1.660   3.447  17.901 -0.0798 -0.0279  0.1911
16701W        W16901   9.109   8.212   4.009  0.2420  0.0023 -0.0089
16702W        W16902   5.481   8.461   6.306  0.2123 -0.0555 -0.1122
16703W        W16903   6.532   2.729   0.945 -0.2304  0.1216  0.1113
16704W        W16904  17.661   3.969   4.686  0.0144  0.1006 -0.0721
16705W        W16905   4.624   6.579   4.123 -0.1305  0.1124 -0.0339
16706W        W16906   9.449  17.724   7.103  0.1996  0.1309 -0.0476
16707W        W16907   6.857  14.093   5.576  0.1807  0.3099 -0.2792
16708W        W16908  10.008  17.933   6.230  0.0416  0.0360  0.0037
16709W        W16909   5.817  11.034   7.704  0.1152 -0.0507 -0.3104
16710W        W16910  15.682   0.476   2.077  0.0187 -0.0184 -0.1813
16711W        W16911   5.226  12.885   2.166  0.0968 -0.1070 -0.0642
16712W        W16912  10.863   1.834   4.103  0.1898  0.1666  0.1178
16713W        W16913   5.129  13.141   4.652  0.0806  0.0441  0.0965
16714W        W16914  13.834   8.143   0.439  0.1290 -0.2003  0.0723
16715W        W16915   5.880   9.775   6.740  0.1830  0.0157  0.0210
16716W        W16916   0.202   0.851   0.854 -0.0093  0.0393 -0.0846
16717W        W16917   3.272  14.506   2.185  0.1723  0.4292 -0.0500
16718W        W16918   3.801  14.338   3.523  0.4362 -0.0348 -0.4812
16719W        W16919   7.544   5.542  12.227 -0.1420  0.3619 -0.0084
16720W        W16920   2.518   9.245   8.166  0.0649  0.1237  0.0904
16721W        W16921  12.542  16.496  13.324  0.0329 -0.0596  0.0583
16722W        W16922   5.475  12.638   6.629  0.2064 -0.3297  0.1225
16723W        W16923  10.258   4.687   3.071 -0.0277 -0.0108 -0.2568
16724W        W16924   7.012   3.003   4.493  0.0840 -0.0501 -0.0799
16725W        W16925   8.587  16.956  13.052  0.2794  0.0022 -0.2995
16726W        W16926  17.675   9.249  10.146  0.0206  0.1748  0.0285
16727W        W16927  11.283  13.471   5.583  0.2635  0.1339  0.0768
16728W        W16928   2.478  10.869  13.754  0.0257  0.1044  0.0059
16729W        W16929  11.462   7.336   5.858  0.1958  0.0502  0.0239
16730W        W16930   8.207  12.876   1.604  0.0320 -0.0372 -0.1200
16731W        W16931   7.506  18.042   7.119 -0.0355 -0.0121  0.2183
16732W        W16932   2.471  12.503   7.423  0.0241  0.2111  0.2311
16733W        W16933   5.199   2.914  12.684 -0.1766  0.0020  0.2753
16734W        W16934   4.200  11.626  10.160  0.2397  0.0446 -0.3079
16735W        W16935   5.207  16.901   0.555  0.2456 -0.0270 -0.0156
16736W        W16936   8.285  13.236   3.849  0.1553  0.1535  0.1246
16737W        W16937   8.881  13.478  10.090  0.1040  0.0313 -0.3545
16738W        W16938   0.120  17.644   3.483  0.1239 -0.3302 -0.0001
16739W        W16939   7.253  13.411  17.973 -0.0711  0.1065 -0.0727
16740W        W16940   8.724  14.808   1.867  0.2303  0.0807 -0.0702
16741W        W16941   8.703  17.960   5.274 -0.1250 -0.0651 -0.0287
16742W        W16942  16.768   4.261  12.681 -0.1716  0.2505  0.0197
16743W        W16943  11.271  17.739   6.661 -0.2961 -0.1315  0.0187
16744W        W16944   4.640  11.125   7.388 -0.2338 -0.2403 -0.0204
16745W        W16945  16.763  18.083  16.502 -0.2785 -0.1103  0.0197
16746W        W16946   3.567  15.219   5.304  0.2042  0.0462  0.4320
16747W        W16947  12.246  15.216  10.028 -0.2947  0.0558 -0.1808
16748W        W16948   5.679  15.230   9.328  0.1171 -0.0734  0.0843
16749W        W16949  11.640   5.409  10.355 -0.2643 -0.2705  0.0201
16750W        W16950  14.772   3.488   2.598 -0.1348  0.2056  0.1246
16751W        W16951   5.957  15.432  18.116 -0.0686 -0.4124  0.0339
16752W        W16952  17.014  17.787   6.831  0.0151 -0.2396  0.0108
16753W        W16953   4.127   9.732   5.456  0.1127  0.1320 -0.0697
16754W        W16954   2.208  12.808  16.604  0.0472 -0.1089  0.1565
16755W        W16955   0.464  12.351   8.909  0.2295  0.1142 -0.1773
16756W        W16956  15.913  15.807  16.906  0.0278  0.0015 -0.1461
16757W        W16957   4.552   6.549   8.292 -0.0556  0.1247 -0.2437
16758W        W16958   2.385  12.403   6.257  0.1649  0.1102  0.4079
16759W        W16959   2.022  13.331  17.728 -0.0233 -0.2497 -0.0483
16760W        W16960   1.273  17.097   1.254  0.0930  0.2135  0.1102
16761W        W16961   8.038   2.116  10.957  0.1459  0.0371 -0.0693
16762W        W16962   3.789   3.555   8.146  0.0142  0.0250 -0.1240
16763W        W16963  13.276   4.597   9.769  0.1929  0.1864  0.1463
16764W        W16964   2.116  17.342   6.017 -0.0093 -0.3106  0.0232
16765W        W16965   6.533   7.127  11.776  0.4421  0.0056 -0.0520
16766W        W16966  17.863  17.383  16.807  0.1047  0.1791 -0.1560
16767W        W16967   1.246   4.594  15.091  0.1705  0.0454  0.0310
16768W        W16968  14.816  16.407   2.881 -0.3434  0.1862  0.2247
16769W        W16969   5.343  15.126   3.957  0.0238  0.0174 -0.0206
16770W        W16970  16.835   2.496   8.056  0.3262 -0.0215  0.1297
16771W        W16971   4.141   0.873   2.428 -0.1293  0.0559 -0.0246
16772W        W16972  12.927  14.935   6.600 -0.2438 -0.0011 -0.3142
16773W        W16973   5.939  13.875   6.181  0.2596 -0.0141  0.0391
16774W        W16974   2.022   3.829  10.502 -0.2954  0.0227  0.0127
16775W        W16975   0.534  13.484   2.070 -0.0562  0.0935 -0.0426
16776W        W16976   2.275  14.284   7.559 -0.0287 -0.1654  0.1828
16777W        W16977  13.616   0.305  13.946 -0.2368 -0.0834 -0.0097
16778W        W16978   5.206   5.823   6.177 -0.0330 -0.0311  0.0319
16779W        W16979   1.623  16.452   7.646 -0.0669 -0.0951 -0.0761
16780W        W16980   6.034  14.602   2.294  0.1648 -0.0342 -0.1492
16781W        W16981   5.194  13.304   2.982 -0.5667 -0.2891  0.1096
16782W        W16982   6.124  12.397  14.824 -0.1394  0.1931 -0.1980
16783W        W16983   9.123  11.152   1.819  0.0329 -0.2702 -0.1128
16784W        W16984   7.865   2.489   7.382  0.0687  0.0423  0.0064
16785W        W16985  17.932  15.053   3.679  0.2238 -0.0150  0.1026
16786W        W16986   6.997   2.748   4.054  0.2394  0.1106  0.0178
16787W        W16987   2.524   8.000  10.155  0.1002  0.1459  0.1553
16788W        W16988   7.431  15.606  12.118  0.1222 -0.2063  0.2349
16789W        W16989  16.829  14.465   1.546 -0.0042 -0.0150 -0.1450
16790W        W16990   6.754   7.815   4.691 -0.0633 -0.1205 -0.1518
16791W        W16991   8.905   8.740   4.675 -0.1884 -0.0658 -0.1415
16792W        W16992   6.134  15.266   3.477 -0.1711  0.0104 -0.2764
16793W        W16993  15.159   3.948   5.072 -0.0454 -0.2210 -0.0212
16794W        W16994   8.929  15.460  10.605 -0.0093  0.1105 -0.0934
16795W        W16995   5.414   0.912  10.649  0.1998 -0.0474 -0.1491
16796W        W16996   3.165   8.602   7.531 -0.1010 -0.0734  0.1421
16797W        W16997   0.689  10.727  10.419  0.1075 -0.2210  0.1113
16798W        W16998   9.007  17.691  14.043 -0.0632  0.0081 -0.2025
16799W        W16999  12.804   5.057   6.392  0.1356  0.2045 -0.1210
16800W        W17000   6.144   0.496   7.538  0.0166  0.3429 -0.3397
16801W        W17001   9.093  16.048   0.899  0.1201 -0.2444 -0.0614
16802W        W17002  13.261   2.764   7.484  0.1735 -0.3686  0.0005
16803W        W17003   5.107  15.269  13.398 -0.1013  0.0186  0.0688
16804W        W17004   3.913  13.042   7.090  0.2148  0.1081 -0.1512
16805W        W17005   2.767  15.940   0.819  0.0761  0.0766  0.2380
16806W        W17006   7.877   8.712   6.266 -0.1245 -0.2057 -0.1230
16807W        W17007   3.365   1.324   7.109 -0.0367  0.1336  0.3800
16808W        W17008   8.247  11.754   3.283 -0.1385  0.3496  0.4153
16809W        W17009  15.916   5.370   7.406 -0.0472 -0.2402 -0.0752
16810W        W17010  13.225   9.926   7.570 -0.0891 -0.1591  0.1700
16811W        W17011   7.742  13.042   0.986  0.0949  0.2375 -0.1328
16812W        W17012   3.339   9.469   4.696 -0.0379  0.1024  0.0353
16813W        W17013   7.468  16.408   2.047  0.1163 -0.1515  0.1488
16814W        W17014   3.386  14.327   9.652  0.2418  0.5148  0.3156
16815W        W17015  14.069   3.952   0.653  0.1884  0.0857  0.2392
16816W        W17016   3.516  11.105  14.317  0.2374  0.1707  0.1255
16817W        W17017   6.158  13.746  16.853 -0.0792 -0.3414  0.1486
16818W        W17018  16.596  11.000  10.555  0.2401  0.0067  0.6570
16819W        W17019   9.379   4.001  10.249  0.1440 -0.0037  0.1260
16820W        W17020  17.264  17.387   6.945  0.1868 -0.0495  0.0290
16821W        W17021  10.896   4.339  14.948 -0.2443 -0.3473  0.0860
16822W        W17022  16.525  10.554   8.530  0.1253  0.2315 -0.0318
16823W        W17023   3.318   9.677   9.947 -0.2497  0.3662 -0.1034
16824W        W17024  11.987  10.960   4.003  0.1132 -0.0719  0.0932
16825W        W17025   3.119  11.073  10.065 -0.1939 -0.0223 -0.0300
16826W        W17026  12.893   9.867  17.739  0.0563  0.2330 -0.0611
16827W        W17027   0.139   6.699  11.920  0.1270 -0.0806  0.0145
16828W        W17028  11.185   9.141  14.067 -0.2276 -0.1303 -0.1657
16829W        W17029   5.942   9.861   7.542 -0.0893  0.1847  0.2734
16830W        W17030   3.228  17.465  15.560 -0.2505  0.0160 -0.2719
16831W        W17031   4.938   1.271   7.964  0.1305  0.1412  0.0880
16832W        W17032   1.291  13.898  12.461  0.2339 -0.0004 -0.2278
16833W        W17033   1.411   0.027   0.723 -0.1402  0.0755 -0.0691
16834W        W17034   0.429  10.866  11.773  0.2608 -0.1143 -0.0719
16835W        W17035   8.806   0.329  13.850 -0.2107 -0.5409 -0.0680
16836W        W17036   5.940   8.514   6.747  0.1131  0.1393  0.1657
16837W        W17037   6.205   9.563   8.717  0.0176  0.1048 -0.0510
16838W        W17038   0.751  14.751   0.090  0.0186  0.0930  0.2847
16839W        W17039  16.893   3.804   8.769 -0.1960  0.0607  0.0138
16840W        W17040   4.471   0.674   9.967  0.1609 -0.2409 -0.4153
16841W        W17041   8.191   8.106   8.178  0.2304 -0.2467 -0.1654
16842W        W17042   2.086  15.660  11.822  0.0673  0.1951  0.1259
16843W        W17043  11.800  13.398  13.446  0.0570 -0.1705  0.2552
16844W        W17044   6.368  14.739   8.007  0.1968 -0.1936 -0.0639
16845W        W17045   2.860  13.569  10.757 -0.0509 -0.3456 -0.0617
16846W        W17046  17.166  12.643  17.051 -0.2275 -0.1700  0.0976
16847W        W17047   4.831  15.107   3.127  0.0468 -0.1497  0.0112
16848W        W17048  10.128  14.994   7.312 -0.1361  0.1546  0.2559
16849W        W17049  16.262  13.022  12.354  0.1641 -0.0195 -0.0241
16850W        W17050   8.470   8.413   8.860  0.1409 -0.0038 -0.0882
16851W        W17051   2.720  12.588   7.886  0.0138  0.0590  0.0112
16852W        W17052  14.233  16.965   7.226  0.2988 -0.0101 -0.0141
16853W        W17053   1.713   7.073  11.957 -0.2331  0.0185 -0.3312
16854W        W17054   1.955  14.879   7.980  0.2879 -0.1101  0.1651
16855W        W17055  15.265   5.495   9.147 -0.3211  0.2390 -0.2774
16856W        W17056  11.874   4.130  15.975  0.1105  0.1503 -0.3968
16857W        W17057   2.372   3.652  12.900  0.0195 -0.0685  0.1337
16858W        W17058   8.325  17.069   6.439  0.4865  0.1257 -0.2463
16859W        W17059   9.524   9.402  16.596  0.0023 -0.3225 -0.3697
16860W        W17060  10.476   8.231   7.949 -0.0436  0.2472  0.1544
16861W        W17061   2.409   0.712   6.243  0.0113 -0.1588 -0.1510
16862W        W17062  12.006  14.198   0.167  0.0173  0.0288 -0.1527
16863W        W17063   3.928   8.433   9.328 -0.1868  0.0583  0.1741
16864W        W17064  11.105  11.536   8.028 -0.4314  0.2411  0.1738
16865W        W17065   4.090  11.697  14.904  0.0704  0.1006  0.2641
16866W        W17066   4.302  12.708   3.900 -0.2371  0.0840 -0.0246
16867W        W17067   5.127   2.984   6.114  0.3499 -0.0968  0.1974
16868W        W17068  10.548   3.930  14.833 -0.0589  0.0095 -0.0221
16869W        W17069   5.816   9.222  14.514 -0.0881 -0.5999 -0.2399
16870W        W17070  16.213  12.283   8.550  0.3060  0.2891 -0.3673
16871W        W17071  11.087  12.073   1.308  0.0037 -0.0202 -0.0669
16872W        W17072  16.881  13.543   7.075 -0.0896 -0.3769  0.1363
16873W        W17073   5.804  16.144   8.364 -0.1635 -0.2153  0.1346
16874W        W17074   9.355  17.753   8.966  0.1269  0.0551  0.2883
16875W        W17075   4.554  16.767   7.883  0.1951 -0.0921  0.2508
16876W        W17076   8.351  10.555   1.581 -0.0576  0.0243 -0.1997
16877W        W17077  10.435  10.799  15.019 -0.2097 -0.1731 -0.0178
16878W        W17078  10.289  13.364   0.926 -0.2511  0.2727  0.0415
16879W        W17079   5.087  15.743   6.322 -0.0771  0.2145  0.0196
16880W        W17080  17.720   4.942   5.745 -0.0644  0.1120  0.2542
16881W        W17081   2.023  12.536   9.828  0.0912  0.1873  0.2293
16882W        W17082   1.453   8.162  13.507  0.0012  0.1304 -0.1284
16883W        W17083   0.334  17.636   2.988  0.0246 -0.0632 -0.1979
16884W        W17084  16.110  10.277   3.619  0.1317 -0.2888 -0.0491
16885W        W17085  11.660   5.723  12.180  0.0628  0.3021 -0.0585
16886W        W17086   4.927   7.610   7.863 -0.0599  0.2173 -0.0852
16887W        W17087   8.492  14.424   7.134  0.0059  0.1025  0.4280
16888W        W17088  13.317  14.993  13.114 -0.1742 -0.0767 -0.2585
16889W        W17089  10.176  13.696   7.312  0.2128 -0.0388  0.4779
16890W        W17090  15.496   6.031   7.846 -0.1757  0.0109  0.2279
16891W        W17091   6.401  17.907  16.770  0.0529 -0.1385 -0.0534
16892W        W17092  12.794  13.750  10.854  0.4398 -0.2211  0.1651
16893W        W17093  14.787  15.630   9.385 -0.0587  0.2113 -0.1141
16894W        W17094  14.846  10.865   5.804 -0.0405  0.0240  0.2682
16895W        W17095   7.241  16.250   7.227 -0.0169  0.0223  0.2457
16896W        W17096   5.509   7.520  10.600  0.2446  0.1225  0.0756
16897W        W17097   5.922  16.665  10.768 -0.0860  0.0385  0.2359
16898W        W17098   1.395  12.286   6.333 -0.4027  0.3671 -0.0283
16899W        W17099   2.391  17.029   6.326 -0.0349 -0.1368  0.0915
16900W        W17100   7.687  12.460   9.125 -0.0188 -0.2034 -0.0736
16901W        W17101   3.167  16.406   8.120 -0.1237  0.0128 -0.3561
16902W        W17102  17.955   3.904   9.490 -0.0594  0.0303  0.0102
16903W        W17103   1.603  11.093   5.051 -0.0370  0.2055  0.0429
16904W        W17104   7.367  10.698   9.432  0.1659 -0.0644 -0.0460
16905W        W17105   2.658  14.956  14.289 -0.0500  0.0862  0.2781
16906W        W17106   0.936  13.407  12.300  0.0143  0.1062  0.3249
16907W        W17107   3.858   3.708   7.665  0.2024  0.0692  0.0821
16908W        W17108   4.861  15.720  13.267  0.0273  0.1221 -0.1354
16909W        W17109   6.907   9.310   3.402  0.2389  0.0169  0.4027
16910W        W17110   2.549  16.653  11.801  0.1391 -0.3837  0.0147
16911W        W17111  17.267  12.040  12.857 -0.1156  0.1566 -0.1429
16912W        W17112   8.548   4.303   5.210 -0.2510  0.0272 -0.0224
16913W        W17113   7.879   2.549  11.096  0.2263  0.1939 -0.2775
16914W        W17114   4.533  11.642   9.505 -0.0690 -0.0182  0.1269
16915W        W17115   4.590  15.173  18.202 -0.1779 -0.1089 -0.0517
16916W        W17116   1.658   8.284   8.284 -0.0679 -0.0565  0.1575
16917W        W17117   6.947  15.041  16.981  0.1994 -0.0895 -0.2282
16918W        W17118   1.469  11.746   5.320 -0.1501 -0.3590  0.1802
16919W        W17119  12.781   7.679   5.542  0.2061  0.2074  0.3166
16920W        W17120   8.887   9.429   6.422 -0.3519 -0.0205  0.3669
16921W        W17121  10.030  15.473  13.620 -0.0543  0.4201  0.2538
16922W        W17122   2.341  15.328   5.638 -0.1724 -0.1775 -0.3403
16923W        W17123  11.827   1.454   5.017 -0.0393 -0.1363  0.1614
16924W        W17124  12.602   9.852  12.114 -0.0319 -0.2531  0.2173
16925W        W17125  11.836  13.140   6.113  0.3065 -0.1257  0.0104
16926W        W17126   9.131  18.098   6.870  0.0519 -0.0246  0.3001
16927W        W17127   2.303  13.028  12.191  0.3375 -0.0435 -0.0914
16928W        W17128  15.030   2.506   9.857  0.1834 -0.1096  0.1169
16929W        W17129   1.183   7.667  14.414 -0.3903  0.2925  0.1244
16930W        W17130  15.557  12.484  15.490  0.1734  0.0385  0.2201
16931W        W17131   7.331  10.968  14.267 -0.0083  0.3102 -0.1213
16932W        W17132   4.095   4.773   6.876  0.2816 -0.0090  0.0374
16933W        W17133   3.433   8.274  13.513 -0.1448 -0.3150 -0.0744
16934W        W17134   8.999   7.167   2.871 -0.0958  0.2408 -0.0449
16935W        W17135   2.018  13.878   5.947  0.0341 -0.0786  0.1970
16936W        W17136   6.927  14.880  10.141 -0.0851  0.1559  0.0361
16937W        W17137  15.609  11.291  11.052  0.0272 -0.3376  0.1539
16938W        W17138  16.075   6.659   5.830  0.0897  0.0838  0.3184
16939W        W17139   7.031  13.024   9.318 -0.0801 -0.0595 -0.3605
16940W        W17140  12.359  14.447   6.966  0.1459  0.0024 -0.4278
16941W        W17141   2.148  12.389  11.331 -0.2616  0.0392 -0.1290
16942W        W17142   4.280   3.858   1.479 -0.1484  0.0512 -0.2263
16943W        W17143  17.498  16.874   7.161  0.1447  0.6100  0.1460
16944W        W17144  17.062   6.991   1.380  0.1676 -0.1239 -0.3443
16945W        W17145  10.852  15.108  12.204 -0.5014 -0.0792 -0.2308
16946W        W17146   8.880   0.132  13.355  0.1704 -0.2696  0.1368
16947W        W17147  10.672   9.287  14.097  0.0145  0.3845  0.1675
16948W        W17148   5.143   9.975  13.991 -0.1171  0.1247 -0.3103
16949W        W17149   5.231   4.167   6.587 -0.0372 -0.0287  0.0252
16950W        W17150   5.272  13.840   5.532  0.0063  0.0986 -0.0647
16951W        W17151   9.756   0.703   8.029 -0.0919 -0.1844 -0.0525
16952W        W17152   8.642   5.897   5.997  0.1191  0.4008  0.4100
16953W        W17153   5.532  15.958   9.505  0.0530 -0.0712  0.2267
16954W        W17154  10.633  11.766  14.019  0.0956 -0.2737  0.0688
16955W        W17155   7.496  11.955  14.477  0.1322 -0.1464 -0.3786
16956W        W17156  15.756   9.153   7.551 -0.0276  0.0587 -0.0424
16957W        W17157   3.215  17.427  14.060 -0.0259 -0.1133 -0.4382
16958W        W17158   5.929   4.663  10.069 -0.0607 -0.2573  0.1432
16959W        W17159   4.375  14.550   9.861  0.2697  0.0556  0.1458
16960W        W17160   3.077  12.242  11.411  0.3979  0.0869  0.5036
16961W        W17161  12.585  17.200  13.939  0.2515  0.2503 -0.0769
16962W        W17162   7.231  14.914   6.614 -0.1440  0.0454  0.1039
16963W        W17163  10.000   8.032  10.939 -0.1855 -0.0544  0.1545
16964W        W17164   0.098  15.017   9.512  0.1137  0.0347 -0.0050
16965W        W17165   3.463  16.474   6.324  0.2931 -0.3093  0.1960
16966W        W17166   8.442   5.022   9.703 -0.3296 -0.2738  0.3269
16967W        W17167  10.691   2.872   8.686  0.0143 -0.5682  0.0521
16968W        W17168   0.192   1.474   9.792 -0.0087 -0.2431  0.1159
16969W        W17169   7.775   4.497   6.643  0.0602  0.1332  0.0966
16970W        W17170   5.691   5.661  10.436 -0.2460  0.0381 -0.4108
16971W        W17171   3.346  15.445   4.788 -0.1457  0.2725  0.1087
16972W        W17172   2.262  12.584   2.364  0.1192  0.1014 -0.1044
16973W        W17173   9.153  11.418   7.343 -0.4012  0.0719  0.2178
16974W        W17174   9.133  12.797   7.818  0.2079 -0.0066 -0.6145
16975W        W17175   7.221   0.369   2.973  0.1791 -0.1981  0.3244
16976W        W17176   6.273  12.411  15.661 -0.3045 -0.2039  0.0712
16977W        W17177  16.078  16.016  15.849  0.0098  0.2190  0.1180
16978W        W17178   1.898   2.091   6.079 -0.0346 -0.0869  0.2873
16979W        W17179  17.475   6.140   6.920 -0.0168 -0.3852 -0.5817
16980W        W17180   4.579   7.948  15.386 -0.3664 -0.0559 -0.0973
16981W        W17181  15.490  16.194   6.765  0.3517 -0.3733  0.0044
16982W        W17182   0.792   7.239   8.998  0.0944 -0.0954 -0.2325
16983W        W17183   5.218  14.758   7.787 -0.1575 -0.0753 -0.2995
16984W        W17184   5.257   2.935  13.209 -0.0902  0.2310  0.0418
16985W        W17185   6.221  12.871   1.353 -0.0989  0.1420 -0.4464
16986W        W17186  17.373  14.034  14.627 -0.0325 -0.2078  0.1961
16987W        W17187  10.628   3.452   5.586  0.1192 -0.0496  0.0591
16988W        W17188   8.549   2.629   9.923  0.3928  0.1578 -0.4415
16989W        W17189   4.324  14.519   4.041 -0.0508  0.0820  0.4039
16990W        W17190   7.496  14.636   2.767  0.3385  0.4957  0.2811
16991W        W17191  14.934  16.078   8.670 -0.2594  0.1233  0.3024
16992W        W17192   8.920  15.118   2.750  0.2983  0.1637 -0.3248
16993W        W17193  15.843  17.521  11.548  0.2476  0.1790 -0.1680
16994W        W17194   6.412  11.276  13.363 -0.1329  0.2379  0.0206
16995W        W17195  10.129   8.509  10.862 -0.0155 -0.0962  0.2541
16996W        W17196   1.444  12.233  12.388  0.3386  0.0018  0.0531
16997W        W17197   0.598  10.367   9.470  0.0971 -0.2478 -0.1029
16998W        W17198  10.001  17.722   9.879  0.1831 -0.1103  0.1779
16999W        W17199   6.352   9.493  15.320  0.2079  0.2748 -0.1966
17000W        W17200   6.463  11.030  17.857 -0.1615 -0.1478 -0.4811
17001W        W17201   5.841  10.636   6.887  0.3040  0.2552  0.0311
17002W        W17202   7.066  16.360  10.220 -0.2658 -0.1222  0.0212
17003W        W17203   3.588   7.576  15.676  0.2065 -0.2446 -0.0562
17004W        W17204   9.425  12.853   7.360 -0.2567  0.3226  0.0280
17005W        W17205   5.754  17.873   2.912  0.1981  0.1185 -0.0092
17006W        W17206   6.700   5.222   5.841 -0.1839 -0.0756  0.1253
17007W        W17207   6.686   9.435   6.534  0.0225  0.1001 -0.0942
17008W        W17208   3.594   1.681   9.244  0.1856  0.0193  0.0340
17009W        W17209   8.012  12.521   9.499 -0.0057  0.1674 -0.0699
17010W        W17210   6.032  11.911  10.332 -0.2826 -0.0973 -0.2535
17011W        W17211   7.573   7.268   2.133 -0.2277  0.4368  0.0760
17012W        W17212   8.890  11.613   0.401 -0.0440  0.3080  0.3589
17013W        W17213   0.513  10.902   2.904  0.2135 -0.0874  0.3116
17014W        W17214   2.342  10.332   8.213 -0.0418  0.1418  0.2366
17015W        W17215   1.321   2.990   5.373 -0.1183 -0.0628 -0.2792
17016W        W17216   9.044  13.031   3.500  0.2526 -0.2685 -0.0555
17017W        W17217   6.027   1.875  15.176  0.2731 -0.1282  0.2365
17018W        W17218   2.919  12.334   8.270 -0.0960 -0.0992 -0.0591
17019W        W17219   8.514   2.306  10.790 -0.1871  0.2136 -0.0532
17020W        W17220   3.704  17.931   8.585 -0.2984  0.2669  0.1998
17021W        W17221   7.778  15.221   8.242 -0.0453 -0.1761  0.1468
17022W        W17222   1.079   9.828  10.271 -0.0365  0.2955 -0.2523
17023W        W17223   9.848   8.701  10.008 -0.0666  0.2454 -0.0907
17024W        W17224   9.559  12.917   4.488 -0.2838  0.0471  0.0316
17025W        W17225   6.691   9.383   7.489 -0.0617  0.0795 -0.4376
17026W        W17226   2.115  15.574   1.444  0.0005  0.0065 -0.0283
17027W        W17227   6.929   7.432   3.312 -0.0318 -0.0172  0.2225
17028W        W17228   3.849  16.027  17.160 -0.0355 -0.0940  0.1400
17029W        W17229   0.479  11.465   7.406 -0.1584  0.3345  0.2056
17030W        W17230   8.414   7.090  15.959 -0.0211 -0.0711  0.0955
17031W        W17231   4.654   4.100  16.018 -0.1948 -0.3406  0.0665
17032W        W17232   7.290  11.928   2.674  0.2079  0.0597 -0.0869
17033W        W17233   4.609   5.756  12.128 -0.3237 -0.1208  0.2601
17034W        W17234   3.021   2.634   8.993 -0.3208 -0.0033 -0.1044
17035W        W17235   2.240  15.520  15.059 -0.0554  0.2663 -0.0004
17036W        W17236  14.824  10.493   4.350 -0.0328  0.0609  0.2631
17037W        W17237  11.880   8.284  15.480  0.1240  0.2908 -0.1857
17038W        W17238   7.212   8.231  10.334  0.1698 -0.0664 -0.0801
17039W        W17239   1.465  12.409  15.254 -0.2521  0.2757 -0.1746
17040W        W17240  11.053   0.784  10.243 -0.2373  0.0333 -0.0276
17041W        W17241  12.109  18.128   4.217  0.1840 -0.0276 -0.1145
17042W        W17242   7.202  14.265   2.520 -0.2424  0.1809 -0.3279
17043W        W17243   8.173   2.990  12.401  0.0174 -0.0964  0.0022
17044W        W17244   1.382   7.751  12.560 -0.1488  0.0568  0.3063
17045W        W17245   5.804   8.292  10.956 -0.2948 -0.3303 -0.0082
17046W        W17246   7.162   2.637  14.637  0.1825 -0.0696  0.2467
17047W        W17247   8.712   2.590  17.736 -0.3100 -0.2164  0.0804
17048W        W17248  13.549   8.412   3.988 -0.2226 -0.2346 -0.2448
17049W        W17249   5.030   1.932   5.451 -0.1516 -0.0149  0.0085
17050W        W17250   8.230  15.595   9.168 -0.1826 -0.0489 -0.1009
17051W        W17251   4.760  11.465  10.588 -0.1086  0.1969 -0.0977
17052W        W17252   5.918  14.282   8.726  0.0746  0.0078  0.2345
17053W        W17253   8.367  15.982   7.086 -0.0105  0.2108  0.0945
17054W        W17254   7.754  16.631  12.348  0.2230  0.3171 -0.0961
17055W        W17255   9.943  11.410  14.273 -0.0420 -0.1340  0.0077
17056W        W17256   7.208  15.519   6.459 -0.0865 -0.0518 -0.1072
17057W        W17257  12.323  17.873   2.990 -0.2034  0.5924  0.0764
17058W        W17258  12.878  10.386   0.797  0.2722  0.1759 -0.0006
17059W        W17259   2.504  17.248  10.958  0.1245 -0.0083  0.0864
17060W        W17260   1.539  11.295  17.544  0.2005  0.1120  0.0965
17061W        W17261  15.778  12.169   7.730 -0.2718  0.1658  0.1793
17062W        W17262   0.753  10.923  12.127  0.1768  0.2088  0.2553
17063W        W17263   5.288  14.873  13.059  0.0289 -0.1927 -0.1896
17064W        W17264  17.994   3.569   9.125  0.1264 -0.2185  0.0257
17065W        W17265   5.636   7.829  12.785  0.1238 -0.1007 -0.1927
17066W        W17266   8.487  15.792   9.687 -0.3448 -0.1258  0.0567
17067W        W17267   4.320   0.221  17.685 -0.0610  0.2068 -0.2060
17068W        W17268   0.931  13.382  10.361  0.3522  0.1000 -0.2700
17069W        W17269   8.618  17.474   7.390  0.0729 -0.1348 -0.0502
17070W        W17270   7.481  10.463  11.834 -0.0567 -0.1587  0.0392
17071W        W17271   8.908  16.495   1.176 -0.1933  0.1297 -0.2266
17072W        W17272   4.784  10.714  12.028  0.1519  0.2155  0.1905
17073W        W17273   3.740  13.040  15.056  0.0774  0.3906  0.3133
17074W        W17274  14.884  11.006   8.719  0.0682 -0.3239 -0.0945
17075W        W17275  14.737  15.554   5.752  0.0392  0.3694  0.4061
17076W        W17276   7.659   9.854  13.165  0.0542 -0.0565 -0.1440
17077W        W17277   1.177  12.625   4.361 -0.0153  0.1642  0.0070
17078W        W17278   2.467   4.870  10.566 -0.0549  0.3624  0.0858
17079W        W17279   8.313  13.478  10.020  0.0974  0.1759 -0.0573
17080W        W17280  15.194   9.954   5.776  0.0660 -0.0721  0.0609
17081W        W17281   6.592  15.425   3.742 -0.0744 -0.1076  0.0259
17082W        W17282  12.492   8.924   7.825  0.3400  0.2181  0.0931
17083W        W17283   8.678  13.868   8.099 -0.0514 -0.1143  0.1025
17084W        W17284   5.788   1.715   9.078 -0.2608  0.0132 -0.0688
17085W        W17285  17.470   9.381   7.236 -0.1256 -0.1890 -0.3348
17086W        W17286  12.702   3.263   9.863 -0.1555  0.3121 -0.2052
17087W        W17287  13.226   4.459   5.828  0.0297 -0.1996  0.1077
17088W        W17288   7.521  14.320   1.256 -0.0264 -0.1074 -0.1454
17089W        W17289   3.285   8.687   5.238 -0.0617  0.0018  0.1039
17090W        W17290  14.940   0.436  14.997  0.2832  0.1147 -0.1739
17091W        W17291   5.112   0.515  16.605  0.0102  0.1250  0.0195
17092W        W17292   8.751  14.934  12.276  0.0467 -0.0446  0.0749
17093W        W17293  18.157  17.352  11.149  0.0905 -0.0257 -0.1165
17094W        W17294   1.187  10.941  17.433 -0.0508 -0.0009  0.1142
17095W        W17295  15.857  16.769   3.762  0.0662  0.3828 -0.2566
17096W        W17296   4.618   6.371   5.099 -0.2395  0.0790 -0.0111
17097W        W17297   5.314   7.404  11.957  0.1336 -0.2386 -0.1122
17098W        W17298   8.319   5.565   8.010 -0.4046 -0.1573 -0.1127
17099W        W17299  17.019  12.480   3.938  0.1700 -0.0822  0.0210
17100W        W17300  18.049  11.939  16.661  0.0035  0.1884  0.0093
17101W        W17301  12.380   0.562   9.588  0.2403  0.1313 -0.2321
17102W        W17302   2.013  15.969  13.357 -0.0601  0.1102  0.1261
17103W        W17303   9.874   9.403   6.695  0.0334  0.3548  0.1296
17104W        W17304   0.035   3.537  14.015  0.0851 -0.0332 -0.0874
17105W        W17305   2.955   8.151   7.146 -0.2578  0.4483 -0.3468
17106W        W17306  11.197   9.504   5.474 -0.2212 -0.0364 -0.1751
17107W        W17307   5.241   9.797   7.638 -0.0488 -0.1869 -0.2419
17108W        W17308   6.183   0.278  16.618  0.1291  0.1966  0.1691
17109W        W17309   7.249  11.019   8.392  0.1466 -0.1717  0.1155
17110W        W17310   4.141   7.489   7.363 -0.0227  0.1741  0.0955
17111W        W17311   7.043   6.495  12.466 -0.0996 -0.3414  0.1250
17112W        W17312   6.741   1.502   3.323 -0.2190  0.2661  0.0462
17113W        W17313   3.238  14.256  14.332  0.1159 -0.1796 -0.2110
17114W        W17314   6.259  13.146   3.761  0.0660  0.0356 -0.1263
17115W        W17315   8.972  17.880   9.947  0.0742 -0.0765  0.0379
17116W        W17316  17.047  12.591   7.345  0.3699  0.0530 -0.0156
17117W        W17317   6.774  15.213   5.317  0.3088 -0.1656 -0.0687
17118W        W17318   5.180   7.902  11.868  0.1555  0.0336  0.1083
17119W        W17319  15.403   9.874  12.454  0.2253  0.2022 -0.0422
17120W        W17320   7.922   9.205  10.299 -0.1180 -0.0611  0.1050
17121W        W17321   2.514   2.955   7.205  0.0412  0.0786 -0.1003
17122W        W17322   5.141  11.693   8.060 -0.0420  0.2307 -0.0987
17123W        W17323  17.504  15.152  12.403  0.0235 -0.1167 -0.2134
17124W        W17324  10.596  16.756  12.210 -0.1901 -0.2941  0.2655
17125W        W17325  12.575  10.005   8.437 -0.2114  0.0421 -0.0371
17126W        W17326   9.254  11.635   1.707 -0.0417 -0.0718 -0.1369
17127W        W17327  13.706  12.153   8.449 -0.4151  0.1362  0.3163
17128W        W17328   3.398  16.318   9.512  0.1972 -0.2414  0.4208
17129W        W17329  15.747   0.375   9.432 -0.0810  0.0629 -0.3189
17130W        W17330   0.357  10.073  14.932 -0.2158  0.2346  0.1020
17131W        W17331   1.640  15.279   8.271 -0.4668  0.4353  0.2001
17132W        W17332   1.061   2.913   8.085  0.0739  0.3016  0.0164
17133W        W17333   5.893  11.634  12.602 -0.0983  0.0515  0.1837
17134W        W17334   6.854  17.419  13.694 -0.0210 -0.0556  0.2302
17135W        W17335   0.741  18.081  14.182 -0.0990  0.2662 -0.0463
17136W        W17336   8.258   8.707   7.333  0.0802 -0.2272 -0.1752
17137W        W17337  14.619  14.326  12.016  0.1474 -0.2331 -0.0984
17138W        W17338  15.449   0.252   7.159 -0.0887 -0.1284  0.0890
17139W        W17339   5.519   7.256   7.235 -0.1153  0.1705  0.3828
17140W        W17340   3.911  13.732  11.771 -0.0143  0.1568  0.0861
17141W        W17341   2.761   3.259  11.189 -0.1344 -0.0250 -0.0514
17142W        W17342   3.659  10.536  10.329 -0.0399  0.0114 -0.0477
17143W        W17343   2.947   4.112   5.977  0.0599 -0.0333 -0.0873
17144W        W17344  12.112   0.616   8.950  0.0954  0.1345 -0.5028
17145W        W17345   6.987  13.144   4.320  0.1266 -0.1034 -0.0650
17146W        W17346  17.993   7.385   9.481 -0.2217  0.1349 -0.3700
17147W        W17347  16.774   9.969   6.188  0.2208  0.0280 -0.3533
17148W        W17348   9.252   8.868   9.330 -0.2077 -0.1415  0.0358
17149W        W17349   9.997  16.492  11.665  0.2933 -0.0599 -0.2546
17150W        W17350   8.184   3.990   7.193 -0.1097  0.2243  0.1711
17151W        W17351   2.741  15.143   4.074  0.1021  0.0067 -0.1363
17152W        W17352   9.205  16.107  12.440  0.3337  0.0114 -0.0164
17153W        W17353   7.804   0.945   9.501 -0.1664 -0.0765 -0.0025
17154W        W17354  12.568   0.314  12.224 -0.0392  0.2285  0.0390
17155W        W17355   2.991   8.322   3.366  0.0568 -0.0468  0.3029
17156W        W17356  16.350   7.705   5.710 -0.0947 -0.0084  0.0287
17157W        W17357   3.602   0.844  14.669  0.3172 -0.1666  0.0781
17158W        W17358  15.118   9.905   8.356  0.0268 -0.2714 -0.1258
17159W        W17359   5.019   0.737  13.290 -0.5421 -0.0078  0.0388
17160W        W17360   5.262  16.133   8.305 -0.0622  0.0463  0.1980
17161W        W17361  16.402  11.670  13.447  0.2051  0.0836 -0.3093
17162W        W17362   5.681   5.959   9.459  0.1214  0.0609 -0.2045
17163W        W17363   5.642  15.018   9.791  0.1394 -0.1106 -0.0572
17164W        W17364  14.385   5.174   8.220  0.1967  0.3573  0.3269
17165W        W17365   6.742  13.576   1.388  0.0667 -0.1439 -0.2320
17166W        W17366   0.979  13.067   7.678 -0.3439  0.0108 -0.1639
17167W        W17367   5.881  17.106  11.831  0.0043  0.0318 -0.2127
17168W        W17368   8.051  13.806   4.981 -0.0362  0.1016  0.1432
17169W        W17369   7.868  15.793   0.791 -0.0963 -0.3523 -0.0126
17170W        W17370   1.814  12.165  11.995 -0.2037 -0.0935 -0.0871
17171W        W17371   7.966  13.097   7.306  0.0204 -0.0378  0.1732
17172W        W17372  17.909  15.518   7.193 -0.1320 -0.0973 -0.0236
17173W        W17373   9.429   0.361  12.168  0.0153 -0.1351 -0.1474
17174W        W17374  16.609  18.092  12.994 -0.0911  0.2583 -0.2723
17175W        W17375  18.200  10.862   8.442  0.0258 -0.0067 -0.1452
17176W        W17376   3.052  13.092  13.102 -0.2079  0.2492  0.3795
17177W        W17377   2.779  11.242   1.072 -0.2532  0.0974  0.0567
17178W        W17378   2.218  11.167  10.439 -0.2106 -0.0058 -0.1247
17179W        W17379   2.937   1.085  10.795  0.0041  0.1168 -0.2411
17180W        W17380   4.814   7.715   9.135 -0.0762  0.2660 -0.0502
17181W        W17381   2.792  14.894  12.139  0.1465 -0.0137  0.0941
17182W        W17382  14.905  11.173   9.184 -0.0870 -0.1209  0.3087
17183W        W17383   8.728   9.536   2.839 -0.2290  0.5283  0.1864
17184W        W17384   6.263  13.253  13.991  0.1433  0.1751 -0.1568
17185W        W17385  10.720   0.433  10.490  0.3188  0.1852 -0.1818
17186W        W17386  12.035   5.427  11.829  0.0650 -0.2953 -0.0515
17187W        W17387  12.932   5.561   9.493  0.1689  0.0823 -0.1063
17188W        W17388   5.479   1.099  13.358  0.1343  0.0691  0.1118
17189W        W17389   3.488  13.194   4.070  0.0307  0.2776  0.3134
17190W        W17390  16.416   5.144   0.728 -0.1049  0.0005  0.1156
17191W        W17391   0.858  10.888   9.631  0.3552  0.2034  0.0322
17192W        W17392   3.328  15.251  15.285 -0.0466  0.1338  0.1238
17193W        W17393  17.124  13.929   9.623 -0.1032 -0.2418  0.0487
17194W        W17394   5.174   9.905  17.390  0.0797 -0.0435  0.0958
17195W        W17395   7.624  14.451   0.347  0.2881 -0.1800  0.2153
17196W        W17396   2.012  10.435  10.916  0.1131  0.0928 -0.0721
17197W        W17397   1.806  17.467  11.540  0.0687 -0.0700 -0.0656
17198W        W17398   4.906  16.675  12.912  0.0517  0.2322 -0.1517
17199W        W17399   1.652   3.250  11.570 -0.3257  0.0020 -0.0438
17200W        W17400   9.549  17.104  10.273  0.0660  0.0826  0.3465
17201W        W17401  17.963  12.565  12.810 -0.1305 -0.0612  0.1465
17202W        W17402   6.490  11.394  14.715  0.0813 -0.0733 -0.0774
17203W        W17403   7.187  10.505  15.919  0.5228 -0.2511  0.1289
17204W        W17404   6.871   0.274   8.984 -0.1247 -0.0399  0.3505
17205W        W17405   6.026  16.361   7.459 -0.0347 -0.1545 -0.0911
17206W        W17406  13.954   2.138  12.756 -0.0752 -0.1379 -0.1151
17207W        W17407   6.924  11.077   8.789 -0.0276 -0.1855  0.1737
17208W        W17408   4.049   9.701   9.384 -0.0646  0.1573  0.0576
17209W        W17409   8.851  17.630   8.659 -0.2466 -0.0549  0.0543
17210W        W17410   4.617  13.532   8.011  0.0241 -0.1166 -0.3152
17211W        W17411   7.611   2.657   8.533 -0.0490 -0.0994  0.1276
17212W        W17412   0.195  14.334   8.643 -0.0609  0.2124  0.1592
17213W        W17413  12.535  10.787  14.899 -0.3385 -0.0653 -0.1930
17214W        W17414   4.308   1.468  13.090  0.0027  0.1331 -0.1406
17215W        W17415   9.015  14.770   6.412  0.3999 -0.4643  0.3057
17216W        W17416   6.008   8.065  17.792 -0.1149  0.0760  0.0818
17217W        W17417   5.463  16.302  16.412 -0.1630 -0.3438 -0.3268
17218W        W17418   1.824   9.874  16.316 -0.1148  0.2202  0.0263
17219W        W17419   2.310  10.654  10.606  0.2619 -0.2199 -0.0013
17220W        W17420  11.155  12.858  14.607 -0.2069 -0.0469  0.2040
17221W        W17421   3.244  11.274  13.565 -0.0286  0.2580  0.3211
17222W        W17422   3.378  12.012  15.425 -0.2317 -0.3174  0.0528
17223W        W17423  15.796  14.684  13.338  0.1587  0.0922 -0.1120
17224W        W17424   6.792  12.330   4.675  0.0624 -0.0126 -0.0635
17225W        W17425   9.300   4.338  14.507 -0.1065  0.2511 -0.2087
17226W        W17426   3.309  13.429   9.124 -0.0085  0.0809  0.0737
17227W        W17427   3.068   8.992  11.772  0.1848  0.0513  0.1009
17228W        W17428   8.111   4.038  16.197  0.0351 -0.1808 -0.0455
17229W        W17429   2.822   1.066   7.256 -0.1604 -0.0128 -0.2504
17230W        W17430   6.594   3.246   0.931  0.2650 -0.0067  0.0415
17231W        W17431   2.457  11.505  17.548 -0.0071  0.2403 -0.1379
17232W        W17432   0.924  11.946  10.906 -0.1225 -0.1781 -0.2148
17233W        W17433   5.599  10.311   9.011  0.0682  0.1670  0.1619
17234W        W17434   1.243  12.129  17.368 -0.3869  0.0109  0.0339
17235W        W17435   0.886   6.876  17.070 -0.2873  0.3275  0.2462
17236W        W17436   0.023   9.681  13.662  0.0255 -0.4151 -0.1758
17237W        W17437   9.552   1.011   9.050  0.0698 -0.1107 -0.2088
17238W        W17438   1.166  12.654   5.938  0.0455  0.2683 -0.0863
17239W        W17439   6.677  17.864   6.664  0.0929  0.0256  0.2579
17240W        W17440  13.131  14.040   6.434 -0.0121  0.0026  0.1015
17241W        W17441  17.497  15.465  12.923 -0.1815  0.0022 -0.1822
17242W        W17442   1.477   8.049  12.979  0.2881 -0.1416 -0.0934
17243W        W17443   7.368   4.966  17.852  0.0063 -0.1200  0.1953
17244W        W17444   0.747   2.604  14.997  0.2283 -0.0452 -0.0132
17245W        W17445  10.282  14.295  15.892  0.2606 -0.2194  0.2488
17246W        W17446  10.660   9.350   8.486 -0.0842  0.0583 -0.3341
17247W        W17447   7.014  17.215  13.257 -0.1486 -0.1533 -0.0640
17248W        W17448  16.766  14.441  13.855 -0.2018  0.1681 -0.0559
17249W        W17449   8.667   8.715   7.730 -0.1955  0.0061  0.1963
17250W        W17450   6.400  17.129   2.459 -0.0108  0.0617  0.0227
17251W        W17451   2.823   7.845   9.347  0.1699 -0.1461 -0.1093
17252W        W17452   8.375  15.818   0.585  0.1354  0.2031  0.0929
17253W        W17453   4.144  13.195  14.793 -0.0340  0.4225  0.1058
17254W        W17454   6.296  13.927   9.956 -0.2485 -0.0291 -0.1592
17255W        W17455   6.247  15.297  16.175  0.0064  0.0819  0.1349
17256W        W17456   6.920  10.077  17.814  0.3800  0.1799  0.2646
17257W        W17457   5.862   4.797  13.479  0.0123  0.1139 -0.1232
17258W        W17458   7.450   8.172   0.685  0.3269 -0.3044  0.0676
17259W        W17459   5.803   4.761   8.265 -0.0882 -0.2961 -0.0664
17260W        W17460   7.570  12.201   6.589 -0.2185 -0.0389 -0.0193
17261W        W17461   2.648  17.317   9.335  0.2928  0.2913  0.1351
17262W        W17462  15.819   1.104   5.474 -0.1458 -0.0228  0.1851
17263W        W17463   4.117   9.247   5.419 -0.0602  0.1365  0.2479
17264W        W17464  10.547  11.841  16.554 -0.0830  0.1501  0.3193
17265W        W17465   4.990  16.688  16.029  0.2551  0.4775 -0.2521
17266W        W17466  17.332   0.357   5.976  0.1998  0.1681 -0.1528
17267W        W17467  10.608   8.136  15.179  0.0184 -0.4382  0.1647
17268W        W17468  10.150  14.584   5.485 -0.4743  0.1427 -0.2992
17269W        W17469  15.634   9.943   0.166  0.4377  0.3445 -0.0444
17270W        W17470  18.141   2.085  12.752  0.0554  0.0291 -0.1275
17271W        W17471  15.939  11.632  10.809  0.2048 -0.3643  0.2017
17272W        W17472  15.016  12.539  13.107  0.1000 -0.1650  0.1009
17273W        W17473   7.258  16.753  16.044 -0.1626  0.3352  0.1397
17274W        W17474   4.879  14.518   1.756 -0.3241 -0.0308 -0.0210
17275W        W17475   3.312   4.619  11.043 -0.3417  0.3229 -0.0954
17276W        W17476   8.725  12.298  13.412  0.1600  0.0705 -0.1315
17277W        W17477  16.302   5.620   0.654  0.0162 -0.0430 -0.2346
17278W        W17478   4.543  15.932  14.834  0.0039  0.1555  0.1221
17279W        W17479   7.982   7.780   7.564 -0.0876  0.0991 -0.0495
17280W        W17480   7.819  17.366  10.069  0.0401  0.2716 -0.0228
17281W        W17481   2.963  15.340  12.345  0.2339  0.2182  0.0919
17282W        W17482  17.117  11.042  15.797  0.3030 -0.1548 -0.2665
17283W        W17483  17.193   9.113  12.608  0.2115 -0.2000 -0.1450
17284W        W17484   3.754   9.950   6.488  0.0040 -0.0086  0.0128
17285W        W17485  11.492  13.676   4.783  0.3041 -0.0007  0.2591
17286W        W17486   3.941   0.230   0.710  0.2036 -0.1407 -0.0472
17287W        W17487   7.007  16.460   6.239 -0.1038  0.2179  0.1416
17288W        W17488   1.265   1.564  11.782 -0.1734  0.1208 -0.1771
17289W        W17489   7.059  17.862  14.495 -0.1917  0.0063  0.0387
17290W        W17490  11.218  14.171  11.549 -0.0553  0.1035 -0.3859
17291W        W17491   8.785  11.223  16.260  0.0391 -0.1233  0.0270
17292W        W17492   9.918  12.180  17.320 -0.2642 -0.0296 -0.1391
17293W        W17493   8.177  14.538   7.710 -0.2079 -0.0911 -0.1973
17294W        W17494   5.151  15.682  17.119  0.3408  0.2492 -0.1338
17295W        W17495   4.911   3.056  13.571 -0.0840  0.1299  0.1475
17296W        W17496   3.540  14.784   9.502  0.0920  0.1400 -0.2964
17297W        W17497   5.475  11.999  14.223 -0.0771 -0.0643  0.2284
17298W        W17498   5.090  10.985  10.934 -0.2419 -0.2948  0.0015
17299W        W17499   7.575   6.750  13.171  0.2043  0.2912 -0.1849
17300W        W17500   3.529   0.427   4.230 -0.3458  0.1336  0.0638
17301W        W17501   2.226  10.779  12.141  0.2313 -0.1413 -0.1906
17302W        W17502  12.886  15.671  15.273 -0.1867  0.0010  0.0461
17303W        W17503   8.660  14.325  14.235 -0.1848  0.0830 -0.0910
17304W        W17504   9.132  14.165   6.663  0.2395 -0.0626 -0.2883
17305W        W17505  11.161  11.814   3.808 -0.0090  0.2374  0.1980
17306W        W17506   8.601   5.191   6.689 -0.0415 -0.1537 -0.4136
17307W        W17507   1.560  14.375  12.547 -0.1120 -0.0918  0.2503
17308W        W17508   7.501  12.378  14.178  0.3918  0.0580 -0.3948
17309W        W17509   1.936   3.830   1.195 -0.0898 -0.0983 -0.0521
17310W        W17510   6.806  11.977   9.774 -0.1668  0.0259  0.0205
17311W        W17511   5.961  12.812  11.328 -0.0918  0.2215  0.3752
17312W        W17512  15.415   4.723  15.250 -0.2606  0.4796 -0.0759
17313W        W17513  13.291   4.982  14.343  0.1320  0.1314 -0.2312
17314W        W17514   7.667  10.914  17.041 -0.1449  0.0964 -0.0447
17315W        W17515   5.760   0.993  11.921 -0.1362  0.1006 -0.0930
17316W        W17516   0.456  16.643  11.653 -0.1129 -0.2680  0.1179
17317W        W17517  16.016  12.565  13.178  0.1355 -0.1062 -0.0190
17318W        W17518   2.824  15.417  11.879 -0.0486  0.0825  0.0310
17319W        W17519  13.861  15.881   1.214  0.4186 -0.1536  0.2760
17320W        W17520   0.597  13.341  13.622  0.0371 -0.0742 -0.1087
17321W        W17521   6.526  12.872  13.959 -0.1478 -0.3399  0.2257
17322W        W17522   2.557  11.428  11.482  0.1590 -0.0557  0.1701
17323W        W17523   6.603   9.235   2.721 -0.0917 -0.0816 -0.0200
17324W        W17524  17.842  13.611   7.465 -0.1156  0.1772  0.1104
17325W        W17525   4.531   4.674  13.316 -0.0060  0.1129  0.0897
17326W        W17526   5.263  14.240   6.499  0.1021  0.3693  0.0008
17327W        W17527   4.538   4.730   5.610 -0.1784 -0.0180 -0.2722
17328W        W17528   1.141   4.254  14.755 -0.1332 -0.0880  0.3714
17329W        W17529   1.790   0.221  15.103 -0.1611  0.0231 -0.0357
17330W        W17530   7.043   1.626  17.373 -0.1064  0.0802  0.0324
17331W        W17531   0.278   9.411  11.763  0.0156 -0.0198  0.0144
17332W        W17532   3.892  16.316  15.322  0.2838  0.1974  0.0642
17333W        W17533  16.782  14.553  15.916  0.1553 -0.1464 -0.0538
17334W        W17534   8.710   7.462   5.263 -0.3141 -0.2115  0.4461
17335W        W17535   1.298   9.700   1.538 -0.2794 -0.1372  0.2273
17336W        W17536   8.411  13.377   9.133  0.1355  0.1688  0.1406
17337W        W17537   0.764   5.092   4.718 -0.3908 -0.1459 -0.1963
17338W        W17538   7.812   9.723  10.146  0.3126  0.1746 -0.1065
17339W        W17539  15.081   4.027  10.921 -0.1102  0.1629 -0.0548
17340W        W17540   1.257  13.909  16.159 -0.3230 -0.1085  0.0146
17341W        W17541   3.305  13.298  14.678  0.1300 -0.2522 -0.2414
17342W        W17542  10.497   7.888  12.860 -0.0499 -0.2880  0.1379
17343W        W17543   6.819   5.560  17.062 -0.1293 -0.3479 -0.2359
17344W        W17544  13.901  11.753   0.238 -0.3021  0.0315 -0.0400
17345W        W17545  12.631  10.992   5.742  0.0643  0.1186 -0.0380
17346W        W17546  15.091  14.335   5.439  0.3736  0.2100  0.0544
17347W        W17547   6.050  12.000  14.401  0.1291 -0.2704  0.2473
17348W        W17548   6.903  15.378   8.055 -0.1304 -0.1329 -0.0383
17349W        W17549   8.025   7.697  16.859 -0.0366 -0.2541 -0.0629
17350W        W17550   8.339   9.898  17.107 -0.1644 -0.2158  0.0829
17351W        W17551   5.886   5.169   2.438  0.0595  0.2590 -0.2200
17352W        W17552  17.735  15.773   9.944  0.0382  0.0199 -0.3815
17353W        W17553   4.569   9.898   9.945  0.2381  0.1945  0.3907
17354W        W17554   6.950   8.085  14.941  0.1372 -0.1333  0.0228
17355W        W17555   3.839   1.110  16.812 -0.1696  0.2489 -0.0039
17356W        W17556  13.650   9.787   8.187 -0.1201  0.1682  0.2158
17357W        W17557   5.097   2.470  12.146 -0.0496  0.3308  0.1724
17358W        W17558   2.311   0.795   2.652 -0.4162 -0.0722 -0.1205
17359W        W17559  15.580   1.286   7.279 -0.0863  0.0972  0.1586
17360W        W17560  15.256   0.196  10.990 -0.3978  0.0727 -0.2405
17361W        W17561  17.472  12.849  13.091 -0.0966  0.0489 -0.0268
17362W        W17562   3.704  15.167  17.114  0.4613 -0.0379  0.1360
17363W        W17563   6.199  15.821  15.568  0.0110  0.0778 -0.2518
17364W        W17564  12.157   3.952  11.508 -0.0506  0.2987 -0.1230
17365W        W17565   0.742   0.548  11.925  0.1125  0.1414 -0.2652
17366W        W17566  10.508   8.639  13.374 -0.2255  0.0312 -0.2079
17367W        W17567   5.628  12.676  13.605 -0.0122  0.1498 -0.0637
17368W        W17568   7.487   8.268  17.413 -0.0314  0.0882  0.1713
17369W        W17569   4.891  13.270  15.566  0.1795 -0.0653  0.1504
17370W        W17570   5.974  12.830  14.666 -0.1607 -0.1008 -0.0007
17371W        W17571   3.655  14.157   0.074 -0.3144  0.2356  0.0425
17372W        W17572   0.612  11.069  17.497 -0.0167  0.0664  0.1204
17373W        W17573   5.510  16.906  16.137 -0.1801 -0.2069  0.1682
17374W        W17574   7.992   5.291  13.640 -0.0103  0.2740  0.2243
17375W        W17575   1.290   3.128  14.429  0.0791  0.0668  0.1049
17376W        W17576   3.964   3.989  10.112 -0.0882  0.0415 -0.0843
17377W        W17577   3.043  11.098  14.576 -0.1929  0.4002 -0.1234
17378W        W17578  15.532   2.706  15.824 -0.3189  0.3149 -0.0043
17379W        W17579  17.001  16.563  14.852 -0.3544  0.2116 -0.2060
17380W        W17580   4.442  10.415   7.228 -0.1724 -0.1491  0.0525
17381W        W17581   2.692   5.703  15.047  0.1747  0.1085 -0.0038
17382W        W17582   5.441  17.442  14.958 -0.3512  0.0164  0.0939
17383W        W17583   3.033  11.940   0.532 -0.0318  0.0329  0.0050
17384W        W17584   3.263   7.474   0.873 -0.0343  0.0160 -0.2714
17385W        W17585   7.227  16.615   0.058  0.2022 -0.2622  0.0870
17386W        W17586  15.705  10.180  15.657 -0.1328 -0.2681 -0.2517
17387W        W17587  12.470  12.488  15.004 -0.0594 -0.1923 -0.2168
17388W        W17588   6.907  15.281  11.566 -0.0977  0.2319  0.0905
17389W        W17589   2.392   0.508  13.944 -0.1408  0.0328 -0.0032
17390W        W17590   2.299  15.951  11.381  0.2071 -0.2254  0.0161
17391W        W17591   1.439   4.035  11.299  0.0081 -0.1657 -0.0611
17392W        W17592  12.069   5.566   6.739 -0.2127  0.2020 -0.2792
17393W        W17593  17.500  16.006   2.661  0.2740 -0.2416  0.1088
17394W        W17594   2.084   6.340   9.386 -0.0013 -0.1767 -0.0335
17395W        W17595   1.699  16.098  10.064 -0.5777  0.2780  0.0004
17396W        W17596   7.920   7.159  16.790  0.1231  0.3071 -0.1230
17397W        W17597   5.402  18.042  14.935 -0.0444  0.0057 -0.0609
17398W        W17598   4.334   0.246  15.204  0.1457 -0.2774 -0.2877
17399W        W17599   0.714   1.480  11.890 -0.0044 -0.2776  0.2821
17400W        W17600   1.059  11.927   6.301  0.0249  0.1508  0.0774
17401W        W17601   5.425   6.904  13.693 -0.0916  0.0031  0.2556
17402W        W17602   6.782   5.343  14.704 -0.1636  0.0814 -0.1782
17403W        W17603   3.121  11.694  16.427 -0.0714 -0.0055  0.2950
17404W        W17604   2.090   2.927  17.174  0.2199 -0.0790  0.0328
17405W        W17605   6.080  16.355  18.049  0.1540  0.1242  0.1509
17406W        W17606   8.730  11.839   4.538 -0.0248 -0.1435 -0.0242
17407W        W17607  16.103  15.782   1.145 -0.1339 -0.1547  0.1181
17408W        W17608  14.805   1.981  10.626 -0.1621  0.1380 -0.0296
17409W        W17609   7.206   9.883   6.073  0.2139 -0.1748 -0.3112
17410W        W17610   7.383  13.515  11.041  0.2435 -0.1043 -0.3470
17411W        W17611   2.643  16.592  10.170  0.4562  0.0008  0.0889
17412W        W17612   6.858  16.447   9.124  0.1558 -0.0471  0.2739
17413W        W17613   3.427  12.615  16.884  0.0943  0.0200 -0.2437
17414W        W17614   3.706   8.556   1.632  0.0385  0.0524 -0.1021
17415W        W17615  13.856  16.444   8.145 -0.2255 -0.3883  0.0401
17416W        W17616  16.752   8.412  10.602 -0.0424  0.0852 -0.0290
17417W        W17617   9.423  16.013  11.323  0.1669 -0.1712 -0.0385
17418W        W17618   9.767  14.511  12.091  0.1654  0.2628  0.4708
17419W        W17619   8.826  12.534   7.413  0.1641 -0.1331 -0.0633
17420W        W17620   7.788  11.165   6.869  0.1732  0.2750 -0.1016
17421W        W17621   7.570  17.583  16.063  0.0969 -0.0332  0.1257
17422W        W17622   8.019  11.501   8.003  0.0874 -0.2905 -0.1766
17423W        W17623   7.399   3.277   2.217 -0.0966 -0.1202 -0.1279
17424W        W17624  16.434  10.196  17.279  0.1283  0.0894  0.1570
17425W        W17625  10.376  14.614   8.624  0.1758 -0.2620  0.0582
17426W        W17626  14.328  15.512  17.331  0.2149  0.1303 -0.0422
17427W        W17627  10.672   9.262   7.700 -0.0748 -0.0607  0.0071
17428W        W17628   7.012   8.291  11.074 -0.0278  0.0518 -0.2058
17429W        W17629   1.471   4.689  17.180  0.1712  0.3079 -0.0935
17430W        W17630  14.093  14.003  15.674  0.0289  0.0694  0.1471
17431W        W17631   6.612  13.190   0.359 -0.1483  0.0521 -0.0820
17432W        W17632   5.647  13.145  10.214 -0.0602  0.0712 -0.0894
17433W        W17633   6.578  13.037  16.681 -0.0336 -0.2657  0.3115
17434W        W17634   1.477   8.983  14.574 -0.2075  0.1059  0.1414
17435W        W17635  17.981  16.505  13.328 -0.1180  0.0683 -0.3008
17436W        W17636  14.539  13.260   1.620 -0.0740  0.0757  0.0345
17437W        W17637   6.568  13.210   5.153  0.0961 -0.3336 -0.2216
17438W        W17638   8.161   1.333  17.808  0.0452 -0.2904  0.1169
17439W        W17639   6.777  10.802  16.180 -0.1143 -0.3526 -0.0650
17440W        W17640   9.752  13.292  15.672  0.0740  0.1999  0.0171
17441W        W17641   7.396   0.564  13.315  0.3665  0.1777  0.0303
17442W        W17642   8.492   7.921   2.164 -0.0579  0.0266 -0.0561
17443W        W17643  10.447   8.303  11.325  0.3467  0.0000  0.0491
17444W        W17644   3.006  14.542  13.582  0.0258 -0.3628  0.2407
17445W        W17645   0.940  13.479  17.367  0.1037  0.2230 -0.2043
17446W        W17646   0.114  10.456  14.239 -0.4033 -0.0767  0.1532
17447W        W17647  17.906   1.984  12.297  0.1831 -0.0811  0.2413
17448W        W17648   0.196   2.664  14.955 -0.0117  0.0865 -0.0630
17449W        W17649   5.955   1.991  16.204  0.2295  0.1617 -0.1334
17450W        W17650  17.982  15.185  13.120  0.0320 -0.0748 -0.0126
17451W        W17651  14.112   0.096   0.780 -0.1718 -0.0782  0.3052
17452W        W17652   0.081   1.268  11.793  0.0174 -0.3062  0.3289
17453W        W17653   4.527   6.153   5.571  0.1408  0.0906  0.0614
17454W        W17654   2.737  14.103  13.801 -0.0586 -0.2914  0.1355
17455W        W17655   7.626  16.558  16.290 -0.1497  0.3590  0.1519
17456W        W17656  13.094  17.558   0.871 -0.1299  0.0881  0.1041
17457W        W17657   2.351   8.266   1.877  0.0647  0.0734  0.3241
17458W        W17658   4.036   0.672  15.029  0.1646  0.2504  0.0734
17459W        W17659  10.851  13.622  13.059  0.4259  0.1617  0.2338
17460W        W17660  16.321  14.007  12.139  0.1274  0.1391  0.1016
17461W        W17661   3.138   9.440   5.173  0.2585  0.2286  0.0736
17462W        W17662   5.694   0.750  14.278 -0.3827 -0.2597  0.1349
17463W        W17663   7.441  12.009  12.049 -0.0896  0.2534  0.0520
17464W        W17664  11.533   9.673  14.010 -0.0688 -0.2958  0.1048
17465W        W17665   4.316  15.867  16.990 -0.1099  0.2079  0.0337
17466W        W17666  10.241  14.334   3.031 -0.3216  0.0186 -0.1902
17467W        W17667  17.410  17.606  13.997  0.4127 -0.0884 -0.2082
17468W        W17668  13.824   3.834  16.704  0.1134  0.1521  0.0242
17469W        W17669  11.196  18.153   3.234  0.3447  0.1002  0.2312
17470W        W17670   0.888   7.335  14.043  0.0000 -0.0881  0.1721
17471W        W17671   5.380   8.502  13.482 -0.3230  0.1390 -0.0748
17472W        W17672   2.449  12.124  10.623 -0.0180 -0.0396  0.2190
17473W        W17673   5.360  14.737   1.694  0.0656  0.2302 -0.2046
17474W        W17674   3.794  14.289  17.399  0.0291 -0.4382 -0.0763
17475W        W17675  10.093   5.208   8.652 -0.3780  0.0094  0.0542
17476W        W17676   6.284  13.986   8.654 -0.1443  0.1531  0.0005
17477W        W17677   2.047  13.795   0.746 -0.3187  0.3147 -0.0844
17478W        W17678   0.968  17.978  13.741 -0.1087 -0.0636 -0.1724
17479W        W17679   7.074  12.790  10.406  0.0608 -0.0844  0.0118
17480W        W17680  10.882   7.132  11.724  0.1437  0.1872  0.1922
17481W        W17681   4.352  12.728   7.259 -0.2060 -0.0006  0.2260
17482W        W17682  17.861  10.052  16.013 -0.4775  0.0014  0.1693
17483W        W17683   3.481  16.578  17.602 -0.4753 -0.0659  0.1561
17484W        W17684   3.979  15.399  13.674  0.0879 -0.1246  0.0239
17485W        W17685   0.550  12.826  11.145 -0.3261 -0.2563  0.0132
17486W        W17686   0.568  12.305  17.778  0.0817  0.1996  0.2975
17487W        W17687   9.091   1.359  13.356 -0.2072 -0.2433 -0.0865
17488W        W17688  11.286   1.175   2.965  0.2234 -0.0087 -0.2038
17489W        W17689   2.642   7.818  11.062  0.1847  0.0524  0.0651
17490W        W17690  12.873  17.138   1.957  0.2923 -0.3219  0.2547
17491W        W17691   5.443   4.765  13.927  0.2579 -0.0772  0.1248
17492W        W17692   6.579   8.230   4.895 -0.1663  0.0789 -0.0766
17493W        W17693   6.308  12.419   2.831 -0.1802  0.0466 -0.2112
17494W        W17694   7.917   1.252  10.807  0.1887  0.2581 -0.0953
17495W        W17695  10.352  15.472  16.605 -0.1784  0.1787  0.0955
17496W        W17696   6.538  12.393   2.118  0.3971 -0.0436 -0.0318
17497W        W17697   1.306   9.319  10.089 -0.0176  0.0402 -0.3143
17498W        W17698   6.107   2.135  16.714 -0.0066 -0.0518  0.0559
17499W        W17699  16.002  17.351  12.827  0.0215  0.0377 -0.0088
17500W        W17700  17.821  12.926  10.120 -0.0701  0.2564  0.3149
17501W        W17701   0.303   4.914  18.015 -0.0480  0.0885 -0.2268
17502W        W17702  16.986  14.900  10.425 -0.2086  0.0610  0.1226
17503W        W17703   3.320  15.183  17.429  0.2880  0.0325 -0.1842
17504W        W17704   3.612  11.376   9.226 -0.1033 -0.0675  0.1270
17505W        W17705   9.749   1.935   3.686  0.0695  0.2423  0.1232
17506W        W17706  11.490  10.410  12.222 -0.1605  0.0492  0.2535
17507W        W17707  15.411  11.387  12.026  0.1263  0.1251 -0.2214
17508W        W17708   5.342  10.882  17.512  0.0313  0.1999  0.1959
17509W        W17709   0.324   6.982  16.575 -0.0094 -0.1537 -0.0041
17510W        W17710  16.779  11.990   0.740 -0.3538  0.0085  0.2622
17511W        W17711   9.769  11.232  16.601 -0.0435  0.0952 -0.2664
17512W        W17712   7.500   8.953  11.558 -0.2725  0.1755  0.0034
17513W        W17713   7.140  12.338   9.849 -0.0526  0.0623 -0.2765
17514W        W17714   8.305   8.559  16.678  0.2241 -0.2268 -0.4146
17515W        W17715  16.907  13.910  10.429 -0.2380 -0.0669  0.1663
17516W        W17716   2.180  11.291   8.376  0.0622  0.1320 -0.0140
17517W        W17717   2.499   7.140  10.943 -0.1506 -0.0044 -0.1826
17518W        W17718   8.383  17.219   9.166  0.0869  0.0059 -0.3271
17519W        W17719   7.509  14.997  12.126  0.1180  0.1131  0.2062
17520W        W17720  10.693  15.703   0.390  0.0203  0.1159  0.1398
17521W        W17721   8.942  16.810   5.362  0.0383  0.0581  0.4477
17522W        W17722   1.342  11.178   4.507 -0.1366 -0.1176 -0.4719
17523W        W17723   2.686  18.119  13.316  0.0056 -0.0238  0.2836
17524W        W17724   5.248  13.691  11.531  0.0931 -0.0711 -0.1245
17525W        W17725  15.222  17.668  11.940  0.2110  0.0438  0.2951
17526W        W17726   9.601  12.219   0.898 -0.0072 -0.2835  0.2570
17527W        W17727   9.637  10.930  10.759  0.0303  0.1273 -0.4838
17528W        W17728   6.778   8.847  16.464 -0.2063 -0.1664  0.2255
17529W        W17729   4.945  12.618  14.968  0.0837 -0.2959 -0.0817
17530W        W17730  17.593  13.925  16.668 -0.1119 -0.3810 -0.0884
17531W        W17731  17.321   9.990  10.933  0.1552  0.1359 -0.0655
17532W        W17732   9.960  13.773  14.168 -0.2084  0.0010  0.0220
17533W        W17733  11.548  15.751   6.390  0.2479 -0.2374  0.1386
17534W        W17734  11.639  14.385  16.009 -0.0499 -0.0906  0.1356
17535W        W17735  16.884   9.842  15.788 -0.0173 -0.2141  0.1104
17536W        W17736   8.931   8.265   8.769  0.0785  0.0551 -0.0331
17537W        W17737   5.295   8.160  12.828  0.2191 -0.0925  0.2471
17538W        W17738   7.116  13.091  11.879  0.1279 -0.0600  0.2324
17539W        W17739   8.699  11.010  14.416 -0.1262 -0.0276  0.2279
17540W        W17740   7.409  18.172   6.142 -0.0374 -0.0019 -0.1478
17541W        W17741   3.336  14.051  10.066 -0.0857  0.1218  0.2359
17542W        W17742   0.842  15.578  12.716  0.0431 -0.0080 -0.2293
17543W        W17743   1.099  12.685  11.098 -0.1048  0.3030  0.0135
17544W        W17744   5.855  17.947  13.752  0.1880  0.0357 -0.3017
17545W        W17745   4.861  12.404   0.592  0.1652 -0.0117 -0.0742
17546W        W17746   5.504  17.128   6.662  0.2414  0.3395 -0.0893
17547W        W17747  10.637  17.778  12.109 -0.0221 -0.0900 -0.0311
17548W        W17748   9.144  11.159   0.499  0.0958 -0.0178 -0.0408
17549W        W17749  10.240   0.922  12.634  0.1399 -0.1433 -0.1474
17550W        W17750   6.624  15.050  12.435  0.2322 -0.1366 -0.2042
17551W        W17751  12.637  10.900  16.805 -0.3754 -0.1908  0.0364
17552W        W17752   7.495  12.390  12.972 -0.0122  0.2281  0.1204
17553W        W17753   8.049   2.236   3.527 -0.1313 -0.0453  0.0877
17554W        W17754  16.462  12.965  11.297  0.0195  0.1554 -0.1230
17555W        W17755   7.542   6.359  12.163  0.0231  0.0114  0.2391
17556W        W17756   2.814  13.142  14.862 -0.0124 -0.2756 -0.0225
17557W        W17757   0.766  17.620   0.321  0.2555  0.1445 -0.1917
17558W        W17758  11.555  11.434   8.303  0.0681  0.0719  0.2664
17559W        W17759   3.130  15.994  15.973 -0.1012 -0.1227  0.2554
17560W        W17760   0.026   0.146   6.291  0.2375  0.1061 -0.2071
17561W        W17761  17.672   4.222  12.359  0.1967  0.0078  0.2733
17562W        W17762   9.518  12.520   1.700  0.1670 -0.0164 -0.0676
17563W        W17763   0.968   5.990  10.658  0.3436 -0.3910 -0.3665
17564W        W17764   0.635  13.253  14.105  0.3154  0.3522  0.2742
17565W        W17765  13.467  10.720   6.995  0.2461 -0.0164 -0.0139
17566W        W17766   3.369  17.175   8.583 -0.0961 -0.0730  0.1369
17567W        W17767  13.013   4.579  13.013 -0.0084 -0.0086  0.2358
17568W        W17768   7.364   7.422  14.344 -0.0513 -0.2465  0.0507
17569W        W17769  12.793  11.324  12.285 -0.0102  0.1236  0.2267
17570W        W17770  17.273  13.708  15.719 -0.0514 -0.1089 -0.0360
17571W        W17771   8.311   9.500  14.818 -0.0215  0.2205  0.2942
17572W        W17772   8.227  17.600   3.187  0.0869  0.1123  0.0801
17573W        W17773  10.139   9.328  11.629  0.1432 -0.1266 -0.0362
17574W        W17774  16.317  16.231  15.440  0.0062  0.0691 -0.3297
17575W        W17775   8.340   3.677  15.328 -0.4311  0.0145  0.1027
17576W        W17776  13.644  13.652   1.927 -0.0191  0.2695  0.4361
17577W        W17777   8.108   6.497  10.602  0.0819 -0.0345  0.1826
17578W        W17778   5.698  12.392  17.988  0.1318  0.1827 -0.2971
17579W        W17779   7.270   0.980  14.978 -0.0065 -0.2507 -0.0847
17580W        W17780   0.466  16.685   2.630  0.0650  0.0338  0.1089
17581W        W17781  11.448  16.918  12.812  0.2401 -0.0381 -0.2042
17582W        W17782  13.540  16.350  15.548  0.0109 -0.0569  0.0976
17583W        W17783   5.886  13.312   0.801  0.1301 -0.0550  0.2711
17584W        W17784  16.466  10.079   2.918 -0.4208  0.1645  0.2869
17585W        W17785  10.640  18.098  16.292  0.0746 -0.1956 -0.0102
17586W        W17786   7.631   4.195  10.471 -0.2122  0.0916 -0.0610
17587W        W17787  13.468   1.251   6.089  0.0773  0.0716  0.2280
17588W        W17788   7.576  12.925   5.741 -0.4228 -0.0542  0.0037
17589W        W17789   7.408  13.926  10.751  0.1971  0.2167  0.1421
17590W        W17790  17.620  16.471   3.900 -0.2840 -0.1020  0.1037
17591W        W17791   8.999  14.464   9.057 -0.1496 -0.2089  0.0514
17592W        W17792  13.281   6.171  14.365  0.1764  0.4083  0.0110
17593W        W17793  13.906  17.753  15.421  0.1209 -0.1220 -0.0152
17594W        W17794   4.282   6.689  14.737 -0.2669 -0.2087  0.2740
17595W        W17795   0.524  12.170  12.645  0.4439 -0.2700  0.0464
17596W        W17796   4.825  13.324  16.497 -0.0107 -0.2272  0.1305
17597W        W17797   4.352   7.768   5.991 -0.0940 -0.1041 -0.0652
17598W        W17798   6.071   8.994   7.897  0.1827  0.0955  0.1598
17599W        W17799   6.889  12.827  12.246  0.1520  0.0390  0.0595
17600W        W17800   9.007  15.106   1.080  0.3138 -0.1823 -0.2025
17601W        W17801   6.252   8.995  15.986  0.1652 -0.1930  0.1353
17602W        W17802   5.364  18.046  16.204  0.0784  0.0188 -0.1977
17603W        W17803   8.227  10.803  13.190  0.0620 -0.0703  0.1680
17604W        W17804   2.003  12.952  14.859  0.0953 -0.0938 -0.1837
17605W        W17805   8.246  12.439  14.677  0.0359  0.1211  0.1628
17606W        W17806   0.793  14.387   0.966 -0.2652  0.0967 -0.0973
17607W        W17807   7.719   9.938  15.391 -0.1077  0.3140  0.2073
17608W        W17808   7.276  10.560  18.033 -0.1239  0.1492  0.2171
17609W        W17809   1.907  13.430  12.328  0.2148  0.2352 -0.0657
17610W        W17810  17.631  17.778  15.631  0.0974  0.0424 -0.0006
17611W        W17811   2.424   6.507  14.386  0.1996 -0.2260  0.1479
17612W        W17812   6.916   4.388  13.726  0.1992  0.2367  0.1148
17613W        W17813   8.231   1.529   3.998 -0.0598  0.1183 -0.0691
17614W        W17814   5.513  15.902  15.752  0.3553  0.2104 -0.0126
17615W        W17815  10.282   0.765  12.122 -0.0473  0.2843  0.3374
17616W        W17816   3.936  12.846   9.580  0.1216  0.0677 -0.0658
17617W        W17817   4.365  10.373   0.769  0.1630 -0.0810 -0.2877
17618W        W17818  11.455   0.533  17.450  0.1234 -0.1462  0.2031
17619W        W17819  11.336   8.222  16.757  0.2398 -0.1898 -0.3318
17620W        W17820  16.012  15.430  17.787  0.0510  0.2628 -0.0210
17621W        W17821   1.097  10.006  16.028  0.2569  0.1270  0.1167
17622W        W17822   1.323  10.118  14.776  0.1007  0.0444 -0.0495
17623W        W17823  17.061  13.085  12.720  0.4548 -0.1896  0.0702
17624W        W17824   5.729  12.925   2.221  0.3619  0.2040  0.2971
17625W        W17825   9.952   8.303  17.275  0.1011  0.2717  0.1609
17626W        W17826   1.548  17.616  13.062  0.0852 -0.0511  0.3502
17627W        W17827   3.955  16.469   1.131 -0.3605  0.1053  0.2062
17628W        W17828  15.652   4.269  11.646 -0.2387  0.0981 -0.0290
17629W        W17829   3.107  13.573  13.308  0.0320 -0.0129  0.2779
17630W        W17830   1.592  11.876   8.449  0.1615 -0.1715  0.5200
17631W        W17831   2.636   7.510   1.492 -0.1086 -0.0171 -0.0132
17632W        W17832   7.632  13.268  11.904 -0.0207  0.1263  0.0225
17633W        W17833   9.913  10.400   3.819  0.2402  0.0009  0.2594
17634W        W17834  17.819   7.487   1.288  0.0381  0.1460  0.0894
17635W        W17835   5.036  11.951  16.202 -0.1689 -0.1144  0.1154
17636W        W17836  17.526   3.863   3.629 -0.0585 -0.0640 -0.3142
17637W        W17837  10.337   7.446  13.911  0.2607  0.2476 -0.0927
17638W        W17838   9.721  10.570  16.497 -0.1035 -0.1872 -0.1566
17639W        W17839   2.320  16.478   8.430  0.2030 -0.4535  0.0577
17640W        W17840  12.270   9.382  12.550 -0.0283  0.1679 -0.1206
17641W        W17841   3.734   5.865   2.456 -0.0208 -0.1869 -0.0828
17642W        W17842   8.240   0.205  17.971 -0.0369 -0.2049  0.2324
17643W        W17843   5.521  16.509  15.845 -0.0776 -0.0096 -0.1753
17644W        W17844   2.115  11.850  17.743 -0.3371 -0.2824  0.3972
17645W        W17845  10.042   9.311   1.119 -0.2086  0.1494  0.3118
17646W        W17846   2.459  15.013   7.831  0.2541 -0.0037  0.3410
17647W        W17847  12.654  11.113  14.482 -0.0625 -0.0871 -0.0015
17648W        W17848   4.581  11.578   7.785 -0.1248  0.0260 -0.0016
17649W        W17849   3.105   8.825  15.692 -0.0608  0.0454 -0.2037
17650W        W17850   2.199   1.607   1.950  0.1322  0.2907  0.1946
17651W        W17851   3.887  12.574  16.042  0.1798 -0.3320 -0.0409
17652W        W17852  15.568  11.475  14.023  0.1485 -0.0509 -0.1025
17653W        W17853   9.107   2.585  10.665  0.2642  0.1453 -0.1616
17654W        W17854   7.765   1.781   3.829 -0.0749  0.3539 -0.0088
17655W        W17855   4.599  10.121   5.022 -0.1657 -0.2665  0.0524
17656W        W17856  15.647   1.991  12.945  0.0253 -0.1206  0.0819
17657W        W17857  13.684  10.728   5.282 -0.3776  0.0253 -0.0829
17658W        W17858   8.983  11.318   7.852 -0.2338  0.0032 -0.0802
17659W        W17859  12.886   5.436  16.128  0.3880 -0.3001 -0.0027
17660W        W17860   5.883   1.144  14.974 -0.1651  0.0763  0.4669
17661W        W17861   0.445   2.118  14.944 -0.2102 -0.0682 -0.3025
17662W        W17862   2.365  16.700  12.257 -0.0005  0.2267 -0.2294
17663W        W17863  12.022  13.326  15.993  0.0816 -0.1107  0.0223
17664W        W17864   0.571  15.807   8.383  0.1340 -0.1145  0.0961
17665W        W17865   7.460   5.353   5.709  0.1116 -0.2028 -0.0322
17666W        W17866   3.607  14.645  10.102  0.0796  0.1737  0.0763
17667W        W17867   7.412   6.306  14.410 -0.2700  0.2965 -0.3628
17668W        W17868  10.248   4.394   5.885  0.0057  0.2622 -0.0821
17669W        W17869  10.591  15.343   5.324  0.2226 -0.0703  0.0170
17670W        W17870   3.237   9.760  10.553 -0.2407  0.2863 -0.1077
17671W        W17871  16.614  17.845  17.922 -0.1561  0.0475 -0.5444
17672W        W17872  18.034   9.333   1.463  0.1351  0.0193  0.1709
17673W        W17873  15.712  13.243  17.737  0.1809 -0.1586  0.4665
17674W        W17874   8.906  12.922  17.213  0.0573  0.2429 -0.0848
17675W        W17875   6.206   9.234  11.216 -0.1414 -0.0565 -0.1064
17676W        W17876  10.170  17.009  11.595  0.0144  0.0141  0.1290
17677W        W17877  15.839  13.192  12.644  0.0809  0.0852  0.4798
17678W        W17878   0.823  14.994  17.316 -0.2399  0.1813 -0.0240
17679W        W17879   1.111   8.506   4.345  0.2546  0.0745  0.1096
17680W        W17880   1.521  12.030   5.790  0.0594 -0.1053 -0.0290
17681W        W17881  17.224  13.575  17.877 -0.0473 -0.1634 -0.2900
17682W        W17882   3.391   0.697  16.176  0.0676 -0.0570 -0.0197
17683W        W17883   5.100  10.626   2.384  0.1163 -0.0858  0.0184
17684W        W17884  12.153  14.662  14.670  0.0435 -0.0920 -0.0117
17685W        W17885  10.023   5.438   1.934  0.1791  0.2954  0.2632
17686W        W17886   7.433  17.628  16.549 -0.2452  0.2521 -0.1822
17687W        W17887  14.476  11.221  11.657 -0.0977  0.2343 -0.1672
17688W        W17888   3.275  17.739   0.231 -0.2900 -0.0790  0.0059
17689W        W17889  10.900  15.796   4.638  0.2117  0.1569 -0.0011
17690W        W17890   8.256  17.474   7.907 -0.1165 -0.2696 -0.0046
17691W        W17891  16.525   7.104  13.559 -0.1297 -0.0294  0.2950
17692W        W17892  18.067  13.051   5.802 -0.0516  0.1696 -0.4977
17693W        W17893  18.018   1.688  13.623  0.1243  0.0516 -0.1574
17694W        W17894   8.582   4.828  14.852 -0.0773  0.1030  0.3018
17695W        W17895   5.990   9.994   1.174  0.2289  0.2435  0.4609
17696W        W17896   8.899  16.708   5.897 -0.0628 -0.0062 -0.1670
17697W        W17897   5.189   8.363  17.426 -0.1267  0.1469 -0.3146
17698W        W17898  17.876  13.212  13.035 -0.1758  0.2805  0.1463
17699W        W17899   7.727   9.899  11.292  0.1131  0.0568 -0.1255
17700W        W17900  13.078  14.829  12.591  0.0765 -0.2079 -0.2268
17701W        W17901   7.242  15.006   0.669  0.0513  0.2002  0.0072
17702W        W17902   4.582  14.761   4.546  0.1377  0.4271  0.4316
17703W        W17903  18.143   8.831   3.094 -0.0132 -0.2149  0.2390
17704W        W17904   5.063  12.684  13.249  0.1122 -0.1900 -0.2147
17705W        W17905   9.667  11.721  16.663  0.1260  0.1387 -0.1160
17706W        W17906  12.383  10.511   3.142  0.1186  0.0093 -0.0500
17707W        W17907  12.330   7.604  15.082 -0.2201  0.1405  0.0754
17708W        W17908   8.313   2.474   0.904  0.0115 -0.3139 -0.0784
17709W        W17909  10.231  13.691  11.380  0.0520 -0.0360  0.1481
17710W        W17910   1.478   0.162  13.831 -0.1287  0.1910  0.0472
17711W        W17911  17.508  13.141  14.137 -0.0820 -0.1504  0.2845
17712W        W17912   1.559   5.807   1.811  0.2887 -0.0477  0.1149
17713W        W17913   1.649  11.864   0.470 -0.4676 -0.1609  0.0044
17714W        W17914   9.040  14.280   8.561  0.2037  0.0483 -0.2849
17715W        W17915   7.951   3.784  13.095 -0.0446 -0.0382  0.1018
17716W        W17916  10.371  12.369  12.579  0.1625  0.1264 -0.3127
17717W        W17917   6.224  17.915  13.422  0.0800 -0.2759 -0.0553
17718W        W17918   6.720   2.475  10.436  0.1853 -0.1906 -0.1669
17719W        W17919   0.256   2.427  16.701  0.4244  0.0456  0.3137
17720W        W17920   4.066  12.122  11.405 -0.2775  0.0987  0.1577
17721W        W17921   9.443   1.477   6.303 -0.2167  0.0344  0.1421
17722W        W17922   9.612  13.678  15.363 -0.0751 -0.0923 -0.0032
17723W        W17923   1.625   7.358  17.958 -0.0056 -0.1002 -0.0871
17724W        W17924   2.580  10.421  12.420  0.2630  0.0696 -0.0320
17725W        W17925   1.776  15.960  12.893  0.0858 -0.0736 -0.2288
17726W        W17926  17.632  16.203   9.723  0.0518 -0.1538  0.0716
17727W        W17927   4.100   9.505   1.137 -0.1613  0.0787  0.0066
17728W        W17928   9.974   0.983   0.322  0.0309 -0.2581 -0.0337
17729W        W17929  12.132  11.136  10.444  0.4181 -0.1044 -0.1130
17730W        W17930   1.429   8.841  11.284  0.0357  0.0566 -0.1168
17731W        W17931   1.640  17.516  15.552  0.2528  0.1765  0.0358
17732W        W17932   9.157  11.479   1.267  0.0271 -0.0727 -0.0128
17733W        W17933   0.534   7.894  11.309 -0.1380 -0.3930 -0.3886
17734W        W17934   6.388   6.358  13.390 -0.3590 -0.1071  0.3143
17735W        W17935   2.313  18.191   0.986 -0.2692  0.0642  0.2571
17736W        W17936   6.116  16.247  12.871 -0.4371  0.1158  0.1471
17737W        W17937  12.224   3.769  11.050 -0.1530 -0.1079 -0.0644
17738W        W17938   2.212   5.714  18.109 -0.2006 -0.3906  0.2466
17739W        W17939   3.722  13.554  16.900 -0.2696  0.0156  0.1515
17740W        W17940   8.197  18.156   4.356 -0.1043  0.3851  0.0684
17741W        W17941  12.059  14.399   4.868 -0.0296 -0.0896 -0.0402
17742W        W17942   6.778   8.280  13.520 -0.0841  0.0388 -0.2477
17743W        W17943   7.022  14.292  15.857  0.2753  0.0622 -0.2437
17744W        W17944  12.118   8.079   6.883 -0.0642  0.2455  0.0728
17745W        W17945   1.662  10.991  16.645  0.1834 -0.3010 -0.1859
17746W        W17946  16.663   9.374  13.481 -0.0235 -0.2105 -0.0287
17747W        W17947  14.120  15.353   1.123  0.1977 -0.1616 -0.0170
17748W        W17948   3.326  11.839  13.626 -0.4120 -0.1097  0.2645
17749W        W17949   6.861   7.439   0.298 -0.0070  0.1316 -0.0169
17750W        W17950  14.070  18.090  15.019 -0.1381 -0.0542  0.1013
17751W        W17951  14.214  15.418   8.603 -0.2498  0.2936 -0.1111
17752W        W17952   7.516   8.824   6.786  0.2833  0.2659 -0.3638
17753W        W17953   4.074  12.806  17.916  0.0501 -0.1603  0.2260
17754W        W17954   8.285  10.253  17.959 -0.0391  0.0527  0.1868
17755W        W17955   7.626  15.608  11.213  0.0472 -0.2083 -0.1956
17756W        W17956  11.191  10.188  15.572  0.0551  0.0271 -0.0627
17757W        W17957   3.066   9.747  11.138 -0.1177 -0.3859  0.0046
17758W        W17958  17.943   9.973   8.312  0.1793 -0.5379  0.0471
17759W        W17959   7.060  17.364  14.414  0.3101 -0.0036  0.2362
17760W        W17960   6.510  13.394   2.490 -0.2294  0.2746 -0.0619
17761W        W17961   4.054  12.096  14.631  0.1249  0.2024  0.1073
17762W        W17962   6.021  11.488  14.717 -0.1860 -0.1366 -0.0673
17763W        W17963   9.238   8.625  16.193  0.0199 -0.0684 -0.2686
17764W        W17964   0.079  15.123   0.781  0.0218 -0.1298 -0.1288
17765W        W17965  15.139   0.014   0.319 -0.2208  0.5947 -0.1241
17766W        W17966   3.867  11.239   2.773 -0.1559  0.0404  0.3557
17767W        W17967   4.162  10.827  12.750 -0.0027 -0.2176  0.2227
17768W        W17968   4.155  14.729  14.273  0.2218 -0.0822  0.1607
17769W        W17969   7.238   5.166  16.519  0.1698 -0.1168 -0.2326
17770W        W17970   8.546  13.665  12.432  0.1153 -0.0024 -0.1238
17771W        W17971   2.398  13.799  13.990  0.1112  0.1767  0.0878
17772W        W17972   5.115   2.306   2.960  0.0354 -0.1394 -0.2976
17773W        W17973   7.817   9.993   0.384 -0.0448 -0.0347 -0.0607
17774W        W17974   3.530   4.235   0.045  0.2429  0.3328 -0.0438
17775W        W17975   2.980  15.734  18.007  0.2435 -0.0986 -0.2208
17776W        W17976  13.444  11.147   9.576  0.0418 -0.2746 -0.2241
17777W        W17977   4.770   7.885   3.347 -0.0231  0.2816  0.0293
17778W        W17978  15.066   6.036   0.477  0.0072  0.0519  0.0823
17779W        W17979   7.452   0.854  11.066  0.0834  0.1947  0.2555
17780W        W17980   8.912   0.575  17.485 -0.1637  0.2428 -0.0084
17781W        W17981   8.843   5.603  15.341 -0.2095  0.1291  0.0211
17782W        W17982   0.364  12.836  13.886 -0.1865 -0.0579  0.1327
17783W        W17983   3.703  10.677  16.650  0.0257  0.1530  0.1481
17784W        W17984   0.916   7.642  10.380  0.0937  0.2709  0.0464
17785W        W17985   7.270  12.008  16.895 -0.1680  0.0290 -0.1794
17786W        W17986   8.997   0.101  12.303 -0.2002  0.2572 -0.2569
17787W        W17987   7.682  15.470   8.881  0.2551  0.2513 -0.0278
17788W        W17988  11.768   9.557  14.826 -0.3171 -0.1747  0.1355
17789W        W17989  10.512   4.435  15.962  0.0280 -0.0194  0.3269
17790W        W17990   9.506   2.154   8.293  0.1133  0.1630 -0.0411
17791W        W17991   7.341  16.145   3.321  0.2224 -0.3005 -0.2772
17792W        W17992   0.736   5.898   1.518 -0.0571  0.1226 -0.0221
17793W        W17993   6.569   6.794   6.400 -0.0862 -0.0961  0.2420
17794W        W17994  13.515  11.419   7.616 -0.1917  0.0362  0.0333
17795W        W17995  10.455   0.737  17.370  0.2799  0.1079 -0.0139
17796W        W17996   2.735  16.698  15.120  0.1778  0.0766 -0.2862
17797W        W17997   8.602  13.155  16.265  0.2358  0.0526  0.1312
17798W        W17998   6.348  13.682   6.474 -0.0421 -0.5398  0.2295
17799W        W17999   7.729   5.948   2.574 -0.1533 -0.0248 -0.0582
17800W        W18000   5.475  15.770  12.218  0.2098 -0.2776  0.1132
17801W        W18001   3.946  10.431   1.117 -0.2558  0.2597  0.0051
17802W        W18002  10.079  15.123  14.567 -0.1850 -0.0181  0.1705
17803W        W18003   7.282   9.346  17.413  0.0248 -0.0359  0.0974
17804W        W18004  13.544  13.361  14.264 -0.0726 -0.4157 -0.2760
17805W        W18005   6.923  15.704  10.082  0.1243 -0.0800  0.3340
17806W        W18006   8.692   8.595  12.242 -0.1137 -0.0493  0.1081
17807W        W18007   9.114   8.489  14.897 -0.2870  0.0666 -0.1223
17808W        W18008  17.601   7.798   6.758 -0.1325  0.1254  0.0900
17809W        W18009  13.491   4.636  13.869 -0.0272 -0.0181 -0.4006
17810W        W18010  13.472  15.430   5.783 -0.1488 -0.0408  0.1895
17811W        W18011  10.468  12.510   2.939 -0.1296  0.3134 -0.0541
17812W        W18012   4.442   9.903  13.875  0.0351 -0.0831  0.0162
17813W        W18013  13.742  12.519  13.115  0.1166  0.1664 -0.1243
17814W        W18014  18.184   6.278  13.693 -0.1087 -0.0055  0.2770
17815W        W18015  10.899   9.060  16.967 -0.0733 -0.1521  0.2704
17816W        W18016   8.810  17.153   6.162 -0.0562  0.0080  0.2198
17817W        W18017   5.488   8.453   7.608  0.0074 -0.1587 -0.0715
17818W        W18018  10.105  12.616  11.722 -0.2636  0.1776 -0.1269
17819W        W18019   0.221  16.236  16.017 -0.2503  0.0499  0.0726
17820W        W18020   8.099   3.913  16.869  0.0592  0.2752  0.1163
17821W        W18021   3.320  15.829   3.633  0.2306 -0.0238 -0.0826
17822W        W18022   1.450  13.922  11.561 -0.0824  0.1434 -0.0390
17823W        W18023  11.167  10.280  14.801 -0.2088  0.0770 -0.0437
17824W        W18024   6.407  14.819   9.356 -0.2977  0.0087  0.0337
17825W        W18025  12.318  14.419  17.060  0.1804  0.1089 -0.0758
17826W        W18026  17.230  16.284  17.145  0.2639  0.2388  0.3841
17827W        W18027  16.740  14.336  16.367  0.1447  0.1440  0.0973
17828W        W18028   7.624  17.081  16.105 -0.2703  0.2768  0.0804
17829W        W18029   1.306  11.573  10.152 -0.3017 -0.0082 -0.1383
17830W        W18030   0.865   1.554   3.471 -0.0593 -0.1239  0.0995
17831W        W18031   7.382  11.667  13.538 -0.1665  0.0042 -0.0072
17832W        W18032   6.794  10.521  10.251 -0.2529  0.2850  0.0093
17833W        W18033   7.215  13.793  15.796 -0.0397 -0.2163 -0.0911
17834W        W18034  10.389  12.013  15.934 -0.0856  0.2408  0.1981
17835W        W18035   2.197  12.866  16.112  0.0845  0.0742 -0.0243
17836W        W18036   9.686   0.743  16.739  0.2803  0.0118  0.1882
17837W        W18037  17.954  12.715  12.312 -0.1358 -0.1217  0.2543
17838W        W18038   1.890  13.816  14.731  0.0245  0.1434 -0.0382
17839W        W18039   0.318  13.107  16.470 -0.1450  0.0458  0.1507
17840W        W18040   2.845   3.340   3.967  0.0932 -0.0531  0.0706
17841W        W18041  12.866   9.994  16.180 -0.0245 -0.0318 -0.2273
17842W        W18042  13.108   0.725   0.264  0.0951  0.0157  0.0631
17843W        W18043   7.152   2.756   0.253  0.1121 -0.0059 -0.0942
17844W        W18044   2.701  13.660  13.514  0.2849  0.1406 -0.2790
17845W        W18045   9.175  14.764  16.223  0.2610 -0.4292  0.1254
17846W        W18046  14.898  15.159  12.587 -0.2585 -0.2202 -0.0545
17847W        W18047  11.198   9.750  14.628  0.0602 -0.0119 -0.0619
17848W        W18048  12.807   9.476  16.757 -0.1151 -0.0696  0.1373
17849W        W18049  13.020   2.906   4.398  0.2078 -0.2419  0.3297
17850W        W18050  16.520  11.247  16.863  0.0920  0.3038  0.2773
17851W        W18051   4.056   3.892  14.334  0.0952 -0.1335 -0.0152
17852W        W18052   9.245  15.823   4.347 -0.2667 -0.0939 -0.2571
17853W        W18053   4.185  10.807   6.938 -0.0187  0.0835  0.0624
17854W        W18054   6.086   8.447   2.781 -0.1937  0.0017  0.2404
17855W        W18055   7.557   8.241   6.612  0.0765 -0.1222 -0.1275
17856W        W18056   2.847   5.094  12.078  0.0820 -0.1952 -0.1888
17857W        W18057  16.028   7.739  15.727  0.2423  0.2049  0.1996
17858W        W18058  11.708  12.989  17.893 -0.0153  0.1378 -0.0930
17859W        W18059   5.197  16.438  14.937  0.1175 -0.0320  0.0879
17860W        W18060  12.070  13.623  11.399 -0.1272 -0.0132 -0.0575
17861W        W18061   6.395  13.330  17.926 -0.4478 -0.1840 -0.1014
17862W        W18062   2.869  14.236  15.779 -0.0180 -0.0035 -0.0936
17863W        W18063   5.549   6.165   0.343 -0.2543  0.1242 -0.2141
17864W        W18064   8.815  13.508  16.567 -0.1183  0.3089  0.2749
17865W        W18065  16.284   7.123  11.847  0.2453 -0.2352  0.0708
17866W        W18066  15.961  14.113  17.350  0.1471 -0.0226 -0.1147
17867W        W18067  10.422   2.399   8.196  0.2589 -0.1264 -0.0471
17868W        W18068   7.348   2.215   6.321  0.0560  0.1095 -0.1098
17869W        W18069   9.701  10.898  15.961  0.0190 -0.1435 -0.0924
17870W        W18070   1.582  10.700  16.070 -0.2748 -0.2156  0.1423
17871W        W18071  10.889  12.303   2.673 -0.0283  0.1403  0.1234
17872W        W18072   0.635   4.645  16.010 -0.0506  0.0206 -0.1911
17873W        W18073   7.988   4.462   9.248 -0.0907 -0.0172  0.1299
17874W        W18074  16.003  11.972   1.850  0.1654 -0.1690 -0.2259
17875W        W18075   4.940  14.857  16.198  0.0406  0.2601  0.0925
17876W        W18076   2.272  14.044  13.499  0.1771 -0.0820 -0.0961
17877W        W18077   8.437  15.321  12.477 -0.1356  0.0838 -0.0525
17878W        W18078   2.661  17.971  15.148  0.1004  0.1355 -0.3095
17879W        W18079  16.488  16.004  16.181 -0.1710 -0.1026 -0.1781
17880W        W18080   1.111   4.195  13.257 -0.0630 -0.1794  0.2678
17881W        W18081   4.416  16.462   3.013 -0.0641 -0.3226 -0.1198
17882W        W18082   4.929  16.477  16.556 -0.0953  0.1268  0.1964
17883W        W18083   6.721  17.621  17.092 -0.0229  0.2305  0.1289
17884W        W18084  17.900  16.649   5.659 -0.0529 -0.0630 -0.1380
17885W        W18085  10.708  11.958   2.348  0.0839 -0.2058 -0.1436
17886W        W18086   5.043  17.154  12.800  0.1559 -0.1133 -0.1701
17887W        W18087   4.245  11.797  13.597 -0.1440  0.2201 -0.1003
17888W        W18088   6.739  12.568   1.646 -0.0324 -0.1359 -0.0290
17889W        W18089  11.656  12.136  17.260  0.2967  0.1402 -0.2560
17890W        W18090   8.717   0.345   0.723  0.0557 -0.0551 -0.1903
17891W        W18091   3.986   8.472  14.474  0.0360 -0.0620 -0.2867
17892W        W18092   4.203   5.735  13.641  0.1576  0.2238 -0.0695
17893W        W18093   4.164  16.138   3.774 -0.0495  0.1442  0.1956
17894W        W18094   5.414  13.390   9.756 -0.0481  0.1990  0.2453
17895W        W18095   8.840  15.699  15.239  0.0858 -0.0768 -0.0020
17896W        W18096   9.075   9.045  16.499 -0.2150 -0.1350  0.2837
17897W        W18097   7.217   8.654   0.510  0.2260  0.0121 -0.0716
17898W        W18098  12.022  12.637   9.747 -0.0807  0.0679 -0.2451
17899W        W18099   3.819   0.422  17.345 -0.0599 -0.0543 -0.0071
17900W        W18100   6.724   0.044   6.381  0.0612 -0.1434  0.0528
17901W        W18101   0.899  10.228   2.730 -0.1840 -0.0989 -0.1328
17902W        W18102   1.359   0.345   4.367 -0.0994  0.0245  0.0153
17903W        W18103   1.283  16.339  17.047  0.1492  0.0394  0.0807
17904W        W18104   4.208  13.436  16.800  0.0822  0.0179 -0.0112
17905W        W18105   6.217  13.150  10.409 -0.2170 -0.0142  0.1783
17906W        W18106   4.096  16.749  15.401 -0.3147 -0.3131 -0.0585
17907W        W18107  15.044  11.566  13.971  0.1303  0.3438  0.2163
17908W        W18108  10.549  17.891  14.748 -0.2088 -0.3938 -0.1595
17909W        W18109   2.842  18.001   0.921  0.0786 -0.1351 -0.3270
17910W        W18110   3.345  17.315  16.864  0.1455 -0.1387  0.2123
17911W        W18111   4.551   5.278  13.891  0.0904 -0.2025  0.0444
17912W        W18112   1.745  13.446   0.531  0.1025  0.0432  0.3892
17913W        W18113  15.371   9.091  14.755 -0.1984 -0.0304 -0.2542
17914W        W18114  16.721   6.432  14.925  0.0802  0.2506 -0.1531
17915W        W18115  16.560  12.125  15.168  0.1899  0.5512  0.0302
17916W        W18116   9.208  11.417  15.493 -0.2371 -0.1615  0.0439
17917W        W18117   3.086   8.455  16.608  0.1255 -0.0917  0.1224
17918W        W18118   5.675  12.338   1.820 -0.1579  0.0062 -0.2548
17919W        W18119   8.772   8.279  11.243 -0.0953  0.0994 -0.5300
17920W        W18120  17.797   7.626  16.220 -0.1298 -0.2783 -0.1187
17921W        W18121   5.225   9.958  11.737  0.2043  0.0809 -0.0195
17922W        W18122   1.592  11.659  15.295  0.0621  0.0958 -0.0847
17923W        W18123   6.257  10.510  13.219  0.1098  0.1552  0.1220
17924W        W18124  17.420  10.869   9.445 -0.1576  0.2646  0.0955
17925W        W18125  16.400   7.233  12.653  0.1634 -0.1911 -0.1583
17926W        W18126   5.876  13.850  16.442  0.0396  0.1113  0.1534
17927W        W18127   7.334  13.980   1.563 -0.1355 -0.3327  0.1639
17928W        W18128   5.426   7.431  15.198  0.0501 -0.0941  0.3722
17929W        W18129   3.241  17.464  11.266 -0.1883 -0.5232 -0.0577
17930W        W18130   2.546  11.001  15.285  0.0293 -0.0681 -0.0172
17931W        W18131  16.668  12.503   0.729  0.0414 -0.1766 -0.0235
17932W        W18132   7.450   7.898  14.931  0.0212  0.1068  0.2624
17933W        W18133   3.200   1.006  14.369 -0.0570 -0.1556 -0.0850
17934W        W18134   3.812  12.940  12.215 -0.0226  0.0354  0.1468
17935W        W18135   4.155   2.849  16.967 -0.2000  0.0958  0.3339
17936W        W18136   4.769  14.284   9.080  0.2129  0.1708  0.1507
17937W        W18137   9.453  12.706  12.690 -0.2158 -0.2791 -0.2311
17938W        W18138   6.797  14.123  14.452  0.3420  0.0788  0.4117
17939W        W18139  16.038  14.466   8.311 -0.0885  0.1587 -0.1116
17940W        W18140   7.318  15.999   0.845  0.1402  0.2222 -0.0818
17941W        W18141   0.721  16.888  17.340 -0.2815 -0.1352 -0.0580
17942W        W18142   3.251   8.162  16.999 -0.1108  0.2696 -0.1105
17943W        W18143   5.989  17.727   0.151 -0.1371 -0.1460  0.0141
17944W        W18144   6.098  14.461   1.250 -0.1361  0.1360  0.3622
17945W        W18145   8.180   7.679   6.568  0.0366  0.2284  0.2607
17946W        W18146  10.008  10.328   0.491  0.2938  0.0819 -0.1214
17947W        W18147  11.246   5.549   0.764  0.1557  0.1888 -0.1756
17948W        W18148   6.981   5.021  12.610 -0.0866  0.0148 -0.1988
17949W        W18149   5.324  16.714  17.655 -0.3036 -0.1965 -0.0164
17950W        W18150  10.374  10.139  15.758 -0.0375 -0.3730  0.1625
17951W        W18151   3.476  13.667  14.986 -0.1331  0.2777  0.1396
17952W        W18152  15.757  12.493   2.741  0.1395  0.0582  0.0771
17953W        W18153   5.362   0.816  16.327  0.1027 -0.2403  0.1910
17954W        W18154   2.265  17.570  16.195  0.0984 -0.0315  0.3108
17955W        W18155  15.113  13.663  16.867  0.2802  0.0939  0.4135
17956W        W18156  17.562  15.903  14.740  0.0777 -0.2863 -0.5456
17957W        W18157   3.665   9.299  14.956 -0.3207 -0.0920  0.1950
17958W        W18158   1.482  15.229   9.701 -0.2429  0.0071 -0.2605
17959W        W18159  17.752   1.030   7.786 -0.1980  0.5614  0.4289
17960W        W18160   4.432   0.345  14.163  0.2805  0.3288  0.1773
17961W        W18161  17.682  14.954   1.347 -0.1150  0.0993 -0.1762
17962W        W18162   7.001  12.727   3.979 -0.0040 -0.1241 -0.2248
17963W        W18163   4.640  10.542   3.804  0.0869 -0.2251  0.1769
17964W        W18164  10.313   5.487   6.344  0.2942  0.2625  0.1617
17965W        W18165   6.460   1.320  10.769 -0.0449 -0.0350  0.0415
17966W        W18166   2.118  11.445   9.628  0.1410  0.0722 -0.0162
17967W        W18167   3.614   5.436  12.866  0.2027 -0.1388  0.2383
17968W        W18168   8.394   7.462  12.864 -0.0949  0.1921  0.1999
17969W        W18169  17.957  13.357  15.069 -0.3152  0.0252 -0.2786
17970W        W18170   4.798   1.078   7.383  0.0946  0.0362  0.3780
17971W        W18171   2.757  11.563  17.895  0.2477  0.0761  0.1872
17972W        W18172   4.828  11.252  16.200 -0.2642  0.3128 -0.2208
17973W        W18173  12.797  14.442   9.572  0.0714  0.1286 -0.0352
17974W        W18174   9.508  10.148   7.267 -0.0325  0.1813  0.2640
17975W        W18175   8.555   5.474  17.923  0.2447  0.1553  0.1594
17976W        W18176   5.616  13.375  14.070 -0.3025 -0.0037 -0.0956
17977W        W18177  17.020  11.025  17.041 -0.0379 -0.5608 -0.0810
17978W        W18178   8.726  14.870  14.244  0.3020 -0.1349 -0.0970
17979W        W18179   4.910  13.905  11.872  0.1357  0.3283  0.0121
17980W        W18180   1.458   4.237  17.531 -0.2278 -0.2031 -0.2045
17981W        W18181   6.730   0.169  17.550 -0.0762  0.3190  0.3096
17982W        W18182   6.867  13.696   2.487  0.0573 -0.1747  0.0473
17983W        W18183   7.167  16.749   9.408 -0.0816  0.3084  0.3412
17984W        W18184   8.947  14.538  10.445 -0.1350  0.1396 -0.1822
17985W        W18185   4.129  18.156  14.485  0.2293  0.0605 -0.1662
17986W        W18186   4.777  16.378  14.748  0.0307 -0.2581  0.2099
17987W        W18187  17.805  11.165  13.611 -0.0834  0.0730 -0.1436
17988W        W18188   1.010   1.024  11.918 -0.1875  0.0417  0.3621
17989W        W18189  17.696  12.466  17.856  0.1774 -0.1373  0.1635
17990W        W18190   7.429  16.226  10.522 -0.0425  0.1549  0.1475
17991W        W18191   8.087  10.422  17.530  0.0588 -0.0648 -0.1360
17992W        W18192   0.314   6.771  17.755 -0.1593 -0.0723  0.1295
17993W        W18193   2.465  18.053  15.621  0.1547 -0.0999 -0.0385
17994W        W18194  14.238   8.719   6.432 -0.1899  0.1174  0.0387
17995W        W18195   3.003   9.376   7.929 -0.0530  0.2512 -0.3594
17996W        W18196  16.630  10.767  15.711  0.2007  0.0478  0.3317
17997W        W18197   1.222  17.761   0.792 -0.1880 -0.3721  0.2304
17998W        W18198   7.715   9.046  17.284 -0.2119  0.1532 -0.1553
17999W        W18199   0.247  12.281  17.279  0.0845 -0.6061 -0.1494
18000W        W18200   9.349  10.159  10.750  0.0811 -0.1791 -0.1517
18001W        W18201   3.107   6.242   8.504  0.0427 -0.0564 -0.0220
18002W        W18202  11.477   4.023   2.138 -0.0344 -0.1547 -0.1093
18003W        W18203   0.149  11.253   0.562  0.0511 -0.1914  0.0169
18004W        W18204   5.722   7.864   0.034 -0.2811 -0.0201  0.2424
18005W        W18205   9.590  14.791   3.196  0.0492 -0.1561  0.0521
18006W        W18206  16.676   2.958  15.322 -0.0153  0.0031 -0.2303
18007W        W18207  16.700  11.803   7.837  0.0506 -0.1744  0.1524
18008W        W18208  17.755  14.175  13.828 -0.0608 -0.1324  0.2566
18009W        W18209  14.591   2.066   6.211  0.1452 -0.1548 -0.1338
18010W        W18210   5.988  11.968  15.820 -0.1458 -0.0904  0.0559
18011W        W18211   6.776  12.642   0.006 -0.1518 -0.1647 -0.0029
18012W        W18212   6.391  11.980   3.917  0.1920  0.0719 -0.3283
18013W        W18213  14.224  12.961   4.721  0.1847  0.1018  0.0482
18014W        W18214  13.996  10.675   6.990  0.0105  0.3158 -0.0075
18015W        W18215   7.114  10.435  17.603 -0.2522  0.0067  0.2138
18016W        W18216   4.287  17.767  18.090  0.2290 -0.0744  0.2557
18017W        W18217   1.658  10.046  18.046  0.0610 -0.0593 -0.2176
18018W        W18218   5.014  16.206   5.300 -0.0792 -0.5905  0.3786
18019W        W18219   1.824  15.845   0.275  0.1381 -0.0023  0.1846
18020W        W18220  12.899   0.707  18.011 -0.1315 -0.1508 -0.0443
18021W        W18221   2.413   8.244  13.237  0.1195 -0.1973  0.2589
18022W        W18222   1.280   8.532   0.902  0.3526 -0.3471 -0.0044
18023W        W18223   4.350   8.207   3.062  0.1440 -0.0630  0.0070
18024W        W18224   7.647  10.496   2.763 -0.0357  0.0386  0.2137
18025W        W18225   6.381   1.113   4.417 -0.0084 -0.4872 -0.1695
18026W        W18226  11.794  16.599   4.816  0.2273  0.1022  0.3690
18027W        W18227   9.558   7.553   5.061  0.3483  0.3147  0.2133
18028W        W18228   0.606  12.623  14.368  0.0473  0.0435 -0.0059
18029W        W18229   5.786  13.284  10.715 -0.0277  0.1165  0.0663
18030W        W18230  14.998  12.412   8.119 -0.1063 -0.0632  0.1901
18031W        W18231   4.201  14.795  18.081 -0.0106 -0.0709  0.1229
18032W        W18232  17.045   1.905   4.051 -0.0814 -0.1780  0.2804
18033W        W18233  16.648  17.346  15.811 -0.1610  0.1193 -0.1246
18034W        W18234   1.402   1.834   8.736 -0.3442  0.2988  0.1534
18035W        W18235  13.072   3.508   3.158 -0.3787 -0.2877 -0.3936
18036W        W18236  14.638  16.042  14.817  0.0240  0.0821 -0.2817
18037W        W18237   6.665   2.688   3.653 -0.1930  0.0730 -0.0316
18038W        W18238  15.851   3.730   7.272 -0.0439 -0.2772  0.3170
18039W        W18239  13.820  13.579   4.091  0.1032 -0.1852 -0.0846
18040W        W18240   9.859   5.075   4.097  0.2522 -0.1314 -0.1444
18041W        W18241  14.104  12.182  16.061 -0.1972 -0.0365 -0.0861
18042W        W18242   9.160   4.437   4.378  0.0582 -0.1011  0.0492
18043W        W18243   3.821  13.767   1.449  0.1745 -0.1300  0.1952
18044W        W18244  13.213  15.594  17.202 -0.1311  0.2983  0.2154
18045W        W18245   8.396   7.551  17.657  0.1932 -0.1498  0.1617
18046W        W18246   4.668   8.974  15.665  0.0367 -0.0505  0.3355
18047W        W18247  10.130   2.962   4.279 -0.1464  0.3077 -0.2989
18048W        W18248   5.173   8.362   3.882 -0.1495  0.0060 -0.1014
18049W        W18249   2.923   2.904   4.167  0.2407 -0.1735 -0.3303
18050W        W18250   3.272  13.403   6.253 -0.3377  0.1390  0.2231
18051W        W18251   5.667   6.413   9.870  0.0800  0.0468 -0.1970
18052W        W18252   6.090  17.155  15.572 -0.0916 -0.1541  0.2522
18053W        W18253   3.663   4.371   2.011  0.0409  0.2449 -0.3408
18054W        W18254   1.644  15.003  16.708 -0.2155  0.1902 -0.2306
18055W        W18255   8.144   1.802  11.313 -0.0192 -0.0920 -0.0950
18056W        W18256   3.856   7.250  12.406  0.0903 -0.1565  0.0044
18057W        W18257   4.118  15.974   4.271 -0.0678  0.2030  0.0235
18058W        W18258   7.981  15.876  11.436 -0.0107  0.0764 -0.1326
18059W        W18259  12.589  18.010  17.615  0.0867 -0.1606  0.3887
18060W        W18260   4.971  14.588  15.388 -0.0294  0.0285  0.0072
18061W        W18261   9.305   9.862  16.349 -0.0961 -0.3245  0.0801
18062W        W18262   8.727   5.725   3.451  0.3777 -0.2048 -0.0015
18063W        W18263   5.466  10.079   2.475 -0.0107  0.1587  0.0770
18064W        W18264   7.927  11.954  18.157  0.0677 -0.0885  0.2367
18065W        W18265   6.119   7.171   6.655 -0.2030  0.2171 -0.2487
18066W        W18266   2.859   0.407   5.741 -0.0210  0.4518  0.0158
18067W        W18267  12.362   1.951  13.206  0.1046  0.0526 -0.2788
18068W        W18268   5.383   3.009   5.647  0.2207  0.1388  0.1248
18069W        W18269  11.938   9.567   3.243 -0.0755 -0.1539 -0.1547
18070W        W18270   8.920   7.389   1.957  0.2039  0.1567  0.1497
18071W        W18271   3.679  13.825   0.610 -0.0782 -0.0512 -0.0564
18072W        W18272   6.734  11.923   0.840 -0.0915 -0.0028  0.1990
18073W        W18273   7.358  16.232  14.838 -0.0701 -0.6033  0.0921
18074W        W18274  11.318   3.989  17.816 -0.1107 -0.1494  0.0554
18075W        W18275   3.683   7.853   1.675  0.0011  0.0495 -0.2752
18076W        W18276   7.947   9.695   2.121  0.0025  0.2590 -0.0472
18077W        W18277   8.452   0.375   9.272  0.0823  0.3101 -0.1832
18078W        W18278  15.268   2.127  14.739  0.1737 -0.2118  0.1163
18079W        W18279   4.712  12.501  13.987  0.1469 -0.1841 -0.0874
18080W        W18280  12.066  11.051   0.954 -0.1695 -0.2527  0.1480
18081W        W18281   4.469  16.674   1.253  0.0613 -0.0657  0.1372
18082W        W18282   1.678  12.162   7.967 -0.0665  0.0145 -0.0692
18083W        W18283   7.302   4.875  15.192  0.0508  0.1541 -0.3397
18084W        W18284   3.288   0.863  13.839 -0.0982  0.3699  0.2028
18085W        W18285   7.721   1.837   2.598 -0.0211  0.4127 -0.0527
18086W        W18286  12.948   5.542   6.056 -0.3295 -0.0874  0.1078
18087W        W18287  15.543  13.853  17.124 -0.0695 -0.2225  0.0726
18088W        W18288  15.944   2.189   6.786  0.0053  0.1879  0.1381
18089W        W18289   2.374  15.504   6.613 -0.0266 -0.0776  0.0786
18090W        W18290  16.868  10.719  14.564 -0.0262 -0.4347  0.3753
18091W        W18291   7.458   5.637   6.554 -0.0614 -0.0302  0.0064
18092W        W18292  18.207  15.995  17.337  0.3930  0.0735  0.0819
18093W        W18293   5.305   1.411  10.655  0.0260 -0.1631 -0.1138
18094W        W18294   9.515  18.027   0.864  0.0228  0.1214 -0.2819
18095W        W18295  11.280   0.527   9.288 -0.0723 -0.1785  0.1473
18096W        W18296   1.083   5.589  15.710 -0.0913  0.3002  0.0544
18097W        W18297   6.497  11.351   5.743  0.0727  0.0550  0.0701
18098W        W18298   3.919  12.614   5.507 -0.0357 -0.3952 -0.0587
18099W        W18299  10.305  14.056  17.779  0.0548 -0.2379 -0.1672
18100W        W18300  13.591  12.039   2.543 -0.1026 -0.1237  0.1202
18101W        W18301   6.716  16.932  10.393  0.1791 -0.0810 -0.4643
18102W        W18302   5.742   6.151  10.677 -0.0280 -0.0741  0.0262
18103W        W18303   1.841   9.404  14.563  0.3125 -0.1216  0.1534
18104W        W18304   7.846  17.259   8.211  0.1785  0.4595  0.2726
18105W        W18305   4.118  12.411  13.855  0.0710 -0.3180 -0.3324
18106W        W18306  10.933   5.564  16.853 -0.0787 -0.1031 -0.1768
18107W        W18307   5.827   8.216   5.380  0.3297  0.1977 -0.2136
18108W        W18308  10.917   1.988   9.406  0.0793 -0.1448 -0.2508
18109W        W18309   1.230   0.094   1.201  0.1307  0.1354  0.0067
18110W        W18310  17.491  17.649   4.773 -0.0945 -0.0571 -0.0922
18111W        W18311   0.648  16.279   2.424  0.0926  0.1473 -0.1138
18112W        W18312   8.287  12.408  15.709  0.0140 -0.0731 -0.4702
18113W        W18313   5.698  15.949  16.734 -0.1308  0.1815  0.1311
18114W        W18314   8.512  17.614  10.741  0.1643  0.1537  0.1733
18115W        W18315   6.714  13.395  13.922 -0.0729 -0.2116 -0.1390
18116W        W18316  10.327   2.008  12.730  0.0799 -0.0450  0.3467
18117W        W18317  17.676   8.912   1.048 -0.1479 -0.0868  0.1631
18118W        W18318   9.373  12.621  11.178  0.0577  0.1519  0.0874
18119W        W18319  14.074  18.150   8.381 -0.1341  0.1167  0.0194
18120W        W18320   1.839   5.486   3.729 -0.2048 -0.0227 -0.1924
18121W        W18321   3.437  16.504  15.419 -0.0815  0.0927  0.1671
18122W        W18322  10.437  12.217  17.518 -0.3006  0.0126  0.1874
18123W        W18323   1.552   1.119   9.429  0.0193  0.0500 -0.1050
18124W        W18324   7.688  16.736  14.078  0.0786 -0.0159 -0.0854
18125W        W18325   2.742   2.252   2.351  0.1313 -0.3897  0.0657
18126W        W18326  10.334  15.731  17.809  0.0329 -0.0752  0.1018
18127W        W18327   3.528   5.482  15.487 -0.1949  0.0772  0.2345
18128W        W18328  14.337   5.955  14.033 -0.0916 -0.4718 -0.0892
18129W        W18329   4.383  16.836   8.986 -0.1699 -0.2073  0.3601
18130W        W18330  16.616   2.667  16.612 -0.0219 -0.2630 -0.1267
18131W        W18331   4.164  12.997  15.955  0.0555  0.2829  0.0789
18132W        W18332   8.432  14.537   3.556  0.0225 -0.0213 -0.0886
18133W        W18333   3.927  11.157   2.212  0.1575  0.0036  0.2490
18134W        W18334   6.726  16.847   1.629  0.0199 -0.3203 -0.1116
18135W        W18335   8.892   8.923   5.216  0.2171  0.0090 -0.1244
18136W        W18336   7.922  17.582  12.064  0.1117  0.0861  0.0629
18137W        W18337   9.028   7.471   7.026 -0.1192 -0.2742 -0.5919
18138W        W18338  17.437   4.308   7.223  0.2070 -0.2813 -0.1971
18139W        W18339   6.918  17.200   2.645  0.3913 -0.2183  0.0531
18140W        W18340   1.446  10.384   2.538  0.2582 -0.0628  0.0724
18141W        W18341  15.296   6.986   3.403  0.0523 -0.0580  0.3006
18142W        W18342  12.055  15.856   2.320 -0.0065 -0.0785 -0.2387
18143W        W18343  11.126  13.866   0.207 -0.0154  0.0646 -0.0554
18144W        W18344  10.317   3.235   3.908  0.0148 -0.0340 -0.2037
18145W        W18345   8.514  11.173   3.805 -0.1976 -0.1405 -0.3679
18146W        W18346  12.483  16.861  15.674 -0.0850  0.2041  0.1462
18147W        W18347  16.959   0.927  10.717 -0.0433 -0.1292 -0.1023
18148W        W18348  13.629  16.748   2.077 -0.0088  0.1380  0.1163
18149W        W18349   2.778  10.959   0.474 -0.0081 -0.2115 -0.0089
18150W        W18350   4.485   1.785   7.773  0.2768 -0.0981 -0.0829
18151W        W18351   2.008   7.306   2.178 -0.3757  0.1696  0.1731
18152W        W18352  10.941  12.005   8.222 -0.0193 -0.1993 -0.0740
18153W        W18353   0.119  14.304  13.869  0.1078  0.1481 -0.2238
18154W        W18354   0.894   2.095   4.353  0.1753 -0.1225  0.0770
18155W        W18355   5.102   4.706  17.668  0.1863  0.1786  0.2829
18156W        W18356   0.921  12.276   7.195  0.0845 -0.3113 -0.4638
18157W        W18357   1.067   4.350  17.892 -0.1944 -0.2155  0.1103
18158W        W18358   4.535  18.052  13.304  0.1745  0.3695  0.2105
18159W        W18359  14.858   1.091  15.659 -0.1978  0.1513  0.1724
18160W        W18360   1.411   1.672   7.757 -0.2351 -0.0796  0.2043
18161W        W18361  10.786   7.559   3.826 -0.0398  0.0164 -0.0261
18162W        W18362  11.781  16.242   5.261 -0.1712 -0.0252  0.1618
18163W        W18363  14.467   2.983   1.332 -0.0464  0.2693  0.0619
18164W        W18364   2.047  13.869   0.227 -0.1849  0.0877  0.3269
18165W        W18365   9.773   2.431   3.589 -0.1041  0.2638  0.0630
18166W        W18366   8.862  10.880   6.484 -0.0375 -0.1696 -0.1921
18167W        W18367   6.471  16.475  12.534 -0.1356  0.0338  0.1041
18168W        W18368   9.091  12.023   2.050  0.0331 -0.2903 -0.1212
18169W        W18369  16.387  18.174   5.140 -0.0850 -0.2202  0.1820
18170W        W18370   0.883  17.587  11.237  0.2028  0.0718 -0.1479
18171W        W18371   2.372  13.403  16.800  0.1536  0.0399  0.0462
18172W        W18372   2.083  12.587   5.375  0.2305  0.0374 -0.2417
18173W        W18373   8.644  10.472   4.389  0.0582 -0.0429  0.1948
18174W        W18374   1.123  14.366   1.922  0.1217  0.0275 -0.0293
18175W        W18375   4.987  13.556   4.375  0.2998  0.0764 -0.0159
18176W        W18376   0.950  15.654   5.483  0.0921  0.1124  0.3115
18177W        W18377   3.276  15.051   7.918  0.1534  0.0168 -0.0651
18178W        W18378   3.817  13.553   0.975  0.0467  0.0915  0.1120
18179W        W18379   7.321   6.661   9.663 -0.1447 -0.2943  0.0958
18180W        W18380   8.872  10.228  16.331  0.2716 -0.2058 -0.1356
18181W        W18381   6.019   1.256   0.748  0.3658  0.2035 -0.0159
18182W        W18382   4.240  17.663   7.295  0.1853  0.3011  0.0570
18183W        W18383   3.839   7.793  16.926 -0.2272 -0.1651 -0.0704
18184W        W18384   2.231  18.152   5.764  0.2251  0.0984 -0.0742
18185W        W18385   1.283  17.476  17.714  0.0396 -0.0017  0.0271
18186W        W18386   4.506   0.803  10.915 -0.2505 -0.0769  0.0013
18187W        W18387   9.077  10.949  12.395 -0.0113 -0.0523 -0.4162
18188W        W18388  17.009  10.003   3.109  0.0548  0.0709  0.0185
18189W        W18389  13.153  14.095   1.398  0.0816  0.2926 -0.3699
18190W        W18390   1.337   0.463   6.414 -0.1502  0.2497 -0.0101
18191W        W18391   2.698  13.029   7.529 -0.0560 -0.2590  0.1077
18192W        W18392   6.676  15.748  15.308 -0.0740  0.3278  0.0083
18193W        W18393   9.496  17.147   2.368  0.2052 -0.1325  0.3740
18194W        W18394   2.875   0.106   9.565  0.0243  0.1251 -0.2587
18195W        W18395  18.206  13.143  17.705  0.0837  0.0463 -0.0274
18196W        W18396   3.012   7.618   7.954 -0.1917  0.0564  0.2352
18197W        W18397   2.029  15.509  17.774 -0.1478  0.0619  0.0110
18198W        W18398   3.999  17.143   0.519  0.0577  0.0967  0.1603
18199W        W18399   6.486   9.453  15.851 -0.1862 -0.1178  0.2620
18200W        W18400  11.710  12.766   2.963  0.1297 -0.0711 -0.2810
18201W        W18401   6.116   3.988   3.275  0.1055 -0.3177 -0.0478
18202W        W18402  11.480  11.778   5.230 -0.1334 -0.1405 -0.2393
18203W        W18403  12.473  10.921  17.687  0.0579  0.1059 -0.0068
18204W        W18404   9.268  14.834   9.835  0.2464  0.6087 -0.0502
18205W        W18405  11.466  17.370   2.218 -0.0180  0.0790  0.5778
18206W        W18406   1.469  14.374  13.083 -0.3815 -0.0543 -0.1061
18207W        W18407   5.618  16.303   4.229  0.0833  0.2460  0.1105
18208W        W18408   1.309  15.734   5.905  0.1772 -0.1148  0.2473
18209W        W18409   0.747   8.312   1.699  0.2448  0.2229 -0.1220
18210W        W18410   7.742  17.381  11.664 -0.1488 -0.2900  0.0248
18211W        W18411  14.538  11.263  17.776  0.0166 -0.0885  0.0411
18212W        W18412  16.299  15.051   0.466 -0.0080  0.2529  0.1055
18213W        W18413  10.759  14.705   3.932  0.0602 -0.1332  0.1603
18214W        W18414   9.888  17.402   7.002  0.2920  0.1686 -0.1571
18215W        W18415   2.871   4.591   7.816  0.2648 -0.1452  0.0074
18216W        W18416   0.210  12.075   6.744  0.0541 -0.1337  0.0551
18217W        W18417   4.553  12.018  15.976  0.0140  0.0093  0.3102
18218W        W18418   7.297   8.980  16.969 -0.2793  0.0131  0.2144
18219W        W18419  12.156  13.396   6.450  0.0403  0.1303  0.0158
18220W        W18420   3.670  11.616  15.237  0.1464 -0.0701 -0.0534
18221W        W18421  15.919  13.418  13.614 -0.0046 -0.1176 -0.2063
18222W        W18422   1.869  17.804   6.001 -0.0940 -0.2186  0.0311
18223W        W18423   7.717  16.981   3.997 -0.0372  0.3248 -0.0473
18224W        W18424  10.764   5.679  15.430  0.0309  0.3348 -0.0202
18225W        W18425  10.840   4.772  16.220  0.1379  0.2106 -0.0002
18226W        W18426   0.843   9.969  12.581  0.0912  0.1936  0.1852
18227W        W18427   2.153   3.896   2.667 -0.1824  0.1391 -0.1519
18228W        W18428   3.463  12.113   8.268 -0.0043 -0.3642  0.1904
18229W        W18429   4.306   6.815   7.874  0.0956 -0.1840 -0.2853
18230W        W18430   9.204  14.236   1.308 -0.2821 -0.1757 -0.1538
18231W        W18431  18.130   0.378  12.899 -0.3195  0.1765 -0.0939
18232W        W18432   8.261  17.976   1.644 -0.3263  0.2504 -0.0896
18233W        W18433  13.511  14.517  16.974  0.0431  0.1250  0.1392
18234W        W18434   0.019  13.155   8.397  0.1013  0.2778 -0.0258
18235W        W18435  10.685  12.877  17.117 -0.2250  0.0811  0.1173
18236W        W18436   6.755  15.715   0.064  0.4134  0.1429  0.3448
18237W        W18437   9.814   4.152   3.674 -0.1302 -0.1611  0.1452
18238W        W18438   9.669   2.159   4.675  0.0673 -0.1231  0.1144
18239W        W18439  11.325   6.295   0.186 -0.0742  0.3926 -0.0709
18240W        W18440   9.174   9.703   0.656  0.1210  0.0996 -0.0238
18241W        W18441   4.774   3.704   2.892  0.2553  0.0895 -0.3385
18242W        W18442  14.135  13.184   4.220  0.3324 -0.0884 -0.1480
18243W        W18443  15.919  11.901  14.783 -0.1862 -0.1313 -0.1107
18244W        W18444   3.416   0.674  10.265 -0.1431  0.1424  0.0674
18245W        W18445   8.799  16.013   0.414  0.0208  0.1737 -0.3366
18246W        W18446  12.887  15.704   9.323 -0.0728  0.4512  0.0810
18247W        W18447  14.091   9.579  17.165  0.0185  0.1629 -0.1736
18248W        W18448   9.984   9.840   4.941 -0.1820 -0.2323 -0.1562
18249W        W18449   4.988   4.774   1.415 -0.1000 -0.0720 -0.0695
18250W        W18450   2.852   5.631  17.069 -0.0460 -0.1106 -0.0202
18251W        W18451   5.340   9.476   4.213  0.0035 -0.1571 -0.1347
18252W        W18452  16.629   9.404  14.057 -0.1347  0.1410  0.0913
18253W        W18453  13.052   2.162   1.476 -0.3902  0.2476 -0.0679
18254W        W18454   5.089   1.289  13.147 -0.0557 -0.0534  0.3673
18255W        W18455   3.392   0.856  16.729 -0.0502 -0.0630 -0.1132
18256W        W18456   6.872  14.852   4.453  0.0582  0.0882  0.0228
18257W        W18457   8.046  12.140   0.425 -0.4221 -0.0862  0.1611
18258W        W18458  17.425   1.914   3.267  0.1139 -0.0952  0.2451
18259W        W18459   0.742  15.472   3.311 -0.0475 -0.0694 -0.0141
18260W        W18460  12.293   9.730   1.381 -0.0519 -0.0397 -0.0776
18261W        W18461  10.453   3.294   2.094  0.2781 -0.1316  0.0123
18262W        W18462   4.432  14.408  11.842  0.2713 -0.0763  0.2492
18263W        W18463   9.512   6.652   4.094  0.2125 -0.2566  0.1869
18264W        W18464   0.185  16.333   7.635  0.0102 -0.2093 -0.3603
18265W        W18465  11.382  17.894   8.322 -0.1574 -0.2493  0.0969
18266W        W18466   9.252   3.853   1.060 -0.1745 -0.0908  0.0803
18267W        W18467  10.066   1.136  17.446 -0.0591 -0.0298 -0.1418
18268W        W18468  15.166  16.662   1.972  0.1951 -0.0510  0.0018
18269W        W18469   2.602  14.289   3.228 -0.1496  0.2054  0.1117
18270W        W18470  11.002  13.825  14.301 -0.1388 -0.3933  0.2239
18271W        W18471   3.472  10.186   0.335 -0.3007  0.1450 -0.1992
18272W        W18472  11.249  12.290  16.534  0.4252  0.1496 -0.2752
18273W        W18473   2.688   4.456  14.987 -0.2194 -0.1481 -0.0569
18274W        W18474   9.750  15.051  13.593  0.0975  0.1202  0.1278
18275W        W18475   2.161   1.246  16.295  0.3142  0.1992 -0.2762
18276W        W18476   5.428   9.573  17.068  0.0926 -0.1901 -0.0331
18277W        W18477  11.600   9.741   2.608 -0.1296  0.2747  0.0660
18278W        W18478   2.418  11.768   3.635  0.0494  0.0409  0.0880
18279W        W18479   4.656  15.554   1.424 -0.4153  0.2872  0.2741
18280W        W18480  12.975   1.178  17.847 -0.1804  0.1783 -0.2189
18281W        W18481   9.026  16.110  17.913  0.0297 -0.1962 -0.3636
18282W        W18482  10.869   1.808  12.633  0.1004  0.1759 -0.2422
18283W        W18483   6.135  13.869   4.525  0.0381  0.1003 -0.1815
18284W        W18484   7.351  16.287  13.167 -0.2999  0.0144 -0.1505
18285W        W18485   3.973   0.001  16.227  0.0171 -0.1150  0.1415
18286W        W18486   1.305   1.905  14.080 -0.1577  0.0123 -0.1284
18287W        W18487   5.776  15.278   5.029 -0.0190  0.4682 -0.1340
18288W        W18488  15.618  12.970   5.153 -0.0876  0.0499 -0.1838
18289W        W18489  17.129  16.866   5.637  0.0560  0.1896  0.2099
18290W        W18490  12.817  10.217   0.046 -0.0339  0.1494  0.0015
18291W        W18491  12.781  17.692   3.886 -0.3886 -0.1611  0.3154
18292W        W18492  13.855   5.017  16.071  0.2777  0.0414 -0.2691
18293W        W18493   1.698   3.183  16.260 -0.1369 -0.2298  0.1051
18294W        W18494   2.461  13.248  17.380  0.0963  0.1296  0.1099
18295W        W18495   4.876  11.091   6.051 -0.1039 -0.1684 -0.0267
18296W        W18496   6.115   9.444   7.233  0.0977  0.1509 -0.3693
18297W        W18497   7.328  16.347  17.865 -0.2234  0.0858  0.2460
18298W        W18498   2.808   1.417   3.417 -0.0469  0.2732 -0.3620
18299W        W18499   2.918  15.622   2.675  0.1780  0.1356  0.0281
18300W        W18500   9.412  16.593   4.635 -0.1059  0.2673  0.1698
18301W        W18501   4.030   1.123   4.654 -0.1195 -0.0353  0.2214
18302W        W18502  17.018   0.168   8.759  0.0247  0.2497  0.4792
18303W        W18503   6.379  13.918   8.154  0.0813 -0.0278 -0.0294
18304W        W18504   9.458  13.699   0.768 -0.1653 -0.1021 -0.0717
18305W        W18505   9.519  11.749   8.592 -0.0763  0.0372  0.1619
18306W        W18506   7.268  15.938  15.378  0.0601  0.0533  0.2707
18307W        W18507   1.843  15.689   3.853 -0.0355  0.0667 -0.1677
18308W        W18508   8.697  12.980   2.361 -0.1090 -0.1281 -0.1283
18309W        W18509   4.288  11.211  10.473  0.0669 -0.0659 -0.0722
18310W        W18510   6.998  16.231   4.926  0.1792 -0.0562 -0.0042
18311W        W18511   1.001  11.170   5.419 -0.1583 -0.1925 -0.2874
18312W        W18512   7.005  18.202   5.903 -0.3076  0.3523  0.1568
18313W        W18513   2.939  15.327   0.076 -0.0795  0.2654 -0.1703
18314W        W18514   4.025   2.699  11.355 -0.1279  0.2034  0.3165
18315W        W18515   9.234  15.923   3.895  0.0631  0.2639  0.1247
18316W        W18516   3.630   4.823  10.051 -0.4152 -0.0792  0.1853
18317W        W18517   4.456   9.801   4.208  0.1689 -0.1172  0.0918
18318W        W18518   7.555  12.665   3.091 -0.0930  0.1933 -0.1027
18319W        W18519   4.896  17.673  11.317  0.2034  0.3075 -0.0975
18320W        W18520   6.126   0.655   3.062 -0.2055 -0.0894  0.0276
18321W        W18521  11.062  17.405   2.622 -0.1127  0.2011  0.1512
18322W        W18522   6.377  17.865   4.637 -0.0731 -0.0284  0.2601
18323W        W18523   2.495   5.865   5.908 -0.0330 -0.1659  0.0644
18324W        W18524   4.468   9.522   2.625  0.1322 -0.2278 -0.0072
18325W        W18525   4.343  13.489   0.463 -0.1055 -0.3842  0.1512
18326W        W18526  16.088   3.690  10.556  0.2054 -0.0610  0.0407
18327W        W18527   4.419  17.318   5.272 -0.1225 -0.4386  0.0898
18328W        W18528  14.710   2.976  10.717 -0.0939  0.2717  0.0219
18329W        W18529   0.916  10.445  14.681  0.3561 -0.0261  0.0816
18330W        W18530   5.945   3.893   7.438  0.0517 -0.0021  0.1968
18331W        W18531  13.583  11.898   5.777 -0.0084  0.0346  0.3450
18332W        W18532  11.370   1.447   3.720  0.0455  0.1901  0.1315
18333W        W18533  15.360  16.199   7.281  0.0064 -0.0960  0.0967
18334W        W18534   7.955   4.597   2.678  0.1025 -0.2656 -0.3083
18335W        W18535  10.447  16.559   0.211 -0.3132  0.0567 -0.0231
18336W        W18536   1.219  15.942  17.891  0.1119 -0.0540 -0.0049
18337W        W18537   4.268   0.186   3.734 -0.3299  0.1109  0.0192
18338W        W18538   4.840  14.049   1.484 -0.0551  0.0246  0.0709
18339W        W18539   3.593  12.715   1.786  0.0834 -0.2060  0.0145
18340W        W18540   0.721   4.536  18.186 -0.0337 -0.0083  0.1210
18341W        W18541   6.642   5.620   1.631  0.0394 -0.0857 -0.1364
18342W        W18542   8.887   3.477  10.944 -0.0063 -0.0741  0.2162
18343W        W18543  17.533  15.715   3.136  0.1945  0.0720 -0.0960
18344W        W18544   8.588  15.304  13.944 -0.2505  0.0485  0.1761
18345W        W18545   9.031   0.847  14.645  0.0697  0.4235 -0.0573
18346W        W18546   5.283  17.811   5.343 -0.1288  0.1018  0.0409
18347W        W18547  14.554  12.570   4.803  0.3482 -0.0828 -0.0765
18348W        W18548   8.282   6.162   4.267 -0.3952 -0.1502  0.3995
18349W        W18549   8.882   1.631   4.658  0.1611 -0.0225  0.2159
18350W        W18550  13.280   1.454   2.244  0.1011 -0.1723  0.1471
18351W        W18551   7.767  12.707   8.193 -0.0100  0.0831  0.0528
18352W        W18552   4.993  14.498  12.765  0.0314 -0.0515  0.0279
18353W        W18553   5.338   2.805  10.041  0.0867  0.0461  0.1572
18354W        W18554   8.138   2.529   0.391 -0.0044 -0.1446  0.2985
18355W        W18555   5.933  18.072   5.835 -0.0996  0.2283 -0.1436
18356W        W18556   5.554  14.448  16.763  0.0340  0.0187  0.0441
18357W        W18557   4.538  15.985   0.455 -0.0678 -0.1594  0.1211
18358W        W18558   6.802  14.015   6.566 -0.2644 -0.2075  0.2850
18359W        W18559   8.242   7.868   3.046 -0.0199 -0.1815 -0.3499
18360W        W18560   3.532  17.453   5.307 -0.3594 -0.0628 -0.0463
18361W        W18561  16.508  16.511  16.392 -0.2104 -0.1618 -0.0063
18362W        W18562  11.597   3.016  15.733 -0.1965 -0.1172 -0.0872
18363W        W18563   3.115   9.717   3.866  0.0829  0.1289  0.1273
18364W        W18564  12.146   2.107   1.506  0.1216  0.1769  0.1454
18365W        W18565   6.496   9.983  16.649  0.1803 -0.2024  0.0903
18366W        W18566  10.151  10.535   1.243  0.0248  0.0614 -0.2714
18367W        W18567   8.698   6.492  10.337  0.0162 -0.1888 -0.3338
18368W        W18568   8.372   0.967   7.475  0.1146 -0.0126 -0.0424
18369W        W18569   2.635   2.005  16.846 -0.2212 -0.0216  0.3637
18370W        W18570   4.822  17.311  13.760 -0.2193 -0.2556 -0.1388
18371W        W18571   6.503  14.832   1.571 -0.1834 -0.0261 -0.0755
18372W        W18572   8.669   8.170  16.804 -0.1079  0.0691 -0.0721
18373W        W18573   7.325  14.676   7.075  0.0447  0.0686 -0.0276
18374W        W18574  12.819  14.102  17.483  0.0322 -0.1686  0.0460
18375W        W18575  10.764   2.244   5.288 -0.3581  0.0522  0.2857
18376W        W18576   0.776  10.279   1.365 -0.1902  0.0656  0.0822
18377W        W18577   0.468   2.218   6.993 -0.2811 -0.0395  0.1098
18378W        W18578   7.190   0.525   4.294 -0.3339  0.0500 -0.2135
18379W        W18579   9.273  12.871   5.675  0.1616  0.3958 -0.0375
18380W        W18580   2.176   2.950  16.165  0.0789 -0.2099  0.1300
18381W        W18581  11.935  14.509   6.689 -0.1938 -0.2818  0.0094
18382W        W18582  11.353  16.345   0.098  0.1580 -0.0055 -0.2058
18383W        W18583   7.600   0.207   0.934 -0.2303 -0.1581  0.1785
18384W        W18584  15.066  12.719   1.234  0.2384  0.0888 -0.0297
18385W        W18585  11.212  14.520   4.134  0.0349 -0.0321  0.0551
18386W        W18586   6.594  17.902   7.646  0.0254  0.1631 -0.0453
18387W        W18587   7.283   5.266  14.848 -0.0026  0.3327 -0.2411
18388W        W18588   8.401   0.749  16.982 -0.1337  0.0974  0.0430
18389W        W18589   8.986  17.516  16.377  0.1349  0.0053  0.0846
18390W        W18590   3.972  15.190   5.613  0.0607  0.0349  0.1397
18391W        W18591   9.805  17.548  10.292  0.1834  0.1863  0.0984
18392W        W18592  11.005   5.087   5.326 -0.1183 -0.0179 -0.1236
18393W        W18593  17.168  10.999   8.992  0.2351  0.2184  0.0085
18394W        W18594  11.529  15.574   1.640 -0.0618 -0.1534 -0.1225
18395W        W18595   0.272   3.633   5.662 -0.1294  0.0622  0.0519
18396W        W18596   4.603  17.794   4.536 -0.3489  0.0692  0.2141
18397W        W18597   6.017   0.180  13.180  0.0101  0.1250 -0.1541
18398W        W18598   8.549  14.866   2.313 -0.0672 -0.1300 -0.0347
18399W        W18599   9.406   0.856   6.639 -0.1571 -0.2059 -0.0113
18400W        W18600   6.914  12.941   1.141  0.0643 -0.1314 -0.0631
18401W        W18601   9.552   1.631   2.611  0.1768  0.1015 -0.0185
18402W        W18602   8.580  15.901   5.323  0.1400  0.0606 -0.0808
18403W        W18603   4.648  11.945  18.081 -0.0499 -0.0753 -0.0263
18404W        W18604   4.774  17.031   6.249  0.2478 -0.4310  0.1892
18405W        W18605   2.372  16.135   2.312  0.2332  0.1928 -0.4759
18406W        W18606   4.004   4.854   2.051  0.2962 -0.1044 -0.0814
18407W        W18607   8.801   5.328   2.560  0.0713  0.0405 -0.2994
18408W        W18608   6.349   1.470   2.859  0.0831  0.0134  0.2359
18409W        W18609   7.440  14.133  13.998  0.1252 -0.0190 -0.1014
18410W        W18610  16.255  14.703   4.025 -0.0336  0.1916 -0.0228
18411W        W18611   2.873   0.432  13.977 -0.3461  0.0979  0.1037
18412W        W18612  11.134  14.446   4.711  0.0740 -0.2153  0.1144
18413W        W18613  16.979  13.150  17.139  0.0163  0.1908  0.4151
18414W        W18614  16.244   0.678  15.740  0.1787  0.2940 -0.0587
18415W        W18615   1.726  14.021   2.059  0.0368 -0.2840  0.0179
18416W        W18616   2.719   3.338  16.899  0.0146  0.0348  0.2315
18417W        W18617  11.726  16.241   3.518  0.2389  0.0424 -0.2616
18418W        W18618   2.910  14.748   4.882  0.0644  0.0424  0.1357
18419W        W18619   2.920   1.777   6.597  0.1450 -0.0680 -0.1513
18420W        W18620   8.935   3.871  16.022  0.0984  0.0425  0.1234
18421W        W18621   2.957  10.869   2.447 -0.1455  0.0650 -0.1356
18422W        W18622  10.242   0.513   5.900  0.1830  0.1138  0.0687
18423W        W18623  16.837   9.446  12.387  0.1106  0.1714 -0.4215
18424W        W18624   3.724   1.417   5.909 -0.0467  0.0106 -0.2137
18425W        W18625   2.821  17.491   1.084 -0.0515 -0.1039  0.0339
18426W        W18626   9.012  16.817  18.066  0.0897 -0.1454  0.0530
18427W        W18627   9.191  13.330  17.846  0.4067 -0.0277  0.0636
18428W        W18628   8.627   7.155   0.277  0.2827 -0.0686  0.2451
18429W        W18629   2.919  13.424   1.931 -0.2348 -0.1681 -0.0087
18430W        W18630   4.229   0.867   5.387  0.1557 -0.0736  0.1148
18431W        W18631   5.502  17.655   3.904  0.3878  0.2424 -0.1066
18432W        W18632   1.090   5.864  15.203 -0.1622 -0.1375 -0.1657
18433W        W18633   7.770   2.323   4.360 -0.1215 -0.2318  0.1248
18434W        W18634   5.245  14.833   5.415 -0.1068  0.3116 -0.1671
18435W        W18635   6.495   1.809   4.775  0.2898  0.2230  0.0570
18436W        W18636   8.490  16.633   0.957 -0.1957  0.0603 -0.3872
18437W        W18637  16.766   6.647   6.452 -0.1493 -0.2495  0.0676
18438W        W18638   4.530   0.187  12.915  0.1855 -0.1445  0.5521
18439W        W18639   0.336   4.697   9.938 -0.2085  0.1852 -0.1204
18440W        W18640  15.671  17.926  13.150  0.0193  0.0657  0.1703
18441W        W18641   0.418  15.388  13.186  0.0875 -0.2717  0.0598
18442W        W18642   1.656   2.004  12.299  0.2084  0.0048 -0.1266
18443W        W18643  11.216   1.940   4.560  0.1490  0.1505  0.0701
18444W        W18644  13.720   3.462   4.171 -0.0227 -0.1885 -0.1379
18445W        W18645   3.869   2.286   5.209 -0.0114 -0.1224 -0.0034
18446W        W18646  18.188   2.163  13.749 -0.0445  0.5106  0.0361
18447W        W18647   4.061   6.949   7.193  0.0223  0.0423 -0.1177
18448W        W18648  11.894  17.934  17.715  0.2038  0.2157  0.2442
18449W        W18649   7.773  17.162   7.524  0.0528  0.0497  0.4673
18450W        W18650   9.823   3.019   2.643 -0.1208  0.3034  0.0238
18451W        W18651   9.136  12.680  13.739 -0.0442 -0.1518  0.0338
18452W        W18652   1.762   9.215   9.395  0.1092  0.0719  0.1595
18453W        W18653   5.719   0.495   4.739  0.0070 -0.1461 -0.3913
18454W        W18654   6.313  12.385  10.117  0.0778  0.1776  0.1768
18455W        W18655   3.520  10.233  12.281  0.0667 -0.0453 -0.1274
18456W        W18656  11.518  17.563   7.546  0.0501  0.3251 -0.3591
18457W        W18657   4.154   0.044  15.695 -0.1449 -0.1703  0.1388
18458W        W18658   5.855   0.903   7.467 -0.1215  0.0076  0.2408
18459W        W18659   5.766  14.202  14.707 -0.2314  0.0159  0.0976
18460W        W18660   2.709   1.247  16.233  0.1201  0.0069  0.0551
18461W        W18661   1.819  10.510  11.968  0.2323  0.1713  0.1081
18462W        W18662   4.018   1.384   2.473 -0.0321 -0.2236 -0.1506
18463W        W18663   5.619  13.911   0.025 -0.2803  0.1731 -0.3201
18464W        W18664  17.231  15.455  16.801 -0.1802 -0.2972  0.1300
18465W        W18665   2.575  11.779   3.117  0.0765  0.6674 -0.0981
18466W        W18666   4.920   3.230  10.516 -0.2319 -0.0865 -0.0732
18467W        W18667   4.904   4.488   8.642 -0.1908 -0.0357  0.4314
18468W        W18668   6.109  15.736   3.174  0.1526 -0.0481 -0.0607
18469W        W18669  11.220   0.569   3.344  0.3698  0.1370  0.1131
18470W        W18670   1.533  13.622   6.255 -0.0245 -0.1212  0.0160
18471W        W18671   0.685  13.196   6.310 -0.1469 -0.0993  0.0482
18472W        W18672  15.356  13.810   9.050 -0.2159 -0.4577  0.0270
18473W        W18673   3.021   8.429   8.467 -0.1260 -0.0116 -0.3189
18474W        W18674   8.221   2.466   4.739  0.1747  0.2427  0.2829
18475W        W18675   9.676  10.594   2.407 -0.0543 -0.1517 -0.0211
18476W        W18676   8.674   0.909   0.150 -0.2416 -0.0307  0.0748
18477W        W18677   4.538   0.704  11.437  0.2606  0.0693  0.0393
18478W        W18678  13.099  13.039   7.266 -0.0941  0.1896 -0.3992
18479W        W18679   7.702   2.613  17.916 -0.1200 -0.4240 -0.0957
18480W        W18680  16.029  13.319   0.973 -0.1498  0.0067  0.4959
18481W        W18681  16.355  18.082  16.934 -0.1456  0.0552 -0.0727
18482W        W18682   1.424  16.475   6.565 -0.0572 -0.1625 -0.1489
18483W        W18683   0.647  18.133  10.277  0.0615  0.2041  0.1652
18484W        W18684   3.315  13.126  16.937  0.0916 -0.0856  0.4391
18485W        W18685   8.696   2.044   2.874  0.1596  0.0283 -0.0040
18486W        W18686  16.620  15.559   7.071 -0.0035 -0.0108  0.1385
18487W        W18687   6.439   3.339  11.678 -0.1836 -0.0076 -0.3069
18488W        W18688   5.966   3.687   8.347  0.0115 -0.2240 -0.1743
18489W        W18689   7.300   1.620   9.175  0.6682  0.1482 -0.0009
18490W        W18690   1.777   3.872   0.632  0.0261 -0.1656 -0.0950
18491W        W18691  16.447  15.752   0.416 -0.0086  0.2127 -0.1817
18492W        W18692   7.081  17.681   5.384  0.1269 -0.1057 -0.0889
18493W        W18693  15.221   0.923   3.496  0.2247  0.1510  0.2554
18494W        W18694   4.152  15.168  10.845 -0.2036 -0.0704  0.0387
18495W        W18695   4.521   2.073  11.628  0.0796 -0.0690 -0.1017
18496W        W18696   1.332  14.731   9.755  0.0175  0.0185 -0.0622
18497W        W18697   7.539  11.690   7.560  0.1141  0.0366  0.0771
18498W        W18698   4.387   6.337   9.301  0.0925  0.2532 -0.0766
18499W        W18699  12.561  13.067   6.514  0.1473 -0.0392 -0.1201
18500W        W18700   6.117  13.137  16.093  0.0953 -0.1336 -0.3405
18501W        W18701  11.287   1.321   4.590  0.2672  0.3716 -0.1485
18502W        W18702   1.569   8.964  11.836  0.1533 -0.3704 -0.2007
18503W        W18703   8.437   7.017  13.147 -0.1586  0.0063 -0.1698
18504W        W18704  18.113   8.732   1.449 -0.0996 -0.1245  0.0695
18505W        W18705   8.832  16.048   4.238 -0.0275  0.2134  0.2312
18506W        W18706  12.688  11.290   4.473  0.0539 -0.0089  0.0326
18507W        W18707   4.692   1.006   4.584  0.3022  0.1196  0.0970
18508W        W18708   5.082  17.787   2.433  0.0630 -0.2170  0.1265
18509W        W18709  10.067  15.386  11.176  0.4573 -0.0555  0.2624
18510W        W18710   7.038  16.633   3.397  0.1637  0.1733 -0.0848
18511W        W18711   5.628   0.936   5.599 -0.0433  0.1955  0.3685
18512W        W18712   4.537   3.155   2.712 -0.1623 -0.1118 -0.0637
18513W        W18713   2.737  14.052   6.123 -0.1125 -0.1386 -0.1221
18514W        W18714   2.492   9.882   5.763  0.1550 -0.0581  0.4502
18515W        W18715   4.664  15.230   0.943 -0.0550 -0.0381 -0.3929
18516W        W18716   1.057  16.561   6.179  0.0419 -0.3519  0.3376
18517W        W18717   3.002   7.845   3.801 -0.0970  0.0576 -0.0526
18518W        W18718   7.867   4.627   6.149  0.0132 -0.1775  0.2123
18519W        W18719  11.267  14.508   6.258  0.0618  0.0608 -0.0784
18520W        W18720  13.010  18.102  12.596  0.1921  0.3427 -0.0098
18521W        W18721  14.763   5.558  17.376 -0.1180 -0.1993  0.0421
18522W        W18722   5.197   2.203   6.485 -0.2417  0.0880 -0.0729
18523W        W18723   8.970  17.073   4.945  0.2292  0.1224  0.1982
18524W        W18724   5.478   4.420  13.614  0.2976  0.0468  0.2078
18525W        W18725   8.081  17.154   4.980 -0.1777  0.0352 -0.0513
18526W        W18726   2.522  10.381   3.743 -0.0448 -0.0627 -0.0915
18527W        W18727   9.284   2.274  14.547 -0.1340  0.4278 -0.0995
18528W        W18728  15.992  17.678   7.363 -0.3057  0.2719  0.0779
18529W        W18729   8.366   3.797  12.703 -0.3793  0.0603 -0.0095
18530W        W18730   4.164  16.529   6.933  0.0066  0.0958 -0.1122
18531W        W18731   6.581   2.877   4.664 -0.1370  0.1051  0.1095
18532W        W18732  12.038   3.240   2.921  0.0045 -0.1986 -0.2771
18533W        W18733   4.578  13.842   4.308 -0.2261 -0.0359 -0.1125
18534W        W18734   4.409   2.624  11.752  0.1785 -0.0641  0.1179
18535W        W18735  16.707  11.265   0.075 -0.0284 -0.1861 -0.0249
18536W        W18736   5.784  18.120  16.466 -0.0385 -0.1120  0.0481
18537W        W18737   7.312  11.945   6.250 -0.0287  0.1642  0.1234
18538W        W18738  13.797  12.419   1.055 -0.1339  0.0073  0.2459
18539W        W18739   3.909  11.092   7.813  0.2254 -0.0333  0.2094
18540W        W18740   5.788  17.194   5.695 -0.1468 -0.0305 -0.0753
18541W        W18741   3.799  14.209   8.694  0.0592 -0.1005 -0.0040
18542W        W18742  12.605   1.165   6.496  0.2460 -0.2342 -0.1893
18543W        W18743  10.782  13.313   5.532 -0.0201 -0.1908 -0.1238
18544W        W18744   6.377  13.261  12.266  0.0962  0.4374  0.2912
18545W        W18745   3.341   4.201  13.859 -0.1668 -0.0249  0.0483
18546W        W18746   9.139  11.993   5.459 -0.2101  0.0861  0.2840
18547W        W18747  14.811   4.555  11.246  0.0510  0.1079  0.2351
18548W        W18748  11.420   5.288   0.323 -0.4038  0.2647  0.2821
18549W        W18749   1.569  15.229  11.584 -0.2465 -0.0739 -0.1502
18550W        W18750   1.391  16.935  11.926  0.1739 -0.0194 -0.5547
18551W        W18751   2.064   1.979  10.092  0.0399  0.1451  0.1434
18552W        W18752   6.836  10.475   0.579 -0.3164  0.0204 -0.0578
18553W        W18753   3.680  13.885   8.373 -0.3797 -0.1027  0.0354
18554W        W18754   7.403  17.742   2.532 -0.2858  0.2465  0.2274
18555W        W18755   8.211  14.933  16.965 -0.0856 -0.0261 -0.4724
18556W        W18756   2.951  15.543  16.186 -0.0189  0.0768  0.2782
18557W        W18757   5.079   1.303   4.739  0.3258  0.2131  0.2678
18558W        W18758   1.079   1.841   5.990 -0.1346  0.1468  0.1011
18559W        W18759  14.910   1.233   4.979 -0.1941 -0.0821 -0.3529
18560W        W18760   7.845  13.037   7.826 -0.1026  0.0294 -0.0763
18561W        W18761   9.918  13.556  12.317  0.2153 -0.1677  0.0804
18562W        W18762  10.719  16.467   1.928  0.1651  0.1564  0.2925
18563W        W18763   1.634   6.946   1.213 -0.3390  0.0147 -0.0696
18564W        W18764   2.554   2.120   0.971 -0.1946  0.2130 -0.1909
18565W        W18765  12.457  13.258   3.252  0.1290  0.0124 -0.0901
18566W        W18766   8.933   1.561   4.095  0.1606  0.0164  0.1066
18567W        W18767   7.182   4.717   5.046 -0.2328 -0.0673  0.3539
18568W        W18768   6.720   6.229   2.359 -0.0730  0.0876  0.0297
18569W        W18769  17.924   5.043   4.872 -0.2954  0.0576 -0.0172
18570W        W18770  12.800  17.029   7.181 -0.3218  0.0420 -0.1060
18571W        W18771   4.912  11.849   3.652  0.0010 -0.0607 -0.1670
18572W        W18772   6.155  12.479  11.004  0.3628 -0.1463 -0.1218
18573W        W18773  12.017   8.628   3.149 -0.3612 -0.0499 -0.0691
18574W        W18774   6.224  15.305   0.767 -0.0836  0.0792 -0.2847
18575W        W18775   3.567  13.874   3.577  0.0660 -0.0736  0.1073
18576W        W18776   3.423  14.509   6.918  0.1429  0.2272 -0.1843
18577W        W18777  16.997   1.178   7.895  0.2037  0.3740  0.2211
18578W        W18778   4.219   8.655  18.139  0.1336  0.3715 -0.4796
18579W        W18779   6.658   8.146   9.362  0.4231  0.1210 -0.3396
18580W        W18780   8.117  11.707   2.749  0.0728 -0.0690 -0.1578
18581W        W18781   4.905   2.903  11.765  0.0112  0.1611  0.1482
18582W        W18782  11.234  13.226  11.738  0.2763  0.2317 -0.0603
18583W        W18783   6.321  14.962   5.184 -0.2712  0.0023 -0.1118
18584W        W18784   6.818  16.912  16.331 -0.1465  0.1665 -0.1565
18585W        W18785   8.859   9.144  10.715 -0.0040 -0.0147  0.0677
18586W        W18786  10.002   0.933   9.196  0.1734 -0.2102 -0.1318
18587W        W18787   4.114  13.356  12.531  0.3276 -0.1667 -0.0945
18588W        W18788   0.904   5.207  13.257 -0.0836 -0.0015  0.1510
18589W        W18789   1.351  12.935  10.230  0.1163  0.0148 -0.0997
18590W        W18790  14.292   5.327   4.840  0.1091 -0.2790 -0.3523
18591W        W18791   2.859  13.765  10.218 -0.1498  0.2275  0.2866
18592W        W18792  14.628   9.183   6.208  0.2755  0.0455  0.1668
18593W        W18793  17.980   0.237   8.137 -0.1600  0.0087 -0.1357
18594W        W18794   3.418  16.824  12.839  0.2983 -0.3459  0.0166
18595W        W18795  16.063   9.510  14.513  0.0786  0.1463 -0.0218
18596W        W18796  14.867  16.052   4.711 -0.2042  0.1915 -0.0813
18597W        W18797   2.484  14.556   1.641  0.0794  0.1117 -0.1171
18598W        W18798   3.867  13.604   6.947  0.1551 -0.2645  0.4072
18599W        W18799   2.686   2.211   8.227 -0.1352  0.0378  0.1496
18600W        W18800  18.073  16.840  14.631 -0.1528  0.0296 -0.1313
18601W        W18801   7.539  16.584   3.265  0.0074  0.1523 -0.0261
18602W        W18802   7.101  16.320  17.134  0.2570 -0.3666  0.1473
18603W        W18803   2.259  17.211   7.961 -0.1952  0.0754 -0.1089
18604W        W18804   9.996  16.853   7.901 -0.4575  0.0572 -0.1880
18605W        W18805   8.863  13.227   1.412 -0.0368 -0.2450  0.4549
18606W        W18806   6.524   9.438   5.794 -0.2141 -0.1111 -0.0373
18607W        W18807   4.166  14.318  17.040  0.1675  0.2365 -0.1677
18608W        W18808   1.606  11.473  10.802 -0.1849  0.4039  0.1063
18609W        W18809  16.412   9.314   7.583  0.1693 -0.0732  0.0418
18610W        W18810  16.886   0.590   2.929 -0.1086  0.0832  0.1804
18611W        W18811  13.096  15.818   4.937 -0.1555 -0.2352  0.1432
18612W        W18812   5.446  13.716   8.212  0.0443 -0.0123 -0.2370
18613W        W18813  12.938  13.476   9.446  0.1980 -0.3911  0.2754
18614W        W18814   1.866  11.710   7.078  0.1432  0.0411  0.1782
18615W        W18815   1.984   8.069   5.048 -0.2782  0.2640  0.1980
18616W        W18816   5.948  14.681   0.409  0.2951 -0.2753 -0.1497
18617W        W18817   3.235  17.667   4.862 -0.1875 -0.1483 -0.1048
18618W        W18818   9.306  16.825  14.248 -0.2242  0.0187  0.0581
18619W        W18819   6.100  16.128   6.114  0.1258  0.0835  0.3658
18620W        W18820   2.129  10.124   1.676 -0.3466  0.2100 -0.0257
18621W        W18821   1.324   0.144  10.991 -0.1355  0.2644 -0.0201
18622W        W18822   9.623  15.628   6.043 -0.1281 -0.2630  0.1368
18623W        W18823  13.818  11.620   5.380  0.0268 -0.1126 -0.1457
18624W        W18824   7.598  12.425   5.227 -0.1613  0.2937  0.1309
18625W        W18825   2.571   9.382   5.813  0.0114 -0.0296  0.0460
18626W        W18826   5.323  16.377   0.375  0.0197  0.1158 -0.1830
18627W        W18827  14.124   5.592  12.201 -0.0549  0.1948  0.1641
18628W        W18828   9.507   5.056   8.091  0.0098 -0.0397 -0.2845
18629W        W18829  10.138  17.286   8.654  0.1487  0.0211  0.2584
18630W        W18830   9.263  14.252  14.938 -0.0548  0.1239 -0.0044
18631W        W18831  13.774   6.152   0.913 -0.0944 -0.1438 -0.2209
18632W        W18832   2.584   0.892   5.769 -0.4134  0.1310  0.1215
18633W        W18833  11.875  17.153   5.163 -0.1156  0.1612  0.2456
18634W        W18834   5.326  11.071   5.786 -0.4447  0.1190  0.0325
18635W        W18835  12.115  13.412  10.551  0.1185 -0.0922  0.0301
18636W        W18836   1.544  10.112   1.855 -0.1615 -0.3695 -0.2162
18637W        W18837   8.356   1.160   2.274  0.0332 -0.2803  0.2147
18638W        W18838   4.948  13.385   0.363  0.0165 -0.0055 -0.2704
18639W        W18839   4.802  15.487   0.470  0.2467  0.0346  0.0621
18640W        W18840   9.369  12.168  18.162  0.2872 -0.5000  0.1191
18641W        W18841  11.306   0.146  15.656  0.0371 -0.0779  0.1370
18642W        W18842  11.710   1.516  15.882  0.1084  0.0728 -0.2977
18643W        W18843   7.588   2.618   2.537 -0.1626  0.0200  0.2660
18644W        W18844  13.109  16.821   8.712 -0.1811  0.0909 -0.0930
18645W        W18845   1.778   1.869   8.398 -0.0785  0.1610  0.2064
18646W        W18846   2.660  14.261  11.684 -0.1668  0.0410  0.0997
18647W        W18847   2.121  12.330   9.200 -0.0579 -0.2459 -0.3363
18648W        W18848   6.053  16.165  17.085 -0.2466  0.2424  0.0321
18649W        W18849   0.501  16.281   1.289  0.0240  0.3073 -0.0188
18650W        W18850   7.282  13.639   0.548  0.1110 -0.0720  0.0096
18651W        W18851   9.583   1.371   5.792 -0.0141  0.4979  0.0934
18652W        W18852   5.543  15.911  14.407  0.0142  0.1838  0.3963
18653W        W18853   7.989  15.174  17.428 -0.2378  0.0198 -0.1012
18654W        W18854   3.614   0.705   9.775  0.2059 -0.0621 -0.1560
18655W        W18855  11.681  16.809   0.914 -0.0769 -0.0032 -0.0685
18656W        W18856   6.890   6.046  12.753 -0.0435  0.1789 -0.3174
18657W        W18857  11.066  10.846  14.954 -0.0841 -0.1871  0.1951
18658W        W18858   6.962  15.434  10.524 -0.3680  0.0666  0.2968
18659W        W18859   7.598   1.385   2.813 -0.1584  0.0540  0.2461
18660W        W18860  17.725  17.767  10.830  0.1626 -0.1586  0.2045
18661W        W18861   7.455  16.933   6.594  0.0347  0.0234  0.2297
18662W        W18862   2.248   2.181   8.544  0.1406 -0.0555  0.0603
18663W        W18863   6.183   1.260   3.595  0.0183  0.0317  0.0598
18664W        W18864   6.252  12.778   5.220  0.1120  0.1850 -0.2186
18665W        W18865  10.899   5.457   5.009  0.1242  0.4200  0.0726
18666W        W18866   4.321  12.561   6.322 -0.0348  0.1570 -0.2411
18667W        W18867   5.736   1.375   6.817 -0.2740 -0.0256 -0.1181
18668W        W18868  10.438   3.305   8.864 -0.0781  0.0974 -0.1044
18669W        W18869   6.357  12.515   4.822  0.2935 -0.0405 -0.1775
18670W        W18870   2.147  17.463   3.158 -0.1260 -0.0165 -0.0531
18671W        W18871   4.549  14.235   5.463 -0.0907  0.4726 -0.2041
18672W        W18872   4.035  14.822   6.293 -0.0332  0.2689  0.2183
18673W        W18873   8.161  14.857   0.874  0.3490 -0.1831  0.1049
18674W        W18874   3.259   3.987  10.010 -0.0729 -0.2955 -0.0836
18675W        W18875   8.101  13.096   4.305  0.0257 -0.1357  0.1962
18676W        W18876   1.672   3.655   2.715  0.1670 -0.1545  0.0141
18677W        W18877  14.890   0.023   9.365  0.0810  0.2038 -0.0828
18678W        W18878  16.278  12.999   9.464  0.1604  0.1111  0.3973
18679W        W18879  15.056  11.766   5.660 -0.1786 -0.1174 -0.1514
18680W        W18880  12.413  17.932  14.020 -0.0040 -0.0980 -0.0009
18681W        W18881   0.649  15.233   5.646 -0.0861  0.0094 -0.2342
18682W        W18882  12.887   5.030  14.033  0.0848  0.1038 -0.0363
18683W        W18883  15.849   8.837   9.770  0.1390  0.0861  0.0172
18684W        W18884   4.907  12.669   4.737 -0.0506  0.0942 -0.3224
18685W        W18885  14.304  13.323   0.278 -0.1230  0.0980  0.2560
18686W        W18886   3.678  14.767  10.734  0.1018  0.0364  0.4252
18687W        W18887   4.707   4.208   7.409 -0.3298  0.0292  0.1831
18688W        W18888   5.970  12.453   3.234 -0.0014 -0.0964 -0.2769
18689W        W18889   2.014  15.193   1.030  0.0849 -0.1976 -0.1009
18690W        W18890   7.923  14.072   3.221  0.0028 -0.4144  0.1532
18691W        W18891   7.669   8.491  11.792  0.0234 -0.0019 -0.0056
18692W        W18892  17.433  18.176   8.513 -0.0731  0.1203 -0.0116
18693W        W18893  11.377  15.501   1.155  0.1720 -0.0243 -0.0602
18694W        W18894  16.494  16.402   2.263  0.0839  0.1307 -0.3430
18695W        W18895   0.473   3.399   8.545  0.2681 -0.1245  0.5521
18696W        W18896  15.129   1.754   5.041 -0.1491  0.0725  0.5301
18697W        W18897   2.643   3.171  10.193 -0.1423  0.0029 -0.1236
18698W        W18898  16.885  11.072  12.576 -0.2557  0.2173  0.0825
18699W        W18899   7.260  14.371   4.739  0.5023 -0.0646  0.0489
18700W        W18900  10.111  17.481   6.380  0.2388  0.0719 -0.1673
18701W        W18901   7.677   4.152   6.302  0.3332  0.5074  0.0398
18702W        W18902  11.285  17.527   7.991  0.0554 -0.2167 -0.0129
18703W        W18903   4.283  10.087   1.377 -0.1610  0.0377  0.3389
18704W        W18904   7.827   4.018   6.729 -0.1967 -0.4163 -0.2372
18705W        W18905   3.583  13.036  13.917 -0.1535  0.2718 -0.0009
18706W        W18906   3.300  17.461  17.908  0.0007  0.0001  0.1217
18707W        W18907   2.065  13.956  12.164 -0.2375  0.2112  0.0070
18708W        W18908  17.294   6.652   6.678 -0.2369  0.1753 -0.3084
18709W        W18909   6.941   1.319   2.848 -0.1216  0.0780 -0.0710
18710W        W18910  16.256   1.115   8.968  0.2136 -0.0509  0.2464
18711W        W18911   2.256  16.439   5.046 -0.3303  0.0169  0.2118
18712W        W18912   8.148  13.033  10.153  0.0816 -0.0256  0.0376
18713W        W18913  13.707  14.040   7.857 -0.0878  0.0648  0.0443
18714W        W18914   3.996   9.401   8.787 -0.0098  0.0017  0.1572
18715W        W18915   6.933  11.723   5.397 -0.0280  0.1173  0.0250
18716W        W18916   0.959   1.051  10.114  0.2442  0.2455 -0.0777
18717W        W18917  10.909   2.483   8.006  0.1534 -0.0898 -0.1488
18718W        W18918  10.934   3.108   7.430  0.0487  0.1516  0.0781
18719W        W18919   2.756   4.076   4.595  0.2278  0.0209 -0.1337
18720W        W18920  11.520  15.753   8.903  0.0638 -0.0848 -0.0915
18721W        W18921   1.315   2.866   2.658  0.0686 -0.0147 -0.1225
18722W        W18922   9.472   2.026   9.330  0.0369 -0.1767  0.0233
18723W        W18923   3.124  15.675   2.211  0.1518 -0.3185 -0.2521
18724W        W18924   3.480  13.896   2.352  0.1275  0.2887 -0.2691
18725W        W18925  14.350   1.436  12.241  0.0484 -0.1645 -0.1029
18726W        W18926  13.404  15.232   7.723  0.3190  0.1092  0.0833
18727W        W18927   1.576   5.188   4.819 -0.0799 -0.3740 -0.0019
18728W        W18928   6.671  13.546  12.661 -0.0332  0.3149  0.0603
18729W        W18929   4.216   8.175   6.659  0.4357  0.0477 -0.2883
18730W        W18930   4.373   9.548   5.095  0.0656  0.0467 -0.2540
18731W        W18931   6.111   9.872   8.262  0.0382  0.0179 -0.3210
18732W        W18932   4.587  14.720   0.872  0.1846  0.2904  0.0925
18733W        W18933  14.330   2.718   2.137 -0.0002  0.0092 -0.1946
18734W        W18934   9.811   0.895  10.844 -0.4665 -0.1674 -0.0659
18735W        W18935   2.948   5.515  10.005 -0.1904 -0.1061 -0.0804
18736W        W18936  12.171  11.131   4.430 -0.0955  0.2845 -0.1457
18737W        W18937   1.182  16.739   1.982  0.1992  0.0592 -0.0373
18738W        W18938   5.852   3.499   6.997  0.2870  0.1938  0.0252
18739W        W18939  18.092  12.467  17.528  0.0525  0.0449 -0.0703
18740W        W18940  13.881   8.615  14.890  0.1674  0.1515  0.1671
18741W        W18941   8.380  13.077   8.666 -0.0414  0.1116 -0.1742
18742W        W18942   0.835  14.557   3.208 -0.0647  0.1938 -0.0042
18743W        W18943   4.948   1.447   5.454  0.1161 -0.0073  0.1263
18744W        W18944   3.139   3.152  16.990  0.0837  0.0393 -0.3558
18745W        W18945   4.190   9.990  16.041  0.0678 -0.1983  0.0040
18746W        W18946   4.964  12.254   1.331 -0.1799  0.1509 -0.0687
18747W        W18947  11.316  15.124   6.587  0.2669  0.0623  0.0444
18748W        W18948   6.438   4.124  11.303  0.0529  0.3210 -0.2568
18749W        W18949  17.084  15.409  11.434  0.1482  0.0420 -0.1085
18750W        W18950   3.713   5.079   7.289  0.0967 -0.3456 -0.0638
18751W        W18951  13.196   1.258   0.545  0.2990 -0.0708  0.3619
18752W        W18952   5.178  18.129  14.260  0.1682 -0.1291 -0.2221
18753W        W18953   6.434   4.150   8.574  0.0060 -0.0333  0.0072
18754W        W18954  11.072  15.300   1.508  0.2631 -0.1527  0.1961
18755W        W18955  16.079  16.662   6.161 -0.2350 -0.1092  0.0015
18756W        W18956  16.014   2.377  10.230 -0.2811 -0.0001  0.2581
18757W        W18957   5.707   1.210   2.029  0.0067 -0.1047  0.0111
18758W        W18958   2.033   4.924  17.277 -0.0207  0.1932  0.0453
18759W        W18959   9.335  15.482   5.388  0.1391  0.2251  0.2178
18760W        W18960   4.314   2.564   1.084 -0.0199 -0.1301 -0.1764
18761W        W18961   1.095  14.600  17.469 -0.2421 -0.1266 -0.2640
18762W        W18962  16.797   3.583   3.009 -0.0806 -0.3592  0.3701
18763W        W18963   5.507   1.007   2.456  0.0570  0.1964  0.2558
18764W        W18964   9.692  14.423   5.151 -0.1926  0.1368 -0.3218
18765W        W18965   2.989  12.197   2.122 -0.1745 -0.1873  0.0206
18766W        W18966   7.579  17.099   3.462 -0.2912  0.1993 -0.2963
18767W        W18967   6.340  17.723   2.346  0.1351 -0.1109 -0.1943
18768W        W18968   5.669  10.900   5.310  0.0987  0.0627  0.2752
18769W        W18969   5.243  14.023   1.199  0.3719 -0.2568  0.1579
18770W        W18970   7.259  16.956  16.555  0.3446  0.3653  0.1201
18771W        W18971   5.239  14.680   3.724 -0.0666 -0.3808 -0.2418
18772W        W18972   2.114  16.955  17.031 -0.2728 -0.0911 -0.1922
18773W        W18973   4.976   9.774  12.730 -0.0608 -0.2001  0.0718
18774W        W18974   7.876  11.222  10.365  0.0399  0.1496 -0.0425
18775W        W18975   9.797   0.897  11.852 -0.0242  0.0148 -0.2301
18776W        W18976  17.214   9.735   5.319  0.1042  0.2900 -0.2099
18777W        W18977   9.674   3.604   6.462 -0.1753 -0.0524  0.0145
18778W        W18978  11.806  14.708   0.584  0.3017  0.1441  0.2281
18779W        W18979   5.778  15.889   2.468 -0.1975 -0.0973 -0.0578
18780W        W18980   5.601  16.604  17.235 -0.3214  0.0784 -0.0648
18781W        W18981  10.995   3.155   8.396  0.0756 -0.2334 -0.0557
18782W        W18982   6.580   4.671   5.758 -0.2407 -0.0214  0.2862
18783W        W18983   9.206   4.168   2.960  0.1405  0.3402  0.2729
18784W        W18984   9.999   4.266   3.192 -0.0100 -0.0486  0.0068
18785W        W18985   5.126  14.676   0.108 -0.2034 -0.3670  0.0135
18786W        W18986   7.359   5.928   7.839  0.1331 -0.1091  0.3069
18787W        W18987   8.005  17.282   5.525 -0.1904 -0.2995 -0.1102
18788W        W18988  11.743  15.050   8.211 -0.4760 -0.2664 -0.0205
18789W        W18989   7.309   2.172   2.624 -0.2018 -0.0525  0.1168
18790W        W18990  11.066  16.690  15.304  0.2201 -0.2720  0.3725
18791W        W18991  12.560   2.172   6.239 -0.1630  0.2013 -0.1801
18792W        W18992   7.967   0.359   1.311 -0.2295 -0.0999 -0.1431
18793W        W18993   9.225  14.345  17.109 -0.1223 -0.1392  0.0810
18794W        W18994   3.228  14.725   0.844  0.1271  0.1903  0.2069
18795W        W18995   8.716   4.615   6.638  0.0185  0.1786 -0.0524
18796W        W18996  14.643   3.351   8.621 -0.0186 -0.0463  0.1625
18797W        W18997  17.833   1.449   0.157 -0.1307 -0.1220 -0.0127
18798W        W18998   3.734  10.259   2.038  0.0729  0.0983  0.0357
18799W        W18999  12.895   1.930  11.371 -0.1141 -0.0918 -0.3171
18800W        W19000   7.490  15.053  15.705  0.0729  0.0366 -0.0478
18801W        W19001  14.651   0.233   3.617  0.1535 -0.1511 -0.1544
18802W        W19002   3.538   5.028   6.113 -0.2287  0.3256  0.0346
18803W        W19003  11.855   2.013   2.961 -0.0974 -0.2010  0.0444
18804W        W19004  10.022  17.925  14.452  0.4086 -0.1631 -0.2640
18805W        W19005   7.004   3.941  15.937  0.3989 -0.0077  0.2374
18806W        W19006   2.556  11.375  15.727 -0.1621 -0.1124 -0.0212
18807W        W19007  11.656   1.826   8.900 -0.2768 -0.0334  0.0087
18808W        W19008   7.589  16.206   5.508  0.0815 -0.1635 -0.0152
18809W        W19009   7.883   2.185   2.272 -0.1940  0.2266 -0.1777
18810W        W19010   2.887   0.914   7.811  0.0149 -0.1913  0.2446
18811W        W19011   3.848  13.369   7.481  0.0077 -0.0634  0.3492
18812W        W19012   6.646   2.700   9.416  0.1126  0.1731 -0.0865
18813W        W19013   3.998   2.015   6.515  0.1848 -0.2739 -0.0906
18814W        W19014  14.535   9.289   6.764  0.1172 -0.0551  0.4842
18815W        W19015   6.389  13.783   7.584 -0.1995 -0.0316  0.0251
18816W        W19016   3.777  18.085   9.196  0.2224  0.0686  0.0578
18817W        W19017  12.259   6.443   9.202 -0.0444  0.1967  0.2516
18818W        W19018  16.059  18.133  14.356  0.0689  0.0515  0.3285
18819W        W19019   0.977  16.194   1.152 -0.4433 -0.0924 -0.3177
18820W        W19020  10.144  11.244   1.872 -0.0771 -0.1374 -0.3390
18821W        W19021   8.301  14.432   1.797 -0.3755  0.2848  0.1919
18822W        W19022   5.481  14.951   8.966  0.0504 -0.2043 -0.1603
18823W        W19023   8.586  11.612  17.463 -0.2426  0.1916  0.2859
18824W        W19024  17.071  15.832  18.004  0.1459 -0.2160  0.0088
18825W        W19025   8.303   0.325  15.188 -0.2277 -0.3830  0.3240
18826W        W19026  10.335   2.553  10.186  0.2024 -0.3318  0.2156
18827W        W19027   6.179  13.887   5.039  0.0837  0.1984  0.0658
18828W        W19028  16.865   1.521   0.168 -0.0521 -0.0156  0.3483
18829W        W19029   5.694   1.009  12.487  0.1211  0.0038 -0.3330
18830W        W19030   5.596  13.659   7.694  0.2004 -0.2395  0.2213
18831W        W19031  12.050  14.732   9.009 -0.1072  0.2304  0.2811
18832W        W19032   1.719  12.108  13.717 -0.0443 -0.2088  0.1979
18833W        W19033   6.904  15.991  10.567 -0.0528  0.2769 -0.2429
18834W        W19034   4.813  16.989   3.905 -0.1418  0.4058 -0.0000
18835W        W19035   6.468  16.764   8.628 -0.0732  0.2610 -0.1628
18836W        W19036   7.856   7.547  11.729  0.0262 -0.2136  0.1033
18837W        W19037   1.211   1.473  10.252 -0.0582  0.2436 -0.0008
18838W        W19038   3.267   0.784   6.953 -0.5396 -0.1957 -0.3546
18839W        W19039   2.210   3.146  12.902  0.0217 -0.0636  0.1513
18840W        W19040  11.686  17.179  13.942  0.0331 -0.1306 -0.1476
18841W        W19041  12.769   5.403  14.721 -0.0089  0.1295  0.1173
18842W        W19042   7.883  15.547   6.082 -0.2787 -0.1176 -0.1423
18843W        W19043   3.271  16.758   8.884  0.2031 -0.0660 -0.1290
18844W        W19044  15.892  12.317  13.900  0.1390  0.1271  0.0555
18845W        W19045   7.973   0.873   6.395 -0.2266 -0.1653 -0.2166
18846W        W19046   6.885  11.648   5.907 -0.1380  0.1316  0.0632
18847W        W19047   4.366  13.299  17.288  0.1713  0.1159 -0.0017
18848W        W19048   9.991  16.309   0.085 -0.1734 -0.1264  0.2893
18849W        W19049  16.223   3.484   7.497 -0.2524 -0.4086 -0.0474
18850W        W19050   3.372  12.418   6.459  0.0872  0.2749 -0.2147
18851W        W19051   8.580   1.335   7.819 -0.0661  0.4209 -0.0251
18852W        W19052  18.169  17.651   8.671  0.0842  0.1496  0.1588
18853W        W19053   5.864  16.106   3.385  0.0945 -0.0028 -0.2632
18854W        W19054   0.471  13.317   7.562  0.0319  0.0399 -0.1381
18855W        W19055   1.514   0.678  11.996  0.0809 -0.2827  0.2542
18856W        W19056  14.606   8.626  13.478 -0.3405 -0.0042  0.2349
18857W        W19057   3.452  13.575   7.213 -0.2619  0.1201 -0.1176
18858W        W19058  15.403  14.838   6.168 -0.1001 -0.2460  0.0461
18859W        W19059   7.290  14.993   5.397 -0.3661 -0.3393  0.0810
18860W        W19060   5.538  17.533   8.423 -0.1180 -0.1028 -0.1641
18861W        W19061   6.634  14.265  13.364  0.0079 -0.4543  0.0853
18862W        W19062   3.567  15.311  13.990  0.0326 -0.1360  0.2054
18863W        W19063  10.630   0.052   6.673 -0.0945 -0.0599  0.2057
18864W        W19064   3.104  15.176  14.176 -0.0786 -0.2495 -0.0415
18865W        W19065  11.133   7.342   0.532  0.1075 -0.0371  0.1387
18866W        W19066   8.110  17.648   5.077  0.0762  0.2183 -0.0632
18867W        W19067  11.712  16.073   7.464 -0.0911  0.1792  0.2975
18868W        W19068  15.712   8.899   1.196  0.1776 -0.0761 -0.2530
18869W        W19069   5.895  13.919   8.343  0.4211 -0.0243  0.1918
18870W        W19070   2.366   2.213  11.198 -0.1235  0.0294 -0.0744
18871W        W19071   4.860  17.444  16.605 -0.0052 -0.1090 -0.1370
18872W        W19072  13.740   9.102   1.800 -0.0952 -0.0688 -0.1657
18873W        W19073  13.272  10.268  16.408 -0.0545  0.1312 -0.0639
18874W        W19074  13.631   0.592  13.565  0.1002  0.2106 -0.0205
18875W        W19075   2.354  17.282   4.687 -0.2166  0.1119 -0.2883
18876W        W19076   2.415   1.100   9.509 -0.0107 -0.1805 -0.4395
18877W        W19077   3.755  16.775  10.568  0.0998  0.1655 -0.1316
18878W        W19078   1.114  17.445   6.556  0.1655 -0.0524  0.0763
18879W        W19079   1.612  10.031  11.021  0.2864 -0.0870 -0.2108
18880W        W19080  10.920   1.262   8.069 -0.0530  0.1098  0.0924
18881W        W19081   2.999  11.738   6.952 -0.3301 -0.1215  0.0629
18882W        W19082   1.523  16.193   2.629 -0.2829 -0.0910  0.0534
18883W        W19083   2.333   4.706   7.650 -0.0219 -0.3524  0.0688
18884W        W19084   6.276   2.246   7.220  0.2400  0.0732  0.0841
18885W        W19085   4.675  16.883  12.530 -0.0999 -0.0397 -0.1424
18886W        W19086   2.293  16.103   6.891 -0.0086  0.1258  0.1716
18887W        W19087   5.868   0.637   9.833  0.2095  0.2794  0.2857
18888W        W19088  11.829   9.585   6.127  0.1098  0.0700 -0.0931
18889W        W19089  15.874   2.298   2.522  0.0039  0.1613  0.0107
18890W        W19090  11.365  16.704  11.687  0.2146  0.0090  0.1017
18891W        W19091   8.414   4.489   8.714 -0.0224  0.2818  0.1028
18892W        W19092  16.050  17.259   7.625  0.3924  0.2745  0.0223
18893W        W19093   4.314  14.317  10.998  0.3555 -0.1310 -0.1737
18894W        W19094   4.759  13.865  14.184 -0.1364 -0.1377  0.1085
18895W        W19095   7.708   9.364  13.409  0.2734 -0.2833 -0.0704
18896W        W19096   0.472  14.408   9.035 -0.2478  0.2447 -0.0856
18897W        W19097   5.886   9.803  16.348 -0.0347 -0.0610  0.0416
18898W        W19098   8.532  13.918  12.844 -0.3132  0.1730 -0.0700
18899W        W19099  10.393   5.050   7.243  0.3106  0.2023  0.3643
18900W        W19100   4.385  15.381   2.883  0.0926 -0.1640 -0.1407
18901W        W19101   7.856  17.211  10.979  0.1045  0.0491 -0.1002
18902W        W19102   6.328  16.679  10.317 -0.0680 -0.0324  0.0268
18903W        W19103  13.447  14.215  13.480  0.1620 -0.0155  0.2510
18904W        W19104   9.980   1.893   4.403 -0.0702  0.3784  0.0292
18905W        W19105   6.066  13.078   8.866 -0.0170  0.0266 -0.0377
18906W        W19106   3.506  17.975   1.575  0.2101 -0.1133  0.4603
18907W        W19107   0.831  16.224  10.972 -0.0218 -0.3787  0.1180
18908W        W19108  10.828   2.226   1.490  0.3080 -0.2063 -0.0580
18909W        W19109   2.405  11.316  13.522 -0.1702 -0.1964 -0.0011
18910W        W19110  11.299   0.051   6.473 -0.4631  0.2189 -0.1855
18911W        W19111   6.808   2.528  17.900 -0.0217 -0.0493  0.0092
18912W        W19112   7.076  10.737  15.239 -0.3370 -0.0519 -0.0688
18913W        W19113   6.086   9.486   2.819  0.0629  0.3015  0.3032
18914W        W19114   6.211  13.520   1.669 -0.0908 -0.0038 -0.0959
18915W        W19115   9.773   1.412   2.038  0.1040 -0.0805 -0.0165
18916W        W19116   5.429  14.911   1.085 -0.3872  0.2445 -0.1093
18917W        W19117   9.709  15.784   4.650 -0.2942 -0.3862  0.0094
18918W        W19118  12.115   5.191   5.041  0.5163 -0.0516 -0.1992
18919W        W19119  13.032  14.900   0.002 -0.2326  0.2752 -0.2480
18920W        W19120   8.814   7.516   7.608  0.3158  0.0004  0.0027
18921W        W19121   6.365  11.493  12.694 -0.1059  0.2488  0.0853
18922W        W19122   5.863   2.225  10.186  0.0489  0.1175  0.1506
18923W        W19123   5.886   2.766   9.896  0.1492 -0.0022  0.3007
18924W        W19124  10.685   3.839   9.793 -0.0127 -0.1035 -0.0331
18925W        W19125   3.629   2.251   9.626  0.1265 -0.0130 -0.0703
18926W        W19126  18.187   1.024  12.292 -0.0333  0.4240  0.1307
18927W        W19127  12.135   7.149   7.987  0.0682  0.3514  0.0597
18928W        W19128   9.359   0.084  11.337  0.1572  0.0755 -0.3171
18929W        W19129   5.208  16.822   8.706 -0.0710  0.0023  0.0452
18930W        W19130   0.033  15.317   5.592  0.0944  0.1216 -0.1607
18931W        W19131   7.422  14.296  12.547  0.0732 -0.0854 -0.1073
18932W        W19132  17.282  17.184  17.191 -0.1827  0.2891 -0.0422
18933W        W19133  13.632   7.192   3.603  0.0934 -0.0823  0.2972
18934W        W19134  14.856  15.703   6.201 -0.1838 -0.1725 -0.0292
18935W        W19135   3.816   2.540  10.454 -0.1682  0.2450  0.0707
18936W        W19136   5.017  11.119  12.834  0.0589 -0.0520 -0.2197
18937W        W19137   7.104   1.682  11.919  0.3108 -0.0989 -0.0901
18938W        W19138   9.049  12.010   4.120 -0.1035 -0.1583 -0.0863
18939W        W19139   7.963  15.558  11.890 -0.1944 -0.0606 -0.1351
18940W        W19140  10.617  17.870   5.578  0.2398  0.1036 -0.1562
18941W        W19141   1.713   1.809  11.038 -0.2255 -0.5376  0.0699
18942W        W19142   3.364   3.704   6.884  0.3552  0.0724  0.0347
18943W        W19143  11.131   1.801  11.351  0.0743 -0.0253 -0.2232
18944W        W19144  10.150  17.771   7.223 -0.1497 -0.0411 -0.2318
18945W        W19145   2.115   3.499  11.813  0.2019 -0.1176  0.3178
18946W        W19146   3.891   0.468   5.413  0.1395 -0.1958  0.3233
18947W        W19147   0.356  11.769   9.632 -0.1047  0.1773  0.3077
18948W        W19148  11.708   0.816  12.345  0.1355 -0.0599  0.0007
18949W        W19149   1.607   3.773  16.148  0.0206  0.0114 -0.0635
18950W        W19150   2.219   8.641   8.324 -0.1576  0.1522 -0.3578
18951W        W19151   9.537  15.543   3.637  0.2024 -0.0361  0.0637
18952W        W19152   3.256   7.557   9.383  0.3111 -0.1261 -0.0846
18953W        W19153   1.674  11.764   9.893  0.0595  0.1382 -0.1482
18954W        W19154  14.285  13.140   6.019  0.0214  0.2214 -0.0579
18955W        W19155   3.172  12.495  14.240 -0.2194  0.1112  0.1536
18956W        W19156  11.981   0.465   5.812 -0.0319 -0.2606  0.3047
18957W        W19157   7.246   8.336   3.458 -0.0506 -0.1066 -0.1218
18958W        W19158  14.578  12.200   7.590 -0.0100 -0.2611  0.0599
18959W        W19159  13.189  17.804  11.356 -0.0725  0.2330  0.0323
18960W        W19160  17.498  17.400   7.946  0.1438  0.0038  0.2548
18961W        W19161   3.899  14.846  16.111 -0.0040  0.3238 -0.0999
18962W        W19162   3.803   6.905   5.186 -0.1569 -0.2535 -0.0792
18963W        W19163   3.061   8.988  14.377 -0.1713 -0.1478 -0.1422
18964W        W19164  15.997   3.628  11.865  0.0839 -0.1982  0.1998
18965W        W19165   6.811   9.195   5.459  0.0118  0.2520 -0.1117
18966W        W19166   9.987   4.795   6.076 -0.1249  0.0622  0.1968
18967W        W19167   9.206   1.239   2.669 -0.4252 -0.0249 -0.1580
18968W        W19168   2.445   2.195  15.503  0.0730  0.2127  0.1310
18969W        W19169   8.818   2.288  10.289  0.0846 -0.4108 -0.1322
18970W        W19170   7.129   6.896   8.140 -0.0506  0.2986 -0.2221
18971W        W19171   7.664  16.072  11.036 -0.0470 -0.0127  0.0707
18972W        W19172   9.172  13.978  15.832 -0.1946 -0.2225 -0.0317
18973W        W19173  12.295   3.704   4.051 -0.4565  0.2286 -0.0419
18974W        W19174   7.389   1.074   5.531  0.2171 -0.0750  0.3068
18975W        W19175   7.358  17.440   2.142  0.3664  0.0515 -0.1565
18976W        W19176   3.364  15.916  10.393  0.4396 -0.0221  0.0651
18977W        W19177   1.823  16.675  13.552  0.4407  0.0027 -0.1602
18978W        W19178  10.968   6.912  14.745  0.3276 -0.0764 -0.4011
18979W        W19179   8.862   4.142  13.185  0.2062  0.1908  0.1771
18980W        W19180   9.734  11.455  11.062 -0.1936  0.1231  0.0258
18981W        W19181   3.635  17.082  15.358  0.3253 -0.1646  0.1650
18982W        W19182   4.830   2.561   6.288  0.0961 -0.0517 -0.1071
18983W        W19183   6.386  15.589  13.389  0.2857  0.1953 -0.0265
18984W        W19184   1.150  14.287  17.969  0.1148 -0.0222 -0.2806
18985W        W19185   5.008  15.208  15.228  0.0758  0.0009 -0.2416
18986W        W19186  16.439  14.022  10.599 -0.1590  0.0457 -0.2427
18987W        W19187   9.022   4.020   9.905 -0.1694 -0.3682  0.1172
18988W        W19188  12.999  14.631  17.326 -0.2231 -0.2599  0.1039
18989W        W19189  17.785  14.701  14.732 -0.2542 -0.0794  0.2212
18990W        W19190   3.617  11.915  17.680  0.2554 -0.0411  0.2430
18991W        W19191   3.537   4.552   4.284 -0.2000 -0.0336 -0.1199
18992W        W19192   1.122  16.510   6.932  0.2098  0.3177  0.0544
18993W        W19193   6.090   2.090   9.776  0.1329  0.1668  0.1516
18994W        W19194  10.233   0.399  11.731 -0.1249 -0.2012 -0.0543
18995W        W19195   2.296  10.849   8.095  0.0509 -0.4537  0.0989
18996W        W19196   3.595  14.546  11.191 -0.0961 -0.1718 -0.0159
18997W        W19197  11.806  14.099   1.308  0.0504 -0.2647 -0.2929
18998W        W19198  15.119  16.894   9.953  0.1068 -0.1318  0.0975
18999W        W19199   4.536  18.071   5.969  0.2638  0.0190  0.1589
19000W        W19200  17.858  10.816  13.066 -0.3784  0.1934  0.1030
19001W        W19201  12.430   0.766   5.871 -0.1460 -0.1838 -0.4004
19002W        W19202   0.479   3.878  11.308  0.3199 -0.1772 -0.0272
19003W        W19203   0.873  13.866  18.024  0.2197  0.2394  0.1217
19004W        W19204  16.381   1.692  14.822  0.0694 -0.0263  0.0855
19005W        W19205  17.996   1.421   2.673  0.2462  0.0204 -0.1347
19006W        W19206   5.684   1.365   3.657 -0.2006 -0.0775  0.0634
19007W        W19207  14.856  17.282   9.044 -0.3092 -0.0853 -0.1084
19008W        W19208  17.650  13.612  14.607  0.1058  0.0341 -0.1275
19009W        W19209  12.214  16.056   7.430 -0.3556  0.3689  0.1795
19010W        W19210   2.542  13.885   1.983 -0.1231  0.2064  0.1634
19011W        W19211  12.447   0.209   1.852  0.0443  0.2269 -0.1942
19012W        W19212   4.545  17.409  11.016 -0.0181  0.0999  0.1190
19013W        W19213  10.752  10.698   6.271 -0.2728 -0.0354 -0.0017
19014W        W19214  15.734   6.804  11.978 -0.3057  0.1193 -0.5168
19015W        W19215  14.331  13.610   2.025 -0.0174  0.0084  0.0677
19016W        W19216   9.651  10.365   3.322  0.1175  0.1400  0.3424
19017W        W19217   5.621   0.170   1.803  0.0251  0.3097 -0.0947
19018W        W19218   4.349  12.292   3.083 -0.0781  0.2211 -0.1657
19019W        W19219  15.026  11.032   7.755 -0.0624 -0.2380  0.1001
19020W        W19220  17.242  13.701   5.017 -0.0557  0.0940 -0.0433
19021W        W19221   6.255  17.120  12.518 -0.0785 -0.0428  0.1192
19022W        W19222  16.691  13.510   3.743  0.2544  0.4058  0.2007
19023W        W19223   1.860   5.474   1.622  0.0635 -0.0249  0.1484
19024W        W19224  17.946  16.908  10.315  0.1049 -0.3453 -0.1089
19025W        W19225  15.488  13.770  11.656 -0.1008  0.0611  0.0098
19026W        W19226   9.839   2.160  11.227 -0.1062  0.1575  0.4425
19027W        W19227   5.807   8.865  16.367 -0.1283  0.2696  0.3044
19028W        W19228  15.418   8.012  13.650  0.1509 -0.0185  0.0491
19029W        W19229   3.370   5.452   5.782 -0.0861  0.0370  0.0364
19030W        W19230   4.627  13.605  10.479 -0.0782 -0.3214  0.0113
19031W        W19231   7.382   8.801  12.802 -0.4143 -0.2717  0.2213
19032W        W19232   6.409   3.732   7.624  0.2064  0.1625  0.0758
19033W        W19233   6.483  13.771  13.164  0.0149 -0.2080  0.2303
19034W        W19234   3.831  14.812  12.084  0.0835 -0.0537 -0.0252
19035W        W19235  14.389  13.885   0.799  0.4590 -0.0973  0.1406
19036W        W19236   8.715   5.345   7.723 -0.1142  0.0544 -0.0126
19037W        W19237   5.965  18.017   9.766 -0.0500 -0.1544 -0.1161
19038W        W19238  12.801   9.733   7.380 -0.0111  0.1516 -0.0967
19039W        W19239   6.707   5.255  10.845 -0.1773 -0.0962 -0.1077
19040W        W19240  18.068  10.809   5.393 -0.0218 -0.1464  0.1347
19041W        W19241   5.403  13.075   1.695  0.1068  0.1299 -0.0701
19042W        W19242   1.967  12.014  15.569  0.4345  0.1366 -0.2719
19043W        W19243  11.121  16.427   6.207  0.1358 -0.2924 -0.0076
19044W        W19244   9.081   0.469   3.067 -0.0718 -0.0170 -0.0406
19045W        W19245   4.214   1.063  11.295 -0.1751 -0.0152  0.0646
19046W        W19246   7.589  17.232   5.832 -0.1222  0.2753 -0.0838
19047W        W19247   6.156   2.682   8.294  0.1472  0.0583 -0.1291
19048W        W19248  13.227   2.627   8.522  0.2050  0.1561  0.2517
19049W        W19249   3.295   6.563   9.439 -0.0404  0.0545  0.0325
19050W        W19250   9.586   4.138   6.661 -0.0106 -0.4031  0.0445
19051W        W19251   2.674  10.066  15.836  0.0707  0.0465  0.0815
19052W        W19252  16.966   1.694   6.876 -0.0089  0.0682 -0.2916
19053W        W19253   8.988  18.082   8.919 -0.1734 -0.0057 -0.1517
19054W        W19254  10.337  10.840   5.384  0.0017  0.1662  0.0420
19055W        W19255   2.085   4.245   7.615 -0.2282 -0.0452 -0.0739
19056W        W19256  12.099   3.743   3.035 -0.0862  0.0206 -0.0375
19057W        W19257   0.885  17.478  12.688 -0.0261  0.1928 -0.0690
19058W        W19258  11.082  17.929   5.301 -0.2174 -0.2433 -0.2781
19059W        W19259   8.146   6.577  12.701 -0.0741 -0.0208  0.0655
19060W        W19260   4.330   2.735   9.661  0.1403  0.0195 -0.0793
19061W        W19261   6.557  14.027   4.713 -0.0097 -0.0846 -0.0817
19062W        W19262   4.429  15.514  15.096  0.4200  0.0095 -0.0750
19063W        W19263   9.352   6.102   4.681  0.0568 -0.0743  0.1191
19064W        W19264   3.625  11.849   9.028  0.0998 -0.1532 -0.4480
19065W        W19265  16.183   4.789   8.234  0.0435  0.1269  0.2684
19066W        W19266   8.915   9.453  12.114  0.0187 -0.2721  0.1924
19067W        W19267   7.816   1.160  11.981 -0.1832  0.0935  0.0353
19068W        W19268   9.827   5.301   9.374 -0.0785  0.3247 -0.0584
19069W        W19269  17.894   5.399  10.891 -0.1294 -0.0136  0.0830
19070W        W19270   9.837   2.761   3.233 -0.0443 -0.0600  0.2415
19071W        W19271  13.153   1.177   9.581  0.0156  0.1955  0.2151
19072W        W19272   0.965   5.888  14.506 -0.0991 -0.2042 -0.2143
19073W        W19273   6.865   6.563  11.461 -0.2257  0.0313 -0.1594
19074W        W19274   6.358   0.813   5.300 -0.0360  0.1019  0.0665
19075W        W19275   9.816  12.718   4.123  0.0615 -0.3023 -0.0857
19076W        W19276   2.629  10.823  10.193  0.3245  0.2116 -0.0434
19077W        W19277   6.716   0.771   0.300  0.3272  0.1431 -0.1849
19078W        W19278  17.041  11.656   7.299 -0.2841 -0.1439 -0.0996
19079W        W19279   9.606  11.028  10.247  0.0245  0.1446  0.1360
19080W        W19280   4.578  13.766   5.616 -0.1667 -0.1646  0.2317
19081W        W19281   2.147  16.601   6.948 -0.3317  0.0077 -0.2171
19082W        W19282   6.506   2.112  10.159 -0.2389  0.2968 -0.1050
19083W        W19283  11.198  10.076   4.461 -0.1802 -0.0299 -0.1849
19084W        W19284  12.858  16.229   5.211 -0.0965  0.0359  0.3578
19085W        W19285   8.332   1.625   7.008  0.1808  0.2724 -0.0117
19086W        W19286   2.521  14.937   9.668  0.2922  0.0848 -0.0293
19087W        W19287   9.334   0.292   6.133  0.1094 -0.2695  0.0569
19088W        W19288   5.883   7.718   7.431  0.1116 -0.0730 -0.0132
19089W        W19289  17.489   0.958  11.138 -0.0314 -0.0001  0.2764
19090W        W19290   4.260  12.565  14.347  0.0347 -0.0944  0.0506
19091W        W19291  17.075   0.240   0.299 -0.2042  0.0646 -0.2703
19092W        W19292   4.059   2.911   9.239 -0.1870 -0.1293 -0.2295
19093W        W19293   7.902   5.667  11.095 -0.0461  0.1740  0.1237
19094W        W19294  10.371  15.193  10.818  0.1986 -0.1139 -0.3523
19095W        W19295   6.317  12.694   8.673 -0.0782  0.1557 -0.0709
19096W        W19296  15.473  13.254   9.101 -0.0301  0.1637 -0.0139
19097W        W19297  17.491  14.923   1.863 -0.0936  0.0964 -0.1523
19098W        W19298   9.066  15.294  10.132 -0.1514 -0.1670  0.2908
19099W        W19299  12.459  17.568   7.891 -0.1158  0.1761  0.0530
19100W        W19300  14.880  12.258   2.311 -0.0308 -0.2129  0.0858
19101W        W19301   5.779   2.758   9.298  0.0229 -0.3890  0.1773
19102W        W19302   8.421  14.133   3.308 -0.2101  0.0154 -0.0783
19103W        W19303  10.187  15.950  13.645  0.0303 -0.0515 -0.1363
19104W        W19304   4.155  12.345   3.630 -0.1745  0.2178  0.0424
19105W        W19305  11.006  14.991  11.715  0.1818  0.0396  0.1170
19106W        W19306   4.958  13.598   2.495  0.2473  0.0424 -0.0247
19107W        W19307   0.282  16.295   9.632 -0.0865 -0.0458  0.3175
19108W        W19308  10.837   1.387  10.746  0.0280  0.0928 -0.0544
19109W        W19309   2.002   2.882  12.477 -0.1513 -0.2235 -0.1966
19110W        W19310   6.859  13.334  12.256  0.0927 -0.0390 -0.0217
19111W        W19311   6.064  17.526   5.905  0.2721  0.0430 -0.3882
19112W        W19312   8.926  13.158   7.487  0.1103  0.2478 -0.0077
19113W        W19313   7.961   0.949  10.077  0.2840  0.0650 -0.1591
19114W        W19314   3.978   4.784   4.294  0.0423 -0.2731 -0.3332
19115W        W19315   4.072   2.288   5.738  0.1399  0.0506  0.0950
19116W        W19316  16.708  12.726  12.913 -0.2144 -0.3386 -0.2420
19117W        W19317   0.242   2.978   7.710 -0.2664  0.0875  0.1235
19118W        W19318  14.824  13.934   4.183 -0.0095  0.1387 -0.1867
19119W        W19319   2.881  15.559   9.176 -0.2505  0.2291 -0.2705
19120W        W19320   6.195   2.626   9.589  0.2583  0.3011 -0.0286
19121W        W19321   6.090   3.980  13.047  0.0124  0.1330 -0.0265
19122W        W19322   4.024   8.902  10.268  0.2239 -0.3327 -0.2596
19123W        W19323   7.642  13.675  10.284 -0.0507 -0.2786  0.1351
19124W        W19324   2.892  15.590   3.834  0.0211 -0.3017 -0.1820
19125W        W19325   3.161   2.740  15.290 -0.1487 -0.2372 -0.1277
19126W        W19326   5.490  18.187   6.493  0.0006 -0.0308  0.2941
19127W        W19327  11.191   2.635   5.286 -0.2786 -0.0736 -0.3270
19128W        W19328   5.003   3.555   8.643  0.0487 -0.1754 -0.0737
19129W        W19329   8.795   3.326   4.444 -0.1837  0.0516 -0.2472
19130W        W19330   6.460  14.536   6.939  0.1685 -0.0754  0.1659
19131W        W19331   2.805   4.560   6.455  0.3857  0.0661  0.0058
19132W        W19332   4.770  12.194   9.588  0.2242  0.1827 -0.0415
19133W        W19333   5.084   1.642  13.504  0.1026  0.1929  0.1488
19134W        W19334  12.060   1.744   4.119 -0.2934  0.0984  0.0334
19135W        W19335   6.898  16.603  14.020 -0.0648  0.1570  0.2952
19136W        W19336   5.108  17.480   5.916 -0.1140 -0.1041  0.1310
19137W        W19337  14.698  13.523   5.822 -0.2439 -0.0424  0.2783
19138W        W19338  15.650  16.955   7.555 -0.0245 -0.0501 -0.0551
19139W        W19339   5.250  17.513  15.627 -0.1628  0.0218 -0.0389
19140W        W19340  17.060  10.135   5.133  0.0003 -0.0045  0.0379
19141W        W19341  12.574   1.700   7.375  0.2891  0.2640 -0.1537
19142W        W19342  17.608  13.040   3.002 -0.1163 -0.0338  0.1575
19143W        W19343  12.115  13.572   2.965 -0.0514  0.0140  0.3173
19144W        W19344  16.396  18.085  11.568 -0.2053  0.4217  0.3697
19145W        W19345   0.231  16.958   8.838  0.0823  0.2049 -0.1112
19146W        W19346   0.600   5.638   6.777 -0.2703 -0.1840 -0.0965
19147W        W19347  14.574   2.461   5.486 -0.2261 -0.0962 -0.3537
19148W        W19348   6.099  15.624  11.068  0.0711 -0.0647  0.1329
19149W        W19349   6.354  11.498   3.873  0.1132  0.0399  0.3636
19150W        W19350  17.514  17.548   3.945 -0.0192  0.3208  0.0226
19151W        W19351  10.682  16.277   9.971  0.1641  0.1867 -0.1779
19152W        W19352  11.781  10.915   2.424  0.4736  0.0508  0.2646
19153W        W19353  14.870   0.229   9.878  0.2881  0.1551  0.0591
19154W        W19354   3.904   2.970   8.533 -0.3558 -0.0613  0.0342
19155W        W19355   1.526   3.986   7.891 -0.1066  0.0124 -0.0586
19156W        W19356  17.303  17.310  15.491 -0.1346  0.1261  0.0303
19157W        W19357   7.349   0.446   7.142  0.3895 -0.0821  0.0592
19158W        W19358   5.186  17.304   7.405  0.4009  0.0885  0.0969
19159W        W19359   6.770   2.575   8.935  0.1618  0.0385  0.0673
19160W        W19360  11.085  16.786   5.111  0.3213  0.2030  0.0277
19161W        W19361  17.566  11.602   2.244  0.1649  0.1236 -0.4814
19162W        W19362   7.732  14.752   9.078 -0.0081 -0.2952 -0.0540
19163W        W19363   0.766  12.510   4.636  0.0851 -0.2454 -0.2497
19164W        W19364   1.806   3.452   5.452  0.2537 -0.2532  0.2252
19165W        W19365   2.855   2.733   8.215  0.0934 -0.0253 -0.0129
19166W        W19366   4.828  11.358   4.926  0.1462  0.3100 -0.0679
19167W        W19367   0.129  10.368  11.281 -0.0914 -0.0834  0.0447
19168W        W19368   4.950  10.640   7.411 -0.0167  0.0533  0.0755
19169W        W19369   4.076  14.259  10.166  0.0289 -0.0004 -0.1656
19170W        W19370  14.294  16.198   7.828 -0.0250 -0.0232  0.1213
19171W        W19371  12.051   0.703   8.482  0.1612 -0.0058 -0.4063
19172W        W19372   1.503   8.639   4.096  0.2426 -0.0687  0.2382
19173W        W19373   2.874  17.108   8.751  0.0277  0.0231  0.1680
19174W        W19374   7.512  15.777   5.796 -0.0142  0.1285 -0.0723
19175W        W19375   6.888  12.814   0.567 -0.1412  0.4583  0.0606
19176W        W19376  13.188  10.849   5.203 -0.0205  0.2224 -0.0217
19177W        W19377   1.270  12.466   4.839  0.0444 -0.1999 -0.0329
19178W        W19378   7.116  16.847  10.060 -0.1378  0.3340  0.0634
19179W        W19379  12.603  16.137   8.056 -0.0459  0.2096  0.0286
19180W        W19380   8.188   4.157   6.360  0.0020  0.2159  0.3226
19181W        W19381   4.983  18.041   5.787 -0.1135 -0.4609 -0.4660
19182W        W19382   9.471   8.880   2.321  0.1833 -0.3825  0.0784
19183W        W19383   8.960  11.603  17.128 -0.0234 -0.2433 -0.0841
19184W        W19384  14.533   0.813   6.441  0.1904  0.1402  0.0578
19185W        W19385   7.743  16.180  10.098 -0.2533 -0.3976 -0.3705
19186W        W19386   5.239  12.938  15.149 -0.1876  0.3463  0.1402
19187W        W19387   8.515  13.639   8.689  0.1308 -0.4295  0.1322
19188W        W19388   8.005   4.639  10.439 -0.0286  0.0667 -0.2600
19189W        W19389   0.005   1.813  11.090  0.2528  0.1155  0.1066
19190W        W19390   2.392  13.778   9.910  0.3038 -0.2473 -0.2120
19191W        W19391   5.188  12.401   2.781 -0.0264  0.1350 -0.0492
19192W        W19392  10.140   9.828   8.684  0.3153  0.3854 -0.1260
19193W        W19393   3.838   7.377  14.095 -0.3295 -0.0796 -0.0125
19194W        W19394  11.506   7.619  15.031  0.0061  0.1750  0.1327
19195W        W19395   0.555  16.596   7.415 -0.2322  0.1747  0.1019
19196W        W19396   4.802  14.708   2.226 -0.0791 -0.0717  0.2492
19197W        W19397  14.807  10.235  15.582 -0.1007  0.0135 -0.2293
19198W        W19398   5.162   1.681  10.267  0.0762  0.1411 -0.0671
19199W        W19399   5.879  10.981  11.471  0.1821  0.0358  0.1362
19200W        W19400  11.359   0.168   7.960  0.1161  0.3405  0.0924
19201W        W19401   6.614  16.229   5.226  0.2074 -0.0897  0.1348
19202W        W19402   8.530   0.883   5.256  0.4377  0.0082  0.0802
19203W        W19403  15.660  16.484  11.410 -0.1248  0.2608 -0.1424
19204W        W19404   7.390   1.920   8.807  0.2559 -0.0390  0.3156
19205W        W19405   2.217  15.653   7.922  0.4382  0.1449  0.4279
19206W        W19406   4.417  17.212   7.527 -0.1363 -0.1963  0.0555
19207W        W19407   7.695   0.043   2.832  0.1289 -0.0579  0.1027
19208W        W19408   4.642  11.801   4.706  0.1434 -0.3701  0.1391
19209W        W19409   5.943  16.833  12.286 -0.0577 -0.1212 -0.0876
19210W        W19410   1.003   6.802  10.991 -0.0300  0.0850  0.2208
19211W        W19411   2.702   7.268  11.910 -0.2170  0.3466  0.0944
19212W        W19412  11.763  15.054   1.005  0.1639  0.1585 -0.1348
19213W        W19413  14.357  13.544   3.296 -0.0055 -0.1649  0.0138
19214W        W19414   7.053   1.812   0.056 -0.2562 -0.2520  0.1301
19215W        W19415   2.547   2.237  11.821 -0.0624 -0.0471  0.0835
19216W        W19416  12.371  16.380  12.885 -0.1506  0.1469  0.0505
19217W        W19417  13.763   2.806  15.071  0.2262 -0.2310 -0.0666
19218W        W19418  10.002   0.132   8.932  0.2542  0.1421  0.2046
19219W        W19419   0.295   7.324  14.754  0.0350  0.0286 -0.0751
19220W        W19420  17.977   7.055  16.558 -0.1190  0.1327 -0.1434
19221W        W19421  10.734  14.250  10.820 -0.3750 -0.1033 -0.1874
19222W        W19422   2.009  15.993  17.646  0.0258 -0.0128 -0.1246
19223W        W19423   4.056  15.935  10.515 -0.2055  0.2781  0.1325
19224W        W19424   2.450  17.617  17.192 -0.0948  0.0109  0.0429
19225W        W19425   6.478  12.676  11.379  0.2384  0.1205  0.1893
19226W        W19426  11.664   1.563  11.760 -0.0888  0.1222 -0.1732
19227W        W19427  17.266  17.834   4.403  0.0079  0.2242  0.0665
19228W        W19428  14.536  17.811  16.578  0.0818 -0.1056 -0.2923
19229W        W19429   1.860   3.656  11.359  0.1978 -0.1005 -0.1143
19230W        W19430   7.093  13.531   1.999  0.0097  0.2694  0.0537
19231W        W19431   1.246   0.637  10.000  0.0447 -0.3331  0.0625
19232W        W19432   4.233  12.630  10.449 -0.1120 -0.0700 -0.3897
19233W        W19433   8.199  13.125  14.140 -0.2047 -0.2202  0.1114
19234W        W19434   9.027   9.200   0.666  0.0922  0.1102  0.1227
19235W        W19435   4.383   0.279   8.652  0.1685 -0.3907  0.1880
19236W        W19436   9.343  16.660   2.394 -0.2414 -0.1322 -0.0154
19237W        W19437   8.095   0.643  10.394  0.1531  0.2232 -0.1362
19238W        W19438   8.733  12.750  12.054 -0.1189 -0.0520 -0.0063
19239W        W19439   4.418  14.133  15.993 -0.2033  0.0348  0.0719
19240W        W19440  10.429  13.751   3.172  0.0564  0.0987  0.0977
19241W        W19441   0.552   1.704  12.366 -0.1313  0.1504  0.0973
19242W        W19442   1.505  12.498   9.939 -0.0099  0.0278 -0.1046
19243W        W19443   4.661  13.025   9.260 -0.2071 -0.1326 -0.1584
19244W        W19444   4.405   5.295   6.818  0.1846  0.0755 -0.2113
19245W        W19445   5.899  13.859  11.717  0.3708 -0.0024 -0.1834
19246W        W19446   7.557   1.933  11.979  0.2900  0.3146 -0.0847
19247W        W19447  17.735   3.181  18.137  0.3878 -0.1658 -0.0878
19248W        W19448   2.929   0.043   0.119  0.3220  0.1906 -0.0136
19249W        W19449   7.851  12.712  13.360  0.1057  0.1254  0.0255
19250W        W19450   6.284   0.453   2.594  0.2770  0.0718  0.3797
19251W        W19451   9.568  12.711  13.477  0.2265  0.3866 -0.1700
19252W        W19452   9.294   6.099  11.145 -0.1170 -0.2259 -0.2097
19253W        W19453   5.078   2.832  15.922  0.3817 -0.2386  0.0501
19254W        W19454  15.270   4.674  13.410  0.0602  0.1879  0.0611
19255W        W19455   4.011  13.317  13.015  0.2095 -0.0944 -0.2086
19256W        W19456   8.690   0.878   8.667 -0.1331  0.0995  0.1375
19257W        W19457  17.570   0.371  10.312  0.1747 -0.0980  0.0146
19258W        W19458   2.882   8.268   9.709  0.2443 -0.1730 -0.0213
19259W        W19459   6.956  11.207  11.505 -0.2173  0.0285  0.1327
19260W        W19460  17.103   3.438   0.977 -0.1224  0.1275 -0.2221
19261W        W19461   7.036  14.579   8.514 -0.1888  0.2338 -0.3601
19262W        W19462   4.742  14.086  12.725  0.0303 -0.2768  0.1686
19263W        W19463  10.907   4.137  11.755 -0.0350 -0.0836  0.1114
19264W        W19464  15.971  13.340  15.898  0.0548  0.3383  0.0825
19265W        W19465   7.284   0.303  15.003  0.0456  0.0293 -0.1406
19266W        W19466   5.285  15.957  18.203 -0.0105 -0.0413 -0.0710
19267W        W19467  11.504  14.797   4.483 -0.0557  0.0631  0.3843
19268W        W19468   2.153  14.992  12.810 -0.0012 -0.0947  0.0661
19269W        W19469   3.442  14.470  12.211 -0.0278 -0.2019 -0.0941
19270W        W19470   4.227   4.624   5.263 -0.0970 -0.0979  0.0134
19271W        W19471   9.833   7.532  10.713  0.0356 -0.0019 -0.0131
19272W        W19472  16.857  17.437  15.103 -0.0295 -0.2357  0.1535
19273W        W19473   8.098  11.358   9.289 -0.3588  0.3135 -0.0798
19274W        W19474   3.252   8.146  10.019  0.0871 -0.0581 -0.3855
19275W        W19475  17.414   1.653   0.489 -0.3585 -0.1579  0.1369
19276W        W19476  11.920   0.603   2.824 -0.0424 -0.5181  0.0610
19277W        W19477   2.217   8.513   9.193 -0.0376 -0.1262 -0.2126
19278W        W19478   7.337  13.005  15.648 -0.2335  0.1283 -0.0170
19279W        W19479   1.306  15.609  11.526  0.1452 -0.0422 -0.0090
19280W        W19480   4.499  11.761   8.202  0.3438 -0.1160  0.0591
19281W        W19481   8.994  16.921  14.639 -0.0328 -0.3290  0.3323
19282W        W19482   3.752  17.993  15.564 -0.1124 -0.0951 -0.1356
19283W        W19483   1.977   2.499  16.216 -0.0534  0.0792  0.0831
19284W        W19484  10.026   4.427  10.521 -0.2169 -0.1232 -0.0735
19285W        W19485  12.262   5.214   6.281 -0.2312 -0.0243  0.0665
19286W        W19486   1.448  17.726  17.328  0.0155 -0.4998  0.0968
19287W        W19487  10.515  16.930  10.389  0.0235  0.3164  0.2077
19288W        W19488   0.687   0.754  15.495 -0.0733  0.2540 -0.0285
19289W        W19489  10.546  14.715  16.024 -0.1192 -0.1189 -0.1133
19290W        W19490   9.652  11.311   7.172  0.3167  0.1057 -0.0020
19291W        W19491   3.141  11.210   6.011 -0.1414 -0.3173 -0.0538
19292W        W19492  12.729   0.573   4.649 -0.0465 -0.4078 -0.1865
19293W        W19493   5.118   3.891   7.276  0.3391 -0.0772 -0.2953
19294W        W19494   7.523  14.110   9.372 -0.1650 -0.0236  0.2094
19295W        W19495   1.764   3.004  15.787 -0.3031  0.3898 -0.1376
19296W        W19496   6.725  13.882  13.586  0.0564  0.0939 -0.0383
19297W        W19497   0.583   3.072  15.147 -0.2609 -0.0548  0.0163
19298W        W19498   9.107   1.194   4.631  0.1348  0.1806 -0.0377
19299W        W19499   7.998  15.209  10.807 -0.2883 -0.2417 -0.0958
19300W        W19500  17.977  13.361  10.884  0.4138  0.0738  0.1595
19301W        W19501   6.491  13.820  14.098  0.2732  0.3735  0.3296
19302W        W19502  13.436   1.242  16.733 -0.0242 -0.0147  0.0491
19303W        W19503  15.250  16.635   7.890 -0.2898 -0.0490 -0.0913
19304W        W19504  13.999   1.016  13.493  0.2241  0.3265  0.2988
19305W        W19505   3.901  15.557   4.893 -0.1408  0.1316  0.0982
19306W        W19506   4.325   4.055  12.773 -0.1455 -0.0297 -0.2880
19307W        W19507   2.903  16.445   9.172 -0.0515 -0.0772  0.1837
19308W        W19508   5.729   2.112  13.689 -0.1033  0.3133  0.1485
19309W        W19509   9.918  15.606   9.590 -0.1584 -0.0786  0.1076
19310W        W19510   3.942  17.119   5.349  0.0288  0.2447 -0.1485
19311W        W19511   4.349   6.331   3.690  0.0050  0.1415 -0.0058
19312W        W19512   2.025  12.197  13.312 -0.0880  0.2728 -0.1187
19313W        W19513   1.826   1.475  14.958 -0.0733 -0.2393 -0.3046
19314W        W19514   4.412  17.593  11.519 -0.2316 -0.2017  0.4199
19315W        W19515   9.085   2.846  10.164 -0.1058 -0.0395 -0.0373
19316W        W19516   4.718   2.592   4.388  0.0257 -0.1263 -0.1488
19317W        W19517  15.544  11.656  15.655  0.2648 -0.1207 -0.0435
19318W        W19518   5.727  12.417  14.535 -0.2205 -0.0224 -0.1824
19319W        W19519  17.312  17.731   5.310 -0.0361 -0.0467  0.1044
19320W        W19520  17.861  11.087  11.295 -0.3263  0.3316 -0.0925
19321W        W19521   7.971  10.414  13.082  0.0666  0.1172 -0.0596
19322W        W19522   7.146  12.459   7.639 -0.0846  0.1641  0.3832
19323W        W19523   2.661  12.474  11.606 -0.1316 -0.0070 -0.2966
19324W        W19524   1.749  13.003   7.634  0.1375  0.2919 -0.2366
19325W        W19525   0.246  15.364  14.653 -0.1425 -0.0451 -0.0390
19326W        W19526   4.594   2.894  14.843 -0.0642  0.0071 -0.0312
19327W        W19527   3.107   4.127  11.146 -0.2895  0.0034  0.4188
19328W        W19528   4.304   0.346   8.200 -0.0407  0.1153  0.0418
19329W        W19529   4.619  17.297  14.243 -0.0999 -0.0580  0.2969
19330W        W19530   3.145   5.207   9.003  0.1258  0.0426 -0.3793
19331W        W19531   1.821  10.570   1.932  0.3293  0.0668  0.2200
19332W        W19532   4.630   6.461   7.069  0.3052  0.0548 -0.0126
19333W        W19533   4.551  10.658  11.562 -0.0740  0.2375  0.1184
19334W        W19534   3.303   2.355  13.530  0.5033 -0.2742  0.1628
19335W        W19535   1.760  17.531  10.578 -0.1275  0.0109  0.0879
19336W        W19536   6.122   3.113  10.306 -0.1715  0.3731  0.2051
19337W        W19537   3.150  16.207  14.752 -0.0209 -0.0148  0.1076
19338W        W19538  14.098   8.175   7.884 -0.0999  0.1910  0.4047
19339W        W19539   7.653   3.064  17.061  0.0213 -0.3585  0.0503
19340W        W19540   9.974  12.745  12.638 -0.1755 -0.0097 -0.0083
19341W        W19541   7.414  15.447  11.642  0.3437 -0.0411 -0.0375
19342W        W19542  14.840   2.551   8.998  0.1547 -0.1416  0.0214
19343W        W19543  14.444  13.743  15.420  0.0346 -0.0667 -0.0115
19344W        W19544  14.586  12.790  11.226 -0.1001 -0.0037 -0.0284
19345W        W19545   1.622   2.137  16.139  0.2919  0.3450  0.0135
19346W        W19546   9.734   1.800  13.372 -0.1416 -0.1802 -0.3010
19347W        W19547  11.401  13.421   0.098 -0.2378  0.0016  0.0091
19348W        W19548  16.390  14.827  14.525 -0.0791 -0.2528 -0.2379
19349W        W19549  10.768   8.256  13.180  0.2921  0.2243 -0.0344
19350W        W19550   9.584  16.073  13.694  0.0602 -0.1509 -0.1329
19351W        W19551  17.569  15.816   4.746 -0.0660 -0.0590  0.0892
19352W        W19552   8.057   0.801   2.163 -0.1900 -0.1626  0.0760
19353W        W19553   2.442  16.417  11.386 -0.2688  0.3163  0.2058
19354W        W19554  16.688  18.182   0.085 -0.2259 -0.0549  0.1160
19355W        W19555  12.962   6.060  10.296  0.0208 -0.0600  0.1514
19356W        W19556   7.000   1.188  12.160 -0.2669  0.0868  0.0805
19357W        W19557   3.494   1.933   3.433 -0.0001 -0.2767  0.2664
19358W        W19558   3.179   0.090  11.500 -0.1418 -0.0889  0.0942
19359W        W19559   5.264  15.276  16.144 -0.0649 -0.1984 -0.2402
19360W        W19560  10.652   5.572   8.185  0.1025 -0.0897 -0.0448
19361W        W19561   9.824   0.516  13.735  0.2294  0.3568 -0.2317
19362W        W19562  10.746  17.727   9.421 -0.0916  0.0553 -0.0489
19363W        W19563  13.279  10.854  12.709 -0.3321  0.1287 -0.2766
19364W        W19564   6.852  15.977   7.154 -0.1466 -0.1200  0.1598
19365W        W19565  16.580  16.835  15.865  0.1203  0.2221  0.1006
19366W        W19566   8.207  17.941  17.225  0.0260  0.0392  0.1042
19367W        W19567  15.488   2.044   6.923  0.0367 -0.3676  0.0001
19368W        W19568   9.376  17.208   9.051  0.1976  0.0376 -0.0294
19369W        W19569   7.395   4.300  15.490  0.2917 -0.0833 -0.0821
19370W        W19570   5.575   1.626  13.216  0.1969 -0.4465  0.0115
19371W        W19571   8.656   3.809   6.427  0.3249  0.1619 -0.0378
19372W        W19572   5.926   2.881   8.765  0.4273 -0.2040 -0.0454
19373W        W19573  12.913   1.264  16.679  0.0818  0.2127  0.0425
19374W        W19574   1.603  12.817   8.625 -0.3048  0.0763  0.1818
19375W        W19575   9.643   2.213   1.353 -0.2193 -0.2465  0.2123
19376W        W19576   7.300  16.670  11.949  0.1052  0.2279 -0.3532
19377W        W19577  12.594  14.352  11.910  0.1195  0.2669 -0.0522
19378W        W19578   6.341  15.930   8.315 -0.1933 -0.0426  0.1251
19379W        W19579   3.886  14.981   9.781  0.0479 -0.4016  0.0822
19380W        W19580   9.016   1.515   3.203 -0.1320  0.0407 -0.1004
19381W        W19581  16.764  12.155  13.689  0.3576 -0.0275 -0.0721
19382W        W19582   6.242   1.756   3.242 -0.2474 -0.1972  0.1217
19383W        W19583   3.343   8.701  17.086  0.2155 -0.0406  0.2023
19384W        W19584   7.459   5.610  11.605 -0.0958  0.4207 -0.0609
19385W        W19585   7.069   2.033   5.604  0.0299 -0.2369  0.2948
19386W        W19586   4.078   0.154   5.896 -0.1083 -0.3499  0.0076
19387W        W19587   6.641   3.211  11.007  0.1512  0.0027  0.0959
19388W        W19588   2.799   0.374  10.418  0.1123  0.2374 -0.0674
19389W        W19589  16.755   4.292  13.716  0.0581  0.0996  0.1138
19390W        W19590   4.199   3.267  15.881 -0.2510  0.0851 -0.1321
19391W        W19591   9.535  10.749  13.801  0.3556 -0.2627  0.0412
19392W        W19592   5.543  13.832   6.501  0.0027 -0.0276 -0.0323
19393W        W19593  10.577  12.525  14.921 -0.2274  0.1197 -0.0689
19394W        W19594   3.488   4.353  13.360  0.2395 -0.0918 -0.1546
19395W        W19595   2.224   3.698   6.364 -0.0978  0.1132 -0.0729
19396W        W19596   2.169   8.976  10.619  0.0874 -0.1060  0.1410
19397W        W19597  17.952  14.976  12.629  0.1816 -0.1365  0.0174
19398W        W19598   5.589   3.421  18.116  0.1684  0.0656 -0.2406
19399W        W19599   0.116  16.865   6.037 -0.0130  0.1423  0.2285
19400W        W19600   2.733  17.155  14.150  0.2716 -0.2050  0.2086
19401W        W19601  10.410  11.958   4.376  0.0146 -0.2209  0.1351
19402W        W19602  12.170   3.365   4.461  0.0518 -0.0122 -0.1730
19403W        W19603  12.970   5.366  17.045 -0.0934 -0.0161  0.0990
19404W        W19604   0.173  12.679  10.283 -0.1059 -0.0820 -0.2405
19405W        W19605   2.115  14.177  14.494  0.1392 -0.0844 -0.1524
19406W        W19606   4.677  16.197   3.906 -0.0900  0.0845  0.2384
19407W        W19607   3.726  17.514  16.646  0.0086 -0.0908  0.2212
19408W        W19608   6.013  14.780   8.835  0.2042 -0.0622  0.0982
19409W        W19609   7.431  11.288  15.195  0.0139 -0.0770 -0.2314
19410W        W19610   7.556   5.350   1.646 -0.2081  0.0445 -0.5014
19411W        W19611  10.169   3.651   7.386 -0.1341 -0.1330 -0.1773
19412W        W19612  11.110  15.867   7.557  0.0610  0.3671  0.2373
19413W        W19613   7.664  18.085  15.145  0.0722  0.1352  0.1265
19414W        W19614  11.436  14.859  15.793  0.2376  0.5315 -0.2309
19415W        W19615   5.733   0.671   6.048  0.1314 -0.0559 -0.0006
19416W        W19616  14.585  11.923  16.105 -0.3080  0.1800 -0.3571
19417W        W19617   4.302   4.925  18.086  0.0768  0.0314  0.1484
19418W        W19618   3.443  16.041   4.179 -0.1614 -0.1786 -0.0766
19419W        W19619   9.493  17.001   3.864 -0.3102  0.0396  0.0591
19420W        W19620  17.206  16.294  18.013 -0.1751  0.0638 -0.4399
19421W        W19621  12.548   3.970  16.181 -0.1617 -0.3139  0.1795
19422W        W19622  10.895  16.535   9.482  0.0594  0.0322 -0.2468
19423W        W19623   1.479   6.205  13.846  0.1836 -0.0736 -0.2259
19424W        W19624   2.905  12.152  15.088  0.0151 -0.6380  0.1965
19425W        W19625  17.668  17.488  15.149  0.0679  0.4391  0.2868
19426W        W19626  11.958   2.586   4.888  0.1858 -0.3086  0.1958
19427W        W19627   5.046   3.514  13.915  0.2867  0.3997  0.1261
19428W        W19628   0.656  16.092   4.695 -0.0789  0.0794  0.0128
19429W        W19629   2.254  17.277   3.750  0.0574  0.0788  0.3837
19430W        W19630   7.034  15.148  13.610 -0.3463 -0.1068 -0.1155
19431W        W19631  11.077  16.979   7.952  0.1728  0.0619  0.0906
19432W        W19632   9.355  17.030  16.231  0.1382 -0.2364  0.0770
19433W        W19633   4.311   3.296   4.588 -0.2823  0.0649  0.4694
19434W        W19634  17.385   2.589   9.924 -0.2297  0.1710  0.2519
19435W        W19635   4.621  14.135  11.426 -0.2900  0.0110  0.0387
19436W        W19636   3.872   1.646  13.443 -0.0195 -0.1852 -0.1906
19437W        W19637  17.503  15.020  13.345  0.0263  0.0316 -0.0346
19438W        W19638   5.771   2.660  10.374  0.0270 -0.2563 -0.0165
19439W        W19639   2.564   1.893   0.452 -0.1992  0.1345 -0.1256
19440W        W19640   3.954   2.631  13.216  0.3960 -0.1369 -0.0944
19441W        W19641   9.285   0.458  14.410  0.2331 -0.0427 -0.1245
19442W        W19642   5.257   9.786  15.688 -0.1880 -0.1214 -0.1734
19443W        W19643   9.964  17.638  13.968  0.3890  0.0249  0.1378
19444W        W19644   3.278  14.149  17.499 -0.2856 -0.1620 -0.1749
19445W        W19645  18.156  17.193  15.180 -0.2140  0.0235  0.0783
19446W        W19646  14.780  11.635   8.836  0.0968 -0.1263  0.1274
19447W        W19647   0.347   2.907  12.845  0.1284 -0.1411 -0.0103
19448W        W19648   9.500  16.993  14.662 -0.0972 -0.2581  0.1654
19449W        W19649   5.252   0.533   5.769  0.4436  0.1505 -0.0138
19450W        W19650   4.953  14.260  14.695 -0.0928  0.1282  0.2640
19451W        W19651  10.934   3.931   6.172  0.0321  0.0368 -0.0526
19452W        W19652  14.769   8.650  12.561 -0.0994  0.1237  0.3191
19453W        W19653   0.743  15.509   7.567  0.0550  0.0817 -0.0945
19454W        W19654   4.822   2.015  15.463 -0.1884 -0.1930 -0.1048
19455W        W19655  17.728   9.532   5.542 -0.1918 -0.2007  0.2468
19456W        W19656  11.794  11.410   3.013  0.0279  0.2182 -0.0557
19457W        W19657   2.276   9.453  13.603 -0.1473 -0.1234 -0.0361
19458W        W19658   9.200  14.977   1.782  0.3175  0.1195 -0.2392
19459W        W19659  15.805  15.418  15.085 -0.0585  0.0457 -0.0621
19460W        W19660   4.470  15.133  14.350  0.0355 -0.1449  0.4141
19461W        W19661   8.570  15.856  14.148  0.0499 -0.1044  0.1739
19462W        W19662   4.330  14.675   7.293 -0.2213  0.0103  0.4385
19463W        W19663  13.355   1.059  14.552 -0.0418 -0.1846  0.1755
19464W        W19664   2.832   4.427  10.765 -0.4270 -0.1849  0.0720
19465W        W19665   0.777   8.096   8.219 -0.2242 -0.0257 -0.0312
19466W        W19666   5.845  17.841  10.778 -0.0822 -0.0049 -0.0677
19467W        W19667   2.192  12.388  12.850  0.1863  0.2665 -0.2467
19468W        W19668  13.700   0.787   9.328 -0.3818 -0.2432 -0.0267
19469W        W19669   7.021   3.760   5.331  0.2734 -0.0702 -0.2669
19470W        W19670   7.644   0.944   0.428 -0.0491  0.0170 -0.1259
19471W        W19671  12.003  15.431  13.187 -0.3157  0.0586 -0.0843
19472W        W19672  10.869  14.180  12.423  0.1031 -0.1081 -0.0974
19473W        W19673   7.300   4.100  13.922 -0.3697  0.1890  0.2117
19474W        W19674   7.827   2.009  17.158 -0.0205  0.0893 -0.1196
19475W        W19675   7.316   0.513   1.569  0.1159 -0.0613 -0.1586
19476W        W19676  13.091  13.651   6.737  0.2418 -0.1200 -0.1313
19477W        W19677   1.061  13.271  13.788  0.0492  0.0027 -0.2214
19478W        W19678   5.083   1.552   7.469 -0.2757  0.1783 -0.0306
19479W        W19679  10.790   3.281  10.242  0.0453 -0.3279  0.0198
19480W        W19680   5.460  10.375  16.888  0.0092 -0.0159 -0.0729
19481W        W19681   7.444   1.019  12.484  0.1052 -0.1262  0.2059
19482W        W19682   8.525  10.593   7.133  0.0073 -0.3240 -0.2025
19483W        W19683  17.918  17.309  11.592 -0.1406 -0.1093  0.1666
19484W        W19684  16.569  10.641   0.735  0.2909 -0.0967  0.0593
19485W        W19685  12.187   0.981   9.783  0.2203 -0.3972  0.0147
19486W        W19686  12.561   1.133  12.854  0.3822 -0.2280 -0.0394
19487W        W19687  14.660   6.650  15.539 -0.0724 -0.0659  0.1671
19488W        W19688   5.575   1.679  14.281 -0.0596 -0.0146  0.2195
19489W        W19689   5.573  17.430   2.369 -0.3156 -0.1754  0.3898
19490W        W19690  16.135  12.771   8.555  0.2935 -0.0431  0.1346
19491W        W19691  11.079  13.396  15.599  0.1277  0.1765 -0.0693
19492W        W19692   4.669   0.681  16.907 -0.4349  0.2606 -0.0450
19493W        W19693   1.417   8.431   6.110 -0.1151  0.1228 -0.1276
19494W        W19694   2.426   7.434  11.392 -0.0661 -0.0528  0.0458
19495W        W19695   2.382  14.552  14.463 -0.0811 -0.0662  0.1923
19496W        W19696  16.820   3.756  15.755 -0.1089 -0.0634  0.2462
19497W        W19697   4.094   1.303   9.231  0.0831  0.2011 -0.2941
19498W        W19698  15.269  15.210  12.912 -0.1455  0.1489 -0.0120
19499W        W19699   2.419   8.413   7.493  0.2335 -0.0575 -0.1483
19500W        W19700  17.174  10.582   7.648 -0.0487  0.2895 -0.0327
19501W        W19701  15.092   6.262  18.105  0.0094 -0.0456  0.1160
19502W        W19702   0.015   3.902  11.197 -0.0604  0.1564 -0.0074
19503W        W19703   1.979   0.232  14.043 -0.0535 -0.1650 -0.1678
19504W        W19704  14.439  14.676   9.355 -0.0622  0.1532  0.2700
19505W        W19705   8.239   1.295   0.135 -0.2579  0.5482  0.2116
19506W        W19706   5.154  16.253  10.363  0.2048  0.3663 -0.0785
19507W        W19707  16.038   6.453  11.239  0.1034 -0.0504 -0.1478
19508W        W19708   1.658   8.417  13.986  0.0929 -0.1651 -0.2031
19509W        W19709   1.120   6.769  16.053  0.0549  0.2937  0.0467
19510W        W19710  15.479   1.472  17.865 -0.0747 -0.1809  0.2001
19511W        W19711   4.830  15.414   7.501 -0.0055  0.3336 -0.0890
19512W        W19712   4.106   0.520  12.835 -0.1842 -0.0366 -0.3395
19513W        W19713   0.072  18.026   9.729 -0.1950  0.0817 -0.3190
19514W        W19714  15.208   0.520   1.228 -0.1467  0.3293  0.1068
19515W        W19715  17.496   1.935  16.893 -0.1571  0.2036 -0.1794
19516W        W19716   8.870  13.369  15.891 -0.1946 -0.0298  0.2345
19517W        W19717  12.852   0.960   9.215 -0.0958  0.3506  0.0053
19518W        W19718   0.981   6.878  16.565  0.1089  0.2286  0.0777
19519W        W19719  14.265  12.471  12.725 -0.1523 -0.1744 -0.1382
19520W        W19720   8.225  17.938  12.892 -0.1937 -0.0179  0.1951
19521W        W19721   2.685   0.797   0.550 -0.2575  0.0132 -0.1124
19522W        W19722   3.511  15.866   9.576  0.2976  0.0447 -0.0372
19523W        W19723   4.875  15.549   9.002  0.1148  0.0977 -0.4154
19524W        W19724   2.855  14.950   1.045 -0.2125 -0.0341 -0.0463
19525W        W19725   6.094   1.344   7.192 -0.2965 -0.1731  0.0260
19526W        W19726   4.390  13.697  12.855 -0.1932 -0.0623  0.3567
19527W        W19727   6.995  17.102   9.674  0.1323  0.0550  0.0981
19528W        W19728   2.978   4.079   7.746  0.3873  0.0182 -0.0642
19529W        W19729   4.734   3.486   9.065  0.1995  0.3803  0.1974
19530W        W19730   4.703  18.060  10.582 -0.0518 -0.0430  0.2376
19531W        W19731   1.862  14.958   2.908  0.0186 -0.0965  0.2148
19532W        W19732  11.903  14.898   9.751 -0.0459 -0.0554  0.0024
19533W        W19733   0.163   8.181  12.686 -0.2194 -0.2924 -0.0916
19534W        W19734   1.042   7.565   6.391 -0.3023 -0.0532  0.0551
19535W        W19735  18.070  10.814  14.021  0.2551 -0.2098 -0.1432
19536W        W19736   7.138  16.236   8.618  0.0813  0.0342 -0.0061
19537W        W19737   0.487  13.238  12.652  0.0580 -0.2020 -0.1746
19538W        W19738  13.689   8.054   7.576 -0.0547  0.0611  0.1579
19539W        W19739  14.137   6.486  13.796  0.0224  0.0759 -0.1089
19540W        W19740   2.073  11.271  11.599 -0.0886 -0.2229  0.0368
19541W        W19741   7.876   8.932  10.797  0.1740 -0.1263  0.0189
19542W        W19742   4.059   5.878  11.842 -0.1745  0.2890 -0.3524
19543W        W19743   4.265  13.326   5.723  0.1334  0.6862  0.0852
19544W        W19744   3.973   2.975   1.949  0.1538 -0.0464 -0.2811
19545W        W19745   5.500  16.949  11.497 -0.0086 -0.0867 -0.0142
19546W        W19746   3.589  16.555  17.099  0.2254  0.0317  0.1651
19547W        W19747   2.873  16.547  14.504 -0.0478 -0.0386 -0.0419
19548W        W19748   8.839   2.880   2.549  0.3459  0.2739 -0.1025
19549W        W19749   6.017   0.428  14.510  0.1362 -0.1787  0.0752
19550W        W19750  13.243  12.463   6.548  0.2053  0.1500 -0.1877
19551W        W19751  13.361   5.748   3.386  0.0277 -0.2271  0.1282
19552W        W19752   3.349  16.515  10.048  0.4237  0.3956 -0.3453
19553W        W19753  13.358  13.748   8.198 -0.1077  0.3625 -0.3174
19554W        W19754  17.439  14.255  10.905  0.3872 -0.1538  0.3084
19555W        W19755  11.248  15.424   8.102  0.0737 -0.2250  0.0107
19556W        W19756   5.183   5.216  16.824  0.0420 -0.0071  0.1029
19557W        W19757   4.169  17.204  14.485 -0.1110 -0.1001  0.1722
19558W        W19758   4.368   0.548  17.319  0.1385  0.3916  0.2474
19559W        W19759   1.756  15.217  10.122 -0.1032 -0.4183  0.2374
19560W        W19760   6.595  12.991  11.739  0.3488  0.0680 -0.0971
19561W        W19761   3.994   9.249  14.231  0.2073 -0.3738 -0.2699
19562W        W19762   1.106  13.416   6.446 -0.4531  0.0404 -0.1428
19563W        W19763   8.178   8.516  11.833 -0.0306  0.1593  0.1605
19564W        W19764   9.487  12.559  14.148 -0.1027  0.1860  0.0299
19565W        W19765   1.103  12.805  16.771 -0.0001  0.0802  0.2717
19566W        W19766   7.883   0.325   2.372 -0.3072 -0.1283 -0.3151
19567W        W19767   1.629  16.417   9.101 -0.0754 -0.0598  0.0542
19568W        W19768   6.918   1.564   7.472 -0.1099 -0.0718 -0.0162
19569W        W19769   2.979  18.162   1.692  0.0453 -0.3750  0.2967
19570W        W19770  12.480   8.558  12.913  0.1322 -0.2052 -0.1982
19571W        W19771  11.730  16.752   0.043 -0.0924 -0.1193  0.0287
19572W        W19772  15.961  17.356  10.598 -0.2193  0.0442 -0.1488
19573W        W19773   6.613   3.208  16.539  0.1274 -0.1111  0.1693
19574W        W19774   8.338  13.998  13.879 -0.0703  0.1069  0.2556
19575W        W19775   9.592  17.143   3.344 -0.1113  0.1380 -0.2208
19576W        W19776   9.109  12.773   9.266 -0.1743 -0.1824  0.3011
19577W        W19777   2.508   1.794   2.526 -0.1698  0.0133 -0.2208
19578W        W19778  16.509  14.611   0.568 -0.4761  0.0853 -0.3220
19579W        W19779   8.024   2.111   5.481  0.2201  0.2343 -0.2232
19580W        W19780  11.490   1.824   2.719 -0.0727  0.2582 -0.0491
19581W        W19781   0.018   3.011  11.112  0.1205 -0.0376 -0.1039
19582W        W19782   8.660   6.971   3.245  0.0033 -0.2438  0.0009
19583W        W19783   7.234   9.630   4.753 -0.2511  0.2218 -0.0817
19584W        W19784   2.602   7.563  16.401  0.0813 -0.1171  0.1489
19585W        W19785   8.406  16.924   2.900 -0.0769 -0.0034 -0.0108
19586W        W19786   6.846  14.002  11.770 -0.0797  0.0236 -0.1035
19587W        W19787   9.450   3.071  16.184  0.0376 -0.2857  0.1059
19588W        W19788  17.289  11.800  11.924 -0.1148 -0.2545 -0.0741
19589W        W19789   6.168  13.933  12.455 -0.0171  0.2207 -0.1792
19590W        W19790   6.363   4.197   5.808  0.1497  0.1288 -0.4462
19591W        W19791   5.280  13.056  14.069  0.1048  0.1199  0.0670
19592W        W19792  13.565   3.718  14.299 -0.0358  0.0325  0.2624
19593W        W19793   9.974  15.761  16.797 -0.0372  0.3069  0.3352
19594W        W19794   3.585  16.853   5.157 -0.1113  0.1139 -0.1080
19595W        W19795   3.234   5.554   9.509  0.1476 -0.2446 -0.1779
19596W        W19796   3.721   9.587  10.238  0.0674 -0.2159 -0.1459
19597W        W19797  10.311  17.540  10.260  0.0105  0.2741  0.1768
19598W        W19798  12.315   6.813  16.984  0.0353 -0.0629 -0.1543
19599W        W19799   0.577  17.985  16.484  0.1285  0.0985 -0.3955
19600W        W19800   4.448  14.709  16.262 -0.2309  0.2179  0.0551
19601W        W19801   4.557   0.326  11.860 -0.3948  0.0825  0.2499
19602W        W19802   7.193  16.774  13.236  0.1434  0.3396  0.2659
19603W        W19803   3.603   2.451   6.339  0.0916 -0.0024 -0.0626
19604W        W19804  17.169   2.040  16.168  0.1516  0.0658  0.2846
19605W        W19805   0.119  11.207  14.045 -0.1580 -0.0314 -0.1059
19606W        W19806   5.409  11.955   1.826  0.0344  0.0024 -0.1793
19607W        W19807   0.424  15.470  10.761 -0.0195 -0.1410  0.0743
19608W        W19808   7.961  11.741   8.559  0.2189 -0.1623  0.0583
19609W        W19809   5.315  15.291   7.637 -0.0051 -0.1251  0.1244
19610W        W19810  12.288  11.511  12.317 -0.0103  0.1546  0.1249
19611W        W19811  16.520  17.547   7.556 -0.0225  0.0648 -0.2433
19612W        W19812  16.626  17.277  13.932 -0.1235 -0.1748  0.1673
19613W        W19813   5.157   5.013   7.458  0.0673  0.0429 -0.0012
19614W        W19814   3.547   8.556   9.005  0.1654  0.0156 -0.3373
19615W        W19815  17.836   0.577  11.563 -0.3071 -0.1578  0.0124
19616W        W19816   1.629  13.794  13.015 -0.0659  0.1433  0.2634
19617W        W19817   8.858   2.000  13.756  0.0863  0.1088  0.2923
19618W        W19818   3.668   2.321   7.348 -0.2317  0.0553  0.3743
19619W        W19819   7.235   1.651  12.515  0.0332  0.1757 -0.0317
19620W        W19820   3.510  16.972  10.199 -0.0931  0.1378  0.5334
19621W        W19821   5.582  16.427  18.131 -0.1168 -0.1701 -0.1790
19622W        W19822   4.013   1.162  13.395 -0.0393  0.3683  0.3369
19623W        W19823  11.711   1.789  13.792  0.1249  0.2508 -0.0747
19624W        W19824   5.829  13.443  12.424 -0.1682  0.4301 -0.0522
19625W        W19825  17.814   4.382  16.192  0.1843  0.0252 -0.0921
19626W        W19826   5.821  12.467  16.793 -0.0250  0.2001 -0.1609
19627W        W19827  15.063   7.488   0.464 -0.2454  0.1610 -0.2939
19628W        W19828   7.716  13.890  15.699  0.0041  0.1918  0.2064
19629W        W19829   5.409  15.490   9.696  0.1730  0.1139  0.0728
19630W        W19830  14.584   9.627  13.756  0.2797 -0.1088 -0.1804
19631W        W19831   3.002  14.873   0.409  0.1617 -0.4105  0.1244
19632W        W19832   1.261  14.394   1.179  0.1337 -0.0811 -0.2115
19633W        W19833   7.533  17.476  13.461 -0.0646  0.2665 -0.3626
19634W        W19834   3.088  13.676  11.222 -0.0310 -0.1317  0.2089
19635W        W19835   9.325  15.584   1.132 -0.1728 -0.1454 -0.0697
19636W        W19836   1.867  14.783   7.020 -0.0296  0.0401  0.0951
19637W        W19837   5.924  11.112  12.467  0.1968 -0.0082  0.0096
19638W        W19838   7.057   7.875   0.431  0.0470  0.1661  0.0296
19639W        W19839   5.516  14.141  12.921  0.0236  0.2488  0.2032
19640W        W19840  13.278  18.100   2.293  0.2023 -0.2642 -0.2025
19641W        W19841   4.051   0.002  11.898 -0.6491  0.0842 -0.0462
19642W        W19842  15.036  10.396  13.545 -0.2369  0.2147  0.0548
19643W        W19843   2.771  17.470   3.835  0.0896 -0.1436 -0.0451
19644W        W19844  11.606  15.473  17.201 -0.0238  0.1199 -0.1474
19645W        W19845   0.961   1.467  16.185 -0.1613 -0.1804 -0.0230
19646W        W19846   4.839  12.483  15.946 -0.0548  0.0063  0.1002
19647W        W19847   4.571  16.491   5.315  0.1319  0.1380 -0.0573
19648W        W19848   9.764   7.233  16.929  0.2447  0.2739 -0.0504
19649W        W19849   3.829  14.785  13.852  0.1399  0.0191 -0.1160
19650W        W19850   5.372  17.026   9.435  0.0302  0.1891  0.0162
19651W        W19851   8.147   1.038   7.920  0.1055 -0.2976  0.0338
19652W        W19852   9.877  14.962   5.875  0.0128 -0.3367 -0.2697
19653W        W19853   3.283   4.165  10.673  0.1102 -0.0717  0.2927
19654W        W19854   6.595  13.704   1.959 -0.2825  0.1324 -0.3653
19655W        W19855   1.583   8.133  15.701  0.2006 -0.1013 -0.1217
19656W        W19856  12.156  17.408  14.713 -0.0440 -0.4820 -0.1883
19657W        W19857   3.905   8.794  15.146 -0.3490 -0.0563 -0.0982
19658W        W19858   9.837  12.117  11.753  0.1683  0.1668  0.0785
19659W        W19859  16.206  13.304   0.447  0.0490 -0.0499 -0.1217
19660W        W19860   3.242  16.469   3.383 -0.2197  0.0077 -0.0530
19661W        W19861  13.748  17.218  15.964  0.0942 -0.1641 -0.1195
19662W        W19862  10.152  14.887  13.360 -0.0404 -0.3297 -0.4158
19663W        W19863   6.378   6.286   9.918  0.0401 -0.0268  0.2812
19664W        W19864  13.731  14.442  10.628  0.0947  0.0803 -0.0413
19665W        W19865   3.715   1.447   3.089 -0.2272 -0.0874  0.0473
19666W        W19866   7.901   2.486  15.407  0.0812  0.1168  0.0910
19667W        W19867   7.311   1.066   2.497  0.2539 -0.3669  0.3344
19668W        W19868   8.018   6.994   0.095 -0.2225  0.0247 -0.0764
19669W        W19869   3.162   3.472   5.034 -0.0679 -0.1678  0.0105
19670W        W19870   7.855  12.674   6.969  0.0051  0.1794 -0.1187
19671W        W19871  15.723  17.925   2.609  0.0323 -0.2233  0.1345
19672W        W19872   2.306   0.612  11.875 -0.2035  0.2231  0.0968
19673W        W19873  18.036   1.170  16.037 -0.0986  0.1263 -0.2793
19674W        W19874   7.490  13.831  12.386  0.1800  0.2417 -0.0835
19675W        W19875  12.317  14.429   1.541 -0.0856  0.0702 -0.1005
19676W        W19876   4.619  10.403   8.243 -0.2685  0.0558  0.1082
19677W        W19877   4.531  17.964   9.410  0.0147 -0.2768  0.0071
19678W        W19878  10.793  17.216  16.715  0.1362 -0.1648 -0.3251
19679W        W19879   5.497  17.431  16.089 -0.0014 -0.0868  0.1018
19680W        W19880  18.138  12.161   2.584  0.0014  0.0091  0.1288
19681W        W19881   8.217  16.721  13.254 -0.0149  0.1470 -0.1092
19682W        W19882   3.152   1.077  12.869  0.1161 -0.1994  0.1244
19683W        W19883   8.475  15.361  15.474  0.0788  0.0733  0.1458
19684W        W19884   7.598  17.793   1.115  0.3864  0.1127  0.2595
19685W        W19885   3.758  12.906   8.611  0.1548 -0.0012  0.1329
19686W        W19886   9.162  17.732   1.251  0.2467 -0.1573  0.2136
19687W        W19887   2.374   8.710   3.875 -0.3696  0.2562  0.4800
19688W        W19888   1.263  15.164  17.538  0.2665 -0.0236  0.1000
19689W        W19889   4.531  17.726  16.809  0.1800 -0.2299 -0.4190
19690W        W19890   4.277  14.771  15.758  0.3638  0.0566 -0.0497
19691W        W19891   8.591   4.296   2.100 -0.1405  0.1760 -0.0068
19692W        W19892   6.075   9.772  17.908  0.2322  0.0482  0.0096
19693W        W19893  18.136   9.038  12.402  0.0548 -0.1407  0.1035
19694W        W19894  11.781  15.101   0.053 -0.0954 -0.0738  0.0273
19695W        W19895   3.904  13.385  13.874 -0.1905  0.0264  0.3199
19696W        W19896   4.783  14.349  12.263  0.5483  0.0279  0.3660
19697W        W19897   3.285   0.877  13.318  0.2313  0.0034  0.0377
19698W        W19898   0.781   3.859  13.920 -0.1866 -0.4584 -0.1745
19699W        W19899   6.712  15.715  17.624  0.0318  0.0080  0.1159
19700W        W19900   8.766  11.678  16.708 -0.0007 -0.2083 -0.1161
19701W        W19901   5.687  13.751  17.506  0.0815  0.0625 -0.1144
19702W        W19902   7.579  13.395   5.492  0.0294  0.0013 -0.2116
19703W        W19903  15.637  13.670   6.682 -0.3488  0.0399  0.0982
19704W        W19904   3.151  17.982  17.816 -0.1371  0.1696  0.0835
19705W        W19905   0.496   1.598  17.802 -0.0608  0.0990  0.0508
19706W        W19906   9.946   1.628  14.766 -0.0297 -0.1813 -0.0498
19707W        W19907  18.079   3.215  17.468 -0.2105 -0.2438  0.0856
19708W        W19908   8.729   9.666  14.641 -0.2080 -0.0126  0.0550
19709W        W19909   4.950   0.288   2.413 -0.1799  0.2758 -0.0253
19710W        W19910  11.670  12.347   4.406 -0.0745  0.1195 -0.2084
19711W        W19911   3.507  12.356   5.634 -0.0374  0.0855 -0.2024
19712W        W19912   7.581  17.300   1.263  0.0287  0.2265 -0.1979
19713W        W19913   4.877   3.065  11.046 -0.3958 -0.1874  0.0618
19714W        W19914  12.275   4.613  16.992  0.2616 -0.1609 -0.2195
19715W        W19915   6.479  13.967   0.455  0.1225  0.0176  0.2128
19716W        W19916   5.565   1.283  14.643 -0.1711  0.2025  0.0469
19717W        W19917   4.345  13.234  17.794  0.2082 -0.1206 -0.0804
19718W        W19918  16.186  16.125  14.697 -0.0150 -0.2689  0.0651
19719W        W19919  12.342   0.112   3.447  0.1342  0.0671  0.0758
19720W        W19920   3.259   4.244  14.665 -0.2800 -0.1468  0.1052
19721W        W19921   7.330  15.360  16.816  0.0887 -0.0079 -0.0674
19722W        W19922   4.069  11.835  12.253 -0.0717  0.0178 -0.0594
19723W        W19923  11.341   9.764   7.094 -0.0455  0.2051  0.0166
19724W        W19924   1.078  14.746  14.965  0.0852  0.0021 -0.0592
19725W        W19925  15.174  16.256  17.843 -0.0344  0.0855 -0.2210
19726W        W19926   0.677  11.892  14.378  0.1136 -0.3743  0.2084
19727W        W19927   9.175  16.375   7.304  0.0572  0.1108  0.0733
19728W        W19928   5.880  16.989   9.530  0.1168 -0.1818 -0.2055
19729W        W19929   3.581  12.833  16.445  0.0635  0.0584 -0.3739
19730W        W19930  14.429  15.267   1.964 -0.0233 -0.2645 -0.1590
19731W        W19931   6.950  11.969  13.356 -0.2661 -0.0306  0.1437
19732W        W19932   5.610  14.087  13.801  0.1821  0.1567  0.2364
19733W        W19933   3.053  15.164   5.139 -0.0322  0.2393  0.1905
19734W        W19934  11.037  17.731  10.839 -0.0670  0.2596 -0.0280
19735W        W19935  10.825  15.950  17.147  0.1949  0.1214 -0.0915
19736W        W19936   3.373   2.192  17.197 -0.1215  0.0413 -0.2750
19737W        W19937   4.922   1.677  10.905 -0.0161  0.1589 -0.0243
19738W        W19938  12.273   8.461  17.055 -0.0756 -0.2307  0.6408
19739W        W19939  13.993   4.444   7.233 -0.1244  0.0182  0.2643
19740W        W19940   7.142   4.541   8.295  0.0195 -0.1771 -0.1744
19741W        W19941   0.676   4.280  16.563 -0.2421 -0.0603 -0.1544
19742W        W19942   5.968  12.877   6.921  0.2794 -0.1007  0.1455
19743W        W19943   0.059  16.442   2.909 -0.0173 -0.1125 -0.1895
19744W        W19944   2.712  15.949   1.405  0.3199  0.5188  0.3598
19745W        W19945   6.635  16.548  17.404 -0.0522  0.0296 -0.0842
19746W        W19946   1.757  17.979  15.381  0.0752  0.0754 -0.0707
19747W        W19947   0.148   3.722   3.062 -0.1943  0.1929  0.1946
19748W        W19948   9.248   9.422  16.115  0.1359 -0.0027  0.1091
19749W        W19949   4.985  17.208  15.087 -0.1000 -0.0952  0.0962
19750W        W19950  10.356   2.068   4.119 -0.1398 -0.0641 -0.1029
19751W        W19951   8.572   1.422  11.355 -0.3926  0.2887  0.2933
19752W        W19952   6.799  16.054  11.047 -0.0710  0.0452 -0.0137
19753W        W19953   2.162   9.216  11.099  0.2416  0.0700  0.1236
19754W        W19954  16.591   8.010   1.177  0.2261 -0.2695 -0.2270
19755W        W19955   0.751   9.956   4.223  0.2103 -0.1231  0.0768
19756W        W19956   0.530  14.149  10.671  0.3959  0.6301 -0.1817
19757W        W19957  10.365  17.535   4.803 -0.0935 -0.2343 -0.0242
19758W        W19958   4.846  14.199   0.074  0.0782 -0.2003 -0.1218
19759W        W19959   0.291   8.425   0.646 -0.0841 -0.1349 -0.0137
19760W        W19960   9.970   5.839  10.919  0.0550 -0.1468  0.1278
19761W        W19961   8.956  14.816  18.135  0.0786  0.1046  0.1893
19762W        W19962  17.214  17.542  12.655 -0.0020 -0.1153  0.1391
19763W        W19963   5.986  16.914  17.425  0.0171  0.0692  0.0053
19764W        W19964  16.369  17.383  14.873 -0.2877 -0.1033 -0.5395
19765W        W19965   0.355  16.237  15.196 -0.0695 -0.0588  0.0248
19766W        W19966  16.528  17.344   4.472  0.0919 -0.0293  0.2579
19767W        W19967   6.896  13.443   0.941 -0.1308 -0.0647 -0.3406
19768W        W19968   1.286  16.521  13.039 -0.0294  0.1107 -0.0519
19769W        W19969  11.207   2.819   8.830  0.0162 -0.4323 -0.0099
19770W        W19970  10.874  10.484  15.290 -0.0826 -0.2863 -0.0361
19771W        W19971   6.605   1.418  17.187  0.0629  0.0814 -0.1970
19772W        W19972  17.316   1.199  15.512 -0.2923  0.1512 -0.1217
19773W        W19973   5.017  14.870  13.643  0.3054 -0.0655  0.1479
19774W        W19974   2.993   3.715   0.797 -0.0077 -0.1503  0.1493
19775W        W19975   7.889   0.607   1.709  0.0712 -0.2588 -0.1403
19776W        W19976  17.806   2.208   1.224 -0.3705  0.0118 -0.0191
19777W        W19977   8.534  17.799   2.028  0.0687  0.0753  0.0029
19778W        W19978   3.354  16.436  16.633 -0.0728 -0.2106  0.1328
19779W        W19979  16.173   8.023  16.252  0.2071  0.0477 -0.1221
19780W        W19980  10.136  17.291   0.246  0.0765  0.0020  0.1415
19781W        W19981  12.775   0.548   1.611  0.1113  0.0601  0.0144
19782W        W19982  11.208  16.513  14.670 -0.1527  0.1293 -0.1309
19783W        W19983  15.787  15.551  15.926  0.0475  0.0393 -0.1976
19784W        W19984   5.108  13.371  16.899 -0.1068  0.0159 -0.1164
19785W        W19985   1.914   7.997   1.600 -0.0169  0.1718  0.2013
19786W        W19986   6.722   3.633  14.453 -0.1910  0.1103  0.0499
19787W        W19987  13.791   0.994   8.861 -0.1741 -0.2655  0.2379
19788W        W19988  10.426   1.352   0.514 -0.0494 -0.1198 -0.3831
19789W        W19989   4.716   7.820   3.847  0.1380 -0.2391  0.0581
19790W        W19990   0.786   9.764   1.476  0.1031 -0.1092  0.2396
19791W        W19991   3.033  14.729  14.523  0.1025  0.3425  0.1978
19792W        W19992   3.379  16.129  17.304  0.2061  0.0400 -0.1872
19793W        W19993   8.014   7.943   4.456 -0.2336  0.0414 -0.0946
19794W        W19994   6.074  16.076   0.550  0.1933  0.1856  0.1807
19795W        W19995   1.792  15.033  10.639  0.2250  0.0164  0.0598
19796W        W19996   4.359  13.375  15.410  0.1809  0.3323  0.2934
19797W        W19997   9.957   6.054  11.562 -0.0337 -0.3511  0.0860
19798W        W19998  15.753  17.720   4.230  0.0149  0.2582 -0.2417
19799W        W19999   6.796  16.988   0.061  0.1467 -0.0091 -0.0979
19800W        W20000   8.139  14.944  12.741  0.1175  0.0716 -0.2364
19801W        W20001   0.522  15.442   5.192  0.0206 -0.1170  0.0529
19802W        W20002  12.828  16.105  13.704  0.1314  0.2245 -0.1725
19803W        W20003   2.470   2.552  10.860  0.4119  0.0806  0.2118
19804W        W20004  14.257   0.790  17.894 -0.1649  0.0130 -0.1740
19805W        W20005   0.359  14.504  17.214  0.2691 -0.0906 -0.2810
19806W        W20006   5.594   8.081  17.417  0.1961 -0.2406 -0.0892
19807W        W20007   7.341  14.345  14.512 -0.2621  0.0376  0.2095
19808W        W20008  16.744  14.691   9.993  0.1024 -0.1032  0.2440
19809W        W20009   2.263  14.431  10.502  0.3452  0.0414 -0.1046
19810W        W20010   0.048   1.516  14.433 -0.1192 -0.1074  0.1133
19811W        W20011   4.014   9.830   2.343 -0.2108  0.0963 -0.1377
19812W        W20012   7.432  12.883  16.107 -0.0661 -0.3007 -0.1457
19813W        W20013   4.942  14.430  13.288 -0.1790 -0.0113  0.0612
19814W        W20014  10.531   3.471  10.677  0.1178 -0.1565 -0.2580
19815W        W20015  10.154   1.616  17.619  0.0464  0.0822 -0.0448
19816W        W20016   4.438  12.260  16.817  0.1532 -0.0222  0.0097
19817W        W20017  16.056  10.294   9.905  0.2683  0.0655  0.1645
19818W        W20018  14.073  16.543   4.845 -0.2180 -0.4151 -0.1832
19819W        W20019   8.239  11.797  17.805 -0.0849  0.0449  0.1163
19820W        W20020   6.517   2.645   2.895  0.0879  0.0167 -0.0444
19821W        W20021   4.394  11.104   3.500 -0.0841  0.2145  0.1960
19822W        W20022   8.100  16.170  15.903 -0.0613 -0.2072  0.0456
19823W        W20023   7.903  15.406   2.873  0.0762 -0.0207 -0.0204
19824W        W20024  17.065   2.444   0.169 -0.0046  0.1140 -0.1401
19825W        W20025   2.608   1.391   0.440 -0.1729 -0.4962 -0.1179
19826W        W20026   6.018   1.556  16.862 -0.0711 -0.1501  0.1313
19827W        W20027   7.521  13.648  13.051 -0.1214  0.1151 -0.0817
19828W        W20028   6.846   9.980  14.772  0.0335 -0.1457 -0.0560
19829W        W20029   6.319   2.469  15.283  0.3512 -0.2702 -0.1869
19830W        W20030   1.960   9.305  16.235 -0.2406  0.0537  0.0650
19831W        W20031   2.962  12.787  17.133  0.3063  0.3648 -0.0299
19832W        W20032   3.724   7.553  10.072  0.0954 -0.2071 -0.0579
19833W        W20033  15.691   9.771   0.806  0.1276 -0.1902  0.0655
19834W        W20034   6.120  11.046  15.098  0.0203  0.1287 -0.2809
19835W        W20035  13.366   0.381   4.694 -0.0116  0.0086  0.0271
19836W        W20036   6.071  14.098   9.176  0.0263 -0.1054  0.0789
19837W        W20037  15.336  15.451   3.266 -0.1936  0.0077 -0.0062
19838W        W20038  12.229  11.388   9.780 -0.1657 -0.2167 -0.2946
19839W        W20039   9.689   0.589   6.196  0.1298 -0.0682 -0.2031
19840W        W20040   8.164   9.438   5.703 -0.1937  0.0529  0.0341
19841W        W20041   5.524   3.690  14.170 -0.0370  0.1358 -0.0278
19842W        W20042   4.601   8.326   0.177  0.1376  0.3064 -0.0190
19843W        W20043   5.636  15.599   6.019  0.0441 -0.2203 -0.0901
19844W        W20044   3.830  14.875  13.059  0.0402 -0.0588  0.0891
19845W        W20045  14.019   0.320  13.652  0.0479 -0.0447  0.0262
19846W        W20046   1.046  16.587   3.179  0.1258  0.0463 -0.2210
19847W        W20047   0.021   1.513  18.087  0.1325  0.0960  0.0976
19848W        W20048   9.134  10.461  11.919  0.0879 -0.1306 -0.0235
19849W        W20049   6.643  10.674   5.728  0.0658 -0.0805  0.0336
19850W        W20050   5.451   9.421  11.755 -0.0960  0.0412  0.3853
19851W        W20051   9.445   6.786  16.779  0.2263 -0.0999 -0.2079
19852W        W20052   2.898  13.349  17.119  0.1798 -0.3216 -0.1482
19853W        W20053   7.868  13.988  13.315 -0.0493  0.1615 -0.1085
19854W        W20054   9.201   7.908  17.904  0.2011  0.1569 -0.0352
19855W        W20055   0.961   8.913  14.459 -0.1464 -0.1859  0.1750
19856W        W20056  10.980   0.189   0.494  0.0781 -0.2128 -0.0118
19857W        W20057   7.539   0.107   3.297 -0.0306  0.3515  0.0778
19858W        W20058  15.326   2.383   6.613  0.3744  0.1330 -0.0254
19859W        W20059   8.569  17.310  17.692 -0.0392  0.1247  0.1145
19860W        W20060   8.774  14.925  12.909 -0.0132 -0.1751  0.0301
19861W        W20061   2.798   4.838  12.638 -0.0613 -0.0936 -0.0640
19862W        W20062   5.968  14.871  15.161  0.3181 -0.0159  0.6823
19863W        W20063   4.106  11.629   2.534 -0.2473 -0.0581 -0.1090
19864W        W20064   4.721   0.235  10.277 -0.0099  0.1124  0.1578
19865W        W20065   7.203   2.957   8.084 -0.2970 -0.0995  0.0492
19866W        W20066  10.036   0.665  17.725  0.2757 -0.0259  0.0901
19867W        W20067   4.768   0.141  16.804 -0.1322 -0.1307 -0.0204
19868W        W20068   4.067   3.665  12.599 -0.3159  0.3159  0.0344
19869W        W20069   4.048   2.964  11.803 -0.1347  0.1431  0.2313
19870W        W20070   6.753  17.671   0.490  0.1206 -0.1311 -0.1831
19871W        W20071  11.404   4.971  13.238  0.2281 -0.2055  0.3272
19872W        W20072   4.922   5.042  17.985 -0.1137  0.3689 -0.0698
19873W        W20073  17.021  13.074  14.048  0.0911  0.1295  0.0311
19874W        W20074   4.698   6.116  11.765 -0.0151 -0.0785  0.0744
19875W        W20075  17.767   1.875   1.597  0.1717 -0.1120  0.4263
19876W        W20076   3.624  15.592  12.644 -0.0730  0.0828 -0.4919
19877W        W20077   7.300   5.836  14.471 -0.3593 -0.0588 -0.4414
19878W        W20078   5.569  10.546   2.502  0.1725  0.2507  0.0599
19879W        W20079  10.382  14.183   5.805 -0.1712 -0.0616  0.0025
19880W        W20080  16.653  12.374   0.202  0.1107  0.1466 -0.0395
19881W        W20081   5.076   9.421  17.593 -0.0662 -0.2010 -0.3143
19882W        W20082  17.999  16.179   2.447 -0.1330  0.3546 -0.0634
19883W        W20083   2.050  11.094  17.658 -0.1297  0.1723  0.1933
19884W        W20084   0.222  12.699   1.152  0.3243 -0.2272 -0.0575
19885W        W20085  13.644  15.349   1.265  0.0729 -0.2351  0.4662
19886W        W20086  15.752  17.343   2.544 -0.0488 -0.0380 -0.1704
19887W        W20087   1.762  14.038  13.488  0.1374  0.2620  0.0426
19888W        W20088   5.815   5.515   3.154  0.4796  0.0479  0.0892
19889W        W20089   4.294  10.560  17.125  0.0548  0.2522 -0.0319
19890W        W20090  10.144   3.463   2.650  0.2842 -0.0361 -0.2556
19891W        W20091   7.165  17.367   4.950 -0.2422  0.0531  0.1748
19892W        W20092   5.814   0.854  18.204 -0.2878 -0.3693 -0.2022
19893W        W20093  15.500  10.624   5.295  0.0146  0.1255  0.5009
19894W        W20094   7.659  16.079  12.211  0.0382 -0.2569  0.2172
19895W        W20095  10.805   6.838  13.095  0.2335 -0.1720 -0.3667
19896W        W20096   2.524  15.657   0.003  0.2650  0.1137  0.0646
19897W        W20097   4.611   2.305   7.637 -0.1368 -0.0371 -0.2416
19898W        W20098   8.310   9.054   1.208  0.0227 -0.1410 -0.4539
19899W        W20099   3.458  15.411   3.963  0.2297 -0.2298 -0.1288
19900W        W20100   7.459   3.879   7.775 -0.0766 -0.1296 -0.1699
19901W        W20101  15.076   1.455   3.329  0.0993 -0.1481 -0.0343
19902W        W20102  10.193  15.986  11.767  0.2710  0.0999  0.0662
19903W        W20103   4.570   5.837   9.546  0.0589  0.0821  0.0125
19904W        W20104  16.066   5.341  16.751 -0.2144 -0.1053  0.1257
19905W        W20105   4.563  17.265   4.709  0.1063  0.1084  0.0801
19906W        W20106   0.082  11.455  14.987  0.1211 -0.1754 -0.0247
19907W        W20107   6.723  17.756  15.990 -0.4151  0.0818 -0.1443
19908W        W20108   4.824   0.305   1.341 -0.0020  0.1861 -0.0234
19909W        W20109   4.516   2.247  15.107 -0.3225  0.1979  0.6355
19910W        W20110   9.500  14.427   1.653 -0.0508 -0.1431  0.1581
19911W        W20111  16.037   6.427  17.189  0.0589 -0.1729 -0.1152
19912W        W20112  17.644  14.252  16.073 -0.1431  0.2568 -0.1014
19913W        W20113  10.895   4.520   6.303  0.2095  0.0670  0.0032
19914W        W20114  10.234  16.539   4.951 -0.1023  0.0723 -0.1833
19915W        W20115   9.271   3.264   4.046  0.1871  0.1734 -0.0493
19916W        W20116   5.345   9.112  16.241  0.0302 -0.1286  0.4420
19917W        W20117  14.959  16.197   2.436  0.0570 -0.0363  0.0872
19918W        W20118   6.603  12.798   4.351 -0.1249 -0.1795 -0.0815
19919W        W20119  17.179   1.942   0.147  0.0770 -0.0128 -0.2196
19920W        W20120   4.303  13.192   7.378 -0.2646  0.1141  0.2207
19921W        W20121   8.310   0.291   2.129  0.0855  0.0679 -0.1633
19922W        W20122   0.227  16.949  15.647  0.2707  0.2465 -0.0391
19923W        W20123   9.746  12.259  11.148  0.0283  0.0675 -0.2630
19924W        W20124  11.796  17.457  17.832 -0.3787 -0.1822 -0.0347
19925W        W20125   8.722   0.636   9.613  0.0353  0.1313  0.1014
19926W        W20126   3.474  17.507   1.752  0.0786  0.0900  0.1230
19927W        W20127  14.479  18.098  16.965 -0.3040  0.2538 -0.0236
19928W        W20128  11.329   1.619  14.784 -0.1740 -0.2163 -0.0828
19929W        W20129   9.148  14.299  17.605 -0.1918 -0.0956 -0.2763
19930W        W20130   4.127  12.909  13.770 -0.1206  0.2315 -0.1420
19931W        W20131   8.395   3.256  16.298 -0.0057  0.1501 -0.0142
19932W        W20132   4.287   1.427  17.312 -0.0066 -0.0142  0.0463
19933W        W20133   4.275  17.493  17.201 -0.4316 -0.0467 -0.1982
19934W        W20134  14.111  14.033  14.697 -0.0739 -0.0518  0.2136
19935W        W20135  11.209  14.630   0.750  0.2416 -0.2045  0.0425
19936W        W20136   3.393   0.026  16.097  0.1509 -0.3883  0.0661
19937W        W20137   3.107  11.808  14.549  0.1542 -0.1082 -0.0494
19938W        W20138   8.523   9.019  15.815  0.4295 -0.1228 -0.2897
19939W        W20139   2.767  17.114   2.528  0.0536 -0.2886  0.1229
19940W        W20140   7.674  17.549   0.115 -0.1042 -0.0327  0.1813
19941W        W20141   8.222   9.295   7.270  0.1943 -0.2546 -0.1935
19942W        W20142   9.480  14.179   3.708 -0.2730 -0.5159 -0.2906
19943W        W20143   6.429   9.616  10.963 -0.3071  0.1336 -0.1216
19944W        W20144   1.213  14.354   6.240 -0.1097 -0.0657  0.0953
19945W        W20145   0.812   4.445   6.293  0.4321  0.0329  0.0659
19946W        W20146   8.560   3.308  16.783  0.0174 -0.0082 -0.1124
19947W        W20147   2.425   0.387  14.416 -0.0113  0.3310  0.1965
19948W        W20148   9.988   7.778  17.015  0.2450  0.0360 -0.1354
19949W        W20149   4.360   7.666   5.421  0.1481  0.1105  0.1005
19950W        W20150   4.803  12.711  17.170  0.0629  0.0280 -0.2111
19951W        W20151   2.971   7.798  15.637 -0.0834  0.1936 -0.2014
19952W        W20152   0.682   0.576  16.213  0.0839  0.2193 -0.0867
19953W        W20153   5.273   4.114  15.739  0.1890  0.0368  0.1438
19954W        W20154   0.090   7.953   8.762 -0.2671  0.0261 -0.4048
19955W        W20155   6.901  15.032   5.787 -0.0821  0.1317  0.1739
19956W        W20156   0.909   0.371  11.230  0.2185  0.0461 -0.2061
19957W        W20157  10.888   3.294   3.801 -0.2191 -0.0738  0.0394
19958W        W20158   4.056  10.433  13.014 -0.1089 -0.0529  0.0291
19959W        W20159   5.738   1.574  16.459  0.1352 -0.0848  0.3356
19960W        W20160   2.790   0.694   6.731  0.1133 -0.0912 -0.2844
19961W        W20161   7.795  13.101   1.933 -0.6752  0.1099  0.0201
19962W        W20162  10.057   9.374  12.969 -0.1029  0.1149  0.0907
19963W        W20163   3.369   5.662  13.241  0.0085 -0.3145 -0.1702
19964W        W20164   6.655  14.604  12.976  0.2352  0.0932 -0.1491
19965W        W20165   5.185  13.380   2.127  0.4272  0.2625 -0.2180
19966W        W20166   0.160  16.474   2.316  0.1163  0.2889  0.1893
19967W        W20167   1.816  11.045   0.934 -0.1664  0.1363  0.0069
19968W        W20168  13.148  16.857   7.537  0.1056  0.0947 -0.1010
19969W        W20169  10.490  11.908   3.469  0.1954 -0.0937 -0.3396
19970W        W20170   2.413   5.648   1.704 -0.0515  0.2744 -0.0160
19971W        W20171  15.501  10.430   9.095  0.1479  0.0169  0.3755
19972W        W20172   5.630   8.175  15.693  0.0151  0.0527 -0.0212
19973W        W20173   7.159  17.842   6.383 -0.1140 -0.0800 -0.1331
19974W        W20174  14.267  16.338   3.741  0.2731 -0.1000  0.2167
19975W        W20175   3.942   4.728   5.717  0.2564 -0.0136  0.2647
19976W        W20176   7.300   1.262  11.732  0.1307  0.0805 -0.0400
19977W        W20177  17.125  14.767   7.239 -0.1833  0.0308  0.1078
19978W        W20178  15.334   1.822  15.808 -0.0359  0.0129  0.1368
19979W        W20179  13.025  18.097  16.625 -0.3557 -0.1458 -0.0708
19980W        W20180  12.071   9.100   3.175  0.1272 -0.1256  0.0230
19981W        W20181   6.571  10.861  14.545 -0.0773  0.0244  0.0031
19982W        W20182   3.133  15.942  13.314 -0.1551 -0.0428 -0.0736
19983W        W20183   8.919   6.749  16.671  0.2468 -0.2521 -0.0285
19984W        W20184   9.774  12.817   5.664  0.4366  0.1238  0.0623
19985W        W20185  16.188   8.647  17.013 -0.3222 -0.2969  0.2259
19986W        W20186   6.555  15.762  14.188 -0.0665 -0.0191  0.3447
19987W        W20187   0.618  12.221   0.364  0.1061 -0.2420 -0.0269
19988W        W20188  17.356   9.241   0.544  0.0239  0.3065  0.1231
19989W        W20189   3.146  15.826   8.170 -0.1341  0.0791  0.1454
19990W        W20190   0.192  11.878  13.341  0.0232 -0.2838  0.0767
19991W        W20191  13.729   6.314  13.651 -0.3075 -0.0384  0.0692
19992W        W20192   6.101   1.824  18.126 -0.0163 -0.1872  0.1279
19993W        W20193   3.114  14.633   6.549 -0.1478 -0.1577  0.0316
19994W        W20194   4.152  13.266   0.057  0.0941  0.0018 -0.1655
19995W        W20195   1.467  14.206  17.547  0.0232  0.5347  0.1024
19996W        W20196   3.069  17.290  16.066  0.0601  0.0359 -0.1765
19997W        W20197  16.669  14.675  12.982  0.0136 -0.0028  0.1521
19998W        W20198   5.979   6.090   3.387 -0.3415  0.1232  0.1052
19999W        W20199  12.075   1.108  14.848 -0.1605  0.4474  0.0292
20000W        W20200   2.671  13.629  16.398  0.1712  0.0971  0.0609
20001W        W20201  13.547  15.801  11.168 -0.0794  0.3197  0.3203
20002W        W20202  17.364   1.963  13.017 -0.3646 -0.0482  0.0700
20003W        W20203   9.392   3.229  13.620  0.0584  0.1854  0.0364
20004W        W20204   8.431  12.487   1.883  0.2708  0.1263  0.0769
20005W        W20205  14.878  16.006   0.511 -0.2164 -0.1656  0.1673
20006W        W20206  11.715   5.025  11.809 -0.1523 -0.3055  0.0839
20007W        W20207   7.183   3.763   1.601  0.2143 -0.0475  0.3428
20008W        W20208   3.647  17.463   0.438 -0.0431  0.1917  0.0753
20009W        W20209   7.950   2.306  15.955  0.0306  0.0199 -0.1075
20010W        W20210  16.064   6.085   6.481 -0.0596 -0.1349 -0.4424
20011W        W20211  12.171  13.485   0.764 -0.0059 -0.1007  0.1624
20012W        W20212  15.869   4.379  12.922 -0.4233  0.0535  0.2315
20013W        W20213   9.069   1.477   0.450  0.1280 -0.0887  0.0327
20014W        W20214  12.866   8.696  15.751  0.3537 -0.0140 -0.0284
20015W        W20215   0.213  15.735  16.966  0.2053  0.3063  0.0230
20016W        W20216  12.178   7.479   3.435  0.2899 -0.1328 -0.0903
20017W        W20217   7.628  16.655  16.780 -0.1022 -0.0331 -0.0196
20018W        W20218   5.340   2.487   4.308 -0.0451 -0.2787 -0.2053
20019W        W20219  12.424   1.982  17.888 -0.0211 -0.2417 -0.2657
20020W        W20220  18.120   0.357  16.908  0.3103  0.0257  0.4011
20021W        W20221   3.463   0.269   5.283 -0.1375 -0.1994  0.2234
20022W        W20222  15.730  13.718  18.062  0.1751 -0.3757  0.1713
20023W        W20223   8.366  16.996   1.742  0.0665 -0.2493 -0.4157
20024W        W20224   0.979  17.693  10.786  0.1210 -0.2729 -0.0038
20025W        W20225  15.900   3.042   4.515  0.0860 -0.3541 -0.1982
20026W        W20226   4.822   1.201   2.984 -0.0130 -0.2205 -0.1496
20027W        W20227  12.435   6.101  13.855 -0.1969  0.3303 -0.1399
20028W        W20228   0.259   6.182   7.184 -0.0280 -0.2406 -0.0339
20029W        W20229   9.344   5.431  15.166  0.2394 -0.1968 -0.3092
20030W        W20230  12.923  13.010   3.334 -0.1394  0.0051 -0.1718
20031W        W20231   5.130   1.581  14.802 -0.1142  0.0692  0.4429
20032W        W20232   8.047   8.034   3.522  0.0801 -0.0891  0.0796
20033W        W20233  10.927  17.264   3.874 -0.0065 -0.4002 -0.2101
20034W        W20234   8.562  16.201   0.072  0.2867  0.0342  0.3674
20035W        W20235  15.030  16.690   6.501  0.0844 -0.0285  0.1751
20036W        W20236  15.537   6.705   5.865 -0.1853  0.1142 -0.0718
20037W        W20237   3.054  10.138  10.105 -0.2131 -0.0006  0.1242
20038W        W20238  12.823   1.122   4.630  0.0176 -0.1895  0.0231
20039W        W20239   2.507   1.369  10.897 -0.0563  0.2840  0.1056
20040W        W20240  10.465   1.317   3.447  0.0507  0.1015 -0.1874
20041W        W20241  10.235  16.328  17.505 -0.0786 -0.0766  0.0625
20042W        W20242  16.416  16.407  13.080 -0.0668  0.2528 -0.3237
20043W        W20243   6.121   3.085  17.987 -0.0867 -0.4745 -0.2871
20044W        W20244   9.673   0.396   2.836 -0.0779 -0.4566  0.0500
20045W        W20245  12.602   5.092   3.927 -0.2201 -0.0343  0.0264
20046W        W20246  11.156  13.392  16.094  0.1209 -0.2720 -0.0123
20047W        W20247  12.550  16.660   6.875 -0.1754 -0.1046  0.1605
20048W        W20248  13.042   1.516  13.643  0.2962 -0.0304  0.1115
20049W        W20249   5.039  15.401  17.545 -0.1117 -0.2978 -0.2090
20050W        W20250  15.703   5.538   6.617 -0.3839  0.2960  0.3147
20051W        W20251  11.443  17.475  17.486 -0.0325 -0.2900  0.2158
20052W        W20252  14.991   3.261   7.162 -0.1468  0.2146  0.0836
20053W        W20253  12.701   0.608   2.099 -0.1024  0.0395  0.0347
20054W        W20254  14.591   4.189  15.224  0.3823 -0.3632 -0.1491
20055W        W20255  12.700  18.020  13.592  0.3845 -0.2053  0.3033
20056W        W20256  16.012   0.017   3.984  0.1512 -0.0948  0.0964
20057W        W20257  13.030   1.042  12.485 -0.1817 -0.0466  0.1579
20058W        W20258   8.541  17.529  17.058  0.1857 -0.3197 -0.0785
20059W        W20259   7.658  17.861   5.089 -0.2661 -0.3405  0.1197
20060W        W20260   3.383   5.495   1.551  0.0609  0.4090 -0.2297
20061W        W20261  10.205   3.789   9.807 -0.0229  0.2270  0.1002
20062W        W20262   1.500   1.275   5.072 -0.4539 -0.2850  0.0992
20063W        W20263  11.648   1.322  13.804 -0.0438 -0.1953  0.0879
20064W        W20264  11.351  16.041   1.488  0.1718  0.0749 -0.1341
20065W        W20265   5.295   1.150   5.172  0.1233  0.3775  0.0666
20066W        W20266  17.786   2.455   0.506 -0.2227 -0.0331 -0.1211
20067W        W20267  17.322   2.476   5.686 -0.2297  0.3562  0.1064
20068W        W20268  13.161  16.329  16.184  0.1713  0.2381 -0.1882
20069W        W20269  12.077  17.866  12.293  0.3119  0.0866 -0.1078
20070W        W20270   5.993   2.930  15.440  0.1159 -0.0789 -0.0669
20071W        W20271  15.539  16.346   3.445 -0.0315 -0.0750  0.1386
20072W        W20272   8.172   1.102   5.979  0.1796 -0.0124  0.0591
20073W        W20273  12.747   3.786   0.936  0.0426  0.0260 -0.0839
20074W        W20274   1.472  11.700  17.167  0.0575  0.0623 -0.2823
20075W        W20275  11.692   3.175  13.174  0.2023  0.2209  0.0333
20076W        W20276   7.106  14.039  10.357  0.2624  0.2978  0.0469
20077W        W20277   0.483   4.989   4.290 -0.2453 -0.1578  0.0418
20078W        W20278   8.032  15.840   9.582  0.1710 -0.6076 -0.1122
20079W        W20279  14.661   1.170   8.418 -0.0970 -0.5009 -0.2443
20080W        W20280  12.330  16.969  14.790 -0.4303 -0.0622 -0.0345
20081W        W20281  15.381  17.750   0.331 -0.1536 -0.0089 -0.1351
20082W        W20282  16.324   1.570  17.433 -0.1450 -0.1551  0.0190
20083W        W20283  16.157  16.096  18.152  0.0945 -0.0345  0.1259
20084W        W20284   5.515   4.642   5.215  0.0725  0.1103 -0.0198
20085W        W20285   1.758  13.197  10.991  0.0292 -0.3631  0.0620
20086W        W20286   8.414  17.838   4.726  0.3247  0.0852  0.0741
20087W        W20287  11.639   2.783  10.476  0.3186 -0.2119  0.0344
20088W        W20288   9.766   6.348   4.596 -0.0741 -0.1155 -0.1193
20089W        W20289   7.346   0.744  16.352  0.2904 -0.1276  0.2400
20090W        W20290  18.089   1.002  17.566 -0.1073 -0.0528 -0.0028
20091W        W20291   6.012  12.929   4.299 -0.1733 -0.3244  0.1143
20092W        W20292  17.758   5.329   3.221 -0.0091 -0.0523 -0.1459
20093W        W20293  14.292   3.483  12.369 -0.4290 -0.3651  0.1810
20094W        W20294  17.828   1.057   9.032 -0.1077  0.0133  0.0823
20095W        W20295  15.025   1.824  16.268 -0.0720  0.1412 -0.3439
20096W        W20296   9.304   8.808   0.761  0.2776 -0.1674  0.0957
20097W        W20297  12.299  16.997   1.928  0.1065  0.0219 -0.2738
20098W        W20298   9.901  15.927   5.742 -0.3294  0.0196 -0.2637
20099W        W20299   8.937  16.715   7.607 -0.1371  0.3547 -0.2979
20100W        W20300  17.843   0.019   9.495 -0.0364  0.1118  0.1448
20101W        W20301   7.709   2.757   8.076  0.0816 -0.0682  0.1207
20102W        W20302  14.782   7.062   0.135  0.1765 -0.1768  0.0472
20103W        W20303  11.228   2.202  15.598 -0.2528 -0.1530 -0.1393
20104W        W20304  13.045   4.554   6.599  0.2433  0.1046 -0.3534
20105W        W20305  11.692  14.136   5.033  0.3992  0.1886 -0.2180
20106W        W20306   8.624   2.584   3.312 -0.1229  0.1363 -0.1305
20107W        W20307  16.847  17.673   5.792 -0.0899 -0.2401  0.0434
20108W        W20308   7.996   1.196   6.762 -0.1276 -0.1348  0.1272
20109W        W20309   9.069  15.270  16.369 -0.0157 -0.1775 -0.2425
20110W        W20310  17.056  17.583   3.836 -0.4659 -0.1360 -0.0316
20111W        W20311   8.450   0.196  17.153 -0.0218  0.2644  0.0653
20112W        W20312   3.533  15.713  13.559 -0.2381 -0.0093  0.0080
20113W        W20313   9.795   7.689   1.594  0.1334 -0.3095  0.1216
20114W        W20314  11.155   8.789   2.282 -0.1607  0.3553  0.1860
20115W        W20315   8.062  14.401   4.391  0.0882  0.0864  0.1619
20116W        W20316  16.026   1.954  15.116  0.1817 -0.3452 -0.1391
20117W        W20317   1.773   3.465   7.532  0.0943 -0.1449 -0.0722
20118W        W20318   6.520   2.461   4.955  0.0582 -0.0687 -0.1477
20119W        W20319   4.692   0.067   6.675 -0.1158  0.0037  0.1587
20120W        W20320   9.728   1.929   1.817 -0.0125  0.1879  0.0733
20121W        W20321   4.803   4.595   6.207 -0.1049  0.1743 -0.1383
20122W        W20322   3.510   5.898   7.821  0.1804  0.0278  0.4018
20123W        W20323   8.877  17.856   1.667 -0.0270  0.0540  0.0349
20124W        W20324  14.888  11.470  15.574 -0.1374  0.1182 -0.0510
20125W        W20325   8.465   6.429   5.032 -0.2150 -0.1808  0.1234
20126W        W20326   3.654  15.651   4.405  0.3389  0.0325 -0.2921
20127W        W20327   9.579   2.449  17.435  0.0220 -0.0622  0.0351
20128W        W20328   6.272  16.061  15.143  0.0881 -0.0782 -0.0236
20129W        W20329  11.775  12.300  16.154  0.1188  0.2025 -0.3094
20130W        W20330   1.858   5.544   4.416 -0.0262 -0.0939  0.1960
20131W        W20331   5.538   3.576   4.885  0.1984  0.0542 -0.0064
20132W        W20332  12.843   5.167  10.370  0.1381 -0.1175  0.1976
20133W        W20333  16.003   4.590   5.495 -0.2045  0.0350 -0.0495
20134W        W20334   6.666   4.493  14.608 -0.0336  0.1264 -0.1343
20135W        W20335  16.387   4.595  16.429  0.0698  0.0495 -0.0014
20136W        W20336   9.013  11.160   5.596 -0.0189  0.0844 -0.0644
20137W        W20337   9.486   0.182   5.479 -0.2778 -0.0898 -0.1310
20138W        W20338   6.188   4.040   6.258 -0.1854 -0.0856  0.3121
20139W        W20339  17.024   4.827   4.444  0.2997  0.2024  0.1477
20140W        W20340  16.872   5.214   2.023 -0.1461 -0.5413 -0.3652
20141W        W20341  10.451   2.705   0.077 -0.1185 -0.2258 -0.0548
20142W        W20342  16.348   7.673   0.915 -0.1178  0.1839 -0.1073
20143W        W20343   6.938   2.493   2.277 -0.3569  0.1944 -0.0637
20144W        W20344  12.305  12.019   3.935 -0.3414 -0.3859 -0.1861
20145W        W20345   7.281  14.434   1.793 -0.0738  0.0799 -0.1467
20146W        W20346   7.832   0.763  15.529  0.0906 -0.0644 -0.1055
20147W        W20347   1.428   0.374  17.964  0.0494 -0.0782 -0.0744
20148W        W20348   7.441   4.204   4.998 -0.1021 -0.0911  0.0769
20149W        W20349  13.841   4.234   3.232 -0.0522 -0.3422  0.1749
20150W        W20350  11.253   1.061  12.496  0.2565 -0.0114  0.1579
20151W        W20351  11.927  17.799  14.932  0.3977  0.0515 -0.0411
20152W        W20352   4.741  12.583   1.050 -0.0258  0.3098  0.1200
20153W        W20353   6.456   3.985   4.354  0.0033 -0.1964  0.3954
20154W        W20354  11.464  10.521  16.458  0.2391  0.0882  0.0035
20155W        W20355   7.307  15.220  10.194 -0.1266 -0.2928 -0.0272
20156W        W20356  13.493   7.079   4.455 -0.1926  0.1948  0.1652
20157W        W20357  10.909   6.722   6.518 -0.0753 -0.5062 -0.1676
20158W        W20358   5.548   6.755   6.184 -0.0358 -0.1596  0.1259
20159W        W20359   7.704   6.970  17.534 -0.1172 -0.1666 -0.0162
20160W        W20360  10.742   2.644   6.579  0.1024 -0.3960 -0.0320
20161W        W20361  13.884  14.779  15.293  0.3074  0.0133 -0.2369
20162W        W20362  17.941   0.163   5.517  0.0921  0.1823  0.0427
20163W        W20363   9.631   3.001  17.137  0.0792  0.2315  0.0242
20164W        W20364  14.968  10.901  10.070  0.0922 -0.0247  0.1552
20165W        W20365   2.105   1.132   8.411  0.0940  0.0452 -0.1334
20166W        W20366   7.939  17.564  15.739  0.1782 -0.0148  0.1987
20167W        W20367   3.821  15.731   3.935  0.3910  0.0077  0.0558
20168W        W20368  11.307   0.570   9.809  0.1297 -0.0227  0.0995
20169W        W20369   8.213   9.170  13.397 -0.1111 -0.2662 -0.0876
20170W        W20370  13.370  13.494  11.033 -0.1889  0.1208  0.1452
20171W        W20371   5.408  11.493   1.135 -0.1742 -0.0812  0.0966
20172W        W20372   9.034  17.892  13.546  0.1220 -0.3833  0.0894
20173W        W20373  14.484   1.617   1.169  0.0566 -0.3210  0.0270
20174W        W20374  15.374  11.974  10.110 -0.2606 -0.1229  0.0110
20175W        W20375  12.909   0.223   4.351  0.0183  0.3153  0.1255
20176W        W20376   7.572  14.533  16.383  0.2617  0.1513  0.1227
20177W        W20377  15.867   9.754  12.757  0.1499  0.2629  0.0474
20178W        W20378  12.519  15.211   3.488 -0.0801  0.0327  0.1372
20179W        W20379  14.694   0.402  10.897 -0.0526  0.1052  0.0384
20180W        W20380   0.094   0.725  13.250 -0.1343  0.1199  0.1594
20181W        W20381  10.100  16.082   9.390 -0.0919  0.1842 -0.3214
20182W        W20382  15.429  17.343   1.117  0.0686 -0.3017 -0.0124
20183W        W20383  11.831   7.773  10.425 -0.2748  0.0465  0.0601
20184W        W20384   9.102  12.440  15.533  0.1600  0.1060 -0.3039
20185W        W20385   3.837   2.546   4.481  0.1605 -0.1008  0.1015
20186W        W20386   9.123  17.793  15.626 -0.1136  0.0267  0.0029
20187W        W20387   6.960  13.922  17.515 -0.5263  0.1162  0.0192
20188W        W20388  14.200   7.041  13.859  0.2854  0.0587  0.2319
20189W        W20389   9.813   4.408   7.718  0.1315 -0.0147  0.1190
20190W        W20390  14.561  13.530   2.500 -0.1231  0.0435  0.2383
20191W        W20391  14.885   0.044  16.666 -0.1289  0.1531  0.0887
20192W        W20392  14.648  11.565   4.289 -0.0858  0.4176 -0.0188
20193W        W20393   9.889   7.958   3.876 -0.1787  0.1079  0.0521
20194W        W20394   0.333   8.478   7.912 -0.2465 -0.0689  0.3902
20195W        W20395   9.966   4.806   7.411  0.2352 -0.0045  0.0707
20196W        W20396   9.053  10.023   4.197 -0.1898  0.1963 -0.1224
20197W        W20397   7.152  11.037   3.409  0.3967  0.1939  0.1297
20198W        W20398   9.717   9.624   8.864 -0.0857 -0.4451 -0.0101
20199W        W20399  11.617   7.493   3.271 -0.1549  0.1853 -0.2325
20200W        W20400   9.413  15.662  14.408 -0.0512 -0.2235 -0.1338
20201W        W20401  17.448  11.545  17.792  0.1731  0.1902  0.0729
20202W        W20402   8.636   5.769   2.166  0.2225 -0.1210  0.2658
20203W        W20403  10.881  16.599   5.834 -0.0557  0.3110  0.2309
20204W        W20404  12.875   6.316   5.309  0.0662  0.0302  0.0535
20205W        W20405   7.153  17.230  15.229  0.2110  0.1715 -0.0167
20206W        W20406   0.737  15.481  14.619 -0.1013 -0.1666  0.1083
20207W        W20407   8.097   2.409   6.874  0.3937  0.0714 -0.0407
20208W        W20408   0.615  12.272  15.061  0.0859 -0.0150 -0.2200
20209W        W20409   8.069  17.439  17.871 -0.0576  0.0657  0.0997
20210W        W20410   6.437   3.842  11.672  0.0732 -0.1962  0.1483
20211W        W20411   8.786  15.378  15.904  0.1792  0.0092 -0.0742
20212W        W20412  10.941   9.737  12.339 -0.0729 -0.1353 -0.1419
20213W        W20413  14.939  14.959  16.916 -0.3147  0.1031 -0.0264
20214W        W20414   8.365   3.007   3.078  0.0005  0.0057 -0.2478
20215W        W20415  13.336   2.182   5.112 -0.0144  0.0262 -0.1380
20216W        W20416  12.008   6.289  10.168  0.2508  0.2891  0.3156
20217W        W20417  11.013   8.880   0.428 -0.1092  0.3069  0.0174
20218W        W20418  12.115   4.913   6.626  0.3410 -0.3800 -0.1252
20219W        W20419   1.045   8.657   5.877 -0.2262  0.1194 -0.1367
20220W        W20420  11.740   8.395   6.642  0.2026  0.0244 -0.1398
20221W        W20421  15.293  12.762  16.509 -0.0485  0.2876 -0.1513
20222W        W20422   1.083  13.659  14.820 -0.2710  0.3131  0.0043
20223W        W20423   3.601  17.761   9.651 -0.2849 -0.2215 -0.3883
20224W        W20424  10.520  17.652   2.869  0.0508 -0.1187 -0.0215
20225W        W20425  11.026   2.334  18.154  0.4900 -0.0843 -0.2182
20226W        W20426  17.718   3.546   2.755 -0.0885 -0.1296  0.4278
20227W        W20427   6.904  18.137  12.801  0.0925 -0.0549  0.0459
20228W        W20428  10.000   2.570  15.664 -0.1889 -0.1344  0.3090
20229W        W20429  11.364  16.188  15.511  0.1221  0.1378 -0.4040
20230W        W20430  16.862   6.624  16.923  0.3190  0.0806 -0.1640
20231W        W20431   9.498   5.466   6.424 -0.2010  0.0102 -0.0546
20232W        W20432  17.220   3.706   6.834 -0.0284  0.0994  0.2161
20233W        W20433   5.902  16.685  16.337 -0.3223 -0.0195  0.3198
20234W        W20434  16.696   3.937   2.520 -0.0525  0.0684 -0.2896
20235W        W20435  13.964  16.194   0.621  0.0443 -0.0822 -0.2497
20236W        W20436   1.102  12.667   8.739 -0.1913 -0.1849  0.1681
20237W        W20437  14.980  15.998   6.968  0.5272  0.2471  0.3135
20238W        W20438   9.701   8.733  11.029 -0.1668  0.2123 -0.0540
20239W        W20439  14.394   1.204  16.923 -0.1000  0.3057  0.2026
20240W        W20440  11.917   7.357  14.688 -0.0039 -0.3217  0.2610
20241W        W20441  10.097   3.269  17.744  0.0691  0.1054 -0.0325
20242W        W20442   1.528   0.582  17.067  0.0070  0.0810  0.4104
20243W        W20443  15.177   9.012  10.237 -0.0451  0.1243  0.0971
20244W        W20444  12.897   2.744   2.582 -0.1150 -0.0707 -0.0649
20245W        W20445  16.393   3.745   8.049 -0.3356  0.2380  0.0443
20246W        W20446   9.044  13.895   3.478  0.4818 -0.1770  0.3750
20247W        W20447   2.905   9.358  15.559  0.1069 -0.4485 -0.0682
20248W        W20448   1.134   1.838   7.065  0.1196  0.0122 -0.0949
20249W        W20449   5.723   2.521  14.569 -0.0199 -0.0644 -0.2241
20250W        W20450   0.654  15.820  16.757 -0.0312 -0.3680  0.0594
20251W        W20451   6.228   6.159  16.102  0.3270  0.0533 -0.0024
20252W        W20452   8.395  15.635   0.092  0.1164  0.1397 -0.0933
20253W        W20453  14.933   6.028   7.512 -0.3504 -0.1905 -0.1583
20254W        W20454   1.522  18.134   4.050  0.0351  0.3376  0.0106
20255W        W20455   0.652  10.855  16.255 -0.1709 -0.0763 -0.3183
20256W        W20456  10.295  16.777   2.259  0.1119  0.0606  0.0267
20257W        W20457  10.725  17.755  18.042  0.0795 -0.0025 -0.0005
20258W        W20458   8.078  17.869  15.270 -0.0133 -0.3153  0.0365
20259W        W20459   9.398   7.216  17.273 -0.1439  0.1077 -0.3215
20260W        W20460  11.044   7.459   1.573 -0.0502  0.1440 -0.0416
20261W        W20461   9.083  13.384   3.139 -0.1862  0.0514 -0.0824
20262W        W20462   6.273   0.111   5.495  0.1063 -0.0655  0.0458
20263W        W20463  14.194   5.936  16.772  0.1661  0.0553  0.0030
20264W        W20464  10.878   6.814   7.705  0.2933 -0.2957 -0.2835
20265W        W20465  13.903   2.705  17.351 -0.1061  0.1016  0.1207
20266W        W20466   4.107   6.305   0.566  0.3291  0.0247 -0.0657
20267W        W20467  11.844   2.318   8.063 -0.2021  0.1475 -0.0258
20268W        W20468   8.157  15.338   2.404  0.3982 -0.0998 -0.1637
20269W        W20469   8.711   5.640  11.963  0.2193  0.0586 -0.1705
20270W        W20470  11.626   2.375  16.907  0.1125 -0.1654 -0.1111
20271W        W20471  11.108   5.890   4.194 -0.0625  0.1434 -0.2743
20272W        W20472  14.276   0.147  12.018 -0.1652 -0.0199  0.2330
20273W        W20473  14.660   1.294  11.520  0.2496  0.1356  0.2777
20274W        W20474  12.359  16.344  18.098 -0.1063 -0.1493  0.0148
20275W        W20475  13.763   1.938   0.254 -0.0710  0.0413 -0.0359
20276W        W20476   8.577  17.839   1.290  0.2711  0.1604  0.0957
20277W        W20477  10.414   7.389  15.599  0.0830  0.0508 -0.1200
20278W        W20478  15.898  13.308   1.430  0.1536  0.0021  0.3663
20279W        W20479  14.157   2.977  12.902  0.3549 -0.0050 -0.1854
20280W        W20480  11.220  15.832   0.358  0.0197 -0.0062  0.1767
20281W        W20481   7.249  14.280  17.875 -0.1981 -0.0178 -0.0437
20282W        W20482   7.856   2.721   2.158  0.1786 -0.1367  0.1479
20283W        W20483  10.942  11.105   2.395  0.0369 -0.1497 -0.0176
20284W        W20484  12.451   3.874  10.508 -0.0333 -0.1435 -0.0377
20285W        W20485  10.877   4.532   2.845 -0.1305  0.4711 -0.1529
20286W        W20486   7.728  17.768   5.646 -0.1944 -0.1621  0.2542
20287W        W20487  16.254  15.190   7.176  0.1116 -0.0127 -0.2471
20288W        W20488   4.887  10.612   6.484 -0.0339 -0.0550  0.0577
20289W        W20489   7.328   7.123   6.730 -0.0694  0.1901 -0.0471
20290W        W20490  12.250   9.547  12.038  0.0773  0.0520 -0.0363
20291W        W20491  13.700  16.074  13.636 -0.0182  0.4305 -0.1100
20292W        W20492  10.035   6.764  10.501  0.1285  0.2341 -0.1482
20293W        W20493  12.651   1.543   2.142 -0.2542  0.2362  0.1206
20294W        W20494   9.892   1.726   1.286 -0.1178  0.1708 -0.1463
20295W        W20495   3.275   5.536   2.862 -0.2609  0.0556  0.1024
20296W        W20496   5.758   4.596   2.479  0.0172 -0.0393 -0.0420
20297W        W20497  17.748  17.416   5.201 -0.0665  0.0262 -0.0238
20298W        W20498   8.092  16.785  16.568 -0.2502  0.1766  0.0080
20299W        W20499   8.068  16.856   3.651 -0.1790 -0.2052  0.1608
20300W        W20500   6.767  16.432  12.074  0.0749 -0.0249  0.1518
20301W        W20501  13.495  10.384   3.431 -0.1646  0.1669  0.0522
20302W        W20502  16.663  16.959  14.988 -0.2627  0.0834  0.2759
20303W        W20503  11.632  15.952   1.920  0.2729  0.3385  0.1229
20304W        W20504   4.485   9.934  14.913  0.1018  0.1750  0.2646
20305W        W20505  14.976  16.855   5.177  0.3028  0.1868 -0.2289
20306W        W20506  11.614  13.157   1.634 -0.0197  0.2989  0.1713
20307W        W20507  14.518  18.126   8.634  0.0213 -0.2351 -0.1489
20308W        W20508  13.501   5.401   2.924  0.2570  0.0415 -0.4480
20309W        W20509  12.368   9.547   4.484  0.0247 -0.1347 -0.1801
20310W        W20510  12.239  17.633   1.842 -0.0089 -0.2142 -0.0954
20311W        W20511  14.530  14.984  10.634 -0.3550  0.0516 -0.0506
20312W        W20512   6.265   8.083   9.011 -0.0747 -0.1107  0.0887
20313W        W20513  11.183   5.282   4.031 -0.2879  0.0778  0.1469
20314W        W20514  12.413   7.723  11.978  0.1264 -0.0297 -0.0942
20315W        W20515   0.546   6.630   3.759 -0.3641  0.0078  0.1915
20316W        W20516   9.410  16.137   2.404  0.0494  0.2044  0.3501
20317W        W20517  15.412   2.730   0.714 -0.0614  0.1749  0.2550
20318W        W20518   7.829   0.201  11.339  0.1538 -0.1860 -0.0957
20319W        W20519   8.515  16.742   5.106 -0.0116 -0.0339 -0.1013
20320W        W20520  10.459  15.382  17.446  0.1386 -0.1043 -0.1351
20321W        W20521   7.301  16.295   1.295  0.1873 -0.1124 -0.1953
20322W        W20522   4.359   2.639  12.754  0.2379  0.2043  0.1138
20323W        W20523  14.495  17.894   9.133  0.4536  0.2623  0.2794
20324W        W20524  10.439   6.888   1.059 -0.0637  0.0964 -0.1676
20325W        W20525  12.175   4.053   7.904 -0.0245  0.0948 -0.1518
20326W        W20526  11.442   5.203   1.323  0.0820 -0.0433 -0.0209
20327W        W20527  12.810   0.867   0.661 -0.2819 -0.0532 -0.0426
20328W        W20528   8.797   0.533   1.705 -0.0685 -0.2274 -0.1355
20329W        W20529  14.607  14.597  12.654 -0.1170 -0.1613  0.0955
20330W        W20530  11.005   5.955   0.407 -0.2858 -0.2900 -0.1904
20331W        W20531  13.245  11.688  17.591  0.0496 -0.0162  0.0699
20332W        W20532  15.580   9.579  13.706 -0.2014 -0.3361  0.1137
20333W        W20533  11.128  13.102   1.509  0.1135 -0.1427  0.0228
20334W        W20534  11.596   7.207  13.996 -0.0789  0.2256 -0.2383
20335W        W20535   7.559   1.372  14.890  0.1853 -0.0549  0.0423
20336W        W20536  14.721  13.134   9.257 -0.1667 -0.0692 -0.2179
20337W        W20537   8.073  16.851  16.048 -0.2386  0.0621  0.1487
20338W        W20538   3.383   0.281   0.935 -0.1981 -0.1147  0.2294
20339W        W20539  12.157   7.618  16.165 -0.0471  0.0769 -0.0944
20340W        W20540   7.399   4.711  10.611 -0.1045 -0.2043  0.0630
20341W        W20541   6.519  15.504  15.775  0.0245 -0.1620 -0.0241
20342W        W20542   2.061   7.761   6.665  0.0799  0.0192 -0.1273
20343W        W20543  12.574   2.583   8.527  0.1474  0.3378  0.0293
20344W        W20544  17.334   3.783   5.404 -0.0581  0.0148  0.1088
20345W        W20545  13.156  16.584   2.053  0.0658 -0.0494 -0.0830
20346W        W20546  13.665   2.743   1.839  0.1309 -0.0768  0.3629
20347W        W20547   3.572  13.450  10.775  0.2579  0.0813  0.2546
20348W        W20548  11.075   3.882  14.898 -0.1313  0.0838 -0.0210
20349W        W20549  16.360   1.374   6.143  0.4227  0.1406 -0.1246
20350W        W20550   5.144  14.063   5.053 -0.1744 -0.1357  0.0485
20351W        W20551  11.498  14.548   1.139 -0.0526 -0.0954  0.0072
20352W        W20552  13.350  14.161   7.498 -0.2741 -0.4360  0.0785
20353W        W20553   6.882   4.316   3.824 -0.0423 -0.1268  0.1758
20354W        W20554   5.382   8.898  16.719  0.2280  0.2246 -0.2715
20355W        W20555   2.335   9.712   0.653 -0.0046 -0.2247  0.0854
20356W        W20556   6.847   1.689   3.899 -0.0359  0.0403 -0.0839
20357W        W20557  16.761   0.683  15.032  0.2470  0.2183  0.0835
20358W        W20558   7.451   0.791   6.400  0.0882 -0.2080 -0.1897
20359W        W20559   3.027   5.302  18.103  0.4617 -0.0820  0.0671
20360W        W20560   6.069  17.388   6.438  0.0653  0.2104 -0.0887
20361W        W20561   5.191   4.186  17.042 -0.0012  0.2293 -0.2784
20362W        W20562   9.973   2.686  13.295  0.0657  0.1720 -0.1753
20363W        W20563  11.982   8.002  13.013  0.0704  0.4899 -0.1729
20364W        W20564  11.094   1.142   6.358 -0.1616 -0.0567  0.1215
20365W        W20565  10.210   0.681  16.592  0.0158 -0.1606 -0.0571
20366W        W20566   5.138   8.650   1.451  0.3663  0.0064  0.0182
20367W        W20567   6.878  17.925   4.566 -0.2129 -0.1537 -0.2441
20368W        W20568   7.652   6.208   2.148 -0.0033  0.1805 -0.2302
20369W        W20569   7.048  15.138  14.753 -0.0652 -0.2535 -0.2614
20370W        W20570  15.026  13.434   8.977 -0.0529 -0.4993 -0.2824
20371W        W20571   9.670   5.403  10.194 -0.0495 -0.0780 -0.0282
20372W        W20572   7.661   6.135  16.241  0.1355  0.0462 -0.4851
20373W        W20573  17.551  16.444  12.298 -0.3018  0.2948  0.3839
20374W        W20574   9.790   4.665   3.702  0.1039 -0.0145 -0.2250
20375W        W20575  17.734  12.178   5.712  0.1387  0.1839  0.2125
20376W        W20576  14.082   2.127   6.732  0.0263  0.0648  0.0976
20377W        W20577  11.555  12.748  15.043 -0.0245  0.2365 -0.0903
20378W        W20578   1.718  17.369   2.071  0.1774  0.1571 -0.1527
20379W        W20579   9.215   4.907   3.148  0.4080  0.0754  0.1955
20380W        W20580   9.642  17.561  16.252 -0.1349  0.0702 -0.2379
20381W        W20581  13.385   4.606   4.656 -0.0875  0.2628 -0.1072
20382W        W20582  16.718   2.866   1.469  0.0169  0.1723 -0.1871
20383W        W20583   8.206   4.726   2.261 -0.1662  0.0418 -0.1436
20384W        W20584  13.534   0.214   2.024 -0.2333  0.1379 -0.3094
20385W        W20585  11.356  12.931   5.468  0.0536 -0.1751 -0.1809
20386W        W20586   2.908   7.627   8.881 -0.1992 -0.1642 -0.3060
20387W        W20587  16.900   3.535   5.157 -0.0512 -0.0555 -0.0011
20388W        W20588  11.211   0.940  17.691  0.1074  0.3846  0.0309
20389W        W20589  14.843  13.131   7.259  0.2807 -0.0186  0.3399
20390W        W20590  13.146   2.702   1.556 -0.1402  0.0364  0.3018
20391W        W20591  16.281   4.139  15.085  0.1010 -0.0202  0.1800
20392W        W20592   5.551  17.855   2.037  0.3009  0.1505  0.1154
20393W        W20593  15.182  18.047   2.563  0.0020  0.0464 -0.4138
20394W        W20594   5.870   1.941  12.141  0.3225 -0.1615  0.3789
20395W        W20595  16.080  17.637  15.340  0.1906 -0.1313  0.0526
20396W        W20596  16.698  14.896   6.429 -0.3995 -0.3807 -0.2227
20397W        W20597   1.466  14.866   5.196  0.0489  0.2676  0.0878
20398W        W20598  12.540   5.503   5.065 -0.0476 -0.1139 -0.2771
20399W        W20599   7.988  14.752   6.411 -0.1197 -0.1074  0.0583
20400W        W20600   1.129  16.979  13.698  0.1631  0.0813 -0.2290
20401W        W20601  13.311   2.402   7.172  0.0410  0.1310  0.0212
20402W        W20602  12.948  13.790   0.490 -0.3127  0.0640 -0.1900
20403W        W20603   4.462   8.357  14.207 -0.0301  0.0962 -0.0803
20404W        W20604   4.852  15.266   3.874 -0.2240  0.1318 -0.3088
20405W        W20605   1.458   2.097   5.108  0.0451 -0.0689  0.1318
20406W        W20606   3.029  14.537  13.053 -0.0111 -0.0041 -0.1397
20407W        W20607  11.918   4.753   9.991 -0.0601 -0.0621 -0.0347
20408W        W20608  16.839   3.980  17.103 -0.4141  0.4520  0.0735
20409W        W20609   7.468   3.703   0.067  0.3062 -0.1316 -0.0651
20410W        W20610  16.838  17.311   7.219 -0.0359  0.0103  0.1574
20411W        W20611  10.145   3.214   3.054 -0.0332 -0.0511  0.0802
20412W        W20612  10.559  18.171   2.709 -0.0451 -0.1561  0.2897
20413W        W20613   8.550   3.034   3.633  0.0685  0.2574  0.1246
20414W        W20614   1.396   7.998   7.301  0.1032  0.0015 -0.0708
20415W        W20615   5.578  13.463   5.339 -0.0128  0.2019 -0.0261
20416W        W20616   3.983   8.758   4.556 -0.1121 -0.0138 -0.0297
20417W        W20617   6.515  16.369   4.164 -0.1544 -0.0792 -0.4436
20418W        W20618   5.841  17.906   2.423  0.3209  0.1113 -0.0133
20419W        W20619   7.575   4.883   0.669  0.5109 -0.0481  0.0189
20420W        W20620   4.719   7.495   8.358  0.0150  0.0231  0.0378
20421W        W20621   7.884  14.214   8.042 -0.2061  0.1440 -0.2642
20422W        W20622  14.957  12.547   0.385  0.0210  0.0626  0.0520
20423W        W20623  12.387   4.111  14.393  0.1398 -0.0527  0.1426
20424W        W20624   9.456  12.744   3.493  0.2315  0.0107  0.0081
20425W        W20625   8.853   1.008  10.874  0.0154 -0.0188 -0.3211
20426W        W20626   8.846   3.173  11.413  0.1356  0.0751 -0.1922
20427W        W20627   2.032   1.308  13.548 -0.1306  0.0019 -0.0174
20428W        W20628  12.010   1.236   0.069 -0.2219 -0.1696  0.0170
20429W        W20629  15.580   1.011   8.792  0.3453 -0.2585 -0.1243
20430W        W20630  10.545   6.051   2.639  0.0177  0.0661  0.4232
20431W        W20631  16.601   5.009   6.912  0.0961  0.2395  0.1861
20432W        W20632   4.523   9.947   2.384  0.1675 -0.0845 -0.1829
20433W        W20633   5.707  17.766   3.433  0.1850 -0.2188 -0.1142
20434W        W20634   1.262  17.362   9.487 -0.0497  0.1825  0.0764
20435W        W20635   6.905  14.445  10.509 -0.1537  0.2833 -0.1579
20436W        W20636   8.339   1.739   4.718 -0.1457  0.1717 -0.2343
20437W        W20637   4.515   5.658   7.574  0.0742  0.2017  0.0161
20438W        W20638  10.917  14.234   6.498 -0.0328 -0.3239  0.0332
20439W        W20639   6.002  14.595   7.664  0.0907 -0.0303 -0.1555
20440W        W20640   7.264   0.102  17.692  0.1370 -0.0195  0.0901
20441W        W20641   7.193   5.373  14.359  0.4706  0.3386  0.5360
20442W        W20642  12.076   4.603   7.658 -0.1647  0.0565  0.2051
20443W        W20643   3.530  17.148  13.338 -0.0249  0.0097  0.0269
20444W        W20644   0.611   3.718   7.383 -0.0353  0.1192 -0.2549
20445W        W20645   6.644   6.389   3.543 -0.2295  0.1101  0.3193
20446W        W20646   4.023   0.379   4.153  0.2786  0.0756  0.1039
20447W        W20647  13.213  14.733  13.552  0.1734  0.0636  0.4257
20448W        W20648  11.587   5.640  11.717  0.0106 -0.0265  0.1811
20449W        W20649   0.448  11.056   3.384 -0.3007 -0.2627 -0.2511
20450W        W20650  12.847   5.604   8.985 -0.1780  0.0128  0.1948
20451W        W20651  10.943  17.287   6.735 -0.2540  0.1683 -0.3173
20452W        W20652   0.418   6.182   1.016  0.1860  0.2743  0.1164
20453W        W20653  12.654   7.143   7.891 -0.1774  0.0315  0.0577
20454W        W20654   8.643  17.462   6.505 -0.0275 -0.0072 -0.2989
20455W        W20655  15.881   0.619   7.243  0.2824 -0.0796  0.0990
20456W        W20656   9.685  14.765  13.073 -0.0286  0.2337 -0.0282
20457W        W20657  15.635  17.383  15.261 -0.2313 -0.0048  0.0723
20458W        W20658  13.955   1.192  16.646  0.0568  0.2411  0.0435
20459W        W20659   2.723   2.853   3.588  0.3388 -0.3170 -0.1080
20460W        W20660   6.542   6.391   8.567 -0.2537 -0.1076 -0.0290
20461W        W20661  16.103   4.243   7.197 -0.1608  0.0091  0.0376
20462W        W20662  14.667   4.514   2.392 -0.2083  0.0168  0.0663
20463W        W20663  11.403   5.771   0.207  0.1481  0.0928  0.1584
20464W        W20664   2.298  17.308   2.094  0.0896  0.3483  0.1798
20465W        W20665   0.957   1.564  18.131  0.1702  0.1199  0.1572
20466W        W20666  13.389  17.316   8.784 -0.1972  0.0953 -0.2944
20467W        W20667   9.518   4.273   1.951  0.0559  0.6510  0.1610
20468W        W20668  12.623   1.348   5.960  0.0313  0.0262  0.0963
20469W        W20669   4.159  10.025   4.580 -0.1559  0.2157  0.1809
20470W        W20670  14.165   0.290   7.674  0.0100  0.0063 -0.3287
20471W        W20671  17.209   9.511   8.377  0.0591 -0.2636 -0.2734
20472W        W20672  11.973  12.823  10.565 -0.0652 -0.2133 -0.1599
20473W        W20673   7.984   3.924  17.425  0.1843 -0.2541  0.0131
20474W        W20674  17.802   5.003   7.767  0.2035  0.2789 -0.1793
20475W        W20675  12.721   5.271  18.169 -0.1316 -0.0428  0.2011
20476W        W20676   8.060   1.767   5.829 -0.2573  0.1318  0.0797
20477W        W20677   8.589   0.062   7.977 -0.0076 -0.0000 -0.0703
20478W        W20678   6.980   2.543   0.755  0.3382  0.1405  0.1863
20479W        W20679  12.684   0.317   6.401 -0.0243 -0.0250  0.1769
20480W        W20680  16.945   8.186   1.898  0.0281 -0.2186  0.0480
20481W        W20681  12.319  15.889   5.778 -0.0968  0.1854  0.0853
20482W        W20682  11.046  17.002   9.764 -0.1595 -0.1675 -0.0437
20483W        W20683  10.893   7.574   7.150  0.2086 -0.0486  0.1953
20484W        W20684   0.278   1.318   6.025 -0.1264 -0.1693  0.0461
20485W        W20685   8.721  13.493  17.901 -0.1449 -0.3834  0.3846
20486W        W20686  10.145  13.580   3.960 -0.1860 -0.0056  0.1231
20487W        W20687  12.076  14.889  17.773  0.1654  0.1639  0.3069
20488W        W20688  10.374   1.737  11.352 -0.3106 -0.0959 -0.0173
20489W        W20689  17.214  11.009   5.603 -0.1517 -0.0634 -0.2242
20490W        W20690  10.775   3.464   6.101  0.2915  0.2328 -0.1448
20491W        W20691   8.891  16.605   8.602  0.1151  0.1949  0.1788
20492W        W20692   8.996   5.328  11.706 -0.2744 -0.2077  0.2532
20493W        W20693  17.053   0.499   2.455 -0.0765  0.2623 -0.0173
20494W        W20694  14.374   0.260  11.450 -0.0805 -0.4318  0.2321
20495W        W20695  15.505  17.185   5.234 -0.1586  0.2700 -0.3496
20496W        W20696  13.660   0.991   8.352 -0.6244 -0.2167  0.1016
20497W        W20697  14.058  16.560  17.272 -0.1168 -0.0144  0.1493
20498W        W20698  12.610   0.029   8.229 -0.0968  0.3179  0.7838
20499W        W20699   5.125   7.109  14.634 -0.1902 -0.0052  0.0268
20500W        W20700  11.743   0.365   5.396  0.2133  0.1975 -0.1333
20501W        W20701   1.563  12.100   1.558 -0.1232  0.1076 -0.0079
20502W        W20702   5.738  16.956   3.709  0.1364  0.3010  0.3496
20503W        W20703   9.621   1.721  16.246  0.1307 -0.2615  0.0252
20504W        W20704   4.853   9.871  10.952  0.1160  0.1509 -0.1762
20505W        W20705  12.420  12.896   9.639 -0.2186 -0.0338 -0.0433
20506W        W20706  13.438   1.750  14.969  0.2657 -0.0209 -0.1765
20507W        W20707   8.844   7.802   4.052 -0.2298  0.0669 -0.1027
20508W        W20708  10.188  15.167   1.507 -0.0753 -0.0840 -0.2546
20509W        W20709   9.266  15.349   6.345  0.1295 -0.1414  0.0388
20510W        W20710  13.051   6.590   1.766  0.1205 -0.0416 -0.0544
20511W        W20711   6.437   6.584  11.765  0.1852  0.0284  0.1365
20512W        W20712   4.766   2.044   6.175  0.0936  0.0783 -0.3136
20513W        W20713   7.830   1.339   5.725 -0.1160  0.0954 -0.1279
20514W        W20714  14.132   5.062   6.364 -0.2533  0.2125  0.2882
20515W        W20715  10.151   1.902  17.993 -0.1463 -0.0944 -0.1426
20516W        W20716  13.198   7.561   6.828 -0.1264 -0.0715 -0.0346
20517W        W20717  16.644  15.601   4.714 -0.0216 -0.1416 -0.1244
20518W        W20718  11.880   4.354  11.244  0.0361  0.0418 -0.1520
20519W        W20719  12.162  17.552  13.922  0.0884  0.3856  0.0794
20520W        W20720   7.725   2.298   2.862 -0.1360  0.1319  0.1728
20521W        W20721  12.186   8.323  11.140  0.1578  0.3622 -0.0283
20522W        W20722   7.376   3.467   1.211  0.1325 -0.1933  0.0441
20523W        W20723  10.983   6.158  11.394  0.0201  0.0770  0.1776
20524W        W20724  16.170  12.310   4.647  0.0367 -0.2902  0.0066
20525W        W20725   7.212   7.208   7.648  0.1214 -0.1811  0.1241
20526W        W20726  10.668   1.182   1.634  0.0937 -0.3741  0.1501
20527W        W20727   7.151   7.841   1.609  0.3077 -0.2210 -0.0247
20528W        W20728   0.745  17.898   6.392 -0.1949  0.0971 -0.2772
20529W        W20729   4.771   9.852   5.490  0.0840  0.3805  0.0053
20530W        W20730  11.339   8.637  18.044  0.1207 -0.0522 -0.0046
20531W        W20731  12.578   2.965   9.459 -0.0229  0.0952  0.0621
20532W        W20732   8.687   3.832   3.057  0.0100 -0.2502  0.3235
20533W        W20733   9.174  17.191   8.573 -0.0486 -0.2907 -0.1222
20534W        W20734  12.195  13.990   6.701  0.0510  0.3057  0.0564
20535W        W20735   0.799  16.088   8.708  0.0299  0.0170  0.0845
20536W        W20736  14.104   4.933   5.733  0.1191 -0.1900  0.2065
20537W        W20737   2.808   6.501   9.413  0.1017 -0.2233  0.2260
20538W        W20738  10.673   5.584   2.523 -0.2237 -0.2393  0.0982
20539W        W20739   3.593  15.939   0.948 -0.1183 -0.1555  0.0611
20540W        W20740   9.754   6.813  17.174  0.0675 -0.0066 -0.2927
20541W        W20741   7.858  10.958   6.385  0.1022  0.1234 -0.2263
20542W        W20742   5.537  10.180   6.908 -0.1596  0.0821  0.2427
20543W        W20743   7.844  17.770   2.804 -0.0916 -0.0757  0.1915
20544W        W20744   9.307   3.264   5.698  0.0686  0.1382  0.0421
20545W        W20745   0.130   5.694   7.045 -0.5076 -0.0045 -0.0222
20546W        W20746   0.195   1.585   8.419 -0.0496  0.0211  0.0834
20547W        W20747  16.105   1.158  11.750 -0.0972 -0.0499  0.1644
20548W        W20748  16.389   4.228   8.007 -0.0582 -0.3251  0.1077
20549W        W20749  10.293   0.783   5.346 -0.2034 -0.2795 -0.1599
20550W        W20750   7.769   2.264   0.644 -0.4303 -0.1879  0.3023
20551W        W20751  14.053   6.187   8.791 -0.2261  0.1444 -0.0567
20552W        W20752  13.349   2.551   2.987  0.0556  0.2987 -0.1565
20553W        W20753   4.910   9.127  16.789 -0.1689 -0.1434  0.3372
20554W        W20754   5.820   2.379   8.700 -0.3185 -0.2026  0.3828
20555W        W20755   7.936  14.812  15.686 -0.2671  0.3539  0.1101
20556W        W20756   9.619  16.252   9.080  0.0637 -0.0538  0.0766
20557W        W20757  10.379   5.179   3.087  0.0094  0.0289 -0.5070
20558W        W20758  11.567   2.362  13.648  0.2983  0.2253  0.0011
20559W        W20759   5.382  15.283   5.369 -0.2019 -0.0140 -0.1387
20560W        W20760  13.789  14.883   6.702 -0.3565  0.1878  0.1314
20561W        W20761   9.681  12.099  17.744  0.1228  0.1330  0.0095
20562W        W20762  12.053   9.890   8.463 -0.2293  0.1619  0.0814
20563W        W20763   0.553  16.527   6.518  0.0405 -0.1224 -0.1949
20564W        W20764  14.068   1.372   1.202 -0.1567  0.2370 -0.3579
20565W        W20765   3.483   4.416   5.883  0.1509 -0.1380 -0.2606
20566W        W20766  14.570   3.250   7.816  0.2151  0.2368  0.1817
20567W        W20767   1.860  17.258   0.159  0.0717  0.1184  0.2723
20568W        W20768  11.587   5.389   7.793 -0.1146 -0.0676  0.0615
20569W        W20769  17.046   3.861   6.377 -0.1883 -0.0122  0.3072
20570W        W20770  12.525   3.455   3.626  0.2790  0.0648  0.2124
20571W        W20771   1.406   6.510  10.697  0.1555  0.0568 -0.2337
20572W        W20772   9.122   5.222   7.410 -0.1652  0.0051 -0.0516
20573W        W20773  15.096   2.826  13.259  0.1043 -0.2950 -0.1882
20574W        W20774  12.494   7.299   8.495  0.2073 -0.0677 -0.3639
20575W        W20775  11.390   0.921  11.725 -0.4853  0.1951 -0.3540
20576W        W20776  14.799  11.071  10.776  0.1258 -0.0496  0.0557
20577W        W20777  15.743   7.606   9.663 -0.1900  0.1544 -0.2645
20578W        W20778  10.021   3.480   8.365 -0.5128 -0.3253 -0.1760
20579W        W20779  15.081  18.041  11.433  0.1314  0.0971 -0.0413
20580W        W20780   4.626   4.513   4.932 -0.0896 -0.0950 -0.0143
20581W        W20781  10.688   2.406   0.314 -0.2624  0.2349 -0.0199
20582W        W20782  10.033  12.936  14.761 -0.0585 -0.0328 -0.0385
20583W        W20783  10.826   6.057   4.644 -0.0037 -0.0654  0.0648
20584W        W20784  14.827   0.222   5.027  0.1626  0.2218  0.2025
20585W        W20785   1.221  13.962   0.131  0.2270  0.2580  0.3007
20586W        W20786  10.673   6.370  14.628  0.2295 -0.1026  0.0186
20587W        W20787  11.449  10.116  11.203 -0.0267  0.0002  0.0385
20588W        W20788  18.195   9.091  16.142  0.1561 -0.2092  0.0330
20589W        W20789  10.392   9.256   2.443  0.1147  0.0949 -0.1773
20590W        W20790   4.144   1.319  15.887 -0.1607 -0.1108  0.0109
20591W        W20791  16.082   3.607   1.168  0.2235  0.3811 -0.0405
20592W        W20792  16.209   2.429   3.918 -0.0828  0.0627  0.0156
20593W        W20793  13.460  16.014   5.971  0.3601  0.1060 -0.2126
20594W        W20794  10.395   3.032  10.507  0.0194 -0.0375  0.0862
20595W        W20795   1.110  16.016   6.868  0.2902  0.2087 -0.0162
20596W        W20796   9.274   1.606   3.598 -0.1455  0.1458 -0.3661
20597W        W20797   2.869   0.370   5.027  0.0538  0.0307 -0.1771
20598W        W20798   6.606   7.009  11.321  0.0739 -0.0198 -0.1289
20599W        W20799  14.555  17.860  16.078  0.0495 -0.1300  0.2115
20600W        W20800   9.296  14.158   5.494  0.0579 -0.1534 -0.1632
20601W        W20801   9.695  16.232   4.398 -0.1277  0.1146 -0.3062
20602W        W20802  10.654  12.488   4.403  0.0658  0.1858  0.2202
20603W        W20803  12.468  17.502   8.751  0.0211 -0.0736 -0.0138
20604W        W20804   3.541   4.554   7.186  0.1083 -0.0288  0.4187
20605W        W20805  11.546  17.190   0.070  0.0767  0.0362  0.0389
20606W        W20806   8.320  15.750   4.944  0.1297 -0.3561  0.0226
20607W        W20807  13.801  10.333   8.119  0.1217 -0.1384  0.2035
20608W        W20808   1.650   6.219  11.974  0.0607  0.1118  0.0223
20609W        W20809   6.312   8.767   7.045  0.0818  0.1813  0.0392
20610W        W20810  16.543   0.716  10.948  0.2048 -0.3620  0.2640
20611W        W20811  13.362   1.040  17.558 -0.0635  0.3779 -0.3584
20612W        W20812   8.410  17.930   7.204  0.2095  0.0245  0.1063
20613W        W20813  16.948   5.001   3.947  0.2030 -0.0371 -0.1292
20614W        W20814  11.031   1.746   3.253  0.0053  0.2448 -0.0186
20615W        W20815  10.853   2.780   2.136 -0.1147  0.1141 -0.2478
20616W        W20816   9.002  15.431   1.678  0.0890  0.0398 -0.2328
20617W        W20817   8.284   1.623  12.572  0.1842  0.0132 -0.2004
20618W        W20818  15.237   0.861   9.285 -0.1833 -0.0053  0.0125
20619W        W20819  17.401  17.537   3.451 -0.4034 -0.1532  0.0315
20620W        W20820   7.683   1.594   3.337 -0.0352  0.1136 -0.1255
20621W        W20821   7.484   6.875   9.113 -0.2305  0.1754 -0.0748
20622W        W20822  14.446  16.876   4.782  0.0482 -0.0750  0.0274
20623W        W20823  16.133  17.573   7.986  0.1520  0.0616 -0.0451
20624W        W20824  14.945   5.562   7.071  0.1203  0.1810  0.2861
20625W        W20825   8.817   0.533   9.012  0.0467  0.2758 -0.2878
20626W        W20826  11.780  17.861  10.907  0.3925 -0.0157  0.0169
20627W        W20827  10.957   8.811  11.265 -0.0467  0.2172 -0.0615
20628W        W20828  12.598   3.491  10.802  0.2721  0.1018 -0.1256
20629W        W20829  12.276   7.830   9.132  0.2013 -0.1248  0.0595
20630W        W20830  16.598   4.240   6.263 -0.2170  0.1302  0.4235
20631W        W20831  15.046   8.329  17.694  0.0219 -0.1270  0.0001
20632W        W20832   9.495   5.267   1.992 -0.0676 -0.1148  0.0268
20633W        W20833  13.187   1.075   3.881 -0.1134  0.1122 -0.0420
20634W        W20834  16.160   5.420   5.232  0.0355 -0.1690 -0.1036
20635W        W20835   1.031   5.969   9.894  0.1031 -0.1758  0.0171
20636W        W20836   3.427  12.974  10.876 -0.1568 -0.1854 -0.0362
20637W        W20837  16.148  11.898   1.219 -0.2128 -0.1012  0.1258
20638W        W20838  10.140  15.956   4.472  0.0165  0.0322  0.1493
20639W        W20839  13.834   3.822  10.171 -0.2411 -0.1798  0.0680
20640W        W20840   9.248  15.876   9.113  0.0165 -0.0347 -0.2365
20641W        W20841  15.582  18.154   0.099  0.0605 -0.0764  0.0853
20642W        W20842  11.798   5.192  12.268  0.1269 -0.0961  0.0454
20643W        W20843   3.157   4.265   4.144  0.3771  0.0747 -0.1601
20644W        W20844  10.353   4.572   7.185 -0.0827 -0.1153  0.1613
20645W        W20845   4.952  11.268  17.501 -0.0581 -0.1618  0.1368
20646W        W20846   3.405  12.891   2.771 -0.0021 -0.1615 -0.0256
20647W        W20847   7.103   1.071  17.587  0.2307 -0.2191  0.0442
20648W        W20848  13.018  18.022   9.957  0.0558 -0.1626  0.0990
20649W        W20849   4.506   1.137   1.646 -0.0360  0.0969 -0.4674
20650W        W20850   7.701   0.218   8.379 -0.2952  0.1649 -0.1664
20651W        W20851  16.689   5.754   7.898  0.0865 -0.0559  0.0224
20652W        W20852   8.536   6.466  12.349  0.1089  0.3445 -0.3132
20653W        W20853   1.238   3.821   3.628  0.0189 -0.2141  0.1220
20654W        W20854  17.844   3.663   4.996  0.1427 -0.0307 -0.1967
20655W        W20855  12.128   1.146   5.970 -0.0647 -0.2851 -0.2733
20656W        W20856   8.915   3.382   5.363 -0.0470  0.1726 -0.2095
20657W        W20857  12.374   5.566   5.880  0.0187 -0.0060  0.1265
20658W        W20858  10.684  17.331  10.037 -0.0708 -0.1375 -0.1040
20659W        W20859  17.245  16.042   6.645 -0.0209 -0.2847  0.4010
20660W        W20860  15.932   2.361   5.830  0.0145 -0.1173 -0.1065
20661W        W20861   8.538   4.348  10.510 -0.0770 -0.1797 -0.0909
20662W        W20862   0.832  13.107   8.834 -0.1521  0.0928 -0.0931
20663W        W20863  11.670   3.016   9.171 -0.2024 -0.0306  0.0443
20664W        W20864   7.648  16.437   3.773  0.2400  0.2839 -0.0248
20665W        W20865   3.296  18.089   2.510 -0.1026  0.3197 -0.2469
20666W        W20866   7.174   1.075   0.452 -0.0221  0.0667 -0.0187
20667W        W20867   1.874  10.931   5.569 -0.0367  0.1648  0.1115
20668W        W20868  16.677   6.823   3.378 -0.1300 -0.2632  0.2186
20669W        W20869   9.328   3.060   7.165  0.2215  0.1428 -0.1726
20670W        W20870  13.986  16.907   4.500  0.0156  0.1705 -0.0477
20671W        W20871  14.243  16.391   2.843  0.0702 -0.1045  0.1961
20672W        W20872  12.769   9.211   6.487 -0.1399  0.1708  0.2105
20673W        W20873   9.853  14.576  10.618  0.4432  0.2011  0.0081
20674W        W20874   5.254   4.329   5.542  0.0085  0.0100 -0.0984
20675W        W20875  14.695  15.124   9.518 -0.0031  0.2284  0.1089
20676W        W20876   8.924   6.840   0.036 -0.0365 -0.1173  0.0460
20677W        W20877   3.784  16.924   6.414 -0.2714  0.0878  0.2008
20678W        W20878   4.021   7.203   8.235 -0.0570 -0.0648  0.1015
20679W        W20879   3.094  10.262   7.489 -0.4482 -0.0265  0.1152
20680W        W20880  13.415  13.597   2.877  0.0681 -0.1423  0.2917
20681W        W20881  17.226  16.555   7.388 -0.1886  0.2673 -0.3788
20682W        W20882  18.191  11.382  16.655 -0.3195  0.0036 -0.0769
20683W        W20883  11.288   1.283  10.461 -0.2961  0.1109  0.0010
20684W        W20884  15.530   8.248   7.390  0.0350  0.0451 -0.1631
20685W        W20885  14.714   5.174  10.271 -0.1650  0.2124  0.0417
20686W        W20886  16.997   2.030   7.447 -0.0330 -0.0467 -0.0012
20687W        W20887   6.540   9.392  12.519  0.0146 -0.1671  0.0634
20688W        W20888  12.597   4.244   2.524 -0.4487 -0.0221  0.0982
20689W        W20889   7.742   3.017  12.080 -0.2397  0.2766 -0.3263
20690W        W20890  11.621   1.867   1.529 -0.0499  0.0996  0.2680
20691W        W20891   8.039   6.494  14.128  0.0579 -0.0782  0.0444
20692W        W20892  15.552   2.276  13.858  0.2314 -0.2483 -0.4141
20693W        W20893  10.246  16.449   8.115  0.0172  0.0941  0.2194
20694W        W20894  13.216   7.667   3.328  0.1910  0.1893 -0.1236
20695W        W20895   4.753   6.655   5.475 -0.0393  0.0808 -0.0106
20696W        W20896   2.098  10.799   5.968  0.0796 -0.0759 -0.0740
20697W        W20897  10.428   6.939   7.446  0.3478 -0.0284  0.1566
20698W        W20898  17.653  14.320   9.802  0.3179  0.0168  0.3605
20699W        W20899   6.320   3.303   4.596  0.1502 -0.0166  0.0304
20700W        W20900  13.856  17.286   7.014 -0.0167  0.1399  0.2908
20701W        W20901  15.243   4.058   9.983  0.1985  0.1330  0.0753
20702W        W20902  12.979  15.325  16.801  0.1165 -0.0206 -0.1081
20703W        W20903  12.704   1.140   4.012 -0.2817 -0.1269  0.1654
20704W        W20904   9.387   2.866  11.893  0.4342  0.0345  0.0422
20705W        W20905   7.136  16.888   1.050 -0.2154 -0.0796  0.2361
20706W        W20906  13.480  10.390   5.537  0.0736 -0.0664  0.2126
20707W        W20907  13.146   4.413  14.866  0.0767 -0.0297 -0.0679
20708W        W20908  11.046   4.865   9.749 -0.0332  0.2744 -0.1788
20709W        W20909   1.995   9.999   9.784  0.0417 -0.0903  0.1436
20710W        W20910  16.933  13.675   4.163 -0.4244  0.0790 -0.0151
20711W        W20911  13.326   2.844   6.436 -0.5403  0.1552 -0.1217
20712W        W20912  14.121  18.062   1.920  0.0578  0.1762 -0.1901
20713W        W20913  13.137   0.151   6.489 -0.0347  0.2554  0.0870
20714W        W20914   5.279   2.659   9.198  0.1401 -0.2143 -0.2010
20715W        W20915   5.108   1.154  13.675  0.0141  0.0142  0.3076
20716W        W20916  10.851  15.825  17.616  0.0099 -0.2046 -0.1744
20717W        W20917   4.410   6.238   6.714 -0.1341  0.0995  0.0003
20718W        W20918  11.620  11.849   6.136 -0.1221 -0.0946 -0.0830
20719W        W20919  13.618   2.775  14.296 -0.1878  0.1733 -0.1340
20720W        W20920  16.074   5.286   3.126  0.0862  0.3500  0.2211
20721W        W20921  14.597  14.929   5.029  0.1379  0.0751  0.2333
20722W        W20922   4.968   6.776   0.746 -0.2326  0.0390  0.0530
20723W        W20923  10.661   4.432   4.198  0.0938 -0.1507 -0.0568
20724W        W20924   9.195   3.229  14.118 -0.3036  0.0449  0.1457
20725W        W20925   0.407  12.019   2.867 -0.0357 -0.1320  0.1941
20726W        W20926  15.230   0.617   6.810  0.0015  0.1978 -0.5570
20727W        W20927  13.867  12.851  12.068 -0.0591 -0.1134 -0.0047
20728W        W20928  13.373   1.253  18.170  0.0178 -0.0726 -0.1615
20729W        W20929  11.047   1.705  18.125 -0.0780 -0.1010 -0.1165
20730W        W20930   6.832   4.088   5.686 -0.2989 -0.1535  0.3115
20731W        W20931  11.097   6.926   8.589  0.0557 -0.2782 -0.4132
20732W        W20932   3.477   1.613  10.734 -0.2332 -0.1261 -0.0233
20733W        W20933  11.693   4.355  10.426 -0.0910  0.3881 -0.0683
20734W        W20934   6.245  14.550   2.957 -0.1473 -0.3149 -0.0193
20735W        W20935  14.160   0.815   5.775 -0.0778  0.0182  0.1312
20736W        W20936  12.100  17.679   7.042  0.1307  0.1821 -0.1082
20737W        W20937   7.625   9.120   5.049  0.0472 -0.4132  0.1155
20738W        W20938   2.515   1.865   9.890 -0.1593  0.0148 -0.1300
20739W        W20939   8.180  14.574  14.233 -0.1471  0.1472 -0.1192
20740W        W20940  10.032   2.362   7.474 -0.0467  0.0622 -0.0813
20741W        W20941   1.524   5.644  17.509 -0.0543 -0.0961  0.2067
20742W        W20942  15.395  11.421  18.168 -0.2332  0.1538  0.1455
20743W        W20943  16.057   3.401   2.889 -0.1841 -0.0056  0.0566
20744W        W20944   3.758  10.517   3.466  0.1749  0.0271  0.0909
20745W        W20945  10.626  15.166   9.392 -0.1176  0.0214  0.0179
20746W        W20946   9.048   1.857   2.509  0.0626 -0.0479 -0.2681
20747W        W20947  10.703   2.649   3.041  0.0918  0.0710  0.2065
20748W        W20948   6.649  15.493   5.877  0.0176  0.1176 -0.1932
20749W        W20949   8.611   7.133   8.375  0.1126 -0.1359  0.0584
20750W        W20950   8.280  17.444   1.624  0.1873 -0.1040  0.1453
20751W        W20951   5.400   2.658  11.735  0.2169 -0.0901 -0.0345
20752W        W20952  16.997   3.696  17.751  0.0958 -0.0373  0.0510
20753W        W20953  16.037  10.523  17.106 -0.0158 -0.0062 -0.1408
20754W        W20954   9.484  13.313   2.843  0.0285  0.0332 -0.3258
20755W        W20955   2.835   6.752  13.640  0.0679  0.1370 -0.2775
20756W        W20956  16.657   0.076   1.103  0.1621  0.1579 -0.2374
20757W        W20957   6.318  10.564  14.985  0.1174  0.0013 -0.0137
20758W        W20958   7.923   1.750  14.155 -0.3289  0.0066 -0.0271
20759W        W20959  15.928  17.657   2.198  0.0118 -0.1910 -0.0766
20760W        W20960   4.444   2.831   2.240 -0.2393 -0.1030  0.0962
20761W        W20961  12.913  16.105   2.515 -0.0087  0.1445  0.0327
20762W        W20962   9.388   4.982   7.048 -0.3771 -0.0998 -0.1238
20763W        W20963  12.498  11.358   8.794  0.0439  0.3792 -0.1173
20764W        W20964   2.416   6.272  17.342 -0.0481  0.1430 -0.1578
20765W        W20965   7.706   0.503  12.884 -0.0932 -0.1120  0.0706
20766W        W20966   1.410  13.139   6.032  0.1060  0.4675 -0.2460
20767W        W20967  18.162   4.599   3.539  0.1985  0.2264 -0.0334
20768W        W20968   5.327  15.640   3.870  0.0145 -0.0729  0.0716
20769W        W20969   8.809   3.327   3.896  0.0828 -0.1910 -0.2627
20770W        W20970   8.945  10.851   5.165 -0.0354  0.0885 -0.4268
20771W        W20971  16.099   8.985   2.750  0.2333 -0.2766  0.1296
20772W        W20972  10.295   4.233   1.797  0.1047 -0.0408 -0.1453
20773W        W20973  12.527  14.513   5.221  0.3091 -0.5193  0.2484
20774W        W20974   5.556   1.895   9.932  0.0557  0.2177  0.0468
20775W        W20975   6.739   0.342  10.700 -0.0346  0.0870  0.3450
20776W        W20976   8.160  14.013   2.746 -0.0832  0.1181  0.4602
20777W        W20977   7.549  15.935  11.711 -0.3234  0.1663 -0.0527
20778W        W20978  11.614  18.096   2.301 -0.0511 -0.4568 -0.0074
20779W        W20979  14.593   7.882   7.273 -0.0866 -0.0340  0.0358
20780W        W20980   1.061  16.305   4.151 -0.2940 -0.0485  0.0788
20781W        W20981   9.431   7.758   9.913 -0.2736 -0.1073  0.0390
20782W        W20982   6.802   0.386   1.483  0.0557  0.3645  0.0044
20783W        W20983   8.405  17.482  12.288 -0.0125  0.0245  0.2608
20784W        W20984  15.269   0.118  16.942  0.1114  0.0300 -0.2591
20785W        W20985   6.490   8.882   3.561 -0.1020  0.0675 -0.0733
20786W        W20986  13.076   6.260   6.694 -0.0090  0.1457  0.4505
20787W        W20987  13.268   7.704   5.663 -0.1569  0.2443 -0.0235
20788W        W20988  10.363   2.075  10.304  0.0565 -0.1248 -0.2383
20789W        W20989   6.903  14.462   3.366 -0.1812 -0.2831 -0.1417
20790W        W20990   1.582   0.577   7.299 -0.0120  0.0870  0.0744
20791W        W20991  14.766   7.647   9.191  0.0834  0.0161 -0.1389
20792W        W20992   6.859   4.185   9.196 -0.1519  0.0922 -0.0697
20793W        W20993   1.283  15.429  14.892 -0.0897  0.3431 -0.3347
20794W        W20994   4.183   3.926  11.866  0.0653 -0.2255 -0.1878
20795W        W20995  17.035  14.280   4.129  0.2633 -0.3803 -0.0173
20796W        W20996   8.803   9.069   4.233 -0.2889 -0.0820 -0.1128
20797W        W20997  10.015  14.113   6.969  0.0866 -0.1959 -0.2357
20798W        W20998  10.037   5.588   4.931 -0.3137 -0.0861  0.0008
20799W        W20999  13.381   1.947   2.379  0.1718 -0.2078  0.0420
20800W        W21000   2.259   4.714   3.045 -0.2481 -0.1484  0.1165
20801W        W21001   9.179   6.346   2.715  0.0313 -0.2118 -0.0431
20802W        W21002   2.535  16.373   3.871  0.2944 -0.0374 -0.2472
20803W        W21003   9.103   2.426  14.076 -0.3061 -0.1331  0.1424
20804W        W21004  13.254   0.267   1.540 -0.1806  0.1130  0.0173
20805W        W21005  14.341   1.513   7.033 -0.0767 -0.1436 -0.0648
20806W        W21006   9.398   6.272   3.275 -0.1630 -0.0248 -0.1436
20807W        W21007  15.922   3.268  10.249  0.0607 -0.2134 -0.0109
20808W        W21008   1.149   5.547  10.786  0.1642  0.1158  0.1189
20809W        W21009   4.325   5.261  16.637  0.0309 -0.0818  0.0856
20810W        W21010   2.000  16.026  14.087  0.0799 -0.0492  0.1226
20811W        W21011   7.374   2.373   5.371 -0.0429 -0.2080 -0.1226
20812W        W21012   8.342   9.748   3.603 -0.1289 -0.2546  0.1758
20813W        W21013   6.731   0.290   2.595  0.1772 -0.2154 -0.1539
20814W        W21014   7.298   1.768  10.520  0.4133  0.0536  0.0364
20815W        W21015   6.424   4.571   7.033 -0.0421 -0.1637  0.1372
20816W        W21016  12.171  16.469  10.338 -0.0937 -0.1119 -0.1794
20817W        W21017  10.712   0.849   6.450 -0.0435  0.0941  0.2275
20818W        W21018   8.729  12.297   3.821 -0.4458  0.1819  0.2195
20819W        W21019  16.031  16.199   3.537 -0.1638  0.0597  0.2190
20820W        W21020   7.914   2.482  10.039 -0.2247 -0.0414  0.0959
20821W        W21021   5.408   0.703  11.532 -0.2396 -0.1967 -0.0216
20822W        W21022  14.927   3.904  13.087 -0.1430  0.1060  0.1318
20823W        W21023   4.045   2.389   8.399 -0.2239 -0.2385 -0.2349
20824W        W21024  14.588  17.849   7.273 -0.2295 -0.1248 -0.0967
20825W        W21025   2.566   5.571   6.947 -0.2577  0.0048 -0.0582
20826W        W21026  15.571   6.664   2.275 -0.1474  0.3316 -0.0030
20827W        W21027   3.674   3.290  11.988  0.1228  0.1863  0.1156
20828W        W21028   6.223  13.422  12.757 -0.2722 -0.1081 -0.0602
20829W        W21029  14.407  16.380   5.540  0.1520  0.1043 -0.0390
20830W        W21030  12.523   4.177   5.424  0.0077  0.2253 -0.3771
20831W        W21031   2.842   0.353  11.767 -0.0409 -0.1539  0.2282
20832W        W21032   4.283  17.718  14.902 -0.1965 -0.1687  0.3773
20833W        W21033  11.003   9.084  11.874  0.0085  0.4118  0.2345
20834W        W21034   4.501   6.113  15.781 -0.1846  0.0302 -0.1637
20835W        W21035  10.708  10.553   6.777  0.0621  0.0044  0.0313
20836W        W21036  11.610   9.811  18.075  0.1165  0.0123  0.0638
20837W        W21037  14.995   5.304   5.974  0.1075  0.0026  0.1298
20838W        W21038  13.745   0.556   5.584 -0.0737  0.0484  0.0347
20839W        W21039   9.223   8.412  11.527  0.2455 -0.0518  0.2478
20840W        W21040   5.211   1.718  15.635  0.0513  0.3182  0.0254
20841W        W21041  10.659   9.178  10.226 -0.1112  0.0336  0.0279
20842W        W21042   9.300   6.895   9.001  0.0682 -0.0595 -0.1019
20843W        W21043  10.990   6.410  14.222  0.1292 -0.0577 -0.0956
20844W        W21044   3.029   5.976  10.114  0.0094 -0.1385  0.1927
20845W        W21045   9.680   1.352   6.800  0.1186 -0.2207 -0.1297
20846W        W21046   7.416   7.018  10.092 -0.0525 -0.2822 -0.2673
20847W        W21047  16.638   7.746   8.821  0.2364 -0.2130 -0.0193
20848W        W21048  11.364   3.258   2.316 -0.1137 -0.2356  0.1637
20849W        W21049   5.248   5.756  14.021  0.0541  0.1131 -0.1435
20850W        W21050   9.438   2.208  14.992  0.2104 -0.0878 -0.0225
20851W        W21051   5.268   4.649  17.180  0.2393  0.0995  0.2064
20852W        W21052  12.135   4.439   6.613 -0.2562  0.0344 -0.0135
20853W        W21053  13.448  14.745   6.337  0.0039 -0.2614  0.0788
20854W        W21054   3.156  17.307   6.735  0.0288 -0.4507 -0.1029
20855W        W21055  15.933   2.485   5.214 -0.1076  0.1657 -0.1459
20856W        W21056  15.907   3.802  12.693 -0.2387  0.0149  0.1572
20857W        W21057  11.153   4.296   3.986  0.1449  0.0409  0.3109
20858W        W21058  17.704   3.977   6.591 -0.1594 -0.2785 -0.1166
20859W        W21059  14.126  14.649  10.852 -0.0369  0.0502 -0.1245
20860W        W21060  12.343   4.897   7.954 -0.0187  0.0316 -0.2475
20861W        W21061   6.106  18.120  18.061  0.1444  0.1782 -0.1319
20862W        W21062   8.838  16.151   9.480  0.1559 -0.0213  0.1256
20863W        W21063  13.239   4.869  10.358  0.3384  0.0781  0.6428
20864W        W21064  10.978   3.029   6.395 -0.2791 -0.0960  0.1379
20865W        W21065   1.726   7.473   3.481 -0.1788 -0.2220 -0.4077
20866W        W21066   3.724   6.127  14.417 -0.3961  0.1265 -0.2415
20867W        W21067  14.732   7.851   8.246 -0.0545 -0.0443  0.0607
20868W        W21068  11.834   7.305   6.745 -0.1615  0.2123 -0.2631
20869W        W21069  13.693  17.903   5.852  0.1473 -0.0696 -0.0664
20870W        W21070  12.087   5.704   8.566 -0.0890 -0.0766  0.1075
20871W        W21071  14.281   4.890   1.072 -0.1045  0.0017 -0.2882
20872W        W21072   5.397  11.617  11.273 -0.0335 -0.0175 -0.0683
20873W        W21073   7.337  14.878   3.765  0.0252 -0.2731  0.0402
20874W        W21074   6.958   7.483   1.300 -0.2484 -0.0294 -0.0737
20875W        W21075   2.180  16.857  10.284 -0.0386 -0.0005 -0.1528
20876W        W21076  13.835   8.491   6.660  0.1154 -0.1970 -0.2166
20877W        W21077  12.953  11.938   3.166 -0.0433 -0.0128 -0.1593
20878W        W21078  15.614   2.624   6.268  0.0414  0.0838 -0.0260
20879W        W21079   5.050  14.278   7.916  0.0352 -0.1961  0.1561
20880W        W21080   6.480   0.536   6.413 -0.2845 -0.1257 -0.1505
20881W        W21081  10.783   3.798   3.533  0.3516 -0.1619 -0.2664
20882W        W21082  13.394   6.031   3.833  0.1838 -0.0185 -0.0926
20883W        W21083  15.510   5.465   1.603  0.0425 -0.1102 -0.2889
20884W        W21084  13.919  15.624   2.634 -0.0102 -0.1279 -0.1029
20885W        W21085   6.419   0.325   0.568 -0.0844  0.0081  0.1125
20886W        W21086  14.256  10.201   5.397 -0.1020  0.0763  0.1261
20887W        W21087  11.297   4.282   6.048  0.1364  0.0989  0.0086
20888W        W21088  11.696   3.307   9.557 -0.2025 -0.0137  0.0228
20889W        W21089   6.952   0.494  11.125  0.0185  0.3830 -0.2868
20890W        W21090  10.737  12.151   4.774  0.0240  0.0420 -0.0841
20891W        W21091  11.249   1.188   8.581 -0.1656 -0.2035 -0.1452
20892W        W21092  13.561  14.017   9.825  0.2920  0.2726 -0.1508
20893W        W21093  11.654   0.679  16.356 -0.1025  0.0405 -0.3268
20894W        W21094  12.551   1.360  17.641  0.2871 -0.0504  0.2536
20895W        W21095  11.281   1.602  16.949 -0.0376  0.0162  0.0604
20896W        W21096   5.484  16.211   7.378 -0.1412  0.1259  0.2278
20897W        W21097  11.216   3.469   5.533 -0.0627 -0.0459  0.0439
20898W        W21098  10.849  12.957   3.377 -0.1267 -0.0256  0.4472
20899W        W21099   8.625   2.884  14.965  0.0381  0.1279  0.1021
20900W        W21100   9.699   7.412   9.596 -0.1117  0.2594  0.0554
20901W        W21101   8.397   5.713   5.623 -0.1487 -0.0385 -0.1875
20902W        W21102   0.236  15.366   0.272  0.0619 -0.0437 -0.0479
20903W        W21103  13.408   3.516   2.726  0.0217 -0.1358 -0.1829
20904W        W21104  14.156  12.928   3.847  0.1691  0.1064 -0.2113
20905W        W21105   4.046   1.848  15.010  0.0391 -0.2788 -0.2863
20906W        W21106  11.218   5.738   4.715  0.1569  0.5971  0.2061
20907W        W21107  10.832  11.849   7.727 -0.1449 -0.1740 -0.0654
20908W        W21108  15.302  15.722   4.765 -0.2327  0.0352 -0.5081
20909W        W21109   2.854  15.648   7.381  0.2869 -0.1688 -0.0276
20910W        W21110  13.900   0.123   9.425 -0.0761 -0.1538  0.2971
20911W        W21111  12.295   2.481  11.572 -0.0571 -0.3053  0.1270
20912W        W21112  15.354   1.262  10.873 -0.1002  0.2742 -0.4452
20913W        W21113  13.321   0.093   9.344  0.1605 -0.3723  0.0781
20914W        W21114   7.488   8.063   9.903  0.2179  0.2152  0.1282
20915W        W21115  11.781  17.828  11.457 -0.0554  0.0123  0.3365
20916W        W21116   8.640   0.153  11.781 -0.1114 -0.1900 -0.3431
20917W        W21117  12.051   0.984   7.442 -0.1745  0.0607 -0.0297
20918W        W21118   7.927   9.751   8.038 -0.2093 -0.0128 -0.1690
20919W        W21119  10.555   3.829   5.296  0.0532  0.2028 -0.0040
20920W        W21120  16.019   7.668  15.139 -0.0231  0.3530 -0.0185
20921W        W21121  13.156  13.777   4.950 -0.2664 -0.2099 -0.0940
20922W        W21122  17.602   8.262   6.703  0.3172  0.1678 -0.2442
20923W        W21123  11.034  15.075   8.886  0.0425  0.1682 -0.3656
20924W        W21124   4.483   3.519  16.945  0.2965 -0.1845 -0.0248
20925W        W21125  11.955   5.130  13.258  0.2081  0.2078  0.3905
20926W        W21126  10.043   5.389   3.775  0.3456 -0.1256 -0.0515
20927W        W21127  11.255   1.927   8.614 -0.2821 -0.0799 -0.2579
20928W        W21128  12.822   5.947   9.819  0.1424  0.1740 -0.0996
20929W        W21129  13.513   6.229   9.058 -0.0374  0.1103  0.1176
20930W        W21130   0.374   1.248  12.536 -0.0563 -0.1208  0.1641
20931W        W21131   8.703  14.898  16.210  0.0860 -0.0161  0.2442
20932W        W21132   2.615   6.734   3.289 -0.2248  0.1332  0.0443
20933W        W21133  10.002  16.556  16.102  0.0220 -0.1373 -0.1421
20934W        W21134   3.491   2.992   7.547  0.0940  0.1471 -0.2870
20935W        W21135  11.441   3.397   3.848 -0.1520  0.0774 -0.3154
20936W        W21136  12.136  12.521   8.723  0.2108  0.2171 -0.0654
20937W        W21137   7.012   2.872   8.633 -0.0974  0.0806 -0.1301
20938W        W21138  11.292   2.110   9.105 -0.0185  0.2807  0.3074
20939W        W21139   8.237  10.371  10.694  0.2880 -0.1953 -0.0429
20940W        W21140  17.426   2.356  14.808 -0.1272 -0.0463 -0.2820
20941W        W21141   7.235   3.276   0.392  0.1034  0.1168  0.2208
20942W        W21142  11.244   0.280  14.652 -0.0171  0.1099 -0.1097
20943W        W21143   8.335   1.702  10.187 -0.0249  0.2588  0.0508
20944W        W21144  14.006   1.003   7.421 -0.1310  0.0910  0.0779
20945W        W21145  12.942  16.927   6.658  0.0928  0.0060 -0.1399
20946W        W21146   4.372  17.092  10.535  0.0153  0.2587  0.6031
20947W        W21147  14.447   4.703   5.466 -0.1599  0.1420  0.1343
20948W        W21148   4.038   0.457   1.635 -0.0302  0.0668  0.2124
20949W        W21149   3.659  14.319   7.517 -0.4797 -0.0512  0.1763
20950W        W21150  16.746   0.882   9.268  0.0821 -0.2952  0.0022
20951W        W21151   7.495   1.466  12.148 -0.1312  0.1399  0.1650
20952W        W21152   8.567   3.042  10.893 -0.0564  0.2625  0.0695
20953W        W21153   5.625   5.685   7.199  0.1500  0.0023 -0.0890
20954W        W21154  12.296   8.325   6.431 -0.2773 -0.2237  0.0183
20955W        W21155  10.912  13.453  12.079 -0.2448  0.1179 -0.4205
20956W        W21156   4.051   3.998   6.168 -0.1777  0.0754 -0.1934
20957W        W21157   5.839   2.275   2.734  0.1013 -0.1222  0.2594
20958W        W21158  12.175   3.551   2.551  0.2001 -0.0722  0.0011
20959W        W21159   7.572   0.249   5.026 -0.2045  0.0905 -0.0269
20960W        W21160  13.734  13.669   1.007 -0.1967  0.2926  0.0509
20961W        W21161   8.922   4.086  10.480  0.1949  0.1490 -0.1485
20962W        W21162  15.589  15.094   9.263 -0.3401 -0.4474  0.0460
20963W        W21163  13.289   6.109  16.735  0.1802 -0.0827  0.1263
20964W        W21164  10.260   5.074   9.184 -0.1379 -0.3227 -0.0880
20965W        W21165  18.150   7.074   5.379 -0.1993  0.2161  0.1747
20966W        W21166  12.048  17.420   4.383 -0.0714  0.1727  0.1861
20967W        W21167  13.112   7.906  14.850  0.0875  0.5272  0.0304
20968W        W21168   5.916   5.964  12.760  0.0573  0.1309  0.1418
20969W        W21169   3.812  17.365   3.871  0.1799  0.0423  0.0411
20970W        W21170  10.703   3.859   6.687 -0.0725  0.3764 -0.0318
20971W        W21171   8.310   0.622   4.746  0.1489 -0.1314  0.0210
20972W        W21172   5.626   2.146  12.537  0.1890 -0.0854 -0.0178
20973W        W21173   1.335  17.249  14.732 -0.3086 -0.2406 -0.3923
20974W        W21174   6.073  17.818   8.044 -0.2326  0.1300  0.2152
20975W        W21175   8.759   8.547   4.210  0.0591  0.0191 -0.0537
20976W        W21176  14.203  10.013  13.574  0.1887  0.0620  0.0817
20977W        W21177   6.947   7.709  15.363  0.0527 -0.0229 -0.1892
20978W        W21178   3.952   3.360  15.420  0.2382  0.1677 -0.4308
20979W        W21179   6.038   2.389  12.972 -0.0814  0.0457 -0.0940
20980W        W21180   7.327  14.730   8.016  0.1668 -0.2183 -0.4613
20981W        W21181   9.298   4.271   7.554 -0.1471  0.2331  0.0140
20982W        W21182  17.850   6.358  10.936 -0.0329 -0.2287 -0.0616
20983W        W21183  10.736   5.438   9.363  0.0889 -0.2441  0.0110
20984W        W21184  17.734  10.412   7.189  0.1848 -0.0101 -0.0553
20985W        W21185  11.703   1.577   9.830  0.2816 -0.0156 -0.0493
20986W        W21186   5.143   9.025  15.762 -0.1558  0.0930 -0.0812
20987W        W21187  17.570  15.361   0.987  0.1132  0.1928  0.0724
20988W        W21188  13.163  18.019   3.985 -0.1487  0.2463  0.1641
20989W        W21189  18.039   6.027   5.386 -0.0185 -0.2942  0.0304
20990W        W21190  11.292   4.893   9.146 -0.0843  0.0014  0.1830
20991W        W21191   7.296  17.526  13.907  0.0066  0.0005 -0.3472
20992W        W21192   5.153  16.043   7.761 -0.0065 -0.0549 -0.0466
20993W        W21193   8.786   3.245   8.405  0.1696  0.2297 -0.4463
20994W        W21194  17.024  14.143   5.268 -0.2210 -0.2903 -0.0042
20995W        W21195   8.948   8.004   7.240 -0.1866 -0.0108 -0.1721
20996W        W21196   6.911   1.328  14.105  0.1921 -0.1789 -0.0031
20997W        W21197   5.039   6.692   7.435 -0.3605 -0.0552 -0.0837
20998W        W21198  10.314  11.853   5.392  0.1373 -0.3198 -0.5474
20999W        W21199   9.793   6.905   5.713  0.1572  0.4832  0.3435
21000W        W21200   5.420   7.437   7.734 -0.1121 -0.0207 -0.1403
21001W        W21201   9.300   0.643   7.862  0.0738 -0.0177 -0.1229
21002W        W21202  12.018  18.201   5.741  0.2395 -0.0763  0.1364
21003W        W21203   9.677  16.692  10.693  0.0263 -0.1344 -0.0392
21004W        W21204   4.109   2.365  16.871 -0.0905 -0.0480 -0.0388
21005W        W21205  12.819   2.722   6.247 -0.0464 -0.0412  0.0496
21006W        W21206   4.480  10.251  15.312 -0.3123 -0.0092  0.3180
21007W        W21207  15.928  14.814   7.029 -0.0544 -0.0724 -0.0611
21008W        W21208   1.035   0.538  10.601 -0.1417 -0.0826  0.2443
21009W        W21209   9.873  15.763  10.168  0.0688 -0.1226 -0.0676
21010W        W21210   6.250   0.949   7.846  0.0586 -0.2687  0.1392
21011W        W21211   2.410  15.225  13.119  0.0191 -0.0712 -0.1044
21012W        W21212   9.152  15.749  12.891  0.0243 -0.1739 -0.1255
21013W        W21213   9.529   3.395   0.874 -0.1408 -0.0795 -0.0485
21014W        W21214  14.317  17.085  13.894 -0.0380 -0.1396 -0.0596
21015W        W21215  14.276  11.608   3.588  0.0378 -0.0567  0.0341
21016W        W21216  12.874   7.845  11.854 -0.0881 -0.0459  0.1082
21017W        W21217   7.323   9.106   8.158 -0.0937  0.0648 -0.0243
21018W        W21218  10.629   1.024  14.542 -0.1263  0.0381  0.0421
21019W        W21219  14.202  13.150  10.587 -0.0429 -0.2636  0.1050
21020W        W21220  11.619   4.005   8.735  0.1040 -0.1960 -0.0898
21021W        W21221  14.248   7.696  12.495  0.0667  0.1188  0.3068
21022W        W21222   5.407   6.462  13.505 -0.3248 -0.1355  0.2115
21023W        W21223  15.497   4.944   4.166  0.0153  0.0041  0.1003
21024W        W21224  16.102   4.605  17.764  0.2078 -0.0164  0.0429
21025W        W21225  15.577   4.856   4.675  0.1162 -0.0438 -0.4715
21026W        W21226   9.203   3.547  17.767 -0.3484  0.2298  0.1163
21027W        W21227   7.368   0.729   8.923 -0.1187 -0.6114 -0.1228
21028W        W21228  13.692   1.783   5.173 -0.0725 -0.0187  0.1139
21029W        W21229   6.592   1.099  15.662 -0.1429 -0.1051  0.2597
21030W        W21230   9.558   6.129  10.606  0.1018 -0.0802 -0.1406
21031W        W21231   2.312   5.352   4.246  0.1351 -0.0384  0.3281
21032W        W21232  15.441   9.475  12.177 -0.2152 -0.1900 -0.0727
21033W        W21233  11.911   4.599  14.082  0.3012 -0.1351  0.0804
21034W        W21234   0.099  11.814   8.496 -0.1666 -0.2031 -0.0348
21035W        W21235   6.656  10.294   7.584  0.2858 -0.0572 -0.0165
21036W        W21236  17.347   9.640  14.380  0.0309  0.2662  0.0375
21037W        W21237   4.560   4.753  15.788 -0.0454  0.1968 -0.0530
21038W        W21238  10.112  16.899   8.981  0.0619 -0.0811  0.1483
21039W        W21239  17.461   0.343   8.100 -0.4216 -0.3234 -0.0909
21040W        W21240  12.343   8.461   7.769  0.2408  0.1265 -0.0535
21041W        W21241  14.340   2.492   9.791 -0.1425  0.1115 -0.0093
21042W        W21242   5.178   7.127   0.485 -0.1777 -0.1026 -0.0527
21043W        W21243  12.003   6.816   9.430  0.1736 -0.0251  0.1849
21044W        W21244  11.631   5.434   4.779 -0.1887  0.4459 -0.1000
21045W        W21245   8.661   1.818  10.563  0.1595 -0.2281 -0.1804
21046W        W21246  10.643   0.016   7.650 -0.3481 -0.1408  0.1730
21047W        W21247  11.374   3.059  14.353 -0.0294  0.1401  0.1574
21048W        W21248  12.759  15.934   4.615 -0.1804 -0.0120  0.0873
21049W        W21249  11.272   0.089  16.467  0.0236  0.0040 -0.1156
21050W        W21250   5.369  18.122   4.448 -0.0713 -0.2405  0.2021
21051W        W21251   5.721  14.859   5.444  0.0931  0.0290  0.0699
21052W        W21252   0.251   2.588   8.495 -0.1321  0.0120 -0.0779
21053W        W21253   7.955  16.828   5.902  0.0199 -0.0068  0.1043
21054W        W21254  11.060  17.920  17.596 -0.0565  0.2810  0.1677
21055W        W21255  14.087   9.430   4.571  0.0210  0.2152  0.1146
21056W        W21256   8.005   2.191   6.104  0.0132 -0.1409 -0.3491
21057W        W21257   4.624  12.665  13.045 -0.0926  0.2872  0.1475
21058W        W21258  16.915   4.896  11.756  0.2405 -0.0771 -0.2175
21059W        W21259   3.453   5.336   8.047  0.1436 -0.0125  0.2141
21060W        W21260  15.886  12.374   6.305 -0.2751 -0.0742  0.1152
21061W        W21261  11.785  18.122   6.236 -0.1512  0.1163 -0.2329
21062W        W21262  13.298   3.331  11.689  0.0089 -0.2347 -0.3509
21063W        W21263  11.422   7.803  15.506 -0.0565  0.2760  0.0694
21064W        W21264  15.608   0.229  14.997  0.0156  0.1782  0.0933
21065W        W21265   6.014   7.652   8.347 -0.0004  0.2712  0.0718
21066W        W21266  13.593   4.287   7.454 -0.1667 -0.1005 -0.0629
21067W        W21267   2.047   0.677   4.635 -0.1211 -0.2497 -0.0998
21068W        W21268   4.350   7.138  12.079 -0.1680 -0.1933 -0.0363
21069W        W21269   7.255   0.196  12.963  0.3075 -0.0002  0.1383
21070W        W21270  12.732   4.967  12.177  0.1584  0.1694 -0.1206
21071W        W21271  13.032   2.009   6.430 -0.1719 -0.1373  0.3008
21072W        W21272  14.402  14.161  12.853  0.2146 -0.4061 -0.0846
21073W        W21273  11.687   6.913  14.491 -0.3580  0.2160 -0.0052
21074W        W21274  15.026   9.695   7.478  0.1921  0.0932 -0.3053
21075W        W21275   9.463   3.070  12.831  0.1958  0.0761 -0.2059
21076W        W21276   2.403   2.393   9.966  0.0673  0.1250 -0.0716
21077W        W21277   6.752   8.047   6.426  0.3932  0.0125 -0.5966
21078W        W21278   4.927   4.047  12.704 -0.0056  0.3042  0.0029
21079W        W21279   2.074  12.236   7.094 -0.1610  0.1007 -0.0684
21080W        W21280  15.676   7.895   8.879  0.4421 -0.2983 -0.4215
21081W        W21281   9.787   3.298   6.072 -0.0927 -0.2409  0.1072
21082W        W21282   7.689   2.759  13.883 -0.0057 -0.0941  0.3041
21083W        W21283   5.550  13.828  14.332 -0.3582 -0.0115  0.2249
21084W        W21284   7.041  15.134  16.427 -0.0162  0.2509 -0.0841
21085W        W21285   7.061   4.712  10.208 -0.3923  0.0694 -0.1642
21086W        W21286   0.015  17.577   5.196 -0.3617 -0.0116  0.1593
21087W        W21287  12.501   5.928  13.318 -0.1465 -0.1279  0.0739
21088W        W21288  15.747   2.586   4.733  0.2105 -0.0657 -0.4400
21089W        W21289  12.094   3.180   6.694  0.0417  0.2243  0.2626
21090W        W21290   6.562   3.732  10.861  0.2133 -0.3212  0.1715
21091W        W21291   3.639   0.219  12.269  0.1578  0.1513 -0.0401
21092W        W21292  10.458  17.402   5.753  0.1401  0.2853  0.1429
21093W        W21293   6.939  13.482  13.124  0.0242  0.2091  0.0943
21094W        W21294  13.536  15.860   7.003 -0.0910  0.3028  0.0572
21095W        W21295  14.457   0.507   4.412 -0.0248 -0.0912 -0.2629
21096W        W21296  13.651  10.108  10.958 -0.1067  0.0747 -0.0928
21097W        W21297  15.395   2.965   8.869  0.2034  0.0805  0.1526
21098W        W21298  15.377  17.895  10.571 -0.0085  0.1131 -0.3894
21099W        W21299  14.014  11.970   4.188  0.0285 -0.0426 -0.0745
21100W        W21300   4.284   4.383  14.190  0.0142 -0.0710 -0.1709
21101W        W21301  12.488  10.871  13.953 -0.1966 -0.1569  0.0620
21102W        W21302   9.011   0.181   3.665  0.2266 -0.0829  0.3134
21103W        W21303  12.659   1.858   8.341 -0.0989 -0.0300  0.0783
21104W        W21304   4.575   0.760   6.583  0.1558  0.1206 -0.2057
21105W        W21305  11.050  16.762  12.559  0.1766  0.2018  0.0809
21106W        W21306  12.113   7.073  11.861  0.0505  0.0157 -0.2154
21107W        W21307  13.780   0.797   4.252  0.1367 -0.1271 -0.1003
21108W        W21308   5.781   3.680   6.033  0.0662  0.2070 -0.2591
21109W        W21309   3.799   3.174  11.121  0.0138  0.0942  0.0169
21110W        W21310  12.027  16.485  14.870 -0.0539 -0.1649 -0.1631
21111W        W21311  14.803   4.339   5.668 -0.0650 -0.1631 -0.1581
21112W        W21312   5.924   7.482   7.863  0.2697 -0.0312  0.4599
21113W        W21313  13.906   5.916   7.352 -0.2194 -0.3923 -0.1907
21114W        W21314   8.997  15.822   8.707 -0.3483 -0.0022 -0.0300
21115W        W21315   1.163   5.621  14.055  0.0065 -0.0502 -0.2500
21116W        W21316  14.497   0.712  14.971  0.0526 -0.0042  0.0320
21117W        W21317   1.211   0.852  15.364  0.3670 -0.1326  0.0717
21118W        W21318   5.874  16.682  10.168 -0.3205  0.0652  0.0439
21119W        W21319   5.293  17.944   7.643  0.1517  0.0161 -0.1527
21120W        W21320   2.645  11.527   6.568 -0.1742 -0.1971 -0.1162
21121W        W21321   5.837  16.727   5.451  0.0031  0.3184  0.1590
21122W        W21322  13.360   1.029  10.107  0.0151  0.1439 -0.1340
21123W        W21323   9.879  16.918   8.459  0.2096 -0.1002  0.0573
21124W        W21324  16.214   5.655   8.111 -0.1035 -0.0152 -0.1208
21125W        W21325  13.959   6.608  17.386 -0.4786 -0.1598 -0.0679
21126W        W21326   3.285  16.596   0.434 -0.1514  0.0530  0.0230
21127W        W21327  10.567   3.298   8.139  0.2405 -0.0278 -0.4233
21128W        W21328   5.382  17.339   8.912  0.1503 -0.2516 -0.1223
21129W        W21329  15.972   4.167  10.731 -0.0439  0.3566 -0.1123
21130W        W21330   3.964   5.893   0.322 -0.2974 -0.0530  0.0544
21131W        W21331  15.888   2.462   9.677  0.1228 -0.1296  0.0884
21132W        W21332   8.814  15.411  11.608  0.1387  0.0770  0.0557
21133W        W21333   0.697   0.755   0.791  0.0535  0.1177  0.2845
21134W        W21334  11.826   3.258   7.827  0.0180 -0.1568  0.1831
21135W        W21335  15.821   3.873   2.925  0.0983  0.0765  0.0143
21136W        W21336  17.212  17.342  10.309 -0.0935 -0.0658  0.1026
21137W        W21337   3.927   5.558   6.559 -0.2227  0.1047 -0.1998
21138W        W21338  12.527   6.789  11.726  0.1602 -0.1559  0.1175
21139W        W21339   8.016   5.203   3.764  0.1469 -0.0004  0.2041
21140W        W21340  11.521   4.907  12.627 -0.3634  0.2002 -0.0267
21141W        W21341  13.834   0.449  17.025  0.1374  0.2174 -0.0895
21142W        W21342   0.915   5.848   7.170  0.1104  0.3506  0.3156
21143W        W21343  12.522  11.039   9.521 -0.2198 -0.3643  0.1020
21144W        W21344   8.778  17.932  11.565  0.1714 -0.0111  0.1246
21145W        W21345   0.413   5.220  16.729  0.1460  0.0151  0.0664
21146W        W21346  12.723   2.044   4.848 -0.2584  0.1474 -0.0431
21147W        W21347   3.246   0.570  11.316  0.2341 -0.1618 -0.4612
21148W        W21348   8.469   2.891   4.191 -0.0152 -0.0210 -0.0663
21149W        W21349   5.897  14.097  13.325 -0.0919  0.2142 -0.0490
21150W        W21350   4.624  15.135  11.099 -0.0433  0.1593  0.2668
21151W        W21351  14.371   1.970  12.512 -0.0174 -0.1556  0.3150
21152W        W21352  15.182   5.949  11.310 -0.1510  0.0709 -0.2881
21153W        W21353  14.101   1.496  14.545 -0.3422 -0.1741  0.1064
21154W        W21354   2.292   2.091  16.074  0.1364 -0.2944  0.1021
21155W        W21355  12.921   1.102   8.718 -0.2821  0.2126  0.0813
21156W        W21356   9.202   2.075   6.828  0.1618  0.2836 -0.4912
21157W        W21357  16.843  15.285   5.153  0.0064  0.0268 -0.0859
21158W        W21358   4.184  18.119   2.963  0.0873 -0.2402 -0.1951
21159W        W21359  12.918  15.071  17.677 -0.3210  0.2512  0.1289
21160W        W21360   3.539  13.655  18.206 -0.1207  0.0354  0.3954
21161W        W21361  14.563   1.981   1.592 -0.1859 -0.0975  0.0361
21162W        W21362  17.443   3.058   8.633  0.0044 -0.1128 -0.0745
21163W        W21363   8.891   0.192   6.485  0.1559 -0.2254  0.2118
21164W        W21364   6.041   1.911  13.378  0.2379  0.1019  0.1717
21165W        W21365   7.984   5.610   6.546  0.0661 -0.0130 -0.0112
21166W        W21366  15.403  16.343  14.438 -0.0366 -0.3073 -0.3851
21167W        W21367   4.538   0.002  14.795  0.0089 -0.1845  0.1410
21168W        W21368  13.665   2.339   5.462 -0.2602 -0.1093 -0.2628
21169W        W21369   3.599   1.705  17.237 -0.0468 -0.1908  0.2302
21170W        W21370   3.800   5.909  11.411  0.4755 -0.2150  0.1878
21171W        W21371   5.503   6.712   8.141  0.1891 -0.1723 -0.0232
21172W        W21372  11.534   0.668   1.787  0.0836  0.2261 -0.0800
21173W        W21373   9.309   3.003   8.095 -0.0995  0.1898  0.0679
21174W        W21374  11.234   3.546   8.587 -0.2874  0.0152  0.1689
21175W        W21375  15.634   8.291   6.455  0.2477  0.1143  0.1869
21176W        W21376   9.890   4.649  13.329 -0.1649  0.0471 -0.0425
21177W        W21377  12.044   4.712  10.934 -0.1587 -0.0930 -0.0637
21178W        W21378  14.976   4.979  12.200  0.0652  0.0159 -0.0253
21179W        W21379   6.181   7.607   8.845  0.0765  0.2835 -0.0196
21180W        W21380   4.135   9.433  12.112  0.0880  0.0316 -0.2991
21181W        W21381   3.436  13.581   4.513  0.1372 -0.1586 -0.2211
21182W        W21382   6.789   0.503   5.916 -0.0086  0.2876 -0.0234
21183W        W21383  15.794   1.299  14.766  0.3322  0.2259 -0.4988
21184W        W21384   5.906  15.893  17.755  0.0021  0.3094  0.2317
21185W        W21385  13.377  16.570   6.638 -0.0361 -0.0355  0.4571
21186W        W21386  17.324   0.577  12.084  0.2152 -0.1810  0.1333
21187W        W21387   1.043   6.074   4.869  0.0472 -0.0995 -0.0538
21188W        W21388   9.795   1.407   4.331 -0.0665  0.0279 -0.2911
21189W        W21389  13.950   3.472   9.305 -0.2249  0.0600 -0.1822
21190W        W21390   4.306   4.830  13.887 -0.0598 -0.1329 -0.1908
21191W        W21391   9.059   1.642  11.456  0.0807  0.0057 -0.0921
21192W        W21392  12.493   4.185   6.906 -0.1914  0.1140  0.0487
21193W        W21393   6.832   3.284  17.271 -0.1215 -0.0268 -0.4453
21194W        W21394   6.643   5.879   4.262  0.1956  0.1827 -0.0806
21195W        W21395   7.843   2.529   8.962 -0.1097  0.0457 -0.2085
21196W        W21396   9.251   1.246   7.125  0.0304  0.1772 -0.0666
21197W        W21397  12.236  17.154   6.137  0.3479 -0.0412  0.0771
21198W        W21398  14.801  16.233   3.655  0.0129  0.1069  0.0601
21199W        W21399   8.011   6.063  15.872  0.0885  0.0024  0.0134
21200W        W21400  14.068  11.530   7.153  0.0410 -0.0580  0.1062
21201W        W21401   5.198   9.570  16.616 -0.1475 -0.1224 -0.2288
21202W        W21402  13.662   4.446   9.355  0.2216 -0.1079  0.1992
21203W        W21403   8.795  13.714  11.194  0.0471 -0.0879  0.2077
21204W        W21404  11.008  11.573   4.868 -0.0118 -0.2026  0.3617
21205W        W21405   8.854  18.115   7.292  0.1322 -0.0300 -0.2361
21206W        W21406  10.250   2.941   8.350  0.1400  0.1400  0.0619
21207W        W21407  12.461   6.042  10.326 -0.1280 -0.4483  0.1845
21208W        W21408   4.913   3.281  12.982  0.0683 -0.1866  0.3205
21209W        W21409   6.267  16.105  13.857 -0.2271  0.0448  0.0978
21210W        W21410   9.800   5.582   4.160  0.1409  0.1159 -0.2931
21211W        W21411   3.075   0.458  10.016 -0.0201 -0.1420  0.1115
21212W        W21412  12.346  10.701   2.701 -0.2685 -0.0315  0.0929
21213W        W21413  10.261   8.528  11.753 -0.1682  0.2288 -0.0627
21214W        W21414   6.818   3.027   5.987  0.2328 -0.0392 -0.0787
21215W        W21415   3.931   3.059  12.278 -0.1332  0.1368 -0.0177
21216W        W21416   4.996   1.685   1.538  0.1582  0.0487 -0.3843
21217W        W21417  12.177   5.142   5.758  0.0822  0.2407  0.4535
21218W        W21418   9.417   6.971  12.480  0.1096 -0.1277  0.0587
21219W        W21419  17.869  17.983   1.121  0.1376  0.2336 -0.0018
21220W        W21420  17.619   3.371  14.137  0.1122  0.2517  0.2178
21221W        W21421  10.063  13.290  16.466  0.1095  0.2105 -0.0704
21222W        W21422   9.644  13.005  13.001 -0.1513  0.1992 -0.4014
21223W        W21423   6.803   6.462  17.387 -0.2828  0.0803 -0.0715
21224W        W21424  10.642   1.800  10.954 -0.1370  0.2963 -0.0417
21225W        W21425  15.895   2.628  13.604 -0.0219  0.3983  0.1210
21226W        W21426  14.028  13.673  10.482  0.2767  0.1984  0.0723
21227W        W21427  11.375  17.778  15.685 -0.2208 -0.1316 -0.0501
21228W        W21428   6.173  15.037  11.597  0.0153  0.1781  0.2172
21229W        W21429   7.072   7.596  13.548  0.1307 -0.0962 -0.0534
21230W        W21430   9.908   6.438   7.345  0.2442  0.1996  0.0055
21231W        W21431   2.419   1.841  10.878 -0.0273  0.0191  0.1202
21232W        W21432   4.292  12.826  12.161 -0.2273 -0.0406  0.0313
21233W        W21433   5.379   4.022   9.672  0.0548  0.1179  0.0093
21234W        W21434  10.794   9.242   1.350 -0.1548 -0.1396 -0.0101
21235W        W21435   8.528   7.006  16.876  0.2194  0.0752 -0.0234
21236W        W21436   8.741   7.081   8.949 -0.0423  0.2470  0.3164
21237W        W21437  11.855  18.000   8.395 -0.1981  0.0353  0.1735
21238W        W21438  12.892   0.419  16.518 -0.0342 -0.1371 -0.1620
21239W        W21439   9.001  11.770  10.813 -0.0277  0.1910 -0.0786
21240W        W21440   9.661   4.283   4.704 -0.2829 -0.0015  0.2692
21241W        W21441   5.346  13.525  16.436  0.1949 -0.1628  0.6469
21242W        W21442  10.916  16.322   4.444  0.0276 -0.1064 -0.1556
21243W        W21443   4.829  17.988   5.323 -0.1082 -0.1180  0.0919
21244W        W21444  10.346  12.874  16.346 -0.0616  0.2217 -0.1848
21245W        W21445   7.978   2.928   8.697  0.2596  0.1336 -0.0740
21246W        W21446  12.907   2.907  10.801  0.0832 -0.0611  0.1955
21247W        W21447   8.903   4.464  10.866  0.0715 -0.0438 -0.1840
21248W        W21448   7.739  17.623   7.831 -0.1575  0.0289 -0.0048
21249W        W21449  15.704  16.920   0.974  0.1177 -0.0756 -0.2918
21250W        W21450  10.609  14.599   2.865  0.0051  0.0930  0.2698
21251W        W21451   3.050   9.958  16.280 -0.0911 -0.0024 -0.2482
21252W        W21452   5.895   1.973  14.515 -0.1088  0.0689  0.1347
21253W        W21453  16.817   0.582  12.341  0.0155 -0.2761  0.0667
21254W        W21454   6.835   1.204   3.692 -0.1200  0.0610 -0.0483
21255W        W21455  15.985  15.268   7.699 -0.3219  0.1999 -0.2473
21256W        W21456   7.737   7.980   9.001  0.1728 -0.0504 -0.0281
21257W        W21457   4.927   5.807  16.153  0.2356 -0.2015  0.1003
21258W        W21458  15.086   3.668  16.602  0.0906 -0.3218  0.2688
21259W        W21459  13.895  17.342   9.124  0.3081  0.0103  0.0161
21260W        W21460   8.160   4.135  15.318 -0.4015  0.2656  0.2529
21261W        W21461  10.569  13.557   7.666  0.1085 -0.0932  0.0968
21262W        W21462  14.860  17.562  15.329 -0.0654 -0.1480  0.1170
21263W        W21463  11.597   6.720  11.174  0.0846 -0.0267  0.2691
21264W        W21464   4.981  11.110   6.574  0.3031  0.1270  0.0773
21265W        W21465  11.253  15.776  15.178 -0.0427  0.0629  0.0526
21266W        W21466   3.960   5.901  10.309 -0.1850  0.0030  0.0616
21267W        W21467  10.405   2.745  11.837 -0.3802 -0.2955  0.2445
21268W        W21468   5.598   3.134   7.359 -0.1826 -0.1810  0.2171
21269W        W21469   4.954   7.351  15.014 -0.1777 -0.0033 -0.0661
21270W        W21470   3.529   2.428  15.111  0.1128  0.2438 -0.3348
21271W        W21471  10.363   0.609   9.413  0.1796 -0.2709  0.1434
21272W        W21472   1.370   0.887   2.801  0.2030 -0.1108  0.0932
21273W        W21473   5.546   0.788   8.566 -0.0088 -0.2957  0.0645
21274W        W21474  13.943   7.709   9.237  0.0707  0.0733 -0.0877
21275W        W21475   0.812   2.246  15.381  0.0879 -0.0980  0.2057
21276W        W21476  14.955  15.407   8.149 -0.0201 -0.3102 -0.0276
21277W        W21477  11.403   3.953  13.298  0.1549  0.1158 -0.2824
21278W        W21478  12.397  14.374  16.575 -0.2778  0.3358  0.1927
21279W        W21479   3.626   6.238  13.923  0.1167 -0.1562 -0.0037
21280W        W21480  13.663   8.033   8.203  0.0354 -0.2433  0.1324
21281W        W21481  15.550  17.778   0.897 -0.0332 -0.0263 -0.1418
21282W        W21482   1.526   4.805  15.961  0.1801  0.2498  0.0212
21283W        W21483   5.984   2.382  13.996 -0.3792  0.0959 -0.0164
21284W        W21484   9.129   6.976  10.683  0.0555 -0.0250  0.2608
21285W        W21485   4.090   6.782   8.561  0.0322  0.0205 -0.0083
21286W        W21486  14.730  11.111   2.385  0.2192 -0.2220 -0.2300
21287W        W21487   1.614  15.228   6.536  0.4220 -0.0800  0.3460
21288W        W21488  13.642  12.950   8.689  0.0186  0.1984  0.0787
21289W        W21489   4.829   3.805  10.487  0.4085 -0.5781  0.0754
21290W        W21490   3.131   1.982   2.507  0.1051  0.0674 -0.4585
21291W        W21491   6.067  14.887  11.098 -0.4842  0.0727  0.1561
21292W        W21492  10.953  16.905  17.602  0.0621 -0.0206 -0.0389
21293W        W21493  11.688   2.694  13.318  0.0754 -0.0724 -0.1026
21294W        W21494  12.023   6.130  12.825  0.4292  0.3004  0.0876
21295W        W21495   0.305  16.351  13.290  0.0839 -0.0967 -0.2101
21296W        W21496   1.096  13.905  15.332  0.0843  0.0097  0.1235
21297W        W21497   4.521  13.886   8.658 -0.0924  0.0250 -0.0016
21298W        W21498  14.947  14.675  12.279 -0.2323  0.1542 -0.0984
21299W        W21499  18.065   1.075  10.000  0.3578  0.1219 -0.0976
21300W        W21500   0.491  13.170  17.614  0.1397 -0.3097  0.1064
21301W        W21501   9.032  16.720  15.191 -0.1508 -0.1947  0.1600
21302W        W21502   4.040   2.454  13.665 -0.2221  0.3937 -0.3451
21303W        W21503   5.730  17.416  11.171  0.3027 -0.0959 -0.3899
21304W        W21504   9.456   0.810  11.362  0.4740  0.0339 -0.1232
21305W        W21505   8.190   5.127  12.202  0.0149  0.1341 -0.3181
21306W        W21506  12.584   2.128  12.674  0.1447  0.1504 -0.0679
21307W        W21507   7.702  16.427   1.535  0.0713  0.2155  0.0322
21308W        W21508  10.281  12.945  16.868 -0.2221 -0.1940  0.0460
21309W        W21509   0.063   5.471  13.344 -0.0873 -0.0523 -0.2609
21310W        W21510  12.366  10.146   9.744  0.0390  0.2068  0.2252
21311W        W21511   4.368   2.306  11.190 -0.1949  0.2020  0.0669
21312W        W21512  14.750   1.572  17.603  0.0955 -0.0746 -0.2067
21313W        W21513   1.513  13.848   3.054  0.0195  0.0937  0.1941
21314W        W21514   1.216   2.353  12.479 -0.0217  0.3110  0.0275
21315W        W21515  10.013   4.045  17.300 -0.1987 -0.2098 -0.3280
21316W        W21516  14.408   0.235   2.990  0.1060 -0.2216 -0.0811
21317W        W21517   5.467   0.387  13.044  0.3958  0.1011  0.1584
21318W        W21518   0.845   6.279  12.485  0.2047 -0.0349 -0.1253
21319W        W21519   6.549  13.553  14.472 -0.0619  0.2254 -0.1740
21320W        W21520   5.960   4.011  12.146 -0.0853  0.1121 -0.1733
21321W        W21521   6.816   6.880  14.019  0.1202 -0.1317  0.0904
21322W        W21522   8.726   9.686   1.855 -0.1749 -0.0364 -0.1003
21323W        W21523  11.820   2.207  14.028 -0.0451  0.1229  0.0342
21324W        W21524   8.173  15.054   0.165  0.2678  0.0240  0.0019
21325W        W21525   7.161   2.153  14.546 -0.1287  0.0421 -0.2598
21326W        W21526  10.709   2.838  14.403  0.0236  0.2168  0.0198
21327W        W21527   8.700   8.785  13.928 -0.0695  0.1917 -0.3576
21328W        W21528   6.094   2.191   1.733 -0.3355  0.3129  0.0151
21329W        W21529   9.858  15.198   1.901  0.1679 -0.1570 -0.2037
21330W        W21530   5.211   1.932  15.163  0.1960  0.2389  0.0726
21331W        W21531  15.741  13.325  14.170 -0.0874  0.0058  0.0829
21332W        W21532   0.021  13.117   8.887  0.2623  0.0509 -0.4336
21333W        W21533   9.378   3.921   7.943 -0.3308  0.2769  0.1634
21334W        W21534   2.826  17.644  15.760 -0.1269 -0.0780 -0.1560
21335W        W21535   8.950   1.136  16.397  0.0281 -0.0221  0.2157
21336W        W21536   9.649   7.398   8.691 -0.1881 -0.0922  0.3191
21337W        W21537  11.988  16.234  11.440 -0.0387  0.2065  0.0729
21338W        W21538  11.448   5.280  17.572  0.1375 -0.1339 -0.0106
21339W        W21539   5.363  15.932  14.970  0.0285 -0.0491 -0.0329
21340W        W21540  11.630   6.688  12.000 -0.2105 -0.1628 -0.2324
21341W        W21541   9.023  13.786   8.777  0.1277 -0.2246 -0.1138
21342W        W21542  15.637  17.320   3.837 -0.3532 -0.1711 -0.4010
21343W        W21543   5.579   7.330   9.672 -0.0592  0.1525 -0.2987
21344W        W21544  16.799   0.055   6.665  0.0019 -0.2754  0.3524
21345W        W21545   4.949  16.574   3.200  0.1732  0.1463 -0.0048
21346W        W21546  17.268   0.887  12.570  0.0695 -0.0707 -0.2947
21347W        W21547   9.432   5.867  14.818  0.2542  0.1418 -0.0969
21348W        W21548   1.268   8.662  12.075 -0.1659 -0.0871 -0.1238
21349W        W21549   7.419  16.037  13.680  0.0064 -0.1530  0.0224
21350W        W21550  10.489   6.603   0.591  0.1568  0.1366 -0.0568
21351W        W21551  11.869   1.132  14.307  0.1856  0.0069  0.4141
21352W        W21552  12.260  18.123  11.287 -0.0665  0.0629  0.0546
21353W        W21553   7.096  17.511   9.411  0.0108 -0.0497 -0.1322
21354W        W21554  15.424   5.671  13.297  0.3901 -0.0980 -0.0401
21355W        W21555   2.201  14.270  11.551 -0.0563 -0.1387  0.1110
21356W        W21556   7.637  16.290   0.106  0.0134 -0.0158 -0.0120
21357W        W21557  12.028  17.457   2.282 -0.1763  0.3827  0.0719
21358W        W21558  16.819   6.547   0.579 -0.0988 -0.3037 -0.2582
21359W        W21559   7.950   9.420   1.544  0.3089 -0.2112 -0.0344
21360W        W21560   9.300   4.206   0.303  0.1201  0.2336  0.2057
21361W        W21561   4.934  13.537  12.637  0.1095 -0.0743  0.1746
21362W        W21562   9.506  11.313   3.709 -0.1293 -0.0004 -0.1590
21363W        W21563  16.190  15.048   4.477 -0.1585 -0.0370  0.0381
21364W        W21564   3.376   2.970  12.341 -0.1389 -0.1249 -0.0985
21365W        W21565  17.834  11.272   5.158 -0.1577  0.1277  0.0905
21366W        W21566   8.217  14.533   8.887  0.1429 -0.4435  0.2286
21367W        W21567   0.146  18.102  10.227 -0.0873  0.2901 -0.5543
21368W        W21568  10.308   0.359  15.281 -0.1447  0.0394 -0.2788
21369W        W21569  10.001  16.816   0.136  0.1337  0.1454 -0.0114
21370W        W21570  11.838   1.977  11.504  0.0222 -0.1431 -0.2729
21371W        W21571   6.149   4.295  14.820  0.1838 -0.1129 -0.1110
21372W        W21572   8.000   2.559  16.979  0.2132 -0.1051  0.1820
21373W        W21573  10.516  17.861   9.938  0.0111  0.1191 -0.0797
21374W        W21574   8.227   1.688  10.806  0.3145  0.2253 -0.1391
21375W        W21575   9.984   6.313   9.379 -0.0833 -0.0532  0.1371
21376W        W21576   5.036   6.125  14.355  0.0769  0.1855  0.0242
21377W        W21577   7.812   5.826  13.298 -0.3405 -0.1054  0.0939
21378W        W21578  16.261   2.121  15.606  0.2788  0.2043 -0.0451
21379W        W21579  11.895   2.743  11.785 -0.3729 -0.1108 -0.0069
21380W        W21580   5.250   5.621   9.470 -0.1721 -0.0360  0.5526
21381W        W21581   9.989  18.053  13.032  0.1234 -0.1600 -0.3288
21382W        W21582  17.462   0.487  18.023  0.0552 -0.0703  0.1863
21383W        W21583  12.158   7.095   3.910  0.5362  0.1455 -0.0621
21384W        W21584   0.579  16.463  14.104 -0.0435 -0.1807 -0.1113
21385W        W21585   2.109   5.946   6.968  0.2392 -0.0682  0.0592
21386W        W21586   0.548   2.069   0.471 -0.1605 -0.2084 -0.2905
21387W        W21587   0.483  16.670  15.041 -0.0753 -0.0803  0.0886
21388W        W21588   7.300   0.637   9.452 -0.1835 -0.1767  0.0160
21389W        W21589   5.928   2.297   6.067  0.2594 -0.0209  0.0577
21390W        W21590   1.432  13.366  10.452  0.0482  0.3188 -0.0547
21391W        W21591   7.189   0.994   6.824  0.2770  0.0062  0.1589
21392W        W21592  17.411  12.547  13.550  0.3181  0.0481 -0.1212
21393W        W21593   6.187  16.095  10.701 -0.1683  0.1640 -0.2473
21394W        W21594  14.163   0.638   9.428 -0.1661  0.1596 -0.0893
21395W        W21595   7.638  13.283  14.365  0.1773  0.2188  0.2378
21396W        W21596   6.064   1.498  12.973  0.0369  0.1816 -0.0591
21397W        W21597  14.488  15.937  12.966 -0.0400 -0.2884  0.1213
21398W        W21598   8.565   1.802   9.355  0.1181 -0.3926 -0.1117
21399W        W21599   3.098   2.794  13.194 -0.0210 -0.2124  0.1962
21400W        W21600  14.653   1.409  16.001  0.3439  0.0592  0.1696
21401W        W21601   5.753  13.258   3.106 -0.1094 -0.2277 -0.1165
21402W        W21602  10.941   1.644   6.336  0.0291 -0.0204 -0.1381
21403W        W21603   3.478   1.351  15.159 -0.0198 -0.0641 -0.1455
21404W        W21604   9.469   3.333  15.037  0.1445  0.0666  0.1369
21405W        W21605   9.209   5.516  11.211  0.1598 -0.0205 -0.0776
21406W        W21606  13.981   2.802   0.810 -0.1472  0.1078  0.1391
21407W        W21607   2.063  16.040   9.698  0.2018 -0.2497 -0.1200
21408W        W21608  12.587   2.440  10.490 -0.2441  0.1185 -0.0500
21409W        W21609  12.962   8.814   6.192 -0.1680 -0.3114  0.3931
21410W        W21610  13.196   8.591  17.086 -0.0232 -0.3970 -0.0245
21411W        W21611   8.237   2.417  16.394 -0.0912 -0.1272 -0.2210
21412W        W21612  17.541  13.108  14.842  0.0444  0.1231 -0.1588
21413W        W21613   9.410   9.309  13.412  0.0576 -0.0126 -0.0662
21414W        W21614  10.487   6.189   1.332  0.4604  0.0246  0.3267
21415W        W21615  16.381  16.023   4.427 -0.0051  0.2547  0.3337
21416W        W21616  14.188   6.168   6.540 -0.0351  0.0477 -0.4844
21417W        W21617   4.777   2.762  10.481  0.0538 -0.3331 -0.0134
21418W        W21618  11.210   0.735   0.455  0.0366 -0.0242  0.1901
21419W        W21619   6.686   1.656   1.954 -0.0642  0.2054 -0.0747
21420W        W21620   8.077   5.556   9.093 -0.2739 -0.4733  0.0201
21421W        W21621  13.473   8.885  16.740 -0.2141 -0.0104  0.1787
21422W        W21622   8.622   5.069   1.601 -0.1946 -0.2439 -0.1795
21423W        W21623  10.893  14.579   8.626  0.0864 -0.1183 -0.0399
21424W        W21624  12.415  17.866  14.880 -0.2304 -0.1547  0.5987
21425W        W21625  11.568   0.330  15.161 -0.0922 -0.1536  0.0248
21426W        W21626   7.122   0.649   2.076  0.0183 -0.1917 -0.0139
21427W        W21627  18.024   5.846  11.217  0.4728  0.0119  0.3420
21428W        W21628  10.885   4.108  14.059 -0.2068 -0.1282  0.3550
21429W        W21629  17.550  13.163   5.902 -0.1254  0.0030  0.1537
21430W        W21630   8.933  10.210   5.939  0.1467 -0.1252  0.0918
21431W        W21631   9.709  15.369   0.228 -0.4516 -0.0457  0.0353
21432W        W21632  13.351  15.523  15.481 -0.2727  0.1485  0.1507
21433W        W21633   6.129   1.010  14.487 -0.0593 -0.0232 -0.1382
21434W        W21634  11.224   3.797   2.538  0.2320 -0.2214  0.1929
21435W        W21635  10.925  13.374   0.240 -0.2317 -0.1274 -0.3844
21436W        W21636  17.523  17.954   6.988  0.1084  0.0844  0.1116
21437W        W21637  14.099   4.102  13.020  0.1230 -0.0518  0.0932
21438W        W21638   9.089  12.685  15.103 -0.1472 -0.1431  0.2412
21439W        W21639   7.110  17.322  16.206  0.0778 -0.0372  0.2675
21440W        W21640  12.977   1.460   9.072 -0.0208 -0.0806 -0.0227
21441W        W21641   2.552   8.002   8.892 -0.0775 -0.2213 -0.3940
21442W        W21642   9.341   7.352   6.609  0.2941 -0.1723 -0.3382
21443W        W21643   3.065  14.085   3.251  0.0116  0.3424 -0.1353
21444W        W21644  10.855   8.554  11.660  0.1560 -0.0596 -0.5587
21445W        W21645   7.281   3.714  12.719  0.1659  0.1971 -0.4086
21446W        W21646   6.935  17.212  12.181 -0.2500  0.0186 -0.0526
21447W        W21647  10.260   0.988   7.340 -0.1846  0.0140  0.0219
21448W        W21648   7.790   4.296  12.997  0.1228 -0.1182 -0.0571
21449W        W21649   5.469  15.261  17.369 -0.2512 -0.1702 -0.0564
21450W        W21650   9.263  14.914  12.356  0.0332  0.1930  0.1012
21451W        W21651  11.325   9.630  17.375 -0.2734 -0.2318  0.1614
21452W        W21652  11.946   4.506   8.125 -0.1831 -0.0244 -0.2891
21453W        W21653   6.975   2.433  12.560  0.0160 -0.2251  0.3910
21454W        W21654   9.669   5.849   3.248 -0.4734  0.1890 -0.1434
21455W        W21655  10.372   5.655   7.165  0.4383  0.3636  0.0244
21456W        W21656   5.118  17.961   6.818 -0.2043 -0.2975  0.1213
21457W        W21657   5.012   0.277  12.763 -0.1223  0.0072  0.2588
21458W        W21658   9.843   2.591  11.671  0.0993 -0.0089 -0.2126
21459W        W21659  10.648   2.248  16.433 -0.0044 -0.1555  0.3097
21460W        W21660   6.518  17.350  11.904 -0.0784 -0.3504 -0.0326
21461W        W21661   1.432   7.437   1.085 -0.1823 -0.1556 -0.0533
21462W        W21662  11.145   2.295  16.413 -0.0554 -0.2008  0.1768
21463W        W21663  13.255  17.905  17.994  0.1369  0.0252  0.1944
21464W        W21664  10.676   2.387  12.707 -0.2307 -0.1427 -0.0961
21465W        W21665   2.050  13.421  15.024 -0.0174  0.1974  0.0425
21466W        W21666   0.397  13.843  17.620 -0.1528 -0.0147  0.0736
21467W        W21667  12.298   9.459  11.123  0.2440 -0.0617  0.3438
21468W        W21668   2.507   0.545   9.443  0.4954  0.0442 -0.4073
21469W        W21669   5.152   1.541  11.326 -0.2760  0.1118  0.2306
21470W        W21670   3.499  15.064  15.699  0.0006 -0.0723 -0.0909
21471W        W21671   9.506   3.890  18.184 -0.2477 -0.0895 -0.1138
21472W        W21672  15.765   8.933   8.625 -0.1958 -0.0094 -0.0580
21473W        W21673   5.837   6.963   1.664 -0.0131  0.2493 -0.1097
21474W        W21674   6.681   2.291  14.525  0.0018  0.1771 -0.3148
21475W        W21675  13.092   3.782   4.652  0.0820 -0.3925  0.0414
21476W        W21676  17.131  15.619   4.827  0.1868 -0.5405  0.4189
21477W        W21677   3.310  17.653   8.590  0.0840 -0.0118  0.1048
21478W        W21678   4.805  16.954   9.127  0.0939 -0.3390 -0.0163
21479W        W21679  15.672   6.263  16.804 -0.3875  0.1579  0.1834
21480W        W21680  17.842  15.766  13.895  0.1858 -0.1858 -0.2531
21481W        W21681   8.359   3.711   9.295 -0.0383 -0.0655  0.1123
21482W        W21682   5.959  13.858  12.899  0.1311 -0.1490 -0.3147
21483W        W21683   0.500  15.308   8.349 -0.1590  0.0257  0.2142
21484W        W21684  15.382   0.134   6.495  0.0396 -0.1200  0.0581
21485W        W21685  11.585   7.045  12.873  0.1244  0.0756 -0.1047
21486W        W21686  12.208   2.511   7.804 -0.0361  0.0715  0.0862
21487W        W21687   1.898   3.237   8.589 -0.0286  0.0449 -0.3656
21488W        W21688   7.664   1.003  11.532  0.1041 -0.5206 -0.1761
21489W        W21689   7.178   2.253  17.200  0.1954  0.2795 -0.0427
21490W        W21690  10.792  14.887   6.822  0.1514 -0.0620 -0.3102
21491W        W21691  10.680   6.636  17.566 -0.2304  0.1113  0.0323
21492W        W21692   4.846   5.264   5.498 -0.2482  0.0930  0.0130
21493W        W21693   4.461   6.069   0.795 -0.5103  0.1185  0.0539
21494W        W21694   8.855   2.246   6.344 -0.0543 -0.2221  0.0341
21495W        W21695  10.620  12.980   0.344 -0.2597 -0.0982  0.2710
21496W        W21696  15.905   2.582   4.274 -0.0180  0.2109 -0.1250
21497W        W21697   9.164   8.091   5.153  0.2974 -0.1485  0.1566
21498W        W21698   9.777   4.867   9.082  0.0850  0.3376 -0.2329
21499W        W21699   9.703   7.427  13.220  0.2077  0.2811  0.0033
21500W        W21700   5.419   5.482   9.925  0.1734  0.0005 -0.0563
21501W        W21701  10.182   2.842  12.280  0.0623 -0.0913 -0.1943
21502W        W21702   8.666  12.283   8.930  0.1370 -0.0856  0.0667
21503W        W21703   5.578  15.003   0.052  0.0499 -0.1436  0.0366
21504W        W21704  10.360   7.043  13.011 -0.3610  0.0001  0.0726
21505W        W21705  10.199   3.860   9.280  0.1877  0.3154  0.2950
21506W        W21706   9.126  15.376  15.565 -0.0239  0.0420  0.1562
21507W        W21707   9.950   6.459  11.823  0.1583 -0.2389 -0.1098
21508W        W21708  13.302   5.446  15.502 -0.0619  0.1503 -0.1505
21509W        W21709   9.592   0.402  11.702 -0.0073  0.2546  0.0853
21510W        W21710  12.631  11.694   0.487 -0.0179  0.0819  0.0407
21511W        W21711  13.245  17.365   7.361  0.1772  0.1303  0.0709
21512W        W21712  11.151  15.307  12.634 -0.0240  0.0028 -0.0743
21513W        W21713   9.755   6.311  13.619 -0.1624 -0.2785  0.2844
21514W        W21714  12.939   1.739  15.044  0.1853 -0.1262 -0.1364
21515W        W21715   4.554   5.874  12.643 -0.0152  0.1297 -0.0434
21516W        W21716   8.361   4.204   0.128 -0.0671  0.2428 -0.1018
21517W        W21717   7.348   1.434   1.742  0.3281  0.0155  0.0252
21518W        W21718   9.500  16.619   0.171 -0.2772  0.1157 -0.2654
21519W        W21719   4.445   6.150  10.894 -0.0329 -0.0473  0.0530
21520W        W21720   5.903  15.028  13.902 -0.0179  0.0026  0.0658
21521W        W21721   7.913   8.504  12.833 -0.0056 -0.1510 -0.4271
21522W        W21722  14.740   5.590   9.900  0.2257 -0.0686 -0.0897
21523W        W21723  11.392  17.128  15.363  0.2348 -0.1524  0.0179
21524W        W21724  10.196   3.076  11.333  0.0966 -0.0055  0.0473
21525W        W21725  11.382   1.728  12.539 -0.1740  0.1601 -0.1244
21526W        W21726  15.172   4.713   9.095 -0.0003  0.0454 -0.0377
21527W        W21727   9.105   1.623  12.810 -0.0380  0.0163  0.1110
21528W        W21728  10.397  16.425  13.630 -0.1187  0.0696 -0.2197
21529W        W21729  12.044   4.935   9.399 -0.1352  0.0128 -0.1245
21530W        W21730   8.599   2.852  18.138  0.2963  0.3181 -0.0955
21531W        W21731   2.656   5.967   0.644 -0.0201  0.1466  0.1657
21532W        W21732   4.975   1.455  15.279  0.1018  0.0605 -0.2258
21533W        W21733  17.777   2.077   2.982  0.2378 -0.1153  0.3414
21534W        W21734   8.857  17.188  13.954 -0.0240 -0.1151 -0.1391
21535W        W21735   0.173  12.620   6.762 -0.1738 -0.0238  0.1187
21536W        W21736   3.125  16.518  17.294  0.1219 -0.1193 -0.0521
21537W        W21737   9.280  15.939   2.937  0.0554  0.3342  0.1164
21538W        W21738   8.944   1.049   9.772  0.1350  0.0642  0.3636
21539W        W21739  12.630  16.474   0.762 -0.0042  0.0107  0.0751
21540W        W21740  11.987  16.910  10.498 -0.1240  0.0230  0.1794
21541W        W21741  14.939  13.974  14.851 -0.0283  0.2226  0.0576
21542W        W21742   6.831  11.229   9.608  0.0133 -0.1907 -0.3987
21543W        W21743  13.278   2.726  16.593  0.0620 -0.1482 -0.0922
21544W        W21744  17.016   2.284   3.076 -0.3169  0.3669  0.2192
21545W        W21745   8.851   7.520   8.099 -0.1572 -0.1442 -0.0022
21546W        W21746  13.848  11.416   4.443 -0.0010  0.2696 -0.1857
21547W        W21747  13.805  16.590   0.187 -0.0697 -0.1219  0.1055
21548W        W21748   6.353  17.288   4.031 -0.1362 -0.0287 -0.0794
21549W        W21749  12.738   3.780  18.011  0.1018 -0.1720 -0.1747
21550W        W21750  11.377   4.098   9.209  0.0446 -0.0353  0.0526
21551W        W21751  10.025  14.461   7.345  0.1463 -0.0528  0.2887
21552W        W21752   8.373   9.140   2.728 -0.1766 -0.0533 -0.0278
21553W        W21753   5.205  17.327  11.182  0.0710 -0.0066 -0.2436
21554W        W21754   8.947   1.566  10.941 -0.0590  0.0128 -0.0794
21555W        W21755   6.063   6.141   0.497 -0.0371 -0.3035 -0.1652
21556W        W21756  10.223   1.465   7.596 -0.1457 -0.1342 -0.1949
21557W        W21757   4.791  18.048  12.695 -0.0805  0.1263 -0.0387
21558W        W21758  11.745   0.160  16.476 -0.0297 -0.1793 -0.0806
21559W        W21759   7.259   5.993  16.883  0.0645 -0.0148  0.0745
21560W        W21760  14.051  12.034   5.386 -0.1048  0.1738 -0.2718
21561W        W21761   5.541   3.179   0.929 -0.1408  0.1139 -0.0658
21562W        W21762   6.782   8.980  12.368 -0.0847  0.0461 -0.1074
21563W        W21763  10.088   3.224   6.539 -0.2031 -0.1964  0.4202
21564W        W21764  10.312   2.260  11.001 -0.1041 -0.0841  0.1416
21565W        W21765   0.104  10.545   1.195 -0.0996  0.0010 -0.0856
21566W        W21766  10.276   6.305   7.094 -0.0767  0.0548  0.0960
21567W        W21767   4.980  13.681   8.343  0.3275  0.0671  0.2343
21568W        W21768   7.816   1.681   4.781  0.2231 -0.2948  0.1077
21569W        W21769   0.402   5.998  16.561 -0.1771 -0.2145 -0.0742
21570W        W21770   0.223   2.831   6.896 -0.0721  0.0222  0.3921
21571W        W21771   6.806   9.408  11.313 -0.1585 -0.0788 -0.3875
21572W        W21772  13.363   7.945  10.018  0.2257 -0.0679 -0.0995
21573W        W21773   4.613  15.430  15.559  0.2681  0.0430 -0.0155
21574W        W21774   5.847  17.732  16.091 -0.1159 -0.1011 -0.1089
21575W        W21775   5.277   1.434   9.820  0.2581  0.1465 -0.1990
21576W        W21776   3.259   2.562  12.704 -0.1938  0.1887 -0.4591
21577W        W21777   8.494  16.168  11.559  0.0979 -0.4251 -0.3730
21578W        W21778  10.362   4.632   7.679 -0.1525 -0.0046  0.0587
21579W        W21779  16.611  10.601   3.736  0.3990 -0.1691  0.1594
21580W        W21780   4.078  17.226  12.243 -0.1315 -0.0297 -0.1538
21581W        W21781   4.708   1.116  17.110  0.0450  0.0460 -0.0781
21582W        W21782  13.343   1.248   8.042  0.1007 -0.1054 -0.1479
21583W        W21783   1.833  14.685   6.209 -0.0463  0.0455 -0.1616
21584W        W21784   4.438  16.358  15.204  0.1716 -0.2711 -0.3109
21585W        W21785  16.842   1.421   2.724 -0.1079 -0.0094 -0.4210
21586W        W21786   7.773  15.271  10.355  0.1328 -0.3621  0.1298
21587W        W21787   3.717  17.337   9.461  0.0237  0.0752 -0.1573
21588W        W21788  12.180   4.623  14.540 -0.3202  0.0780  0.0125
21589W        W21789  13.071   2.876   9.322  0.1224 -0.1916 -0.0636
21590W        W21790  16.438  15.879  11.214 -0.1163  0.0000 -0.0406
21591W        W21791   5.019   0.066  11.006  0.1842  0.4836  0.0056
21592W        W21792   1.386  12.301  13.277 -0.0537 -0.1168 -0.0650
21593W        W21793   5.888  13.596  13.712  0.1257 -0.1966 -0.0692
21594W        W21794   8.154   8.163   9.771  0.0543  0.0441 -0.0755
21595W        W21795   2.193  11.178  13.013  0.0192  0.0461 -0.3221
21596W        W21796   9.855   6.788  11.081  0.0710 -0.1891 -0.0554
21597W        W21797   3.237  11.926  16.013  0.2482 -0.0859  0.0957
21598W        W21798   6.141   8.989   0.671 -0.1552  0.0108  0.0204
21599W        W21799  11.899   2.781  10.852  0.0139  0.1117  0.0610
21600W        W21800  10.922  17.825  10.281  0.1647  0.1462  0.1663
21601W        W21801  12.525  16.321  14.881  0.2936  0.0698 -0.3051
21602W        W21802  11.584   6.663  18.202 -0.0740  0.0685  0.1057
21603W        W21803   4.724   9.586  17.986  0.0794  0.0150 -0.1593
21604W        W21804  13.349   1.680  10.535  0.1988 -0.0604 -0.4063
21605W        W21805  13.295   8.040   0.343 -0.1763 -0.0419  0.1320
21606W        W21806  14.741  12.639  13.766 -0.1036  0.1800  0.1711
21607W        W21807   4.676  13.081   2.151 -0.3146  0.3339 -0.0267
21608W        W21808   6.150   4.699  17.097  0.0938 -0.2625  0.0982
21609W        W21809   5.696   7.817  15.053 -0.1541 -0.0292  0.0556
21610W        W21810  12.460  17.826   3.555 -0.2901 -0.2772  0.3458
21611W        W21811  11.672   0.322   8.369 -0.0761  0.3112  0.0198
21612W        W21812   7.554  16.349  17.394  0.2049  0.1673  0.0849
21613W        W21813   6.007   7.615  16.438  0.1150 -0.0430  0.0292
21614W        W21814  18.197   2.095   0.367  0.1560 -0.0998 -0.1850
21615W        W21815   7.085   9.286  16.414 -0.1168 -0.0512  0.2190
21616W        W21816  16.762   4.641   8.055 -0.0217  0.0471 -0.0675
21617W        W21817   2.897   2.108  13.665  0.1477 -0.1533  0.2804
21618W        W21818  11.463   6.505   1.853 -0.3459  0.1129 -0.2102
21619W        W21819   8.327   9.247   0.295  0.0128 -0.0911  0.0272
21620W        W21820  11.405  12.973  15.477  0.1528  0.3195  0.1512
21621W        W21821   9.003  17.050   2.088 -0.2326  0.0657  0.1784
21622W        W21822   3.823  14.700   0.888  0.1086 -0.0855 -0.1209
21623W        W21823   0.553   9.729   5.582 -0.1558  0.3751  0.1537
21624W        W21824   4.203   2.727   1.576  0.1096  0.0108 -0.0338
21625W        W21825  11.516   6.485   0.568  0.1147  0.0305 -0.1042
21626W        W21826   6.078   6.527  14.784  0.2709 -0.1867  0.0847
21627W        W21827  10.746   2.800  10.152  0.1462  0.2437 -0.0358
21628W        W21828  13.257   5.072  17.311 -0.1209  0.0060 -0.2007
21629W        W21829   8.497   5.130  17.613 -0.0789  0.0202 -0.0408
21630W        W21830   4.933  13.792  16.131 -0.1048 -0.1410 -0.0738
21631W        W21831   6.265   3.969  16.468 -0.0302 -0.0963 -0.0328
21632W        W21832   4.088   4.595  17.523  0.2293 -0.0878  0.4118
21633W        W21833   6.044   7.921  17.350  0.2421  0.1746 -0.0775
21634W        W21834  13.672   6.823  12.616  0.4280  0.0566 -0.0614
21635W        W21835  12.909   4.145   0.558  0.4233 -0.2501 -0.2135
21636W        W21836   5.794  17.486  17.459  0.0802  0.1233  0.0425
21637W        W21837   4.620   8.624   1.388  0.1370 -0.2155  0.0619
21638W        W21838   9.622   0.428   1.756  0.1465 -0.0635 -0.3183
21639W        W21839  16.987   3.140   0.546 -0.1332  0.0542  0.1280
21640W        W21840  12.867   4.036  15.736 -0.0099 -0.0495  0.2073
21641W        W21841   8.483   9.740   8.828 -0.1382 -0.1583 -0.2754
21642W        W21842   0.307   3.214   0.190  0.0512 -0.1840  0.0654
21643W        W21843  15.583   9.950  11.465 -0.1769 -0.1494  0.0078
21644W        W21844  10.307  15.059   8.996  0.2025  0.0368  0.0546
21645W        W21845   3.219   0.984  14.913  0.2101  0.1090 -0.0068
21646W        W21846  12.779   5.854  14.108  0.0084 -0.0914  0.0760
21647W        W21847   6.250   7.459  16.037 -0.2068 -0.1808  0.2504
21648W        W21848  10.499  17.772   8.471 -0.2896  0.0371 -0.0389
21649W        W21849   0.069   8.294  17.821  0.0933 -0.0918 -0.0197
21650W        W21850  11.887   1.670  12.845 -0.1696 -0.1754  0.3412
21651W        W21851  15.829   5.340  13.358  0.0288  0.1474  0.0378
21652W        W21852   2.791  10.754  18.192 -0.3899  0.0196  0.2415
21653W        W21853   8.315   4.304  12.561  0.2540 -0.0381 -0.0458
21654W        W21854   1.361  14.568   5.840 -0.0011  0.0518 -0.1991
21655W        W21855   8.426   0.284   1.535 -0.0300  0.3597 -0.1115
21656W        W21856   5.096  12.762   1.427  0.2116 -0.0303  0.2919
21657W        W21857   4.777  16.805   5.744  0.1216 -0.1656 -0.1220
21658W        W21858   4.824   3.259   0.407  0.1165 -0.2181 -0.1811
21659W        W21859  13.046   7.620   9.689 -0.0278  0.0504 -0.2348
21660W        W21860   9.923   4.240  17.772  0.1848 -0.1169  0.1682
21661W        W21861   6.333  18.061  16.197  0.1849 -0.0494  0.0946
21662W        W21862  16.314  12.943  17.563 -0.2119 -0.0520  0.0808
21663W        W21863  10.755  15.751  10.005  0.1550  0.1037 -0.1559
21664W        W21864   1.239   3.078   9.619  0.4571  0.0993 -0.1791
21665W        W21865   7.155  16.666  17.534  0.2628  0.0952  0.1003
21666W        W21866  14.806   1.571   8.855  0.1918 -0.0251  0.0811
21667W        W21867   3.449  13.672   6.685 -0.1145 -0.2490 -0.4837
21668W        W21868   7.461   9.611  14.999 -0.0333  0.1634  0.2310
21669W        W21869  12.951   1.648   6.113  0.0707 -0.1639 -0.1221
21670W        W21870   6.784   6.301   0.175  0.1475 -0.0960  0.0466
21671W        W21871   4.094  15.478  17.288  0.5093  0.0636  0.0542
21672W        W21872  12.211  15.460   1.009  0.3997 -0.1676 -0.1018
21673W        W21873  16.087   8.293   1.844  0.0158  0.0846  0.0727
21674W        W21874   5.233   8.559  14.390  0.1442 -0.3475 -0.0366
21675W        W21875   9.898  13.467   9.257 -0.0721  0.0252  0.1143
21676W        W21876   6.785  17.683  14.096 -0.2499  0.3625  0.0771
21677W        W21877  11.881  11.753  12.247 -0.0640 -0.0855  0.1550
21678W        W21878   0.150   6.220   3.999 -0.2287 -0.0492  0.1003
21679W        W21879  10.131  12.882   0.117  0.2351  0.2273  0.1171
21680W        W21880   3.374   9.071  16.128  0.0579  0.1724  0.1081
21681W        W21881   2.715  10.793  16.411 -0.3848  0.3062 -0.3079
21682W        W21882   6.195  12.945  12.645 -0.1539 -0.1802  0.1076
21683W        W21883   9.230   6.137  14.425 -0.1186  0.2991 -0.0654
21684W        W21884   9.546  16.069  14.770 -0.0471  0.0149 -0.0292
21685W        W21885   5.876  16.796  14.441 -0.3752  0.1297  0.0243
21686W        W21886   7.988  12.528  12.813 -0.3126 -0.4043 -0.1563
21687W        W21887  15.329  12.279   1.009  0.1982  0.0948  0.0900
21688W        W21888  16.580   4.499   2.687 -0.1308 -0.1106 -0.3028
21689W        W21889   8.968   0.852  15.991  0.2545 -0.1818  0.1308
21690W        W21890   8.142  16.172  12.381  0.0358 -0.0657 -0.1348
21691W        W21891  10.181  11.734   1.626 -0.4503  0.1063 -0.1298
21692W        W21892   9.598  13.652  11.695 -0.1218 -0.1157 -0.0476
21693W        W21893  10.217   4.609  11.837  0.2513 -0.1299  0.0052
21694W        W21894  16.095  16.825   2.211 -0.1102 -0.0215 -0.1198
21695W        W21895   8.785   1.396   0.015  0.2589 -0.2891  0.1047
21696W        W21896   8.995   6.339   4.883  0.3675  0.0589 -0.1662
21697W        W21897  10.786   2.253   3.783 -0.1096 -0.0745  0.0060
21698W        W21898   5.138  15.413  12.388 -0.2234 -0.1725  0.0619
21699W        W21899  10.177  15.319   3.251 -0.4345  0.0653 -0.0512
21700W        W21900   6.135   8.913  10.798 -0.0407  0.2015  0.0093
21701W        W21901   4.843   8.379   3.108  0.2190  0.1677  0.2666
21702W        W21902   7.748   2.076   1.157 -0.0119  0.3192 -0.1037
21703W        W21903   5.124   3.879   8.239  0.2455 -0.0768  0.3525
21704W        W21904  14.928   9.549   4.897  0.3041 -0.0777 -0.0329
21705W        W21905  12.895  16.018   3.521 -0.1552  0.2638 -0.0178
21706W        W21906   5.302   0.840  12.867 -0.0741  0.1665  0.0240
21707W        W21907  13.266   2.525  13.756  0.1157  0.0854  0.1116
21708W        W21908  17.697   4.874  13.861  0.4228 -0.4597  0.1940
21709W        W21909   6.329   1.901  11.519 -0.1098 -0.1665 -0.1132
21710W        W21910   9.640  17.755   9.373  0.1476  0.2519 -0.2090
21711W        W21911   5.901   4.615  15.411  0.0148 -0.0910 -0.0579
21712W        W21912   1.564  10.135   4.844  0.0289  0.0453 -0.2246
21713W        W21913  15.634   0.869   4.395 -0.1749  0.1312 -0.1379
21714W        W21914  15.786   6.918  14.438  0.1255 -0.1444 -0.0856
21715W        W21915  13.061  12.524  16.026  0.0070 -0.1161  0.2878
21716W        W21916   5.405   3.321  12.856 -0.0698 -0.0099 -0.1585
21717W        W21917  14.627   3.406  12.825 -0.0112 -0.4255 -0.0925
21718W        W21918   8.456  13.342  14.619 -0.1848  0.0108  0.2655
21719W        W21919  13.982  17.550  11.652 -0.0072  0.2652 -0.0174
21720W        W21920   1.218   3.546   9.178 -0.0649 -0.1439  0.1745
21721W        W21921  13.025   5.110   2.215 -0.2480  0.1893  0.0822
21722W        W21922   1.133   0.677  18.186  0.1810 -0.0177 -0.0527
21723W        W21923  14.264  17.363  15.476 -0.0313 -0.0547 -0.0763
21724W        W21924   4.507   0.942  13.599 -0.3830 -0.2218  0.0555
21725W        W21925   6.759   9.865   4.634 -0.2099 -0.3349 -0.0888
21726W        W21926   8.860   7.286  14.843 -0.0583  0.1357  0.2119
21727W        W21927   4.154  14.605  15.235 -0.1339  0.1703 -0.0209
21728W        W21928   5.916   0.941  13.741 -0.1686 -0.0101  0.0094
21729W        W21929  11.035   1.406  12.829  0.1458  0.0679 -0.0435
21730W        W21930  11.793  10.990   4.764 -0.1523 -0.0137  0.0369
21731W        W21931   8.687   0.626   3.427  0.1511  0.1185 -0.0308
21732W        W21932   8.830  15.747  18.183  0.2669  0.0669 -0.0587
21733W        W21933   9.401  12.966  15.461  0.0024  0.2970 -0.1283
21734W        W21934   9.293   0.479  13.442 -0.2903 -0.1415 -0.1029
21735W        W21935   9.335   5.940  17.798  0.2334  0.2790  0.0731
21736W        W21936  10.307   6.480  15.022  0.1486  0.0037 -0.0624
21737W        W21937   1.348   3.284  12.996 -0.1572 -0.1043 -0.1110
21738W        W21938  12.728   1.097  14.055 -0.1542  0.1473 -0.0879
21739W        W21939   9.466  16.182  18.067  0.1847 -0.1389  0.1070
21740W        W21940   9.677   1.358  17.654  0.0023 -0.1002  0.0558
21741W        W21941   1.826   4.308   2.743 -0.1711  0.2712  0.0657
21742W        W21942   9.742  15.793  15.887  0.0011 -0.2350  0.3484
21743W        W21943   7.043   1.446  16.597  0.1391 -0.1309 -0.2253
21744W        W21944   8.579   4.096  11.565  0.0347 -0.2019 -0.1455
21745W        W21945   0.242   0.762   6.144  0.2170 -0.1456 -0.0134
21746W        W21946  10.972  16.879   0.765 -0.0413  0.2607 -0.0235
21747W        W21947  12.838   3.721  15.374 -0.0150 -0.2241 -0.2758
21748W        W21948  13.702  11.720  17.771  0.1700  0.0300 -0.1649
21749W        W21949  10.924   1.418   1.307  0.0541 -0.1578 -0.1647
21750W        W21950   8.235  17.962   6.642 -0.0801  0.0357  0.2199
21751W        W21951   0.842  16.575   5.647 -0.0880  0.2648 -0.0809
21752W        W21952   8.275   3.518  17.215 -0.1870  0.0511  0.3254
21753W        W21953   8.445  13.187   4.848 -0.0330  0.0160 -0.2277
21754W        W21954   5.082  14.197  15.159  0.0714  0.0745 -0.0834
21755W        W21955  15.999   1.389   3.003 -0.1055 -0.3019  0.2510
21756W        W21956   6.832   1.348   0.132  0.0211  0.1676  0.0973
21757W        W21957   3.905   2.813  16.536  0.0863 -0.1350 -0.1056
21758W        W21958   0.786   4.462   0.490 -0.1018  0.1775  0.1331
21759W        W21959  10.670  12.475   0.187  0.3903  0.4058 -0.0686
21760W        W21960  10.281   1.656  15.621  0.0410 -0.3932 -0.0037
21761W        W21961   5.651   8.740  17.616  0.4013  0.1425  0.0118
21762W        W21962  10.994  14.043  17.197  0.1297 -0.0264  0.0617
21763W        W21963   3.462  16.844   1.473  0.0045 -0.1337  0.0004
21764W        W21964   9.993  16.940   2.656  0.0580  0.1262  0.2758
21765W        W21965   4.004  15.416  14.195  0.1845 -0.3131 -0.0603
21766W        W21966   9.003  16.374   2.689 -0.0127 -0.2069 -0.1206
21767W        W21967  15.895  14.526  11.352  0.1147  0.1065  0.3227
21768W        W21968   7.415  12.490  10.254 -0.2368  0.0311  0.1487
21769W        W21969  12.853  13.228  13.654 -0.0482  0.1670 -0.1798
21770W        W21970  10.350   0.340  18.024  0.2699  0.3424  0.2048
21771W        W21971  10.989  15.701  13.901  0.1190  0.0867 -0.0085
21772W        W21972  10.677   9.529  16.247 -0.5539  0.3123  0.4153
21773W        W21973   5.085   1.140   9.390  0.0340 -0.2012  0.1836
21774W        W21974   3.196  17.048  14.346  0.1173 -0.1723 -0.2073
21775W        W21975   1.835   6.636   4.498  0.2015  0.0732 -0.2797
21776W        W21976   1.173   4.464  16.637 -0.0254 -0.0139  0.0113
21777W        W21977   4.115   5.063  10.399  0.1395  0.1188 -0.1494
21778W        W21978  17.903   0.656   1.202  0.1411 -0.2131  0.2624
21779W        W21979   9.998   6.261  12.561  0.2214 -0.1517  0.3009
21780W        W21980  17.325   4.255   3.010 -0.0897  0.3918  0.0449
21781W        W21981  13.739   2.536  16.381 -0.2492 -0.1998 -0.0382
21782W        W21982   9.698   0.209  17.108  0.1661  0.1841 -0.2729
21783W        W21983   4.255  15.027  13.873 -0.0101  0.0133  0.2354
21784W        W21984   9.773   5.700   0.888  0.1688  0.1146 -0.0003
21785W        W21985   7.287   8.828  11.979 -0.1019  0.0909 -0.2053
21786W        W21986  15.479  17.141  16.572 -0.0605  0.0328 -0.1851
21787W        W21987  12.333   0.993   9.304  0.2283 -0.1277 -0.0972
21788W        W21988   8.427  13.138   7.195 -0.1145  0.1044  0.0486
21789W        W21989  10.676  16.642  17.955  0.0380 -0.0443 -0.4645
21790W        W21990  12.423   9.483  15.401 -0.0391 -0.0795  0.1399
21791W        W21991  12.282   6.850   4.319 -0.0776  0.0582  0.1918
21792W        W21992  15.431   5.584  13.804 -0.2414  0.1689 -0.0948
21793W        W21993  11.964  14.101  16.324 -0.4164  0.0802  0.1411
21794W        W21994   9.507  14.328  10.221 -0.0568  0.1043  0.1389
21795W        W21995   6.505   3.721  12.183  0.0353  0.0956 -0.0622
21796W        W21996  10.982   4.710  14.602  0.2602  0.1667 -0.4559
21797W        W21997  12.238   4.929   1.599 -0.1247 -0.1039  0.3253
21798W        W21998  11.023   8.882  15.431  0.0093  0.2210  0.1191
21799W        W21999   4.487  10.381  16.200 -0.1124  0.0265 -0.0134
21800W        W22000  11.440  15.047   4.920 -0.3612  0.1561  0.1249
21801W        W22001   7.884  16.072   5.989 -0.0159  0.4443  0.4146
21802W        W22002   9.291   7.470   2.437  0.0582 -0.1411 -0.0350
21803W        W22003  15.811   3.091   0.638  0.0941  0.1999 -0.0392
21804W        W22004   6.684   5.490   9.709  0.0324 -0.1880  0.0952
21805W        W22005   2.544  17.508   3.400 -0.0852 -0.0824  0.1308
21806W        W22006   8.104  17.341  16.239  0.0225 -0.0717 -0.0097
21807W        W22007  12.970   2.919   5.788 -0.0497  0.3190  0.2976
21808W        W22008   5.682  17.791  14.599  0.2557  0.3169  0.3158
21809W        W22009   8.185   1.672   7.489  0.2646  0.1393 -0.1763
21810W        W22010   8.752  15.205   0.215  0.3556  0.0168 -0.0538
21811W        W22011   5.468   2.486  17.066 -0.1951  0.3034 -0.0814
21812W        W22012   8.893  14.043  15.180 -0.1252 -0.0603 -0.2115
21813W        W22013   4.710   3.681  11.840  0.0958  0.0558 -0.2194
21814W        W22014   4.055   3.338  16.840 -0.1048 -0.1595 -0.0140
21815W        W22015   3.971  18.092   3.428 -0.0101 -0.0043 -0.2120
21816W        W22016   6.519   2.447  12.767 -0.0905  0.3360 -0.0986
21817W        W22017   6.656  17.382  12.840  0.1458 -0.0524  0.2354
21818W        W22018  15.220   8.419   0.391 -0.2602  0.0950 -0.3923
21819W        W22019   6.646   3.481  13.660  0.1729  0.1016  0.0881
21820W        W22020   5.911  17.340  12.251  0.1426 -0.0095 -0.0388
21821W        W22021  14.443   6.444   2.238 -0.3023  0.2213 -0.1511
21822W        W22022  10.062   5.943   1.694 -0.1230  0.2768 -0.1110
21823W        W22023   9.416   5.135  11.987  0.4964  0.0644  0.3249
21824W        W22024  12.680   7.059  14.460 -0.0563 -0.1055 -0.2505
21825W        W22025  14.562   3.581   6.302  0.0123  0.0299 -0.0411
21826W        W22026   3.613   4.130  16.265 -0.1472  0.1992  0.0252
21827W        W22027  14.059   5.621   8.311  0.2181 -0.1782 -0.1064
21828W        W22028  17.202   1.322   9.921 -0.1547 -0.1110  0.0874
21829W        W22029  10.771   1.321   2.974  0.2485 -0.1257 -0.2877
21830W        W22030   3.424  16.622  14.536  0.3220 -0.0338  0.0426
21831W        W22031   6.930   2.393   5.239  0.1934  0.0272  0.1141
21832W        W22032   3.004  11.184  12.601  0.1627  0.0383 -0.1423
21833W        W22033  11.445   6.310   9.449  0.1403 -0.1154  0.1354
21834W        W22034   6.366  10.483  16.275 -0.0491 -0.1314  0.0563
21835W        W22035  13.248   2.856   0.180  0.0568  0.0641  0.0962
21836W        W22036  14.881   7.686  17.539 -0.1943 -0.0722  0.2453
21837W        W22037   7.305   7.578   2.951  0.0760 -0.0958 -0.0166
21838W        W22038   2.639  13.209  12.808 -0.0893  0.5117 -0.0027
21839W        W22039  16.480   6.743   2.196  0.0448  0.1965 -0.3016
21840W        W22040   9.055   5.742   3.858  0.0357 -0.1669 -0.2959
21841W        W22041  16.848  17.245  18.022 -0.3571  0.0515  0.3335
21842W        W22042   8.503   4.130   6.750  0.0892 -0.1073  0.0067
21843W        W22043  10.182  14.966  16.599 -0.1717  0.0387 -0.1403
21844W        W22044  17.742   7.841   4.484 -0.0121  0.1692 -0.1703
21845W        W22045   9.535   3.863  17.565  0.5317  0.1804 -0.1087
21846W        W22046   9.155  17.954   9.430  0.0503  0.0515  0.0496
21847W        W22047  17.764  10.921   6.139 -0.0582  0.1023 -0.2435
21848W        W22048  11.442  17.972  17.888 -0.0584 -0.3298  0.0458
21849W        W22049   7.136   6.592  15.784 -0.1550  0.0631 -0.0604
21850W        W22050   7.649   0.846   8.113  0.0962 -0.1535 -0.1970
21851W        W22051   2.577   4.414   3.315 -0.2785 -0.0953  0.1627
21852W        W22052  13.050  17.726   5.180  0.0619  0.2310  0.2246
21853W        W22053  10.141  14.361  13.275 -0.1671  0.1543 -0.0449
21854W        W22054  10.660   1.381   7.264  0.0263  0.3219 -0.0308
21855W        W22055   6.334   3.513   1.303 -0.3931  0.2678  0.0222
21856W        W22056   5.835   0.025   0.281 -0.0218 -0.0264 -0.1557
21857W        W22057  11.936  17.830   7.497 -0.1123  0.0364 -0.1176
21858W        W22058   7.661   3.974  16.054 -0.0705 -0.0847  0.1872
21859W        W22059  10.274   2.041   2.449 -0.2564 -0.0685  0.3034
21860W        W22060   4.535   5.903  14.462 -0.1244 -0.1732  0.1211
21861W        W22061   8.756   4.138  12.697  0.2200 -0.1225 -0.2125
21862W        W22062   6.801   8.505  15.161 -0.0568  0.0468 -0.0586
21863W        W22063   8.666   6.684  12.807 -0.1357 -0.0889  0.2021
21864W        W22064   4.930  14.835  14.909 -0.2366  0.0393  0.0866
21865W        W22065   8.424  15.836   4.490 -0.0728 -0.0529 -0.1239
21866W        W22066  14.397   1.791   2.642  0.4448 -0.0650  0.1192
21867W        W22067   0.610   9.660   4.606  0.0884  0.2248  0.0161
21868W        W22068   2.393   7.833  15.597  0.0143 -0.0300 -0.1019
21869W        W22069   3.245  17.153   2.085  0.0351 -0.0926  0.0803
21870W        W22070  12.631  16.395   4.784  0.4276 -0.1276 -0.2582
21871W        W22071   5.321   6.570  17.000 -0.0664 -0.3857  0.1994
21872W        W22072   3.637   6.840  17.661 -0.0759  0.1254 -0.1775
21873W        W22073   8.800   8.450  11.761  0.0984 -0.1539  0.2123
21874W        W22074   8.374   3.395  12.236 -0.0382 -0.0742 -0.0339
21875W        W22075   9.698   4.700   3.174  0.0553 -0.2289  0.0072
21876W        W22076   6.144  13.238  14.915 -0.0117  0.2013  0.0500
21877W        W22077   1.801   2.467   9.306 -0.3715  0.0300  0.2229
21878W        W22078   8.656   3.032  14.059  0.0034  0.3780  0.0163
21879W        W22079   0.815   4.060   3.458 -0.1202  0.2944 -0.2160
21880W        W22080   7.105   5.715   1.442  0.1559 -0.2513  0.2908
21881W        W22081   4.060   5.826   1.128 -0.1984 -0.2189 -0.1707
21882W        W22082   5.574   3.572   9.714  0.2762  0.1802  0.2026
21883W        W22083   8.328   7.465   0.717 -0.0005 -0.0682 -0.0325
21884W        W22084  11.141   1.813   1.418  0.0566  0.4479 -0.4105
21885W        W22085  14.418   3.071   0.849 -0.0138 -0.2700 -0.1461
21886W        W22086   3.332   8.071  17.853 -0.2453 -0.1253  0.1680
21887W        W22087   8.355   4.512  16.388  0.1465 -0.0973 -0.1721
21888W        W22088   7.849  17.244   6.977  0.0345 -0.0917 -0.1668
21889W        W22089   5.210  14.035  13.476  0.3209 -0.1037 -0.1388
21890W        W22090   4.365   5.545   5.525  0.0560 -0.3152  0.0028
21891W        W22091  11.372  12.268  13.701 -0.0190  0.2223 -0.1733
21892W        W22092  15.614   1.505   8.643  0.1409  0.0468  0.0703
21893W        W22093   1.729   0.058   6.263  0.1256 -0.2353 -0.1054
21894W        W22094  13.098   7.165  17.438 -0.0563  0.1226  0.0871
21895W        W22095   9.511  11.041   2.502 -0.2267  0.0034 -0.0050
21896W        W22096  10.511   0.896   8.966 -0.3869 -0.0257  0.3459
21897W        W22097  17.873   4.299   0.751  0.0610  0.5222  0.4729
21898W        W22098  17.180  17.792  16.442  0.0677  0.0543  0.0269
21899W        W22099   9.826   3.776   7.041  0.0135  0.1417  0.1400
21900W        W22100  17.089  12.936   3.041  0.3850  0.2263  0.0727
21901W        W22101   7.192   6.602   0.082  0.1505  0.0854 -0.2875
21902W        W22102   5.364   3.845  12.603 -0.2526  0.4388 -0.1043
21903W        W22103  15.010   3.140  12.715  0.0545 -0.0451 -0.3271
21904W        W22104   4.077   3.063   3.550  0.1149  0.2668  0.0186
21905W        W22105   9.580   5.657   1.678 -0.2174  0.1001 -0.1520
21906W        W22106   7.006  15.100  12.064 -0.0754  0.2556  0.2583
21907W        W22107   0.089  10.138   4.208  0.0523  0.1770  0.2029
21908W        W22108   9.868   2.383  15.189 -0.1652 -0.0582 -0.0531
21909W        W22109   1.600   1.166  15.378  0.2009  0.0305 -0.1577
21910W        W22110   1.296   9.923  12.886  0.1302  0.1962  0.2981
21911W        W22111   4.682  13.874   1.003  0.0502 -0.0889  0.1109
21912W        W22112  13.052  16.567  16.661 -0.1364 -0.0205  0.1864
21913W        W22113   5.763   3.299  16.706 -0.2768 -0.0366 -0.1178
21914W        W22114  10.888   2.303  15.275  0.3892 -0.0721  0.0715
21915W        W22115  10.322   8.756   0.504 -0.2375  0.2737  0.1143
21916W        W22116  12.299  16.660  17.413 -0.1831 -0.3210 -0.1170
21917W        W22117   9.111   7.324  16.035  0.2416 -0.0509 -0.1192
21918W        W22118   7.658  12.223  15.213 -0.1019  0.0685 -0.2327
21919W        W22119   5.717   1.739   0.236 -0.1017  0.0056 -0.3901
21920W        W22120  14.389  16.779   5.298 -0.0060  0.0569 -0.0689
21921W        W22121  13.193  17.451   3.861 -0.0831 -0.1072  0.1405
21922W        W22122  10.038  16.697  17.216  0.3695 -0.1332  0.2460
21923W        W22123  14.077   2.403   1.769 -0.3750  0.0588 -0.2473
21924W        W22124   8.244  17.280   0.709  0.1138  0.1994 -0.0536
21925W        W22125  16.896   4.599   1.753 -0.3655 -0.1393  0.1093
21926W        W22126  15.854   4.921  15.862 -0.0691  0.0955  0.0448
21927W        W22127  12.554  17.829   2.502  0.4075 -0.0157  0.2142
21928W        W22128   4.324   4.882  12.946  0.3720  0.2510 -0.2390
21929W        W22129  16.122   2.350   2.050 -0.0108  0.1945 -0.0048
21930W        W22130  13.490  15.878   2.547  0.1696  0.3557 -0.1974
21931W        W22131  12.385  16.058   6.866 -0.0383 -0.0551  0.1831
21932W        W22132   5.396  16.779  14.200  0.3192 -0.0739  0.1212
21933W        W22133  10.730   4.248   0.596  0.0990 -0.0337 -0.1860
21934W        W22134   3.525   1.165  15.663  0.0735  0.0783 -0.0070
21935W        W22135   3.575  16.020  11.367  0.0505  0.1411 -0.1237
21936W        W22136   4.519   1.733  17.877  0.1147 -0.1124  0.3197
21937W        W22137   9.513  15.618  17.157  0.1021  0.1216  0.1435
21938W        W22138  10.380   4.229  12.548  0.0888 -0.0951  0.0417
21939W        W22139  13.387   2.559  17.952  0.0102  0.1783 -0.0197
21940W        W22140  14.878   3.921   0.290  0.0567  0.0142  0.0190
21941W        W22141  12.602   8.910   3.713  0.1864 -0.1424 -0.0075
21942W        W22142   7.092   6.246   3.299 -0.1716  0.1514  0.1146
21943W        W22143  11.251   6.597   7.102 -0.0170  0.0740 -0.1552
21944W        W22144   6.613   4.685  12.538  0.0740 -0.1152  0.0278
21945W        W22145  10.910  17.009  14.661  0.2584 -0.0009 -0.1367
21946W        W22146  17.233   5.954  10.478  0.1554  0.2605 -0.0508
21947W        W22147  10.084   1.548   6.025  0.1847  0.1182  0.1766
21948W        W22148   6.000  17.221  14.747 -0.0136 -0.0805 -0.6136
21949W        W22149   8.576  17.609  11.233 -0.1859  0.0887 -0.1805
21950W        W22150   9.476   5.071   2.721  0.1623 -0.4155  0.1775
21951W        W22151   6.828  15.023   0.262  0.1962  0.0457 -0.0267
21952W        W22152   9.245   1.339  11.982  0.0515  0.0424  0.1223
21953W        W22153   8.295  14.768   1.354  0.2551 -0.0233  0.1710
21954W        W22154   4.954   1.005  12.321  0.2794  0.3051  0.2208
21955W        W22155   8.608  12.246  16.130  0.0833  0.2450  0.0378
21956W        W22156   5.251   1.181  11.071 -0.0927  0.0010 -0.0617
21957W        W22157   3.999   1.323   7.845 -0.2873  0.1135 -0.2977
21958W        W22158   3.483  12.400   0.485 -0.1109  0.1821 -0.0827
21959W        W22159   5.125   2.034  14.290  0.2730 -0.0619 -0.0842
21960W        W22160  18.054  18.138  14.216 -0.2111  0.0771 -0.0515
21961W        W22161  12.384  15.266   4.622  0.0760  0.1658  0.2506
21962W        W22162  11.920   1.899   2.472  0.1308 -0.0637 -0.1374
21963W        W22163  10.958  10.185  16.863 -0.0635 -0.2260  0.1706
21964W        W22164   8.267   7.335   6.208 -0.3500 -0.2405  0.0256
21965W        W22165   6.296  16.823  11.650  0.1226 -0.0823 -0.2848
21966W        W22166   5.750  17.202   5.111 -0.0575  0.0705  0.1140
21967W        W22167  10.565  13.962  13.333 -0.0131 -0.0933 -0.0920
21968W        W22168   0.891  13.060  15.846  0.0847  0.0082  0.3376
21969W        W22169   8.255  14.079   9.663  0.0003  0.2660  0.2899
21970W        W22170   4.274   8.295   2.489  0.0706  0.1064 -0.2201
21971W        W22171   7.714  15.022  11.668  0.1031  0.0081 -0.2410
21972W        W22172   9.107   4.672  18.095 -0.0741 -0.0321  0.1189
21973W        W22173   9.700  13.959  12.123  0.1733  0.2043  0.2281
21974W        W22174  10.104   9.143  10.265  0.1081  0.1082  0.0196
21975W        W22175   9.833   2.066  17.114  0.0318  0.1659 -0.2576
21976W        W22176   4.449  14.990   3.966 -0.2937  0.0301 -0.1494
21977W        W22177  17.402   7.488   0.180 -0.1268 -0.0714  0.1362
21978W        W22178   8.743   5.969  14.505  0.3655  0.2738 -0.1425
21979W        W22179   9.272  13.223  12.762  0.0497  0.2471  0.1692
21980W        W22180   7.356   3.024   6.121 -0.2108 -0.2419  0.1457
21981W        W22181  11.096   1.022   5.842  0.1586 -0.1658  0.2797
21982W        W22182  13.130   8.352  15.983  0.0525 -0.0977 -0.0691
21983W        W22183   7.470  14.533   5.229 -0.1142  0.0593  0.0002
21984W        W22184   9.207   6.359   1.198 -0.1901  0.2371  0.1938
21985W        W22185   1.478   1.113   7.150 -0.0521 -0.3680  0.0197
21986W        W22186  11.613   3.725  15.712  0.1705  0.0420  0.1053
21987W        W22187   6.916   1.872   5.121 -0.0176  0.1363 -0.4179
21988W        W22188  11.237  15.384   3.888 -0.2028 -0.0299 -0.1360
21989W        W22189  11.911  17.429  10.764 -0.0090  0.0673 -0.1400
21990W        W22190   8.116  16.934  10.059 -0.0643 -0.0836 -0.2984
21991W        W22191   4.177  14.993   6.766  0.2108 -0.0031  0.0880
21992W        W22192   8.053  16.669  13.726  0.1105  0.0528  0.1451
21993W        W22193  10.820   6.213   3.077 -0.2094 -0.0172  0.5113
21994W        W22194  16.264   4.658  10.461 -0.1526  0.0887 -0.2025
21995W        W22195   9.722   3.209  14.035  0.3381 -0.0821  0.1847
21996W        W22196   6.509   3.927  16.045 -0.0857 -0.1801  0.0793
21997W        W22197  12.059  12.809  16.033  0.0253  0.1746 -0.1960
21998W        W22198  10.702  17.630  16.031  0.0604  0.2488  0.0025
21999W        W22199  11.001   6.572   2.030  0.2097 -0.1323  0.3052
22000W        W22200   2.520  16.882  14.609  0.0075 -0.0222 -0.2927
22001W        W22201  12.158   3.223  15.844 -0.1938 -0.1237  0.1780
22002W        W22202  10.355   5.612   0.058  0.0024 -0.0775 -0.2481
22003W        W22203  12.930   4.109   2.891  0.1545 -0.3447 -0.0426
22004W        W22204   5.341  16.935  15.204 -0.0462  0.1694  0.1792
22005W        W22205   2.688  17.312   0.047  0.0644  0.1075  0.0270
22006W        W22206  13.697   0.758  14.794 -0.0519  0.0970 -0.1099
22007W        W22207   5.662   3.266  10.110 -0.0592 -0.0621 -0.2534
22008W        W22208   9.791   3.676   9.510 -0.1086 -0.1050 -0.2907
22009W        W22209   3.577   1.856  14.348 -0.1435 -0.2836 -0.1233
22010W        W22210  12.027   6.832  13.194 -0.0118  0.0443 -0.3343
22011W        W22211   5.204   7.690  12.970  0.2656 -0.0616  0.1516
22012W        W22212   1.177  15.085  13.869 -0.3482 -0.1911  0.2243
22013W        W22213   5.729   9.294   6.965  0.0182 -0.1752  0.1891
22014W        W22214   4.105   8.521   4.078 -0.0414  0.3020  0.2104
22015W        W22215   1.037   6.194   6.300 -0.4106  0.0260  0.1073
22016W        W22216  16.767   5.950   0.812 -0.0775  0.1696  0.0236
22017W        W22217   5.664   7.084   6.706  0.0813 -0.2058 -0.0535
22018W        W22218  12.855  16.095   2.039 -0.1816  0.0183 -0.1530
22019W        W22219  10.776   0.954  10.991  0.0551  0.0795  0.1495
22020W        W22220  10.594   0.725  15.141  0.0372 -0.0108 -0.0681
22021W        W22221  16.162   6.447   1.234 -0.0582 -0.2080 -0.1200
22022W        W22222  10.128  17.152  14.000  0.0610 -0.1320 -0.0992
22023W        W22223   9.062  11.695   6.250  0.4317  0.1210 -0.3497
22024W        W22224   3.806   6.570  14.631 -0.2692  0.1705 -0.0892
22025W        W22225  11.259   6.329  11.049  0.0756  0.0054  0.0168
22026W        W22226   6.770   0.968  18.033 -0.2191 -0.2751  0.2764
22027W        W22227  12.523   7.874   2.997  0.0154 -0.0535 -0.0125
22028W        W22228  17.309   0.908  11.587  0.3778 -0.0084  0.3103
22029W        W22229   7.954   9.842   8.528  0.2194 -0.1074  0.0935
22030W        W22230   7.318   9.836  12.791  0.1301  0.0928 -0.2711
22031W        W22231   3.325  11.903   6.375 -0.0806 -0.0383 -0.0945
22032W        W22232   6.714   8.282   3.513  0.0363 -0.1546 -0.0622
22033W        W22233   4.999   9.498   3.830  0.0461 -0.2167  0.0014
22034W        W22234   7.370  10.394   7.121  0.3279 -0.0546  0.0547
22035W        W22235  11.407   8.906   3.670  0.1231 -0.0816  0.2330
22036W        W22236  16.094   1.922   5.235 -0.0404 -0.3263  0.2432
22037W        W22237   8.453  14.572  16.523 -0.1363  0.2140 -0.0015
22038W        W22238  11.972  18.054   3.676  0.1884  0.2514 -0.0149
22039W        W22239   7.370  10.903   7.144  0.4688  0.0618 -0.1672
22040W        W22240   8.126  11.543   3.719  0.0384  0.1320 -0.0254
22041W        W22241  12.233   5.520   5.425 -0.0095 -0.2179  0.0404
22042W        W22242   4.600   6.450   6.326 -0.1081  0.1292 -0.0384
22043W        W22243   6.581   7.443   9.777 -0.1015  0.0556  0.0474
22044W        W22244  13.483   1.893   7.287  0.2014  0.0222 -0.0688
22045W        W22245  13.889   5.304   4.037 -0.0526  0.2554 -0.0496
22046W        W22246   4.351  11.335  13.323 -0.3738  0.1741  0.0839
22047W        W22247  14.748   4.188   3.433 -0.0271 -0.2378  0.1457
22048W        W22248  12.731  16.692  15.260 -0.0244 -0.2613  0.1172
22049W        W22249  11.268  10.567   3.336  0.2537  0.0529  0.1458
22050W        W22250   2.771   8.663  12.190 -0.0398 -0.1443 -0.0242
22051W        W22251  14.331  12.128  14.179 -0.1017 -0.1620  0.0022
22052W        W22252   8.751  10.011   0.401 -0.0921  0.3907  0.0228
22053W        W22253   7.763  17.761  14.721  0.3222  0.2408  0.1336
22054W        W22254   6.600   5.392   7.387  0.0119 -0.1296 -0.2234
22055W        W22255   8.058  17.113   3.192 -0.3653 -0.1836 -0.0615
22056W        W22256  14.102   9.262  15.017  0.0190  0.2923 -0.3428
22057W        W22257   3.583   6.461  17.965 -0.0434 -0.1488 -0.2380
22058W        W22258   7.204  11.085   3.895  0.3876  0.0249  0.1632
22059W        W22259  11.524   2.339   4.715  0.2609  0.0440  0.0342
22060W        W22260  15.754   6.156  17.528  0.0837  0.0416  0.2838
22061W        W22261   5.326   7.463   1.207 -0.1275 -0.1093 -0.0764
22062W        W22262   3.124  16.342   0.061 -0.1276 -0.1265  0.2447
22063W        W22263   6.952  10.022   2.460  0.0812 -0.1353 -0.2530
22064W        W22264  13.459   2.872  17.018 -0.0212 -0.3777  0.5007
22065W        W22265   9.682  16.911  15.793 -0.0418  0.1358 -0.1638
22066W        W22266   3.318   7.425   8.411 -0.0157 -0.0915  0.1252
22067W        W22267  14.722   6.306   2.637  0.0229 -0.0336 -0.0652
22068W        W22268   1.100   3.013  15.071 -0.1483  0.0353 -0.1586
22069W        W22269   3.585   4.557   3.309  0.2431  0.0286  0.1826
22070W        W22270   9.960   9.838   4.454  0.0394 -0.3898  0.1041
22071W        W22271  13.444   0.695   3.735  0.2716  0.0348 -0.0874
22072W        W22272   6.414  12.224  17.034 -0.0154  0.2255 -0.4217
22073W        W22273  15.176  15.039   0.914 -0.0577  0.3094 -0.0801
22074W        W22274  17.504   0.421   4.252 -0.0813 -0.0927  0.3446
22075W        W22275  13.604   3.521   1.236 -0.1428 -0.1387  0.0349
22076W        W22276  14.391   1.395   4.109  0.2448 -0.1107  0.1165
22077W        W22277   1.770   8.440  17.903  0.0782 -0.0687 -0.2417
22078W        W22278   1.439   7.692   4.931 -0.4230  0.2592  0.2525
22079W        W22279  12.282   1.372  15.969 -0.0391 -0.0151  0.1725
22080W        W22280   7.360   8.930   1.825  0.0651 -0.0800  0.0024
22081W        W22281   6.964  10.075   8.145  0.2647 -0.3194 -0.1090
22082W        W22282   6.434   4.565  13.652  0.1334  0.0216 -0.0525
22083W        W22283   3.168   9.836   8.253  0.2781  0.0993  0.0770
22084W        W22284   4.903   7.252  16.375  0.0977  0.0275  0.0938
22085W        W22285   6.611   2.995   5.496  0.0811 -0.3116  0.2698
22086W        W22286   8.672   0.963   4.714 -0.1059  0.1160 -0.0391
22087W        W22287  16.414  13.537  13.727 -0.3912 -0.2785 -0.0062
22088W        W22288   3.563   2.026   1.771 -0.0606  0.4031  0.0127
22089W        W22289  10.598   2.397   6.978 -0.0775  0.0950 -0.0061
22090W        W22290   6.968  10.635  16.881 -0.0400  0.3722 -0.0489
22091W        W22291   9.035   4.292   1.830  0.0644  0.1075  0.0480
22092W        W22292  17.437   4.944   4.686 -0.1760  0.0961  0.1760
22093W        W22293  11.230   5.081  18.088  0.1272 -0.1830 -0.3092
22094W        W22294  13.609   7.838  17.038  0.2586 -0.1185  0.1765
22095W        W22295   7.204   4.131   0.020  0.1296 -0.0712  0.3457
22096W        W22296   8.051   3.739   2.316  0.1362 -0.1349 -0.2081
22097W        W22297  12.552   5.215   6.822 -0.1655  0.1721  0.0738
22098W        W22298  10.638   7.866  10.831 -0.0232  0.0304  0.0108
22099W        W22299  10.830   7.035  15.683 -0.1527 -0.1772 -0.3178
22100W        W22300   7.440   8.640   4.636  0.2088 -0.1907  0.1566
22101W        W22301   2.883  11.443   4.827  0.0611  0.2940  0.2479
22102W        W22302   9.969  17.615   1.592  0.0368  0.1929 -0.1830
22103W        W22303  12.481   5.201   1.297 -0.0905 -0.1741  0.1570
22104W        W22304   7.122   0.574  13.739  0.0511  0.0431 -0.1719
22105W        W22305   3.840   4.556   6.234 -0.0176  0.1216  0.1964
22106W        W22306   4.525  12.108  15.454 -0.0993 -0.2468 -0.0310
22107W        W22307  17.197   6.474   9.628  0.1023  0.2387 -0.0165
22108W        W22308  14.151   5.225   6.826  0.1076  0.4025 -0.1512
22109W        W22309   3.884   6.165   3.888  0.0434  0.1727 -0.2029
22110W        W22310  15.931   2.064   4.134  0.1753 -0.3215 -0.2058
22111W        W22311  10.775  13.980  10.390 -0.4931 -0.1558  0.2526
22112W        W22312   9.729   1.439  15.827 -0.0610  0.1228 -0.1097
22113W        W22313  11.874   0.597   4.271  0.1489 -0.0350  0.2333
22114W        W22314  16.997   5.422   6.812 -0.1582  0.1459 -0.1299
22115W        W22315   7.327   9.122  10.037  0.2566 -0.2531 -0.1570
22116W        W22316  12.586  17.938   9.656 -0.0663  0.0298 -0.0075
22117W        W22317   9.979   2.657   5.409 -0.3369  0.0505 -0.0956
22118W        W22318   5.325   5.783   0.588  0.3391 -0.1829 -0.1312
22119W        W22319  14.279   4.702   4.935  0.1044  0.0165  0.0629
22120W        W22320   8.841   2.972   5.960  0.1060 -0.1737  0.1194
22121W        W22321   8.929   3.360   2.338 -0.2560  0.0902 -0.0365
22122W        W22322  10.827  11.084   3.274 -0.1136  0.2242  0.2062
22123W        W22323   9.808  15.700   1.380 -0.3436 -0.0655 -0.1300
22124W        W22324   5.241   2.200   0.122  0.1316 -0.0188 -0.0364
22125W        W22325   7.780   8.983   8.346  0.0014 -0.2832 -0.0122
22126W        W22326   8.732  12.256   8.289  0.1562 -0.1008 -0.0976
22127W        W22327  15.155  17.312   3.214 -0.0685 -0.0904  0.1590
22128W        W22328  12.676   0.096   5.985 -0.0671  0.3889 -0.1509
22129W        W22329   4.754   4.364   2.175 -0.1734  0.1904  0.2003
22130W        W22330  10.505  11.292   1.038 -0.1529 -0.0794  0.0018
22131W        W22331  13.223   5.724   1.471 -0.4091  0.4449 -0.0460
22132W        W22332   3.375   5.644  17.932  0.0746 -0.2524  0.0111
22133W        W22333   5.467  12.535  17.558  0.2265  0.0547 -0.0499
22134W        W22334   6.073  15.148  13.439  0.0733 -0.1246 -0.4609
22135W        W22335  10.786   9.184  15.758  0.1313 -0.1052  0.2919
22136W        W22336   0.519   6.515  18.191 -0.0803 -0.3677  0.1715
22137W        W22337  11.606   7.416   2.145 -0.1003  0.0254 -0.0662
22138W        W22338   7.712   9.112   9.641  0.0678 -0.0479  0.0853
22139W        W22339   9.158   7.246  16.670 -0.1361 -0.2435  0.1155
22140W        W22340   2.582   3.531   4.932 -0.2319  0.0898 -0.0852
22141W        W22341  17.646   0.131  12.990 -0.2143  0.0451  0.3237
22142W        W22342  12.029  15.561   4.401 -0.0706  0.5149 -0.1029
22143W        W22343  13.821  16.792   0.990 -0.0822 -0.0011  0.0584
22144W        W22344   9.708   2.524  12.832  0.0762 -0.1458 -0.3400
22145W        W22345  13.157   5.197   1.464  0.3763  0.1952 -0.0273
22146W        W22346  10.519  16.894   5.754 -0.0504  0.1667  0.2140
22147W        W22347   7.345  16.268  14.099  0.0289 -0.0078 -0.1710
22148W        W22348   1.956   6.035  17.510 -0.0711 -0.0361  0.1264
22149W        W22349   5.558   3.950   5.194  0.4392  0.2144  0.0722
22150W        W22350  14.708   7.701  17.094  0.0983  0.0235 -0.0865
22151W        W22351  11.916   6.538   1.642  0.0899 -0.0434 -0.2984
22152W        W22352   2.778   5.990  11.426  0.1974 -0.1481 -0.0501
22153W        W22353   9.578  15.020  15.932  0.0231  0.0690 -0.1174
22154W        W22354   4.134  14.309   0.072  0.1369 -0.1032 -0.1786
22155W        W22355   8.402  16.913   5.637 -0.0390 -0.0902 -0.1178
22156W        W22356  10.054   7.230  11.208  0.2245 -0.3544 -0.1530
22157W        W22357  12.481   8.203   2.148  0.5006 -0.1187 -0.1255
22158W        W22358  12.015  10.589  16.127 -0.0213 -0.4787  0.1338
22159W        W22359   6.553   6.390  12.500  0.0662 -0.2518  0.2029
22160W        W22360   5.145   3.636  17.895  0.2251  0.0349  0.1017
22161W        W22361  14.368  10.857   1.374  0.0693 -0.0323  0.2675
22162W        W22362  12.241   6.304   1.298  0.3894  0.4273 -0.1882
22163W        W22363   3.799   6.483   1.870  0.0880 -0.2229  0.0575
22164W        W22364   2.034   0.139   3.167 -0.0410  0.0935 -0.0425
22165W        W22365  12.593  10.071   1.748 -0.3145 -0.0620 -0.2244
22166W        W22366   6.837  15.954  15.871  0.2564 -0.1511 -0.3256
22167W        W22367   2.870  17.244  17.093  0.1576  0.0961 -0.0745
22168W        W22368  10.180  16.922   0.628 -0.0957  0.1409 -0.0531
22169W        W22369  10.808   5.193   5.921  0.2551  0.0316  0.2566
22170W        W22370  10.107   8.827   2.306  0.0139  0.1316 -0.1251
22171W        W22371   9.954   7.313   4.364  0.1055  0.1678  0.1189
22172W        W22372   3.797   4.196   8.332 -0.3943  0.2469  0.0615
22173W        W22373  10.512  12.475   6.720 -0.1702  0.1267  0.1332
22174W        W22374  13.803   2.368  17.811 -0.0650  0.2208  0.3710
22175W        W22375   6.954   3.268   0.008 -0.1337 -0.1763 -0.2675
22176W        W22376   6.898   1.993   4.481  0.0191  0.1326  0.0690
22177W        W22377   7.674  11.552  14.194  0.0918  0.2150  0.0152
22178W        W22378   8.267  18.084  12.097 -0.1010 -0.0932  0.3705
22179W        W22379   7.380   7.749   5.800 -0.0861 -0.0012  0.2596
22180W        W22380   3.067   3.608   2.286 -0.2687 -0.1037 -0.2616
22181W        W22381   0.859  14.874   1.387 -0.0158  0.1861  0.1112
22182W        W22382   7.985   1.595  12.090 -0.2148  0.0161 -0.1817
22183W        W22383  12.289  15.956   4.399 -0.0726  0.3751 -0.1272
22184W        W22384   0.522  14.745  17.635  0.0172 -0.1926 -0.0763
22185W        W22385  12.958   1.212  13.222 -0.0190  0.2320 -0.3341
22186W        W22386   4.730   5.641  16.932 -0.1451  0.1026 -0.3389
22187W        W22387   4.243  14.131  17.570  0.0194  0.3288  0.3415
22188W        W22388   9.112  13.950   0.452  0.2505 -0.0646 -0.1459
22189W        W22389  18.009   4.522   5.704 -0.1603 -0.2467 -0.1254
22190W        W22390   0.838   4.011  16.116  0.2021  0.1428 -0.0424
22191W        W22391   4.703   4.719  17.217 -0.1945  0.1671 -0.0694
22192W        W22392  11.558   0.437  12.051 -0.1323 -0.3855 -0.3678
22193W        W22393   9.219   2.731   2.088  0.1056  0.0482  0.0238
22194W        W22394  15.843   9.157   2.311 -0.1489  0.0450 -0.3022
22195W        W22395  14.042  18.163  17.156 -0.3012  0.2517 -0.4407
22196W        W22396   4.593   9.297   0.433 -0.0401 -0.2386 -0.0686
22197W        W22397   8.615   8.364   7.259 -0.1412 -0.1406  0.3689
22198W        W22398  17.750   5.649   1.101 -0.2705 -0.1941 -0.0201
22199W        W22399   4.319   3.174  17.356 -0.0676  0.2267  0.1711
22200W        W22400  15.423   4.128   6.340  0.2174  0.0881  0.0420
22201W        W22401  14.326   6.393  15.761  0.0880 -0.3432 -0.0246
22202W        W22402   2.167   7.932   2.641  0.0563 -0.1215  0.0971
22203W        W22403   2.848   4.577   3.836 -0.0999  0.1381 -0.0792
22204W        W22404  12.512  12.799   3.573  0.2319  0.0293  0.0893
22205W        W22405   6.660  15.652   9.395 -0.0857  0.2709  0.0831
22206W        W22406   5.496  16.314  14.014 -0.0970 -0.3706  0.1756
22207W        W22407   5.726   4.497  17.256  0.1957 -0.1103  0.2155
22208W        W22408   5.341  15.829  17.710  0.1778  0.0582 -0.0831
22209W        W22409   4.510  16.897   1.802 -0.1234  0.3713  0.0959
22210W        W22410  11.617   7.125   9.186  0.2180  0.0512  0.1267
22211W        W22411   2.091   6.754   1.069  0.5812 -0.4939  0.1875
22212W        W22412   0.482   1.248  13.975  0.0134 -0.0570  0.3663
22213W        W22413  13.493  14.253   4.825  0.0400 -0.0162  0.0069
22214W        W22414   4.884   0.717   2.679 -0.0547  0.2033 -0.1981
22215W        W22415   8.616   3.332   0.009 -0.1080 -0.2062  0.0901
22216W        W22416   7.674   1.153   1.098  0.1142  0.2290  0.2805
22217W        W22417   9.558  17.581   0.574  0.0576  0.4199 -0.3290
22218W        W22418   6.049   7.937  15.434 -0.1776 -0.1398 -0.1412
22219W        W22419   4.455  11.870  17.536 -0.1801  0.0174  0.0194
22220W        W22420   9.366   4.580  15.399 -0.2231 -0.1195  0.0476
22221W        W22421   9.183   8.038  12.964  0.1061  0.0987 -0.2259
22222W        W22422  13.440   3.846  10.739  0.0631 -0.0273 -0.0055
22223W        W22423  14.686   9.117  16.641  0.2848  0.1566 -0.0675
22224W        W22424   5.630   3.815   7.910 -0.0090  0.0624  0.1690
22225W        W22425  11.709  10.545   1.429  0.2230 -0.3305  0.0501
22226W        W22426  14.720   7.240   2.848 -0.0496 -0.0315  0.0582
22227W        W22427   2.390   3.084  10.776 -0.2060 -0.1186  0.1068
22228W        W22428  14.556  12.513  10.169  0.0786  0.1880  0.0178
22229W        W22429  11.695   0.182   4.094 -0.2359 -0.1813 -0.0869
22230W        W22430  15.746   0.663   6.748  0.1396 -0.0324 -0.3276
22231W        W22431  15.049   0.998   6.516 -0.0714 -0.5029  0.0659
22232W        W22432  10.738   6.671  13.623  0.1519 -0.0975  0.1021
22233W        W22433   5.554  11.053   2.558  0.0689  0.1063  0.2153
22234W        W22434  10.980   7.492  14.784  0.1173 -0.0829 -0.2672
22235W        W22435   7.431   6.660   6.479  0.0508 -0.1590  0.1064
22236W        W22436   2.573   6.017   1.148  0.2145 -0.0085 -0.0718
22237W        W22437  11.159   2.937   0.840  0.2470 -0.2676  0.0053
22238W        W22438   5.809   6.514   5.797 -0.2383 -0.0187  0.0449
22239W        W22439   1.418   6.568   5.617 -0.2175  0.1185 -0.0824
22240W        W22440   6.340  14.045   5.466  0.1033  0.4226  0.0168
22241W        W22441  15.619   1.255   1.793 -0.0253  0.0214  0.1292
22242W        W22442  16.265   1.910   3.863 -0.2292 -0.2484 -0.1406
22243W        W22443  16.648  17.559   9.182  0.0482 -0.2276  0.0619
22244W        W22444   4.271   4.330   6.940 -0.0430  0.2167 -0.1283
22245W        W22445  11.125  17.727  13.631  0.0229 -0.3315 -0.0782
22246W        W22446   7.836   6.980   4.810 -0.3404 -0.0021 -0.2273
22247W        W22447  13.278  18.122   4.476  0.3074  0.1682  0.0191
22248W        W22448  12.463   3.095   1.171 -0.0839  0.0835 -0.1250
22249W        W22449   8.569   9.641  12.506  0.1672 -0.0181 -0.0606
22250W        W22450   8.250   3.551   2.832 -0.0328 -0.0625  0.1350
22251W        W22451   7.880   9.893   3.467  0.1248  0.1603 -0.1559
22252W        W22452   8.743   0.423  17.963 -0.4668 -0.0525  0.1654
22253W        W22453  13.114  17.797  13.428 -0.0373 -0.2044  0.2253
22254W        W22454   4.462   8.734   4.832  0.2234 -0.3085  0.1480
22255W        W22455   3.488  11.190  15.143  0.0948  0.2153  0.0672
22256W        W22456  11.441  10.326   0.580  0.1317 -0.0001 -0.0600
22257W        W22457  10.241   5.682   4.461 -0.2334  0.0571  0.1550
22258W        W22458  12.710  11.279  16.042  0.1061 -0.1551 -0.1500
22259W        W22459   9.925  10.659   6.799 -0.1652 -0.0793  0.2699
22260W        W22460  12.041   7.387  18.194  0.1377  0.0145  0.1233
22261W        W22461   5.737  14.350  10.549 -0.0360 -0.1656  0.2353
22262W        W22462  13.466   8.088   4.670  0.1110 -0.0092  0.3868
22263W        W22463   9.136   5.130   6.534  0.3542  0.0440 -0.2052
22264W        W22464  15.860   3.097  15.733 -0.4581 -0.1532  0.2015
22265W        W22465   9.682   1.146  13.958  0.3064 -0.0254 -0.2086
22266W        W22466  12.190   6.831  15.273 -0.1297  0.4154 -0.0068
22267W        W22467   7.911  15.892   4.126 -0.2113  0.3556 -0.0291
22268W        W22468  15.228  15.959   3.329  0.1485 -0.0152  0.1340
22269W        W22469   8.696   3.936   0.356 -0.0158  0.0368  0.1309
22270W        W22470   9.536   6.950   7.961  0.2918  0.4939 -0.0814
22271W        W22471  16.884   9.188  16.675 -0.1258  0.2040 -0.2014
22272W        W22472   2.381   5.412   2.857  0.1496 -0.0643  0.0705
22273W        W22473  17.032   5.887   4.249  0.2970  0.0925 -0.4109
22274W        W22474  11.436   5.663  13.147 -0.1424  0.3162  0.0492
22275W        W22475   5.324  10.752   0.511 -0.3122  0.1937  0.0346
22276W        W22476  13.428  10.835  14.988  0.0060  0.3588  0.1763
22277W        W22477  10.769   7.813   8.192  0.2260 -0.1622 -0.1712
22278W        W22478   8.141  13.520  15.482  0.1330 -0.2930 -0.2753
22279W        W22479   6.101   6.148   5.847 -0.0131  0.1425  0.0891
22280W        W22480  11.150   9.334   0.628  0.0411  0.2806 -0.0075
22281W        W22481   4.542   3.932   3.523  0.1743 -0.0182  0.2337
22282W        W22482  10.372  10.910   6.788  0.0537 -0.0934  0.0244
22283W        W22483  13.870   4.076   5.483  0.3242  0.0917 -0.0041
22284W        W22484  18.135   2.258   2.579  0.0860  0.0152 -0.1582
22285W        W22485  10.785   5.932   7.278 -0.0642  0.2586  0.0203
22286W        W22486  11.256   1.010  14.648 -0.1841 -0.0448 -0.0064
22287W        W22487  16.038   5.291   6.883  0.2770  0.0160 -0.3242
22288W        W22488   9.949   8.943   6.939  0.0827 -0.0956  0.1633
22289W        W22489   8.629  10.702   9.751 -0.0184 -0.1267  0.0049
22290W        W22490   8.404  17.840  15.635  0.0712  0.1658  0.1544
22291W        W22491   4.176   4.469   0.088 -0.0278 -0.1094 -0.0246
22292W        W22492  11.383   3.362  13.471 -0.0194  0.2789 -0.1284
22293W        W22493  11.519   2.136   3.396  0.3286  0.1715 -0.3676
22294W        W22494   9.590   3.812  14.697 -0.1231  0.1613 -0.0150
22295W        W22495  11.546  16.124   6.997  0.1432 -0.2036  0.3027
22296W        W22496   8.780   9.123   0.192 -0.2915  0.2458  0.0783
22297W        W22497  13.539  15.533  16.409  0.0463 -0.0843  0.1056
22298W        W22498  15.986   7.328   4.282 -0.2030 -0.0723  0.0029
22299W        W22499   3.239   4.998   2.813 -0.1032  0.1338  0.0160
22300W        W22500  13.950   7.808   8.707  0.0178 -0.2560 -0.0835
22301W        W22501   7.217  15.376   5.104 -0.1654 -0.0489  0.1693
22302W        W22502   4.110   4.797   2.572 -0.2236 -0.1793 -0.2097
22303W        W22503  17.759   7.150   0.111 -0.4229 -0.1758 -0.0779
22304W        W22504   8.430   7.145  15.174  0.1144 -0.2007  0.0856
22305W        W22505  12.694   6.553   3.039 -0.6432 -0.0669 -0.2501
22306W        W22506  16.019   9.330   7.187  0.1117 -0.0457  0.1228
22307W        W22507   9.055   9.792  15.001  0.0573  0.0795  0.1249
22308W        W22508   9.041   9.661  17.837 -0.0033  0.0560 -0.1606
22309W        W22509   9.961   3.273   3.507 -0.2129 -0.0570  0.2014
22310W        W22510  13.582  17.954   5.277 -0.2244  0.0246  0.0663
22311W        W22511  13.193   2.933   2.024  0.1251  0.2614 -0.1993
22312W        W22512  12.021  13.545  17.516 -0.0947  0.0936  0.4542
22313W        W22513   4.365   2.743   6.503  0.1130 -0.1699 -0.1583
22314W        W22514   6.576   9.868   4.138  0.2307 -0.2885 -0.2461
22315W        W22515   3.918  12.542  15.291 -0.0999 -0.0633  0.0764
22316W        W22516   7.111   8.460  16.505 -0.0576  0.5106  0.0349
22317W        W22517  17.599   2.368   1.680 -0.3955  0.2124 -0.1239
22318W        W22518   8.177  15.925   8.307 -0.0692  0.1271 -0.3708
22319W        W22519  10.893   6.910   3.165 -0.1284 -0.0150 -0.1090
22320W        W22520  14.641  18.168   4.623  0.2000 -0.0339  0.2117
22321W        W22521   9.031   0.963  10.401 -0.3043  0.1001  0.2842
22322W        W22522   9.870  11.986  15.860 -0.1130  0.2459  0.0548
22323W        W22523  14.475   0.513  17.542 -0.1638  0.0618  0.3809
22324W        W22524  13.900   3.485  14.558  0.1213  0.2220  0.0511
22325W        W22525   6.274   5.497  13.164  0.2615 -0.1651  0.2639
22326W        W22526  11.147   4.984  12.310  0.3634 -0.1954  0.0729
22327W        W22527  14.374  10.703   5.996  0.1469  0.0026  0.0689
22328W        W22528   5.438   2.876  16.624  0.1618  0.0949 -0.0585
22329W        W22529   8.757  17.352  14.425  0.0249  0.4946  0.0781
22330W        W22530  12.393   4.306   1.976 -0.1086 -0.2161  0.0047
22331W        W22531  10.170   3.514   5.337 -0.0948 -0.1566 -0.1853
22332W        W22532   5.137   4.266  16.217  0.1371 -0.0151  0.1014
22333W        W22533   9.494   5.701   5.948  0.1117  0.1198 -0.0880
22334W        W22534  14.185   8.355   1.451  0.1426  0.1997  0.2263
22335W        W22535  15.220   7.372  17.235 -0.0496 -0.1400 -0.2082
22336W        W22536  15.477   3.477   4.369 -0.3122  0.2221  0.0558
22337W        W22537  10.115   6.824   6.581 -0.0619 -0.2893  0.0713
22338W        W22538  10.619   4.618  16.652  0.1956 -0.0648  0.2321
22339W        W22539  10.039   2.968  16.076  0.0944 -0.0181  0.0136
22340W        W22540   5.050   8.951   6.353  0.0790 -0.0424  0.0133
22341W        W22541  10.014  17.689   5.768  0.0882 -0.0310  0.0673
22342W        W22542  17.851  13.191  15.931 -0.0108  0.1218  0.3849
22343W        W22543   3.386  14.049   1.299 -0.0777  0.1876  0.2442
22344W        W22544   3.702  17.676  16.182 -0.0776 -0.0211  0.1405
22345W        W22545  10.594   0.917  13.985  0.0247 -0.2286 -0.3624
22346W        W22546   8.986   9.274  17.499  0.2983 -0.1799  0.0983
22347W        W22547  13.145   5.879   0.854  0.2033  0.2254 -0.3875
22348W        W22548   9.918   5.264  16.810  0.2575  0.1139 -0.2079
22349W        W22549   2.055   1.267   1.144  0.0475 -0.1100  0.0937
22350W        W22550   7.224   2.761  17.974 -0.0067  0.0722  0.0292
22351W        W22551  13.445   1.690   9.016  0.1032 -0.2455 -0.0684
22352W        W22552   9.958  16.074  17.842 -0.0741 -0.3468 -0.3021
22353W        W22553   3.093  10.022  17.659  0.2043  0.1288 -0.2688
22354W        W22554   7.847   3.232   1.426 -0.2465 -0.2360  0.1028
22355W        W22555  12.167   3.151   3.997 -0.0739  0.0781 -0.2470
22356W        W22556   8.097   8.393   5.897 -0.0875  0.2267  0.2117
22357W        W22557   4.223  13.816  15.606 -0.3239  0.0074 -0.2802
22358W        W22558  11.749   3.522   5.467  0.6310  0.2017 -0.0129
22359W        W22559  11.055   0.242   8.362 -0.3106 -0.2131 -0.1909
22360W        W22560   1.172  11.959   1.073  0.1407  0.0916  0.1042
22361W        W22561   2.011  13.068  17.081  0.1761  0.0897  0.2282
22362W        W22562   2.816  12.438  17.957  0.1707  0.0417 -0.1618
22363W        W22563  14.840   5.013  17.220 -0.1504 -0.0108 -0.0995
22364W        W22564   2.196   6.064   0.716 -0.0511 -0.0496 -0.2065
22365W        W22565  11.399   8.029  11.750  0.4458  0.0284  0.2721
22366W        W22566   1.082   8.165   3.095 -0.3812  0.1421  0.3207
22367W        W22567   8.059  13.518   2.899  0.1425  0.0743 -0.0388
22368W        W22568   2.770   3.236  13.669 -0.1642  0.1428  0.0890
22369W        W22569  14.498   6.415   8.563  0.0172  0.0699  0.2228
22370W        W22570   8.411   8.569   3.052 -0.1673 -0.2539  0.2497
22371W        W22571   5.893   5.491   6.706 -0.2389 -0.4106 -0.1106
22372W        W22572   5.698   5.519   2.091  0.1980 -0.0376  0.0212
22373W        W22573  10.889  13.606   1.700 -0.1195  0.0311  0.0924
22374W        W22574  11.495   7.880  14.651 -0.0996  0.2838 -0.0134
22375W        W22575   6.150   3.506   0.493 -0.0198  0.0417  0.0449
22376W        W22576   3.563   6.549  12.133 -0.3435 -0.1326 -0.1285
22377W        W22577  14.359  14.634  17.431  0.2823 -0.0998  0.2901
22378W        W22578  13.941  11.819  14.267 -0.2323 -0.0293  0.3882
22379W        W22579   6.491   6.870  17.292  0.0367 -0.0109  0.3518
22380W        W22580   9.724  15.772   3.146  0.0143 -0.0777  0.1157
22381W        W22581  13.338   5.632   4.779  0.1249  0.0571  0.0181
22382W        W22582   4.920   5.471   0.553  0.0660 -0.1927 -0.0102
22383W        W22583   8.892   4.118   0.784  0.3066 -0.1304 -0.0315
22384W        W22584   6.027  16.334   2.236  0.2682  0.0285 -0.0152
22385W        W22585  12.512   5.146   9.907 -0.2517 -0.0387  0.0236
22386W        W22586  12.389  10.133   2.671 -0.0163 -0.2452  0.0943
22387W        W22587  17.367   6.726  12.646  0.0235  0.0152  0.2697
22388W        W22588  12.521   7.057   0.003 -0.0358  0.0524 -0.1494
22389W        W22589  12.110   1.183   8.378  0.1925  0.3358  0.0627
22390W        W22590   6.054   5.761   8.833 -0.1556 -0.1076  0.2114
22391W        W22591  12.875  17.516  16.292  0.0188  0.1487  0.0943
22392W        W22592  11.911   8.550   1.327 -0.0321  0.1430 -0.1784
22393W        W22593  11.009   1.398   0.351 -0.2693  0.1059 -0.0282
22394W        W22594   9.065   9.751   3.524  0.2880 -0.0773  0.0780
22395W        W22595   9.747  11.029   8.221  0.0778 -0.1094 -0.2313
22396W        W22596   8.013   8.035   1.478  0.1313 -0.0978 -0.2361
22397W        W22597   8.376   3.743  16.495 -0.1306 -0.1145 -0.0360
22398W        W22598   7.175   4.993   4.589 -0.3955  0.0596  0.4354
22399W        W22599  16.166   6.664   5.274 -0.0096 -0.1375  0.1037
22400W        W22600   4.261  13.692  14.878 -0.0453  0.0605  0.0641
22401W        W22601   7.526   7.397   7.205 -0.0796  0.2696 -0.0978
22402W        W22602  15.539   5.925   3.843  0.0733  0.1772 -0.1970
22403W        W22603  14.816   4.198   1.060 -0.0443  0.1558  0.0108
22404W        W22604   8.149   8.570   0.955  0.0349  0.0590 -0.1002
22405W        W22605   9.575   0.939  17.946 -0.0587 -0.0234 -0.2618
22406W        W22606   3.939   6.352   0.122  0.2437 -0.0490  0.2100
22407W        W22607   9.837   1.733  13.865  0.0756 -0.2819 -0.1464
22408W        W22608   8.188   2.982  13.899  0.4367  0.1198  0.2026
22409W        W22609   7.729  14.993   2.490  0.2076  0.0444  0.0845
22410W        W22610   9.965   7.310   4.852  0.1895 -0.0706 -0.0488
22411W        W22611   8.272  11.806   7.248 -0.3465  0.0025  0.1565
22412W        W22612   5.864  12.052   3.489 -0.3281  0.1098  0.1366
22413W        W22613  17.577   5.298   5.047 -0.1197  0.1187 -0.0138
22414W        W22614  11.991   2.214   3.552  0.1122 -0.2363 -0.0294
22415W        W22615   5.733  13.048   4.719  0.0532 -0.0608 -0.2804
22416W        W22616   4.431   5.664  10.105 -0.1612 -0.2576 -0.1494
22417W        W22617  16.984   6.179   6.196  0.0581  0.1972  0.0952
22418W        W22618   0.496   5.616   0.290  0.0416  0.0745 -0.1747
22419W        W22619   3.870  17.433   8.566  0.1074  0.0535 -0.6091
22420W        W22620   5.669   1.622  12.541 -0.0394 -0.5510 -0.0570
22421W        W22621  10.986  13.313   5.970  0.0852  0.1626  0.0148
22422W        W22622  11.734   7.025   5.031 -0.2822  0.1243  0.1473
22423W        W22623  10.411  18.001   5.170 -0.2983  0.0914 -0.1961
22424W        W22624   8.961   0.877   0.569 -0.2447 -0.3506 -0.1141
22425W        W22625   4.079  14.453  10.612 -0.0093 -0.1296  0.2462
22426W        W22626  10.349  13.433  13.674 -0.2009  0.1056 -0.0454
22427W        W22627   5.331   4.335   1.289  0.0486 -0.2650 -0.0623
22428W        W22628   7.992  13.617  14.233  0.0754 -0.1245  0.3700
22429W        W22629  10.991   7.767   2.332  0.1831 -0.0205 -0.0335
22430W        W22630   3.329  11.117   7.994  0.0634  0.1501 -0.0342
22431W        W22631   3.310   5.384   7.479  0.3736  0.1818 -0.3715
22432W        W22632  11.196  17.761  12.788 -0.0696 -0.0722 -0.0082
22433W        W22633   4.716   4.381   4.350  0.0170  0.1176 -0.0733
22434W        W22634   1.863   6.538   8.735 -0.0658  0.0781 -0.4151
22435W        W22635   8.578   3.329   0.972 -0.0589  0.1815 -0.0159
22436W        W22636   1.357   2.709   6.948  0.0141  0.0878  0.2316
22437W        W22637   7.836  10.979   7.342  0.1975 -0.2313 -0.0142
22438W        W22638   4.037  13.754   4.362  0.0689  0.0059 -0.0176
22439W        W22639  15.312  16.337  11.799  0.0177 -0.2235 -0.3201
22440W        W22640  14.423  12.659   2.967  0.2260 -0.0893  0.0756
22441W        W22641   4.591   4.951   8.958  0.1756 -0.0465  0.0608
22442W        W22642   8.671   1.917  15.070  0.0680  0.0653  0.3324
22443W        W22643  14.574   3.012   7.004 -0.0658 -0.1705  0.4054
22444W        W22644   9.307   4.033   7.106 -0.1359 -0.2330  0.4686
22445W        W22645  18.196   4.604   9.005  0.1731  0.0872  0.2245
22446W        W22646   6.874   6.743   4.519 -0.0813 -0.0070  0.0657
22447W        W22647  14.044   1.991   6.175 -0.1856 -0.5117  0.2416
22448W        W22648   7.409   5.394   7.932  0.0890  0.0217 -0.2442
22449W        W22649  12.354   7.133   6.690  0.1589 -0.0640  0.1661
22450W        W22650   6.577  12.630   0.996  0.3613 -0.2504  0.0974
22451W        W22651   7.981   8.263   8.639  0.2222 -0.1433 -0.0826
22452W        W22652  12.253  14.276  14.376 -0.0381  0.1445  0.0468
22453W        W22653  11.032   1.006  17.023 -0.1536  0.1224 -0.1269
22454W        W22654  11.083   2.069   7.708 -0.3072 -0.1157 -0.0053
22455W        W22655   4.983  10.297   9.718 -0.3001  0.1083 -0.0386
22456W        W22656   7.510   7.854  15.928 -0.2398  0.1711  0.0851
22457W        W22657   1.142   6.701  15.530 -0.1905  0.0570  0.0080
22458W        W22658  17.278   4.101  11.122 -0.1386  0.1239  0.0726
22459W        W22659  10.516   9.508   4.045  0.0185 -0.0352  0.1086
22460W        W22660  15.377   9.699   3.503 -0.1425 -0.0486  0.0707
22461W        W22661   4.968   7.074   1.137 -0.0916 -0.0050  0.0061
22462W        W22662  11.020   6.270   7.574  0.1605  0.0304 -0.2044
22463W        W22663   2.095   8.793  17.553  0.0850 -0.2046 -0.0855
22464W        W22664   5.906   8.202   6.341  0.0863 -0.1326 -0.1775
22465W        W22665   4.615   1.231   9.130  0.0893 -0.1616  0.2114
22466W        W22666  15.453   5.386   7.147 -0.0781  0.0102 -0.4078
22467W        W22667  14.053   2.669   6.749 -0.1203 -0.0154  0.0968
22468W        W22668   0.555   1.757   6.085  0.0152  0.1189  0.0892
22469W        W22669   9.836   3.991  13.913  0.1868  0.0406 -0.3905
22470W        W22670  14.572   3.998   6.024  0.0338  0.0868  0.4278
22471W        W22671  13.987   9.374  15.886  0.0522 -0.1019  0.0666
22472W        W22672   9.683   0.820  15.240 -0.2047 -0.3804  0.2503
22473W        W22673  14.691   4.052   9.391 -0.1688  0.1779 -0.4873
22474W        W22674   6.171   3.649  14.811 -0.2104  0.1211 -0.1791
22475W        W22675   3.296   2.543   0.785  0.0460  0.1078  0.0269
22476W        W22676  17.901  11.791   4.838 -0.0595 -0.2413 -0.0438
22477W        W22677   5.448   9.156   8.602  0.3309 -0.3119  0.1081
22478W        W22678   9.587   2.489   7.666  0.1040 -0.0228 -0.1249
22479W        W22679  10.411  11.625   7.673  0.1149 -0.1014  0.0893
22480W        W22680   3.241   7.093  13.057  0.0329 -0.0550  0.0353
22481W        W22681   6.344   9.173  12.093  0.3011  0.3975 -0.1966
22482W        W22682  14.343   9.248   7.263 -0.1289  0.2243 -0.2244
22483W        W22683  10.162   0.079   6.955 -0.0405  0.0420 -0.0492
22484W        W22684   2.966   4.567   2.701 -0.0473 -0.0991 -0.0159
22485W        W22685  15.057   4.990  13.793  0.0449 -0.0115 -0.2462
22486W        W22686   2.694   8.191  12.343  0.2797  0.1378  0.0908
22487W        W22687   2.655   5.844   4.905  0.0598 -0.2687 -0.3500
22488W        W22688   2.575   8.527   1.239 -0.1113  0.2453 -0.0511
22489W        W22689   1.226   7.424  10.838 -0.1242  0.1027 -0.1562
22490W        W22690   4.020  17.385   6.301 -0.3388  0.0724 -0.0306
22491W        W22691   3.139   6.387   6.537 -0.0482  0.1014 -0.0460
22492W        W22692  17.606   2.505   8.509  0.1602  0.0577 -0.0725
22493W        W22693   7.663   0.838   6.816  0.1006  0.1668 -0.2769
22494W        W22694  15.258   4.111   5.822  0.3912 -0.1087  0.0260
22495W        W22695   2.718   8.866   8.383 -0.0998  0.0881 -0.0975
22496W        W22696  17.825   7.575  13.224 -0.0538  0.1578  0.1760
22497W        W22697   7.490   3.147   9.550  0.0580 -0.0966  0.0188
22498W        W22698  10.611   6.198   8.933  0.0485 -0.2747  0.3097
22499W        W22699  14.080   4.979  13.991  0.3211 -0.3604  0.1809
22500W        W22700   5.580   8.837   1.572  0.0435  0.3729 -0.1608
22501W        W22701   7.756   5.534  16.782  0.0801 -0.0157  0.1464
22502W        W22702  12.623  13.077   4.387  0.0376  0.2647  0.0370
22503W        W22703   9.503   3.790   4.705  0.0159 -0.4020 -0.1973
22504W        W22704  11.314   5.979   8.482  0.2636  0.2005 -0.0742
22505W        W22705   9.584   3.767  15.237  0.2063  0.0567 -0.0410
22506W        W22706   9.591   3.246  17.671 -0.0281  0.0309  0.1871
22507W        W22707  13.907   1.204   3.985  0.0129 -0.2825 -0.1129
22508W        W22708   9.757   6.199   2.416 -0.1027 -0.0257  0.3078
22509W        W22709   3.660  14.316  10.438 -0.0717 -0.1623 -0.1964
22510W        W22710  13.715   8.241   1.744 -0.0180 -0.1452 -0.2833
22511W        W22711  12.637  14.537  13.356  0.0908 -0.1488 -0.2202
22512W        W22712   1.990   4.552   5.817 -0.0374 -0.1146 -0.2959
22513W        W22713  13.140   7.928   7.466 -0.3117 -0.1329 -0.1632
22514W        W22714  17.758  12.641  13.910 -0.1592 -0.0994  0.2002
22515W        W22715  13.831  17.558   5.509  0.0071  0.0674  0.2972
22516W        W22716   5.269   5.290   6.919 -0.2242  0.4146 -0.0831
22517W        W22717   3.244   2.209   9.179 -0.1307 -0.1012 -0.2160
22518W        W22718   9.932  10.418   8.057  0.0362 -0.0349 -0.2133
22519W        W22719   6.795   4.945  16.109 -0.0022 -0.1458  0.2526
22520W        W22720  10.746   2.258   4.417  0.0813 -0.2689  0.0397
22521W        W22721   0.785   8.982   0.082  0.1146  0.1487 -0.0089
22522W        W22722  10.424   5.321  15.525 -0.0791 -0.0466 -0.0967
22523W        W22723  14.226  10.811   4.695  0.2403 -0.1329 -0.1711
22524W        W22724  15.977  13.442   3.074 -0.0895  0.1144 -0.0964
22525W        W22725   2.041   6.835   9.742 -0.0828  0.0732  0.1220
22526W        W22726   2.879   6.363  14.503  0.0037  0.1650 -0.2484
22527W        W22727  17.544  16.468   1.186  0.0421  0.0984 -0.0875
22528W        W22728  13.466  14.910   8.969 -0.0040 -0.1040 -0.1545
22529W        W22729   8.464  11.111  11.634 -0.0992 -0.2849 -0.1674
22530W        W22730   5.600   3.837   3.282 -0.1264 -0.1641 -0.1409
22531W        W22731  15.872  17.827  10.759 -0.1905 -0.0342  0.1530
22532W        W22732   4.816  11.727   5.298 -0.2797  0.4483 -0.0527
22533W        W22733  11.806   7.862   9.351  0.0830  0.2042 -0.0127
22534W        W22734   3.846  12.416   2.423 -0.1264 -0.0659  0.2390
22535W        W22735  15.598  10.002   4.118  0.2340 -0.4226  0.5286
22536W        W22736  13.345  14.577   7.932  0.1612 -0.1193 -0.1572
22537W        W22737   6.313   6.535   0.906  0.0859 -0.0495  0.0771
22538W        W22738   2.029   7.179   3.208 -0.0840 -0.3803 -0.0878
22539W        W22739  14.374   8.004  17.551 -0.0010  0.0830  0.3436
22540W        W22740   2.770  10.589   9.370  0.1191  0.2497 -0.0434
22541W        W22741   8.132   5.426  14.727  0.0315 -0.0114  0.0342
22542W        W22742   1.839   3.322  13.092  0.3705  0.0421 -0.0275
22543W        W22743   8.469  13.217   5.527  0.2950  0.1115 -0.3304
22544W        W22744  16.122   9.548   4.670  0.1442  0.1794  0.0346
22545W        W22745   9.866   7.834   8.927 -0.3147  0.0357 -0.0553
22546W        W22746  12.407   7.423   5.297 -0.0923 -0.1620 -0.3478
22547W        W22747  15.567   9.580   3.066  0.0492 -0.2706  0.0621
22548W        W22748   4.824   4.318   1.309 -0.1443 -0.1831  0.0424
22549W        W22749   8.755   4.315   3.172 -0.1314  0.1140 -0.1419
22550W        W22750   5.000   1.373   6.142  0.1046 -0.1645 -0.0262
22551W        W22751   2.359   6.100  17.834 -0.0673 -0.0355  0.1967
22552W        W22752   2.199   7.660   5.465 -0.3124 -0.0589  0.1803
22553W        W22753   8.194   6.151   5.425  0.0701  0.2836 -0.1411
22554W        W22754   4.017   6.271  12.176  0.0424 -0.2659 -0.2055
22555W        W22755   8.476   8.571   9.968 -0.2140  0.1462  0.2620
22556W        W22756   6.502   3.064   6.435  0.0817  0.0582 -0.1018
22557W        W22757  12.562   4.127   3.907 -0.0666  0.2279 -0.1085
22558W        W22758  10.734   4.718   0.660  0.2209 -0.0075 -0.0038
22559W        W22759   8.380   1.151  13.835 -0.2917  0.0516 -0.2453
22560W        W22760   7.248   7.241   8.520 -0.0750 -0.1210  0.2568
22561W        W22761   3.032  14.302   4.050 -0.0266  0.1950  0.4102
22562W        W22762  15.268   1.405   8.966  0.0162  0.1299  0.1864
22563W        W22763   7.285   8.143   8.196 -0.1853 -0.4302  0.1563
22564W        W22764  16.091  11.339   1.182 -0.1414  0.1349 -0.0686
22565W        W22765   4.907  10.975   0.384 -0.3344 -0.2312  0.1068
22566W        W22766   7.940  12.383  12.115  0.1907 -0.1503  0.0627
22567W        W22767   6.975  18.102  15.642  0.1642  0.1560 -0.1694
22568W        W22768  15.129   8.076   7.919  0.0886  0.3850 -0.0948
22569W        W22769   8.726   9.330   8.084  0.1116  0.0370  0.0162
22570W        W22770   5.446   0.916   9.711 -0.0521  0.2368  0.0129
22571W        W22771  12.379   4.220   2.995 -0.1305 -0.2573 -0.0900
22572W        W22772   4.531   5.149  17.676 -0.0276  0.1692  0.0257
22573W        W22773   6.103   4.378   6.622 -0.0604 -0.0363 -0.3538
22574W        W22774   7.467   9.567   7.983  0.0008 -0.1191  0.2613
22575W        W22775   5.453   8.348   1.657 -0.2412 -0.0101 -0.0678
22576W        W22776   6.044  16.113   9.636  0.0751  0.0527  0.2709
22577W        W22777   5.902  12.860   1.734  0.0329  0.1868  0.3007
22578W        W22778  13.414   9.558  15.103 -0.1159  0.0137  0.0676
22579W        W22779   5.816   5.134  13.918  0.0493  0.0389  0.1230
22580W        W22780   8.914   9.958  10.478  0.0550  0.1571 -0.1521
22581W        W22781   2.028  16.199   7.302 -0.3311 -0.0168  0.2273
22582W        W22782   2.351   7.890   1.418 -0.0219 -0.0239  0.0628
22583W        W22783   8.485   5.801  15.008 -0.0253  0.2140  0.2432
22584W        W22784   9.102   7.023   1.625  0.1811 -0.2565 -0.2893
22585W        W22785  10.969   6.379   1.576 -0.2097 -0.1077  0.1231
22586W        W22786   1.465  13.511   4.446 -0.1411 -0.0067  0.1754
22587W        W22787   7.067  17.224   1.656 -0.0368  0.2766  0.3068
22588W        W22788   6.147  12.104   2.460  0.0623 -0.1473 -0.0287
22589W        W22789  12.682   9.764   5.958 -0.1953 -0.0135  0.0187
22590W        W22790   2.349   4.389  17.331  0.0018 -0.1351 -0.1019
22591W        W22791   9.269   9.686   7.322  0.2226  0.1323  0.0664
22592W        W22792   0.524  15.590   3.851 -0.1024  0.0904 -0.2096
22593W        W22793  12.560   7.227  12.083  0.0259 -0.0936  0.1800
22594W        W22794  13.133   8.305   1.762 -0.2290  0.2358  0.0815
22595W        W22795   9.620   7.936  13.224 -0.1474 -0.1121  0.0537
22596W        W22796   5.039   5.122  17.421 -0.1751  0.0571  0.0711
22597W        W22797  15.653  15.872   5.145  0.0668  0.0280 -0.0187
22598W        W22798   5.061  11.778   1.492 -0.0340 -0.2476  0.0884
22599W        W22799  17.022   3.989   3.440 -0.2743  0.0187 -0.0496
22600W        W22800   9.973   9.096   8.964 -0.0038 -0.1315 -0.0277
22601W        W22801  16.788   7.233   2.354  0.0475  0.3939 -0.1997
22602W        W22802   9.537  13.652   8.978  0.1780 -0.2763 -0.1849
22603W        W22803   8.801   3.373   9.316  0.1988 -0.0701  0.0816
22604W        W22804   6.535  10.279   7.069  0.0479 -0.5149 -0.3613
22605W        W22805  12.849   4.673   2.617 -0.2548 -0.0991  0.2502
22606W        W22806   5.890   4.478   1.967 -0.0986  0.1205  0.0847
22607W        W22807  15.163  16.631   2.464  0.2015  0.0910 -0.0613
22608W        W22808   6.928   0.068   8.351  0.3950 -0.1240  0.2020
22609W        W22809  12.697   0.447   8.538 -0.2081 -0.2012  0.1277
22610W        W22810  18.094  10.631   4.167 -0.0343 -0.0654 -0.1298
22611W        W22811  14.233  15.777   1.798 -0.0511  0.0003 -0.0345
22612W        W22812  15.770  14.383   3.896  0.0575 -0.1449  0.0747
22613W        W22813  10.758   6.784  12.521 -0.0516  0.0217 -0.0887
22614W        W22814   3.276   7.227   2.183  0.0922 -0.1107 -0.0456
22615W        W22815   3.455   3.962   8.087 -0.1301  0.0085 -0.0703
22616W        W22816   7.503   5.796   1.897  0.1689 -0.2041 -0.0784
22617W        W22817   9.278  16.482   3.701  0.1014 -0.0468  0.1319
22618W        W22818  16.842   2.574  14.014  0.2071  0.0947 -0.1780
22619W        W22819   6.512   3.185  17.683  0.1117  0.1179 -0.2111
22620W        W22820  15.745  12.367   8.891  0.1666  0.0225 -0.0503
22621W        W22821  10.387  15.251   2.671  0.1078 -0.6365  0.2074
22622W        W22822   9.766  10.980   3.977 -0.2132 -0.0692 -0.2686
22623W        W22823  11.040  13.868   2.878 -0.3610 -0.0514 -0.1444
22624W        W22824   4.988   6.632   6.648  0.4074 -0.0590  0.0465
22625W        W22825  11.218   5.455   9.550 -0.3295 -0.0518  0.1947
22626W        W22826   6.983   3.144   6.453  0.0896  0.2206  0.0617
22627W        W22827   8.608   1.855   4.289  0.0325  0.2229 -0.0120
22628W        W22828  15.835   7.847   7.479  0.0209  0.1500  0.2091
22629W        W22829  10.022  10.669   3.308  0.2625 -0.1049 -0.1120
22630W        W22830   5.991   3.888   5.556  0.4216 -0.0420  0.1432
22631W        W22831  12.847   6.870  13.665 -0.4001  0.2177  0.0258
22632W        W22832   7.792   8.614   5.100  0.0463 -0.2018 -0.0179
22633W        W22833   9.215  13.455   3.731 -0.2293 -0.3153  0.2118
22634W        W22834  11.463  10.700   9.824 -0.3180  0.1722  0.2665
22635W        W22835  12.816   4.536   4.094  0.1240  0.0102 -0.1046
22636W        W22836  11.673  10.279   5.728  0.0052  0.1193  0.2582
22637W        W22837  15.850  16.543   1.299 -0.0958 -0.3312 -0.1430
22638W        W22838   6.997   6.754   9.294  0.2320 -0.2779 -0.0615
22639W        W22839  15.217  14.744  13.198  0.0159  0.2488 -0.2186
22640W        W22840   9.025   9.888   9.972 -0.0044  0.0929 -0.0896
22641W        W22841   8.697   0.529  14.985 -0.0351 -0.1662  0.0726
22642W        W22842  17.076   8.234   0.699  0.0858  0.1585  0.1016
22643W        W22843  11.643   8.057   7.234  0.0191 -0.1248 -0.0466
22644W        W22844   8.622   4.994  15.598 -0.2307 -0.2998 -0.1118
22645W        W22845   1.276   0.967   8.430 -0.1896  0.2164  0.1238
22646W        W22846   6.527   6.862   7.423 -0.0078 -0.3082 -0.1960
22647W        W22847   9.786   0.559   2.274 -0.1457  0.0163 -0.1198
22648W        W22848   1.236   8.450  17.732 -0.0992 -0.1566 -0.1241
22649W        W22849  12.081   0.748   0.353 -0.1701 -0.1379 -0.2745
22650W        W22850   0.059   0.752  11.799  0.2566  0.0376 -0.0398
22651W        W22851   6.451   1.384   4.006 -0.1123 -0.1155 -0.0440
22652W        W22852  12.402   1.111   0.405  0.0141 -0.2817  0.0615
22653W        W22853   5.518   4.219   7.423 -0.1598 -0.0999  0.1316
22654W        W22854   0.897  12.447  12.333 -0.0680 -0.1564 -0.0447
22655W        W22855  10.286  17.081   6.128  0.0803 -0.3636  0.4188
22656W        W22856   9.153   2.581   6.930 -0.0048  0.0505  0.0226
22657W        W22857  17.047  17.178  15.960  0.0403 -0.1802  0.1467
22658W        W22858  17.644  17.275   3.154  0.2321 -0.0115  0.0276
22659W        W22859   7.379  10.428   2.375  0.2741  0.0221 -0.2725
22660W        W22860   4.994   8.011  11.351 -0.1218  0.0154 -0.0180
22661W        W22861   9.388   9.490   6.413 -0.1042  0.1844 -0.1402
22662W        W22862   6.246   8.682   4.576 -0.1610 -0.0575  0.0171
22663W        W22863   8.405  16.717   6.131  0.0038  0.0895  0.2225
22664W        W22864   3.837   6.982  15.774 -0.2874 -0.2659  0.1888
22665W        W22865  15.785   4.710  11.122  0.0165 -0.1251 -0.1104
22666W        W22866  10.033  10.810   9.734  0.1635 -0.2610 -0.1747
22667W        W22867  12.779   7.962   1.723  0.1812  0.0979 -0.1831
22668W        W22868   4.373   8.374  11.550  0.0277 -0.0307 -0.4469
22669W        W22869  17.178   8.882   2.407  0.0154 -0.1679 -0.0557
22670W        W22870   3.400   9.118   5.590  0.1869  0.0210 -0.3536
22671W        W22871   8.439   3.495   8.038 -0.2250  0.0267  0.0456
22672W        W22872  11.627   2.421   5.253  0.1475  0.1333 -0.0809
22673W        W22873   6.527  11.578   9.617  0.1628  0.0518  0.2123
22674W        W22874  13.206   1.903  12.667  0.0498 -0.3896  0.0432
22675W        W22875   6.407   7.275  12.437 -0.1170 -0.1606  0.2145
22676W        W22876   7.189  17.978  16.917 -0.0309 -0.0003 -0.1287
22677W        W22877   9.519   4.142   5.201 -0.2793  0.2577 -0.0939
22678W        W22878   9.013   9.476   7.740 -0.3231  0.2181 -0.2322
22679W        W22879  11.217   9.190   6.917  0.1407  0.0089  0.1677
22680W        W22880   8.155   0.520   6.712  0.0361  0.0624 -0.2403
22681W        W22881   7.104   7.614  13.021 -0.1162 -0.1974 -0.3860
22682W        W22882  13.648   7.508   8.376 -0.0015  0.1656  0.2781
22683W        W22883   4.723   6.071   7.398  0.0796 -0.1387 -0.0715
22684W        W22884   6.782  15.723   1.833  0.1008  0.0410  0.3030
22685W        W22885  16.696   6.466   3.046 -0.0831  0.2515  0.0944
22686W        W22886   4.231   8.036   0.715  0.0249  0.1331  0.3541
22687W        W22887   6.466   5.570  14.940 -0.2342  0.3379  0.4585
22688W        W22888  11.343   2.525   7.706 -0.0758  0.1995  0.3414
22689W        W22889   5.353  12.454  15.957  0.0555 -0.0541 -0.0924
22690W        W22890   7.654   4.377   0.878 -0.1458  0.0165 -0.1755
22691W        W22891   6.887  10.203  11.540 -0.2268 -0.5034 -0.0311
22692W        W22892  15.783   2.264   9.235  0.2643  0.1765  0.4135
22693W        W22893  18.087   9.270   4.347  0.0819  0.2774  0.1521
22694W        W22894  11.082   9.574   7.688 -0.0767  0.1722 -0.0481
22695W        W22895  14.055   4.293   6.529 -0.1434  0.2083  0.1237
22696W        W22896   8.941  16.820   3.007 -0.0863 -0.0599  0.0875
22697W        W22897   2.432   7.520   2.405  0.1604  0.0115  0.1217
22698W        W22898   6.489   9.449   3.631  0.0606 -0.1016  0.0639
22699W        W22899   6.102  11.008   4.949  0.0460 -0.1859 -0.0160
22700W        W22900   8.629   5.121  11.935  0.0723  0.0322 -0.0718
22701W        W22901  17.844  11.420   9.762 -0.0640  0.2045 -0.1990
22702W        W22902   2.536   9.284   5.088  0.1065  0.0299  0.1417
22703W        W22903  13.449   4.637   2.247 -0.0062  0.0810  0.3898
22704W        W22904  13.678   0.672   6.989 -0.0318 -0.0351  0.0761
22705W        W22905  11.877   5.464  11.349 -0.0579 -0.1623  0.3785
22706W        W22906   9.428   7.811   3.981 -0.3327  0.0969 -0.0468
22707W        W22907   3.578  10.142   9.991  0.1813 -0.2734  0.1298
22708W        W22908  13.018   5.264   5.262 -0.0197 -0.5039  0.1317
22709W        W22909   2.052  17.750   0.289 -0.1241  0.0621  0.2859
22710W        W22910   7.822  10.485  12.220  0.0076  0.4122  0.1417
22711W        W22911  11.516   3.866   7.350 -0.4278 -0.0622 -0.0044
22712W        W22912  11.372   8.667  17.525  0.0742 -0.2223  0.1644
22713W        W22913  16.118   7.136   5.303 -0.1072  0.1927  0.0674
22714W        W22914  13.348   7.322  17.834 -0.2569  0.1898 -0.3575
22715W        W22915   9.804   0.655   5.459 -0.3184 -0.0464 -0.1819
22716W        W22916  16.506   5.781   9.395 -0.1190 -0.4027  0.3473
22717W        W22917  15.319   3.487   5.852  0.0411 -0.1939 -0.1853
22718W        W22918  12.923  17.154  10.234  0.1412 -0.0862 -0.3558
22719W        W22919  11.074   4.396   5.589 -0.4431  0.1467 -0.0478
22720W        W22920  15.457  12.471  12.265  0.4251  0.2688 -0.0069
22721W        W22921   6.229  14.211   7.328  0.2171  0.0903  0.1588
22722W        W22922   6.011   2.564  13.514 -0.2592 -0.1268 -0.1286
22723W        W22923   7.279   4.460   6.515  0.0610 -0.0343  0.1910
22724W        W22924   8.853   8.966   9.774 -0.1127  0.0441 -0.3535
22725W        W22925   8.269   8.196  13.356 -0.1676  0.1936  0.0438
22726W        W22926  16.572   9.502   6.365 -0.1057 -0.0578 -0.1102
22727W        W22927   7.987  16.675   1.920 -0.1444  0.2221 -0.0671
22728W        W22928   7.560   2.625   9.476  0.2942  0.1066 -0.1381
22729W        W22929  11.472   4.402  17.603  0.2719 -0.3223  0.3669
22730W        W22930  10.509   7.014  11.335 -0.0635  0.1556  0.0419
22731W        W22931   8.735   3.573   4.868 -0.1524 -0.0271  0.0272
22732W        W22932   7.932   7.609   2.102  0.0706 -0.2495 -0.1696
22733W        W22933   9.327   2.234   3.768  0.0183 -0.2305 -0.0396
22734W        W22934  17.600   5.178  13.035 -0.0084  0.1543  0.1774
22735W        W22935  11.174   7.014  16.699 -0.1826  0.3679  0.0337
22736W        W22936   9.929   8.610  16.869  0.0508  0.1615 -0.3093
22737W        W22937   7.724   2.418  11.939  0.1429 -0.4304  0.1355
22738W        W22938  10.267   4.301  10.992  0.0595 -0.2833 -0.0108
22739W        W22939  11.259   3.084   1.868  0.3115 -0.1005  0.1277
22740W        W22940  15.114  14.563   8.074  0.1428 -0.1498  0.2209
22741W        W22941  11.399   2.524  11.015 -0.1807  0.1254  0.0132
22742W        W22942   7.276   4.362   8.879 -0.0438 -0.2692 -0.0834
22743W        W22943   9.631   3.167   1.366 -0.0979 -0.2890 -0.0016
22744W        W22944   7.715   6.457   1.672  0.1341  0.1639 -0.0342
22745W        W22945   2.350   5.641   5.284  0.1233  0.0917 -0.2583
22746W        W22946  14.562   2.254   6.713  0.0364  0.2755  0.1316
22747W        W22947  12.689   6.129   0.011 -0.2782 -0.4436  0.0967
22748W        W22948   8.709   6.527  17.242  0.2434 -0.2134  0.2895
22749W        W22949  13.429   4.598   5.394  0.2170 -0.0017 -0.0750
22750W        W22950  13.485   6.900   6.491  0.3846 -0.0136 -0.0729
22751W        W22951   9.202  12.547   1.283  0.0574  0.1539 -0.0756
22752W        W22952   2.043   8.875  12.629 -0.2493 -0.1467 -0.2760
22753W        W22953  11.524   4.357  16.347 -0.0968 -0.0473  0.1534
22754W        W22954   6.697   6.982   8.368 -0.1942 -0.3276 -0.0576
22755W        W22955   4.173   6.918   3.880  0.1801  0.0510  0.0183
22756W        W22956   3.861  17.564   0.873  0.2659 -0.1527  0.3241
22757W        W22957   4.793   7.990   7.321 -0.0240  0.2153 -0.0136
22758W        W22958  13.860  15.805   3.635  0.0909 -0.0138 -0.1037
22759W        W22959  14.207   8.054   6.456  0.1930  0.3226  0.3832
22760W        W22960   9.201  17.734  17.296  0.3311  0.3057  0.0185
22761W        W22961   7.623   8.940   8.876  0.2048  0.0155 -0.0838
22762W        W22962  12.438  17.510   5.256  0.0910 -0.0990  0.2673
22763W        W22963   7.437  17.987   8.162  0.0214  0.0809  0.0170
22764W        W22964   8.179   8.269   4.948  0.0333 -0.2213 -0.4947
22765W        W22965   2.595   9.336   4.598 -0.2299  0.0388  0.0276
22766W        W22966  12.042   3.198  12.071  0.0353  0.0254 -0.0271
22767W        W22967   7.214   0.784   3.873  0.3370  0.0175 -0.0341
22768W        W22968   1.439   8.216   5.071 -0.1294 -0.3391  0.1665
22769W        W22969   8.390   5.508   1.756  0.0250 -0.1593  0.4275
22770W        W22970  10.789   9.103   5.335  0.3509 -0.0090  0.1937
22771W        W22971   8.389  11.650   8.358  0.1990 -0.1373 -0.1597
22772W        W22972  10.404  12.944   8.588  0.2490  0.0098 -0.0579
22773W        W22973  16.023   3.467  11.063  0.0286 -0.0445 -0.3631
22774W        W22974  14.417   5.889   4.616  0.1444  0.1664  0.1457
22775W        W22975  13.587  12.040   0.501 -0.2856 -0.2532 -0.1941
22776W        W22976   7.504  15.451   2.552 -0.1608 -0.1577  0.3892
22777W        W22977  13.638   5.457   1.530 -0.1135 -0.3366  0.0178
22778W        W22978  14.499   3.383  10.417  0.0105 -0.2645 -0.1550
22779W        W22979   9.043   1.539   7.942 -0.2866  0.1853 -0.1212
22780W        W22980  12.306   5.909   0.330  0.0176  0.1560 -0.2521
22781W        W22981   3.345   4.439   8.527  0.2133  0.1347  0.1803
22782W        W22982   3.414   5.315   3.659 -0.0713  0.2711 -0.0650
22783W        W22983  11.850   9.871   2.182 -0.0597 -0.0947  0.0642
22784W        W22984  12.246   3.556   8.585  0.0358 -0.1388  0.2895
22785W        W22985  15.065   0.701  17.622 -0.1185  0.2481 -0.3704
22786W        W22986   3.791   2.589   8.883 -0.0485  0.1772 -0.1576
22787W        W22987   8.903   5.347   9.594 -0.1687 -0.4154 -0.2700
22788W        W22988   2.969   3.886   7.211  0.0671 -0.0765 -0.0292
22789W        W22989   5.895   3.397  17.248  0.0726  0.0251  0.3797
22790W        W22990   7.248  11.985   5.682 -0.0849 -0.1829  0.1488
22791W        W22991  12.525   0.508   3.754  0.1625 -0.0395 -0.1615
22792W        W22992   5.060   9.574  16.120 -0.1255  0.1143  0.1224
22793W        W22993  10.072   4.544  17.294 -0.1447  0.2821 -0.2395
22794W        W22994  13.461  14.309  11.051 -0.0207  0.0309 -0.2691
22795W        W22995   9.943   1.660   5.563 -0.0276 -0.0266  0.1803
22796W        W22996   5.849   9.083   9.458 -0.0031  0.1614  0.1072
22797W        W22997  12.594   8.348   0.804 -0.1019 -0.1903  0.0082
22798W        W22998  12.904  12.121   6.407 -0.0295  0.1711  0.1475
22799W        W22999  14.804   7.818   1.627  0.0067 -0.1202 -0.0251
22800W        W23000  11.141   0.662   0.923 -0.2480  0.1507  0.1324
22801W        W23001  10.655   7.553  10.434  0.1389 -0.1545  0.1282
22802W        W23002  14.401   5.347   6.006  0.0395  0.1703  0.0692
22803W        W23003   9.191  13.072   8.260 -0.2754 -0.0923  0.1550
22804W        W23004  11.992   6.208   2.571 -0.3631  0.1791 -0.1624
22805W        W23005  10.364   6.178   0.781 -0.1644  0.0353 -0.1175
22806W        W23006   6.193   1.543   7.636 -0.0392  0.1038  0.0913
22807W        W23007  11.528   5.332   7.264  0.0072 -0.0850  0.1437
22808W        W23008   8.390   2.833  12.993 -0.0438 -0.1659 -0.1638
22809W        W23009   8.715   9.397  13.339  0.0250 -0.3348  0.3404
22810W        W23010   9.965   4.419  12.885 -0.1082  0.3234 -0.4508
22811W        W23011   5.093  13.263   1.285 -0.0131  0.5554  0.2862
22812W        W23012   2.446   1.497   5.530 -0.0865 -0.1298  0.1051
22813W        W23013   0.586  17.961   4.218  0.1244 -0.1308  0.1431
22814W        W23014  14.073   8.207  11.845 -0.0431  0.0848 -0.1083
22815W        W23015   4.624   2.944   7.115  0.0760 -0.2415 -0.3509
22816W        W23016  14.441   5.881   8.819 -0.2862  0.0643 -0.3686
22817W        W23017  12.988   4.969   6.864  0.0832  0.0165 -0.0415
22818W        W23018  14.436   0.238  14.676 -0.0169  0.2049 -0.2439
22819W        W23019   9.725   3.027  11.367  0.2090 -0.1937  0.0616
22820W        W23020   8.529   9.759  10.722 -0.3436  0.1011 -0.1061
22821W        W23021   7.433  17.572  17.448  0.0111  0.2675 -0.1096
22822W        W23022  10.052   8.562   0.108  0.1284  0.1616 -0.1879
22823W        W23023   6.644   4.834   4.117 -0.5247  0.2006  0.2508
22824W        W23024   8.045   6.150  11.297 -0.0424 -0.3545  0.2130
22825W        W23025   9.509  16.525  12.595  0.1254  0.2656 -0.0079
22826W        W23026   1.904   6.820   9.221 -0.0515  0.1498  0.1405
22827W        W23027   8.415   0.769  12.222  0.1816  0.2795  0.0680
22828W        W23028  13.634   6.286   6.605 -0.4787 -0.1119  0.0157
22829W        W23029   6.659   9.893   3.577 -0.3221  0.2125 -0.0564
22830W        W23030   8.909  15.977   7.916 -0.0556  0.0625  0.1900
22831W        W23031   4.090   8.739  11.189  0.2122  0.0815 -0.0600
22832W        W23032   8.650   4.041  15.110 -0.1380  0.1914 -0.1314
22833W        W23033   6.876   5.615  11.307 -0.0888  0.1475  0.0925
22834W        W23034  12.377   6.762  11.230  0.0937 -0.1096 -0.0969
22835W        W23035  15.814   0.225   9.945  0.2620  0.2620 -0.2776
22836W        W23036   7.149   1.969   1.785  0.0722 -0.2482  0.1135
22837W        W23037  13.685   4.896   1.464 -0.0728  0.0965 -0.1155
22838W        W23038   7.364  10.741   7.966 -0.1547 -0.2460  0.0797
22839W        W23039   7.132  14.332  11.341 -0.2031 -0.0843  0.0272
22840W        W23040  10.021   4.572  12.395  0.0083 -0.1225  0.1060
22841W        W23041   5.035   5.322   9.049  0.1315 -0.1989  0.0904
22842W        W23042   4.337   3.620  15.059  0.2051 -0.2717 -0.0274
22843W        W23043  13.548  12.687  15.042 -0.4674 -0.1353  0.1105
22844W        W23044  16.975  18.043   3.678  0.5941  0.1435  0.1716
22845W        W23045   6.263   4.856   9.135  0.0192 -0.0640  0.0214
22846W        W23046  15.330   5.223   6.448 -0.1005  0.0842 -0.0621
22847W        W23047  11.686  18.038  11.992  0.2080 -0.0445 -0.1974
22848W        W23048   4.146   3.581   4.994 -0.2074 -0.0223  0.0053
22849W        W23049  15.790   8.378  15.351  0.0984 -0.0605 -0.4232
22850W        W23050  13.034   7.202   4.679 -0.0003 -0.1666 -0.0589
22851W        W23051   4.445   7.807   7.629 -0.1193 -0.0863  0.0812
22852W        W23052  11.960   5.950  11.699 -0.0467 -0.0629 -0.1657
22853W        W23053   9.287   0.494   7.368  0.1117 -0.2921 -0.0946
22854W        W23054   0.738   6.886   2.974  0.1285  0.1347  0.0263
22855W        W23055  14.236  13.836   5.686  0.0115  0.0396 -0.4663
22856W        W23056   1.255   4.628   4.940  0.0263 -0.1242 -0.0025
22857W        W23057  14.005   9.681   5.609  0.0705 -0.0570  0.0414
22858W        W23058   6.886   9.423   4.330 -0.0056  0.0584 -0.0617
22859W        W23059  11.477   3.869   5.786  0.0643  0.1099  0.1994
22860W        W23060   8.142   4.217  10.709 -0.1818 -0.1496  0.0894
22861W        W23061  14.848   8.744   8.784 -0.0148  0.0303 -0.1907
22862W        W23062  11.563   7.334  16.736  0.0242 -0.1988 -0.1253
22863W        W23063   5.514  10.710  14.527 -0.0138 -0.0251 -0.1967
22864W        W23064   5.470   9.144  17.904 -0.1557  0.0457  0.3347
22865W        W23065   6.798  18.058  10.647 -0.0319  0.1268 -0.2114
22866W        W23066  14.855  13.029   4.757  0.0005  0.1741  0.1243
22867W        W23067   7.791   6.949   6.945  0.1919 -0.3097 -0.3745
22868W        W23068  16.205  12.251   8.005  0.0235  0.0010  0.1024
22869W        W23069  17.128   5.894   7.730  0.0630 -0.1298  0.0474
22870W        W23070  13.516   2.191  13.564 -0.2661  0.1351  0.0144
22871W        W23071  13.018   1.672   7.201 -0.2246 -0.0227  0.1130
22872W        W23072   8.298   5.664  10.601 -0.1260 -0.0194 -0.0515
22873W        W23073  16.723  17.897   6.347  0.0113 -0.1925  0.1473
22874W        W23074   8.278  11.947   6.135  0.2360  0.0821  0.1567
22875W        W23075   8.829  11.922  14.303  0.1743  0.1625  0.0601
22876W        W23076   7.094  11.496   8.309 -0.0281 -0.0580  0.0996
22877W        W23077   9.693   2.257   7.125 -0.0410  0.0747  0.1599
22878W        W23078  14.482   1.909   4.408 -0.4380 -0.3627 -0.1389
22879W        W23079  14.621  15.399   7.632  0.1225 -0.0245  0.1681
22880W        W23080  15.637   3.831   9.780  0.1252 -0.0375 -0.0863
22881W        W23081  13.596   4.843   7.469 -0.0501 -0.0175 -0.2172
22882W        W23082  11.173  11.719  10.630 -0.1623  0.0410  0.1248
22883W        W23083  16.505   4.143   9.803  0.1118  0.2513 -0.3620
22884W        W23084  11.239   3.082  10.397 -0.1971 -0.1127 -0.5307
22885W        W23085  16.851   2.280   2.466  0.0493  0.0128 -0.2121
22886W        W23086   7.056   6.721   7.293  0.2272 -0.0411 -0.2372
22887W        W23087  15.925   5.076  10.813  0.1114  0.2028  0.0846
22888W        W23088  13.220   3.791   9.167  0.1695  0.0109  0.0663
22889W        W23089   8.590   5.095  12.849 -0.2384  0.0719 -0.0201
22890W        W23090   6.767  12.613   6.003 -0.0449  0.0618  0.3785
22891W        W23091  15.761  10.748  10.068 -0.1421  0.0534 -0.0982
22892W        W23092   1.448   6.666  10.072  0.2111 -0.7021  0.0529
22893W        W23093  17.588  17.513   2.396  0.0008 -0.0717  0.1544
22894W        W23094   8.120  10.059   5.285  0.1638 -0.0213  0.0322
22895W        W23095  13.853   6.502  15.614 -0.0619  0.0493  0.0134
22896W        W23096  10.559  12.820  13.016 -0.1228 -0.0875  0.1833
22897W        W23097  14.027   4.597   8.768  0.2011 -0.1385  0.0409
22898W        W23098  15.514   7.224  11.503 -0.2094 -0.1268  0.0424
22899W        W23099  16.208   4.669   3.162  0.1176 -0.0715 -0.2015
22900W        W23100  10.476   8.220   2.818 -0.2263  0.1871 -0.0208
22901W        W23101  15.932   7.699   4.741 -0.2451 -0.0399 -0.3174
22902W        W23102   8.208   7.421  16.440  0.0211 -0.2802  0.2282
22903W        W23103   9.782  11.585  10.194 -0.1671  0.2769 -0.1509
22904W        W23104   4.999   5.930   3.058  0.0643  0.0368  0.1359
22905W        W23105   0.298   5.460   4.919  0.1763 -0.0340  0.1401
22906W        W23106   4.195   3.734  17.988 -0.0175  0.1219  0.1459
22907W        W23107   0.015   3.056  11.635  0.1192  0.1744  0.5249
22908W        W23108   9.483   7.161   7.079  0.0310  0.1570  0.1336
22909W        W23109  16.018   9.134  13.517  0.1910 -0.0456 -0.0587
22910W        W23110  12.948   5.860  10.987 -0.3098 -0.3082  0.0871
22911W        W23111  15.059   3.907  14.458  0.0563  0.0578  0.2290
22912W        W23112  10.864  14.303   5.988  0.2463  0.2720  0.1338
22913W        W23113  12.871   2.104   7.346  0.2486 -0.0438  0.0844
22914W        W23114   3.142   8.622   9.935  0.0498 -0.1537  0.0499
22915W        W23115  11.657   9.015   8.731  0.0238 -0.1880 -0.2815
22916W        W23116  15.626   2.081   5.461 -0.1516 -0.0934 -0.0145
22917W        W23117   0.665   1.235  13.461  0.2062 -0.0547 -0.2259
22918W        W23118   9.428  11.384  10.663 -0.0231 -0.0118  0.0661
22919W        W23119  11.658   6.176  11.416  0.1037 -0.3638 -0.0271
22920W        W23120   8.041   3.466  11.850  0.4830 -0.0916  0.3280
22921W        W23121  12.801   0.186  13.130  0.3961 -0.2672 -0.2052
22922W        W23122   8.796  10.843   9.261 -0.0550 -0.8738 -0.1434
22923W        W23123   7.927   5.924  17.578 -0.0537 -0.3924  0.1658
22924W        W23124  11.191   0.917  16.520 -0.3300  0.3321 -0.2435
22925W        W23125   5.888   4.918   5.385  0.2362 -0.1286 -0.0469
22926W        W23126   3.442   9.736  13.895 -0.1158 -0.0561  0.0662
22927W        W23127  10.675   5.502  10.577 -0.0997 -0.0073  0.4580
22928W        W23128  16.456  14.249  11.214 -0.0445  0.1124  0.1253
22929W        W23129  11.992  14.557   7.473  0.2822  0.0447  0.1976
22930W        W23130  11.824  14.669  10.673  0.3007 -0.0889  0.0866
22931W        W23131  17.254   5.930   5.862  0.0293 -0.1540  0.1276
22932W        W23132   2.079  14.332   1.341 -0.0479  0.1341 -0.3826
22933W        W23133  15.532   1.527   3.122  0.0386  0.0849 -0.1384
22934W        W23134   5.205  15.711   7.332  0.0972  0.3075  0.2012
22935W        W23135   9.919   9.389  12.251 -0.2710 -0.0326  0.0869
22936W        W23136   8.348   8.194  12.845 -0.0823 -0.0401 -0.0159
22937W        W23137   7.262   5.286   3.099 -0.1324 -0.1117  0.2170
22938W        W23138  14.816  15.561  17.480 -0.3238  0.1685  0.1017
22939W        W23139   7.379  12.796  13.573  0.0822 -0.3289  0.0013
22940W        W23140  10.752   2.154  11.333  0.1588 -0.0318  0.1553
22941W        W23141   3.215  12.119  10.236  0.3287 -0.2189 -0.0030
22942W        W23142  11.665  12.407   7.777  0.1422  0.1293  0.1959
22943W        W23143  12.122   3.063   9.761 -0.2156  0.0185 -0.2565
22944W        W23144  14.623   4.023   6.540  0.0254 -0.0494 -0.1386
22945W        W23145   3.899   0.529   2.140  0.1394 -0.2835  0.0335
22946W        W23146   0.096   5.654   6.564  0.1964  0.1368 -0.1128
22947W        W23147   7.684   9.255   6.626  0.0013 -0.0826 -0.0544
22948W        W23148   3.151   2.055   5.307  0.1101 -0.0092 -0.1762
22949W        W23149  13.775   1.231  11.347  0.0040  0.2548 -0.0252
22950W        W23150  10.149   2.583   6.474 -0.0237 -0.1360 -0.0116
22951W        W23151   7.782   8.535  17.069 -0.0749 -0.0624 -0.2407
22952W        W23152  11.200   7.132   9.957 -0.1117  0.1820 -0.2171
22953W        W23153   8.617   7.736   6.930 -0.0716 -0.0372 -0.0535
22954W        W23154  16.394   5.213  10.327 -0.0921 -0.1855  0.0330
22955W        W23155  14.233   7.468   9.532  0.2279 -0.2099 -0.0442
22956W        W23156   7.294   0.665   7.582 -0.0294  0.0756 -0.1468
22957W        W23157   3.611   8.315   9.710 -0.2030 -0.2273  0.3191
22958W        W23158  10.865   5.819   9.657 -0.0525  0.0027 -0.6349
22959W        W23159   7.387  12.656   1.717 -0.1394  0.0264 -0.0440
22960W        W23160   3.665  13.456   9.499  0.2235  0.1016  0.2301
22961W        W23161   5.961   8.027  12.431  0.0812 -0.0323  0.2802
22962W        W23162   9.501   0.487  16.021  0.0323 -0.0134 -0.1924
22963W        W23163  10.270   1.420   4.355  0.0731 -0.0219  0.0572
22964W        W23164  10.157   8.810  11.255 -0.2612 -0.1114 -0.0057
22965W        W23165   0.869  13.588   9.679  0.0472  0.1215 -0.0803
22966W        W23166   2.340  16.989   5.613  0.1126  0.1746  0.0706
22967W        W23167   6.875   8.631   6.225 -0.0759  0.0016 -0.0529
22968W        W23168   9.673   4.870  17.236  0.1248 -0.5416 -0.0394
22969W        W23169   8.147   1.268  14.292  0.1559 -0.0755  0.0149
22970W        W23170   7.174   8.561  13.715  0.2097  0.0155 -0.0734
22971W        W23171   9.101  11.964  12.114 -0.1302 -0.1603  0.2568
22972W        W23172   7.458   8.755  15.531  0.4316 -0.2876 -0.0095
22973W        W23173   8.967   4.771  11.980  0.1427 -0.3525  0.1271
22974W        W23174  17.667  10.577   3.904  0.0435 -0.3380  0.3266
22975W        W23175   4.355   5.039  11.867 -0.0576  0.1051 -0.2215
22976W        W23176   8.935   9.300  11.243  0.0537  0.1204  0.1461
22977W        W23177   8.315   4.651  14.287  0.1163 -0.1557  0.1681
22978W        W23178  10.421  10.994  10.812  0.0547 -0.4991 -0.1947
22979W        W23179  15.283  10.223   4.450  0.2420  0.1033 -0.2012
22980W        W23180   3.661  10.491  11.691  0.0896 -0.0141 -0.1585
22981W        W23181  14.928   3.637  10.074  0.0820  0.1987 -0.4067
22982W        W23182   5.688   9.564   4.575 -0.1291  0.0975 -0.2087
22983W        W23183   6.551  12.346   9.034  0.2704  0.0508  0.4197
22984W        W23184   6.266  17.329   9.546  0.2452  0.2727 -0.0505
22985W        W23185  10.234  12.573  17.234 -0.0226 -0.0876  0.1077
22986W        W23186   8.240   0.483   8.835  0.0155 -0.2074 -0.1383
22987W        W23187   8.169  10.953  10.085  0.0751 -0.2695  0.0461
22988W        W23188   2.955  16.911   9.236  0.1022 -0.0559 -0.2252
22989W        W23189  15.570  16.589   6.458  0.1033  0.0241 -0.0495
22990W        W23190   6.687   9.215  13.551  0.0705  0.0448 -0.0421
22991W        W23191  11.496   6.936   2.337 -0.0171  0.3166  0.1958
22992W        W23192  11.575   3.156   8.699 -0.2455 -0.1724 -0.0973
22993W        W23193   6.236  17.392  11.494  0.1273  0.0884 -0.0444
22994W        W23194  13.364   6.131   1.974 -0.1122  0.0468 -0.1693
22995W        W23195   3.973  17.219   9.006  0.2278  0.0927  0.2121
22996W        W23196   5.530  15.796   8.584 -0.2072  0.2085  0.0641
22997W        W23197  13.706   2.751  12.192  0.1733 -0.1486 -0.2351
22998W        W23198  11.722  10.714   5.450 -0.1055  0.1289 -0.2423
22999W        W23199  12.183   1.167  13.914 -0.1451 -0.1062 -0.1790
23000W        W23200   6.250   5.332  11.166 -0.2227  0.1861 -0.1684
23001W        W23201   7.566  14.522  15.838 -0.1258  0.1705 -0.0536
23002W        W23202   6.005   3.781   0.018 -0.2886 -0.0788 -0.1628
23003W        W23203   4.153  10.121  16.584  0.0553  0.0004  0.0788
23004W        W23204  14.633   2.973   1.824 -0.3387 -0.1743 -0.1593
23005W        W23205   8.229  12.750  12.127  0.0885  0.0920  0.0524
23006W        W23206  11.351  11.136  14.286  0.2216  0.0767 -0.1640
23007W        W23207   9.404   3.643   2.320 -0.0078  0.0714  0.1770
23008W        W23208   7.428  17.902   3.098 -0.0532  0.3266  0.1035
23009W        W23209  12.627   1.530   8.679 -0.0556  0.1086 -0.4005
23010W        W23210  11.601   7.894   4.196  0.1206 -0.0172  0.0191
23011W        W23211   9.292   6.766  11.171 -0.1938  0.1360 -0.1421
23012W        W23212  16.940  15.843  12.369 -0.1245  0.1670 -0.0915
23013W        W23213   1.071   3.614   7.309 -0.2339 -0.0240 -0.1153
23014W        W23214  12.017  12.308  12.960  0.0158 -0.2845 -0.0506
23015W        W23215  11.020   7.313  12.199  0.1089  0.0503  0.1745
23016W        W23216   2.926  11.701  12.790  0.0399 -0.0903 -0.1244
23017W        W23217   6.614   1.376   7.034  0.1112  0.1895 -0.0354
23018W        W23218   1.886   7.531  16.628  0.1113  0.0330  0.5122
23019W        W23219   8.891  10.967   7.405 -0.1775  0.1069  0.1410
23020W        W23220   9.257   6.897   6.362  0.2541  0.1036  0.3557
23021W        W23221  10.023   3.019   8.774  0.1593  0.1379 -0.0214
23022W        W23222   7.024   6.362   8.436 -0.2621  0.1751  0.0487
23023W        W23223  18.194  11.401   7.413  0.1136 -0.2269  0.2720
23024W        W23224  12.621  12.025   1.976  0.2220  0.1854  0.0068
23025W        W23225  13.756  11.927   3.010  0.0197  0.0006 -0.2083
23026W        W23226   5.190   4.771  11.595 -0.0732  0.2658  0.1451
23027W        W23227  11.840  13.953  13.271  0.0272 -0.0002  0.0303
23028W        W23228   7.367  17.303  11.284  0.0481  0.0088 -0.2151
23029W        W23229  12.162   8.078   7.371 -0.1823 -0.3005 -0.1709
23030W        W23230   2.574   6.177  15.261 -0.3005  0.2098  0.3547
23031W        W23231  11.600   6.526  17.379 -0.0967  0.0233  0.2517
23032W        W23232   6.119  13.604   5.412  0.0857  0.0622 -0.0268
23033W        W23233   3.338  11.211   6.853 -0.1901 -0.1272  0.3131
23034W        W23234   9.715  16.021   6.457  0.0524 -0.2045 -0.0286
23035W        W23235  15.055   3.458   0.102  0.0638  0.0908  0.1391
23036W        W23236   9.621  14.424   6.483  0.3381 -0.0773  0.0953
23037W        W23237   7.630   8.525  12.276 -0.0485 -0.2310 -0.2326
23038W        W23238   8.147   2.980   9.915  0.1292 -0.1800  0.0041
23039W        W23239   6.724   0.904  12.924 -0.0361 -0.2236 -0.1101
23040W        W23240  12.835   2.418   4.587  0.2286  0.1150 -0.0959
23041W        W23241   6.425  18.073   8.687  0.0459  0.1920 -0.4920
23042W        W23242   4.214   4.922  17.139  0.0691 -0.0433  0.1299
23043W        W23243   1.691   7.262   4.609 -0.3551  0.0492  0.1600
23044W        W23244   6.608   3.602   6.444  0.3434 -0.3758 -0.0950
23045W        W23245  12.362   7.963  15.646 -0.0883  0.2331 -0.1199
23046W        W23246  12.277   6.156   4.055  0.1589 -0.0761 -0.0551
23047W        W23247   1.758   9.498   7.469  0.0342  0.0226  0.2201
23048W        W23248   6.487  12.987   2.903  0.2309  0.2645  0.2240
23049W        W23249   2.695   6.082   6.270  0.0646  0.0622 -0.1205
23050W        W23250   8.516   6.062   3.807 -0.2212  0.0580 -0.1284
23051W        W23251   8.306   0.152   6.313  0.0981 -0.0630 -0.0794
23052W        W23252  13.751   4.251  10.610 -0.1117 -0.3337 -0.3544
23053W        W23253  13.930  11.003   6.075  0.0677  0.0247 -0.1128
23054W        W23254   1.016   2.109   3.624 -0.0687 -0.2306 -0.0268
23055W        W23255   8.456  11.694   9.500 -0.0939 -0.1087 -0.2291
23056W        W23256  10.821   9.934  13.679 -0.2628  0.1516 -0.0511
23057W        W23257   2.960   6.929   9.676  0.1652  0.2093 -0.1069
23058W        W23258  12.211   0.217  13.666  0.1024  0.2083  0.1251
23059W        W23259  12.214  14.240  10.477 -0.0669 -0.0583  0.2221
23060W        W23260   9.627  12.196   8.379 -0.1460  0.0907 -0.0361
23061W        W23261   4.026   3.200   7.418  0.1333 -0.0501 -0.0256
23062W        W23262   5.774  12.094   9.766  0.0325 -0.2323 -0.0692
23063W        W23263  12.502   2.645  12.577  0.0865 -0.0606  0.1383
23064W        W23264  10.706  11.145  11.284  0.0247  0.2323  0.1122
23065W        W23265   7.046  14.330   6.892  0.1248 -0.2739  0.0089
23066W        W23266  11.601   8.392   8.581 -0.1086 -0.0725  0.0993
23067W        W23267   1.627   4.110  16.621  0.0668  0.2932  0.0608
23068W        W23268   9.296   8.245  13.421  0.2618 -0.0149  0.0110
23069W        W23269  17.525  17.816  10.298 -0.1282  0.1193 -0.3584
23070W        W23270  13.471   9.105  12.624 -0.0002 -0.0853  0.2984
23071W        W23271   8.970  18.191  12.854 -0.0795  0.1214 -0.3918
23072W        W23272  11.682  11.945   7.476 -0.2124  0.0966 -0.0631
23073W        W23273   8.660  10.896  13.653 -0.0206  0.0961 -0.1976
23074W        W23274   5.113   3.761  10.029  0.0734  0.3774  0.1747
23075W        W23275  10.824   7.456  17.901  0.0207 -0.0108 -0.0638
23076W        W23276   2.883   4.605  15.481 -0.1538 -0.0609 -0.0952
23077W        W23277  10.349   9.456   8.946 -0.2414  0.1695  0.1093
23078W        W23278  17.602   5.024  11.119 -0.1147 -0.1032 -0.0046
23079W        W23279  13.291   4.156   9.560 -0.0155 -0.1208 -0.5955
23080W        W23280  11.562   2.331   6.046 -0.1142 -0.0974 -0.2342
23081W        W23281   5.983   3.422  13.856  0.1872 -0.1952 -0.3563
23082W        W23282  12.562  12.937   5.499  0.1258  0.1982  0.1630
23083W        W23283   5.302  13.621  10.316  0.0591  0.0875 -0.1185
23084W        W23284   9.328  18.073  16.904  0.0150  0.3505 -0.0853
23085W        W23285  14.101   1.130   9.391 -0.0268  0.0302  0.2171
23086W        W23286   6.355   0.901   0.800 -0.0597 -0.1727 -0.0241
23087W        W23287  14.324   5.830   3.269 -0.0925  0.2089 -0.0149
23088W        W23288   4.026   1.817  15.943 -0.1184  0.2898 -0.0552
23089W        W23289   7.501   9.555   9.716 -0.2464  0.0724  0.0481
23090W        W23290  18.077   4.223   4.759  0.0907 -0.3380  0.2770
23091W        W23291   7.606   4.775   9.222  0.0733 -0.1587  0.0180
23092W        W23292  10.909   5.276  11.617 -0.1862 -0.2883 -0.3837
23093W        W23293   5.828   8.486   7.979 -0.1168  0.1910 -0.1627
23094W        W23294  13.920  10.520   9.688 -0.3060 -0.2296 -0.1823
23095W        W23295   5.178  10.494   3.827 -0.0566  0.3379  0.0430
23096W        W23296   3.463  16.825   9.507 -0.2445  0.0214 -0.1049
23097W        W23297   8.082   2.401  14.355  0.1674  0.0890  0.0177
23098W        W23298  14.677   9.713   9.024 -0.0767  0.0718 -0.0090
23099W        W23299  15.028  10.330   6.536 -0.0303  0.1560 -0.2065
23100W        W23300  10.749   6.148  10.394  0.3961 -0.1049 -0.0896
23101W        W23301   1.652   7.920   6.448  0.1584  0.0162  0.1018
23102W        W23302   9.459   8.643   6.721 -0.1559  0.1274 -0.0226
23103W        W23303  14.431  13.716  14.926  0.0539 -0.0744  0.0531
23104W        W23304  14.565   2.469  12.544 -0.2127  0.2038  0.0608
23105W        W23305   7.236  11.454  10.218 -0.0422  0.1609  0.1859
23106W        W23306  17.392   3.692  14.598  0.0582  0.2315  0.1061
23107W        W23307   5.614   3.948   6.914  0.0965 -0.0348 -0.0457
23108W        W23308   3.993   4.757   8.150  0.3772 -0.1032 -0.0830
23109W        W23309   6.097   2.256   3.183  0.0286  0.0512 -0.0673
23110W        W23310  14.944   7.554  14.405  0.1270 -0.0238 -0.0234
23111W        W23311   8.406   4.729  10.800  0.1119 -0.0590  0.2879
23112W        W23312  12.568  16.679   3.778  0.1516  0.2228  0.0634
23113W        W23313  11.856   3.688  14.416  0.0050 -0.2779 -0.4114
23114W        W23314  13.249   2.005  10.911  0.2187 -0.1956  0.0818
23115W        W23315   8.079   7.813  12.987 -0.0283  0.2511  0.0107
23116W        W23316   7.431   7.248  12.757  0.2881 -0.1714 -0.1979
23117W        W23317  17.212   8.275   3.214 -0.1184 -0.1028 -0.2002
23118W        W23318  14.118   3.217   6.755  0.5051  0.1947  0.1639
23119W        W23319  13.992  11.989  11.809 -0.0963 -0.2250 -0.0055
23120W        W23320  11.833  10.344   8.291 -0.1627  0.0019  0.1633
23121W        W23321   7.009   5.906   6.484 -0.1631 -0.0878  0.0654
23122W        W23322   4.891   6.686  14.313  0.0908 -0.2955 -0.2980
23123W        W23323   9.090   9.615  13.052  0.1233  0.0136 -0.0035
23124W        W23324  13.769   7.248  16.438 -0.0658  0.0055 -0.0373
23125W        W23325  14.931   9.048  11.660  0.0098 -0.1860  0.0632
23126W        W23326  17.474   5.257   6.973 -0.0909  0.1623  0.2099
23127W        W23327  12.842  13.650   7.265  0.0429 -0.0975 -0.1152
23128W        W23328  16.603   8.822  13.273  0.7596 -0.1037  0.1553
23129W        W23329   7.229  11.751   9.816 -0.1744  0.1463 -0.2366
23130W        W23330  10.583   9.742  11.437  0.1285  0.0937 -0.1178
23131W        W23331  15.180  13.086   8.101 -0.0924  0.0216  0.1141
23132W        W23332  10.334   7.760   6.627 -0.1538  0.0638 -0.0865
23133W        W23333   4.297   9.348   4.483 -0.0826 -0.0839 -0.3211
23134W        W23334   4.935   2.910  16.538  0.2214  0.1543 -0.1454
23135W        W23335  11.429  14.602  15.359 -0.0157  0.0028  0.1740
23136W        W23336   9.966  13.791   6.026  0.0257 -0.0303 -0.0653
23137W        W23337   8.522   6.673   9.550 -0.0756  0.1727  0.0274
23138W        W23338   4.302   6.713   6.794  0.0579 -0.0750 -0.0364
23139W        W23339   1.264   4.316   6.600  0.0915  0.1254  0.2419
23140W        W23340   6.253  13.008   7.295 -0.1652  0.1390  0.1025
23141W        W23341   9.550   4.484   5.907 -0.3220 -0.0268 -0.0522
23142W        W23342   9.957   6.932   9.487 -0.1129 -0.1157  0.4012
23143W        W23343   2.623   3.397  11.778  0.1503  0.2274 -0.1557
23144W        W23344   1.392   9.193   7.214  0.3234  0.0723 -0.0843
23145W        W23345   3.273  10.669   9.231  0.1444 -0.1061 -0.1327
23146W        W23346  11.217   1.990  13.541  0.1754  0.1897 -0.2157
23147W        W23347  17.591   5.524   5.926  0.2331  0.0110 -0.0953
23148W        W23348   2.616   2.662   8.636  0.0812 -0.0317  0.0229
23149W        W23349  12.199  10.708   5.690  0.1774 -0.1154 -0.3730
23150W        W23350  11.230   8.244  12.610 -0.3371  0.0563  0.3923
23151W        W23351   6.122   7.145  13.487 -0.1761 -0.1022  0.1754
23152W        W23352  12.372   2.218  11.991  0.1468  0.1144 -0.2883
23153W        W23353   3.210  14.798   5.382 -0.1571  0.0911  0.0188
23154W        W23354   2.571   9.430  12.698  0.3804 -0.1145  0.1070
23155W        W23355  11.437   7.806  16.912  0.0824 -0.0544  0.1521
23156W        W23356   3.948   5.135   0.155 -0.0899  0.0315  0.1209
23157W        W23357   6.657   1.402  11.842  0.0535  0.0490 -0.0857
23158W        W23358  10.877  16.797  11.475 -0.1873  0.0140 -0.0529
23159W        W23359  15.264   2.870   1.773 -0.0409 -0.0253 -0.0847
23160W        W23360  12.177   1.500   9.578  0.1139  0.0529 -0.3778
23161W        W23361  10.367   2.033   7.270  0.5317  0.1900 -0.1159
23162W        W23362  15.380   1.365   4.258 -0.0239 -0.2746  0.1429
23163W        W23363   8.320   2.995   2.597  0.0028 -0.1770  0.2158
23164W        W23364   5.866   7.422  17.402 -0.1425 -0.4348 -0.4116
23165W        W23365   5.888   4.009   9.896 -0.0072 -0.0516  0.0476
23166W        W23366  13.190  10.492  10.686 -0.2549 -0.1818  0.1153
23167W        W23367   9.443   4.055   4.224 -0.1573  0.1281 -0.0906
23168W        W23368  14.256  17.073   2.113  0.0015  0.1102 -0.3288
23169W        W23369   1.745   7.169   7.181  0.1709  0.1286  0.0567
23170W        W23370   9.137  11.760   7.735  0.0689 -0.2027 -0.0292
23171W        W23371  10.433   6.046   8.061  0.2075  0.1500  0.0831
23172W        W23372  10.463   8.601   6.218 -0.0121  0.0302 -0.0952
23173W        W23373  10.050   5.610   9.989  0.1454 -0.1227  0.2825
23174W        W23374  13.994   2.253  12.213  0.2195  0.2513 -0.1690
23175W        W23375  15.821  15.558   8.691  0.0024  0.1392  0.0037
23176W        W23376   7.880   2.346   1.794 -0.0509  0.5151 -0.1316
23177W        W23377  11.438   0.432   2.333  0.1030  0.0011  0.2520
23178W        W23378   3.410  10.463   2.654  0.0222 -0.0547  0.0974
23179W        W23379   5.892   5.029  11.056  0.3926 -0.1508  0.0863
23180W        W23380   9.438   7.842   6.315 -0.0980  0.3218 -0.0505
23181W        W23381   4.789   8.209   7.782  0.2424  0.1111 -0.0631
23182W        W23382  17.521   3.519  11.838  0.0319  0.3563  0.2031
23183W        W23383   9.374   7.411  15.474  0.1717  0.1304  0.0637
23184W        W23384  12.975  10.698  11.370  0.0310 -0.0212  0.1207
23185W        W23385  10.359   2.208   9.736  0.0351 -0.0978  0.0307
23186W        W23386   6.575   6.777   8.915 -0.2870 -0.2351 -0.0212
23187W        W23387  11.802   4.368   2.367 -0.1455 -0.3153  0.1742
23188W        W23388   4.837  14.002   7.263  0.1961  0.1600  0.0325
23189W        W23389   1.262   6.258   4.079 -0.0552 -0.4157  0.2310
23190W        W23390  16.099  17.839   9.929  0.2313 -0.0347  0.0603
23191W        W23391   7.494  15.406   9.715 -0.0353 -0.0887 -0.0717
23192W        W23392   0.516   8.325  10.950  0.1089  0.0076 -0.0019
23193W        W23393  17.279  15.927  10.233 -0.2551 -0.0125  0.1155
23194W        W23394  16.034   9.838  14.069  0.2853 -0.0145  0.0488
23195W        W23395  16.980   5.869   9.267  0.0448  0.1568 -0.2695
23196W        W23396   6.850  13.647   7.299 -0.2442  0.2248 -0.0036
23197W        W23397  12.476   5.770  14.527 -0.3238 -0.0462  0.0359
23198W        W23398  12.699  18.174   3.026 -0.0726  0.0577  0.1906
23199W        W23399   9.934   9.434   6.151 -0.0487  0.1358  0.3271
23200W        W23400   1.097  16.722   3.839 -0.0632 -0.2060  0.2819
23201W        W23401  11.891   9.345   1.118 -0.4278  0.0771  0.0399
23202W        W23402  13.702   2.157  15.930  0.2385  0.1487  0.0470
23203W        W23403  13.746   5.364   5.549 -0.1062 -0.1506 -0.3579
23204W        W23404   9.305   9.108   1.631  0.3189  0.1337 -0.0315
23205W        W23405   3.587   9.605   8.590 -0.3583 -0.0530  0.0261
23206W        W23406  15.759  16.610  13.929 -0.1365 -0.0249  0.0672
23207W        W23407  11.484   0.458   2.919  0.1517  0.1009  0.2463
23208W        W23408   8.144   9.620  11.501  0.0330 -0.3782  0.0140
23209W        W23409   7.807  15.226   1.976 -0.0777 -0.0781 -0.2039
23210W        W23410   0.510   3.070   8.158  0.1519 -0.3001 -0.0404
23211W        W23411   2.961  16.273   1.678 -0.1082 -0.1229 -0.2030
23212W        W23412  17.421  11.732   8.424 -0.1102  0.0309 -0.0565
23213W        W23413   7.840   1.478  13.315  0.0510  0.2595  0.3575
23214W        W23414  14.408   5.169  14.370 -0.0636  0.0374  0.2485
23215W        W23415  12.039  14.006   7.711  0.1394  0.0028 -0.3837
23216W        W23416   9.928   6.866  13.138 -0.0364  0.2523  0.1579
23217W        W23417  11.130   2.978  12.267  0.1268 -0.1360  0.0980
23218W        W23418   0.080  10.934  15.948 -0.2163 -0.0709  0.3308
23219W        W23419   9.401  16.815   7.407  0.0134 -0.0153  0.0753
23220W        W23420   8.205   4.214   2.547  0.3034  0.2467 -0.1616
23221W        W23421  13.974   7.660  17.313 -0.2204 -0.3216  0.2489
23222W        W23422   7.768  12.531   0.142 -0.1569  0.2456 -0.0557
23223W        W23423   8.169  12.025   9.849  0.1256  0.2153  0.0141
23224W        W23424  15.840   4.115  14.599 -0.0941 -0.0447 -0.1310
23225W        W23425   5.696   2.790  12.917 -0.1472 -0.2772 -0.2072
23226W        W23426   3.982   4.592   7.500 -0.3060 -0.1925  0.3529
23227W        W23427   4.945  13.954  10.697  0.1540  0.1038  0.0975
23228W        W23428  16.803   0.902   2.306 -0.1523  0.2088 -0.0452
23229W        W23429  11.293   4.855  16.032 -0.1049  0.0600  0.2613
23230W        W23430  13.988  17.550  10.396 -0.2163  0.0197  0.3077
23231W        W23431   9.086  17.065  10.558  0.0195  0.3160 -0.1902
23232W        W23432   4.740   6.951  17.368  0.0157  0.1120 -0.0950
23233W        W23433   7.083  16.949  13.681  0.1671  0.1281  0.0281
23234W        W23434  13.686   9.742   9.800  0.2877  0.1484  0.5508
23235W        W23435   7.452   1.312  11.225  0.0324 -0.1846  0.0228
23236W        W23436  17.533   8.410  14.793 -0.0614  0.0027 -0.3319
23237W        W23437   4.846   6.279   8.921  0.0025  0.0323 -0.1099
23238W        W23438   8.613  17.835  15.174 -0.2361 -0.3069 -0.0462
23239W        W23439   8.947   5.989  14.037  0.0157 -0.1918  0.1041
23240W        W23440   8.980   5.385  12.785  0.1979  0.1774  0.1534
23241W        W23441  12.823  14.507   8.802  0.3777  0.1187 -0.1181
23242W        W23442   3.427   3.061  12.884  0.2846  0.0278 -0.0673
23243W        W23443  11.975  11.053  17.265 -0.3251  0.3295 -0.0296
23244W        W23444   8.646   0.628   6.621 -0.0211 -0.2340 -0.1433
23245W        W23445  12.021   7.017   6.302 -0.2570 -0.1505  0.0205
23246W        W23446  16.132   2.946   4.046 -0.2542  0.1234 -0.1716
23247W        W23447   8.015   5.140   8.033  0.0536 -0.1434 -0.2014
23248W        W23448   6.850   0.429  12.808  0.3246  0.1578 -0.1662
23249W        W23449   9.820  16.965  13.180 -0.1359  0.0015  0.0069
23250W        W23450  12.569  10.429  12.202  0.1334 -0.1309  0.2327
23251W        W23451   8.216   9.682  18.044  0.1236 -0.1911  0.0568
23252W        W23452  12.234  14.821  16.728 -0.2597  0.0170  0.0540
23253W        W23453  14.381  14.483   9.897  0.1001  0.3466  0.2187
23254W        W23454   2.237   7.312   0.475 -0.1098  0.2043  0.2862
23255W        W23455   9.964   6.470   5.782 -0.3302 -0.2270  0.0004
23256W        W23456   4.140  14.077  13.077 -0.3361  0.1828 -0.1548
23257W        W23457  17.943   2.687  17.399 -0.2704 -0.4282 -0.1463
23258W        W23458  10.796  13.404  11.155  0.0976  0.3178  0.0522
23259W        W23459  14.979  12.335  16.121 -0.3061 -0.1185  0.2267
23260W        W23460  11.819   9.856   7.996  0.1098 -0.2460  0.1257
23261W        W23461  10.481   6.507   4.549 -0.0927  0.4626 -0.1680
23262W        W23462   3.579  11.407   3.694  0.4763 -0.2330  0.2598
23263W        W23463  14.562   5.770  17.905 -0.0640 -0.2259  0.1477
23264W        W23464   7.642   3.582   2.649  0.1079 -0.0492  0.1271
23265W        W23465  12.938  17.378   0.297 -0.3928  0.0472 -0.0757
23266W        W23466  16.603   1.160   6.522 -0.0353  0.0573 -0.2037
23267W        W23467   8.715   1.178   9.233 -0.1409 -0.0776  0.2916
23268W        W23468   8.905  16.959   8.257 -0.0372 -0.2611 -0.1611
23269W        W23469   9.972   7.386   9.180  0.1407  0.0242  0.1071
23270W        W23470   4.504  17.517   9.637  0.2389 -0.2073 -0.2703
23271W        W23471  12.112  17.733   9.510 -0.2107  0.1992  0.0209
23272W        W23472   8.826  16.294   5.127 -0.2685 -0.0055  0.0556
23273W        W23473   7.810   0.443  10.904  0.0660 -0.1289  0.1611
23274W        W23474  13.877   8.167  10.987 -0.1394 -0.2510 -0.0741
23275W        W23475  12.754  15.664  14.661 -0.2347  0.1135  0.1822
23276W        W23476  14.277   5.810   2.798 -0.1970  0.2300  0.1119
23277W        W23477   9.925   8.703  14.457  0.1163 -0.2069 -0.1295
23278W        W23478  10.924   4.216  12.777 -0.0968  0.0721 -0.1159
23279W        W23479  18.092  13.822   3.213  0.0246 -0.0331  0.1132
23280W        W23480  11.693  17.965   4.512  0.1940 -0.0006 -0.0187
23281W        W23481  14.523  13.745  12.494 -0.1103  0.3578 -0.3266
23282W        W23482  15.673   3.901   5.909  0.1765  0.0170 -0.3571
23283W        W23483  12.107  15.516  14.668 -0.3612 -0.4014 -0.0491
23284W        W23484   6.229   7.222   8.160  0.1222  0.0195  0.0911
23285W        W23485   2.385   3.895  10.165  0.2027  0.1133  0.0171
23286W        W23486   5.486  11.872   9.334  0.1529  0.0223 -0.1484
23287W        W23487   2.125   2.818  11.165 -0.1992 -0.0829  0.0284
23288W        W23488   0.791  12.639  13.882 -0.1071  0.0523  0.0023
23289W        W23489   0.351   7.387  11.460 -0.1121 -0.3442  0.2068
23290W        W23490   4.652   5.128  10.810  0.0721 -0.0229 -0.3433
23291W        W23491   3.749  12.586  13.543  0.0062  0.0414 -0.0789
23292W        W23492  17.481  10.131  15.057  0.1297  0.3332 -0.0292
23293W        W23493  15.449  15.147   2.715  0.0599 -0.3202 -0.0109
23294W        W23494  10.451   9.438  10.606  0.0144 -0.2336 -0.0406
23295W        W23495  12.605  11.286  14.981  0.0901  0.1413  0.0363
23296W        W23496  10.488   2.340   6.075 -0.0924 -0.0166 -0.0938
23297W        W23497   5.841   1.973  12.935  0.0815  0.0464 -0.2023
23298W        W23498  12.998   0.907  14.902  0.0279 -0.1057  0.0108
23299W        W23499   1.476   8.458  11.643  0.0139 -0.0315  0.0101
23300W        W23500   6.143   8.123  14.962  0.3952  0.1354 -0.2091
23301W        W23501   9.943   8.846  15.978  0.1390  0.2761 -0.0440
23302W        W23502  12.741   0.091  14.050 -0.2218 -0.1253 -0.2145
23303W        W23503  11.007  16.926  11.967 -0.0325 -0.2683  0.0432
23304W        W23504  14.130   4.098   3.690  0.0863  0.1400  0.0129
23305W        W23505   5.183   3.124  18.087  0.0090  0.1211 -0.0739
23306W        W23506   4.021  10.407   8.066 -0.3048 -0.1139  0.1195
23307W        W23507  11.515   3.968  10.001  0.0320  0.0946  0.0017
23308W        W23508   6.651  10.367  12.467 -0.0331  0.0641  0.1350
23309W        W23509   5.173   5.254  10.421 -0.2683 -0.1288  0.0905
23310W        W23510  11.935   8.053   8.834  0.0511  0.1325 -0.2872
23311W        W23511  10.581   1.659  13.051 -0.0017 -0.0290  0.0824
23312W        W23512  11.384  12.577   4.841 -0.1694  0.1065  0.0857
23313W        W23513   7.282   6.054  12.462 -0.1107 -0.0468  0.0646
23314W        W23514   2.751  18.043   2.788 -0.1762  0.1331  0.0767
23315W        W23515  11.191  15.325   0.265 -0.1218  0.1366  0.2267
23316W        W23516   7.308  16.761   8.868 -0.1304  0.0714 -0.0541
23317W        W23517   3.899  15.828   2.444 -0.0212  0.0456 -0.0117
23318W        W23518   3.343   5.680   5.375  0.0397 -0.0086  0.3446
23319W        W23519   7.261   7.652   9.650 -0.0940  0.0273  0.1582
23320W        W23520   0.414   6.622  11.552  0.0757 -0.2973  0.0889
23321W        W23521   8.205   9.100   6.710 -0.0212 -0.2444  0.2065
23322W        W23522  15.020   1.461   9.905  0.0079 -0.0075  0.0006
23323W        W23523  14.166   8.242  12.353  0.1145  0.0160 -0.2184
23324W        W23524   8.041   9.380  14.366 -0.0659 -0.1257 -0.4697
23325W        W23525   7.711   9.897  13.741 -0.1614 -0.1270 -0.1090
23326W        W23526  13.368   0.889  14.041  0.0381 -0.0024  0.0945
23327W        W23527   8.285   6.594   1.588  0.2799  0.3610 -0.0600
23328W        W23528  11.281   2.607   9.299 -0.1654  0.0587  0.0157
23329W        W23529   9.848  11.119   9.332  0.0755 -0.2456 -0.2024
23330W        W23530  11.904   4.862   2.489 -0.4563  0.2286  0.2593
23331W        W23531   0.991  10.480   4.588  0.0671  0.0420  0.0280
23332W        W23532   3.542   1.367  13.186  0.1576  0.0735  0.0378
23333W        W23533  10.146   4.536   4.953  0.2984  0.1000  0.0446
23334W        W23534   1.231   5.605   8.094  0.0754  0.2002 -0.1494
23335W        W23535   9.940  14.631  13.785 -0.0638  0.1648 -0.0757
23336W        W23536  10.760   4.599  12.051  0.1981  0.0155  0.0476
23337W        W23537   6.016   5.667  10.849  0.0059 -0.0929  0.0378
23338W        W23538   5.296   0.293  15.087 -0.2879 -0.3750 -0.1270
23339W        W23539   3.094   2.126  17.654 -0.0067  0.3549 -0.0863
23340W        W23540  10.477   5.071   9.702 -0.1615 -0.0442 -0.0842
23341W        W23541  11.798   4.788   9.018 -0.0294  0.1052 -0.0866
23342W        W23542   8.486  14.414   9.293 -0.0979  0.3130 -0.2154
23343W        W23543   8.811  10.240   8.097  0.0475 -0.1198 -0.0165
23344W        W23544  14.268  15.964  12.262  0.3677  0.0420  0.0861
23345W        W23545   5.815   5.002   3.407 -0.2164 -0.0219 -0.1958
23346W        W23546  10.814  11.289  10.788  0.2334  0.0908 -0.0358
23347W        W23547  10.973   4.823   8.761  0.1305 -0.0851 -0.1061
23348W        W23548   2.010  18.104   4.726  0.2780 -0.1712 -0.1806
23349W        W23549  16.064   1.476  15.180  0.1425 -0.1292  0.3274
23350W        W23550  15.896  14.985  14.744 -0.0573 -0.0390  0.0175
23351W        W23551   8.845   8.465  10.637 -0.0989 -0.3037  0.1541
23352W        W23552  13.359   9.854  13.478  0.1787 -0.4838  0.0148
23353W        W23553   3.326   3.897  14.316 -0.1357 -0.1643  0.2999
23354W        W23554   6.095   4.612   9.618  0.0774  0.0659  0.1233
23355W        W23555  14.132   1.347  15.929  0.1245  0.1497  0.0515
23356W        W23556   5.745   3.100  13.350 -0.1965 -0.1224  0.1683
23357W        W23557  15.006   2.270  15.635  0.0525 -0.1348  0.2168
23358W        W23558   6.202   9.651  12.757  0.0951  0.2960  0.1328
23359W        W23559  13.788   3.896  17.970 -0.1067 -0.1069  0.0562
23360W        W23560   9.174   1.837  18.115 -0.0506 -0.3854  0.0931
23361W        W23561   6.502  14.494   8.478 -0.0508  0.1996 -0.2236
23362W        W23562   9.803   9.114   1.833 -0.1057  0.0584  0.2134
23363W        W23563   6.369  13.506  13.544  0.2429  0.0382 -0.1860
23364W        W23564   9.704   1.310  12.027 -0.1016  0.2153 -0.1061
23365W        W23565   9.879  12.394   5.987  0.3445 -0.1655 -0.2876
23366W        W23566   9.089   5.638  14.380 -0.0806 -0.0138  0.4769
23367W        W23567  11.555  12.915   6.502  0.2396  0.1671 -0.0867
23368W        W23568   9.046   3.758  13.701 -0.2371 -0.3878  0.3567
23369W        W23569   7.383   2.990  16.175  0.1411 -0.4680  0.1115
23370W        W23570   6.077   6.539  17.462  0.2214  0.0671  0.1242
23371W        W23571   9.344   1.235  11.027  0.0838 -0.0837 -0.0184
23372W        W23572   6.912   3.548   7.896 -0.0526  0.1965  0.0698
23373W        W23573  14.307   6.492  11.433  0.0908 -0.1917 -0.2936
23374W        W23574  10.699  12.353   3.367 -0.1109  0.1561 -0.1120
23375W        W23575   8.089   8.449  10.818 -0.1474 -0.1835  0.2970
23376W        W23576  12.449   3.527   9.555 -0.0842 -0.2845 -0.1846
23377W        W23577   8.257  11.089  14.579  0.1650  0.3229  0.2917
23378W        W23578   7.846   4.693   7.863 -0.0260  0.1920 -0.1522
23379W        W23579   7.392  10.799  12.240 -0.1193  0.0681 -0.4449
23380W        W23580  12.999   4.874  10.875  0.2845  0.1729  0.3241
23381W        W23581  11.084   7.170  15.261  0.0758 -0.0445 -0.1892
23382W        W23582   2.229   4.819   2.163  0.3096 -0.0204  0.0283
23383W        W23583  11.738  17.706   1.887  0.1256 -0.0475  0.1234
23384W        W23584   6.805   7.504  11.564 -0.0420  0.3217 -0.0244
23385W        W23585  16.197  10.289   1.479 -0.2712 -0.0579 -0.1909
23386W        W23586   9.949   7.752   9.865  0.0458  0.1542  0.1460
23387W        W23587   7.639   0.439  14.206  0.1033 -0.0412 -0.0350
23388W        W23588  12.321  11.873   1.495  0.0603  0.0335  0.2879
23389W        W23589   0.142   9.877   3.820  0.2722  0.1388 -0.0398
23390W        W23590  12.535   2.708   5.578  0.2980  0.1602 -0.1820
23391W        W23591  15.233   3.253   9.832 -0.2173  0.1353  0.2692
23392W        W23592   5.070   4.604  12.654 -0.0409  0.0765 -0.3416
23393W        W23593  12.337   9.477   6.338 -0.0820 -0.1065  0.4205
23394W        W23594   7.356   4.366  10.955 -0.0053  0.1250  0.1088
23395W        W23595   8.240   3.704   0.080  0.1477 -0.2732 -0.0727
23396W        W23596   8.716  10.841   0.215  0.0759  0.1303 -0.0425
23397W        W23597   5.884  14.745   9.289 -0.1010 -0.1798  0.3009
23398W        W23598  12.857  13.783   8.335 -0.1223 -0.1658  0.0007
23399W        W23599   6.578   4.740   0.612  0.3038 -0.0643  0.0116
23400W        W23600   9.505   1.660  12.329 -0.0087 -0.2394 -0.2272
23401W        W23601   9.550   3.353  11.070  0.1151 -0.1449 -0.2134
23402W        W23602  15.404   4.301  17.270 -0.0821  0.2206 -0.3316
23403W        W23603  12.187  14.012   2.684 -0.2432  0.1320 -0.0912
23404W        W23604   1.669   4.425  14.697  0.1760  0.1652  0.1140
23405W        W23605   4.769  17.308   1.865  0.1071  0.1092  0.0844
23406W        W23606   5.796   3.172   2.724  0.0897  0.1534 -0.2751
23407W        W23607   7.680  17.942  13.722 -0.1720 -0.2134  0.1231
23408W        W23608  17.813   7.352   6.760 -0.2966  0.2543 -0.1530
23409W        W23609  12.519   8.350   9.780  0.1189  0.0804 -0.1890
23410W        W23610  12.272   4.193   6.054  0.0288  0.1782  0.2707
23411W        W23611   3.133  16.930   8.189  0.2426 -0.2524 -0.2825
23412W        W23612   5.608   0.807  11.102 -0.0418 -0.2719  0.0049
23413W        W23613  10.701   6.054  10.915  0.0494  0.1785  0.0401
23414W        W23614   4.158   6.109  16.201 -0.2338  0.2934 -0.0947
23415W        W23615  10.235   5.792  15.566  0.3125 -0.0802 -0.2703
23416W        W23616   9.717   2.215   9.736  0.2478 -0.0938 -0.2536
23417W        W23617   6.721   9.780   6.105  0.0592 -0.0612  0.0772
23418W        W23618   2.484  12.180  16.564  0.1469 -0.1232  0.1770
23419W        W23619   5.681  15.527   2.052  0.1275 -0.2478  0.0072
23420W        W23620  14.671  13.166  10.380  0.1023  0.0191 -0.2819
23421W        W23621   7.497   1.609  15.516  0.0242 -0.1059  0.2902
23422W        W23622   8.674   1.863  12.794 -0.1333  0.0536  0.1920
23423W        W23623   9.594   6.466  11.459 -0.0127  0.2042 -0.2238
23424W        W23624  17.333   8.094  12.633  0.1956 -0.0866  0.3048
23425W        W23625  15.186  10.146  15.224 -0.0319  0.0999  0.0317
23426W        W23626   4.421   3.902  11.473  0.0078  0.0645  0.0377
23427W        W23627   9.204   7.107  13.570  0.1394  0.0025 -0.1506
23428W        W23628   8.548   4.379  13.478  0.2912  0.0084  0.0724
23429W        W23629  13.619   4.237  11.590  0.3679 -0.0919  0.0405
23430W        W23630  12.515   5.310   9.301  0.0517 -0.2730  0.1003
23431W        W23631   9.541  17.451  11.143  0.0454 -0.1256  0.5170
23432W        W23632   3.241  17.005  12.394 -0.1513 -0.1428 -0.0639
23433W        W23633  10.351   4.424  13.472 -0.2588 -0.0611  0.0840
23434W        W23634   6.313   7.640   2.691  0.0922 -0.1125  0.0539
23435W        W23635  13.129   7.596  10.474 -0.1388  0.1222  0.0374
23436W        W23636  11.247  13.193  11.080 -0.0341 -0.4027  0.2813
23437W        W23637  13.198   8.521  16.497  0.3132 -0.1898  0.0352
23438W        W23638   8.891  18.176  15.840 -0.1783  0.2343  0.1714
23439W        W23639   8.133  10.490  12.582  0.0036  0.0219  0.1129
23440W        W23640   8.403   3.108  11.829 -0.0020  0.2586  0.2542
23441W        W23641   6.167   3.644   9.459 -0.1665 -0.0626  0.1276
23442W        W23642   6.676   3.600  16.906 -0.1615  0.0422 -0.1431
23443W        W23643  11.917   6.259  13.998 -0.1265  0.2575  0.3487
23444W        W23644  16.669   4.807  15.840  0.1202 -0.2129 -0.0387
23445W        W23645  11.024   2.461  12.300 -0.2255 -0.0899  0.1903
23446W        W23646  13.744   2.657   8.566  0.1260  0.2882 -0.4269
23447W        W23647   6.578   3.553  12.708 -0.3494 -0.0196  0.1096
23448W        W23648   6.262   9.242   6.793  0.1364 -0.0933  0.1197
23449W        W23649   7.632  11.041  14.741 -0.3464  0.0705 -0.2088
23450W        W23650   8.804   7.806   1.513  0.2715  0.1280  0.0406
23451W        W23651   3.701  17.297  13.861  0.2080 -0.0456 -0.3014
23452W        W23652   4.842   3.349   6.911  0.0092 -0.3302 -0.1558
23453W        W23653   9.646   7.176   6.131 -0.0671 -0.1283 -0.4106
23454W        W23654  13.247   9.811  11.204 -0.1518  0.2553 -0.1585
23455W        W23655   3.264  17.927  12.108 -0.1129  0.0857  0.0351
23456W        W23656   7.134  10.235   9.390 -0.0312  0.1775 -0.0326
23457W        W23657  14.811   7.134  14.697 -0.0649  0.0122  0.0927
23458W        W23658  17.912   7.702   9.842  0.1015 -0.0054  0.2571
23459W        W23659   3.267   8.129   1.728 -0.3169 -0.0815  0.0520
23460W        W23660   6.439  17.319   0.255  0.3769 -0.0535  0.0483
23461W        W23661  11.106   3.461   0.979  0.0656 -0.0588 -0.2379
23462W        W23662  13.606   3.533  15.812  0.0069  0.2126  0.2380
23463W        W23663   9.823  16.493   9.479  0.0479  0.2140 -0.2305
23464W        W23664   3.283   0.589   7.793 -0.0202 -0.2623  0.0556
23465W        W23665   2.195  17.517  18.032 -0.0736 -0.0121  0.0052
23466W        W23666  11.232  11.179  12.635  0.0671 -0.2381 -0.0563
23467W        W23667   9.235  13.305   1.023 -0.1036 -0.2042 -0.2477
23468W        W23668   9.739   8.207  10.041 -0.0973  0.1908  0.0087
23469W        W23669   2.431  17.941  13.702 -0.0096  0.0981 -0.3348
23470W        W23670   5.096  17.083  11.730  0.0321  0.1095  0.0356
23471W        W23671  10.637   8.835  12.081 -0.0334  0.1546  0.0721
23472W        W23672  13.201   7.129  14.757 -0.0829 -0.0008  0.0812
23473W        W23673   8.074   9.253  15.856  0.0599 -0.1450 -0.0777
23474W        W23674  14.611  15.640   0.290  0.1821 -0.2867 -0.0185
23475W        W23675   9.474   6.081   8.501  0.0498  0.0181  0.0198
23476W        W23676  15.352  16.789  15.377 -0.1571 -0.0909 -0.0241
23477W        W23677  16.918   4.136   5.398  0.1530  0.2448  0.1171
23478W        W23678   6.944   8.744   3.591 -0.3401 -0.0959 -0.0022
23479W        W23679   8.482   6.004  16.114 -0.0437  0.1865  0.1411
23480W        W23680  14.368  11.760  15.711  0.1118 -0.0823  0.1916
23481W        W23681   7.852  13.670   8.031 -0.1905  0.0182 -0.0198
23482W        W23682  12.580   4.445  12.380  0.2510 -0.0929 -0.0552
23483W        W23683   2.884  16.174  14.185 -0.3277 -0.0800  0.2687
23484W        W23684   2.469   3.658  12.227 -0.0537 -0.2216  0.1257
23485W        W23685   9.164   2.934  14.892 -0.0721  0.1781  0.0826
23486W        W23686   6.457  10.017   8.626  0.1163 -0.1360 -0.0539
23487W        W23687   4.964   9.621   0.656  0.0345  0.2155  0.0769
23488W        W23688  16.921   7.827   4.419 -0.3108  0.1445  0.2100
23489W        W23689  17.049   8.573   9.247  0.1106  0.2484 -0.0605
23490W        W23690   9.202   8.549  16.692  0.0638  0.0431 -0.3564
23491W        W23691  10.943   5.478   8.580 -0.0477 -0.4057  0.1147
23492W        W23692  14.061  15.438  10.003 -0.1668  0.1700  0.1572
23493W        W23693   4.462   7.387   7.945 -0.1236 -0.1243 -0.3138
23494W        W23694   6.769   4.989   4.961  0.3894 -0.1574  0.0170
23495W        W23695   7.205   3.710  11.452  0.0123 -0.1562  0.1163
23496W        W23696   1.323   8.856  18.171 -0.0535 -0.1259 -0.3852
23497W        W23697   5.340   5.078   9.589 -0.2400  0.0807  0.0129
23498W        W23698   6.942   8.002  12.729 -0.1553 -0.1709 -0.0955
23499W        W23699   8.728  11.541  11.261  0.1359 -0.1960  0.4356
23500W        W23700   8.785  10.714  16.095  0.2445 -0.0325  0.0786
23501W        W23701   2.818   2.152  10.847  0.2593  0.0024 -0.2983
23502W        W23702   2.233   5.353  13.102  0.1660 -0.0122 -0.3950
23503W        W23703   6.685   7.092   7.843 -0.0035  0.0015  0.3589
23504W        W23704  16.908   5.683   9.726  0.3352  0.0035  0.2529
23505W        W23705  12.113   7.465   9.449  0.1037  0.1044  0.1757
23506W        W23706   9.993  16.229  16.984  0.2061  0.4842 -0.1869
23507W        W23707  13.305   2.115  14.074 -0.1596  0.1138 -0.1207
23508W        W23708   7.959   5.288  17.183 -0.0603  0.1029 -0.1060
23509W        W23709  12.149  10.708   9.311  0.0617 -0.0370  0.0111
23510W        W23710  14.775   2.116  12.812 -0.1511  0.0821 -0.0483
23511W        W23711   3.991   6.469   7.111  0.0995  0.6308  0.0711
23512W        W23712   6.470   6.037   8.009  0.1153  0.2381  0.1965
23513W        W23713   5.910   2.714   5.711  0.1887 -0.3301 -0.0566
23514W        W23714   0.099  15.775   3.630  0.1176 -0.0031 -0.0477
23515W        W23715   8.439   3.859   3.501  0.0705 -0.0210 -0.0479
23516W        W23716   4.834   5.706  15.691 -0.2069  0.0013  0.0981
23517W        W23717   6.782   4.607  16.773  0.0352  0.1393  0.3221
23518W        W23718   9.268  10.168  17.308 -0.0056  0.0919 -0.2039
23519W        W23719   9.848  10.026  15.641 -0.1042 -0.1296 -0.1677
23520W        W23720  12.260  10.589  13.528  0.1643  0.0348 -0.2684
23521W        W23721  15.166   7.991   3.825  0.1785  0.2129  0.0255
23522W        W23722   4.200   6.383   7.506  0.1062  0.1291 -0.0385
23523W        W23723   8.499   1.498  16.257  0.1864  0.2019 -0.0284
23524W        W23724  11.620   2.434   3.800 -0.2397  0.3176  0.0881
23525W        W23725  10.833  16.416   9.013 -0.0096 -0.0905  0.2647
23526W        W23726  14.527   9.834  15.709  0.3456  0.0836  0.1543
23527W        W23727   9.842  17.675   4.229  0.2377  0.0970  0.2199
23528W        W23728   9.694   4.496   0.338 -0.3994 -0.1957 -0.1846
23529W        W23729   0.322  14.437   1.237  0.1610  0.0048 -0.0973
23530W        W23730   1.086   9.844  11.321  0.1814  0.1716  0.0253
23531W        W23731  16.296   9.196   5.915 -0.0670 -0.0611  0.0516
23532W        W23732   8.469   2.257   8.940 -0.1193 -0.3695  0.3075
23533W        W23733   8.393  16.007  16.276 -0.0820  0.1556  0.1032
23534W        W23734   2.710   4.708  17.418 -0.1632  0.0604  0.2102
23535W        W23735   8.271   8.087   6.842  0.3116  0.2452 -0.1157
23536W        W23736   4.934   7.277   8.913  0.3751  0.0897  0.0916
23537W        W23737   4.602  13.542   9.528 -0.2353 -0.3140 -0.2663
23538W        W23738  11.835  15.261   1.999 -0.0769  0.1163  0.2575
23539W        W23739  16.123   0.470  16.777  0.0276 -0.0931 -0.2760
23540W        W23740  11.716  11.110  13.028 -0.0152 -0.0955  0.4215
23541W        W23741  14.328   1.920  10.909  0.3942 -0.2774 -0.0115
23542W        W23742  17.273   6.191   8.470 -0.1182  0.2095 -0.1930
23543W        W23743  13.583   5.802  14.827  0.0102 -0.0634 -0.1012
23544W        W23744  12.574   7.919   6.789  0.3180 -0.0598  0.1107
23545W        W23745  12.427   9.179  14.182  0.1494 -0.0143  0.2388
23546W        W23746   6.963   2.731  12.948 -0.1907 -0.2036 -0.2234
23547W        W23747  15.270  14.154  16.634  0.0024  0.1090  0.0572
23548W        W23748   4.163   3.700  11.016  0.3719 -0.1582  0.2169
23549W        W23749  14.012   9.834  10.177 -0.0462  0.1276  0.0448
23550W        W23750   3.458  12.809  13.139  0.1627  0.0071  0.1123
23551W        W23751   5.074   3.899  12.192 -0.2615  0.2714 -0.0022
23552W        W23752   4.110   0.374   4.610  0.4047  0.1370 -0.0892
23553W        W23753  17.910  13.152  18.175 -0.0970  0.2069 -0.4073
23554W        W23754   2.251  16.303  10.211  0.1222  0.1602 -0.0775
23555W        W23755   1.762   8.570  14.469 -0.1143 -0.0495  0.2208
23556W        W23756  16.228  11.481  14.677 -0.4207  0.1336 -0.0129
23557W        W23757   5.482   6.310  12.301  0.1083 -0.0737  0.1172
23558W        W23758  10.172   9.252  14.270 -0.2137  0.1912  0.2012
23559W        W23759  16.709   2.308   7.166 -0.1223  0.0663 -0.0359
23560W        W23760   9.583   0.321   4.380  0.0997  0.0938  0.0254
23561W        W23761   9.054   5.792  10.767 -0.1039 -0.1290 -0.2952
23562W        W23762  10.328   6.002  14.864 -0.2687 -0.0333 -0.0126
23563W        W23763   6.647  14.948   8.313 -0.2172  0.0200 -0.0110
23564W        W23764  14.456   4.841  11.486 -0.2948  0.0303  0.0473
23565W        W23765   6.196   1.376   0.264  0.1428 -0.1649  0.2904
23566W        W23766  11.138   0.305   1.903  0.0003 -0.1447 -0.2190
23567W        W23767   5.728  16.719   2.061 -0.0667 -0.0281 -0.1179
23568W        W23768  11.697   9.794   3.614 -0.0024  0.0011 -0.4012
23569W        W23769   2.183  12.858   9.505  0.0849 -0.1279 -0.2948
23570W        W23770   4.512   6.408   2.068 -0.0792  0.2819 -0.1393
23571W        W23771   6.469  11.934  15.480 -0.0931 -0.2051  0.3494
23572W        W23772  14.886   8.763  12.054 -0.2466  0.0096  0.0937
23573W        W23773  17.627  15.441  18.124 -0.1073  0.0054 -0.1348
23574W        W23774  15.458  12.303   0.509  0.0566 -0.1269  0.0921
23575W        W23775   1.145   6.550   2.897 -0.1211 -0.2083  0.3145
23576W        W23776   4.613   3.461   1.452  0.1445  0.1646 -0.1503
23577W        W23777  17.414   5.628  14.449 -0.2026  0.1784 -0.1247
23578W        W23778  10.281  11.235  11.960 -0.2973 -0.2307 -0.5132
23579W        W23779  14.205   7.809  11.198  0.4396  0.0785 -0.2288
23580W        W23780  12.410   7.514   1.414  0.2977  0.2116 -0.2690
23581W        W23781   7.203   1.776  15.102 -0.1013 -0.2124 -0.0287
23582W        W23782   9.522  11.750   3.437  0.0018 -0.0097  0.1531
23583W        W23783   2.521   6.687  13.218 -0.1184 -0.4741  0.0759
23584W        W23784   8.586  10.105   7.242 -0.1832  0.0547 -0.0545
23585W        W23785   8.517   8.718  11.419 -0.1635 -0.3563 -0.1003
23586W        W23786  12.736   4.855  16.209 -0.3282  0.1965  0.2503
23587W        W23787  17.344  11.803  16.030 -0.1469  0.3046 -0.0388
23588W        W23788   2.747  15.618  10.123 -0.3018  0.1472  0.0523
23589W        W23789   1.186  11.988  16.579  0.0508  0.1110 -0.0496
23590W        W23790  11.504  10.364  13.901 -0.1263 -0.0892 -0.1557
23591W        W23791   8.000   0.799   7.139  0.0594  0.0310  0.1605
23592W        W23792   6.856   4.989   2.172  0.1916 -0.3815 -0.2060
23593W        W23793  13.154   1.624   9.466  0.0510 -0.0635 -0.1309
23594W        W23794  17.224   8.973  15.417 -0.0461  0.2226  0.0977
23595W        W23795  15.877  16.050  11.307 -0.1001 -0.2107 -0.2794
23596W        W23796  16.017  12.525  11.293 -0.1576 -0.1238  0.1291
23597W        W23797  11.359   7.786   5.470 -0.1100 -0.0562 -0.2281
23598W        W23798   5.200  13.489  15.869  0.1287 -0.0387  0.1027
23599W        W23799   9.172  10.157   8.662 -0.1103 -0.0162 -0.0635
23600W        W23800  11.613   0.620  15.668 -0.1655 -0.0195 -0.2739
23601W        W23801  12.171   5.727  14.098 -0.0047 -0.1475 -0.4057
23602W        W23802   8.267   7.404  15.577  0.1442  0.0283 -0.2222
23603W        W23803  11.677   1.174   0.469 -0.1465 -0.2104 -0.2053
23604W        W23804  12.096  14.002   0.640  0.2281 -0.0773 -0.2108
23605W        W23805   6.656   4.813   8.104  0.1732  0.2916 -0.3178
23606W        W23806   9.269  16.479  17.710  0.2246 -0.2765 -0.2170
23607W        W23807  13.053   0.631   1.173 -0.0068  0.1090 -0.4244
23608W        W23808   9.218   5.920   1.415  0.1098  0.3349 -0.1425
23609W        W23809  14.419   6.268   4.996 -0.0642  0.0979  0.1505
23610W        W23810  12.660   3.967   7.326 -0.0765  0.2924 -0.0132
23611W        W23811  17.404   8.748   3.201  0.3699  0.0514 -0.1783
23612W        W23812  12.683  14.938   9.925 -0.1769  0.2603 -0.3552
23613W        W23813  10.895   1.985  14.802 -0.1309  0.2055 -0.0865
23614W        W23814   1.383   5.412  12.988  0.1332 -0.2744 -0.1678
23615W        W23815   8.114   3.011   1.058  0.0872  0.2619  0.1382
23616W        W23816   7.591   8.893   2.306  0.0407 -0.0150 -0.2963
23617W        W23817   5.042   3.878   0.429  0.0973 -0.0903 -0.1136
23618W        W23818   5.908   0.795  17.375 -0.1471  0.1111 -0.2261
23619W        W23819  13.574   0.050   0.604 -0.1429  0.1468  0.1556
23620W        W23820   3.567  11.297  17.674  0.1905 -0.0612 -0.0208
23621W        W23821   7.627  16.042   6.926 -0.3794  0.2763 -0.2590
23622W        W23822   3.189   9.099   9.659  0.2421  0.4140  0.0733
23623W        W23823  11.761   6.102   8.352 -0.1450  0.1146 -0.0595
23624W        W23824   2.421  12.349  15.363  0.0462  0.0867  0.0333
23625W        W23825   5.230   0.243  17.602  0.0440  0.4127 -0.1691
23626W        W23826  15.616   0.579  17.367 -0.1251  0.1812 -0.1752
23627W        W23827  13.803   7.297  14.020 -0.0461  0.1468 -0.1251
23628W        W23828   8.943  17.339  12.280 -0.2433 -0.4585  0.0939
23629W        W23829  11.341   9.349  10.817  0.1897 -0.1617 -0.1078
23630W        W23830  13.058   4.949  14.870  0.2743 -0.1306 -0.1782
23631W        W23831  11.040  12.439   8.548  0.1508 -0.0536 -0.1063
23632W        W23832  12.269   0.456   6.791 -0.1055 -0.0836 -0.4158
23633W        W23833  10.303   3.342  16.254 -0.1305 -0.0144  0.1463
23634W        W23834   8.973   8.435  17.573 -0.0760  0.0819  0.4350
23635W        W23835  17.540   4.820   3.056  0.1692 -0.1739 -0.1436
23636W        W23836  14.662   0.597   5.903  0.1106  0.0508 -0.2978
23637W        W23837  17.769   5.784  17.960  0.0083  0.0405 -0.0703
23638W        W23838  11.608   7.297   0.731  0.0273 -0.2316  0.0038
23639W        W23839  10.076   6.494  17.403 -0.4638  0.0185 -0.0873
23640W        W23840  13.156  15.727   0.215 -0.1729 -0.0758 -0.0751
23641W        W23841  16.664   8.348   2.710 -0.1270 -0.4481  0.0238
23642W        W23842   3.739   4.717  13.080 -0.2901 -0.0909  0.1938
23643W        W23843   2.617   9.696  16.191 -0.0833 -0.1949  0.1432
23644W        W23844   7.811   4.909   0.273 -0.0544 -0.2318  0.0149
23645W        W23845  12.365   4.924  16.647  0.2930 -0.1108 -0.0326
23646W        W23846   7.143   6.062  11.492  0.1478 -0.3222  0.0649
23647W        W23847   1.750  17.639  16.260 -0.0521  0.1482 -0.1564
23648W        W23848  11.668  15.385  13.538  0.0881  0.0622 -0.1090
23649W        W23849   1.764   7.148  15.501 -0.0638  0.1617 -0.2472
23650W        W23850   6.690   2.839  17.063 -0.2933 -0.1530  0.0003
23651W        W23851   9.170  11.408  12.188  0.2916  0.1290 -0.2371
23652W        W23852   4.351   4.670  11.200 -0.1004 -0.0873 -0.0798
23653W        W23853   3.723   8.318  12.615 -0.2523  0.0731 -0.2352
23654W        W23854   9.337  16.766   1.361  0.0491 -0.1439  0.0484
23655W        W23855   8.510  16.090  15.065 -0.1224 -0.3158  0.2727
23656W        W23856  13.728  11.486  15.927  0.2511 -0.1399 -0.0049
23657W        W23857   8.556  12.341  14.327  0.0723 -0.0052  0.2756
23658W        W23858  10.342   7.557  18.156  0.0861  0.1179 -0.1839
23659W        W23859   2.976   8.706  13.908  0.0763  0.1138 -0.0214
23660W        W23860  12.438   4.177   8.655 -0.3151  0.1104 -0.0394
23661W        W23861  16.830   4.289   1.354 -0.2133  0.3369  0.1190
23662W        W23862   9.860  16.016   2.773 -0.0846 -0.1565  0.2068
23663W        W23863  18.037   7.595   2.909 -0.0563  0.0270 -0.1156
23664W        W23864   5.924  17.146  16.960  0.1135 -0.0333 -0.1424
23665W        W23865   8.104   3.795  11.433  0.0370  0.1760 -0.0513
23666W        W23866   7.167   9.375   6.015  0.1151 -0.4087 -0.1602
23667W        W23867  12.581   9.125  15.024  0.0294 -0.1765  0.2498
23668W        W23868  15.451   8.988  15.874 -0.1918 -0.1482  0.0727
23669W        W23869   3.757   3.248  14.835  0.0990  0.0193 -0.0719
23670W        W23870   0.113   5.805   6.105 -0.1520 -0.1560 -0.0477
23671W        W23871   4.193   5.845  17.542  0.1532 -0.2347 -0.2600
23672W        W23872   9.296   0.812  11.941 -0.2267  0.0135 -0.2557
23673W        W23873  17.253   2.775  17.154 -0.1672 -0.2778  0.2934
23674W        W23874  10.055   7.927  15.960 -0.1509  0.3133  0.0896
23675W        W23875  17.190   2.964   0.103 -0.2888  0.0107 -0.1271
23676W        W23876  15.651   2.667  12.569 -0.0027 -0.1952  0.0608
23677W        W23877  12.599   5.082   2.871 -0.2210 -0.4610  0.0067
23678W        W23878   6.566   7.088   0.971 -0.0017 -0.3166  0.0139
23679W        W23879   6.397   3.956   2.233  0.2556 -0.2639  0.1445
23680W        W23880   8.721   1.103  14.990 -0.2503 -0.3295 -0.2537
23681W        W23881   7.737   7.452  15.697  0.1045  0.1808  0.1504
23682W        W23882  13.339   7.482   2.884 -0.0822  0.1395  0.2595
23683W        W23883   8.665  12.520  15.273 -0.1665 -0.3415 -0.0423
23684W        W23884   8.749   5.305   2.026  0.1867 -0.0882  0.1373
23685W        W23885   7.882  10.480   3.230 -0.1732 -0.1527  0.0128
23686W        W23886   5.277   1.712   4.517 -0.1001 -0.2589 -0.3166
23687W        W23887   9.647   6.137   1.893  0.0696  0.1544 -0.0002
23688W        W23888   4.223   5.474  12.027  0.0356  0.0766  0.0222
23689W        W23889  15.702   6.989   2.677 -0.4987  0.0161 -0.0158
23690W        W23890   6.761  12.558  10.091 -0.2037 -0.1763 -0.2374
23691W        W23891  10.600  17.675   7.476 -0.2178  0.1592 -0.2505
23692W        W23892   8.435   6.107  17.499  0.0561 -0.4303 -0.1955
23693W        W23893  10.380  11.476   6.791  0.1598  0.1909 -0.0263
23694W        W23894   2.521  12.574   5.775 -0.2553  0.1553 -0.1070
23695W        W23895   9.138   4.471   0.990  0.3663  0.0317  0.0146
23696W        W23896   9.432  14.625   2.597 -0.1126  0.0913  0.1050
23697W        W23897   9.214   8.541  13.001  0.6107 -0.2310 -0.0083
23698W        W23898   8.142   4.944  11.701  0.3154  0.1720  0.1897
23699W        W23899   0.040  17.824  16.498  0.1414 -0.2705  0.1478
23700W        W23900   9.192  10.753   2.154 -0.2482 -0.0166  0.1305
23701W        W23901  12.129   0.377  11.179  0.1930  0.1693 -0.1277
23702W        W23902   1.420   7.015  16.796 -0.0626 -0.1321  0.0286
23703W        W23903   6.045   9.373  10.737  0.3165  0.1699  0.1542
23704W        W23904   9.483  14.788  14.047  0.0377 -0.1118  0.0707
23705W        W23905   7.047   8.067  17.448 -0.2182 -0.0971 -0.2174
23706W        W23906   4.618   6.086  17.244 -0.2007 -0.1996 -0.1005
23707W        W23907  15.079   3.583  15.585 -0.4063 -0.2928  0.0359
23708W        W23908   0.220   6.749  13.768  0.2615  0.1524  0.2185
23709W        W23909   6.231   0.266  12.289 -0.1553  0.0139  0.0842
23710W        W23910  13.145  18.083   0.748  0.0130 -0.2132  0.2626
23711W        W23911   9.573  10.118  17.821 -0.5103 -0.2153 -0.1972
23712W        W23912   9.796   5.092   5.650  0.0521 -0.0025 -0.1101
23713W        W23913   8.164  12.997   0.593  0.2449 -0.1965 -0.1220
23714W        W23914  11.298  17.597   0.397  0.0898 -0.1605  0.3175
23715W        W23915   0.700  12.955   2.073 -0.1901  0.0500 -0.1605
23716W        W23916  12.788  15.860   6.527 -0.1381  0.0424  0.1596
23717W        W23917   9.663   8.042  12.718 -0.5492 -0.1249 -0.0366
23718W        W23918   6.742   8.495   4.376 -0.0135  0.0892 -0.0965
23719W        W23919   0.623   7.893  16.615  0.3202  0.0710 -0.5233
23720W        W23920   2.891   2.895   3.076 -0.0333  0.1962 -0.2719
23721W        W23921   4.082   2.475   1.977  0.1580  0.2770  0.1861
23722W        W23922  15.461   5.114  14.434 -0.3727  0.0160  0.0278
23723W        W23923  12.228   2.338  10.190 -0.2433 -0.2165  0.1826
23724W        W23924  11.725   8.973  10.879 -0.0918  0.1095 -0.2234
23725W        W23925  13.595   4.775  14.776  0.1641  0.3513  0.1581
23726W        W23926  16.311   4.273   5.766 -0.1657  0.1682  0.0172
23727W        W23927   5.065   2.543  14.561  0.4829  0.0290 -0.0805
23728W        W23928  12.893   0.949  16.240  0.0706 -0.2329  0.1474
23729W        W23929  12.596  12.177  12.564  0.2152 -0.1508  0.0153
23730W        W23930   6.012  12.910  16.548 -0.2559  0.0565  0.0122
23731W        W23931  11.837   6.177   0.313  0.1035 -0.0417 -0.1309
23732W        W23932  13.274  13.003  11.843  0.2017 -0.4460  0.1086
23733W        W23933  16.326   6.578   7.394 -0.0573  0.2323  0.0014
23734W        W23934   4.623  13.368  14.831 -0.0033  0.3225 -0.0892
23735W        W23935  10.442   7.593   4.464 -0.0261  0.1454 -0.2677
23736W        W23936   3.379  10.893  17.412  0.0304 -0.2141 -0.0473
23737W        W23937  16.029   4.521   3.600 -0.1542  0.0781  0.1478
23738W        W23938   6.190  11.593   2.446 -0.0032  0.0268 -0.3385
23739W        W23939  13.054   9.207  14.167  0.0239 -0.1086 -0.0281
23740W        W23940  10.348  10.908  16.768 -0.1463  0.3129  0.0876
23741W        W23941  14.760   4.586  13.525  0.1141 -0.1919 -0.0877
23742W        W23942   9.287   7.115   4.956  0.3916  0.0822 -0.0421
23743W        W23943  12.717   5.878  12.384 -0.3061  0.2879  0.1014
23744W        W23944  17.090   2.100  15.058  0.1319 -0.0225 -0.2848
23745W        W23945   4.586   9.745   4.680 -0.3688  0.2050  0.3227
23746W        W23946   7.951   8.557  17.545  0.1579  0.1014  0.1085
23747W        W23947   8.183  13.095   9.611 -0.1279 -0.1693  0.0470
23748W        W23948   4.969  16.871  14.619  0.0505 -0.3073 -0.5278
23749W        W23949   8.086  15.092  13.996  0.0436 -0.2581 -0.0232
23750W        W23950   4.035  11.672  11.753 -0.0951 -0.0837 -0.0870
23751W        W23951   7.164   8.545  12.423  0.2404  0.1199  0.0483
23752W        W23952  17.162  11.486   3.569  0.0970  0.2304  0.3407
23753W        W23953   5.864  16.545   5.946  0.2623  0.1390  0.2652
23754W        W23954  15.284  11.777   1.525  0.1572 -0.0789 -0.1142
23755W        W23955   8.968   9.098  14.234 -0.1564 -0.1666 -0.0129
23756W        W23956  16.301  16.469   3.080  0.2844  0.2749 -0.1478
23757W        W23957   9.752   7.750   6.846  0.1032 -0.2128  0.1443
23758W        W23958   6.897   3.742  18.187  0.1100  0.1653  0.0435
23759W        W23959   6.547   1.958  16.575  0.3150 -0.1132  0.3360
23760W        W23960  16.371   8.767  12.781  0.0012  0.0785 -0.0880
23761W        W23961  13.549   9.094   9.075 -0.0635 -0.1173 -0.0726
23762W        W23962  16.480   7.589   4.353  0.3226  0.2235  0.1488
23763W        W23963  15.992   9.294   4.053  0.2240 -0.2078  0.0584
23764W        W23964  12.570   8.325  13.761  0.0224  0.1167 -0.0035
23765W        W23965  15.529  10.594  12.792  0.3926 -0.1079 -0.2667
23766W        W23966   9.551  14.178  16.299  0.0909 -0.2296  0.0514
23767W        W23967   0.428  13.572  17.196 -0.1305  0.3899  0.0678
23768W        W23968   5.394  16.651   4.574 -0.1280 -0.1158 -0.0069
23769W        W23969  11.302  10.601  17.517 -0.2156 -0.2716  0.2460
23770W        W23970   4.660   8.397  13.298  0.2121  0.1158 -0.1593
23771W        W23971  15.660   7.212  14.034  0.2619  0.0210 -0.1459
23772W        W23972   1.629  10.677  15.066 -0.0218  0.0401  0.0551
23773W        W23973   4.277   1.353   5.185 -0.0387 -0.1805  0.1435
23774W        W23974   5.765  17.815  15.136 -0.0441  0.1113 -0.0353
23775W        W23975   9.212  13.702  16.350  0.1054  0.1669 -0.0563
23776W        W23976  13.541   5.300  16.898  0.4105  0.0633  0.1101
23777W        W23977   7.021   5.067  16.989 -0.2693 -0.0849  0.0494
23778W        W23978  12.518   6.348  17.158 -0.2575 -0.1674 -0.0335
23779W        W23979  16.423   4.915  17.505  0.0182 -0.0396 -0.2674
23780W        W23980   9.078   1.517   9.867 -0.3351 -0.0799 -0.1814
23781W        W23981  11.755  14.371   8.991 -0.0199  0.0141 -0.0346
23782W        W23982   3.734  17.051  12.505 -0.0722 -0.1676 -0.0410
23783W        W23983  17.301   2.070  11.592 -0.0343  0.0447  0.0908
23784W        W23984   8.647  17.106  10.061 -0.1669  0.0763  0.3052
23785W        W23985   5.139   8.601   0.398 -0.0315 -0.0330 -0.0547
23786W        W23986   7.496  11.313  17.347 -0.1863 -0.0341 -0.1016
23787W        W23987   7.016   4.509   0.679 -0.0618  0.0190 -0.1366
23788W        W23988   9.364   9.857  14.059  0.2720  0.0756  0.0979
23789W        W23989  13.430  11.791  16.810 -0.1276 -0.2148  0.2268
23790W        W23990  11.646  17.174   9.179 -0.0559  0.1446  0.0079
23791W        W23991  10.511  17.814   4.410  0.0773 -0.5320  0.1745
23792W        W23992   4.057   0.460  10.879  0.1010  0.0071  0.0974
23793W        W23993  15.336  16.364   1.013  0.1423  0.0253 -0.0567
23794W        W23994   8.949  14.555  11.035 -0.2670  0.4316  0.0295
23795W        W23995   1.475   6.601  11.753 -0.4168  0.1038 -0.1199
23796W        W23996   8.538   7.631  11.124  0.0520 -0.2679  0.1428
23797W        W23997  10.494  12.041   1.918  0.4467  0.0809  0.4857
23798W        W23998  15.107  11.365   2.713  0.1348  0.0476  0.0831
23799W        W23999   5.200  11.661  14.777  0.1076  0.1335 -0.1438
23800W        W24000  17.231   7.177  17.439 -0.3611  0.0586  0.0375
23801W        W24001   3.503   0.213  10.001 -0.0949 -0.3308 -0.4742
23802W        W24002   7.273   7.744   4.541 -0.2267  0.0064  0.2693
23803W        W24003   0.614   7.781  17.121  0.1001 -0.0428  0.2178
23804W        W24004  16.487   2.604  15.036 -0.0384 -0.0650  0.0868
23805W        W24005  16.788  13.062  10.373  0.0406  0.2649 -0.1194
23806W        W24006   7.404   3.497  16.024 -0.0990  0.3493 -0.1726
23807W        W24007   9.434   6.431   5.719 -0.0447  0.1592 -0.1901
23808W        W24008  10.307  14.712  17.070 -0.0054  0.0663 -0.1178
23809W        W24009   8.082   1.708  14.672 -0.1012  0.1380  0.0073
23810W        W24010   6.754   5.903  17.775  0.1944  0.0402 -0.2169
23811W        W24011   5.378   0.434   3.969 -0.2778  0.1678  0.3486
23812W        W24012  15.959   7.127  16.547  0.0767 -0.3383 -0.1675
23813W        W24013   4.533   4.045  14.640 -0.0912  0.2618 -0.0694
23814W        W24014  13.991  12.244   2.192 -0.0947 -0.0674 -0.1654
23815W        W24015  12.333  18.068   6.635 -0.0736  0.2228  0.0464
23816W        W24016  10.319   3.858   1.457  0.0358 -0.3809 -0.1264
23817W        W24017  12.963   9.582  15.294  0.0922 -0.2433 -0.2350
23818W        W24018   2.466  15.213   1.256  0.0321  0.1249 -0.1318
23819W        W24019   7.813   7.819   6.997 -0.2101 -0.1479 -0.1610
23820W        W24020  17.950   9.303   3.084  0.1094  0.0697 -0.3428
23821W        W24021   4.784   6.657  12.404  0.0042 -0.0722 -0.1102
23822W        W24022   7.014  17.625  15.519 -0.0721  0.0066 -0.0226
23823W        W24023   9.702   8.990   1.351 -0.2375 -0.1374  0.0279
23824W        W24024  16.584  15.593   8.142 -0.1583 -0.2346 -0.1789
23825W        W24025   2.614   9.820  13.519  0.0976 -0.1707  0.0053
23826W        W24026   6.306   3.945  12.561  0.0793  0.2730  0.0386
23827W        W24027   2.084   4.702   4.363 -0.0062  0.3453  0.0447
23828W        W24028  10.834   1.153  14.996  0.0508 -0.0608 -0.2071
23829W        W24029   3.874   2.211  14.801 -0.6652  0.0108  0.0159
23830W        W24030  11.192   7.348   8.971  0.0405  0.0056  0.2504
23831W        W24031   3.879   7.706   3.415  0.0387  0.1912  0.0677
23832W        W24032   5.396  12.639  10.253  0.3846 -0.1542 -0.0021
23833W        W24033   8.041   9.998   6.439  0.0149 -0.0176  0.1907
23834W        W24034   5.794   1.652   1.024  0.1260 -0.0919 -0.1309
23835W        W24035  15.186   2.070   7.530 -0.0104 -0.1969  0.0416
23836W        W24036   7.324   3.283  10.106 -0.2252 -0.0397  0.1160
23837W        W24037  11.366   4.412  15.118 -0.0168  0.3319  0.0613
23838W        W24038   2.173   5.106   1.742  0.0920 -0.3588 -0.0278
23839W        W24039   7.174   3.932  12.105  0.1414  0.0134 -0.0521
23840W        W24040   6.686   6.503   7.043 -0.0845 -0.1537  0.3564
23841W        W24041  10.585  15.956  12.552  0.2269  0.0913  0.0019
23842W        W24042   9.539  11.533  15.139 -0.0952  0.2390  0.0855
23843W        W24043  11.484   3.241  18.088 -0.2289 -0.0141 -0.1998
23844W        W24044  12.072   8.352  13.598  0.1384 -0.0869 -0.0548
23845W        W24045  14.552   1.748   0.707  0.2886 -0.1102  0.0067
23846W        W24046   5.883   5.054   4.630 -0.4131 -0.3745 -0.0582
23847W        W24047  10.804   3.750   0.377  0.1512  0.3638  0.0797
23848W        W24048   9.461   7.734   0.067  0.2798 -0.0655 -0.0111
23849W        W24049   9.996   6.479   1.515 -0.0717 -0.0446 -0.1267
23850W        W24050   5.332   8.286   0.716  0.1476 -0.0375  0.0238
23851W        W24051  16.284  11.581  16.118  0.0092 -0.2476 -0.1266
23852W        W24052   9.117   6.087   1.884  0.2892  0.0537 -0.0619
23853W        W24053   1.763   8.241  12.499  0.1181 -0.0877 -0.1693
23854W        W24054  10.439   3.792  16.084  0.1670  0.0237  0.1053
23855W        W24055   7.591   6.075   4.686 -0.1783  0.4231  0.1317
23856W        W24056   9.594   7.854   9.366 -0.2078  0.0677  0.0245
23857W        W24057   3.878   3.371   8.823 -0.1248  0.0576 -0.2189
23858W        W24058   4.878   2.089  14.728  0.0717 -0.1045  0.1072
23859W        W24059   6.363   5.863  13.491 -0.1065 -0.1651  0.0940
23860W        W24060  10.992   4.275  17.546  0.0709 -0.1037 -0.0965
23861W        W24061  18.203   0.854   1.617 -0.1769  0.0346 -0.0430
23862W        W24062   1.387  11.540  16.561  0.2573 -0.2601  0.0261
23863W        W24063   5.934   8.598  12.645 -0.0248 -0.1675  0.2637
23864W        W24064   9.804   9.737  17.034  0.2696  0.2622 -0.0087
23865W        W24065   8.520   6.244  12.931 -0.1870  0.0331 -0.2751
23866W        W24066  16.955   2.659  12.011  0.2005 -0.2913 -0.0190
23867W        W24067   2.937   9.581  17.403  0.0418 -0.2246 -0.0838
23868W        W24068   4.285  15.260   1.525  0.4004 -0.1914  0.0109
23869W        W24069   7.788   5.904  18.066  0.1765 -0.3329  0.1490
23870W        W24070  13.722  10.178  13.674  0.0039  0.2610 -0.1795
23871W        W24071   8.794   7.215   4.798 -0.3012  0.0063  0.2112
23872W        W24072   7.599   9.361   5.560 -0.0958 -0.0048  0.3399
23873W        W24073  14.911   8.768  14.721 -0.1425 -0.0939 -0.1006
23874W        W24074  10.101   5.725  13.305  0.1103  0.1856  0.1384
23875W        W24075   9.546   8.859   4.727 -0.1480  0.1879  0.1271
23876W        W24076   8.981   2.391  15.040  0.3659  0.2829 -0.0668
23877W        W24077  13.357   2.907  15.406  0.0742  0.0230  0.1436
23878W        W24078  10.155   7.934  13.946  0.3531 -0.2329 -0.0038
23879W        W24079   3.112   0.254  12.191 -0.3597 -0.0996  0.2188
23880W        W24080  13.970   6.717  14.812  0.0864 -0.1171 -0.0643
23881W        W24081  11.373  16.479   0.778 -0.2746 -0.2549 -0.1686
23882W        W24082  15.026  17.809  16.919  0.2139  0.1682  0.0848
23883W        W24083  13.352   6.037  13.875 -0.1145 -0.0600 -0.1969
23884W        W24084   5.763   1.819   4.880 -0.1921  0.1022  0.0708
23885W        W24085   6.843   9.183   8.382 -0.1416  0.0642  0.0110
23886W        W24086   3.342  17.143   0.187 -0.3029 -0.1534  0.3216
23887W        W24087  10.023  14.727   2.010 -0.0974 -0.0731 -0.2028
23888W        W24088  13.867   3.661   0.242 -0.2294 -0.1339  0.3107
23889W        W24089   5.302   8.168  11.006 -0.0524  0.3580 -0.1070
23890W        W24090  12.499   6.742   8.691 -0.1594  0.0414 -0.1443
23891W        W24091   7.063   7.614   5.470 -0.1092 -0.2817 -0.1165
23892W        W24092  10.634  10.335  11.560 -0.2294 -0.1033  0.4089
23893W        W24093   8.817   6.263  13.661  0.2159 -0.0887  0.0362
23894W        W24094  12.893   6.849  16.239 -0.0617 -0.0981  0.0032
23895W        W24095   8.146   7.479   4.759 -0.2911  0.1660 -0.4210
23896W        W24096   3.303   7.722   6.191 -0.4689 -0.0279 -0.0383
23897W        W24097  10.633   5.590  15.905 -0.0524 -0.0613 -0.0700
23898W        W24098   8.201   5.068  13.185  0.1547 -0.1329  0.1160
23899W        W24099  16.091   7.969   1.417 -0.1488  0.1967  0.2363
23900W        W24100   4.408   1.727  16.226 -0.0007 -0.0868 -0.4165
23901W        W24101   3.354   6.261   7.521  0.0268  0.0125  0.0436
23902W        W24102   9.376   1.546  13.754 -0.0947 -0.0027  0.1612
23903W        W24103   0.527  13.754   8.195 -0.1385  0.3212  0.3525
23904W        W24104  11.148  16.557  10.855 -0.1682  0.2485 -0.0071
23905W        W24105  10.745   4.721  13.556 -0.2408  0.1521 -0.3980
23906W        W24106  16.068  12.706   0.507 -0.1495 -0.1158 -0.0533
23907W        W24107   5.894   6.268  15.216 -0.2419  0.2258  0.1011
23908W        W24108  10.606  16.955  15.450 -0.2005 -0.1674 -0.1052
23909W        W24109   7.237   1.703   4.783  0.1707  0.1240  0.2264
23910W        W24110  17.622  17.250  14.301 -0.2984 -0.0387  0.2528
23911W        W24111   8.718   5.671  16.423  0.0393  0.3345  0.3049
23912W        W24112  12.556  16.856  11.188  0.1064 -0.2001  0.2341
23913W        W24113  10.020   6.364  13.993 -0.2091 -0.2965 -0.0111
23914W        W24114  12.046   1.750   3.343 -0.3395  0.1192 -0.0035
23915W        W24115   7.628   4.454   0.021  0.0067 -0.0112 -0.1540
23916W        W24116  12.465   0.601  10.790 -0.1630 -0.1596 -0.2785
23917W        W24117  10.076   3.468  16.749  0.1540  0.3062  0.0843
23918W        W24118   8.026   1.542   7.949 -0.0801 -0.1039  0.0139
23919W        W24119  13.990   4.524   1.383  0.1022  0.1428  0.0052
23920W        W24120  17.441  13.585   8.849 -0.0671 -0.0026  0.0301
23921W        W24121  15.088   3.682  17.129  0.0721 -0.0833 -0.2340
23922W        W24122   9.465  12.055  15.440  0.0631  0.1661 -0.0306
23923W        W24123   6.539   9.842  11.442  0.3703  0.0512 -0.2183
23924W        W24124  13.166   5.109  12.780  0.1708  0.0753  0.2457
23925W        W24125  14.317   5.529  13.546 -0.0571  0.0275 -0.0546
23926W        W24126  14.986   5.896  17.023 -0.1210 -0.2982  0.1078
23927W        W24127   7.843   3.087  16.265 -0.1949 -0.1081 -0.0417
23928W        W24128  10.509   3.614  15.579 -0.0564  0.0132  0.0956
23929W        W24129  11.779   8.213  14.285 -0.1945 -0.0249  0.0274
23930W        W24130   7.825   7.412  12.483 -0.0079  0.0404  0.0972
23931W        W24131   5.199   2.104  15.944 -0.3733  0.1421  0.1940
23932W        W24132  17.871   5.711   4.236 -0.2265  0.2329  0.0882
23933W        W24133   9.816   6.368   3.829 -0.1332  0.2326  0.0824
23934W        W24134  17.440   4.656  14.764 -0.0856  0.2102  0.2241
23935W        W24135  10.400   8.759  10.382  0.4559  0.0378  0.5278
23936W        W24136   9.942   7.076   8.348 -0.0895 -0.0905  0.0496
23937W        W24137   7.003   4.033  15.127 -0.1251 -0.1683 -0.1085
23938W        W24138   9.064   3.657   0.017 -0.0357  0.1947  0.0400
23939W        W24139   6.202   5.392   9.929  0.0996  0.2088  0.2237
23940W        W24140  12.312  15.970   1.098  0.0384 -0.1404  0.1559
23941W        W24141   7.931  14.257  16.155  0.0712 -0.0447 -0.0629
23942W        W24142  14.323   2.345   0.672 -0.0522  0.1119  0.1784
23943W        W24143   6.703   5.947   1.292  0.0271  0.0075  0.2073
23944W        W24144  17.452   9.372  12.935 -0.0660  0.4004  0.0148
23945W        W24145   7.159   4.786  13.514  0.0970 -0.1582 -0.0561
23946W        W24146  14.125   7.656  16.367 -0.2289 -0.2050  0.2192
23947W        W24147  13.566   4.490   7.955  0.1977  0.0526  0.0934
23948W        W24148   4.171   8.654   8.531  0.0283 -0.0626 -0.1109
23949W        W24149  12.024   1.887   9.269  0.1136 -0.1125  0.1178
23950W        W24150  10.409   0.043   0.520  0.0980 -0.1590 -0.2700
23951W        W24151   8.574   4.161  17.500 -0.3646 -0.0621 -0.0306
23952W        W24152   8.977   9.931  12.385  0.3936 -0.0454 -0.0375
23953W        W24153   7.968   5.707   1.569 -0.2161  0.2650  0.1080
23954W        W24154   2.569  11.044  14.791  0.0267  0.2993  0.0090
23955W        W24155   2.919  17.486  14.543  0.2272 -0.0763 -0.1671
23956W        W24156   3.422   9.735  17.203 -0.2202  0.1303 -0.0507
23957W        W24157  11.183  10.890   7.587 -0.0536 -0.1296  0.1294
23958W        W24158   4.535   5.217  13.287  0.1808 -0.1100 -0.0823
23959W        W24159  15.607   6.084   5.688  0.1337  0.0738  0.1837
23960W        W24160  11.160   4.543  17.127  0.0941 -0.1030 -0.2976
23961W        W24161   4.299   5.283  15.054  0.1793  0.0548  0.1802
23962W        W24162   4.148  12.173  16.333  0.0659 -0.1639 -0.0114
23963W        W24163   2.997   4.933  17.747 -0.1537 -0.0601 -0.3322
23964W        W24164   8.904  16.476  14.214  0.0070  0.1531 -0.2147
23965W        W24165   8.095   5.474  17.709  0.0230  0.3530  0.0053
23966W        W24166   5.618   7.833   6.124  0.1438  0.1983 -0.0743
23967W        W24167   4.389   3.199   0.042  0.0259  0.0293  0.0734
23968W        W24168  11.960   7.044  11.188  0.3006 -0.1532  0.1202
23969W        W24169  11.387   0.976   3.526 -0.1575 -0.1111 -0.1764
23970W        W24170   7.175  10.362   2.849 -0.4969  0.1785  0.0599
23971W        W24171  10.346   6.936   2.538  0.3040  0.1276 -0.1918
23972W        W24172   5.571  12.991   0.980 -0.1435 -0.1241 -0.2132
23973W        W24173  15.826   3.045  18.088  0.0828 -0.1570  0.0275
23974W        W24174  13.744   4.290  15.567 -0.1046  0.2667 -0.1109
23975W        W24175  12.874   8.560   3.536 -0.1766  0.2010 -0.0720
23976W        W24176  10.151   8.459  13.883 -0.2737  0.1108  0.0106
23977W        W24177  14.392   3.404   1.549  0.2173  0.0812  0.2203
23978W        W24178   1.139   2.948  12.584  0.1545  0.2123 -0.3691
23979W        W24179   9.967   4.743  10.976  0.0510  0.0254  0.1329
23980W        W24180  12.231   2.231  17.035  0.0558 -0.0354  0.1506
23981W        W24181  15.992   1.723  16.985 -0.1075  0.4467  0.0619
23982W        W24182   7.188   1.628   2.497  0.1737  0.1790  0.3011
23983W        W24183  13.315   0.742   5.665  0.1256  0.1758 -0.0270
23984W        W24184  12.629   3.320  13.768 -0.0078 -0.1376 -0.0941
23985W        W24185   5.566   5.549  17.562 -0.0195 -0.0368  0.1025
23986W        W24186  17.831   2.269   3.494  0.0501 -0.1041  0.1821
23987W        W24187   6.337   1.963   2.770  0.2630  0.1740 -0.1712
23988W        W24188  11.781   7.018   3.066  0.0394  0.2336 -0.1261
23989W        W24189  14.824  16.299  12.997 -0.0545  0.0130  0.1451
23990W        W24190   4.587   3.590  16.055  0.1521 -0.2760 -0.0459
23991W        W24191  17.091   7.187   9.156 -0.3391 -0.3026  0.1677
23992W        W24192   5.008   7.364  17.681  0.0617 -0.3681  0.2012
23993W        W24193   7.930   3.097   4.948 -0.0290 -0.2751 -0.0856
23994W        W24194   8.512   8.942   0.776 -0.1493  0.3971  0.1374
23995W        W24195   6.296   7.695   9.468  0.0858 -0.1051  0.4394
23996W        W24196   8.677   3.300   2.811  0.0472  0.1243 -0.0944
23997W        W24197  12.579   7.417   4.791 -0.0007 -0.0674  0.0502
23998W        W24198  15.917  11.669  18.177 -0.1245 -0.2139  0.1816
23999W        W24199   8.691   2.147   1.613  0.0040 -0.1086  0.0799
24000W        W24200   7.086  11.970   7.740 -0.1306  0.0017  0.2578
24001W        W24201   7.997   6.426   3.349 -0.1121 -0.0939 -0.1349
24002W        W24202   6.807   4.007   7.689  0.0981 -0.2203 -0.3332
24003W        W24203   6.521  13.443  15.831 -0.0176  0.1348  0.2620
24004W        W24204   8.540  11.140  18.119 -0.3768 -0.2622 -0.0306
24005W        W24205   6.555   6.849  15.096 -0.0740  0.2028  0.1059
24006W        W24206  17.210   5.979  12.802 -0.2668  0.0007  0.0538
24007W        W24207   2.305   0.581   8.537 -0.0679  0.1049  0.1006
24008W        W24208   5.498   5.652  14.526 -0.2819  0.1181 -0.2215
24009W        W24209   5.550   5.973   2.966 -0.0959  0.1156 -0.4947
24010W        W24210  12.774   6.080   1.271  0.1692  0.0573  0.0554
24011W        W24211  17.830  10.526   2.817  0.1142 -0.3614 -0.0331
24012W        W24212  10.303   9.136   1.943 -0.0709 -0.1920 -0.0984
24013W        W24213  16.940   4.699  16.265  0.3118 -0.1778 -0.3031
24014W        W24214   5.982   7.625   0.450 -0.0706  0.0997 -0.0325
24015W        W24215  12.716   6.317   2.041  0.1283 -0.0248  0.2168
24016W        W24216   1.567  15.878  16.995  0.1235 -0.1625 -0.1182
24017W        W24217   3.992  13.916  16.707  0.0755 -0.2766 -0.3867
24018W        W24218   5.604   7.414   1.677  0.2125 -0.1980 -0.2370
24019W        W24219   4.473   7.811   2.304 -0.3124 -0.0740 -0.1412
24020W        W24220   4.963  12.303  16.870 -0.0136 -0.0466  0.3664
24021W        W24221   7.866  11.736   4.147  0.2064  0.0786  0.0720
24022W        W24222   7.050  14.059   4.238 -0.0063 -0.1400  0.0530
24023W        W24223   4.222  11.697  18.150  0.1385 -0.2558  0.2324
24024W        W24224  14.250   5.835   3.975  0.2254 -0.2265  0.2400
24025W        W24225   4.239   0.008   6.982 -0.3831  0.0488 -0.2641
24026W        W24226  13.987   6.580  16.101 -0.1019  0.2441  0.0029
24027W        W24227  17.275  11.068  17.889  0.2233 -0.1214  0.0263
24028W        W24228  13.575   6.081  15.652  0.2823 -0.1449 -0.1244
24029W        W24229   1.019  17.206   3.877 -0.0917  0.0369  0.1505
24030W        W24230  13.017  10.404   5.344 -0.0717 -0.1548  0.1812
24031W        W24231  12.167   4.860  11.989 -0.0894  0.1336  0.0251
24032W        W24232   5.789  12.154   5.066 -0.1351 -0.2553 -0.0930
24033W        W24233   6.660  10.764  13.462  0.1239  0.4625  0.0254
24034W        W24234   3.912   9.547   3.120  0.4104  0.3260  0.0059
24035W        W24235  11.757   8.234   2.838  0.0498  0.1628 -0.0991
24036W        W24236   7.547  14.090   4.400  0.0189  0.1169  0.3020
24037W        W24237   2.598   7.355   0.135 -0.2423  0.0321 -0.2147
24038W        W24238   5.459   8.260   4.841 -0.1875 -0.2431 -0.2044
24039W        W24239  17.175   8.035   2.769  0.0760  0.1599 -0.0859
24040W        W24240   3.206  10.085  14.225 -0.1910  0.0670  0.4449
24041W        W24241   8.322   9.011   3.447 -0.2697 -0.3104  0.0364
24042W        W24242   2.797   8.629  16.242 -0.1996 -0.0256  0.2719
24043W        W24243  14.537   3.670   4.746  0.2200 -0.3657 -0.2464
24044W        W24244   1.319   9.766   5.053 -0.1088 -0.1158 -0.1384
24045W        W24245   1.651  11.125   9.112  0.1226  0.0449 -0.1541
24046W        W24246   8.387  13.410   6.501  0.2057 -0.0378  0.0545
24047W        W24247   5.629   6.273  14.623 -0.0332 -0.0228  0.2814
24048W        W24248   3.711   4.473  11.489 -0.0208 -0.2440  0.0516
24049W        W24249   7.965  15.452  12.838 -0.1572 -0.1668 -0.0313
24050W        W24250   7.596   6.274   1.073 -0.2272 -0.0342 -0.1251
24051W        W24251  14.169  11.541   1.063  0.0414 -0.3912 -0.0119
24052W        W24252   8.830  14.471  11.945 -0.0360  0.0777  0.1162
24053W        W24253   4.839   5.389  16.427  0.2124  0.1890  0.1992
24054W        W24254   8.697   5.471   1.297  0.2134  0.2113  0.0136
24055W        W24255  13.640   3.129   0.937  0.0798  0.0682  0.0322
24056W        W24256   1.127  13.926   2.765  0.0701 -0.0272 -0.2747
24057W        W24257  13.745   0.889   3.319  0.4217 -0.1187  0.1049
24058W        W24258  13.852  12.290   6.677 -0.0335 -0.0210  0.1190
24059W        W24259   9.754   8.956  11.730 -0.2102  0.1143  0.0762
24060W        W24260   8.663  12.265   5.428  0.1205 -0.0892 -0.0542
24061W        W24261   6.790   5.389  14.127  0.1728 -0.2601 -0.2003
24062W        W24262  12.874   5.525   1.146  0.0908 -0.0553 -0.3954
24063W        W24263   5.580  10.177  14.439 -0.3196 -0.1140  0.1062
24064W        W24264   5.927  12.079   4.122 -0.2888  0.0686  0.0671
24065W        W24265  10.002  14.061  16.269  0.1827 -0.0513 -0.1552
24066W        W24266   5.147   3.861   2.640 -0.0757  0.1938 -0.1338
24067W        W24267   3.922  11.683  16.273  0.1110  0.2791  0.0901
24068W        W24268  16.054  17.114  15.154 -0.0146  0.2737 -0.1338
24069W        W24269   3.365   7.874   3.419  0.1257 -0.0965  0.2682
24070W        W24270   6.656  10.764   7.336  0.1730  0.2484 -0.1971
24071W        W24271   5.887  16.099   1.068  0.0012 -0.1100  0.1110
24072W        W24272   4.411   2.225   1.482  0.1181  0.1944  0.0540
24073W        W24273   7.720   3.052   3.324 -0.0209  0.1393 -0.3959
24074W        W24274   9.183   5.406   2.938  0.0973  0.1447  0.2004
24075W        W24275   1.701  13.707  16.224 -0.0149  0.1055 -0.3128
24076W        W24276   6.585  13.544   3.650  0.0141 -0.2066 -0.2497
24077W        W24277  11.784   6.675   2.670  0.1547  0.1648 -0.2686
24078W        W24278   6.824  13.690  17.988 -0.0558 -0.0623 -0.0034
24079W        W24279   4.597   8.264  16.047  0.0884 -0.2912  0.2256
24080W        W24280  11.750  15.325  11.808  0.0023  0.0870 -0.1651
24081W        W24281   1.759  13.431  10.092  0.2851 -0.2871  0.0429
24082W        W24282  14.922  12.073  12.567 -0.1569  0.1003 -0.1864
24083W        W24283  11.415  11.146  17.580  0.1527 -0.2936  0.1109
24084W        W24284   7.832   7.847  16.392 -0.1717  0.0451 -0.0268
24085W        W24285   6.406   7.758  17.774  0.0104  0.1050  0.1786
24086W        W24286   5.582  16.302   7.873  0.0814  0.1347 -0.3534
24087W        W24287   9.974  11.272  15.277  0.2210  0.0067  0.1087
24088W        W24288  10.557   9.188  17.887  0.0088  0.0180 -0.3133
24089W        W24289   7.954  10.048   2.899  0.2102  0.0600 -0.3460
24090W        W24290   7.820  13.196   3.717  0.0126  0.1966 -0.2685
24091W        W24291   3.633   5.854   3.022  0.0151  0.1497 -0.1520
24092W        W24292  10.955   6.216   9.376 -0.1860  0.2045 -0.3791
24093W        W24293  10.581  13.223   4.877 -0.2303  0.1098  0.1654
24094W        W24294  11.484  12.986   7.801 -0.1110  0.0444  0.1061
24095W        W24295   9.804   9.873   6.386  0.2434  0.0420  0.1629
24096W        W24296  11.995   9.321   4.977 -0.1154  0.1618  0.0905
24097W        W24297   7.930   7.329   4.336  0.0142 -0.2692  0.1759
24098W        W24298  16.725   2.410   4.761 -0.0016  0.0759  0.1065
24099W        W24299   4.451  13.415  14.339  0.1515  0.0211 -0.1272
24100W        W24300   9.006  10.384   6.428 -0.2077  0.1075 -0.0343
24101W        W24301  10.873   8.767  17.732 -0.0280 -0.2981 -0.2058
24102W        W24302   6.224   5.806   5.316  0.1094 -0.1921  0.3748
24103W        W24303  11.904   6.952  17.307  0.0699  0.1919 -0.1755
24104W        W24304   5.244  10.653  12.926 -0.1342 -0.1864 -0.1059
24105W        W24305   7.571   7.809   0.342 -0.1482  0.0721 -0.0673
24106W        W24306   5.663   8.163   3.699  0.2668 -0.0855 -0.3281
24107W        W24307  11.613   6.619  14.076 -0.0520 -0.1668 -0.3311
24108W        W24308   5.131  13.012   6.632  0.0954  0.1012  0.1733
24109W        W24309   4.044   7.159   0.535  0.1074  0.3176  0.0863
24110W        W24310  11.486   9.076   5.832  0.1761  0.2641  0.0619
24111W        W24311   8.593   5.387  12.426 -0.3776 -0.3854  0.0493
24112W        W24312   6.634  13.673  17.185 -0.1835  0.2807  0.1115
24113W        W24313  10.744   1.772  13.510  0.1462 -0.1055  0.0747
24114W        W24314   8.692  11.250   1.478  0.1177  0.1429 -0.0949
24115W        W24315  13.117  11.033   7.935  0.1181  0.1056  0.0610
24116W        W24316   7.892  12.098   8.196 -0.3019 -0.2294  0.2371
24117W        W24317  13.681   6.504  10.704 -0.1352  0.4650 -0.1541
24118W        W24318   5.159  17.556   4.610  0.3333  0.0578 -0.1548
24119W        W24319   6.057   6.522  15.612  0.1174 -0.0014 -0.0554
24120W        W24320   9.737   1.159   2.704 -0.1421 -0.0676 -0.1960
24121W        W24321  10.391   8.350   2.351  0.2047 -0.0991 -0.2897
24122W        W24322   7.991  11.272  14.961 -0.1557  0.0748  0.1690
24123W        W24323  12.504  12.884   1.452  0.0369 -0.1595 -0.1056
24124W        W24324   9.817   9.455   4.178  0.2973  0.3507 -0.0415
24125W        W24325  16.934  11.299   8.126  0.1424 -0.0839 -0.1257
24126W        W24326   6.851  10.611   3.598 -0.0109 -0.0136  0.1776
24127W        W24327   7.979  15.304  11.361  0.1247  0.0828 -0.2747
24128W        W24328  13.486   2.080   0.726 -0.0713  0.0849 -0.1205
24129W        W24329   3.864   8.357   0.822  0.0707 -0.0444 -0.1309
24130W        W24330  13.733   5.396   7.600 -0.2251 -0.0944  0.0258
24131W        W24331   8.598   9.798  11.242  0.2479 -0.6291 -0.2203
24132W        W24332  10.300   9.233  15.835  0.0549  0.0444 -0.0185
24133W        W24333  12.277  16.065  12.463 -0.1948 -0.1038  0.1373
24134W        W24334  11.500  11.811   2.914 -0.0414  0.1146  0.1681
24135W        W24335  12.412   7.167  16.456 -0.1936  0.1759 -0.2478
24136W        W24336   6.381  12.121   5.937  0.1512 -0.0307  0.0093
24137W        W24337   6.065   9.542  12.274  0.0349  0.3121  0.0294
24138W        W24338   6.281  10.871  12.085 -0.2952  0.1183  0.1222
24139W        W24339  15.019   6.881   4.585  0.0340  0.1627  0.1197
24140W        W24340   4.766   5.775   5.293 -0.1244 -0.0350  0.0138
24141W        W24341   2.927   6.968   4.458 -0.1579 -0.1897  0.1758
24142W        W24342   2.836  14.578  14.065 -0.0048  0.2663  0.1249
24143W        W24343   4.640  11.122   0.808 -0.0126  0.2731  0.3481
24144W        W24344   8.533  17.266   4.864 -0.3314 -0.0908 -0.0586
24145W        W24345   7.269   8.048   1.163  0.3130 -0.0307  0.2128
24146W        W24346   8.491  11.699   0.678  0.1497 -0.2629 -0.1836
24147W        W24347   7.915  18.074   6.035 -0.1943 -0.1915 -0.0970
24148W        W24348   8.737   2.494  13.660  0.2133 -0.2152  0.1558
24149W        W24349  10.543   0.398   3.407 -0.3709  0.1005  0.0700
24150W        W24350   5.575   9.741  12.628  0.0245 -0.1846  0.3000
24151W        W24351   8.922   6.711   5.643  0.2696  0.0896 -0.1761
24152W        W24352  11.149  12.194  10.995  0.2139  0.2273 -0.2058
24153W        W24353   2.267  11.940   7.471 -0.2025 -0.0606  0.1870
24154W        W24354  12.722  13.282   0.864 -0.0181 -0.1647  0.2088
24155W        W24355  10.760  15.315  15.289 -0.0712  0.4145  0.1895
24156W        W24356   6.469   9.452  10.477  0.1012 -0.0760  0.0888
24157W        W24357  10.130  15.567   0.445 -0.2258  0.0392 -0.2797
24158W        W24358   8.197  16.271   6.293  0.0173 -0.3819  0.1617
24159W        W24359   7.792   5.290   3.363 -0.0784 -0.0880  0.0061
24160W        W24360   3.654   0.899  14.208 -0.0195 -0.2322 -0.1640
24161W        W24361   7.080  15.598   2.740  0.0975  0.0953  0.1851
24162W        W24362  10.050  12.422  15.075 -0.1738 -0.3391  0.0613
24163W        W24363   3.053   7.774  16.482  0.2483  0.1474 -0.1100
24164W        W24364   6.906   4.199   5.019  0.0624 -0.0098 -0.1811
24165W        W24365   5.865  15.961  12.509 -0.2020 -0.0296  0.0921
24166W        W24366  13.132  10.625  15.690  0.1786  0.0444  0.0113
24167W        W24367   2.314   9.286   7.675 -0.0920 -0.0706  0.0635
24168W        W24368   1.772   0.089   7.308 -0.0775  0.0270  0.0391
24169W        W24369   6.391   9.498  13.885 -0.1579  0.4408  0.1427
24170W        W24370   5.170  12.667   4.349 -0.1583 -0.1849 -0.0546
24171W        W24371  10.108  12.775   4.543  0.0919  0.0626 -0.1269
24172W        W24372   4.594  14.906  15.372 -0.0604 -0.0892  0.0475
24173W        W24373  10.910  14.957   0.617  0.1958 -0.1521 -0.1078
24174W        W24374   7.400   9.133  10.612  0.0721 -0.1948 -0.0535
24175W        W24375  14.756  16.908  14.710  0.0287  0.0765  0.1890
24176W        W24376   2.887  15.502   1.227  0.2538  0.1497  0.3283
24177W        W24377   8.906  17.348  13.474 -0.0137  0.4209 -0.1283
24178W        W24378   5.054   4.928  16.341 -0.3486  0.0648 -0.3047
24179W        W24379   9.637  11.967   0.387 -0.0918 -0.1831  0.1333
24180W        W24380   0.094  13.681   5.953 -0.2899 -0.0311  0.0558
24181W        W24381   6.949  15.952   7.632  0.0898  0.2899 -0.0725
24182W        W24382   6.390   8.652   9.438  0.0027 -0.1325 -0.0459
24183W        W24383   2.638  10.212  17.841 -0.1049 -0.0811  0.0831
24184W        W24384   7.213   8.352   1.564  0.1806 -0.0455 -0.0977
24185W        W24385   5.732  14.584   3.073  0.0873 -0.1471  0.1907
24186W        W24386   3.561   9.669   0.292 -0.3666 -0.0162  0.1694
24187W        W24387  17.203   7.109  15.477  0.3624  0.1173 -0.0454
24188W        W24388  17.907  16.081   1.725  0.1579  0.1588 -0.0590
24189W        W24389  18.181  15.846  16.227 -0.2200  0.4139  0.1841
24190W        W24390   4.271  10.201  11.600  0.0366  0.0167  0.2570
24191W        W24391   2.065  15.458  13.401  0.0405  0.0609 -0.1182
24192W        W24392  17.511   2.505   0.942 -0.1521 -0.0171  0.1007
24193W        W24393   7.413  11.411  15.717  0.5021  0.1330  0.2035
24194W        W24394  14.322  10.322   2.271 -0.1677 -0.1593 -0.0344
24195W        W24395   1.558  12.682  17.989 -0.2606  0.1819 -0.0846
24196W        W24396  15.884   0.912   0.380  0.3021  0.1532 -0.3531
24197W        W24397   9.492  10.007   1.591  0.1921 -0.0076 -0.0754
24198W        W24398  18.037   6.531  15.145  0.1963 -0.4375 -0.0463
24199W        W24399  13.938  12.344  17.155  0.2587  0.1254 -0.1122
24200W        W24400  10.776   9.921  10.547  0.0758 -0.3584 -0.0531
24201W        W24401  14.361  17.339   8.914  0.1744  0.0612  0.1173
24202W        W24402   2.483  10.286   0.580 -0.0931  0.2126  0.0949
24203W        W24403   5.855  13.458   3.559 -0.2874  0.0022 -0.0626
24204W        W24404   2.004   2.111   2.335 -0.1587 -0.0051 -0.0858
24205W        W24405   8.374   4.807   0.419 -0.2429 -0.0631  0.2999
24206W        W24406   9.870   0.518  12.644  0.2258 -0.0550  0.0215
24207W        W24407  13.642   4.422  12.406 -0.0974 -0.0497  0.0866
24208W        W24408   6.126   0.846   0.406  0.2367 -0.3972 -0.3811
24209W        W24409   8.579   5.591  14.194  0.1620 -0.0665 -0.1680
24210W        W24410  12.993   3.703   2.564  0.1071  0.2125 -0.1117
24211W        W24411   9.183  12.321  17.152  0.0101  0.0537 -0.3755
24212W        W24412  13.868   7.362  16.904 -0.0858 -0.1404 -0.1579
24213W        W24413  10.079   4.072  14.584  0.2009 -0.1371 -0.0372
24214W        W24414  15.879  14.468   4.872 -0.0645 -0.2800  0.0691
24215W        W24415   8.168   9.586   2.547 -0.1156 -0.3013 -0.0320
24216W        W24416   2.916   6.539   3.636 -0.3961 -0.4017  0.2001
24217W        W24417  13.481   8.042  11.911 -0.3658  0.3143  0.0140
24218W        W24418   1.034  15.023   3.389  0.0836 -0.1027 -0.2861
24219W        W24419  12.454   8.082  18.144  0.3236 -0.1169 -0.1175
24220W        W24420   8.026   5.749  16.293 -0.1138 -0.0420  0.0003
24221W        W24421   5.630   5.222  12.506  0.2467 -0.1222  0.3538
24222W        W24422   8.393   9.844   9.753 -0.1249  0.0896 -0.1197
24223W        W24423  10.203  10.286   5.323  0.1409 -0.0882  0.3275
24224W        W24424   9.831   8.539   2.663 -0.3098 -0.2683  0.3144
24225W        W24425   8.639   3.766   5.550  0.0643  0.0687 -0.2778
24226W        W24426   7.164   9.419   1.050 -0.1397 -0.0834  0.0042
24227W        W24427   4.614  11.625   7.300 -0.4678  0.1199 -0.0822
24228W        W24428  14.856  11.572  11.616 -0.0093 -0.0543 -0.0560
24229W        W24429  13.761   7.276   4.095  0.2191  0.1253  0.0875
24230W        W24430   6.326  10.733   3.542  0.0363 -0.0940 -0.1555
24231W        W24431   6.261   7.772   6.234  0.1975 -0.0992  0.1106
24232W        W24432   2.736  17.367  17.710  0.0340 -0.1383 -0.4671
24233W        W24433   1.137  12.976  17.681  0.0741  0.1080  0.0469
24234W        W24434   3.560   6.943  14.453  0.1053  0.0533 -0.0870
24235W        W24435   3.645  11.911   0.516  0.3189 -0.0922 -0.0330
24236W        W24436  11.351   8.347  14.601 -0.0065  0.1663  0.2674
24237W        W24437  12.812  12.371  13.445 -0.2063 -0.2059 -0.0299
24238W        W24438   4.993   5.296   1.250 -0.1549 -0.0713  0.0075
24239W        W24439   2.616  12.027   5.692 -0.1037 -0.0368 -0.0011
24240W        W24440  14.568   6.796   5.776  0.1159  0.0664 -0.0073
24241W        W24441   8.691   8.150   9.699  0.3397  0.1430 -0.0483
24242W        W24442  11.390   7.406  17.727 -0.3259  0.2441 -0.1293
24243W        W24443   8.861   8.669   1.670  0.1961  0.1052  0.3188
24244W        W24444   6.017  14.751  16.722  0.0081  0.2510  0.3310
24245W        W24445   7.282  17.708   4.068 -0.1759 -0.0183 -0.1690
24246W        W24446  13.801   3.156   3.638 -0.0521 -0.2245 -0.1267
24247W        W24447  16.808   1.647  16.359  0.0870  0.1653  0.1863
24248W        W24448   4.909  11.463   1.146 -0.0576  0.0781 -0.1402
24249W        W24449   2.167  10.023  11.666  0.1475 -0.2306  0.0411
24250W        W24450   4.186   4.394  15.068  0.3453  0.2676 -0.0108
24251W        W24451   7.069   3.534   0.802  0.2816 -0.0183 -0.0118
24252W        W24452   5.217   1.140   1.921 -0.2305  0.1091  0.0098
24253W        W24453   7.001  16.591   1.966 -0.2841 -0.0213 -0.3808
24254W        W24454  11.617  10.319   4.272  0.2095  0.2040  0.0385
24255W        W24455   3.001  10.031   5.414 -0.3016 -0.1358  0.1628
24256W        W24456   4.618   1.783  15.014  0.2825  0.1252  0.3630
24257W        W24457   9.407   3.444   5.069  0.1638  0.3152 -0.2553
24258W        W24458   2.499  10.154  16.316 -0.0988 -0.1375  0.1579
24259W        W24459  11.766  12.230   3.044 -0.0303 -0.0955 -0.2013
24260W        W24460  14.457  11.853   8.392 -0.2103 -0.1795 -0.1165
24261W        W24461   3.531  13.292   1.329 -0.1191  0.0520  0.1906
24262W        W24462   7.249   9.754  11.330 -0.4697  0.0898 -0.1110
24263W        W24463   6.400  13.630   0.097 -0.0656 -0.1950 -0.1479
24264W        W24464   9.181  10.252   1.854  0.2801  0.0135 -0.1759
24265W        W24465   1.254  11.551  11.170  0.1868  0.0193  0.0856
24266W        W24466  14.522   8.699  15.701 -0.1633  0.0532  0.1166
24267W        W24467  10.111  14.654   1.444  0.4658 -0.2643 -0.0586
24268W        W24468   5.474   7.640  14.675 -0.0656 -0.0860  0.4242
24269W        W24469   6.181  16.294   5.654  0.2790  0.0441  0.0608
24270W        W24470  12.103   9.492   5.594 -0.1202  0.2128 -0.1325
24271W        W24471   8.140   8.164  16.937  0.1094  0.0035 -0.0416
24272W        W24472   4.295  15.309  16.895 -0.2568  0.1009  0.0246
24273W        W24473   4.471  15.564   7.829 -0.0692 -0.0709 -0.0900
24274W        W24474   9.580   9.159  15.237  0.1033 -0.0472 -0.1288
24275W        W24475   7.595  10.528  17.418  0.2569 -0.1227  0.1653
24276W        W24476   1.952   8.622   5.224  0.1189 -0.2136  0.0535
24277W        W24477   7.949  10.454   0.231  0.0505  0.0844  0.2463
24278W        W24478   0.374  12.252   8.409  0.0922  0.1979 -0.0962
24279W        W24479   7.250   8.790   3.172 -0.1401  0.2246  0.1266
24280W        W24480   6.896  12.846  15.902 -0.0096  0.0166  0.0651
24281W        W24481   1.200  13.272   2.013  0.4525 -0.0654  0.3176
24282W        W24482  11.313  17.733  11.731  0.1640  0.2312  0.0476
24283W        W24483   5.345  16.382   1.731 -0.0398  0.0114 -0.2400
24284W        W24484  15.842  14.890   2.673 -0.2586 -0.0666  0.2559
24285W        W24485  13.702   2.384  11.740 -0.0829 -0.0312 -0.3153
24286W        W24486   7.402   0.399   8.074  0.3643 -0.1790 -0.0069
24287W        W24487   5.625   6.609  10.892 -0.1937 -0.0398 -0.0793
24288W        W24488   9.768   4.445  14.624 -0.0798  0.4418 -0.0157
24289W        W24489  14.015  13.586  14.288 -0.1179  0.0216  0.1711
24290W        W24490   6.525   3.857   4.835  0.5240 -0.0213  0.1871
24291W        W24491   6.084   5.927   2.960  0.1672 -0.0312 -0.0257
24292W        W24492   4.454   9.057  16.535 -0.0501 -0.4757 -0.0217
24293W        W24493  14.039   7.655  17.945  0.1060  0.0524 -0.1828
24294W        W24494   8.276  12.952   2.083  0.1365 -0.1217 -0.0805
24295W        W24495  12.181   8.967   7.217  0.1942  0.1315  0.1842
24296W        W24496  16.905   6.890   7.005 -0.0640 -0.0362  0.1286
24297W        W24497   0.227  11.619   5.791 -0.1076  0.0168  0.0371
24298W        W24498   1.578  14.306   1.599  0.2131  0.1534  0.0802
24299W        W24499  15.939   9.158  15.626  0.0496 -0.0057  0.1805
24300W        W24500  16.471  13.863   6.393  0.0104  0.1894  0.0672
24301W        W24501  17.038   8.125  15.012 -0.2430  0.0211 -0.1086
24302W        W24502   0.815  14.214  14.997  0.0353 -0.0998 -0.0586
24303W        W24503   0.084  15.175   8.531 -0.2649  0.1439 -0.0091
24304W        W24504   6.207  15.588  15.012  0.0878 -0.0354  0.1346
24305W        W24505  12.577  12.240   9.493  0.1700  0.0403  0.0192
24306W        W24506   2.056   5.444   6.813  0.1176 -0.0024  0.1640
24307W        W24507   7.233  11.370   0.361 -0.1684 -0.0494  0.2741
24308W        W24508   3.977   7.586   0.857  0.1798  0.0199  0.0956
24309W        W24509   9.264   9.806  16.874  0.0952 -0.0630 -0.1566
24310W        W24510   8.652  13.129   1.856  0.0916 -0.0648  0.1701
24311W        W24511  16.450  16.919  17.980  0.1385  0.0208  0.1459
24312W        W24512  14.040  12.708   4.278  0.2056  0.1169 -0.0817
24313W        W24513  15.506   5.239   6.004 -0.0567  0.1968 -0.0042
24314W        W24514   8.857   8.582   9.177 -0.0200 -0.3621 -0.0040
24315W        W24515   8.967   4.164   5.430 -0.2355  0.1274 -0.1102
24316W        W24516   0.318   9.652   4.254 -0.1032 -0.3624  0.0502
24317W        W24517   1.419  12.318   3.042 -0.2220  0.1051  0.2220
24318W        W24518   2.184  15.802  12.505 -0.1178  0.1019 -0.1872
24319W        W24519   3.729   8.830   5.327  0.0403  0.2533 -0.0273
24320W        W24520  15.420  13.383  10.789  0.2105  0.2023  0.1267
24321W        W24521   4.620   6.935   5.937 -0.0475  0.2712  0.0079
24322W        W24522  11.917   6.250   9.653  0.0139 -0.0660  0.0258
24323W        W24523   8.175   7.100   8.038  0.0449 -0.0440 -0.1245
24324W        W24524   4.404  10.524  17.677 -0.0903 -0.1037 -0.0126
24325W        W24525   6.102  10.124  14.618 -0.1410 -0.3150 -0.0787
24326W        W24526   5.208   1.119   0.603 -0.2123  0.0290  0.1633
24327W        W24527  16.612   7.970   0.653 -0.2925  0.0122  0.1903
24328W        W24528  15.526  11.962   5.443 -0.0618  0.0586  0.1832
24329W        W24529   2.089  11.868   3.254  0.1411 -0.3824 -0.1326
24330W        W24530   2.352   2.062   1.927 -0.2550 -0.0895  0.1416
24331W        W24531  14.227  10.516   4.208 -0.3815  0.1065  0.2480
24332W        W24532   0.600   9.055  16.156  0.0192 -0.0583 -0.0351
24333W        W24533   1.336   8.753   2.497  0.1143 -0.0829  0.1419
24334W        W24534   5.932   9.482   4.003  0.0227  0.1146  0.1191
24335W        W24535   6.117  10.630  14.548 -0.2159  0.1190 -0.2776
24336W        W24536  18.059   7.228  14.500  0.0962 -0.0201  0.4845
24337W        W24537   3.988  13.792   0.194  0.0199  0.0401 -0.1669
24338W        W24538   0.773  17.388   0.896  0.0221  0.0412 -0.0758
24339W        W24539   3.874   4.347  16.681 -0.1233 -0.0162  0.0601
24340W        W24540  16.186   4.266  16.803  0.1328  0.0282  0.0935
24341W        W24541   2.627   9.901   7.021  0.0277  0.1228 -0.1021
24342W        W24542   9.466  11.497   2.744  0.0588  0.2347  0.0640
24343W        W24543   9.559  11.988   7.904 -0.1053 -0.0224 -0.1593
24344W        W24544   6.522   5.305  17.373 -0.0842  0.1790  0.0311
24345W        W24545   9.116  13.553  14.415 -0.3396  0.1664  0.1739
24346W        W24546   4.489   5.488   0.833 -0.2441  0.0563 -0.0381
24347W        W24547   2.772  16.292  12.637  0.0906 -0.0750 -0.2160
24348W        W24548   7.443   8.598   9.876  0.2958  0.0776  0.3728
24349W        W24549   9.889   9.299   8.080 -0.1897  0.1876  0.0089
24350W        W24550   8.612   5.934   0.229 -0.2204  0.3472 -0.0418
24351W        W24551  17.034   3.695   0.533  0.0479  0.3725  0.5328
24352W        W24552   6.913  11.122   5.929  0.2976  0.0397  0.0511
24353W        W24553   5.272   5.581   3.957 -0.0998 -0.0299  0.0269
24354W        W24554   8.063  10.223  14.520 -0.1799 -0.1278 -0.4034
24355W        W24555   4.737  13.498   7.480  0.1744 -0.1645  0.2225
24356W        W24556  14.426  10.226  10.969  0.0151 -0.0492 -0.0591
24357W        W24557  16.720   9.789  15.342  0.0900 -0.1040 -0.0475
24358W        W24558   2.430  14.189  17.595 -0.0839 -0.0427 -0.1352
24359W        W24559  15.403   5.886  15.722  0.0184 -0.1405  0.1063
24360W        W24560   6.136  14.497  14.070  0.0882 -0.0504  0.1296
24361W        W24561  17.030   7.988  15.788  0.2658 -0.1996  0.1601
24362W        W24562  10.517   6.298  16.494 -0.0192  0.0678  0.2258
24363W        W24563  16.656   6.726   1.022 -0.1466 -0.0962 -0.4674
24364W        W24564   8.932  15.742  16.222 -0.0234  0.0175  0.1758
24365W        W24565  14.117  11.860   9.782 -0.0487 -0.0230  0.0458
24366W        W24566   1.635   0.395   3.401  0.1689 -0.3442  0.1570
24367W        W24567  16.160   7.893  12.386 -0.0715 -0.4638 -0.1539
24368W        W24568   8.991   7.783  11.221  0.0158 -0.2819  0.0714
24369W        W24569  10.471  15.977   8.956  0.1206 -0.1572 -0.2155
24370W        W24570  18.015  14.201   6.098  0.3203 -0.1065 -0.2514
24371W        W24571  11.881   1.859   0.033 -0.2053 -0.1420  0.0545
24372W        W24572   3.496   6.654  13.010 -0.1023  0.1644 -0.1213
24373W        W24573   7.468   0.476  11.585  0.1252  0.0340 -0.0291
24374W        W24574   5.537  17.259   3.267  0.1592  0.4459 -0.3672
24375W        W24575   7.380   9.014   0.824 -0.3915  0.0670  0.3286
24376W        W24576   2.468   1.888   7.849 -0.1733  0.2833  0.2939
24377W        W24577   9.541  10.519  13.364  0.1592 -0.1237 -0.2634
24378W        W24578  15.440   7.617   0.877  0.1249  0.2990  0.2152
24379W        W24579   9.550   9.288  17.679  0.1256  0.0042 -0.0023
24380W        W24580   5.071   7.533   9.534  0.2043 -0.1348 -0.1987
24381W        W24581   7.443   6.623   5.762  0.0628 -0.0122  0.0438
24382W        W24582   2.454  13.712  17.757  0.3945 -0.0889  0.0829
24383W        W24583   2.666   4.814  16.449 -0.0171 -0.2526 -0.0543
24384W        W24584  16.971   6.476   5.720  0.1517  0.2522  0.0851
24385W        W24585   4.288   8.003   3.489 -0.1397  0.2238  0.2701
24386W        W24586   5.952  14.664  14.702  0.0540  0.3864  0.0433
24387W        W24587  13.036  12.926  14.834 -0.1001  0.1505 -0.0994
24388W        W24588  11.813  11.131   3.572  0.2350 -0.1811 -0.0657
24389W        W24589   9.217  16.580  10.633  0.0437 -0.1288 -0.1837
24390W        W24590   5.154  11.710   4.888 -0.1020  0.1549 -0.1626
24391W        W24591   3.540  11.051  13.206 -0.3211  0.3129  0.3078
24392W        W24592   0.458   8.894   8.179 -0.2834  0.1480  0.1292
24393W        W24593  17.157   2.419  17.555 -0.3138  0.1064 -0.3610
24394W        W24594   7.078  11.911  16.358 -0.0549  0.0025 -0.0312
24395W        W24595  13.716  10.615  13.327  0.0059 -0.0618 -0.0117
24396W        W24596   3.592   7.279  16.100 -0.1735  0.0523 -0.0751
24397W        W24597   2.802  11.844   8.914 -0.0150  0.1610  0.0852
24398W        W24598  11.277  12.424   8.099  0.0432 -0.3847 -0.1545
24399W        W24599   0.606  14.849   0.954  0.0931  0.0451 -0.0745
24400W        W24600   3.740   9.246  11.236 -0.0482 -0.3176  0.3056
24401W        W24601   8.898   8.561   6.629 -0.1806  0.1492  0.1051
24402W        W24602   0.305   6.293  15.497  0.2262  0.3652  0.1191
24403W        W24603   9.360   6.475   2.230 -0.1386  0.0998  0.1011
24404W        W24604   7.852  11.039  18.026 -0.2323  0.0195  0.2120
24405W        W24605  18.104  13.860   2.573 -0.0017 -0.2718 -0.1269
24406W        W24606  16.923  12.952  14.525  0.1106 -0.1440  0.2986
24407W        W24607   7.114   6.218   6.893 -0.1583 -0.0272  0.0247
24408W        W24608   8.719   8.600   3.449  0.2957  0.0324 -0.0528
24409W        W24609   9.856  10.852   8.884 -0.1896 -0.1205 -0.2587
24410W        W24610  12.178  17.382   9.189 -0.1557  0.0274 -0.1442
24411W        W24611  16.082  17.394   6.505 -0.0514 -0.0040 -0.0500
24412W        W24612  16.246   7.192   3.436 -0.0076  0.0458 -0.2589
24413W        W24613   9.526  10.196   4.293 -0.1818  0.1667 -0.1668
24414W        W24614   6.210  10.388   9.784  0.4132  0.0777  0.0931
24415W        W24615  10.225  10.777  12.186  0.1841  0.2225 -0.1517
24416W        W24616   1.181  11.639   0.420  0.0941 -0.2439 -0.1432
24417W        W24617   2.211   9.561   9.454 -0.1065  0.4268 -0.0728
24418W        W24618   6.370   1.017   2.598 -0.0112  0.3795  0.1187
24419W        W24619  11.278  15.039   6.075 -0.1684  0.1176 -0.4386
24420W        W24620   9.943   1.774   7.399 -0.1931  0.1326  0.1270
24421W        W24621   7.308   8.756   7.521  0.1684  0.0337  0.1892
24422W        W24622  11.515  11.605  17.876  0.0771 -0.1494 -0.2596
24423W        W24623   2.706  17.947   6.490 -0.2343 -0.1650  0.2525
24424W        W24624   9.228  16.123   4.777  0.2261  0.2354 -0.0841
24425W        W24625   0.183   1.460   0.907 -0.0537 -0.3549 -0.1733
24426W        W24626   5.941  14.248   4.758  0.1798 -0.4300  0.0415
24427W        W24627   8.547  15.998  10.888 -0.0652 -0.0541 -0.0876
24428W        W24628   3.540  10.864  10.004  0.0603 -0.1208 -0.2596
24429W        W24629  14.122   1.250   4.559 -0.0541  0.0170 -0.4036
24430W        W24630   6.790  17.062   4.265  0.2164  0.3053 -0.0402
24431W        W24631   1.874   8.596   2.768 -0.2709 -0.0248  0.0624
24432W        W24632   3.673   8.749   3.906 -0.1914 -0.0331  0.2002
24433W        W24633   7.624  11.345   8.282 -0.1364 -0.0912  0.2081
24434W        W24634   6.718   7.933   8.895  0.2422  0.0578  0.1955
24435W        W24635   2.433   5.759   8.508 -0.1766  0.1986  0.2600
24436W        W24636  15.592   9.575  16.738 -0.0381  0.0252 -0.1254
24437W        W24637   8.307   6.005  13.345 -0.1633  0.0706  0.1995
24438W        W24638   4.299   9.144  15.954  0.2448 -0.1518  0.0866
24439W        W24639   2.017  13.575  13.742 -0.1200 -0.1113 -0.2220
24440W        W24640   9.014  13.684   0.039  0.2747  0.2294  0.1385
24441W        W24641   9.127   8.062   9.399  0.0428 -0.0034  0.2610
24442W        W24642   7.279  14.597  17.285  0.0417 -0.0709 -0.0306
24443W        W24643   8.210  12.447  17.037  0.1158 -0.0295 -0.0632
24444W        W24644  12.233  11.138   7.317 -0.0619 -0.0785 -0.0245
24445W        W24645   2.227  12.258   7.839  0.1393  0.2988  0.2048
24446W        W24646   8.727  11.409   9.931 -0.1038  0.1105  0.1694
24447W        W24647  11.491  10.796   8.474  0.1012  0.0045 -0.0413
24448W        W24648   5.758   5.427   1.125 -0.1321 -0.0288  0.0305
24449W        W24649  12.908  11.338   5.517 -0.3401 -0.0759  0.1475
24450W        W24650   7.901  11.886  12.180 -0.5059  0.1147  0.0072
24451W        W24651   6.177  13.280  16.856 -0.1894  0.0142 -0.0998
24452W        W24652  10.343   8.779   9.861  0.2183 -0.4224 -0.5659
24453W        W24653  15.694  11.931  11.331  0.0778  0.2139 -0.1078
24454W        W24654   4.816   8.048  12.827 -0.0749  0.1956  0.0174
24455W        W24655   9.108   5.990   6.899  0.1229 -0.2906  0.0026
24456W        W24656  12.172  17.103  14.236  0.1372  0.2383 -0.2237
24457W        W24657   3.564   8.285  14.013  0.0713 -0.3365 -0.1457
24458W        W24658  15.928  14.858  10.197  0.3454 -0.1601 -0.0817
24459W        W24659  14.212   7.617   3.946 -0.1380 -0.2811  0.0487
24460W        W24660   6.908   7.523   4.279 -0.0678  0.0314 -0.1851
24461W        W24661  15.543   8.635  17.711 -0.1774 -0.1808 -0.0777
24462W        W24662  17.717   7.046   5.904  0.3728  0.1859 -0.0686
24463W        W24663  11.116   9.710  12.805 -0.2241  0.1371 -0.2306
24464W        W24664   7.480   2.648   3.159  0.1263  0.0839  0.0748
24465W        W24665   1.101   6.814   7.936 -0.3105  0.3297 -0.1859
24466W        W24666  11.919  10.492   9.759 -0.1688 -0.2679 -0.2758
24467W        W24667  10.634   3.543   7.554 -0.2446  0.1048 -0.3869
24468W        W24668  10.164   9.860  12.929  0.0616 -0.2943  0.1283
24469W        W24669   3.521   5.651  14.721 -0.0157 -0.0812 -0.0119
24470W        W24670   7.099   8.478   3.966  0.0539 -0.1330 -0.0420
24471W        W24671   7.232   1.550  10.019 -0.0424 -0.2342  0.1360
24472W        W24672  13.082   5.496   7.180  0.0277  0.1756 -0.3234
24473W        W24673  13.250   5.145   9.083  0.0324  0.1089 -0.2002
24474W        W24674   4.563   7.419   7.157 -0.2032 -0.0569  0.0260
24475W        W24675   4.343  10.563   1.653  0.0617  0.0882 -0.0518
24476W        W24676   1.251   5.716   3.110  0.0526  0.2930  0.0955
24477W        W24677   4.712   9.095  10.556  0.1827  0.3145 -0.0571
24478W        W24678   8.726   6.716  15.388  0.0883  0.1916  0.1221
24479W        W24679  14.187   7.318   0.271  0.1378  0.0715  0.2592
24480W        W24680  15.312   4.099   7.287  0.1320 -0.0280 -0.4251
24481W        W24681   8.947   8.933  11.669 -0.3103 -0.3285  0.2066
24482W        W24682  15.412  10.011   2.105 -0.0935 -0.3054  0.0036
24483W        W24683  14.836   5.280   0.027 -0.1945  0.0468 -0.0925
24484W        W24684   9.768   0.382   7.168  0.1800 -0.0971 -0.2153
24485W        W24685   9.621   6.769   1.276 -0.0052 -0.0897 -0.0065
24486W        W24686   2.434  10.333   6.829  0.0203  0.2225 -0.2170
24487W        W24687   7.093   5.636  10.241  0.1551  0.2121  0.0369
24488W        W24688   5.857  11.959   7.338  0.1937  0.1640  0.0597
24489W        W24689   9.474  13.855   1.220  0.0275  0.1401  0.4072
24490W        W24690  17.571   7.606   5.758  0.0269 -0.2157 -0.2064
24491W        W24691   9.981   1.463  11.620 -0.3947  0.3141 -0.1887
24492W        W24692  11.130   8.313  11.370  0.1525 -0.1308  0.1058
24493W        W24693   0.068   9.551   8.345  0.0013  0.2274  0.0551
24494W        W24694   7.188   8.038   3.097  0.2205  0.2715 -0.1042
24495W        W24695  12.256   9.032  17.997  0.1490  0.1672  0.2843
24496W        W24696  10.079   5.526   9.063 -0.2832  0.3840 -0.1877
24497W        W24697  14.372  11.182   5.850  0.1517 -0.0913  0.0661
24498W        W24698  12.690  12.836   7.337  0.2060  0.0847  0.1968
24499W        W24699  16.217  15.694   2.708 -0.1722 -0.3856  0.0418
24500W        W24700   0.880   6.764   2.457  0.0870 -0.1157  0.0070
24501W        W24701   6.504   9.410   4.660  0.1770  0.0629 -0.1044
24502W        W24702   0.325  11.084   8.106  0.1563 -0.1511 -0.0632
24503W        W24703   7.427   1.319   3.780  0.1750  0.2684  0.0255
24504W        W24704  10.485  15.727   7.672 -0.1236  0.0828 -0.0619
24505W        W24705   7.644   9.076  16.228  0.0366  0.0142 -0.0367
24506W        W24706  14.614   5.166   5.564 -0.2020  0.4365  0.1914
24507W        W24707   9.570  13.771   5.665 -0.0861 -0.2780  0.0160
24508W        W24708  12.481  11.503   5.357  0.0370  0.1179  0.5421
24509W        W24709   6.696  11.008  17.117 -0.4510 -0.0260  0.0779
24510W        W24710  12.525   5.978   5.293  0.2269 -0.0876 -0.1043
24511W        W24711   2.495  14.620  17.899 -0.3123 -0.3094  0.0882
24512W        W24712  12.499  12.818   2.831  0.1240  0.1616  0.1165
24513W        W24713   0.071  15.158   3.284 -0.0529 -0.0805 -0.1641
24514W        W24714  12.723   3.774   6.229  0.0269 -0.0946 -0.2876
24515W        W24715   9.450  12.004   9.298 -0.1420  0.0727 -0.1033
24516W        W24716   0.593  11.327  15.096  0.4279  0.0900 -0.2121
24517W        W24717  11.807   9.125   9.947 -0.2363 -0.1945 -0.1687
24518W        W24718   4.814   7.889  10.913 -0.2912 -0.1460  0.0918
24519W        W24719   3.131  13.002   7.806  0.1508  0.1791 -0.0328
24520W        W24720  10.939  11.376  10.302  0.0062  0.1151 -0.0754
24521W        W24721   2.849  14.305   8.133  0.1132  0.1739  0.1369
24522W        W24722   7.207  16.702   1.548 -0.3370  0.2419 -0.0402
24523W        W24723  16.928  16.154  17.524  0.1934  0.3578  0.2217
24524W        W24724   9.910   8.590   1.908  0.0598 -0.3119 -0.0400
24525W        W24725   3.798   0.890   7.188  0.1919  0.1298  0.0861
24526W        W24726   0.928   5.299  12.709  0.0705  0.1179 -0.0031
24527W        W24727  13.883  15.925  16.462  0.1141  0.3943 -0.2496
24528W        W24728  12.958   3.702   3.746  0.1655 -0.1240 -0.0986
24529W        W24729   8.440  16.786   8.238  0.0948  0.0963 -0.1066
24530W        W24730  10.656   7.652   2.787 -0.1242 -0.1037  0.1331
24531W        W24731  12.107  12.735   3.877  0.0356 -0.0055  0.0120
24532W        W24732   3.231   5.841   7.244  0.0887 -0.1163 -0.0354
24533W        W24733   2.291  12.871   3.719 -0.0649 -0.0408 -0.1390
24534W        W24734   7.564  14.660   5.692 -0.0853  0.1852  0.2614
24535W        W24735  10.928  12.052   4.323  0.1116 -0.1129  0.0703
24536W        W24736  14.651  15.185   1.032 -0.1943 -0.1852  0.1850
24537W        W24737   2.318   4.355   5.435  0.0555  0.0217 -0.0256
24538W        W24738   6.035   7.752   1.117 -0.0732  0.2463  0.0071
24539W        W24739   9.701  15.868   5.248  0.0644  0.2553  0.3183
24540W        W24740  10.833   0.927   3.217 -0.0563 -0.1574  0.1015
24541W        W24741   9.643   5.098   1.528 -0.0259  0.2734 -0.1127
24542W        W24742   3.151   7.863  12.191  0.1570 -0.1157  0.1888
24543W        W24743   4.584  10.697   5.138  0.1511 -0.0226 -0.1203
24544W        W24744   8.369   8.506   4.550 -0.0067  0.0772 -0.3135
24545W        W24745   4.498  13.745  11.009 -0.0972 -0.0190 -0.0760
24546W        W24746  14.166  12.376   4.622  0.0854  0.0484  0.0356
24547W        W24747   6.684  10.787   1.800  0.0600 -0.0466 -0.1986
24548W        W24748   5.816   5.329  13.409  0.1773  0.0104  0.0787
24549W        W24749  11.401  17.829   6.170  0.0829 -0.1102 -0.2344
24550W        W24750  12.009   6.458   5.565  0.0714 -0.1710  0.1624
24551W        W24751   4.714   5.544   2.955  0.1018  0.0750  0.2667
24552W        W24752   7.115  10.909  13.793 -0.0184 -0.2472  0.2993
24553W        W24753   3.988   1.028   0.637 -0.0264  0.2763 -0.3064
24554W        W24754   8.966   4.273  13.798  0.0590  0.1448 -0.1163
24555W        W24755   4.688  12.256   5.039 -0.3627 -0.0830 -0.3014
24556W        W24756  13.158  12.395  10.315  0.0929  0.2693  0.1919
24557W        W24757   9.239  11.631  13.041  0.2533  0.1813  0.1223
24558W        W24758   8.024   0.561   9.428  0.1899  0.0649  0.1204
24559W        W24759   7.267   4.644   2.242 -0.4796 -0.0687  0.2257
24560W        W24760   5.443  12.101  10.386  0.0619  0.0765  0.1362
24561W        W24761   4.462  10.777   5.703 -0.0666 -0.0242  0.0425
24562W        W24762   9.784  12.898   7.718 -0.1919 -0.0564 -0.0820
24563W        W24763   9.048   5.366   3.574 -0.0432 -0.0466  0.1571
24564W        W24764   4.922   9.933   8.885 -0.1424 -0.3036  0.0528
24565W        W24765   8.976   1.159   3.736 -0.1027 -0.0621  0.0654
24566W        W24766  13.186   8.897   3.826 -0.1674  0.1492 -0.2414
24567W        W24767   5.706  11.083   8.740 -0.4189 -0.2105 -0.0187
24568W        W24768   4.948   6.899  10.229 -0.1011  0.0304  0.1924
24569W        W24769   8.715  17.157   8.814 -0.3011  0.0023 -0.0916
24570W        W24770   5.326  14.554  14.689  0.0986  0.4057  0.0154
24571W        W24771  14.798   8.890   0.972 -0.0774 -0.1893  0.0517
24572W        W24772   6.819  13.734  16.094 -0.0878 -0.0071  0.1142
24573W        W24773   5.893  12.871   8.412 -0.0994  0.0155 -0.0789
24574W        W24774  10.349  12.100   5.808  0.4161  0.1817  0.0375
24575W        W24775  13.466   9.685  12.944 -0.2217  0.1130  0.2474
24576W        W24776   7.431   5.188   6.861 -0.2402 -0.4026  0.0302
24577W        W24777  10.317   9.284   0.682 -0.1958  0.0889 -0.0752
24578W        W24778   7.214  12.395   5.924  0.3383  0.1384  0.3718
24579W        W24779   6.907   2.465   4.668 -0.2822 -0.2075 -0.0113
24580W        W24780  10.983   2.036   5.919  0.0539  0.2069 -0.1749
24581W        W24781  10.953   9.295   5.892  0.1448  0.1275  0.2033
24582W        W24782  18.133  12.703   2.420 -0.0695 -0.0151 -0.3680
24583W        W24783  11.263   3.918   3.475  0.1866  0.2338  0.1384
24584W        W24784   8.648   6.391  18.169 -0.1511  0.1864  0.0205
24585W        W24785  11.573   5.738   4.044  0.0073  0.2474  0.0129
24586W        W24786   4.628  11.606   1.701  0.0845 -0.0820  0.0382
24587W        W24787  10.494   6.900   9.621  0.0246 -0.0853  0.1058
24588W        W24788   6.219  16.987   9.130  0.2950  0.0462 -0.0463
24589W        W24789  11.355  13.003   6.043 -0.1726 -0.0341  0.1269
24590W        W24790  16.837  16.439   5.662 -0.0804  0.0960 -0.2175
24591W        W24791  17.537   1.501   4.883  0.0363 -0.0581  0.0726
24592W        W24792  13.364  16.050   2.020  0.0362 -0.2437 -0.1124
24593W        W24793  14.314  16.543   4.250 -0.0114  0.1006 -0.4092
24594W        W24794  10.115   7.979   1.414 -0.1173  0.2277  0.0431
24595W        W24795   1.400  13.379  17.527 -0.2342  0.1341 -0.0178
24596W        W24796  16.144   5.715   4.783  0.0981 -0.0420  0.1379
24597W        W24797  10.218   1.857   8.953 -0.1296 -0.1090 -0.3517
24598W        W24798   2.639   6.452   0.879  0.0180  0.1680  0.0722
24599W        W24799  16.275   9.937   2.490 -0.0141  0.1805  0.0011
24600W        W24800  14.902  10.340   5.996 -0.2322 -0.1835 -0.3011
24601W        W24801   2.134   3.390   5.817 -0.4686 -0.2341  0.2638
24602W        W24802  10.108  17.697  12.088  0.3438  0.1462 -0.1793
24603W        W24803   8.355  12.384   3.381  0.0488  0.1281  0.2606
24604W        W24804  16.308   2.086   1.638  0.0451 -0.2431 -0.0244
24605W        W24805   3.490   6.699   9.869  0.2498  0.1962 -0.0575
24606W        W24806   4.293   6.521   2.656 -0.0303  0.0719  0.0293
24607W        W24807  12.856  11.922   9.154 -0.3886  0.0190  0.0770
24608W        W24808  14.712  12.507   1.540 -0.3136  0.0822  0.1321
24609W        W24809   7.860  10.532  10.364 -0.4610  0.2730  0.0330
24610W        W24810   5.246   6.917   2.395  0.2654 -0.0382 -0.2829
24611W        W24811   4.703   5.988  15.288 -0.0324  0.2457  0.1267
24612W        W24812  14.763   3.250   3.808 -0.1130 -0.0655  0.0818
24613W        W24813   7.893   3.967  12.588 -0.2760 -0.0727 -0.1832
24614W        W24814   4.117   0.350  12.290 -0.0479  0.2935  0.3148
24615W        W24815   3.306  14.096  15.388  0.0874 -0.1418 -0.0957
24616W        W24816  12.473   5.742  15.342  0.0826 -0.0214  0.0662
24617W        W24817   6.941   8.653   4.776  0.3748 -0.1208 -0.2038
24618W        W24818  15.019  10.343  13.041 -0.1484 -0.0744  0.3240
24619W        W24819   9.469  13.633  11.094  0.0622 -0.1362 -0.2199
24620W        W24820   6.299   9.493   6.242 -0.0443  0.1342 -0.1058
24621W        W24821  13.287  14.745  10.868  0.2233 -0.1513 -0.2721
24622W        W24822  17.621   3.866   7.111  0.0485 -0.0130  0.0642
24623W        W24823  13.845   9.270   8.111 -0.0830  0.1487 -0.0550
24624W        W24824  14.670  12.234   5.927  0.0941  0.1225 -0.0939
24625W        W24825  10.544   8.841   5.801  0.2424  0.0203 -0.2009
24626W        W24826  11.702   4.625   6.768  0.0599 -0.0879 -0.0464
24627W        W24827  17.013   9.908  11.374  0.0739  0.0593 -0.0286
24628W        W24828   8.673   7.542   6.390 -0.1909  0.1272  0.1435
24629W        W24829   8.031   8.186   7.311  0.0765  0.2304  0.0144
24630W        W24830   7.616  13.256   4.231 -0.0281  0.3079  0.1839
24631W        W24831   6.598   7.725  16.302 -0.2870  0.0870  0.4065
24632W        W24832   3.349  13.041   4.947  0.1068  0.0730 -0.1331
24633W        W24833  14.687   2.255  10.112 -0.2711  0.2921  0.1131
24634W        W24834  10.073  10.305   4.812 -0.1501 -0.0478 -0.1915
24635W        W24835   7.430   1.879  17.451  0.1203  0.2413 -0.0996
24636W        W24836   9.405   6.961   9.575  0.0799 -0.0179 -0.3331
24637W        W24837  12.039  15.046   6.607 -0.4769  0.3838  0.0356
24638W        W24838   3.849  11.667   4.081  0.1800 -0.1455 -0.3880
24639W        W24839  11.833   8.701   5.766  0.0870 -0.2058  0.0129
24640W        W24840   7.961  15.716   1.525  0.0547 -0.1879  0.4193
24641W        W24841   7.959  10.712  10.958  0.0234 -0.0172 -0.0342
24642W        W24842  12.891   3.805   9.661  0.1555  0.2195 -0.1095
24643W        W24843  14.753   0.896  10.637  0.0003  0.0515 -0.1201
24644W        W24844  15.343   0.345  12.580  0.0521 -0.0413 -0.1698
24645W        W24845  12.401  12.998  10.696 -0.2448  0.1050  0.3183
24646W        W24846   9.459   6.159  10.100 -0.4887  0.1102 -0.0938
24647W        W24847   8.380   4.718   9.199 -0.1942  0.0036  0.4790
24648W        W24848   7.116  11.111  11.033  0.1176 -0.0760  0.1451
24649W        W24849   8.232  13.964   7.762  0.0595 -0.1249 -0.4964
24650W        W24850  11.831  17.014  14.719 -0.0692 -0.2912 -0.2529
24651W        W24851  11.780   0.982   3.122  0.0187 -0.0797 -0.0599
24652W        W24852   6.310  10.235  17.143 -0.2684 -0.4078  0.1656
24653W        W24853  13.198  13.875  10.166 -0.0995 -0.0401 -0.0381
24654W        W24854  10.008  12.026   3.426  0.2761 -0.3965  0.1871
24655W        W24855  15.918  11.501   1.918 -0.0422 -0.0817  0.0664
24656W        W24856   4.839  10.680   4.295  0.0131  0.3149  0.0197
24657W        W24857   5.738  17.995   5.394 -0.0504  0.1955  0.1048
24658W        W24858   6.804  11.033   5.452 -0.3441  0.1620 -0.1973
24659W        W24859   6.280   6.676   9.607 -0.0768 -0.0054  0.1170
24660W        W24860  10.350   9.319   5.853 -0.1114 -0.3015 -0.0687
24661W        W24861  14.083   6.671   8.412  0.0798  0.2503 -0.0353
24662W        W24862   3.819  12.068   7.341 -0.1519 -0.2515 -0.0360
24663W        W24863  10.378   8.676   1.874  0.1733  0.0109  0.0808
24664W        W24864  16.100   9.329  14.054 -0.1453  0.0517  0.2509
24665W        W24865  13.056  11.371   7.376  0.0355 -0.0654  0.0713
24666W        W24866   9.196   7.829   7.852  0.3492 -0.2012 -0.0642
24667W        W24867   9.207   9.186   4.731  0.0023 -0.0245  0.1347
24668W        W24868   3.903   1.198  11.644 -0.3195 -0.1845 -0.0054
24669W        W24869  10.362   5.276   4.186  0.1884  0.0511  0.0908
24670W        W24870  12.543  10.075   9.273 -0.1383 -0.2062  0.1789
24671W        W24871  13.797   3.506   8.352  0.0963  0.0345 -0.1643
24672W        W24872  11.432  10.115   6.666  0.0913  0.0646 -0.1376
24673W        W24873   5.277   6.669   4.650  0.5296  0.6704 -0.1873
24674W        W24874  16.004  11.313   2.474 -0.1151  0.0144  0.1529
24675W        W24875  12.812  12.295   3.716 -0.0429 -0.0924  0.0093
24676W        W24876   9.383  14.798  10.376  0.0543 -0.0825  0.2194
24677W        W24877   4.487  15.701   6.514 -0.0136 -0.4546 -0.1794
24678W        W24878   0.450  14.951   1.900 -0.0389 -0.4947  0.1796
24679W        W24879  14.036  12.510   7.070 -0.1806 -0.1948  0.0465
24680W        W24880   4.294  16.967   6.095 -0.2676 -0.3469 -0.0993
24681W        W24881  10.191  11.172   6.386 -0.2077  0.0735 -0.1666
24682W        W24882   9.638  11.365   4.884  0.1857  0.1674  0.1828
24683W        W24883   1.689   4.941  13.643 -0.2122  0.4389  0.1888
24684W        W24884  11.160  11.329   2.916  0.1647  0.0609 -0.3471
24685W        W24885  13.056   7.663  17.096  0.0812 -0.1300 -0.3057
24686W        W24886   0.298  17.958   8.807  0.2712  0.2464 -0.0779
24687W        W24887   8.258   8.936  16.267 -0.1355  0.0334 -0.1244
24688W        W24888  15.434   7.152  11.045 -0.5714 -0.1285 -0.2773
24689W        W24889  16.951   7.423   0.042  0.2016  0.1997  0.2052
24690W        W24890  14.993   3.770   5.553 -0.4700  0.0615 -0.1212
24691W        W24891  12.360   8.222   4.478  0.2930 -0.3753  0.0974
24692W        W24892   5.797   6.566   3.484  0.1252 -0.0599  0.2183
24693W        W24893   9.153  16.888   3.458  0.1349 -0.0389  0.1090
24694W        W24894   5.129   3.773  17.451  0.2225  0.2208 -0.0035
24695W        W24895  11.654  14.377   3.926  0.0063  0.1137 -0.3292
24696W        W24896   9.888  10.054   3.528  0.1170  0.0502  0.0782
24697W        W24897  12.350   3.450  16.273 -0.1463  0.2067  0.0591
24698W        W24898  14.100   8.683  17.780 -0.3155 -0.1504 -0.1743
24699W        W24899   8.575   8.018  11.617 -0.2816  0.1382  0.1113
24700W        W24900  10.936   7.379   5.317 -0.0576  0.2846  0.0458
24701W        W24901   4.520  11.401  11.061 -0.1029 -0.0256  0.2920
24702W        W24902   6.118  12.661   0.924  0.0777 -0.4598  0.0646
24703W        W24903   6.614   1.243   7.550 -0.1550 -0.1880  0.2018
24704W        W24904  10.863   3.529  13.570  0.1511  0.1190 -0.1248
24705W        W24905   3.141   6.120  17.990  0.0087 -0.0108  0.2135
24706W        W24906   4.573  11.039  12.420 -0.2534  0.2820  0.0662
24707W        W24907  11.660  13.271  15.175  0.1997 -0.0690 -0.2381
24708W        W24908   8.674  10.015  18.002  0.1703  0.2304 -0.2337
24709W        W24909  17.543  15.795   0.354  0.0476 -0.0924  0.2161
24710W        W24910   8.026   3.995   0.639  0.1534 -0.1914 -0.1554
24711W        W24911   8.927   2.890   3.032 -0.2463 -0.3863  0.0560
24712W        W24912   7.786  12.258   3.967 -0.0763 -0.1311 -0.0565
24713W        W24913   3.160   8.777   3.622  0.3421 -0.2045  0.0469
24714W        W24914   5.600   3.863  17.048  0.0467  0.1883 -0.2536
24715W        W24915   9.594  11.959   2.981 -0.0437 -0.1494  0.1528
24716W        W24916   8.932  10.548   6.894  0.3833  0.0358 -0.1816
24717W        W24917   7.967  14.951   8.669 -0.0052  0.0338 -0.2669
24718W        W24918  14.338  16.279   8.384 -0.0875  0.1512 -0.2498
24719W        W24919  16.108   8.008  17.184 -0.2115  0.1401  0.2735
24720W        W24920  13.428  13.766   9.327  0.0488  0.1802  0.3807
24721W        W24921  10.355  12.877   9.572  0.1180 -0.0649  0.1118
24722W        W24922   2.733  11.364  10.159  0.1677 -0.1037 -0.3267
24723W        W24923   9.487  10.434   5.921  0.3559 -0.3055  0.0463
24724W        W24924  16.357   1.665   9.567  0.3455 -0.0113  0.0730
24725W        W24925  13.949  15.390   8.205  0.1824 -0.1457 -0.1137
24726W        W24926  12.592   6.503   4.421 -0.0341  0.0334 -0.1466
24727W        W24927  10.772   1.893   0.300 -0.0062  0.5351 -0.1857
24728W        W24928   6.659  12.290   8.487  0.5064 -0.0522 -0.3033
24729W        W24929   8.156  10.530   6.526  0.1626  0.0599  0.0083
24730W        W24930  11.371   3.134   7.029  0.0666  0.3020 -0.0295
24731W        W24931   4.156  13.501   6.235  0.3746  0.0753  0.2688
24732W        W24932   8.359  16.470   3.812 -0.0111  0.0951 -0.1054
24733W        W24933  15.750   8.291   9.822 -0.2239 -0.2349  0.0520
24734W        W24934   9.784  10.901   7.732  0.0495 -0.1107 -0.1642
24735W        W24935  10.499   9.549   1.092  0.0798  0.0239  0.0365
24736W        W24936   3.947   6.909   9.975 -0.1839 -0.1135  0.0128
24737W        W24937   8.016   3.992   9.474 -0.0853 -0.0328  0.1828
24738W        W24938  12.172   7.682   6.524  0.3486  0.2745  0.0577
24739W        W24939  17.926   3.092   6.998  0.2398 -0.0675 -0.2550
24740W        W24940   0.630   2.319   5.186  0.0794 -0.1534 -0.0221
24741W        W24941  12.139   1.871   7.206 -0.3148  0.1445 -0.0138
24742W        W24942   8.268  13.468   7.774  0.0425  0.1902 -0.3437
24743W        W24943  12.038  11.997  17.043  0.0843  0.0190  0.0292
24744W        W24944   8.743   2.544   0.364  0.0046  0.0190 -0.2743
24745W        W24945   5.492   2.724   4.766 -0.2795  0.0822 -0.0238
24746W        W24946   4.041   8.639   7.406 -0.2638 -0.1181 -0.0162
24747W        W24947  15.999  10.851   2.936  0.1006 -0.0395  0.0233
24748W        W24948   5.481  13.055  13.308  0.3377  0.3630  0.2640
24749W        W24949   6.184   5.796   3.983  0.1587  0.0253  0.0124
24750W        W24950   4.122  15.966   5.193 -0.0851 -0.0982 -0.0226
24751W        W24951  10.892  13.419   9.329  0.0492  0.2395  0.2068
24752W        W24952   7.395   4.915   9.618  0.0768 -0.2402 -0.0773
24753W        W24953   0.041   7.165   7.288 -0.0123  0.1590  0.1002
24754W        W24954  17.078  11.904   1.611 -0.0276 -0.1341 -0.0556
24755W        W24955   3.531  11.031   7.290  0.0269  0.0913 -0.1675
24756W        W24956   2.059   9.361  12.698 -0.1352 -0.2220 -0.0274
24757W        W24957   6.995   7.524  14.020 -0.3003 -0.1512  0.0302
24758W        W24958   3.765  11.851   1.707 -0.3298  0.3873 -0.1237
24759W        W24959  12.685   1.501   9.565 -0.0581  0.1642  0.0906
24760W        W24960   6.478  13.206   8.180  0.0844 -0.1504  0.1789
24761W        W24961   3.893   7.830   9.405  0.1009 -0.0994  0.1088
24762W        W24962  14.348  14.284   7.956 -0.0336 -0.1256  0.1230
24763W        W24963  16.083  10.739  18.147  0.1650  0.0908 -0.3159
24764W        W24964   0.163   6.554   5.210 -0.1485  0.0847  0.1410
24765W        W24965   1.421   6.115   2.816  0.2361 -0.0066 -0.1972
24766W        W24966   3.626  12.192   6.886 -0.1275  0.0673 -0.0214
24767W        W24967  14.461  11.275   6.698  0.2497  0.2038  0.1274
24768W        W24968  17.490  15.303   4.561  0.1419  0.0483 -0.1114
24769W        W24969   0.268  11.608   4.810  0.0350 -0.0329  0.1266
24770W        W24970  10.997  13.915   9.345  0.2435  0.0586 -0.0537
24771W        W24971   8.033   7.297   2.573  0.3092  0.3079 -0.0424
24772W        W24972   5.762   6.362   8.427  0.0239  0.1546  0.1130
24773W        W24973  13.770   6.686   4.309  0.0146 -0.0068  0.0009
24774W        W24974  11.088   4.436  16.596  0.1944  0.1184  0.0003
24775W        W24975   4.726  10.820  16.457  0.0929  0.2193  0.0143
24776W        W24976   6.839   1.416  13.486 -0.2314 -0.1384 -0.1267
24777W        W24977  17.289   0.935   0.014  0.1348  0.1126  0.1426
24778W        W24978  12.025   4.195   3.773  0.0794 -0.1766 -0.2705
24779W        W24979  16.558  15.145   2.861 -0.2550 -0.0421 -0.0674
24780W        W24980   8.112   8.770   8.637 -0.1056 -0.1488 -0.1122
24781W        W24981   8.395   9.898   0.843 -0.0450  0.0833 -0.0120
24782W        W24982   2.879   3.107  12.175 -0.1155 -0.2191  0.1139
24783W        W24983   8.728   5.657   4.678  0.1606 -0.1587  0.1866
24784W        W24984  10.976   9.555  11.825 -0.0433  0.2556 -0.0754
24785W        W24985  10.629   4.405   4.755  0.1634  0.1176  0.0566
24786W        W24986  12.967   6.519   7.129 -0.4061  0.2376  0.0619
24787W        W24987   8.056   6.129   1.804 -0.0914  0.1092 -0.0969
24788W        W24988   8.873   4.312  17.084  0.1001  0.2528 -0.0477
24789W        W24989  14.914   8.377   3.493  0.0017  0.5165 -0.3834
24790W        W24990   9.331   9.660   8.543 -0.0932  0.0457 -0.0164
24791W        W24991   7.780  11.361   1.944  0.1503  0.0352  0.0010
24792W        W24992   3.993   8.133  11.845 -0.0942 -0.1740 -0.0969
24793W        W24993  14.668  10.067  11.868 -0.4497 -0.3817  0.1945
24794W        W24994   6.786  10.673   8.440  0.1363 -0.1423 -0.1807
24795W        W24995   5.788  11.012  16.197  0.0778 -0.2336  0.0160
24796W        W24996   8.775  12.852   5.696  0.1326 -0.0968 -0.0525
24797W        W24997   9.364  10.176  10.173  0.0039  0.0131  0.1113
24798W        W24998   5.588   4.917  16.915 -0.3435 -0.1921  0.0330
24799W        W24999   3.099   5.838   4.515 -0.3481 -0.2009 -0.0986
24800W        W25000  13.205   8.231   3.144 -0.1512  0.0371  0.1337
24801W        W25001   4.301  11.506   4.999 -0.2297 -0.0482 -0.0644
24802W        W25002  13.377   4.386  10.351 -0.2522  0.0093  0.2114
24803W        W25003   6.948   3.990   0.487  0.0751  0.0469 -0.2519
24804W        W25004   7.792   4.760   5.231  0.3533  0.1099  0.1486
24805W        W25005   7.482  11.661   6.690  0.3351 -0.1018  0.1500
24806W        W25006   7.982   4.811   3.465  0.1329  0.0218  0.0344
24807W        W25007   1.776  13.166   9.466  0.2447  0.1697 -0.2733
24808W        W25008  12.463   6.303  12.939 -0.0698  0.1157  0.3106
24809W        W25009  12.815  14.125  10.501  0.1854 -0.0184  0.2620
24810W        W25010  12.846   7.816   0.490  0.0546  0.2986 -0.1589
24811W        W25011  15.301   5.165   8.739 -0.3575  0.3586 -0.2645
24812W        W25012   4.412   6.793  14.065 -0.1682 -0.0137 -0.1513
24813W        W25013  10.317  15.566   4.070  0.2559 -0.0307 -0.0459
24814W        W25014  11.740  14.151  10.723  0.0088  0.3823  0.2802
24815W        W25015   5.441  10.335   2.063  0.2100 -0.0197  0.1513
24816W        W25016  10.337  10.766   8.050  0.1060  0.0025  0.0716
24817W        W25017   4.680   3.155   3.766 -0.0677 -0.1027  0.2430
24818W        W25018  16.211   6.092   5.943 -0.0899  0.0177 -0.0086
24819W        W25019   6.908   5.074   9.559 -0.1102 -0.0683  0.0773
24820W        W25020   5.010   6.373  18.007  0.0731 -0.0816  0.2742
24821W        W25021   9.856  12.713  12.174 -0.3118  0.2419 -0.0738
24822W        W25022   8.393  16.399  14.033  0.2331  0.0365  0.0788
24823W        W25023   6.256   9.615   7.860  0.0662  0.3982  0.2644
24824W        W25024   8.968   6.014  10.168  0.1882 -0.0065 -0.0046
24825W        W25025  17.067  11.911   9.216  0.2844 -0.0216  0.0446
24826W        W25026  12.756   8.895   9.860 -0.2128  0.3055  0.3802
24827W        W25027   5.199  16.718  12.466  0.1578 -0.2139  0.2030
24828W        W25028   4.526  14.472  13.049 -0.1311 -0.1121  0.1315
24829W        W25029   3.955   0.610   3.711  0.3643 -0.1229  0.0124
24830W        W25030   4.110   9.029  13.630 -0.1184  0.1980 -0.0651
24831W        W25031   2.772  15.873   1.930 -0.0040 -0.1330 -0.0509
24832W        W25032  12.105   8.754   4.989 -0.1594 -0.5644 -0.2081
24833W        W25033   6.194  15.749   6.482  0.1165 -0.3069 -0.4273
24834W        W25034   9.709  13.458   3.878 -0.1394 -0.0186 -0.1016
24835W        W25035   5.263  14.163   1.730 -0.0931  0.1367 -0.1469
24836W        W25036  12.495   2.817   7.393 -0.0911 -0.1479 -0.0749
24837W        W25037  16.405   2.788   3.198  0.0433  0.0396  0.1304
24838W        W25038   9.122  11.820   3.046 -0.0811  0.2733  0.1894
24839W        W25039   8.572  17.598  18.109  0.2597  0.1253 -0.1979
24840W        W25040   2.142  14.503   6.651 -0.1259  0.1052  0.1542
24841W        W25041   5.803   5.936   0.879 -0.1713  0.0216 -0.0018
24842W        W25042   2.477   6.383   5.856 -0.0086 -0.3216  0.0004
24843W        W25043   2.097   9.343  17.856  0.1093  0.0191  0.0685
24844W        W25044   0.668  12.982   5.359 -0.1534 -0.1698 -0.2439
24845W        W25045  17.478   3.291  10.742  0.3127 -0.1265  0.0710
24846W        W25046  16.245   0.801   4.412  0.0360  0.1863 -0.0361
24847W        W25047  17.098   5.507   5.229 -0.0091 -0.2020 -0.0210
24848W        W25048  13.006  13.256  10.772  0.1101  0.1244  0.1468
24849W        W25049   5.651   8.008  10.581  0.0747 -0.0471 -0.3698
24850W        W25050   8.217   3.378   3.344  0.1234  0.2019  0.2013
24851W        W25051  16.922   4.520   9.884  0.0794 -0.0372 -0.1370
24852W        W25052   7.721  12.393  10.824  0.0810  0.1947  0.1436
24853W        W25053   4.992  17.677   8.658  0.3728 -0.2093 -0.3541
24854W        W25054  13.570  11.519   2.735 -0.1745  0.2677 -0.1608
24855W        W25055  14.821  16.053   5.863  0.2139 -0.1970  0.1643
24856W        W25056   1.511   3.815   8.845  0.1590  0.0321 -0.0087
24857W        W25057   9.911   6.972   8.859 -0.4241 -0.4557 -0.3364
24858W        W25058  11.540   7.202  12.060  0.2865  0.1345 -0.1214
24859W        W25059   8.299   0.932   9.728  0.0416  0.0638 -0.1417
24860W        W25060   9.935   5.799   9.454  0.0071  0.0565 -0.1814
24861W        W25061   6.793  11.074  13.032 -0.1350 -0.1181  0.3746
24862W        W25062   5.300   4.611  14.400 -0.1923 -0.0269  0.3487
24863W        W25063   9.391   4.788   4.140 -0.0780 -0.3042  0.2708
24864W        W25064   2.732  14.688   6.195  0.1566  0.2112  0.0798
24865W        W25065   7.884  16.407   7.842  0.1263  0.5035 -0.2439
24866W        W25066  17.506  10.813  17.105 -0.0718  0.2904  0.0646
24867W        W25067  10.655   9.124   6.280 -0.3273 -0.5526  0.1139
24868W        W25068  18.118   6.516   8.113 -0.0517  0.0254  0.0270
24869W        W25069   4.465   5.361   9.698  0.2816 -0.0446 -0.3039
24870W        W25070   6.786   2.489   5.708 -0.1468  0.2349  0.1562
24871W        W25071   5.192  11.255  10.333 -0.0627  0.2045 -0.0115
24872W        W25072  14.543  17.513  10.790 -0.2495  0.0593 -0.1807
24873W        W25073  15.906   4.455  16.344 -0.0403 -0.0358 -0.1099
24874W        W25074   7.373   4.826   7.896  0.1949  0.1368  0.1530
24875W        W25075   6.938  10.752   6.261  0.0386  0.0417 -0.3762
24876W        W25076   7.641  10.570   7.505 -0.0003 -0.1229  0.0986
24877W        W25077   5.257  18.177  12.412  0.0663 -0.0756 -0.0764
24878W        W25078  15.786   9.848  13.290  0.3009 -0.1706  0.2712
24879W        W25079   3.488   5.037  11.335  0.3029 -0.0778  0.2463
24880W        W25080  16.214  10.139  13.590  0.2440 -0.1709  0.1104
24881W        W25081  14.408  15.277   8.069  0.0872  0.0055  0.1646
24882W        W25082   9.395  16.799   7.926  0.1282 -0.1037 -0.0339
24883W        W25083  10.669   5.032  18.016  0.2653 -0.4856 -0.1243
24884W        W25084   4.084   8.159   8.489 -0.0954 -0.1345 -0.2318
24885W        W25085   2.809   6.769   6.589  0.1178  0.2976  0.2114
24886W        W25086   9.664   8.051  16.355 -0.1073 -0.1847  0.2069
24887W        W25087   8.550  10.639  15.621 -0.1926  0.1797  0.2959
24888W        W25088  11.079   5.451  13.459 -0.0273 -0.1659 -0.1110
24889W        W25089   8.064   7.591   9.103  0.0007 -0.2408 -0.0760
24890W        W25090   6.338  10.901   6.872 -0.2291  0.0706  0.2135
24891W        W25091   3.434   2.608  16.541 -0.3328  0.1955 -0.0437
24892W        W25092   9.199  10.695  10.045 -0.0375 -0.1472  0.1285
24893W        W25093  14.072   9.764  15.332  0.1088  0.0676 -0.1800
24894W        W25094  13.807   8.053   9.588 -0.0703  0.1641 -0.0472
24895W        W25095  11.344   5.002  10.183 -0.1289  0.1378 -0.1542
24896W        W25096   9.997   7.158  13.533  0.2601 -0.2536  0.2450
24897W        W25097   7.492  11.844   8.570 -0.1011  0.0015 -0.0314
24898W        W25098   6.369   6.779  13.796  0.0767  0.1122  0.0416
24899W        W25099   6.371   8.705  12.274  0.0059 -0.0701  0.1130
24900W        W25100   6.189   3.379  10.872 -0.2243  0.2865  0.2892
24901W        W25101   3.287   6.575  17.458  0.0020  0.1971 -0.1931
24902W        W25102  11.308   4.352  11.930  0.0149  0.1025  0.0613
24903W        W25103  10.530  15.376   4.820  0.3486 -0.1893 -0.0445
24904W        W25104   2.389   5.776  11.132  0.0547  0.0383 -0.0604
24905W        W25105   6.086   6.494  10.701  0.0271  0.3021 -0.2240
24906W        W25106  14.690   1.287   9.335 -0.3047  0.0331  0.1861
24907W        W25107  16.070   4.832   7.193  0.2576 -0.0626 -0.0707
24908W        W25108  13.408  15.903   8.920 -0.1844 -0.0965 -0.0471
24909W        W25109   9.288   0.624  13.921  0.0699 -0.2365 -0.2846
24910W        W25110  10.775   5.510   4.462 -0.0001 -0.0870  0.3488
24911W        W25111  10.831   7.818   4.596  0.1305  0.0589 -0.0210
24912W        W25112   4.652  14.789   2.684  0.0706 -0.1698  0.0068
24913W        W25113   9.297  12.323   3.275  0.0120 -0.0430  0.0361
24914W        W25114  10.306   6.843  13.953 -0.0818 -0.0007  0.1412
24915W        W25115  18.076  12.739   7.213 -0.0708  0.2408 -0.4373
24916W        W25116  11.548  11.544   3.433 -0.3125 -0.0355  0.1704
24917W        W25117  16.634   9.461   4.627  0.1713  0.2893 -0.1044
24918W        W25118  17.681  11.373   6.508  0.0301  0.0865  0.1175
24919W        W25119  12.844   9.363   4.736  0.2401  0.0852 -0.0311
24920W        W25120  14.341   9.040  12.514 -0.1845  0.1691  0.0204
24921W        W25121   2.596  11.220   2.555 -0.0474  0.2812 -0.0606
24922W        W25122   8.880  11.642   5.750  0.2368  0.1686  0.2321
24923W        W25123  11.946   8.628  12.179 -0.0361  0.0262  0.2973
24924W        W25124  12.829   6.959   2.739 -0.0640 -0.2262 -0.0198
24925W        W25125  11.215  17.461  16.828  0.2074  0.1539  0.1519
24926W        W25126   2.405  12.573   2.945 -0.1906 -0.1026 -0.2110
24927W        W25127   6.571   2.187  12.310 -0.2536  0.0599 -0.0228
24928W        W25128  14.215   2.967  10.597  0.2606  0.1860 -0.0995
24929W        W25129  12.386  16.116   2.660 -0.2316  0.0694 -0.0083
24930W        W25130   7.685   6.405  18.065 -0.1685  0.2567 -0.1568
24931W        W25131   9.861  12.314   9.369 -0.0415  0.0173  0.1899
24932W        W25132   9.519   6.230  11.857  0.1795 -0.0090  0.0098
24933W        W25133  16.970  13.492  16.031  0.1006  0.3297  0.2324
24934W        W25134  11.592   9.231  10.367  0.1855  0.3928 -0.1788
24935W        W25135   0.167  15.355   7.026  0.2501 -0.0495 -0.0254
24936W        W25136   7.925   5.628  10.201 -0.0569 -0.1754  0.1398
24937W        W25137  16.575  13.654  12.398  0.2169 -0.0241 -0.1177
24938W        W25138  17.638   8.534   8.270 -0.1108 -0.1933  0.0724
24939W        W25139   3.226  13.769   8.182  0.1533 -0.0151 -0.0211
24940W        W25140  14.554   0.391  13.381 -0.0215 -0.1189 -0.1565
24941W        W25141   0.070   7.816   7.471 -0.0124 -0.0875  0.1061
24942W        W25142   5.105  12.689   5.738  0.2061  0.0180  0.1749
24943W        W25143  11.606  14.169   7.646  0.0433  0.0114 -0.0955
24944W        W25144   8.670   8.989   6.511 -0.0077 -0.2803  0.1731
24945W        W25145   7.658   6.404   9.372  0.0046  0.2358  0.2451
24946W        W25146  10.766  17.313  12.280 -0.0589 -0.1470  0.1347
24947W        W25147   6.419  10.961   8.200 -0.2027 -0.0197  0.0121
24948W        W25148   6.410   8.247  11.391  0.0369 -0.2429  0.1400
24949W        W25149   7.259  13.889   9.887  0.0062 -0.1191  0.0289
24950W        W25150  14.559   2.532   1.562 -0.1205 -0.0070 -0.2888
24951W        W25151  13.134  11.550   6.891 -0.1487  0.1107  0.0167
24952W        W25152   8.131   9.109  15.011 -0.1849 -0.1356 -0.0853
24953W        W25153   3.225   5.286   8.479  0.1611 -0.1472  0.0951
24954W        W25154   5.284   3.280  10.888 -0.3805  0.2845 -0.1280
24955W        W25155   5.254   2.980  11.319 -0.1026 -0.4515 -0.0793
24956W        W25156   1.980   8.346   6.557 -0.1790  0.0300 -0.1016
24957W        W25157   7.187  14.845  11.604  0.1237  0.0714  0.0331
24958W        W25158   2.792   4.462  13.029  0.1046 -0.0256  0.1491
24959W        W25159   4.014  11.743   8.365  0.1109 -0.2064 -0.2381
24960W        W25160   7.085   8.224   4.594 -0.1862 -0.0150  0.0024
24961W        W25161  13.671   5.904   8.434 -0.2028 -0.1596  0.1349
24962W        W25162  13.470   5.124  10.798 -0.0565  0.0261 -0.2265
24963W        W25163   3.340  13.240  15.226 -0.0193 -0.0808  0.3483
24964W        W25164   9.471  17.900  10.436 -0.2243  0.0737 -0.0682
24965W        W25165  10.269   6.180   3.040 -0.2672 -0.3070 -0.0227
24966W        W25166   8.658   2.737  10.459  0.0885  0.0616 -0.2086
24967W        W25167   8.413   4.858  10.207  0.0546 -0.1858 -0.0788
24968W        W25168   1.042   9.758  11.814 -0.1227  0.0408 -0.0423
24969W        W25169   8.914  15.101   0.620  0.0275  0.2882  0.3049
24970W        W25170  11.126   4.536  10.449  0.2324  0.0875  0.0240
24971W        W25171   0.428   4.231   9.070 -0.3930 -0.0211  0.1325
24972W        W25172   6.320  10.442  10.291 -0.3150 -0.3838 -0.3448
24973W        W25173   9.362   1.991   8.797 -0.0187  0.1813 -0.0578
24974W        W25174   7.009  13.120   8.841  0.1801  0.1538  0.1214
24975W        W25175  11.795   0.066  10.103  0.0077  0.3256  0.1764
24976W        W25176   5.475  13.534   1.151  0.0487 -0.2886 -0.2102
24977W        W25177   8.298   8.644   5.479  0.1122  0.1265  0.0631
24978W        W25178  11.691   2.879  12.218  0.0419  0.2076  0.3467
24979W        W25179   9.238   8.775  10.772  0.3065  0.0195 -0.1483
24980W        W25180   2.711   6.643  15.396  0.0098 -0.0934 -0.0098
24981W        W25181  11.602   5.815   3.428  0.2138 -0.0565  0.1611
24982W        W25182  10.335   2.947   1.176  0.4465  0.0853 -0.0676
24983W        W25183   1.689   1.797  12.752 -0.3210  0.0398 -0.3303
24984W        W25184   8.482   8.564   6.263  0.1338 -0.3355 -0.0882
24985W        W25185   4.844   5.139   9.494  0.0343 -0.2676  0.0605
24986W        W25186   8.652   7.055   7.748  0.3115 -0.4704  0.0285
24987W        W25187   9.075   4.845   9.722  0.3041  0.0393 -0.0494
24988W        W25188  14.726  13.864  12.064  0.1302  0.2170  0.0723
24989W        W25189   6.506   5.564   8.789  0.1854 -0.2603 -0.0743
24990W        W25190   2.799  10.842  12.157 -0.1173  0.2313  0.0843
24991W        W25191  10.643  12.425  11.038  0.2865 -0.3502 -0.2473
24992W        W25192   8.311  12.936   1.109 -0.0883  0.0326  0.2097
24993W        W25193   6.926   6.447   8.871  0.4121  0.0858 -0.1268
24994W        W25194   2.662  15.012  10.979  0.0852  0.1580  0.1222
24995W        W25195   2.176   7.466  10.773  0.0109 -0.2512  0.1075
24996W        W25196   9.640   4.961   8.565  0.1330  0.0176  0.1099
24997W        W25197  12.590   6.192  15.521 -0.0456 -0.2785 -0.1512
24998W        W25198   5.537  14.159   6.015  0.1250  0.1566  0.0245
24999W        W25199   5.829   6.800  13.062  0.1844  0.0878 -0.1632
25000W        W25200   9.301  13.378   5.211  0.0593  0.1414 -0.3497
25001W        W25201  17.971   3.101   3.761 -0.1432 -0.0165 -0.1247
25002W        W25202  16.224  13.482  10.503 -0.2121 -0.2802  0.1385
25003W        W25203   4.699   8.426  12.460 -0.2867 -0.1340  0.0656
25004W        W25204   8.061   4.200   1.153  0.0085  0.0425  0.0932
25005W        W25205   5.350   6.588   9.484 -0.2093  0.0406  0.0058
25006W        W25206  14.781   2.872   7.454 -0.1518 -0.1887 -0.0911
25007W        W25207  10.887   5.317   3.030  0.0209  0.2205 -0.0275
25008W        W25208  10.574   9.642  10.088  0.3631  0.1288  0.1182
25009W        W25209   7.124   6.254   5.761  0.0361  0.1651  0.1135
25010W        W25210  13.981  10.034   4.755  0.0316 -0.3235 -0.3343
25011W        W25211  11.816   6.080   8.953  0.2205 -0.0607 -0.2569
25012W        W25212  10.256   3.640   6.783  0.2501 -0.0149 -0.1415
25013W        W25213   7.702   3.968  15.247  0.0809  0.0035 -0.1947
25014W        W25214   3.193   6.488  10.898 -0.2236 -0.0723 -0.0060
25015W        W25215   5.184  13.601   7.246 -0.1315 -0.2411 -0.0536
25016W        W25216  12.656  11.075  10.026  0.3521  0.1422  0.2317
25017W        W25217  11.090   3.676   9.082 -0.2058 -0.0952  0.2902
25018W        W25218   7.244  10.297  12.528  0.0692  0.0618  0.1113
25019W        W25219   9.355  13.338   7.315 -0.0712  0.1302 -0.1843
25020W        W25220   0.436   3.539  15.039 -0.0375  0.0378 -0.1164
25021W        W25221  14.426  15.074   3.739 -0.0113 -0.1857 -0.4343
25022W        W25222  11.576  14.685  11.122 -0.0687  0.0452 -0.0802
25023W        W25223  17.915  13.622   4.168  0.2670 -0.1160 -0.1831
25024W        W25224   4.429  11.633  11.487 -0.1316 -0.0417  0.0494
25025W        W25225  16.838   8.931   8.896  0.1502  0.1682  0.0433
25026W        W25226   6.634   5.334  17.833 -0.0268 -0.1825  0.0279
25027W        W25227   8.151   7.337  17.246 -0.3788 -0.1700 -0.1027
25028W        W25228  10.517  10.082  13.214  0.0420  0.0538 -0.0216
25029W        W25229  17.713   6.113  17.423  0.0578  0.0289 -0.1102
25030W        W25230   1.745  12.971   5.653 -0.1208 -0.3069  0.1467
25031W        W25231  12.054   2.313   4.083 -0.0146  0.2298 -0.0366
25032W        W25232   9.967  17.841  15.879  0.0031 -0.1129  0.0099
25033W        W25233   5.344   9.205  14.296 -0.3582 -0.0746  0.0272
25034W        W25234   9.343   0.729   5.176  0.0375 -0.4147 -0.0725
25035W        W25235   1.259  12.588  13.705 -0.0294  0.0142  0.0831
25036W        W25236  14.767  14.379   4.429 -0.0327  0.3203 -0.2228
25037W        W25237  10.612   8.537  10.863 -0.0924  0.0684 -0.2952
25038W        W25238   7.066  10.555   7.489  0.0093 -0.0128 -0.1088
25039W        W25239  12.650   8.159   7.327 -0.3402  0.0545 -0.1454
25040W        W25240   4.361   5.634  13.163  0.0019 -0.1069  0.1680
25041W        W25241  11.633   8.310   9.487  0.1169  0.0557 -0.1983
25042W        W25242   7.387  15.367  10.767  0.1498  0.0255 -0.0874
25043W        W25243   5.390  13.370   6.341 -0.0980 -0.3601 -0.0077
25044W        W25244  14.577   5.048   7.770  0.0064 -0.3122  0.4361
25045W        W25245   8.873  10.504   4.861  0.0110 -0.0322 -0.1171
25046W        W25246   5.078  16.993   7.863 -0.0181 -0.2364 -0.0777
25047W        W25247   1.218   4.476   8.753  0.0538 -0.0821 -0.0133
25048W        W25248   7.289  15.991   9.959 -0.1757  0.1811 -0.0873
25049W        W25249   7.295  11.365   4.385 -0.1731  0.3065 -0.1663
25050W        W25250  11.699   6.400   6.938  0.1433  0.2703  0.1179
25051W        W25251   9.501   1.352   3.136  0.1670 -0.3105  0.1093
25052W        W25252   1.714  12.667  16.925 -0.0557 -0.1402 -0.1052
25053W        W25253   9.388   7.026  12.992 -0.4343  0.1744  0.0311
25054W        W25254   6.913  11.711   1.309  0.0329 -0.0260  0.1091
25055W        W25255   3.805  11.905   3.666  0.0624  0.0169  0.1835
25056W        W25256   6.480  10.213   5.943  0.0178 -0.2331 -0.0532
25057W        W25257   6.201   8.252   7.128 -0.0301  0.0056  0.0796
25058W        W25258   6.812  13.870   7.838 -0.2072  0.0385  0.0047
25059W        W25259  10.936  16.108  10.773 -0.1074 -0.2203 -0.0477
25060W        W25260   7.923   7.623   8.633 -0.2485 -0.0219 -0.1243
25061W        W25261  12.423  10.709  17.269 -0.0595  0.2462 -0.1109
25062W        W25262  14.378   3.362  10.909 -0.1015 -0.0715  0.0492
25063W        W25263   3.773   2.233   3.797  0.1334  0.0677 -0.1635
25064W        W25264  11.848   7.233  16.297  0.0854 -0.1124  0.0939
25065W        W25265  13.792   5.866   6.409  0.2916  0.3814  0.1638
25066W        W25266   4.970  13.137   4.143 -0.0181 -0.1540 -0.0898
25067W        W25267   2.480  16.801   9.311 -0.0100 -0.1406  0.0879
25068W        W25268  16.041   0.653  10.954 -0.1718 -0.2699 -0.1122
25069W        W25269   4.350  11.600   6.410  0.0733  0.0652  0.2461
25070W        W25270   3.293  15.390  11.727 -0.1907  0.2041  0.1067
25071W        W25271   6.412   4.934  16.440  0.0819 -0.2489 -0.1025
25072W        W25272   5.989  10.561   8.802 -0.0399  0.1577  0.1141
25073W        W25273  11.073  14.593  13.241 -0.0133 -0.1182 -0.1943
25074W        W25274   8.372  10.465  10.235 -0.2787 -0.0634 -0.0748
25075W        W25275  14.564   4.837   0.288  0.0833  0.1767 -0.1727
25076W        W25276  14.407   3.008  13.834 -0.0781  0.1366  0.0520
25077W        W25277  12.656   3.965   5.004  0.0161  0.0273 -0.0020
25078W        W25278   6.542  13.976  15.793 -0.4026 -0.0259  0.0558
25079W        W25279   0.437   4.413   3.413  0.1419  0.0233 -0.2257
25080W        W25280   6.044   3.645   8.941 -0.1613 -0.1049  0.2210
25081W        W25281   4.428  17.318   9.118  0.0843  0.0263  0.0267
25082W        W25282  11.931   4.007   1.303 -0.0863  0.1382  0.4454
25083W        W25283  14.672  13.000   6.371  0.0101 -0.0897 -0.2038
25084W        W25284   6.089   8.387   8.641 -0.1801 -0.0347  0.1871
25085W        W25285  11.568  13.965  11.195  0.1305 -0.1902 -0.1859
25086W        W25286   6.288  16.742  14.135  0.1190  0.1959  0.0063
25087W        W25287   6.014   0.086  11.815  0.1199  0.4506 -0.2791
25088W        W25288  12.001   5.887   3.753 -0.0530  0.2464 -0.0046
25089W        W25289   1.474   3.514   7.959 -0.0440 -0.3125 -0.0633
25090W        W25290   6.821   6.426  17.895  0.1921 -0.2558 -0.2852
25091W        W25291  12.533   8.977  15.533  0.1737 -0.2425 -0.1270
25092W        W25292  17.663   6.394   8.239  0.2291  0.0435  0.0052
25093W        W25293   9.247  12.566   4.732 -0.3064 -0.1179  0.2533
25094W        W25294   2.429   8.538  10.660  0.0510 -0.0452 -0.3937
25095W        W25295   7.439   8.286  12.801 -0.1166  0.1130  0.0264
25096W        W25296   9.277  11.803  10.344 -0.0850  0.2412 -0.0938
25097W        W25297   9.339   4.519   7.992 -0.1717 -0.1738  0.1053
25098W        W25298  11.206  14.504   9.083  0.0726  0.0107 -0.0217
25099W        W25299  10.297  13.500  16.898 -0.3480  0.1149  0.2403
25100W        W25300   5.112  11.657   4.380  0.1962 -0.2098  0.0180
25101W        W25301   9.336  10.065   5.653  0.0759 -0.2348 -0.1502
25102W        W25302  15.731  10.187   5.477 -0.0640 -0.0903 -0.1383
25103W        W25303  12.958   4.332   5.359 -0.1711 -0.1715 -0.2441
25104W        W25304  12.175  17.470   9.994  0.0573  0.2309  0.1071
25105W        W25305   4.588  17.020   9.630  0.0362  0.2320  0.0911
25106W        W25306   5.249   8.641  13.936  0.0451 -0.0438  0.1348
25107W        W25307   5.091  10.292   8.478  0.1728 -0.0997  0.1606
25108W        W25308   6.593   7.450   8.448  0.0038  0.2691  0.0352
25109W        W25309  11.273   3.911   8.265  0.0662 -0.0522 -0.0318
25110W        W25310   0.012   7.670  14.382 -0.1934 -0.2239 -0.0819
25111W        W25311  14.249  11.391   9.760 -0.0971  0.2215 -0.0265
25112W        W25312   4.141  16.610  11.225 -0.1343 -0.0573  0.2896
25113W        W25313   7.106   5.127  13.108 -0.1618  0.2795  0.1029
25114W        W25314   8.790   6.913   6.079 -0.1866  0.1309 -0.2293
25115W        W25315   7.095  12.276  10.562  0.4410  0.2069 -0.0521
25116W        W25316   5.581   5.685   7.742 -0.2273 -0.3476  0.0395
25117W        W25317  18.180  10.991   4.468 -0.2669  0.0374  0.1596
25118W        W25318   9.467  11.274   0.901  0.0449  0.2663  0.1427
25119W        W25319   4.372   6.710  12.754  0.1080  0.1663  0.1367
25120W        W25320   8.279   7.724   9.540  0.0810 -0.0586 -0.1991
25121W        W25321   7.335   9.548  15.516  0.0469 -0.0543  0.0560
25122W        W25322   7.834   7.268   7.642  0.3996 -0.1847 -0.1469
25123W        W25323  12.288   3.069  14.496  0.3012 -0.0100 -0.0142
25124W        W25324   7.651   6.796   5.309  0.3841 -0.0111  0.2442
25125W        W25325   3.754   8.995  12.042  0.4148 -0.1375  0.1824
25126W        W25326  13.504   9.933   1.823  0.0516  0.2491  0.1869
25127W        W25327  13.203   4.873  16.877  0.0201 -0.0409 -0.0601
25128W        W25328  14.606  10.471   7.773 -0.0809 -0.0450  0.0877
25129W        W25329   5.639  12.611   4.167 -0.0713 -0.1074  0.0328
25130W        W25330  16.383   5.957  10.709  0.1172  0.1200 -0.2363
25131W        W25331   8.828  13.405   0.515 -0.0430 -0.2134  0.0206
25132W        W25332   5.661   1.194  12.921  0.0839 -0.2126 -0.1098
25133W        W25333  16.614   2.188   8.351  0.1844 -0.3118  0.1235
25134W        W25334   5.042  15.079  14.497 -0.0685 -0.1012 -0.4010
25135W        W25335   6.695   4.015   6.166 -0.2098  0.3690  0.0204
25136W        W25336  17.042  12.981   7.657 -0.0862 -0.1177  0.0161
25137W        W25337  15.123  17.150  17.436  0.1698 -0.0646  0.0087
25138W        W25338  17.659  16.303   6.417  0.1336 -0.1593  0.1496
25139W        W25339   9.431  13.000   3.940  0.0372 -0.1021  0.0989
25140W        W25340   4.454   9.116   8.963 -0.1281  0.0569  0.1431
25141W        W25341  12.758   8.650   0.022  0.5019  0.0255  0.0676
25142W        W25342  13.325  10.938   9.989 -0.3281  0.0210  0.2368
25143W        W25343   3.744  15.093  12.608 -0.0951 -0.2525  0.0443
25144W        W25344   9.941  10.087  10.006  0.2403  0.2878  0.0705
25145W        W25345   9.736   2.714   8.173 -0.1465 -0.0396 -0.0693
25146W        W25346  12.811  11.461   7.849 -0.1385 -0.2272 -0.0612
25147W        W25347  14.324  15.874  10.106 -0.3181 -0.1296 -0.0033
25148W        W25348  12.783   2.261   2.338 -0.0322  0.0374 -0.1269
25149W        W25349   2.900   7.454   6.061 -0.0342  0.0075 -0.1952
25150W        W25350   4.317  15.638  10.810  0.0949 -0.2843 -0.0522
25151W        W25351   0.857  11.156  13.609 -0.0372 -0.2657  0.3556
25152W        W25352  10.575   0.182   5.551 -0.2351  0.1373  0.0294
25153W        W25353   5.042  15.914  14.119 -0.0159 -0.1428  0.1374
25154W        W25354   3.626  10.653   7.772  0.2568 -0.0835  0.0641
25155W        W25355   5.686   0.177   3.554  0.3653  0.0701 -0.1841
25156W        W25356   7.158   6.316   4.736 -0.0861  0.0768 -0.2299
25157W        W25357  12.829   7.150  13.061  0.0590  0.1645 -0.0045
25158W        W25358   3.262   6.375  12.636 -0.1591  0.3066 -0.0404
25159W        W25359  17.489   8.194  11.656 -0.0602 -0.1110 -0.0258
25160W        W25360   9.861   8.276   8.048 -0.1594  0.1804 -0.1738
25161W        W25361   5.300   4.562   8.360 -0.0500 -0.0371  0.2694
25162W        W25362   5.049  15.308   7.041  0.2623  0.0685 -0.0470
25163W        W25363   8.021   3.720   8.924 -0.1076  0.0097  0.0456
25164W        W25364   0.614   9.326   9.599 -0.0219  0.0633  0.2522
25165W        W25365  10.166  13.283   6.281  0.2367 -0.0793  0.1947
25166W        W25366   3.186   1.676  13.851  0.1235  0.0623  0.0207
25167W        W25367   4.522   4.672   0.421  0.0342  0.4778 -0.0261
25168W        W25368   9.999   8.642   6.441  0.0109  0.0112 -0.1663
25169W        W25369   7.381   4.915   5.495 -0.1656  0.2252  0.0545
25170W        W25370  12.469   2.348   0.544 -0.1435  0.0423  0.1539
25171W        W25371   5.221   7.333  10.121  0.2339  0.0023 -0.1723
25172W        W25372  10.223  14.177  11.989  0.0601 -0.3399 -0.0519
25173W        W25373   3.850   0.806  10.411  0.2374  0.0501  0.1149
25174W        W25374   3.753   3.080   8.045 -0.1519 -0.2033  0.0451
25175W        W25375   3.339  15.943   9.092 -0.0852 -0.2256  0.0195
25176W        W25376   7.806   4.585  10.878 -0.0102  0.0371 -0.2549
25177W        W25377  11.570   0.166   6.987 -0.5915 -0.2192 -0.1201
25178W        W25378   9.921  12.323  14.063 -0.2784 -0.0362 -0.1528
25179W        W25379   3.427  15.894   6.363 -0.0145  0.0812 -0.3031
25180W        W25380  11.454   8.109   0.095  0.0593 -0.1007  0.1993
25181W        W25381   8.642   5.120   4.755 -0.2214 -0.1174  0.0105
25182W        W25382   3.139   8.794  12.595  0.2742  0.2084 -0.0033
25183W        W25383   0.891  12.558   5.585 -0.1113 -0.1093  0.2310
25184W        W25384  10.985  14.469  10.272  0.1305 -0.1432 -0.1232
25185W        W25385   0.621  13.239   6.812  0.1933 -0.0886  0.1574
25186W        W25386   4.483   5.917   8.970  0.2075 -0.3574  0.0479
25187W        W25387  16.586   3.163   5.401  0.0218  0.2592 -0.1740
25188W        W25388   4.823   3.285   7.771  0.2237 -0.2563  0.1072
25189W        W25389  14.841   4.925   9.880  0.1851  0.0045  0.0633
25190W        W25390  15.258   5.666   8.334  0.2137  0.1656 -0.3989
25191W        W25391   7.739  15.963  15.133  0.1442 -0.0408 -0.0124
25192W        W25392   8.439   7.120   9.353 -0.1998  0.2557 -0.0217
25193W        W25393   1.851  16.505  10.531  0.0359  0.3837  0.1213
25194W        W25394   8.457  16.824  10.432 -0.0254 -0.1799  0.0944
25195W        W25395   1.478  16.811  18.050  0.1040 -0.2876 -0.1467
25196W        W25396  11.271   8.118   4.749 -0.2511  0.1638 -0.3170
25197W        W25397   9.226   6.901  16.236 -0.3117 -0.1341  0.2094
25198W        W25398   5.408   5.923   2.245  0.0860  0.0911 -0.0679
25199W        W25399   7.388  12.472  11.318 -0.0906 -0.0537 -0.1460
25200W        W25400   7.763   4.575  11.730 -0.1131 -0.0495 -0.0237
25201W        W25401   6.607   9.135  14.079  0.2699  0.0111 -0.1038
25202W        W25402  12.781  12.473   3.154 -0.1504 -0.1044  0.0912
25203W        W25403   1.027   9.531   8.185 -0.0357  0.0447 -0.1174
25204W        W25404   3.337  13.423   7.669  0.1101 -0.0558 -0.2446
25205W        W25405  15.478  15.051   9.766 -0.2463  0.0521 -0.3769
25206W        W25406  13.686   7.178   6.957 -0.2376 -0.0327 -0.1120
25207W        W25407   5.347  13.926  14.761  0.0359  0.0284  0.1146
25208W        W25408  13.585  12.490   0.285 -0.3507 -0.1846 -0.1779
25209W        W25409  12.742  11.744  11.025 -0.0331 -0.0864 -0.0091
25210W        W25410  10.981   6.416   8.530 -0.0856 -0.0899  0.0897
25211W        W25411  13.110  10.806  18.180  0.4901  0.1017  0.3205
25212W        W25412   9.448   5.229   9.778  0.0592  0.2104  0.0463
25213W        W25413   0.132   9.807  17.236  0.1376  0.1399 -0.2746
25214W        W25414  10.219   9.486   1.539 -0.1309  0.1789 -0.2693
25215W        W25415  13.320   7.585  12.098  0.0990  0.0163 -0.0133
25216W        W25416  14.959   7.225   6.659 -0.1107  0.0008  0.0516
25217W        W25417   9.978  14.244  10.141  0.0932 -0.0334 -0.2926
25218W        W25418  14.736  12.040  15.541 -0.0193  0.1323 -0.0658
25219W        W25419  12.830   4.507   7.106  0.0540  0.0091 -0.1074
25220W        W25420   6.938   3.146  11.525 -0.2424  0.2396 -0.2850
25221W        W25421  10.849   9.019   1.923  0.0919  0.1000 -0.2081
25222W        W25422   5.138   8.648  12.546 -0.2143  0.2283 -0.1203
25223W        W25423  14.953   2.332  16.516 -0.3176 -0.2440 -0.1834
25224W        W25424  16.139   8.735  15.413  0.0198 -0.0801 -0.2316
25225W        W25425   7.022  17.285  10.511  0.3997  0.0592  0.0571
25226W        W25426  13.501   0.095  15.686  0.2497  0.0972  0.2786
25227W        W25427  13.443   7.384  10.076  0.2622  0.1000  0.1542
25228W        W25428  13.886   4.578  12.830 -0.0178 -0.1529 -0.1132
25229W        W25429   7.375  12.627   3.603  0.0473 -0.0866 -0.0346
25230W        W25430  17.511  11.341   8.074 -0.1712  0.1758 -0.1212
25231W        W25431  18.154   4.308  12.522 -0.2210  0.3363 -0.1580
25232W        W25432  11.740  12.196  14.416 -0.1725  0.0596  0.2754
25233W        W25433  12.632  13.935  11.417 -0.1525  0.0628 -0.0320
25234W        W25434  12.663  10.584   9.276  0.0069 -0.1082  0.1785
25235W        W25435   6.705  10.119  15.903  0.1568  0.3682  0.3352
25236W        W25436   7.339   6.556  11.353 -0.0462 -0.1936  0.1069
25237W        W25437  13.031  11.842  16.087  0.0263 -0.0253 -0.0724
25238W        W25438   9.028  13.164  11.892  0.0734  0.1483 -0.1046
25239W        W25439  10.584   5.934  16.883  0.1311  0.2534 -0.1034
25240W        W25440   7.782   7.546   1.639 -0.0595  0.2042 -0.5110
25241W        W25441   0.339   6.734  15.044  0.1361  0.1347  0.2259
25242W        W25442  14.610   7.636  10.970  0.1266 -0.4312  0.0325
25243W        W25443   7.786   7.770   6.332  0.0722 -0.2157 -0.1604
25244W        W25444   0.368  17.859  16.044 -0.1999 -0.0026 -0.0654
25245W        W25445  16.923  15.351  12.372 -0.2437 -0.2392  0.2697
25246W        W25446  10.572   3.865  11.030 -0.0284 -0.0634  0.0179
25247W        W25447  12.563  13.895   8.704 -0.0347 -0.1151 -0.0533
25248W        W25448  15.651  10.765  14.174 -0.2278 -0.0141  0.0733
25249W        W25449  10.348   6.234   8.539  0.5459  0.3608 -0.4469
25250W        W25450  10.975  12.759  15.142 -0.0561  0.0560  0.1219
25251W        W25451   6.081   9.566   9.611  0.0481  0.0778 -0.0356
25252W        W25452  16.392   6.693  12.756  0.1861 -0.0818 -0.0024
25253W        W25453  11.121  10.325  10.690  0.1463 -0.0694 -0.1038
25254W        W25454  11.742   9.668  17.584 -0.0854 -0.1943  0.1903
25255W        W25455   5.605   4.664   2.987 -0.0277  0.1777 -0.0373
25256W        W25456  15.255  10.015   2.562 -0.1414 -0.0395  0.0305
25257W        W25457  18.118   9.736   8.849  0.1055 -0.3015 -0.0296
25258W        W25458  11.991   8.237  10.395 -0.1054  0.3441 -0.0990
25259W        W25459   9.128  11.635  13.995 -0.0346 -0.1036 -0.1316
25260W        W25460  16.487  10.283   9.085 -0.2028 -0.1080  0.0883
25261W        W25461   6.139   7.094  11.451  0.3014  0.2199 -0.1015
25262W        W25462   8.382  10.471  15.210  0.3392  0.0195  0.0232
25263W        W25463   5.296  10.935  13.461 -0.2306  0.2143  0.1783
25264W        W25464  13.190  14.409  10.027  0.0743 -0.2099  0.0315
25265W        W25465   7.628  11.943  15.671 -0.0484 -0.0316 -0.1552
25266W        W25466   7.799   4.624  14.312 -0.2235  0.0097 -0.0363
25267W        W25467  17.628   8.470   9.886  0.2390  0.3350 -0.1366
25268W        W25468   6.619  11.687  14.217 -0.0787 -0.1022 -0.0669
25269W        W25469  13.643  15.897  15.632 -0.0147  0.3123  0.0309
25270W        W25470   7.456   8.390   2.048  0.1973  0.4180  0.3201
25271W        W25471   8.356   3.279  10.250 -0.3913 -0.1558 -0.1027
25272W        W25472  15.827  12.058   5.871 -0.0060 -0.2125  0.1491
25273W        W25473   8.351   4.677  12.948 -0.0926  0.3211 -0.2702
25274W        W25474  11.585   6.092  14.347 -0.0557  0.0282 -0.0331
25275W        W25475   8.249   7.820   6.114  0.0614  0.0829  0.3516
25276W        W25476   0.055  14.264  15.509 -0.1187  0.2389  0.1383
25277W        W25477   7.186  10.940  17.279 -0.0584 -0.0475 -0.3275
25278W        W25478   9.386  12.399   7.567  0.0263  0.1465  0.5675
25279W        W25479  16.273   9.688  13.055  0.0567  0.0389 -0.0806
25280W        W25480  10.334   5.121   8.170 -0.1838  0.0412 -0.2048
25281W        W25481   9.801  18.171  10.691 -0.2230 -0.3948 -0.0440
25282W        W25482   4.101   7.149   1.040  0.4503  0.0246  0.0049
25283W        W25483  13.207   3.245   5.526  0.1174 -0.3007  0.1466
25284W        W25484   6.247  10.999   1.769 -0.0358 -0.0556 -0.1047
25285W        W25485   5.603   7.156  13.305  0.3651  0.1089  0.0944
25286W        W25486   0.048   9.684  10.541 -0.1206  0.1962  0.1125
25287W        W25487  18.101   4.031  13.426 -0.2509  0.3084 -0.1311
25288W        W25488  10.191   3.941  10.653  0.2221 -0.3136  0.2155
25289W        W25489   1.045   9.489   5.418 -0.1855 -0.1740 -0.1099
25290W        W25490  13.294  16.998  16.901  0.3334  0.1699  0.2909
25291W        W25491   4.186   4.761  16.602 -0.0529 -0.0165 -0.2074
25292W        W25492  10.461   5.982   3.461 -0.0865 -0.1656  0.3089
25293W        W25493   2.802  14.372   2.005  0.0189 -0.4735 -0.0272
25294W        W25494  11.819   8.501  17.408 -0.1231  0.1775 -0.1213
25295W        W25495  13.121   7.008  15.326 -0.0517  0.0866  0.0685
25296W        W25496   2.341  10.215  14.226  0.1503  0.1940  0.2107
25297W        W25497  17.152   9.633   2.777  0.1975  0.2244  0.2014
25298W        W25498  13.823  10.908  14.179 -0.0255  0.1926  0.0924
25299W        W25499   3.005   3.157   1.925 -0.1139 -0.0241 -0.0654
25300W        W25500   9.133   9.468   0.224 -0.3734 -0.0566  0.0666
25301W        W25501  12.996   6.315  11.909  0.0802 -0.1785 -0.2696
25302W        W25502   9.886  10.394  12.486 -0.1828 -0.1500 -0.2521
25303W        W25503   1.272  12.625  12.060 -0.0040  0.0297 -0.0921
25304W        W25504  10.725  16.026   8.053 -0.2671  0.3201 -0.1086
25305W        W25505  14.780   9.200   2.859 -0.3221  0.0821 -0.0059
25306W        W25506   6.180   2.661   2.039 -0.0107 -0.0986 -0.2259
25307W        W25507  14.685   2.355   8.412 -0.0930 -0.1122  0.1257
25308W        W25508  14.633   6.014  11.473  0.2229 -0.0847 -0.2295
25309W        W25509   6.725  17.962  13.684  0.1655  0.0923 -0.0571
25310W        W25510   2.460  14.615  17.341 -0.0570  0.1006 -0.1568
25311W        W25511   3.872   0.470  14.351  0.0920 -0.1534  0.2635
25312W        W25512  11.043   9.043  18.152  0.1356 -0.1383  0.3732
25313W        W25513  12.960  12.573  16.955 -0.1547 -0.0288  0.1306
25314W        W25514   5.769  17.865  12.981 -0.0907 -0.2733  0.0526
25315W        W25515   3.368  14.326   8.427 -0.1155  0.1217  0.0532
25316W        W25516   5.721   3.037  17.603  0.0954 -0.2730 -0.4440
25317W        W25517  10.619   6.713   4.089 -0.0151 -0.0354  0.1560
25318W        W25518  11.891   8.508  15.948  0.0212 -0.0090 -0.0657
25319W        W25519   5.789   5.359  16.032  0.0872 -0.1152 -0.1724
25320W        W25520   1.212  16.598  17.509 -0.0431  0.0501 -0.0009
25321W        W25521  15.587  15.333  10.705 -0.2929 -0.1256 -0.4402
25322W        W25522   8.413   0.484   7.166  0.1617 -0.1760  0.3977
25323W        W25523   0.554   3.023  13.714  0.1750  0.0644  0.0810
25324W        W25524   9.165  13.458   5.729 -0.0469  0.0605 -0.4134
25325W        W25525   4.997   8.907  11.604  0.0756  0.1900 -0.2002
25326W        W25526   8.295  16.216   4.238  0.1514  0.0231 -0.0533
25327W        W25527   9.436  16.926  13.558 -0.0444  0.2505  0.0225
25328W        W25528  11.888   6.316  14.702  0.3598  0.0350  0.1500
25329W        W25529   5.101  12.459  15.518  0.0736 -0.1460 -0.0114
25330W        W25530  14.526  10.506  12.330  0.1986 -0.1677 -0.1548
25331W        W25531  10.285   9.768  14.210 -0.1182 -0.1805 -0.3193
25332W        W25532   5.009  12.704   9.410  0.0991 -0.0501  0.0885
25333W        W25533  11.374  18.061  15.166  0.0356 -0.1654 -0.0141
25334W        W25534   8.145   1.170  12.998  0.3493 -0.0676  0.1396
25335W        W25535   9.046   1.568  15.140  0.0418  0.0264 -0.1694
25336W        W25536  10.332   7.959  17.353 -0.1155  0.0342  0.0479
25337W        W25537  15.259  11.403  16.719  0.3206 -0.0739 -0.1172
25338W        W25538   1.040  15.711  13.261 -0.2178 -0.0631 -0.2113
25339W        W25539   7.809  16.191  13.398 -0.0817  0.0461  0.1423
25340W        W25540   6.903  10.783   1.204 -0.0554 -0.0390 -0.0948
25341W        W25541   1.644  13.302   3.980  0.2504 -0.2126 -0.1391
25342W        W25542  17.787  11.080  10.178 -0.0499 -0.1183 -0.2369
25343W        W25543   7.283  10.482  16.444 -0.0962  0.0404 -0.1314
25344W        W25544   5.551   9.285   3.720 -0.1344  0.0286 -0.1314
25345W        W25545   8.159  15.591  10.303 -0.1314 -0.2768 -0.0466
25346W        W25546  13.229   0.650   9.181 -0.0726 -0.2979  0.1633
25347W        W25547   0.374   3.771  16.560 -0.1373  0.1928 -0.0653
25348W        W25548   3.477  10.018  10.988  0.3327 -0.1051 -0.0316
25349W        W25549   2.548  10.899  13.278 -0.2894 -0.0356 -0.2741
25350W        W25550   8.986  14.067  10.895  0.3921 -0.1509  0.0973
25351W        W25551   5.786   8.800   2.026 -0.2110 -0.1233  0.0629
25352W        W25552  17.682   7.887  11.253  0.0534 -0.2129 -0.2631
25353W        W25553   4.033   6.201   2.249 -0.0948  0.2383  0.1387
25354W        W25554   6.918   1.424  10.596  0.0315  0.1828 -0.1073
25355W        W25555  10.732  11.204  15.020 -0.2133  0.2130  0.2636
25356W        W25556   2.911  12.690  13.410 -0.0931  0.2001 -0.0933
25357W        W25557   9.946   8.732   3.334 -0.0876  0.1526  0.1500
25358W        W25558   4.540   5.066   5.112 -0.0438 -0.0869 -0.1850
25359W        W25559   7.124  16.225  16.281  0.1630 -0.2149  0.0102
25360W        W25560   2.640   5.074  13.075 -0.1002 -0.2046  0.1202
25361W        W25561  10.080   6.638   3.045 -0.0579 -0.1747 -0.0056
25362W        W25562   9.561   6.791  13.537 -0.0564 -0.1081  0.1083
25363W        W25563  10.287  11.945   9.349  0.1672 -0.2152  0.2238
25364W        W25564  16.118   6.858  13.132 -0.2038 -0.1008  0.1148
25365W        W25565   6.172   1.969   6.344  0.3427  0.0571 -0.1340
25366W        W25566   7.583   7.961  11.676  0.1145  0.1405 -0.0318
25367W        W25567   9.201   6.615  15.267 -0.3343  0.2487  0.0894
25368W        W25568   3.549   2.388  10.802 -0.0200  0.0125 -0.1176
25369W        W25569  10.651  14.614   5.505  0.0730  0.2043 -0.0579
25370W        W25570  10.407   8.893  16.862  0.1614  0.0411 -0.3641
25371W        W25571  17.290   5.240   2.729  0.2299  0.0984  0.1463
25372W        W25572   4.022  10.023  10.906  0.3931 -0.0140  0.0543
25373W        W25573   4.428   8.281  11.043  0.2695 -0.1091 -0.0934
25374W        W25574   5.987  15.853   8.743  0.3033  0.0081 -0.0467
25375W        W25575   3.068  11.971   7.937  0.2476  0.3079  0.0598
25376W        W25576   0.900  12.300  14.598  0.1708 -0.0736 -0.0006
25377W        W25577  11.427  10.011   7.696  0.2413 -0.0916  0.1677
25378W        W25578   6.706   6.043   6.088  0.3234 -0.1534 -0.0324
25379W        W25579   6.335   0.326  16.093  0.0243  0.0045 -0.2291
25380W        W25580  12.188  17.883   0.891 -0.4373 -0.1186 -0.2381
25381W        W25581   7.792   6.681  11.849  0.0558 -0.2008 -0.0384
25382W        W25582  16.311  16.589  14.874 -0.1944  0.3514  0.1605
25383W        W25583   1.672   7.443   6.707  0.2704 -0.1966  0.3032
25384W        W25584   5.762  10.333  11.185 -0.4124 -0.1455 -0.1966
25385W        W25585  12.511  13.795  14.989  0.0586  0.1080 -0.0752
25386W        W25586  11.286   1.553  10.916  0.1832  0.1346  0.1191
25387W        W25587   5.128   1.743   5.886 -0.1454 -0.0982  0.1179
25388W        W25588  12.659   1.130  11.120  0.2019 -0.0499  0.0594
25389W        W25589   5.750   3.194   0.419  0.0213 -0.1912 -0.2621
25390W        W25590   3.450   5.959   6.724  0.0663  0.4186 -0.0373
25391W        W25591   8.326  14.290   3.962  0.1064  0.2871  0.2058
25392W        W25592   7.759   6.769   8.262 -0.1278  0.0808  0.0003
25393W        W25593  13.156   3.214   7.784 -0.0593 -0.0951 -0.0470
25394W        W25594   9.765   3.971   9.035  0.2440 -0.0534  0.2088
25395W        W25595  10.946   8.111  12.116  0.0861 -0.0076  0.2152
25396W        W25596  12.439  11.903   7.857 -0.4042  0.1150 -0.1984
25397W        W25597   7.451   9.326  17.989  0.3173 -0.2103 -0.0778
25398W        W25598   7.013   6.006   5.218  0.1584  0.1586  0.3547
25399W        W25599   6.906   0.798   9.138 -0.0532 -0.1825 -0.1941
25400W        W25600  11.362   3.415   8.115  0.0811 -0.3117  0.0339
25401W        W25601  13.911   4.184   1.745 -0.2352  0.3014 -0.0155
25402W        W25602   7.145   2.615   2.776 -0.0814 -0.2642  0.4291
25403W        W25603  12.024  15.694  13.642 -0.1055 -0.0119 -0.2879
25404W        W25604  17.711   9.929   0.895 -0.0530  0.2537 -0.1913
25405W        W25605   2.590   1.481  16.774 -0.0261 -0.1076  0.1407
25406W        W25606   6.880   9.187   0.522  0.1880 -0.1054  0.0020
25407W        W25607   9.531   8.006   0.542 -0.0928  0.2770  0.1755
25408W        W25608  12.554   8.667   8.541  0.0425  0.0599  0.0198
25409W        W25609   8.728   4.228  14.221 -0.3569  0.3712  0.3395
25410W        W25610   8.624   8.840  10.376 -0.3342 -0.0228 -0.0298
25411W        W25611  12.932   8.181  11.222  0.1233  0.1650 -0.0904
25412W        W25612  17.659   0.874   8.329  0.1070 -0.0041  0.0120
25413W        W25613  15.003   4.920  17.675 -0.0167  0.0801 -0.0715
25414W        W25614   5.355   3.360  17.072 -0.0855 -0.0447 -0.0333
25415W        W25615  11.902  11.383  12.627  0.0431 -0.1940  0.2114
25416W        W25616   6.803  14.083   1.609  0.1945  0.0801  0.3379
25417W        W25617  10.678  11.169   7.894  0.2061  0.2367  0.3093
25418W        W25618   7.828   3.669  14.512 -0.0635 -0.2111  0.0822
25419W        W25619   6.499   8.144   6.008  0.2951 -0.0957 -0.2692
25420W        W25620  14.899   1.724  14.620 -0.0280  0.1867 -0.5498
25421W        W25621  11.441   6.078  11.860  0.2681 -0.4046 -0.0181
25422W        W25622  14.197   0.377  16.211  0.0837 -0.4002  0.1544
25423W        W25623  12.895   3.867   4.181 -0.0972 -0.2012 -0.2069
25424W        W25624   6.757  11.578  10.113 -0.0796 -0.3837 -0.0273
25425W        W25625   9.654   3.863  12.995  0.0597  0.0286 -0.2521
25426W        W25626   6.206   2.099   0.310 -0.0330 -0.2441 -0.1169
25427W        W25627   0.033  11.090   2.963  0.1930  0.0278 -0.0215
25428W        W25628   6.408  15.338  11.930 -0.0389  0.0018  0.0669
25429W        W25629   6.377  18.079  17.643  0.1301  0.1131 -0.2419
25430W        W25630  11.329   8.828  11.593 -0.3623 -0.2597  0.0814
25431W        W25631  10.861  12.353   7.793  0.1521 -0.0690  0.0555
25432W        W25632  12.201  10.499  17.732 -0.0740 -0.5139  0.1131
25433W        W25633  14.264  18.124   2.400 -0.0122  0.1246 -0.2277
25434W        W25634   8.961   6.307  13.109 -0.1838  0.1381  0.0768
25435W        W25635  10.171  15.140   9.512  0.2462 -0.2519  0.0612
25436W        W25636   7.242   5.535   1.031  0.0196  0.0624  0.1867
25437W        W25637  12.460  15.507  14.296  0.1140 -0.0876 -0.0246
25438W        W25638   4.499  11.147  15.161  0.0903  0.0344  0.2413
25439W        W25639   4.807  12.042   7.166  0.0879 -0.0108  0.2075
25440W        W25640  11.559   4.605   9.436 -0.1672 -0.0871 -0.5269
25441W        W25641   9.708  14.560   3.869  0.1042 -0.0425  0.1400
25442W        W25642   2.813  15.001  13.792 -0.1009  0.0134 -0.2169
25443W        W25643  12.569  11.283   6.185  0.1091  0.0257 -0.1131
25444W        W25644  13.081  17.037  11.171 -0.3431  0.0691  0.1513
25445W        W25645   0.345   9.902  11.638  0.2171 -0.1261 -0.2296
25446W        W25646   9.075   9.181   8.480  0.2123 -0.0540  0.0886
25447W        W25647   2.452  16.180  13.708  0.1223  0.0638  0.1874
25448W        W25648  10.087   5.568   3.210  0.0628  0.0680 -0.3194
25449W        W25649  13.856   7.488  10.329 -0.1669  0.1323  0.2083
25450W        W25650   2.416   1.888  13.558  0.4249  0.2573 -0.0868
25451W        W25651   3.999   0.419  13.862 -0.0599  0.0435  0.4542
25452W        W25652   9.295  16.083   9.974  0.0939  0.4007 -0.2410
25453W        W25653  17.805  14.135  12.770  0.1228 -0.1146 -0.1337
25454W        W25654  12.744  13.660  10.018  0.2417 -0.0366 -0.1153
25455W        W25655  14.528   8.017  12.077 -0.0786  0.1239 -0.0647
25456W        W25656   5.764   5.436   9.420 -0.0265 -0.0880 -0.1643
25457W        W25657  10.525   9.880   1.452  0.2037  0.2278  0.0981
25458W        W25658  13.237   6.408  11.086 -0.2035  0.0783 -0.0894
25459W        W25659   5.334  13.317   0.737  0.0762 -0.0967  0.0103
25460W        W25660  17.672   6.315  10.462  0.1211 -0.1393 -0.2510
25461W        W25661  12.095   3.435   5.874 -0.0940  0.0814  0.0129
25462W        W25662   9.813  10.423   6.277 -0.1634 -0.1250 -0.0230
25463W        W25663   9.340   9.101  15.671  0.0645  0.0552 -0.3870
25464W        W25664  17.186   8.698  15.007  0.1094  0.0626 -0.0717
25465W        W25665  15.325   2.030   0.558 -0.0872  0.2154  0.0591
25466W        W25666   6.908   9.603  14.146  0.2728 -0.0447  0.0517
25467W        W25667  16.978   5.370   0.665  0.0689 -0.0544  0.0526
25468W        W25668  10.812   8.335  17.966 -0.1673  0.1633 -0.0443
25469W        W25669   7.654   9.205  14.655  0.0972 -0.2674  0.0537
25470W        W25670   1.797   5.431   0.074 -0.1307 -0.0775 -0.0283
25471W        W25671  10.419  16.279   8.563  0.3100  0.1477  0.2687
25472W        W25672   2.363  12.082   2.812 -0.0202  0.0437  0.0992
25473W        W25673  11.426  12.543   5.825  0.0639  0.0375  0.3490
25474W        W25674  14.051  10.769  10.164  0.1336  0.0559 -0.0303
25475W        W25675   5.092   7.904  12.439  0.2050 -0.1409 -0.2357
25476W        W25676   8.295   6.937  11.150  0.0614  0.1793 -0.2618
25477W        W25677  17.920   3.725  12.554 -0.1507 -0.1494  0.0941
25478W        W25678   6.182  13.555  17.386 -0.0701 -0.2012 -0.1836
25479W        W25679  11.732  14.194  14.683 -0.2319 -0.1705 -0.0346
25480W        W25680  10.979  10.408  17.850 -0.2996  0.1088 -0.4009
25481W        W25681   8.750   6.143   6.483 -0.1588  0.3465 -0.1364
25482W        W25682   7.733  10.189  12.649  0.4245 -0.0486 -0.0799
25483W        W25683  13.351   4.173  16.892 -0.2262  0.0018  0.1530
25484W        W25684   5.547  12.772  15.472  0.0852  0.0697 -0.1035
25485W        W25685   3.768   7.371   9.636  0.3034  0.0859 -0.1125
25486W        W25686  11.108   2.554   2.519  0.0234  0.0907 -0.1025
25487W        W25687   7.525  15.422   0.788  0.0625 -0.1267 -0.1337
25488W        W25688  14.821   8.260   9.296  0.3050 -0.1150 -0.4430
25489W        W25689  13.593   9.979   5.830 -0.2565 -0.0650 -0.0867
25490W        W25690  15.398  11.434   1.875 -0.1691 -0.2913 -0.0230
25491W        W25691  16.296  14.916  16.947 -0.2008  0.3668 -0.0833
25492W        W25692   7.509   5.943   1.421  0.0642 -0.0537  0.2348
25493W        W25693   8.897   7.959  10.722 -0.4556 -0.5115  0.1424
25494W        W25694   8.988  17.878   4.867  0.0264 -0.0367  0.0561
25495W        W25695   5.697  10.835  15.310 -0.0888 -0.0721 -0.3155
25496W        W25696  15.353  11.862   0.224  0.0570 -0.1875  0.0028
25497W        W25697   1.010  10.641  13.734 -0.2122 -0.4169  0.1175
25498W        W25698   4.069  11.608   7.448 -0.0610  0.0707 -0.1731
25499W        W25699  14.908   4.427  12.083 -0.1114 -0.2449 -0.0866
25500W        W25700   7.610   6.853  14.697  0.1096 -0.0602  0.0398
25501W        W25701  14.336  15.343   0.635 -0.0320 -0.1724 -0.0652
25502W        W25702  16.492  15.791  17.882  0.0064  0.4006  0.0816
25503W        W25703  10.579  11.371   1.542 -0.2036 -0.3762  0.0086
25504W        W25704   8.239   6.110  17.952 -0.2534  0.1226  0.3885
25505W        W25705   4.650   3.029  17.005  0.2867 -0.0666  0.0762
25506W        W25706   9.604   1.812  15.365  0.1554  0.0635 -0.1309
25507W        W25707   8.960  15.038   7.791  0.4110  0.1826 -0.0874
25508W        W25708   7.492   6.888  17.999 -0.1972 -0.3295  0.0673
25509W        W25709   7.870  14.417   0.827  0.0102 -0.0919  0.0312
25510W        W25710  11.645  10.922  16.026 -0.4283  0.3523 -0.1272
25511W        W25711  10.417  17.438  15.621  0.2662  0.0619  0.2653
25512W        W25712  16.796   0.780   6.891  0.0024 -0.0748  0.1491
25513W        W25713  12.300   2.669   6.917 -0.0628  0.1355  0.1585
25514W        W25714  11.016   0.326  12.933  0.1532 -0.2150  0.0257
25515W        W25715  12.564   6.170   6.898  0.0932  0.0465 -0.0817
25516W        W25716   6.312  10.136  18.149  0.0903 -0.0051  0.0184
25517W        W25717  11.427   4.315   0.893 -0.0674 -0.2991 -0.2867
25518W        W25718   2.535   1.538   6.476  0.1663 -0.3050 -0.1210
25519W        W25719  14.163   2.779  14.242 -0.2239 -0.0907  0.1488
25520W        W25720   9.065   0.906  13.220  0.1210 -0.1271 -0.1135
25521W        W25721   8.539   1.487  14.678  0.1343  0.0047 -0.0474
25522W        W25722   3.616  11.413   7.602  0.3408 -0.3042  0.2056
25523W        W25723   9.546   9.723   3.413 -0.1321 -0.2303  0.0309
25524W        W25724  12.330   8.031  13.372 -0.1473  0.2854  0.1525
25525W        W25725   6.822   8.880  13.193 -0.0103 -0.2557  0.0059
25526W        W25726   8.419   9.267   3.859 -0.3234 -0.0302  0.1626
25527W        W25727   3.767  17.490  17.250 -0.0816 -0.2494 -0.0090
25528W        W25728  14.610  13.808  16.016 -0.1793 -0.0664 -0.1208
25529W        W25729   9.547  12.483  15.247  0.2672 -0.0454  0.0843
25530W        W25730   6.945   2.926  10.753  0.1656  0.2199  0.2337
25531W        W25731   5.345  14.586  10.809  0.1403 -0.0399  0.0935
25532W        W25732   2.880  15.301  17.154  0.0000 -0.3242 -0.1898
25533W        W25733  11.538   5.008   9.736 -0.1770  0.0252 -0.0057
25534W        W25734   2.657   5.730  12.119  0.3262  0.1352  0.1714
25535W        W25735   8.867   7.614   9.789  0.1576 -0.0587  0.2257
25536W        W25736   7.626   5.079  10.978  0.0187 -0.0607 -0.0709
25537W        W25737  17.841   3.608  15.533 -0.2181 -0.1062  0.2364
25538W        W25738  17.857   6.653   5.494  0.0742  0.2028  0.3295
25539W        W25739  10.523  11.608   8.653  0.1097  0.0815 -0.2089
25540W        W25740  14.786   8.408  13.054 -0.1973  0.0785  0.2268
25541W        W25741  11.721  10.654  11.799  0.1292  0.0864  0.0229
25542W        W25742   8.938   1.902   2.053 -0.0541 -0.0987 -0.0020
25543W        W25743   6.857  10.554   2.422  0.0856  0.4641  0.0092
25544W        W25744   8.460   5.103  11.285  0.0832 -0.1329 -0.3110
25545W        W25745   8.107   8.763   2.656  0.2023 -0.1883 -0.2184
25546W        W25746   4.559   6.341  14.255  0.3137 -0.0659 -0.1836
25547W        W25747   1.771   9.733   5.169 -0.0112  0.1800  0.2488
25548W        W25748  12.041   1.633   6.092 -0.3230 -0.1313  0.0925
25549W        W25749   8.474   8.087  10.883 -0.0488  0.1734  0.1394
25550W        W25750  13.900  14.127   8.365 -0.1935  0.1908 -0.0026
25551W        W25751   3.539  10.487  15.800  0.1595  0.0754  0.0557
25552W        W25752   7.065  13.543  13.608 -0.2006 -0.1901 -0.1877
25553W        W25753   9.705  11.318  13.113  0.1060 -0.0883  0.2233
25554W        W25754   1.766   4.615   7.365 -0.0131  0.0790 -0.1219
25555W        W25755   5.043   9.429  10.804  0.2143  0.1619  0.0492
25556W        W25756   5.410   6.814  12.592  0.1922 -0.0508 -0.2156
25557W        W25757  15.062   6.540  13.951  0.3246 -0.2718 -0.2692
25558W        W25758   7.458   8.343   2.792 -0.2249 -0.1544 -0.0355
25559W        W25759  13.634  17.723  16.803 -0.0447  0.1429 -0.0058
25560W        W25760   0.917   5.581  13.597  0.0597  0.2596 -0.2238
25561W        W25761   2.822   0.878  13.279  0.0123 -0.0327  0.1257
25562W        W25762  16.919   5.563  14.605 -0.0876  0.0839  0.1336
25563W        W25763   9.915  14.190   0.331 -0.1674 -0.2462 -0.0949
25564W        W25764   8.897   9.258   9.289 -0.0372 -0.0640  0.0616
25565W        W25765   2.765  11.353   3.932 -0.2880 -0.2705 -0.1101
25566W        W25766  10.587  11.585  16.033  0.0481  0.0273  0.0197
25567W        W25767  14.483  11.823  11.465 -0.2006  0.3156  0.1418
25568W        W25768   0.156  13.680  10.189 -0.1478  0.2186 -0.0878
25569W        W25769  12.469   6.607  16.378 -0.0117  0.2583 -0.4212
25570W        W25770  15.979  17.313  16.540  0.1486  0.2923 -0.0452
25571W        W25771   7.477  15.477  15.451  0.0503 -0.0636  0.2579
25572W        W25772  10.677  14.736   9.036 -0.0317 -0.0213 -0.1929
25573W        W25773   9.135  13.190  15.162  0.1320 -0.1358  0.2635
25574W        W25774   0.099  15.323  11.583 -0.0392 -0.0135  0.1898
25575W        W25775   3.708   6.334  11.635 -0.1533  0.2198  0.2259
25576W        W25776  14.646  12.114  11.852  0.0240  0.0637  0.2631
25577W        W25777  15.343  11.100  11.488  0.1904 -0.1840  0.1474
25578W        W25778   9.706   8.534  15.381 -0.1283  0.0461 -0.0043
25579W        W25779  10.289   7.166  14.395  0.0628  0.2306  0.1047
25580W        W25780  15.820   8.723  15.820 -0.2231  0.0109  0.3445
25581W        W25781   4.460  11.974  11.903  0.2372 -0.0405 -0.2307
25582W        W25782  10.776   9.005   9.792 -0.1596 -0.4126 -0.1666
25583W        W25783  16.446   7.328  11.250 -0.0892 -0.0856 -0.0412
25584W        W25784   6.783  12.701  16.363 -0.0622 -0.1476 -0.2098
25585W        W25785   9.664   8.577  16.448 -0.2056 -0.0737  0.2991
25586W        W25786  10.197  10.771  17.934  0.0858  0.2935  0.0766
25587W        W25787  10.657   5.175  13.768 -0.0652  0.0391 -0.1726
25588W        W25788   7.747  11.683  10.038  0.1627 -0.3938 -0.1644
25589W        W25789   1.854   9.493  15.428  0.0086  0.0343 -0.1382
25590W        W25790  10.695  10.857  18.082 -0.1471  0.0620 -0.1316
25591W        W25791   2.472   1.140   6.829  0.0559  0.0056  0.1853
25592W        W25792   1.109  13.807  11.996 -0.1442  0.0704  0.0581
25593W        W25793   9.855   3.463   9.062 -0.1498  0.0609 -0.0466
25594W        W25794  14.381   5.036  13.606  0.0284  0.3262 -0.3698
25595W        W25795   5.147  16.036   9.171  0.1121  0.0975  0.0393
25596W        W25796  10.863   7.843   6.281 -0.1247  0.1630  0.0695
25597W        W25797   9.779  10.904  14.987  0.2248  0.1596  0.2590
25598W        W25798  10.602   9.029  17.348  0.0597  0.2553 -0.0192
25599W        W25799   7.903  14.782  10.442 -0.0091  0.0850  0.0471
25600W        W25800   9.077   8.894  15.217  0.1073  0.0543  0.0627
25601W        W25801  13.511   7.660   7.226  0.0887  0.0145  0.0641
25602W        W25802   8.674  12.723  15.867 -0.2822 -0.0240 -0.1651
25603W        W25803   6.457   1.413  14.312 -0.0982  0.2140  0.2450
25604W        W25804   3.703  12.969  15.564 -0.0182 -0.1252 -0.1662
25605W        W25805  11.803   6.691   7.911  0.0378  0.0003  0.1323
25606W        W25806   9.495  10.961  12.051  0.1239 -0.0015 -0.0826
25607W        W25807   4.955   2.470  16.830 -0.0322  0.0322  0.0746
25608W        W25808  12.799   8.368  16.822  0.2652  0.2450  0.1295
25609W        W25809   0.793   5.264  13.972 -0.0630 -0.2635 -0.1348
25610W        W25810   7.452  16.556  13.681  0.4835  0.1222  0.2887
25611W        W25811   6.864   8.206  15.547 -0.0626  0.0944  0.0822
25612W        W25812   1.776   5.659  16.119 -0.0768 -0.0990 -0.0440
25613W        W25813  10.501   2.847  12.862  0.0288 -0.1699 -0.0176
25614W        W25814  15.222  11.174   2.263 -0.1645  0.1211 -0.3258
25615W        W25815   2.285  10.584   9.340 -0.0173 -0.2792  0.0240
25616W        W25816   9.255   7.321   9.964 -0.1103 -0.0927 -0.1835
25617W        W25817   4.846   7.099  11.909 -0.2565 -0.0943 -0.1115
25618W        W25818  16.239  11.010  16.011 -0.4363  0.1996  0.2418
25619W        W25819   1.994  17.019   9.759 -0.4413 -0.0889  0.1362
25620W        W25820  12.962   5.264  13.568 -0.0089 -0.0774 -0.3516
25621W        W25821   1.965  11.781   1.497  0.1923  0.2087 -0.0617
25622W        W25822   4.545   3.299  13.881  0.1719 -0.1628 -0.1706
25623W        W25823   3.235  10.800  16.613  0.2259 -0.1926  0.3692
25624W        W25824   4.260   6.302  11.727  0.1381 -0.3179 -0.0070
25625W        W25825  10.711   8.795  14.963 -0.1200  0.0469  0.0295
25626W        W25826   5.755   6.204   2.508 -0.2897 -0.0109 -0.2525
25627W        W25827  12.574  12.120  17.083  0.1895 -0.1055 -0.2042
25628W        W25828  13.826   9.770  13.317 -0.3492 -0.2267 -0.1577
25629W        W25829   6.498   9.046  17.827  0.0545  0.0023 -0.1085
25630W        W25830  14.646   9.393   2.061  0.2272 -0.0490 -0.1103
25631W        W25831   3.970   1.830   1.336 -0.1827 -0.1993  0.0937
25632W        W25832  10.768  13.996  11.498  0.1655 -0.0569 -0.3265
25633W        W25833  12.912   4.631   2.115 -0.2244 -0.0783  0.2231
25634W        W25834  10.812   9.671   0.181 -0.1312 -0.3128 -0.2509
25635W        W25835   3.964   3.443   0.100  0.1997  0.2757 -0.1449
25636W        W25836   4.435  13.179   2.598 -0.1667 -0.0853 -0.2332
25637W        W25837   7.170  12.650  17.148 -0.0736 -0.1366 -0.2905
25638W        W25838   4.518   5.914  16.512 -0.1570 -0.1541 -0.0288
25639W        W25839   8.878   9.130   2.581 -0.1595  0.0395  0.1572
25640W        W25840   1.953   5.671  15.610  0.0591  0.4047  0.0025
25641W        W25841  15.775   4.441  13.465  0.0688 -0.0689  0.0265
25642W        W25842   3.529  12.102  14.343  0.4140  0.0443  0.0132
25643W        W25843  16.032  11.689  12.221 -0.1617 -0.1238 -0.2147
25644W        W25844   6.201   9.364  18.099  0.0237 -0.1042  0.0055
25645W        W25845   6.819   5.760  13.749  0.0859  0.1688  0.2903
25646W        W25846   4.586  13.784   3.405  0.3924 -0.1751  0.1151
25647W        W25847   6.043   4.612   0.540 -0.1437 -0.0087  0.0534
25648W        W25848  12.978   7.718  15.724 -0.1559  0.0862  0.1159
25649W        W25849   5.636  12.818  11.714 -0.0272  0.2107  0.3424
25650W        W25850   6.658  11.585  16.403  0.2941 -0.0837  0.1205
25651W        W25851   7.263  10.439  13.932  0.3165 -0.1597 -0.0244
25652W        W25852  17.089  11.511  15.639 -0.2543  0.1396  0.0257
25653W        W25853  15.868   2.058   8.140 -0.2508 -0.2147  0.0383
25654W        W25854  14.180  14.870   3.264 -0.0302  0.2936 -0.0237
25655W        W25855   9.009   8.970  12.154 -0.0546  0.0074 -0.2059
25656W        W25856   8.310  11.426  15.550  0.3406 -0.0437  0.1274
25657W        W25857  11.573   3.363  16.620  0.3356 -0.0088 -0.0021
25658W        W25858   5.180   1.682   0.320  0.1491  0.0012  0.2515
25659W        W25859   6.355  14.017  16.269 -0.0482  0.0713 -0.0859
25660W        W25860  12.905   5.235  17.633 -0.2851  0.2166  0.0946
25661W        W25861   0.906  17.854  17.712 -0.2587 -0.0945  0.1273
25662W        W25862   0.730   6.904   4.638  0.1776  0.4214  0.0797
25663W        W25863   3.288  15.611  16.503 -0.1218  0.2733  0.2028
25664W        W25864  14.321  10.810   0.552 -0.0544  0.1785 -0.3231
25665W        W25865   7.000  12.437  17.667 -0.1218 -0.1104  0.3999
25666W        W25866   0.130   7.398  11.970  0.2085  0.0454  0.0847
25667W        W25867   1.021  10.655   1.585  0.0723  0.0667  0.0500
25668W        W25868   5.408   7.246  15.699 -0.1101  0.0285  0.1659
25669W        W25869   2.221  11.946  15.114 -0.0180  0.1697 -0.0373
25670W        W25870  15.495  10.269   0.624  0.0399 -0.1307  0.2217
25671W        W25871  10.997   4.037   4.437 -0.0506 -0.1991  0.1315
25672W        W25872  11.077  12.732  13.111  0.1473  0.1738  0.4281
25673W        W25873   6.984   9.625  12.485  0.1054 -0.1688  0.1812
25674W        W25874  13.459   9.619   5.411  0.0234 -0.1022  0.1828
25675W        W25875   8.068  16.075  10.581  0.0345  0.0972 -0.1864
25676W        W25876  14.840   6.088  17.686 -0.1837  0.0119  0.1182
25677W        W25877   0.556  11.074   1.729 -0.0975 -0.0030  0.0110
25678W        W25878  17.648   0.020  10.815 -0.0357 -0.1633  0.1532
25679W        W25879   9.490  13.594   1.724 -0.0666  0.1914 -0.1070
25680W        W25880   3.152   7.961   6.686 -0.3649  0.0965  0.1451
25681W        W25881   9.925  15.257  13.116  0.1015  0.0634 -0.1970
25682W        W25882  13.077   9.439   3.715  0.0894 -0.0234  0.0235
25683W        W25883  14.349  17.665  17.439  0.0867 -0.1155 -0.0592
25684W        W25884   1.734   8.880   8.958  0.3356 -0.1904  0.0294
25685W        W25885   3.965  12.791   3.511  0.2648 -0.3737 -0.2018
25686W        W25886  10.034   0.642   3.195  0.1672  0.2507 -0.0380
25687W        W25887   8.071   4.751  11.275  0.0558 -0.1353 -0.0491
25688W        W25888  18.073   4.313   3.104 -0.0829  0.0256  0.0361
25689W        W25889   8.373  12.982  13.553 -0.0156  0.0011  0.0776
25690W        W25890  15.729  11.048   1.663  0.1375  0.1282  0.0087
25691W        W25891   7.063   9.604  17.826  0.0790  0.1113  0.1105
25692W        W25892   5.329   0.179  15.583 -0.0202  0.1512 -0.1030
25693W        W25893  14.286   9.397   8.244  0.0517  0.2475 -0.3230
25694W        W25894  12.136  10.232   1.350 -0.0131  0.1002  0.0435
25695W        W25895   8.410  18.160   0.508 -0.1316 -0.0851 -0.1010
25696W        W25896  10.375   2.404  15.164  0.2042  0.1479  0.0836
25697W        W25897  12.571   0.648  14.769  0.0121 -0.4265  0.0627
25698W        W25898   7.139   7.295   1.746 -0.1159 -0.0104  0.2423
25699W        W25899   9.257  16.419  17.195 -0.1103  0.0432  0.1465
25700W        W25900   8.305  16.035  17.346 -0.1254  0.0889 -0.0229
25701W        W25901  14.206   0.814  10.013 -0.2146  0.1101 -0.2124
25702W        W25902  13.271   1.105  11.081  0.3381  0.1341  0.0206
25703W        W25903   1.115   8.953   1.028  0.4536 -0.1104  0.0646
25704W        W25904   3.717  11.520  13.800  0.0307 -0.2334 -0.1409
25705W        W25905   5.892   8.450  16.749  0.0664 -0.1285 -0.0227
25706W        W25906  14.845  13.406  14.169 -0.1027  0.1599  0.0596
25707W        W25907  14.923  17.929   4.040 -0.2502  0.1725  0.1528
25708W        W25908   2.713  10.406  10.495  0.2740  0.2370 -0.2141
25709W        W25909   7.249   7.691  11.908  0.0506 -0.0761 -0.2221
25710W        W25910  15.866  16.311   5.867  0.1152 -0.2542  0.1138
25711W        W25911  11.756   3.667  17.016 -0.0238 -0.0995 -0.2619
25712W        W25912  12.116   9.966  14.595 -0.1227 -0.2790 -0.0560
25713W        W25913  10.340   1.184  16.452  0.1818 -0.0511  0.1917
25714W        W25914  11.323  10.993   5.637 -0.3505  0.2103  0.0077
25715W        W25915   7.456  15.684  12.623  0.0561 -0.0218  0.1689
25716W        W25916   5.083   6.817  17.776 -0.1111 -0.1669  0.0257
25717W        W25917   3.265   9.939  15.721 -0.3879 -0.1826 -0.2428
25718W        W25918   8.495   8.719   0.061 -0.0498  0.0229  0.0202
25719W        W25919  13.850   9.474   1.500  0.1447 -0.1490  0.1534
25720W        W25920   7.921   6.724   1.281  0.1513  0.0139  0.0122
25721W        W25921   9.263  10.390  14.207 -0.0305  0.0416 -0.3505
25722W        W25922   8.162   5.382   8.468 -0.0262 -0.4130 -0.1068
25723W        W25923   4.098  16.271  16.193  0.0156  0.0309  0.2191
25724W        W25924  13.448  11.208   0.265  0.1201  0.0268  0.0902
25725W        W25925  12.080   8.813   0.825  0.4417  0.3334 -0.0888
25726W        W25926  13.679   0.416  15.175  0.3336 -0.0111  0.1827
25727W        W25927  16.413   4.854  14.462  0.1712 -0.1958  0.0506
25728W        W25928  15.572  14.464  16.012 -0.2513  0.0772 -0.4578
25729W        W25929  16.766  10.041  10.532  0.1227  0.1833  0.2035
25730W        W25930   7.068  13.146   8.364 -0.1346  0.1147  0.2138
25731W        W25931   5.629  10.281   3.813 -0.1681  0.0038 -0.1118
25732W        W25932   2.624   1.086   5.029  0.3009  0.1474 -0.1246
25733W        W25933  14.019  15.320  18.002 -0.0519 -0.1700  0.0640
25734W        W25934   7.609   6.446   2.530  0.1764 -0.2919  0.1606
25735W        W25935  11.918  14.919   5.164 -0.0160  0.1049  0.1603
25736W        W25936   8.626   2.553  14.153  0.3414  0.1577  0.1849
25737W        W25937  11.818  11.989  14.970  0.1553 -0.1843 -0.0590
25738W        W25938   6.665   0.031  16.600  0.3342  0.1752  0.0345
25739W        W25939   5.538  11.406   4.140 -0.1946  0.1088 -0.1001
25740W        W25940  17.249   9.688  15.392  0.1323  0.3117  0.0768
25741W        W25941   8.087  16.654   1.271  0.0114  0.0722  0.2016
25742W        W25942   9.641   9.667   0.911  0.0273 -0.0940 -0.1020
25743W        W25943  16.280   5.335   4.479  0.0195 -0.1173  0.0313
25744W        W25944  11.689   1.241  16.427 -0.1085  0.1385 -0.0150
25745W        W25945  13.377   6.561   0.008  0.1577 -0.0831  0.3037
25746W        W25946   3.182  16.292  12.312 -0.2618 -0.2134  0.0104
25747W        W25947  14.770   6.338  15.969  0.3084 -0.0659  0.0631
25748W        W25948   4.580  14.868  17.823 -0.1185  0.0555 -0.2546
25749W        W25949   3.455   2.952  17.474 -0.0769  0.2365  0.0262
25750W        W25950   8.709  13.419  13.193 -0.0766  0.0610  0.0951
25751W        W25951   1.572  14.932  14.199 -0.3932 -0.2154  0.0428
25752W        W25952   4.939   2.389  17.405  0.1150 -0.1449  0.1655
25753W        W25953  16.183   8.230  16.758  0.0428 -0.1272 -0.0414
25754W        W25954  18.151  14.204   8.268 -0.1388 -0.3410  0.3614
25755W        W25955  16.616   1.650   6.558  0.2542 -0.2901 -0.0570
25756W        W25956   3.467  12.947   6.325 -0.0039 -0.2096  0.1521
25757W        W25957  13.526   7.374  10.757  0.2509  0.0278 -0.1733
25758W        W25958   3.613   3.311   1.119 -0.1138 -0.1712 -0.2739
25759W        W25959   2.416  13.665   3.360  0.0819 -0.1385 -0.0999
25760W        W25960  16.096   5.253   0.304  0.0741  0.0362 -0.0351
25761W        W25961  14.839   3.369  14.580 -0.0738 -0.3578 -0.2494
25762W        W25962   7.718   5.380   2.802  0.0358  0.0937  0.2833
25763W        W25963   5.825   8.653   0.403  0.2330  0.0336 -0.1549
25764W        W25964   6.112  10.161  11.514 -0.0985  0.1192  0.0383
25765W        W25965   4.242  10.562  11.167 -0.0188 -0.0088 -0.0050
25766W        W25966  13.697  14.537   2.630 -0.1527  0.0257 -0.1344
25767W        W25967  12.073  13.476   2.070 -0.0798 -0.2096  0.1768
25768W        W25968   6.629   6.861   0.041  0.0417  0.1853  0.3289
25769W        W25969   7.743  10.675  16.557 -0.0232 -0.1827 -0.2566
25770W        W25970   5.633   5.909  16.898  0.3981  0.0432 -0.0051
25771W        W25971   5.811  10.877   5.766 -0.2574  0.0958  0.1450
25772W        W25972  10.917  10.806  16.751  0.0970 -0.0792 -0.1536
25773W        W25973   2.900   4.301  17.911  0.2051 -0.0286  0.1551
25774W        W25974  11.507   1.563  17.845  0.0312 -0.3688 -0.1895
25775W        W25975   3.634  15.428  14.545 -0.0054 -0.2487 -0.3453
25776W        W25976  10.664   7.721   1.484  0.1898 -0.3673 -0.0453
25777W        W25977   7.596   9.086   0.382  0.2159 -0.1522  0.0190
25778W        W25978   8.741  10.167  15.370  0.2735 -0.2736  0.0393
25779W        W25979   5.869   6.644  14.059 -0.0237  0.1214 -0.2278
25780W        W25980   1.584   1.553  13.746 -0.1191  0.0078  0.1126
25781W        W25981  16.594  12.729   7.541  0.2247 -0.1428 -0.3055
25782W        W25982   7.204   2.840   1.965 -0.0573 -0.3297 -0.3088
25783W        W25983   4.234  14.480   3.044  0.0052 -0.1988 -0.1520
25784W        W25984   9.679  12.119  10.373  0.1195 -0.1292  0.2753
25785W        W25985   5.425   9.922  16.210 -0.1672 -0.0495  0.0150
25786W        W25986   4.242   7.621  14.510 -0.1024  0.2361 -0.0721
25787W        W25987  14.743  10.688  17.094 -0.1452  0.1924  0.1227
25788W        W25988   8.869  10.183  14.865  0.0878 -0.0704  0.2846
25789W        W25989  10.295  14.616  10.815  0.0636  0.1096 -0.0848
25790W        W25990   6.315   8.582  16.371 -0.0667 -0.0645 -0.1245
25791W        W25991  10.605   9.765   0.572  0.3238 -0.1894  0.1677
25792W        W25992   3.361   4.012  17.286 -0.0115 -0.2651 -0.1847
25793W        W25993   9.193   8.673   1.241 -0.0414 -0.3554  0.0462
25794W        W25994   3.616   3.835  17.993  0.1983  0.1093 -0.2183
25795W        W25995  11.112   9.088  17.415 -0.2021  0.3395 -0.0663
25796W        W25996   9.483  11.715  11.388  0.4080  0.0601  0.1788
25797W        W25997  12.062  13.076  17.528 -0.0477  0.0968  0.2386
25798W        W25998  16.496   0.865   6.105 -0.1857 -0.3203 -0.3573
25799W        W25999   7.777  13.182  16.384 -0.1519  0.4681 -0.3976
25800W        W26000  14.722   8.109   6.749 -0.2787  0.1090  0.1685
25801W        W26001   6.349   7.483   2.212 -0.0658  0.0676  0.1202
25802W        W26002  15.888   9.836   3.403 -0.0968 -0.1070 -0.1555
25803W        W26003   7.143   5.308  17.531 -0.1523 -0.2241  0.0244
25804W        W26004   9.425   4.325  10.745  0.1432 -0.0127  0.0448
25805W        W26005   9.076   5.330  16.521 -0.1294  0.1160 -0.0721
25806W        W26006  14.292  12.528  11.893 -0.2010  0.2565 -0.1986
25807W        W26007  10.153   7.286   9.821  0.2807 -0.0753 -0.1321
25808W        W26008   5.007   7.152  10.731 -0.0477  0.0417  0.2940
25809W        W26009  11.423   2.709   2.092  0.0140  0.1163 -0.0152
25810W        W26010   5.721   5.420   0.631 -0.1052 -0.0215  0.1810
25811W        W26011   7.395  13.559  17.398  0.0916  0.0382  0.1363
25812W        W26012   2.524   6.154   3.853 -0.3167  0.0267  0.3151
25813W        W26013   2.894   2.517   6.709  0.1995 -0.0353  0.1485
25814W        W26014   1.377  10.900   2.432 -0.0758 -0.0074 -0.2584
25815W        W26015   1.382  10.725   0.631  0.0333  0.0536  0.3566
25816W        W26016   7.218   5.821  13.045  0.1162 -0.0017 -0.1008
25817W        W26017   4.934   3.427   2.422 -0.1827 -0.2257  0.0006
25818W        W26018   9.719   8.424  13.217 -0.2224 -0.1185  0.0460
25819W        W26019  11.936   6.524  17.853  0.1441  0.0514  0.0165
25820W        W26020  17.658   4.115   5.662  0.2939 -0.1407 -0.0387
25821W        W26021   1.353  12.538   2.629  0.0175 -0.2859  0.1078
25822W        W26022  14.080  13.307   2.442  0.0021  0.1753  0.0633
25823W        W26023  10.508  10.159   7.016  0.1134 -0.1851 -0.0666
25824W        W26024  17.970   6.732  18.096 -0.0872  0.2297  0.0085
25825W        W26025  11.108  11.333   1.741 -0.0525 -0.1074  0.2498
25826W        W26026  14.829  10.365  17.510 -0.1656  0.0043 -0.1269
25827W        W26027  15.763   4.513  12.434 -0.2928  0.0341  0.1924
25828W        W26028   0.523  12.708   0.704 -0.3451  0.0925 -0.0937
25829W        W26029  10.493  16.300   2.893  0.2597  0.0647  0.4008
25830W        W26030   9.132   2.473  15.739  0.4167 -0.0446 -0.0150
25831W        W26031   5.483   9.571  14.041 -0.3212 -0.0471  0.3218
25832W        W26032  10.104  10.198  16.776  0.3479 -0.2437 -0.2471
25833W        W26033   9.685  14.845   1.557 -0.1958  0.1981 -0.0010
25834W        W26034  17.238   6.753  14.725  0.2660  0.2403 -0.0144
25835W        W26035  13.426  11.779   1.489  0.2378 -0.2078  0.1196
25836W        W26036  14.387   7.450  17.513  0.2338  0.1213  0.0761
25837W        W26037   2.025   0.108  15.839  0.2832  0.3893 -0.1125
25838W        W26038  17.798   1.627   3.597  0.2322  0.1772 -0.1648
25839W        W26039   8.100   7.625   1.234 -0.0382 -0.4417 -0.1940
25840W        W26040  12.778   9.547  11.057 -0.0022  0.0043  0.2224
25841W        W26041   6.923  11.644   1.881 -0.0150  0.1448 -0.0019
25842W        W26042  12.261  13.304  17.907 -0.1164  0.1367  0.1060
25843W        W26043  14.064   3.995  13.498  0.2071 -0.3032  0.0590
25844W        W26044  10.179  15.695   5.433 -0.2916  0.1035  0.1539
25845W        W26045  10.323  13.131  17.382  0.1616  0.2030  0.0586
25846W        W26046   9.624  12.292  16.786 -0.0646 -0.0094  0.0309
25847W        W26047   6.160  15.276  12.701  0.1177 -0.0719 -0.0858
25848W        W26048   5.616   5.518  12.968  0.1234  0.0928 -0.1308
25849W        W26049   6.768   9.029  15.079 -0.1171 -0.1826 -0.0601
25850W        W26050   5.466   3.169  15.213 -0.0937  0.1910 -0.0545
25851W        W26051  17.028   4.164  11.900  0.1878 -0.2259  0.1433
25852W        W26052   0.699  10.191  15.369  0.0930 -0.2038 -0.0441
25853W        W26053  15.949   9.031   3.277 -0.1013 -0.0496 -0.1668
25854W        W26054  17.171  10.353  13.269 -0.0101 -0.1381 -0.0901
25855W        W26055  10.872   4.733   2.254 -0.3383  0.0959 -0.0696
25856W        W26056  10.060   2.676  14.812 -0.0973  0.1570 -0.1752
25857W        W26057  12.022   8.576  13.146  0.1038  0.1192 -0.0927
25858W        W26058   6.514   0.096   3.028 -0.0626  0.0637 -0.2362
25859W        W26059  12.244  12.107   6.845 -0.0642  0.0359 -0.2963
25860W        W26060  12.863  11.188  15.467  0.3881 -0.0617  0.2139
25861W        W26061   7.599   8.039  11.117 -0.1063 -0.3517  0.2347
25862W        W26062   1.364  10.486  12.212 -0.1080 -0.0136  0.0465
25863W        W26063   2.097   3.501  14.076  0.0381  0.2871 -0.1204
25864W        W26064   7.289   0.165  16.014  0.1658 -0.0404  0.1136
25865W        W26065  16.367   9.292  16.383 -0.4518 -0.2577  0.0141
25866W        W26066   3.328  10.620   0.708 -0.1676 -0.0358 -0.1011
25867W        W26067  14.087  14.870   1.414 -0.1654 -0.2849 -0.1341
25868W        W26068  13.057  10.683   2.357 -0.1685 -0.2289 -0.2718
25869W        W26069   5.382   2.367   6.964 -0.0997  0.0814 -0.2754
25870W        W26070   6.763  13.974  16.719 -0.2227  0.1579  0.0310
25871W        W26071  12.607  12.220  11.025  0.0944 -0.1752 -0.0109
25872W        W26072   1.353  12.922   9.643  0.0038 -0.0365  0.0305
25873W        W26073  12.945   7.599  16.609 -0.1591  0.4595 -0.0109
25874W        W26074  10.344  10.094   1.004 -0.1633  0.1055 -0.1606
25875W        W26075   6.164   9.698   3.422  0.0799  0.1947  0.0910
25876W        W26076  14.312   8.154  17.013 -0.3742  0.2271  0.0967
25877W        W26077  11.402   5.232  11.430 -0.0205 -0.1649  0.1414
25878W        W26078   8.727  12.103  17.125 -0.1679  0.1309 -0.1234
25879W        W26079   5.074  13.917  12.360  0.3303 -0.5376  0.1027
25880W        W26080   3.385  12.897  10.411  0.0763 -0.0579  0.0319
25881W        W26081  18.024  17.423  17.361  0.1887 -0.2542  0.1604
25882W        W26082  14.293  17.786   0.468 -0.0214 -0.1329  0.1303
25883W        W26083  13.620   8.578  16.022  0.3660  0.1362 -0.3707
25884W        W26084   1.489   1.067   2.264 -0.0505 -0.1117 -0.2570
25885W        W26085   7.036  11.774  10.512  0.1268 -0.2004 -0.0156
25886W        W26086   4.573  15.151  17.258  0.2326  0.2034  0.0121
25887W        W26087   6.135  16.184  16.583 -0.1000  0.5485  0.1077
25888W        W26088   5.999   7.892  15.897 -0.1983 -0.0476 -0.0297
25889W        W26089   5.254  13.450  17.424 -0.1668  0.0392  0.0017
25890W        W26090   8.551   7.421   2.860  0.2638  0.1606 -0.2156
25891W        W26091   1.654  11.978   0.930  0.0482  0.2668 -0.0567
25892W        W26092   1.566   5.428   5.362 -0.1575 -0.0988 -0.4143
25893W        W26093   2.801  13.377  17.774 -0.0707 -0.0227  0.1820
25894W        W26094  10.973   9.614   4.272  0.0088  0.1886 -0.0814
25895W        W26095   8.756   5.685  15.812  0.2489  0.1789 -0.0218
25896W        W26096  12.149  16.973   9.474 -0.1143 -0.0648  0.2062
25897W        W26097   6.202   6.127   1.426 -0.2073  0.0922 -0.1637
25898W        W26098  14.795   1.891  12.039  0.1971 -0.1513 -0.3425
25899W        W26099   9.027   5.862   9.665  0.0050  0.0035  0.2962
25900W        W26100   7.317  13.814   0.040 -0.0489 -0.3894 -0.1468
25901W        W26101   9.263  10.374  16.667 -0.0268  0.1288  0.1394
25902W        W26102   5.955   8.453  17.376  0.0720  0.2723 -0.0155
25903W        W26103   6.069   7.226  12.911  0.2637  0.1129 -0.4222
25904W        W26104  17.204   8.828  16.366  0.2671  0.0496  0.3202
25905W        W26105   8.972   8.706  18.090  0.0488  0.1855 -0.1448
25906W        W26106   3.755  17.442  11.269 -0.1951 -0.0623  0.0667
25907W        W26107  10.664   4.641  10.028 -0.1092 -0.0026  0.1223
25908W        W26108  14.940  10.120  14.360 -0.2382  0.1363 -0.1340
25909W        W26109  13.611   6.911  16.081 -0.0286  0.1428  0.1203
25910W        W26110  11.675  10.951  12.399 -0.0337 -0.2260  0.2939
25911W        W26111   2.288   3.588   8.540  0.0200  0.1555  0.3528
25912W        W26112   8.238  11.713  11.415 -0.1916  0.3025 -0.1874
25913W        W26113  16.518  10.073   3.912 -0.1337  0.0979 -0.0745
25914W        W26114   4.136  10.350  10.375  0.3134 -0.0008 -0.2650
25915W        W26115   9.570  12.158  16.270  0.1828 -0.1427 -0.1318
25916W        W26116   9.545   5.257  11.491 -0.0719  0.1063 -0.0358
25917W        W26117  16.062   4.844  13.299  0.2038 -0.1510 -0.0562
25918W        W26118  13.355  10.307  14.986  0.0993 -0.2220  0.0006
25919W        W26119   5.855  13.111  13.656 -0.0922 -0.0193 -0.1266
25920W        W26120  13.285  12.470  15.454  0.1485 -0.2188 -0.4121
25921W        W26121   1.146  11.888  15.599 -0.2032 -0.0831 -0.2519
25922W        W26122   9.757   9.653  16.248  0.0506  0.1365  0.2873
25923W        W26123  13.433   3.820  12.511 -0.1339  0.3792 -0.2098
25924W        W26124   4.725   8.511  14.577 -0.2266 -0.2204 -0.1935
25925W        W26125  10.554   1.349   3.917 -0.0036 -0.1031  0.0668
25926W        W26126  16.686  13.994   0.839  0.2274 -0.1661  0.2015
25927W        W26127   4.100   9.249  16.815  0.1880  0.1470  0.1376
25928W        W26128  11.589   1.214  12.071 -0.0093 -0.3910 -0.1786
25929W        W26129   6.773   2.167   7.135 -0.1080  0.1777 -0.0285
25930W        W26130  13.298   8.299  12.983 -0.0577  0.1180  0.1198
25931W        W26131  11.355   3.472  14.628 -0.2898  0.0120  0.1266
25932W        W26132   3.330  18.164  13.439 -0.1061  0.2709  0.0259
25933W        W26133  10.371  10.034  10.281  0.1414 -0.0770 -0.0682
25934W        W26134  18.015   7.846  10.515  0.1725 -0.0145 -0.3358
25935W        W26135   3.295  13.444   0.438  0.1023  0.0254  0.0255
25936W        W26136   0.978   8.251  16.490  0.1133  0.1378  0.0456
25937W        W26137   3.798  12.541   0.045 -0.1143 -0.1982 -0.2952
25938W        W26138   6.627   5.917  16.322 -0.0658  0.0101  0.0251
25939W        W26139   8.145  14.607   0.367 -0.0075  0.0301  0.0414
25940W        W26140   7.843   8.531   7.607 -0.2395 -0.2132  0.3598
25941W        W26141   8.919   7.817  14.122  0.0056 -0.1674 -0.2431
25942W        W26142   6.807  15.908   4.475 -0.0667 -0.1939  0.3154
25943W        W26143  13.256   1.927   3.825 -0.3148  0.1306  0.1930
25944W        W26144  15.666   5.480   9.555  0.0188  0.0961 -0.1930
25945W        W26145   5.507   3.666  11.352  0.1604 -0.2799  0.0724
25946W        W26146  11.647   3.951   2.610 -0.0033 -0.1052 -0.3778
25947W        W26147  14.746   6.631  16.530  0.2773 -0.1894  0.1067
25948W        W26148   6.007   8.951  17.260 -0.0530 -0.0731 -0.0251
25949W        W26149   8.821  15.567   6.202 -0.2829  0.0249 -0.0458
25950W        W26150   6.343   8.494  10.176 -0.2120  0.1302  0.0375
25951W        W26151  10.413  13.157   2.544  0.0898 -0.0178 -0.1111
25952W        W26152  10.546   5.488   3.496  0.0555  0.0298  0.2194
25953W        W26153   5.778  16.745  17.844  0.0102 -0.3219  0.0410
25954W        W26154   6.025  11.752   9.422  0.1111 -0.0962  0.3368
25955W        W26155   4.952  13.074   7.989 -0.0579  0.0648 -0.1316
25956W        W26156   4.551  13.199   9.983 -0.1203  0.1917 -0.4512
25957W        W26157   9.351   3.484  17.302 -0.0292  0.1149 -0.0285
25958W        W26158   6.434   3.882   0.274  0.0433 -0.0662 -0.0337
25959W        W26159  15.116   4.804   0.352 -0.1475  0.0869  0.1663
25960W        W26160   8.521   6.515  14.010 -0.0550  0.0478 -0.2538
25961W        W26161  12.890  14.427  11.426 -0.2063  0.1763  0.2302
25962W        W26162   6.353   8.518  11.807  0.1580  0.0781 -0.2135
25963W        W26163   0.858  10.794  13.134 -0.1536 -0.0075  0.1075
25964W        W26164  13.091  11.200   5.985  0.0966 -0.1224 -0.0548
25965W        W26165   3.923  17.525   9.937  0.0110  0.0161 -0.2417
25966W        W26166   8.711   6.730   7.397 -0.1740  0.2853  0.1963
25967W        W26167   6.876  15.434  13.254  0.2866  0.0253 -0.0445
25968W        W26168   9.449   8.421  17.371 -0.2066 -0.1303 -0.0361
25969W        W26169   9.257  11.558  16.368  0.0185 -0.1007 -0.1441
25970W        W26170   9.215  12.882   8.787 -0.0912  0.2556  0.0646
25971W        W26171   7.078   7.546  16.287 -0.1397 -0.0349  0.0247
25972W        W26172  11.789   2.291   1.221  0.0740  0.0688  0.1784
25973W        W26173  14.392  12.759   1.785 -0.1748 -0.0352  0.0742
25974W        W26174   7.728  10.456   4.630  0.0354 -0.2262 -0.0494
25975W        W26175  14.961  15.290   7.222  0.1930 -0.1466 -0.0694
25976W        W26176   2.606  13.184  15.868  0.0428  0.2267 -0.1534
25977W        W26177   4.838  11.170   4.377  0.0526  0.0762 -0.0165
25978W        W26178   3.238   5.586  11.458  0.3279  0.0466  0.1118
25979W        W26179   3.847   0.201   0.214  0.0207 -0.1604 -0.0735
25980W        W26180  10.866   8.119  16.439  0.0879 -0.4064  0.0462
25981W        W26181   2.995   7.151  17.669  0.1162 -0.0895  0.1034
25982W        W26182   4.966   6.784   1.579  0.1770 -0.1393  0.0005
25983W        W26183   7.895   8.432  16.449 -0.0484  0.0144  0.0407
25984W        W26184  13.551  11.574  14.512  0.0185  0.1666  0.1628
25985W        W26185   0.188   8.791   0.241 -0.0553 -0.2320  0.0892
25986W        W26186   0.251   2.453  15.348 -0.1790 -0.3077  0.1826
25987W        W26187   6.949   0.807  12.478  0.0815 -0.2274 -0.0266
25988W        W26188   1.090   5.248   3.214  0.0945 -0.0894 -0.0314
25989W        W26189  16.216   7.329  18.125 -0.0757  0.1008 -0.0231
25990W        W26190   5.340  11.250   0.284  0.3249  0.2155 -0.0160
25991W        W26191   7.707  12.133  13.401 -0.0290  0.0635 -0.1946
25992W        W26192   5.367   7.021   1.897  0.2269  0.4074  0.4941
25993W        W26193  12.452   4.426   9.975 -0.2281  0.0131  0.2398
25994W        W26194  12.256   7.019   7.387 -0.1668 -0.1037  0.2101
25995W        W26195   6.734  15.749   5.441  0.0415 -0.1724  0.0361
25996W        W26196   8.608   5.696   9.835  0.5287 -0.0961 -0.0882
25997W        W26197   1.929   8.815   0.522 -0.1795 -0.0572  0.0731
25998W        W26198  16.121   2.133  11.079 -0.0222 -0.1054 -0.1788
25999W        W26199  17.130  11.705  17.462 -0.0032 -0.1552 -0.2550
26000W        W26200  13.201  14.121   7.009  0.0595 -0.0618  0.0637
26001W        W26201   7.457   7.261  13.275  0.2171 -0.1068 -0.0265
26002W        W26202  16.638   5.545   3.035  0.2877  0.0146 -0.1015
26003W        W26203   7.754   3.775   1.467  0.0227 -0.4052 -0.0873
26004W        W26204  11.853  12.507   3.462 -0.1082  0.1159  0.1850
26005W        W26205   8.905   8.682  13.433 -0.1302  0.1359  0.4174
26006W        W26206   4.476   4.313  13.703  0.0618  0.0817 -0.1192
26007W        W26207   6.514  10.149   2.260  0.1269 -0.1256  0.1118
26008W        W26208   6.154   5.726   7.110 -0.0661 -0.0715  0.1175
26009W        W26209   5.376  13.572  17.903  0.1889  0.1347 -0.3403
26010W        W26210   9.913  16.979  17.604 -0.1365 -0.0958 -0.1780
26011W        W26211  17.592  11.381   0.881 -0.0771  0.3019  0.3422
26012W        W26212   5.191   8.950   6.837  0.0858 -0.1357  0.0554
26013W        W26213   6.005  13.531  11.205 -0.2118  0.0414 -0.3279
26014W        W26214  15.812  16.447   0.772  0.1969 -0.1193  0.0824
26015W        W26215   4.239  17.537   4.166 -0.2561  0.1206 -0.0470
26016W        W26216   7.879  14.289   5.909  0.0647 -0.0044 -0.1267
26017W        W26217  10.954  16.207   0.613  0.3386  0.1652  0.2614
26018W        W26218  11.495  13.831   5.375  0.2774  0.2423 -0.2049
26019W        W26219   9.175   9.461  14.473 -0.0114 -0.0484 -0.1707
26020W        W26220   7.165   5.379   3.615  0.0212 -0.3690 -0.0228
26021W        W26221   3.857   8.208   3.250  0.2269 -0.0910  0.3206
26022W        W26222  13.982  14.420   1.774  0.0200  0.0428 -0.0610
26023W        W26223   3.815   9.190   7.272  0.1050 -0.3526  0.0769
26024W        W26224   5.532  13.692   4.320 -0.1885  0.0947  0.1391
26025W        W26225   9.012  15.044   5.388 -0.2326 -0.0556 -0.1455
26026W        W26226   3.337  13.606   9.856 -0.2145  0.1237  0.0287
26027W        W26227  13.546  10.705   2.709  0.3471 -0.0912 -0.1484
26028W        W26228   3.218   9.993   4.969  0.0408 -0.1765  0.1120
26029W        W26229  17.577   1.328   5.390 -0.1117  0.0645  0.1075
26030W        W26230  10.573   9.650  15.646  0.3389 -0.0680 -0.0363
26031W        W26231  13.924   8.723   2.268  0.0476  0.0800  0.3399
26032W        W26232  10.525   3.655  16.574  0.1664 -0.0353  0.3344
26033W        W26233   3.623   9.940   4.642  0.0881  0.1641  0.1999
26034W        W26234  16.171  15.620  16.503 -0.1712 -0.0055 -0.2904
26035W        W26235   6.342   5.043  14.036 -0.3069  0.2413 -0.2812
26036W        W26236   3.259  10.840  17.939  0.2315 -0.2260  0.0835
26037W        W26237   8.168  11.124   4.817  0.1071  0.0747  0.1459
26038W        W26238  10.510  13.823  17.241 -0.1699  0.0230 -0.1271
26039W        W26239   4.618  17.885   3.410  0.0156 -0.1456 -0.1685
26040W        W26240  14.312  13.145   0.757  0.0277 -0.0752  0.0807
26041W        W26241   8.260  12.484  11.134 -0.3274  0.0697 -0.0126
26042W        W26242  13.792  17.025  13.261 -0.4097 -0.2860 -0.4391
26043W        W26243  17.065  16.022   4.488  0.0434 -0.2316  0.3972
26044W        W26244   7.385  13.359   2.843 -0.0011 -0.2400 -0.3266
26045W        W26245   6.006  12.821   2.679  0.2357  0.2380  0.2968
26046W        W26246   4.442  15.672  13.503  0.0791  0.2582  0.1609
26047W        W26247  17.706   4.989   0.366 -0.2735 -0.2915  0.2081
26048W        W26248   7.456  14.249   3.802  0.2083  0.2005  0.1774
26049W        W26249  10.520   5.744   0.559 -0.0846 -0.1960 -0.2211
26050W        W26250   9.201   3.738   0.582 -0.0162  0.0575 -0.0269
26051W        W26251   6.359  12.675  16.121 -0.1784 -0.1116 -0.1679
26052W        W26252  17.279  17.678  13.545  0.0953  0.1664 -0.0853
26053W        W26253   9.686  13.718   4.304  0.1478  0.0177  0.0864
26054W        W26254  13.517  15.826  16.835 -0.2542 -0.1668  0.1976
26055W        W26255   1.639   5.576   2.207  0.0779 -0.2167  0.0830
26056W        W26256   3.627  13.928   5.260  0.1059  0.0294  0.0650
26057W        W26257   6.680  14.607  17.083  0.2482  0.2781 -0.2287
26058W        W26258   8.217   7.467   5.686 -0.1899  0.0588 -0.1476
26059W        W26259   3.787  11.916   6.460  0.2207 -0.1438  0.3277
26060W        W26260   1.363  18.020  17.818 -0.0225  0.1409  0.1867
26061W        W26261   8.929  17.191   5.652  0.0940 -0.5677  0.0458
26062W        W26262   4.567  12.399   6.880  0.1337 -0.1590  0.0808
26063W        W26263   7.068   6.418   1.376 -0.0189 -0.1999  0.0401
26064W        W26264  14.556  13.676  17.625 -0.3174  0.1027  0.1061
26065W        W26265   8.062  10.824   4.438 -0.0649  0.1044  0.1917
26066W        W26266   6.481  11.538  17.725 -0.1705 -0.0900 -0.0725
26067W        W26267  17.854   9.985   1.652 -0.1346 -0.1998 -0.0822
26068W        W26268   5.949  13.599   6.697  0.3277  0.1897  0.1638
26069W        W26269  10.451  13.232  18.166  0.3751 -0.0832 -0.1955
26070W        W26270  13.655   6.832  13.552  0.3837 -0.1221  0.1960
26071W        W26271   6.226  11.153  10.889  0.2879  0.0014 -0.1505
26072W        W26272   6.730  11.814  14.995  0.0232  0.0425 -0.4234
26073W        W26273  14.072  18.085   2.878 -0.0884  0.1793  0.1976
26074W        W26274   7.417   9.967  11.749 -0.0274 -0.2007 -0.0005
26075W        W26275   4.216  14.683   0.549  0.2441 -0.0315  0.2043
26076W        W26276   8.365  13.787  14.882 -0.0936  0.0203  0.0392
26077W        W26277   2.484   5.025   5.115  0.0140 -0.0865  0.0559
26078W        W26278  16.345   9.086  14.510 -0.1129  0.0655 -0.1444
26079W        W26279  16.673  10.420  13.383 -0.1871 -0.2627  0.0503
26080W        W26280  16.259   5.832   5.451 -0.1030 -0.0439  0.0999
26081W        W26281  12.428   1.740   1.744  0.0298 -0.1547 -0.0518
26082W        W26282   8.091  12.000  10.894  0.3240  0.0364 -0.2128
26083W        W26283   8.001  13.518   8.579 -0.1439  0.0238 -0.5562
26084W        W26284   9.621  15.575   2.584 -0.4566  0.0122  0.1393
26085W        W26285   4.632  12.571  15.400 -0.3394 -0.0117  0.4005
26086W        W26286   9.148   2.472   2.516 -0.1228 -0.0519 -0.0741
26087W        W26287   5.066   6.343  11.453 -0.2083  0.1541  0.1248
26088W        W26288   7.302  12.684   0.284 -0.1470 -0.1740  0.1021
26089W        W26289   4.188  12.535   5.111 -0.3560 -0.1062  0.3914
26090W        W26290   5.540   5.838  17.964 -0.0669  0.3117  0.3080
26091W        W26291  15.120   8.344   4.198  0.1790  0.1906 -0.4248
26092W        W26292   1.323   9.430   9.581  0.1895 -0.0293 -0.2568
26093W        W26293   9.294  14.024  17.995 -0.1693  0.0633 -0.0359
26094W        W26294   7.423  12.416  16.671 -0.2062  0.0480 -0.0179
26095W        W26295  13.052   9.432  17.957  0.4619  0.4701  0.2157
26096W        W26296  10.567   8.109   1.062  0.0182 -0.1739  0.1239
26097W        W26297   1.617  17.092   0.556 -0.0171  0.2453  0.1135
26098W        W26298   9.072   9.161   7.268 -0.1294  0.1076  0.0360
26099W        W26299   4.014  12.198   1.313  0.0823 -0.0708  0.0191
26100W        W26300   4.666  11.987  13.859 -0.0895 -0.0300 -0.2310
26101W        W26301   3.486  17.177  10.931  0.1223  0.0011  0.1640
26102W        W26302   5.573  11.742  17.925 -0.2234 -0.1740  0.1570
26103W        W26303  11.683   5.447  13.533  0.3299  0.1313  0.0641
26104W        W26304   2.721   3.665   8.820  0.2526  0.0145 -0.0400
26105W        W26305  16.355  10.761   9.131 -0.1204  0.3311 -0.2998
26106W        W26306   3.835  16.072   1.366  0.0025  0.1670  0.1356
26107W        W26307  13.111  13.178  17.904  0.3782  0.3081 -0.2426
26108W        W26308   9.110  16.993   4.429  0.2761  0.1015  0.1790
26109W        W26309   8.365   6.431   6.576 -0.0629 -0.2465 -0.1338
26110W        W26310   3.831   9.911   1.274 -0.2177 -0.1572  0.3549
26111W        W26311  16.965  15.710   1.315 -0.0306  0.0111  0.2038
26112W        W26312   3.161   5.877   6.235  0.1881  0.0725  0.0406
26113W        W26313   6.883  17.025  15.865  0.0437  0.1281  0.2057
26114W        W26314  17.369  15.658  12.456  0.2979 -0.1086  0.4390
26115W        W26315  14.814   7.054  11.787  0.1191 -0.0182 -0.0620
26116W        W26316   9.982   2.944  12.737 -0.2247  0.1165 -0.2284
26117W        W26317  10.156  13.787   0.026 -0.1098 -0.0751 -0.0531
26118W        W26318  13.795   8.878  13.529 -0.3191  0.3661  0.1185
26119W        W26319  16.286   6.793  16.125  0.1618 -0.3670 -0.0658
26120W        W26320   6.052   9.849  17.335 -0.2584  0.3177  0.0315
26121W        W26321   9.092   9.660  15.506 -0.3882  0.3570 -0.1153
26122W        W26322  12.183  10.793   0.302  0.1510 -0.1950  0.2181
26123W        W26323   6.313   3.053   9.808  0.1777 -0.3202  0.0220
26124W        W26324   0.913   8.212  11.266  0.2355  0.1668 -0.1122
26125W        W26325  14.233   8.989  10.547 -0.2211  0.3387  0.0255
26126W        W26326  12.541  10.792   4.351 -0.0823  0.0910 -0.2606
26127W        W26327   4.516   9.591  16.040 -0.0359  0.2266  0.0995
26128W        W26328   9.689   0.269   1.009 -0.4863 -0.0721 -0.2598
26129W        W26329   6.972  10.145   5.119  0.0929  0.0009  0.6055
26130W        W26330   4.163  15.093  13.321 -0.0913  0.2977 -0.0409
26131W        W26331  10.532  12.840   7.042 -0.2741  0.0689  0.2710
26132W        W26332   1.148  15.027   0.101  0.2518  0.0393 -0.1246
26133W        W26333  13.741  13.568   7.947  0.1262  0.1116  0.0136
26134W        W26334   5.743  13.611   4.871  0.0808 -0.0194 -0.5041
26135W        W26335  10.764  11.810   5.774  0.3088 -0.1822  0.1792
26136W        W26336   2.646  16.545   2.685  0.2654  0.0527 -0.0279
26137W        W26337   7.626   1.010   1.561  0.1193 -0.2238 -0.2111
26138W        W26338  13.524  14.074  16.687 -0.0197  0.2048 -0.0000
26139W        W26339   5.062  11.428   1.858 -0.0765  0.4335  0.1830
26140W        W26340   4.267   7.237   9.666  0.0335  0.0969 -0.0473
26141W        W26341  10.269  11.018   7.545  0.2941 -0.1633  0.0447
26142W        W26342  11.204   0.291   5.530 -0.1868  0.0365  0.0851
26143W        W26343  10.771   3.209  16.475  0.2428 -0.2455 -0.0951
26144W        W26344   1.672   2.328   0.932  0.5503 -0.0169 -0.1414
26145W        W26345  11.151  10.693  14.357 -0.1312  0.1026  0.1577
26146W        W26346   7.211   7.679   8.824  0.1023 -0.1076  0.1285
26147W        W26347   5.042  15.223  17.061  0.1890 -0.2480 -0.0888
26148W        W26348  10.847  12.637  16.471  0.1927 -0.0377 -0.0948
26149W        W26349   8.308  13.924  17.116  0.3230 -0.2085  0.1528
26150W        W26350   7.268  11.963   1.035 -0.0071 -0.0115 -0.0180
26151W        W26351   8.237   9.402   8.320  0.3523  0.1956  0.3066
26152W        W26352  13.297   2.262   4.617  0.0563 -0.0589  0.2701
26153W        W26353   5.594  12.471  11.119  0.1747 -0.0316  0.5598
26154W        W26354   0.881  10.980  15.307  0.0052  0.2175 -0.1650
26155W        W26355   8.183  17.957  13.909 -0.2248  0.0924 -0.3335
26156W        W26356   4.006   1.686   3.420  0.0256  0.2375  0.1184
26157W        W26357  13.628   1.633  15.750  0.0383 -0.2036 -0.0219
26158W        W26358   8.500  12.586  17.459 -0.0746 -0.2591  0.0208
26159W        W26359  13.277  15.080  16.393 -0.1837 -0.2324  0.0489
26160W        W26360   0.459  11.336  14.602  0.1086  0.1741 -0.0239
26161W        W26361  15.342  12.683  16.032  0.3658  0.0275 -0.0800
26162W        W26362   0.105  12.191   3.842  0.2119  0.1347  0.1530
26163W        W26363  18.156   6.419  17.539  0.0656  0.0746  0.0819
26164W        W26364   8.604  10.116  17.480 -0.0694  0.5082 -0.2445
26165W        W26365  15.323  14.947  18.119 -0.0156  0.0866 -0.0349
26166W        W26366   5.755   1.598  17.673 -0.1882  0.1966  0.0815
26167W        W26367   5.663   6.791   2.218  0.1475  0.3025  0.0070
26168W        W26368  14.513   0.189   9.078  0.0567 -0.0180 -0.1373
26169W        W26369  10.045  15.250  12.585  0.0160 -0.0117  0.1322
26170W        W26370   8.236  12.132   2.978 -0.2013 -0.0099 -0.1235
26171W        W26371   7.442   5.566   7.467 -0.1238 -0.1355  0.2357
26172W        W26372   3.893  14.788   8.578 -0.1716 -0.2891  0.2401
26173W        W26373   8.283  14.960   6.864  0.3988  0.1364 -0.2192
26174W        W26374   8.251  14.571   5.443 -0.2850 -0.0391 -0.0107
26175W        W26375  10.736  10.028   4.045 -0.1852  0.1473  0.0162
26176W        W26376  14.167  17.498  17.855  0.1585  0.1036 -0.0576
26177W        W26377  13.384  10.423   7.724  0.0938  0.0226 -0.2411
26178W        W26378   5.985   9.069  17.782  0.1235 -0.1980  0.0550
26179W        W26379   9.473   2.870   5.962  0.0591  0.2386 -0.2919
26180W        W26380  10.694  10.079  15.414  0.4014 -0.4384 -0.2729
26181W        W26381  10.526  15.996   3.732  0.0161  0.0086  0.2989
26182W        W26382  16.612   6.093   3.347 -0.0233 -0.1129 -0.0571
26183W        W26383   3.610   5.187  15.910  0.1004 -0.0851 -0.2293
26184W        W26384  10.481  17.540   3.425 -0.0830  0.0068 -0.0733
26185W        W26385  17.533  11.929   4.380  0.1301 -0.1779  0.0082
26186W        W26386   8.717   5.933   5.166  0.2977 -0.3089 -0.0736
26187W        W26387   8.925   4.028  16.646 -0.4590  0.0100  0.2157
26188W        W26388   3.095  12.552   8.688 -0.0842 -0.3306 -0.0771
26189W        W26389   6.929  14.594  14.634  0.0516  0.0986  0.1980
26190W        W26390   6.671  12.633  14.501 -0.0388  0.3268 -0.1856
26191W        W26391  16.404   5.228   8.904 -0.1940 -0.1804 -0.1433
26192W        W26392  10.768   8.010   1.968 -0.0971 -0.3021  0.2065
26193W        W26393  12.409   5.687  18.088  0.0433  0.0958  0.2320
26194W        W26394   1.450   8.579   3.016 -0.1245 -0.0399 -0.1691
26195W        W26395  12.508   1.642   6.363 -0.3180 -0.2519 -0.2146
26196W        W26396   4.045  17.664   3.031  0.2411  0.0386 -0.1865
26197W        W26397   3.322   6.413  16.436  0.1143  0.0738 -0.1090
26198W        W26398  10.777   5.414   7.272 -0.1537  0.2700 -0.1504
26199W        W26399   1.260   1.694   0.931  0.1128  0.0557  0.1251
26200W        W26400  11.596   7.173  18.139  0.1175 -0.2166  0.0431
26201W        W26401  16.476  10.860  13.663 -0.2199 -0.2946  0.0819
26202W        W26402  12.665  16.387   4.291  0.0299  0.0461 -0.2936
26203W        W26403   6.776  10.080  14.024  0.0896 -0.0644 -0.0195
26204W        W26404   2.492  12.034  18.089  0.5569 -0.0172 -0.1004
26205W        W26405  15.339   7.725  17.643  0.1197  0.0343 -0.3050
26206W        W26406  12.520  15.716   2.145 -0.3826  0.1398 -0.2243
26207W        W26407   5.245  11.726   6.670  0.2208  0.0669  0.0083
26208W        W26408   3.195  12.591   6.005  0.0469  0.1069  0.3041
26209W        W26409  13.693  15.067   2.571 -0.0611  0.3654  0.1084
26210W        W26410   5.962   6.645  11.696  0.0972  0.2899  0.2231
26211W        W26411   9.672   8.043  17.596 -0.0385 -0.0931  0.1283
26212W        W26412   5.383   0.263   1.331 -0.0569  0.1200  0.2081
26213W        W26413  10.440   3.079   2.552  0.1906 -0.0155 -0.1278
26214W        W26414   8.074   7.040  11.670  0.1898  0.2088  0.1991
26215W        W26415   6.325  12.752   3.294 -0.4795  0.1338 -0.0021
26216W        W26416  12.572   3.760   2.905  0.0066 -0.0898  0.2518
26217W        W26417   0.711   8.764   7.066 -0.1523 -0.0193 -0.0873
26218W        W26418   4.281  12.137   7.193  0.2815  0.0760  0.1713
26219W        W26419  14.896  17.354   1.131  0.1455  0.0250 -0.0603
26220W        W26420  15.030  11.726   3.077 -0.1565 -0.0530 -0.2435
26221W        W26421  13.605   9.202   3.883 -0.1714 -0.2365  0.1380
26222W        W26422  14.917  14.551  15.482  0.0014  0.1773  0.0495
26223W        W26423  11.656   8.080   1.576 -0.1009 -0.1308  0.1868
26224W        W26424  14.536   5.947  17.287  0.0117 -0.2072 -0.1389
26225W        W26425  12.467   9.508  13.152  0.3025  0.2567 -0.1770
26226W        W26426   3.962  16.420   6.006  0.3003  0.1715  0.1015
26227W        W26427  11.832   5.418   3.291 -0.2026  0.1088  0.2138
26228W        W26428  14.989  16.907   8.247 -0.2605  0.3393 -0.0221
26229W        W26429   9.980   1.281   4.782  0.1797 -0.0794 -0.1836
26230W        W26430   2.224   5.769  13.420 -0.0611  0.0620 -0.1975
26231W        W26431   9.204  12.258  10.731 -0.2939 -0.1335 -0.0403
26232W        W26432   7.209   7.474   3.737 -0.1804  0.0093 -0.0314
26233W        W26433   3.077   8.041   0.811 -0.0747 -0.1357  0.3102
26234W        W26434  11.168   2.147   2.934 -0.0313  0.1338 -0.0559
26235W        W26435  13.193  15.222   4.146 -0.0048 -0.4376  0.0231
26236W        W26436   8.207   0.673   3.681 -0.0818 -0.0894 -0.0490
26237W        W26437   3.201  11.919   2.420 -0.1340  0.0468  0.0006
26238W        W26438  10.376  10.278   2.451  0.0798 -0.0283 -0.0723
26239W        W26439  11.577  13.258  17.465  0.1061 -0.1093  0.2008
26240W        W26440   7.844  15.912  12.867 -0.2286  0.0093 -0.1049
26241W        W26441   5.569  11.869   0.842  0.0575 -0.2912 -0.2143
26242W        W26442   8.317   9.333  15.401  0.3944 -0.0898  0.2352
26243W        W26443  11.763  16.654   6.546  0.0575 -0.0974  0.2572
26244W        W26444   9.933   1.195   8.761 -0.2107  0.1843  0.0632
26245W        W26445  11.177   0.502   7.225  0.1991 -0.0804  0.2453
26246W        W26446  11.801  16.083  10.354 -0.1661 -0.0450 -0.0945
26247W        W26447  14.366   0.125   1.198 -0.0718 -0.1696 -0.1493
26248W        W26448   6.683  17.246   9.311  0.0038 -0.5010  0.1254
26249W        W26449  10.965  10.752   8.615 -0.1498  0.1185  0.0467
26250W        W26450   6.317   8.954   0.192  0.0503  0.1130  0.1259
26251W        W26451  14.993  14.509  14.005 -0.2478 -0.0888 -0.0152
26252W        W26452  11.385   9.511   4.534  0.0379  0.0045  0.2126
26253W        W26453  11.667  15.914  15.804  0.1707 -0.0894  0.1262
26254W        W26454   1.981   4.137  18.030  0.0547  0.0987  0.2933
26255W        W26455  17.906   2.060   5.887  0.0538 -0.0178 -0.0607
26256W        W26456   2.393   8.822   7.837  0.2738  0.0342 -0.1595
26257W        W26457  10.582  11.498   2.074  0.0522 -0.0068 -0.2355
26258W        W26458   9.714  12.695   2.155 -0.2593 -0.1894  0.3694
26259W        W26459  14.985   2.950   2.772 -0.0518 -0.2054  0.1810
26260W        W26460  12.780   9.259   0.614 -0.2497 -0.1268 -0.0048
26261W        W26461   2.539  17.163  16.214  0.1860 -0.0809  0.0028
26262W        W26462   9.122  14.911  17.156 -0.2170 -0.1153 -0.1351
26263W        W26463  11.957  16.158  14.092  0.0934  0.1667 -0.0267
26264W        W26464   5.027  10.103   0.578  0.0268 -0.0765 -0.1627
26265W        W26465  13.582  12.613  10.135  0.0887  0.1527 -0.0319
26266W        W26466   4.945   0.145   6.165  0.1004  0.2732 -0.0468
26267W        W26467  13.911   2.524  14.634 -0.0832 -0.0946 -0.0981
26268W        W26468  12.387   3.053   8.581 -0.2746 -0.2141  0.1296
26269W        W26469  12.626  12.417   0.786 -0.0342  0.1950 -0.2894
26270W        W26470   5.199  17.198  13.401  0.2590 -0.3028 -0.0123
26271W        W26471   8.198  17.616  11.646 -0.0659 -0.0052  0.2374
26272W        W26472   8.243  12.926   6.771 -0.1040  0.2074  0.1668
26273W        W26473   0.068  15.993   5.794  0.0240  0.0345  0.1581
26274W        W26474   4.645  13.035   4.992  0.1821 -0.0879  0.1174
26275W        W26475   6.473   8.824  15.455  0.1624  0.0714 -0.1593
26276W        W26476  13.723   6.290   7.628 -0.0638  0.1253  0.2575
26277W        W26477   6.520  11.056   0.534  0.0757 -0.0254  0.1822
26278W        W26478  10.912   8.527   4.255 -0.2143  0.0224 -0.0646
26279W        W26479  10.208   8.491   5.018 -0.4168 -0.0211  0.0302
26280W        W26480   7.886  13.353  11.079 -0.3157 -0.0021 -0.2174
26281W        W26481   6.840  10.623   7.928 -0.2818  0.1855 -0.2398
26282W        W26482   2.368  15.129   2.980  0.1561  0.0947  0.1886
26283W        W26483  10.070  14.468  16.681 -0.0649  0.2393  0.0127
26284W        W26484  16.252  12.541   3.578 -0.0328 -0.0597 -0.1783
26285W        W26485   8.708  14.619   5.300 -0.1554 -0.1429  0.2232
26286W        W26486   8.662  11.012   3.230 -0.1977  0.2683  0.2580
26287W        W26487   3.166   9.342  16.933 -0.1873 -0.1872  0.0557
26288W        W26488   5.446  11.234  15.655 -0.2528  0.1379 -0.2767
26289W        W26489   4.765  15.573  14.425  0.0596 -0.0021 -0.2263
26290W        W26490   3.411  10.474   1.234  0.0340  0.1082 -0.1246
26291W        W26491   5.585  14.264   0.865  0.0155  0.1386 -0.2990
26292W        W26492   5.810   6.442   2.925  0.3362  0.1265 -0.0821
26293W        W26493   6.380  17.874   6.249 -0.0751 -0.0180 -0.1059
26294W        W26494   7.326   6.445  10.867  0.2442 -0.2146 -0.2472
26295W        W26495  11.626   0.889  10.166 -0.2493 -0.0399 -0.0694
26296W        W26496  15.614  13.744   2.399 -0.1379  0.0264 -0.0535
26297W        W26497  13.773  11.472   1.741 -0.0792  0.1194  0.0597
26298W        W26498  13.686  13.043   4.138  0.0584  0.0557 -0.1678
26299W        W26499  17.482  10.572   2.347 -0.0182  0.1500 -0.2501
26300W        W26500   6.302  18.204   7.214 -0.1958 -0.1706  0.0012
26301W        W26501   3.548  13.915  14.481  0.2171 -0.0252  0.1134
26302W        W26502  15.684  10.556   1.429  0.2060  0.3647  0.1066
26303W        W26503   5.561  10.813   8.178 -0.1499 -0.1410 -0.3047
26304W        W26504  12.130  13.409   7.813 -0.1566  0.1563  0.0917
26305W        W26505  15.964  11.209  17.881 -0.1329 -0.1113 -0.0477
26306W        W26506   7.916  14.974   7.749 -0.0032 -0.2247  0.1159
26307W        W26507   7.033  14.517   1.352 -0.3718  0.3565 -0.1571
26308W        W26508  10.776  13.660  18.005  0.0095 -0.0901 -0.2920
26309W        W26509  10.317  12.268   2.473 -0.1250  0.1725  0.4212
26310W        W26510   7.460  13.107  17.207  0.2234 -0.3923  0.0175
26311W        W26511  11.135  13.068  16.576  0.2040 -0.1928  0.2507
26312W        W26512  13.637  13.188   2.682 -0.1431 -0.0073 -0.0480
26313W        W26513  14.606  16.925  10.133  0.0191  0.0766  0.1193
26314W        W26514   2.561   9.851  11.399 -0.2482 -0.0802 -0.1837
26315W        W26515   9.325  14.887   4.396  0.0633  0.0966 -0.2026
26316W        W26516  11.972  11.652  16.460 -0.0746 -0.0006 -0.1111
26317W        W26517   2.360   8.911   3.081 -0.1105 -0.1054  0.2575
26318W        W26518  12.545  10.228   5.083 -0.0852 -0.1080 -0.0887
26319W        W26519  13.132   1.947   4.318  0.0455 -0.1503  0.1416
26320W        W26520   6.579   4.084  16.952 -0.0704  0.0869 -0.4471
26321W        W26521  12.093  10.024   5.785  0.0218  0.0659  0.1417
26322W        W26522   5.630  14.740   8.034  0.1960 -0.1493 -0.0894
26323W        W26523   6.425   6.029   0.915 -0.1182 -0.2698 -0.0393
26324W        W26524  11.198  15.055   7.182  0.0073  0.0543  0.0212
26325W        W26525   9.879  18.105   1.476  0.2886 -0.0043 -0.0022
26326W        W26526   6.928  12.134  15.387  0.0120 -0.0115  0.0067
26327W        W26527   9.389  11.591   5.859 -0.0311 -0.2821  0.1731
26328W        W26528  10.722  17.699  16.960 -0.0339 -0.1095  0.0808
26329W        W26529  11.983  13.548   4.877  0.0654  0.0590  0.1384
26330W        W26530   5.746  16.507  16.765 -0.0167  0.3475 -0.1020
26331W        W26531  14.815   8.726   5.449 -0.1281  0.1856 -0.0154
26332W        W26532   8.464  13.890   2.143 -0.0552 -0.3106  0.0650
26333W        W26533   2.908  14.052   1.661  0.0595  0.1734 -0.1874
26334W        W26534   7.024  18.102   9.936  0.2810  0.1193 -0.1254
26335W        W26535   2.559   2.874   1.759 -0.0165  0.0846 -0.0641
26336W        W26536  10.422  13.382  12.139  0.1122  0.1446 -0.0773
26337W        W26537   6.900   5.681   5.670  0.1663 -0.1308  0.2228
26338W        W26538  10.629   9.752   3.056  0.1401 -0.0158 -0.0376
26339W        W26539  17.673  14.395  16.522 -0.1291  0.0047 -0.1342
26340W        W26540   3.217  10.891   0.235 -0.2323  0.2332  0.3982
26341W        W26541  11.185   9.956  17.792  0.0075 -0.2598 -0.1870
26342W        W26542   7.594  17.376   3.068  0.1996 -0.0761  0.1967
26343W        W26543   0.200   0.850  16.216 -0.1820  0.1597  0.2850
26344W        W26544   0.173  14.109   0.899  0.0859 -0.0593 -0.1517
26345W        W26545   5.714  13.421   8.546 -0.3006  0.1315  0.2902
26346W        W26546   0.365   9.158   2.269  0.1872  0.1117 -0.1252
26347W        W26547  12.734   9.219   5.959  0.0713 -0.1512 -0.3569
26348W        W26548   7.406  14.132   5.621  0.3156  0.3357  0.1264
26349W        W26549  12.219  15.288   6.994  0.0416  0.0348 -0.2520
26350W        W26550  16.994  10.900   3.834  0.0089  0.0626  0.0404
26351W        W26551  10.358  11.447   3.527 -0.3020 -0.0508  0.1602
26352W        W26552   1.563  15.424   0.146  0.0072  0.1191 -0.1026
26353W        W26553   4.737   1.399   0.337  0.3217  0.1720  0.3195
26354W        W26554   8.085  14.291   1.284 -0.0950  0.4175  0.0405
26355W        W26555  10.244  13.176  11.586 -0.0603  0.1943  0.1369
26356W        W26556  17.877   4.141   3.823  0.2577 -0.0577  0.3836
26357W        W26557  14.108  16.233  13.320 -0.1824 -0.0384  0.1948
26358W        W26558   9.694  15.781  10.929  0.3020 -0.2084  0.0956
26359W        W26559   2.692  12.423  13.914  0.1310  0.1234 -0.0152
26360W        W26560  10.420  10.563   4.499  0.3662 -0.0422  0.2269
26361W        W26561   8.690   0.000   1.881 -0.1733 -0.2874  0.1277
26362W        W26562   8.060  16.563   2.837 -0.1905  0.1578 -0.0165
26363W        W26563   2.813  16.866  11.310  0.2007 -0.3839 -0.0831
26364W        W26564  10.701   2.976   0.393  0.1285  0.1800 -0.2456
26365W        W26565   0.770  11.370  16.212 -0.2952 -0.0415  0.0097
26366W        W26566   5.425  15.470   4.753  0.0119  0.0504 -0.1213
26367W        W26567   2.366  14.752   4.873 -0.0486  0.4792 -0.1345
26368W        W26568   9.837   1.691   5.063  0.1271 -0.3773 -0.0750
26369W        W26569   6.893  11.571   7.371  0.1437 -0.0125  0.0551
26370W        W26570   8.524  12.011   1.846  0.0399 -0.0878 -0.2070
26371W        W26571   2.808  14.178  17.158  0.1656  0.0202 -0.1374
26372W        W26572   4.123   7.076  14.439  0.0626 -0.2420 -0.0859
26373W        W26573   7.092   2.944   5.528  0.0243 -0.3258 -0.2927
26374W        W26574  12.276  16.151   5.365  0.0507 -0.2757  0.1281
26375W        W26575   4.150   4.187  10.886 -0.3102  0.0773 -0.0843
26376W        W26576  12.973   1.885   2.034  0.1500 -0.1749 -0.1809
26377W        W26577   8.558   9.637  17.673  0.1118  0.1273  0.1493
26378W        W26578  12.225  16.084  10.687  0.0801 -0.0532  0.0173
26379W        W26579   7.439   7.298   4.175 -0.1842 -0.1207 -0.0425
26380W        W26580   9.197   5.629   1.982 -0.0008 -0.1008 -0.1189
26381W        W26581   4.117   1.868   5.209 -0.3495 -0.0878  0.0164
26382W        W26582   2.346  16.331  15.787 -0.0969  0.2349  0.1217
26383W        W26583   8.831   1.870   5.309 -0.2177  0.1844  0.0182
26384W        W26584   7.982  18.070   3.199 -0.2197 -0.0943  0.0929
26385W        W26585   3.734  15.634  15.573  0.1995 -0.2279  0.3682
26386W        W26586   6.208   8.595  17.792 -0.1357 -0.4960 -0.0484
26387W        W26587  12.331  13.684   3.479 -0.0195 -0.1044 -0.1796
26388W        W26588  17.538   1.591   2.777  0.1246 -0.1610  0.0074
26389W        W26589   8.784  13.993  17.868  0.0900 -0.0097 -0.2156
26390W        W26590  11.589  16.223   6.171 -0.0039  0.1886 -0.0397
26391W        W26591  15.203  12.753  13.531  0.0956 -0.0613  0.1318
26392W        W26592   6.514  12.782  17.708 -0.0368  0.0059  0.2638
26393W        W26593  12.864  15.893   9.806 -0.0763  0.1427  0.3172
26394W        W26594   0.335   9.309   5.243 -0.3730 -0.0424  0.0742
26395W        W26595   8.669   5.103   6.192  0.3343  0.0420 -0.2231
26396W        W26596   1.919  17.339   6.538  0.6585  0.0167 -0.1278
26397W        W26597   7.800  16.146   8.519  0.3305  0.1904  0.1017
26398W        W26598   7.987  11.508   1.441  0.1389  0.2313 -0.0937
26399W        W26599   1.889  13.901   6.754  0.2817 -0.1484  0.3214
26400W        W26600  15.398   3.289   7.948 -0.2509  0.0698  0.0934
26401W        W26601   6.770  12.528   3.254 -0.3070  0.3705 -0.4345
26402W        W26602   5.482  16.309   1.278 -0.1487 -0.0190  0.1205
26403W        W26603  10.023  13.956   5.143  0.0879  0.1114 -0.0845
26404W        W26604   6.820  17.819  13.205  0.1902 -0.0092  0.0496
26405W        W26605  17.599  12.801   0.837  0.2026 -0.1273  0.2245
26406W        W26606   0.044   9.719   2.963 -0.1937 -0.2006 -0.2543
26407W        W26607   6.683  12.976  10.944 -0.2809  0.0075  0.2203
26408W        W26608  17.227  12.135  10.046  0.2275  0.1030  0.2137
26409W        W26609  16.371  14.417  17.167  0.2085  0.1792 -0.1162
26410W        W26610  14.622  13.706   7.105 -0.1988 -0.2662  0.0969
26411W        W26611   7.992  11.412   7.531  0.1962  0.0727 -0.5421
26412W        W26612   8.851  12.840   6.197 -0.0474  0.0848  0.0499
26413W        W26613  13.204   0.231  17.977 -0.3938 -0.2507  0.0053
26414W        W26614  18.120   6.452  10.059 -0.3619  0.2986  0.2224
26415W        W26615   2.721  14.000  11.253  0.0093 -0.0737  0.0220
26416W        W26616   0.833   2.934   4.161  0.3888  0.0300  0.0611
26417W        W26617   3.389   6.607   8.838  0.4134 -0.1861 -0.3136
26418W        W26618  16.020  14.447  16.170  0.0487  0.2848 -0.0341
26419W        W26619   0.180   5.231   7.178 -0.0636  0.1391 -0.0682
26420W        W26620  15.765  14.173  12.273  0.0179 -0.2083  0.0798
26421W        W26621   7.486   4.359  16.462 -0.0025 -0.0106  0.2562
26422W        W26622   2.644   9.682   7.934 -0.1639 -0.1660 -0.0682
26423W        W26623  12.251   4.161   7.408  0.2035 -0.1617 -0.1219
26424W        W26624   4.660  12.019   8.597  0.2322  0.2654  0.3048
26425W        W26625  14.220  15.888   3.022 -0.1633  0.1195  0.2681
26426W        W26626   8.700  13.988   6.175 -0.2084  0.2417 -0.0440
26427W        W26627   1.230   9.749  13.864  0.1575  0.3500  0.0994
26428W        W26628  10.498  12.556  15.418  0.3444 -0.4515 -0.1143
26429W        W26629   7.743  17.536   3.848  0.3129  0.1003  0.1125
26430W        W26630  10.370  16.689   7.616  0.0165  0.2757  0.0263
26431W        W26631  10.762  10.547   9.190 -0.1138 -0.3960  0.0846
26432W        W26632  16.488  14.608   7.979 -0.1670  0.1813 -0.2858
26433W        W26633  14.456   7.232  13.166  0.1037 -0.0113 -0.1208
26434W        W26634   6.374  13.483  10.884 -0.0510  0.1023  0.2288
26435W        W26635   7.790   8.359  10.073  0.2389  0.0340  0.1731
26436W        W26636   5.015  13.019   6.137 -0.1661 -0.0026 -0.1577
26437W        W26637   9.974  13.139  11.993 -0.2630  0.2667  0.0177
26438W        W26638   6.487   9.212   0.960  0.3425 -0.2859 -0.0968
26439W        W26639   0.922  13.007  17.234 -0.2137 -0.3304 -0.0069
26440W        W26640   2.163  17.988  14.160 -0.1657 -0.1367 -0.0840
26441W        W26641   2.888  16.575  13.742  0.0407  0.0874 -0.0801
26442W        W26642   2.796   5.718   9.434  0.0877  0.0303 -0.0590
26443W        W26643   1.321   2.240   4.005 -0.0520 -0.1343  0.0675
26444W        W26644  15.384   3.826  13.225 -0.1375 -0.0670 -0.0405
26445W        W26645   8.370  11.014   6.442  0.0613  0.1383 -0.0196
26446W        W26646   7.018  14.786   5.046 -0.0062 -0.0604  0.1852
26447W        W26647   6.049  11.788  17.570 -0.2266  0.2788  0.0085
26448W        W26648  17.268  17.198   7.431 -0.1679  0.0059  0.2408
26449W        W26649   3.753   4.229  17.376  0.1608 -0.4848  0.1201
26450W        W26650   9.211   3.190  18.124 -0.0832 -0.2766 -0.2642
26451W        W26651  10.731   8.280   6.486 -0.0883  0.2186 -0.1972
26452W        W26652   0.304  17.167  10.887 -0.1535  0.0736 -0.0473
26453W        W26653   5.257   8.737   4.820 -0.2810  0.1255  0.1171
26454W        W26654   9.872  12.828  11.280 -0.0167  0.0021  0.2673
26455W        W26655   9.168   8.181   9.985  0.2413  0.2913 -0.1311
26456W        W26656  15.662  11.556  13.034  0.1743  0.1289  0.2146
26457W        W26657   4.093  15.489   4.276  0.1421 -0.2384  0.1163
26458W        W26658   4.119  10.929  17.485 -0.1975  0.4363 -0.0690
26459W        W26659  10.368   5.584  11.002  0.3209  0.0883 -0.0088
26460W        W26660   7.809   4.889   4.274 -0.0202 -0.2447 -0.2279
26461W        W26661   3.389   9.457   2.986  0.1556  0.0987 -0.3529
26462W        W26662   5.713   4.605   6.248 -0.0471  0.0307 -0.0664
26463W        W26663  14.350   1.217   7.946  0.0828  0.0469  0.0118
26464W        W26664   9.571  16.702   9.011  0.0926  0.0645 -0.1156
26465W        W26665  13.183  17.490   9.906 -0.0753 -0.2798  0.1217
26466W        W26666  12.452  10.608   9.812 -0.1882  0.1344 -0.5097
26467W        W26667   6.514  16.212   4.717  0.0768 -0.0881  0.1155
26468W        W26668   9.403   4.766   1.278  0.1278  0.0833 -0.1843
26469W        W26669   9.665  13.734   2.656 -0.2629 -0.0019 -0.0657
26470W        W26670   1.420   2.496   3.542  0.1683  0.0663 -0.0863
26471W        W26671   3.709   7.606   4.704 -0.0708 -0.2180 -0.0100
26472W        W26672  11.790   7.122   7.629  0.0379 -0.1052 -0.0144
26473W        W26673   5.991   0.506   8.023  0.0571  0.0861  0.0395
26474W        W26674  15.272  12.445   0.032  0.1788  0.0427  0.0781
26475W        W26675   8.764   1.265   0.819  0.3614  0.1807  0.0202
26476W        W26676  10.489  17.149   5.204 -0.2006 -0.2066  0.0075
26477W        W26677  15.733  13.406  10.366  0.0190  0.2592  0.3386
26478W        W26678   8.479   4.561   2.740 -0.1333  0.0772  0.0997
26479W        W26679   9.784   9.399   5.183  0.1941  0.0472  0.3197
26480W        W26680  15.404  11.206   4.589 -0.1987  0.0719  0.0142
26481W        W26681  12.987   7.536   7.857  0.0530 -0.0770  0.3009
26482W        W26682  14.776   0.299   8.581 -0.0803 -0.2531 -0.0673
26483W        W26683   2.800   1.625   0.872 -0.2642 -0.3117 -0.1955
26484W        W26684   5.469  11.966   4.022  0.4495 -0.2722  0.2340
26485W        W26685   7.492  14.711  12.871 -0.1262 -0.3978  0.1443
26486W        W26686  14.370  15.814   1.309  0.3910 -0.2147 -0.1512
26487W        W26687   2.582  15.609   4.476  0.0675  0.3659 -0.2183
26488W        W26688  13.037   9.631   3.225 -0.0520 -0.0474  0.0724
26489W        W26689   0.452  10.615  12.446  0.1706 -0.2099 -0.2547
26490W        W26690   7.366   6.052  10.561 -0.2088 -0.0933  0.0413
26491W        W26691  17.358   6.870   5.520  0.2060 -0.1739  0.2762
26492W        W26692   7.438  13.414   2.320 -0.1817 -0.0901 -0.4232
26493W        W26693   6.966  16.289   9.554 -0.3804 -0.0442  0.1639
26494W        W26694   5.427  12.623   8.440 -0.0418 -0.0027 -0.1955
26495W        W26695   7.664  10.895  15.245 -0.2109  0.1566  0.1062
26496W        W26696   8.234   8.962   7.813  0.2034  0.1661 -0.2770
26497W        W26697   5.046   9.920   4.997  0.0825 -0.2812 -0.2786
26498W        W26698   2.408  14.026   8.000  0.0959 -0.0631  0.1812
26499W        W26699   5.446  10.230   5.120 -0.0972  0.0778 -0.2800
26500W        W26700  10.101   3.599  13.771  0.2349  0.0140  0.0105
26501W        W26701   8.218   5.926  14.558  0.2492  0.1859  0.0243
26502W        W26702  15.283   9.775   7.870 -0.0656  0.1485  0.1407
26503W        W26703  15.162  11.674   7.123  0.2082 -0.0279  0.0363
26504W        W26704   6.681  10.017   2.855 -0.0100 -0.1554  0.1056
26505W        W26705   6.137  10.333   7.534 -0.0629  0.2049  0.2669
26506W        W26706   6.324  10.368   2.670 -0.1258  0.2040 -0.0711
26507W        W26707  14.506   2.794   9.291 -0.3658 -0.1116 -0.1021
26508W        W26708   7.148  12.669   5.479  0.1936 -0.0034 -0.2246
26509W        W26709  12.017  14.150   7.170 -0.0787  0.2070  0.0094
26510W        W26710  12.945  15.533   7.598  0.1612 -0.2576 -0.1518
26511W        W26711  11.998  15.052   7.705 -0.0523 -0.2180 -0.0338
26512W        W26712  10.955  14.441   0.312 -0.1357  0.0808 -0.2680
26513W        W26713   6.534  15.742  11.346 -0.0705 -0.2571  0.2277
26514W        W26714  15.828  17.836  16.870 -0.2174 -0.0059  0.0051
26515W        W26715   9.962  12.308   5.406 -0.0582  0.2115 -0.3619
26516W        W26716   2.904  15.849   0.256  0.1281 -0.1756 -0.0633
26517W        W26717  13.126   4.766   1.243  0.2860 -0.0867 -0.0506
26518W        W26718  10.144   9.476   7.679 -0.0894 -0.1110  0.2576
26519W        W26719   8.181  11.034  12.128  0.1242  0.0263 -0.1964
26520W        W26720   7.901  12.057  10.377 -0.2101 -0.2684 -0.0320
26521W        W26721   7.305  18.063  10.791  0.0671  0.1606 -0.0659
26522W        W26722   4.101  15.813  11.633 -0.2301  0.0733  0.3183
26523W        W26723   7.550  13.456  13.794 -0.0475  0.2329 -0.2062
26524W        W26724   4.197  17.858   2.055  0.2415 -0.3005 -0.1330
26525W        W26725   4.115   6.657   9.065  0.1866 -0.3567 -0.0123
26526W        W26726   8.225  14.772   4.113 -0.1027 -0.0200 -0.3330
26527W        W26727   7.795   7.113  15.310 -0.1946  0.2303 -0.0188
26528W        W26728   8.893  17.536   5.190  0.0727  0.2581 -0.1283
26529W        W26729   7.979  12.827   6.068 -0.1029  0.1922  0.0876
26530W        W26730  11.349  13.118   3.517  0.1920  0.0337 -0.0819
26531W        W26731   6.378   7.059  14.193 -0.0421  0.2531 -0.0313
26532W        W26732   2.650  16.136   8.457 -0.0461  0.1787 -0.1688
26533W        W26733   5.348  12.477   0.106 -0.1568 -0.0126 -0.1115
26534W        W26734  16.982  15.998  10.866 -0.1864  0.0174  0.2561
26535W        W26735   7.754   0.567   9.833  0.0306  0.0525  0.0565
26536W        W26736   9.104  16.211   6.574 -0.0256  0.0278  0.2928
26537W        W26737  12.586  15.561  12.496  0.0502 -0.0149  0.0542
26538W        W26738   8.937  14.323   8.100 -0.1538  0.1185  0.2372
26539W        W26739   9.552  11.139   5.688  0.3613  0.0729  0.2874
26540W        W26740   8.716   8.846   7.122  0.1659  0.1731  0.0515
26541W        W26741  10.974  12.226  10.471  0.2219 -0.0762 -0.0652
26542W        W26742  14.616   9.621   6.462  0.1159 -0.1870 -0.1053
26543W        W26743   9.282  16.557   5.124 -0.0140 -0.1559 -0.0484
26544W        W26744   1.774  10.479   6.283  0.1558  0.1650  0.1234
26545W        W26745  13.230  18.051   5.986 -0.1249 -0.1145  0.0372
26546W        W26746   4.157  13.273   8.491 -0.2740  0.0621  0.0579
26547W        W26747   6.665  13.713   5.136  0.1326 -0.0579  0.0068
26548W        W26748   5.262   4.858  13.399  0.2438  0.1233 -0.2061
26549W        W26749  12.186   6.010  15.748 -0.1197 -0.1976 -0.2406
26550W        W26750  11.267   1.602   8.172  0.3293 -0.3778 -0.0404
26551W        W26751   4.747  15.864   7.502  0.1552 -0.0224  0.1058
26552W        W26752   8.343   7.032  12.514 -0.0774  0.0058  0.2154
26553W        W26753  10.222   6.602   8.231 -0.1157 -0.0238  0.0179
26554W        W26754   5.870  16.797   4.784 -0.1590 -0.1837  0.0420
26555W        W26755  16.287  14.920  12.065 -0.0542 -0.1050 -0.1154
26556W        W26756  10.351   9.039  13.812  0.0957 -0.2860  0.2822
26557W        W26757  10.621   0.033  10.250 -0.1939 -0.4583  0.2676
26558W        W26758  11.821  11.797   0.635 -0.0973  0.1504  0.1822
26559W        W26759   8.521  16.239  13.389 -0.1388  0.0964  0.4147
26560W        W26760  11.851   6.365  15.380 -0.0887  0.1604 -0.1437
26561W        W26761  10.818  14.121   1.636 -0.0161 -0.1782  0.3022
26562W        W26762   5.687  12.098   6.472 -0.1663  0.0564 -0.1050
26563W        W26763   3.136   0.587  12.655 -0.1567 -0.1240 -0.3971
26564W        W26764  18.113  14.490   3.955  0.0195  0.1178  0.3303
26565W        W26765   2.477   8.099   5.401  0.1884 -0.0407  0.1956
26566W        W26766  12.131   5.562   9.605 -0.1430  0.2383 -0.0159
26567W        W26767   5.816  11.957  13.855  0.2542 -0.2889  0.0696
26568W        W26768   9.258   5.485   2.472 -0.4643  0.2436 -0.2516
26569W        W26769  17.995  14.473   7.059 -0.0394 -0.0946 -0.0465
26570W        W26770  11.248  17.217  17.840  0.0760  0.1073 -0.1137
26571W        W26771  13.906  16.032  11.871 -0.1594  0.3882  0.2156
26572W        W26772   5.004   2.734   3.928 -0.2067  0.0336  0.1282
26573W        W26773  10.893  10.544  17.214  0.0033  0.3851  0.0029
26574W        W26774  12.993  15.979   4.128 -0.0016  0.3810 -0.0359
26575W        W26775  14.632   9.526  11.785 -0.2226 -0.1313  0.2215
26576W        W26776   9.627  10.823   2.959 -0.1528  0.0021 -0.2043
26577W        W26777  12.451   8.474  12.421 -0.0003  0.0641  0.0249
26578W        W26778   3.123   9.710   6.728 -0.0600  0.0378  0.1768
26579W        W26779   5.308   8.561   9.204 -0.1525 -0.1064  0.1642
26580W        W26780   7.288   3.877   2.884 -0.0294 -0.1219 -0.1088
26581W        W26781   8.527  10.722   8.234  0.0862  0.2148  0.0169
26582W        W26782  13.424  14.408  12.316  0.2729 -0.1623  0.1438
26583W        W26783  17.157  16.289   7.837 -0.1898  0.0622 -0.2346
26584W        W26784  10.380   7.568   5.007  0.0602 -0.1690 -0.2750
26585W        W26785   8.861  14.378   3.284 -0.3883  0.0520  0.0026
26586W        W26786   5.199  10.844   2.841  0.2001  0.0962  0.0224
26587W        W26787   6.824   9.826  16.311 -0.2401  0.2276  0.1849
26588W        W26788  11.218   0.235  17.783 -0.0439 -0.0547 -0.0197
26589W        W26789  14.231  17.455  12.026 -0.1938 -0.0040 -0.4487
26590W        W26790   9.625   9.634   5.803 -0.1400  0.2422 -0.0489
26591W        W26791   6.063  16.393   4.030  0.0653  0.0542  0.2748
26592W        W26792   9.141   8.322   3.482 -0.3317  0.3492 -0.4317
26593W        W26793   8.539   6.419   6.057  0.1299  0.1155  0.2028
26594W        W26794  16.252  13.281   4.671 -0.2509 -0.0618 -0.2650
26595W        W26795  12.889   0.707   7.265 -0.4187 -0.2466 -0.1550
26596W        W26796  11.691  16.239   8.959 -0.1383 -0.0975 -0.2852
26597W        W26797   4.034   8.915   2.469 -0.0241  0.0849 -0.2032
26598W        W26798   5.930  14.362  12.602 -0.1868  0.2740 -0.3581
26599W        W26799   6.725   1.769  14.554  0.2318 -0.1060  0.2245
26600W        W26800   0.853  11.356  11.019  0.1548  0.3402 -0.0940
26601W        W26801   9.730  16.322   5.987  0.1970 -0.1499 -0.2091
26602W        W26802   2.049  17.271   4.277  0.0762 -0.0412  0.0422
26603W        W26803  11.381   7.024  17.204  0.0349  0.2405  0.1944
26604W        W26804  15.172  14.770   5.707  0.0910  0.0117  0.3330
26605W        W26805   5.037   8.196   1.122  0.0829 -0.0903 -0.1487
26606W        W26806  10.052   6.078   1.176  0.3083 -0.3281 -0.0331
26607W        W26807   4.490  15.101   9.234  0.1641 -0.3409  0.4066
26608W        W26808  10.544   4.384   8.560  0.0376 -0.1711 -0.0229
26609W        W26809  10.182  11.083   5.838  0.0653  0.1778 -0.1178
26610W        W26810   5.916  14.891   1.440 -0.1971 -0.3001 -0.2498
26611W        W26811   9.081  11.656  11.647 -0.2196  0.3976 -0.0069
26612W        W26812   6.285   3.943   2.801 -0.0914  0.3660  0.0971
26613W        W26813   6.618   7.304  13.845  0.0491 -0.0518  0.1388
26614W        W26814   5.808  12.681   5.106 -0.1481  0.4481 -0.0190
26615W        W26815   4.669  16.084   2.218  0.2446  0.0613  0.3431
26616W        W26816  12.007  17.113  16.095 -0.2122 -0.1258  0.1688
26617W        W26817   6.393   5.528   7.861 -0.0842  0.3024 -0.0990
26618W        W26818   4.615   2.721   5.259  0.2106 -0.3887  0.0166
26619W        W26819  14.537  15.943   7.398 -0.1446  0.0750 -0.1407
26620W        W26820   6.565  15.873  12.787  0.0817 -0.2398  0.1688
26621W        W26821  12.941   8.084  10.464  0.0052  0.1757  0.3102
26622W        W26822   6.913   0.627  14.936 -0.3554  0.1645 -0.1215
26623W        W26823   6.114   2.743  12.575  0.2262 -0.0616 -0.0491
26624W        W26824  12.590  17.955   1.524 -0.1516  0.1014  0.3411
26625W        W26825   2.516  10.993   6.382 -0.2842  0.0198 -0.1815
26626W        W26826   6.609   1.803  11.014  0.3411 -0.1252  0.0140
26627W        W26827   3.790  13.285   1.742  0.1685 -0.0917  0.1216
26628W        W26828   6.744  16.673   6.586  0.0325  0.0993  0.0290
26629W        W26829  13.248  16.625   9.430 -0.0518  0.0141  0.1352
26630W        W26830   6.300  11.376  17.251  0.0191  0.1286 -0.1310
26631W        W26831  11.880   3.409  15.439  0.1789 -0.0027 -0.2094
26632W        W26832   8.285  15.179  15.970 -0.1179  0.3748  0.0823
26633W        W26833  13.110  18.065   8.483  0.0999 -0.0836 -0.0276
26634W        W26834  12.346   4.865   0.092 -0.0544  0.1438 -0.1510
26635W        W26835   9.092   0.414  15.706  0.0247  0.0926 -0.1121
26636W        W26836  13.085  16.048   1.597 -0.2549 -0.1146  0.1472
26637W        W26837  17.468   7.765   8.477 -0.2723  0.1575  0.1231
26638W        W26838   3.920  13.709   1.962  0.0368 -0.1569  0.1847
26639W        W26839   9.091   7.293   6.126 -0.3243 -0.2683 -0.1398
26640W        W26840  15.812  16.371   0.246 -0.0268  0.2334 -0.2521
26641W        W26841   8.738  13.488   2.255  0.1332  0.0358 -0.3132
26642W        W26842   7.578   1.937   0.252 -0.0486  0.0504 -0.2789
26643W        W26843  10.926  13.052   7.506 -0.1086 -0.0638 -0.1265
26644W        W26844   3.141   1.288  10.332 -0.0807  0.0634 -0.4130
26645W        W26845   8.151  13.232   3.377  0.1066  0.0177  0.1541
26646W        W26846  12.437   0.127   0.289 -0.6032  0.0252 -0.0933
26647W        W26847   9.950  11.392   2.747  0.0831 -0.2564 -0.2722
26648W        W26848   9.778  18.004   5.452  0.0491  0.1299 -0.3255
26649W        W26849   3.713   1.763   9.782 -0.6153 -0.0869  0.1005
26650W        W26850  12.223   4.559   2.732  0.0375  0.2309  0.2315
26651W        W26851  10.786  14.047   7.618  0.1915  0.2993  0.0205
26652W        W26852  11.395   4.845   4.123 -0.0740 -0.1204 -0.0810
26653W        W26853   7.437  16.011   3.843 -0.1466 -0.1863  0.1713
26654W        W26854  16.398   1.800   8.156 -0.1020 -0.0335 -0.3126
26655W        W26855  11.642   4.872   4.626 -0.2468  0.4391  0.1464
26656W        W26856  12.470  12.670   9.198 -0.2010 -0.1775  0.0982
26657W        W26857  10.687   1.084   5.418 -0.0020  0.3565 -0.0223
26658W        W26858  14.215  11.940   5.898  0.1615  0.0963  0.1251
26659W        W26859   2.331   0.507  13.125  0.0117 -0.0627  0.3369
26660W        W26860   5.567  13.816   0.581 -0.0556 -0.1143  0.2056
26661W        W26861  10.643  17.325   8.616  0.0846  0.0503  0.2077
26662W        W26862   9.591   1.804   6.621  0.1262 -0.2330 -0.2206
26663W        W26863  12.656  15.068   7.911 -0.0675  0.3659  0.4038
26664W        W26864   6.069  12.180   0.175 -0.0044 -0.2915 -0.2075
26665W        W26865  15.118  11.617   9.277  0.2029 -0.0141  0.1900
26666W        W26866   1.202   8.151   5.676 -0.1998  0.1984 -0.1023
26667W        W26867   5.285  12.189   3.384  0.0019  0.3607 -0.0549
26668W        W26868   4.017  10.911   4.401  0.0226 -0.1343  0.0499
26669W        W26869   9.348  12.484   4.241  0.1204 -0.0791  0.2013
26670W        W26870   3.086  13.581   1.400  0.1967  0.3340  0.0583
26671W        W26871   7.292  13.689   5.854 -0.0508  0.3525 -0.0882
26672W        W26872  14.051   2.162   4.457 -0.0017 -0.1254  0.0232
26673W        W26873   8.810   0.645  16.553  0.0704  0.0391  0.2157
26674W        W26874  11.889  12.124   2.480  0.0047 -0.1203  0.4074
26675W        W26875  12.349   2.923   5.149  0.2591  0.1781 -0.1211
26676W        W26876  13.337   6.622  17.531  0.1208 -0.0030  0.1673
26677W        W26877  10.278  17.852   6.697  0.2925 -0.1193  0.1048
26678W        W26878  10.600  14.032   2.042  0.0106 -0.0600  0.0148
26679W        W26879  15.368  14.936  16.050  0.1720 -0.2746  0.1085
26680W        W26880   7.171  10.750   5.754 -0.0425  0.0602 -0.0416
26681W        W26881  14.803  18.109   7.710  0.0033 -0.1606 -0.0154
26682W        W26882   7.143  15.489   7.416 -0.0913  0.0143 -0.1287
26683W        W26883   6.570   8.693   5.209 -0.2995  0.1127 -0.1079
26684W        W26884   2.988   3.191   7.945 -0.0962 -0.1559 -0.1284
26685W        W26885   6.670  15.656   6.365 -0.1363  0.0023  0.1805
26686W        W26886   3.808  10.357   1.584 -0.0781 -0.2264 -0.1293
26687W        W26887   1.320   2.152   6.252 -0.2110  0.0140 -0.2626
26688W        W26888  10.122  12.300   8.241  0.1636 -0.4468 -0.2298
26689W        W26889   1.151  11.105   9.149 -0.1581  0.1811 -0.2001
26690W        W26890  13.207  16.368   7.549 -0.3407 -0.3012  0.2482
26691W        W26891   8.354  15.542  17.644  0.0114 -0.1333  0.2896
26692W        W26892  10.139   0.257  16.879 -0.3370  0.3194  0.2923
26693W        W26893  11.047  10.584   0.800  0.1735 -0.0514  0.3611
26694W        W26894   0.896  11.095   7.237 -0.3392 -0.1713  0.2729
26695W        W26895  10.492  17.531   3.967  0.0037 -0.1290 -0.0922
26696W        W26896  15.671  15.113   4.479  0.1785 -0.1224 -0.1285
26697W        W26897   9.189   2.047   1.647  0.1508  0.0192 -0.0325
26698W        W26898  15.800   1.524   6.781 -0.4861  0.0096 -0.0384
26699W        W26899  17.593  16.999   1.141  0.2735 -0.1004 -0.1612
26700W        W26900   7.468  15.768   2.940 -0.2252  0.1213 -0.2304
26701W        W26901   9.090  14.540   7.676 -0.1559  0.0362 -0.1083
26702W        W26902   4.496  10.547   6.162 -0.3952 -0.0620  0.0938
26703W        W26903  10.989  14.912  15.604  0.0596 -0.1188  0.1732
26704W        W26904   0.224  16.520   3.667  0.2298 -0.0371 -0.1714
26705W        W26905  13.403  11.087  11.183  0.0339  0.2653  0.1984
26706W        W26906  10.715   4.281   7.811 -0.2796  0.2421 -0.2923
26707W        W26907   1.146  13.314  15.383 -0.0258 -0.2361 -0.3123
26708W        W26908  15.707  15.698   6.683 -0.1808 -0.1128  0.2303
26709W        W26909  13.871  14.458   4.528  0.2524 -0.2003  0.1327
26710W        W26910  15.607  17.722  12.697  0.1649  0.1076 -0.0470
26711W        W26911   7.835  17.771   1.569  0.0313  0.3767  0.0867
26712W        W26912   5.970  15.446   6.881 -0.1431 -0.0273  0.2807
26713W        W26913  12.870  12.576  10.836  0.4266 -0.0932 -0.0540
26714W        W26914   4.438  11.145   4.608  0.1699 -0.2147 -0.2092
26715W        W26915  15.732  10.942  17.342 -0.0377  0.0989  0.1130
26716W        W26916   2.145  10.202  17.082  0.1396 -0.2848 -0.1472
26717W        W26917  12.808   0.770   6.174 -0.3113  0.0423  0.1657
26718W        W26918   2.239   9.601   5.394  0.5456 -0.2751  0.1851
26719W        W26919   9.752   6.846   4.556 -0.3786 -0.3053  0.1936
26720W        W26920  10.353  14.852   5.093  0.1711 -0.1171  0.0711
26721W        W26921   7.413  11.580   5.956 -0.3388 -0.1831 -0.0318
26722W        W26922   2.109   3.350   4.331  0.0557  0.3893 -0.1702
26723W        W26923   9.201   4.752  17.149 -0.1035  0.0852  0.2601
26724W        W26924   2.663  12.883   8.744  0.0596  0.0729  0.0057
26725W        W26925  10.650   3.671   0.883  0.0549  0.5725 -0.0346
26726W        W26926  13.396  14.685   4.609  0.1354  0.0540  0.0651
26727W        W26927  12.678   2.658   4.137  0.1206 -0.1741  0.1944
26728W        W26928  17.447  11.681   3.085 -0.1183  0.1859  0.0099
26729W        W26929   2.463  12.310  17.166 -0.1820  0.0644  0.0238
26730W        W26930  10.915  14.314   2.375 -0.0039 -0.1736  0.0680
26731W        W26931   6.484   2.775  14.516  0.0062  0.0256  0.0942
26732W        W26932   7.371   5.088  16.009  0.0907 -0.0508 -0.0576
26733W        W26933   8.563  13.445   2.760 -0.0450  0.0512 -0.1389
26734W        W26934  10.532   8.351  12.172 -0.0766 -0.1168  0.2428
26735W        W26935   7.338  14.211   7.284  0.1063 -0.1250  0.0082
26736W        W26936   8.633   3.563   1.460  0.0977  0.1244 -0.1606
26737W        W26937  12.409   0.963   3.649 -0.0484 -0.1837  0.0052
26738W        W26938   7.970   9.220   2.385  0.2118 -0.0927 -0.0165
26739W        W26939  16.128   0.431   8.158 -0.3287  0.0777 -0.1845
26740W        W26940  17.894  11.405   8.432  0.2220 -0.3517 -0.2433
26741W        W26941   7.510  12.324   8.016  0.1126  0.1303 -0.2003
26742W        W26942  10.155  16.834  12.461  0.1894 -0.1210  0.0938
26743W        W26943  11.338  16.111   5.740 -0.5597  0.1154  0.0319
26744W        W26944  14.513  12.112   8.916  0.1063  0.3470 -0.0249
26745W        W26945   7.432  14.837  13.333 -0.1030  0.0069  0.2964
26746W        W26946   1.774   5.996  18.103 -0.3263 -0.1439 -0.0810
26747W        W26947   6.060   9.669  11.242  0.1603 -0.2058 -0.1482
26748W        W26948  10.212   8.139   1.881  0.2154  0.1678 -0.2922
26749W        W26949  11.301   5.432  10.979 -0.0556  0.3845 -0.2109
26750W        W26950   4.310  13.295   1.632  0.0803  0.4314 -0.0462
26751W        W26951   0.186   1.828   2.783  0.1365  0.1258 -0.1482
26752W        W26952  15.418   0.649   6.340 -0.1025 -0.0597 -0.4520
26753W        W26953   0.837   0.249   4.141  0.2023 -0.0917 -0.1628
26754W        W26954   8.424  17.662   9.387  0.0284 -0.1014  0.0298
26755W        W26955  12.354  13.963   5.593  0.0746 -0.2683 -0.0943
26756W        W26956   5.635  10.319  11.809  0.3891 -0.0088 -0.1827
26757W        W26957   0.333  14.003  18.136 -0.0903  0.0673  0.0477
26758W        W26958   4.272  13.263   6.837 -0.1460 -0.3939  0.2157
26759W        W26959  11.496  14.368   5.495 -0.0471 -0.0094 -0.1495
26760W        W26960   9.518   2.334   6.053 -0.0381  0.2001 -0.0105
26761W        W26961   8.751  14.268   2.286 -0.0795  0.2440  0.1080
26762W        W26962   2.045  13.756   7.742 -0.0211 -0.1130 -0.0657
26763W        W26963  13.121   4.114   7.290 -0.0535  0.1880 -0.0143
26764W        W26964  14.014   8.072  16.000 -0.3858  0.0450  0.2755
26765W        W26965   5.360  12.595   8.987 -0.3981 -0.0515 -0.1777
26766W        W26966  11.181  16.087  14.274  0.1510  0.1029  0.3093
26767W        W26967   3.517   1.073   6.666 -0.2480  0.1836 -0.0617
26768W        W26968   4.441  13.171   3.880 -0.1375 -0.0368  0.1948
26769W        W26969   6.435  16.639   7.590 -0.1475 -0.1833 -0.2425
26770W        W26970  13.409  14.217   8.339  0.1292 -0.4914  0.1074
26771W        W26971   6.457  11.931   9.239 -0.0645 -0.1634  0.1848
26772W        W26972   9.919  14.669   6.853  0.3434 -0.3037  0.0112
26773W        W26973   2.022  13.371   0.099 -0.0176 -0.2930  0.1364
26774W        W26974   6.319   6.302   6.337  0.0310  0.0434  0.0322
26775W        W26975   7.845  11.141   1.135  0.2046 -0.2202  0.2303
26776W        W26976   4.680  15.744  11.797  0.2053 -0.1042  0.1673
26777W        W26977   6.167   8.052   7.963  0.1496 -0.2025  0.0797
26778W        W26978   1.026  14.723   2.367 -0.1541 -0.1686  0.1777
26779W        W26979   3.767  12.405   8.650  0.0713 -0.3292 -0.1313
26780W        W26980  17.701  12.474   2.494  0.2470  0.1066 -0.0535
26781W        W26981   1.354  15.891   3.471  0.0012 -0.0435  0.1159
26782W        W26982  10.532   9.375  11.998 -0.1233  0.1126  0.0689
26783W        W26983  15.426   5.244   4.939  0.3356 -0.0596 -0.3274
26784W        W26984  10.801  13.135   9.712  0.1604 -0.0678  0.0026
26785W        W26985  11.681  10.302   7.037 -0.5018  0.1765  0.0250
26786W        W26986   8.076  15.318   4.961 -0.2942 -0.0514  0.0950
26787W        W26987  13.332  14.717   7.411 -0.2362 -0.1268 -0.1966
26788W        W26988   7.887   3.242   2.400 -0.3616  0.1109  0.2571
26789W        W26989   7.478   9.662  17.055 -0.0095 -0.0749  0.3798
26790W        W26990   9.846  12.632   0.661  0.2688 -0.0799 -0.0655
26791W        W26991   6.106  11.655   5.114 -0.0879 -0.0393  0.0400
26792W        W26992  12.796  11.868   8.168 -0.2089  0.1318 -0.2983
26793W        W26993   4.566  14.718  13.462  0.0960 -0.0687 -0.0916
26794W        W26994   4.904   5.346   4.078  0.0660  0.3369 -0.0964
26795W        W26995   9.258  15.232  11.576  0.2610  0.0982  0.0429
26796W        W26996   8.067   7.769   5.153 -0.0442 -0.3375  0.0916
26797W        W26997   9.417   1.715   5.412  0.2561  0.1332 -0.1872
26798W        W26998   6.972  11.024   0.748 -0.0304  0.0523  0.0890
26799W        W26999   7.782  11.908   2.461  0.0846  0.1807  0.0088
26800W        W27000   9.878  14.144   5.617  0.0697  0.1679 -0.1933
26801W        W27001  11.929   3.935  12.026  0.2091  0.3232 -0.0281
26802W        W27002  13.030  11.004   1.249 -0.2984 -0.0167  0.2616
26803W        W27003  11.258   6.307  12.376 -0.0007  0.0503 -0.0188
26804W        W27004  12.240   0.133   1.162  0.0805  0.1321  0.1315
26805W        W27005  15.746  10.562   0.978 -0.0758 -0.0064 -0.2366
26806W        W27006   8.680  17.901   7.708 -0.1618  0.2095  0.1191
26807W        W27007   5.746  11.926  14.817  0.4269  0.2448 -0.3252
26808W        W27008  11.281  15.205  15.281  0.0119  0.2359  0.2033
26809W        W27009  11.786   6.172   4.128  0.0741 -0.2468 -0.0409
26810W        W27010   7.392  13.878  13.529 -0.0402 -0.0469  0.1809
26811W        W27011   9.786  11.127   6.691  0.2000 -0.2944 -0.0022
26812W        W27012  11.941  10.403   7.774  0.1517 -0.1040  0.2773
26813W        W27013  12.225  13.791  13.010 -0.0466 -0.0801 -0.2990
26814W        W27014  11.866   5.843  15.210 -0.0447 -0.1133 -0.0331
26815W        W27015   9.752   0.095   6.416 -0.0336 -0.0447 -0.0160
26816W        W27016  18.046  15.233  15.506  0.0963 -0.0366  0.0199
26817W        W27017   9.691   8.523   5.112 -0.3021 -0.1038  0.0107
26818W        W27018   5.230  14.038   2.390 -0.3502 -0.2216  0.0748
26819W        W27019   3.290   8.293   3.743  0.0640 -0.1295  0.0788
26820W        W27020   6.275  12.001  13.991 -0.1923  0.0503 -0.1051
26821W        W27021  11.538   2.912   1.260  0.0639 -0.0868 -0.0555
26822W        W27022   2.644  13.071   9.513 -0.0271  0.0533  0.0987
26823W        W27023  14.300  17.293  16.585 -0.2483 -0.1112 -0.1199
26824W        W27024   7.071  13.995   9.360  0.1556 -0.0360 -0.0827
26825W        W27025   5.027   0.064  14.697  0.0593  0.0383 -0.3307
26826W        W27026   9.440  10.212  14.848 -0.0740 -0.2081  0.4235
26827W        W27027  11.155  11.112   0.152  0.2375  0.0112 -0.2392
26828W        W27028   9.462  15.112   8.777 -0.0155  0.0807 -0.0022
26829W        W27029  11.378   7.624   9.378  0.2547 -0.0069 -0.0544
26830W        W27030   7.914   4.584   8.765  0.2334 -0.0362 -0.1323
26831W        W27031   4.205  13.012   5.274 -0.5557  0.0268 -0.3119
26832W        W27032  12.258  12.302   2.747  0.0374 -0.2852 -0.1179
26833W        W27033  16.697  15.889  15.426  0.1486  0.0126  0.0418
26834W        W27034  10.547   0.525   7.612 -0.2862  0.0552  0.1562
26835W        W27035   7.945  14.668  11.997 -0.2149  0.0958  0.2242
26836W        W27036  18.100  14.915  15.936  0.0581  0.0959  0.0978
26837W        W27037   5.264   6.979   7.762  0.0773 -0.1752 -0.1402
26838W        W27038  16.971  15.076  13.230  0.1302 -0.0789 -0.0704
26839W        W27039   6.267   5.106   0.990 -0.0071 -0.1627 -0.1884
26840W        W27040   5.561  15.406  10.151  0.0611  0.1439 -0.0155
26841W        W27041   2.863  13.570  11.749 -0.1958 -0.0332  0.4318
26842W        W27042   6.196  16.330  12.049 -0.2887  0.0827  0.0992
26843W        W27043   6.572  17.070  11.330  0.2677  0.0497 -0.0303
26844W        W27044   1.153  16.303   9.854  0.0921  0.0861  0.0871
26845W        W27045   9.362  17.492   4.883  0.0765  0.0963  0.2573
26846W        W27046   9.175   7.863   4.408 -0.4599 -0.0338  0.0702
26847W        W27047   5.010  11.870   2.770  0.0571 -0.1600  0.3461
26848W        W27048  15.045  10.434  16.018 -0.0629 -0.0671 -0.1022
26849W        W27049  12.311  14.681   3.924  0.0253  0.7118  0.0672
26850W        W27050   2.968   5.276   1.167 -0.0825 -0.2605  0.1498
26851W        W27051   6.599  14.314  13.883 -0.2605  0.2733 -0.0102
26852W        W27052   9.820   5.274   7.273  0.0163  0.0288 -0.1513
26853W        W27053   6.645  15.981  12.209  0.0721  0.0267 -0.1028
26854W        W27054   7.134  14.911   9.673 -0.0619 -0.1254  0.1369
26855W        W27055  10.155  10.998  12.805  0.0017 -0.0673  0.2349
26856W        W27056  15.285  14.295   9.017  0.2540 -0.0322  0.2054
26857W        W27057  10.413   8.196   9.204 -0.2362 -0.1544  0.0390
26858W        W27058   9.652   8.121   5.909 -0.0003 -0.1240 -0.0052
26859W        W27059   4.899  15.191   5.337  0.1680 -0.1511 -0.0609
26860W        W27060  10.939  11.707  11.105  0.1897 -0.0279  0.0527
26861W        W27061  12.916  13.638  12.344  0.0518  0.1625  0.0506
26862W        W27062   8.987   3.552  10.173  0.0138  0.0001  0.0441
26863W        W27063   8.911   8.245   1.327 -0.1062  0.1674 -0.0465
26864W        W27064   7.365   7.863   7.197 -0.3517 -0.0268  0.1262
26865W        W27065   5.135  17.350   6.433  0.2554  0.1819 -0.0916
26866W        W27066   9.851   3.138   7.920 -0.2904 -0.0462 -0.1085
26867W        W27067  15.089  13.566   8.084 -0.2228 -0.1830 -0.1099
26868W        W27068   6.340  13.189   6.482 -0.1842 -0.1266  0.0432
26869W        W27069   8.093   8.814  12.250 -0.1229 -0.0170  0.3146
26870W        W27070  13.475   8.920   9.595  0.5951  0.0026 -0.1516
26871W        W27071   9.510  11.202   8.634  0.1086  0.1410  0.0392
26872W        W27072  13.672  10.511  16.844 -0.3044 -0.1308  0.2414
26873W        W27073   6.238   7.718   4.802 -0.1683  0.1648 -0.0131
26874W        W27074  12.437  17.290   6.921  0.1552  0.1399  0.0655
26875W        W27075   7.568  17.404  14.490 -0.1260 -0.2286 -0.1932
26876W        W27076  11.092  12.591   2.228 -0.2291 -0.0276  0.1829
26877W        W27077  11.943  14.191  12.826  0.3427 -0.0403  0.0638
26878W        W27078   4.207   6.592  10.819 -0.2238  0.2495  0.1939
26879W        W27079  13.115  13.333  10.263 -0.2319  0.0796  0.1733
26880W        W27080   9.840   1.295  13.516 -0.0090 -0.0585 -0.0755
26881W        W27081  17.975  10.959   9.731  0.3381  0.2082  0.3349
26882W        W27082   1.303  10.190  11.713  0.1032 -0.2274 -0.0385
26883W        W27083  12.942  17.507   6.928 -0.3091 -0.1036 -0.1479
26884W        W27084   6.979  15.273  14.078 -0.1123  0.2702 -0.2242
26885W        W27085   7.715   2.429   6.611 -0.3687 -0.1139  0.0758
26886W        W27086  11.495   9.283  13.730  0.3139 -0.2112 -0.1281
26887W        W27087  13.517  10.205   1.330 -0.0787 -0.2323 -0.2689
26888W        W27088   8.247  14.885   8.230  0.0800  0.0178 -0.1611
26889W        W27089   1.018  16.478  15.848  0.0101  0.1534  0.0538
26890W        W27090   9.928   8.264   9.184 -0.1192  0.1883  0.3498
26891W        W27091  11.060  15.481  11.390  0.0764 -0.0344  0.0552
26892W        W27092  12.590  12.320   8.150 -0.2388  0.1953  0.0354
26893W        W27093   8.255  14.693   9.661  0.1712  0.1321  0.1262
26894W        W27094  15.434   2.723   9.763 -0.4548  0.4513  0.0386
26895W        W27095   8.237  17.480   9.803 -0.4788 -0.0837  0.5412
26896W        W27096  16.853   6.329   0.094  0.1116 -0.1837 -0.2572
26897W        W27097   7.862   1.820  15.703  0.1091 -0.4557  0.0382
26898W        W27098  11.377   1.128   8.051  0.3732 -0.1920 -0.0584
26899W        W27099   9.032  12.827  12.481  0.0096 -0.1177  0.1837
26900W        W27100   7.353  11.406   8.755  0.0316  0.0174  0.1222
26901W        W27101   5.021  14.719   6.506  0.0635 -0.1482 -0.2909
26902W        W27102  14.159  10.553   0.121  0.0454 -0.1145  0.1275
26903W        W27103  10.310  10.721   9.331 -0.2467 -0.1849  0.2702
26904W        W27104   6.202  10.614  11.694 -0.0847  0.0978 -0.1492
26905W        W27105   6.627   9.385   9.440 -0.1320  0.1627 -0.0125
26906W        W27106   6.030  10.364   2.259  0.0061 -0.0463  0.0079
26907W        W27107  10.322  16.390  10.740  0.1001  0.1641  0.0486
26908W        W27108  12.411   9.623   5.022  0.1379  0.2466 -0.0247
26909W        W27109  12.020  11.137  11.481  0.3905  0.1470  0.1404
26910W        W27110  10.453  14.684   7.137  0.1462 -0.2663  0.2037
26911W        W27111   3.431   9.575  13.395  0.0880 -0.0002  0.2953
26912W        W27112   0.098  15.911  12.506  0.1932  0.1083  0.0675
26913W        W27113  10.019  13.773  13.347  0.1003 -0.0321 -0.0394
26914W        W27114  13.735  15.202  12.976  0.0522  0.0417  0.4216
26915W        W27115   7.631   6.237  11.678 -0.0735  0.3700  0.0050
26916W        W27116  11.958  13.093  10.099 -0.0864 -0.1645  0.1692
26917W        W27117  13.305  14.697   8.502  0.1628 -0.0894 -0.0507
26918W        W27118   3.682  12.625   4.981  0.1012  0.0507  0.0764
26919W        W27119  12.457  15.019  12.419  0.3723 -0.3959 -0.1364
26920W        W27120  11.540  12.824  13.045 -0.0674 -0.1671 -0.1545
26921W        W27121  10.233   8.652   9.071 -0.0662 -0.1432 -0.0534
26922W        W27122   8.002   4.990   9.973 -0.2885  0.2091  0.0663
26923W        W27123   3.455  10.074  13.018  0.0106  0.0747 -0.0160
26924W        W27124   7.244  10.178   6.453  0.0911 -0.1438  0.0935
26925W        W27125   8.787   5.964   4.235 -0.2830  0.1286 -0.1513
26926W        W27126  10.229  16.015  14.666  0.0317  0.0247  0.5676
26927W        W27127   5.181  16.019   1.995 -0.0702  0.2193  0.1928
26928W        W27128   7.806  13.771   5.827 -0.2182  0.0754  0.0274
26929W        W27129  10.366  17.365   6.859  0.0119 -0.6082  0.4626
26930W        W27130  15.705   8.966   5.207 -0.0411  0.1485  0.0828
26931W        W27131   6.724   2.996  10.287 -0.0937  0.1776  0.1820
26932W        W27132   5.279  12.284   7.350  0.0498 -0.3429  0.0282
26933W        W27133  16.018   5.859   9.418 -0.0888  0.1565  0.2011
26934W        W27134  11.873  10.014   6.594 -0.0754 -0.1173 -0.2033
26935W        W27135   9.007  14.054  10.390  0.0634  0.1191  0.2279
26936W        W27136   6.838  13.586  10.958  0.0888 -0.2371  0.2702
26937W        W27137   5.800   8.836   7.104  0.1455  0.0245  0.1875
26938W        W27138  10.138  10.018  17.389 -0.1674 -0.1268 -0.0184
26939W        W27139  13.081  14.298  16.869 -0.1221  0.0339  0.2790
26940W        W27140  16.809   4.973   7.613 -0.2526 -0.1042  0.1116
26941W        W27141   5.099  11.260  14.269  0.0221  0.0428 -0.0048
26942W        W27142  14.640   9.978   9.958  0.4691  0.0633  0.2240
26943W        W27143  12.405   0.385   4.254  0.1671 -0.0207  0.2005
26944W        W27144  13.338  15.790   9.635 -0.2520 -0.1979 -0.1029
26945W        W27145   5.633  13.024   7.439 -0.0798  0.0841  0.4138
26946W        W27146   8.522   0.097   8.868  0.0577 -0.0936 -0.0168
26947W        W27147   8.556  10.959   2.612 -0.2163  0.2742  0.0433
26948W        W27148  14.404  12.024  12.410 -0.2888 -0.2323 -0.1847
26949W        W27149  16.273  16.709  11.573 -0.1919  0.4175  0.1975
26950W        W27150   4.740  11.975  10.695 -0.1388 -0.1237  0.0537
26951W        W27151   9.861   7.848   8.444  0.1636 -0.0248  0.3807
26952W        W27152   8.209  13.952   1.688 -0.1425  0.1405  0.3759
26953W        W27153   6.814  13.556  10.115  0.2620 -0.1656  0.0034
26954W        W27154  16.279  15.207  11.673  0.1046  0.0147  0.3692
26955W        W27155  16.088  15.755  11.791 -0.1680  0.0361 -0.1636
26956W        W27156  10.406  16.763  14.026  0.0568 -0.1664  0.1160
26957W        W27157   7.324  11.186   6.693 -0.1148  0.0935 -0.0428
26958W        W27158   8.098  16.866   6.902  0.0477  0.0338  0.0443
26959W        W27159  10.576  12.734   4.875  0.2017  0.2701 -0.0428
26960W        W27160   7.854   1.021   2.615 -0.0695  0.3888  0.0722
26961W        W27161   8.309  12.204   6.647 -0.1762 -0.3444 -0.1567
26962W        W27162  12.349   9.647   9.430 -0.0252 -0.2040  0.0235
26963W        W27163  10.461   5.203   1.240  0.0238 -0.0705  0.0463
26964W        W27164   2.623   8.476   8.118 -0.1132 -0.4615 -0.2826
26965W        W27165  11.303   2.159  14.055  0.3035  0.0825  0.1374
26966W        W27166   9.391  14.510  15.881  0.2019 -0.0786 -0.0372
26967W        W27167  13.905   0.934   1.459  0.1978 -0.1384 -0.2512
26968W        W27168  12.528   3.606  11.479 -0.0628  0.1618  0.0882
26969W        W27169   6.809  17.508   8.876  0.1480 -0.2200  0.1148
26970W        W27170   5.690  14.708  12.354  0.1897 -0.0102 -0.0478
26971W        W27171   7.930  12.237  17.698 -0.2218 -0.0389 -0.1477
26972W        W27172   6.128  14.548   3.883 -0.0847  0.0119  0.2565
26973W        W27173   8.794   1.866   8.864 -0.0557 -0.1704  0.3976
26974W        W27174   5.377  13.126   9.255  0.1662  0.3656  0.1767
26975W        W27175   5.854  16.597   2.961 -0.4249 -0.2243  0.2808
26976W        W27176   9.881   3.153   5.046 -0.0022 -0.2794  0.2395
26977W        W27177   4.969  13.988   4.618  0.1109 -0.0270 -0.0010
26978W        W27178   0.513  15.146  14.234  0.0452 -0.1716  0.1569
26979W        W27179  12.123   7.425  10.063  0.0520 -0.2018  0.1186
26980W        W27180  10.501  15.345   6.299  0.2136  0.0133  0.0005
26981W        W27181   5.094  15.778  15.447  0.1337 -0.1278 -0.4446
26982W        W27182   8.987  17.755   4.061  0.0649  0.2221 -0.0270
26983W        W27183   8.015   8.715   9.833  0.4765  0.4050  0.0982
26984W        W27184   8.936   9.976   2.208  0.4023  0.1879 -0.1982
26985W        W27185  16.436  15.814   5.981  0.0965 -0.1919  0.2537
26986W        W27186  16.168  11.307   7.577  0.1623  0.2501  0.0270
26987W        W27187   8.366  12.032   7.997 -0.1482 -0.0063  0.0696
26988W        W27188  12.947  13.362  11.953  0.1963 -0.0046 -0.0887
26989W        W27189   6.792  14.051   8.442  0.0983 -0.2043 -0.2468
26990W        W27190   5.173  10.175  17.955  0.0580  0.0565 -0.2169
26991W        W27191  17.541  14.990  17.853 -0.0525  0.1064 -0.2561
26992W        W27192  12.143  15.105   5.619  0.0322  0.1958  0.1198
26993W        W27193  17.840   9.932   3.851  0.0340 -0.0285  0.2396
26994W        W27194  18.036  12.286  14.181 -0.0749  0.1584  0.0866
26995W        W27195   7.416  17.259   2.643  0.2278 -0.0010  0.1010
26996W        W27196  13.719   0.206   7.410  0.0967 -0.1511  0.2275
26997W        W27197   9.640  12.899  15.045 -0.1057 -0.3032 -0.0361
26998W        W27198   1.824  14.339  10.290 -0.0937  0.2961  0.0760
26999W        W27199   7.329  15.431  14.367 -0.0471  0.0708  0.1683
27000W        W27200   2.815  14.898   1.520 -0.3160  0.1317  0.3183
27001W        W27201  10.912  15.620   9.588  0.1921  0.1487 -0.2179
27002W        W27202  14.207   9.636   9.333 -0.2972 -0.0622  0.1406
27003W        W27203   1.813  10.941   7.521 -0.2289  0.3107 -0.2428
27004W        W27204   2.721  15.883  12.953 -0.1182 -0.1098  0.2671
27005W        W27205   1.326  10.156   8.172 -0.0637  0.0958  0.2229
27006W        W27206   0.372  17.551   2.476 -0.0202 -0.2295  0.2615
27007W        W27207   6.291  13.323  15.408 -0.1498  0.1299 -0.2068
27008W        W27208   8.050  14.695  10.871 -0.0449 -0.0226  0.2162
27009W        W27209   8.626  14.725   7.951  0.0230 -0.0154  0.2313
27010W        W27210   8.107  11.717  13.326  0.1231  0.1396 -0.1463
27011W        W27211   1.835  13.898   4.536 -0.5350 -0.0164 -0.1017
27012W        W27212  13.858  16.681   8.804  0.2110  0.2218  0.2287
27013W        W27213  10.993   1.700   2.715 -0.0082 -0.3241  0.0804
27014W        W27214   6.366  14.845  17.492 -0.2274 -0.1050  0.3127
27015W        W27215  15.083  12.558   1.938 -0.0303 -0.0011 -0.0700
27016W        W27216   0.594   0.096   7.101 -0.1754  0.1252  0.0095
27017W        W27217   1.880  14.198  10.757  0.2952 -0.0997 -0.2729
27018W        W27218   3.735  11.228   1.347 -0.0863  0.1150  0.0064
27019W        W27219   9.693  12.129  14.920  0.0612  0.3245  0.2820
27020W        W27220  15.198   9.981  15.677 -0.0174 -0.1375  0.1644
27021W        W27221   5.214  11.967   8.558 -0.2237  0.1100  0.0619
27022W        W27222   8.037   8.957  16.728  0.2483  0.3556 -0.0083
27023W        W27223   8.571  16.335   5.623  0.0953 -0.2698  0.1809
27024W        W27224  12.303   9.482   7.205 -0.1261  0.1101 -0.1567
27025W        W27225   7.622   1.405   2.302 -0.0316 -0.3119  0.2896
27026W        W27226  13.373  13.588  17.369 -0.3013 -0.0380  0.0512
27027W        W27227   9.304  10.976  14.864 -0.0837 -0.0106  0.0868
27028W        W27228  13.750  13.062   9.147 -0.0321 -0.1384  0.0742
27029W        W27229  12.084  10.060   4.380 -0.0950 -0.3025 -0.3771
27030W        W27230  16.011  12.622   5.600  0.1532  0.0202  0.0516
27031W        W27231  14.643   4.468  10.333 -0.3304 -0.0284  0.1402
27032W        W27232  14.632  10.495   5.626  0.0826 -0.0118 -0.1770
27033W        W27233   1.196  16.629  11.197 -0.1755 -0.1471 -0.1820
27034W        W27234  15.547  11.474  14.861  0.0158  0.2112 -0.0604
27035W        W27235   6.120  10.197  14.133  0.1440  0.1147  0.0756
27036W        W27236   4.428  15.679  12.292  0.1173  0.1026  0.1963
27037W        W27237   3.555  11.471   5.738  0.2974  0.2138 -0.1174
27038W        W27238   8.964   7.861  15.649  0.1271 -0.1973 -0.2871
27039W        W27239   1.834  10.956   6.327 -0.0658 -0.1883 -0.0009
27040W        W27240  14.020  17.758   4.064 -0.0189 -0.2579 -0.1106
27041W        W27241   8.641  17.057  15.297 -0.0010  0.3367  0.2466
27042W        W27242   2.599  11.994  11.473  0.0860 -0.0366  0.1182
27043W        W27243  12.032  15.894   9.923  0.1777  0.0084  0.1587
27044W        W27244   6.198   9.314   9.167  0.1557 -0.0055 -0.2647
27045W        W27245  16.621   6.304  11.026 -0.1326 -0.1315 -0.1325
27046W        W27246  15.558  14.467   5.297  0.0640 -0.2268  0.0111
27047W        W27247   1.665   1.457  11.423 -0.1931 -0.0698 -0.1842
27048W        W27248   2.701  15.965  15.432  0.0282 -0.0457 -0.1935
27049W        W27249   8.908  14.111   9.608 -0.0950 -0.0499  0.0392
27050W        W27250   5.562   3.152   6.418  0.3183  0.1823  0.0304
27051W        W27251   4.683   1.447   7.046 -0.1968  0.0601 -0.0643
27052W        W27252  11.874   1.466   2.884 -0.2022  0.1093 -0.0085
27053W        W27253  13.809  16.117   8.719  0.0829 -0.0184 -0.0646
27054W        W27254   2.485  12.368  14.835  0.2666 -0.0620  0.0818
27055W        W27255   0.789   6.052   8.100  0.0163  0.2236  0.1434
27056W        W27256   4.768  13.003   7.449 -0.2525  0.3820 -0.2070
27057W        W27257  11.301   8.445   9.942 -0.0454  0.0031 -0.0212
27058W        W27258  10.201  12.303  11.325 -0.3598  0.0717 -0.2576
27059W        W27259   3.393  11.435  11.746 -0.2461  0.2619 -0.2530
27060W        W27260  10.394   4.978  12.255 -0.2118 -0.0409  0.4209
27061W        W27261   2.854   9.691   4.846 -0.3490  0.0018 -0.0644
27062W        W27262   9.822  10.690   5.632 -0.1299 -0.0824 -0.2711
27063W        W27263  14.140   8.340   3.960 -0.1007 -0.1234  0.0281
27064W        W27264  10.055  12.020  10.809  0.0586  0.0011  0.0033
27065W        W27265  15.489  11.378  17.143  0.2106  0.2612 -0.2017
27066W        W27266   0.187  12.321  10.797 -0.1751  0.1566 -0.2398
27067W        W27267  12.870   4.130   9.213 -0.0155  0.0942  0.1720
27068W        W27268   4.209  17.003  12.764 -0.2416  0.2459 -0.2605
27069W        W27269   5.048  11.203  12.353  0.0399  0.0959  0.2621
27070W        W27270  12.746  16.513   8.366 -0.0845 -0.0637 -0.0731
27071W        W27271   4.491  12.782   9.698 -0.1877  0.1593  0.0108
27072W        W27272  17.657  16.042   9.206  0.1084  0.0592 -0.0307
27073W        W27273   6.029   2.990  12.037  0.2255 -0.1985 -0.0705
27074W        W27274  17.680   0.312  11.185 -0.0742  0.0877  0.0348
27075W        W27275   8.073  13.539  16.612 -0.1015 -0.0418 -0.0944
27076W        W27276   4.999  13.515   5.286 -0.2286 -0.0244  0.0100
27077W        W27277  15.481  13.386   9.878  0.0549  0.1659 -0.1554
27078W        W27278   1.639   4.389  10.174  0.1156  0.2422 -0.1517
27079W        W27279   6.151  10.689  15.475  0.0808 -0.1286  0.3110
27080W        W27280   4.032  17.321  13.366 -0.3733  0.0589  0.0539
27081W        W27281   6.886   2.170   8.598 -0.2573  0.0527  0.0149
27082W        W27282  15.589  10.540  11.758 -0.0733 -0.0621  0.0663
27083W        W27283   6.840   7.592   9.330 -0.2078 -0.2094  0.0477
27084W        W27284   6.401   1.389  11.374  0.0651  0.0905 -0.1612
27085W        W27285  10.231   6.879   2.020  0.0821  0.0532 -0.1723
27086W        W27286  16.311   7.220   5.729 -0.0188 -0.2221  0.1105
27087W        W27287   6.763   8.125  16.542 -0.2488 -0.0720 -0.1124
27088W        W27288   4.453   1.290  10.035  0.0932  0.0148  0.1156
27089W        W27289   4.836  14.279  13.823  0.0371 -0.1993 -0.0282
27090W        W27290  12.478   2.181  11.131  0.1817  0.2245 -0.0031
27091W        W27291   0.419   1.862  15.411  0.0139 -0.0165  0.0473
27092W        W27292   3.702   9.423  11.740 -0.3244 -0.0998 -0.1561
27093W        W27293  17.720  17.490   1.040  0.1383 -0.0602 -0.2723
27094W        W27294   3.898  16.850  13.543  0.0185 -0.2470  0.0656
27095W        W27295  14.191  10.750  11.761 -0.0064  0.2931 -0.3299
27096W        W27296   3.122  11.494   6.469 -0.0465  0.1513  0.1099
27097W        W27297  11.243   0.046   8.801  0.1679  0.1019  0.1180
27098W        W27298  16.923   4.208  14.771  0.1424  0.0610  0.0595
27099W        W27299  12.515   3.706   7.702  0.2484 -0.0373 -0.1495
27100W        W27300   0.990  15.093   8.508 -0.0311 -0.0961  0.0563
27101W        W27301   6.400   9.853  14.283 -0.4085  0.0340  0.1642
27102W        W27302   5.276  15.368  15.671 -0.0874 -0.0791  0.1177
27103W        W27303  12.822  15.385   4.819 -0.0794  0.0235 -0.3625
27104W        W27304   6.035  12.388  13.355 -0.1412  0.2160 -0.0172
27105W        W27305   7.632   8.933   5.835 -0.2506  0.2036 -0.2678
27106W        W27306   2.975  15.673   8.683  0.0928  0.3828 -0.0775
27107W        W27307   8.570   6.997   1.947  0.0499  0.0344 -0.1187
27108W        W27308   9.932  14.432   3.424 -0.0132  0.0563 -0.3464
27109W        W27309   3.909  15.912  12.881 -0.0982  0.0280 -0.1622
27110W        W27310  10.433   7.355   5.475  0.0004  0.0821 -0.1840
27111W        W27311  10.780   8.423   8.255 -0.0298 -0.0118  0.0479
27112W        W27312  10.753   3.081   1.742  0.1821 -0.0879  0.1447
27113W        W27313   6.558  17.807  15.510 -0.2516 -0.5594  0.4084
27114W        W27314   2.238   2.878   4.429 -0.2223  0.1394  0.0001
27115W        W27315   3.755  17.782   4.808 -0.1283 -0.0819  0.0719
27116W        W27316   6.865  10.705   6.921 -0.0578 -0.2274  0.1463
27117W        W27317  12.188   6.359   0.608 -0.2089 -0.1880  0.0665
27118W        W27318   3.612   8.287   5.415  0.2796 -0.2497 -0.2663
27119W        W27319  13.531   9.312  10.019  0.2749  0.2360 -0.3006
27120W        W27320  17.961   9.154  16.572 -0.3769 -0.3633 -0.0845
27121W        W27321   8.648  14.794   7.456  0.0443  0.0242  0.2810
27122W        W27322   9.069  17.772   0.070  0.1053  0.1200  0.0540
27123W        W27323   3.966  17.258   7.203 -0.0077  0.4724 -0.3200
27124W        W27324   5.141  11.047   7.221 -0.5207 -0.0345 -0.1137
27125W        W27325  11.227  10.683   9.084  0.0405 -0.3361 -0.2571
27126W        W27326   7.776  10.094   7.150  0.2146 -0.3300 -0.2594
27127W        W27327   6.806  13.102   7.068  0.3133 -0.1215 -0.1633
27128W        W27328  16.832   6.753  10.793  0.1253  0.0430 -0.0992
27129W        W27329  10.735  11.489  15.510  0.0112  0.1251  0.0102
27130W        W27330   8.056  10.147  10.113 -0.1892  0.2521 -0.1832
27131W        W27331   0.348  14.493  18.128  0.1856  0.2745 -0.0610
27132W        W27332  11.557  16.254  11.730  0.0915 -0.2366  0.2101
27133W        W27333   7.797  13.700   4.562 -0.2583 -0.2557 -0.0482
27134W        W27334   7.048  14.191  17.079 -0.2040  0.0041 -0.1058
27135W        W27335   8.446   8.081   1.124 -0.2908 -0.0077 -0.0067
27136W        W27336   3.580   8.746  13.472  0.0520 -0.2650  0.0313
27137W        W27337  10.750  16.436  10.467  0.1011 -0.2971  0.0347
27138W        W27338   7.143  15.495   4.633 -0.1619 -0.0951 -0.2691
27139W        W27339   4.597  13.473  18.199  0.0779  0.4007  0.0190
27140W        W27340  13.167   0.043  13.619 -0.0054 -0.1130  0.0238
27141W        W27341  11.052  14.114  15.356  0.4194  0.1421  0.3114
27142W        W27342   3.607  10.462   6.118  0.1357 -0.0831 -0.0859
27143W        W27343   9.944  13.103  10.809  0.0806 -0.1895  0.0631
27144W        W27344   3.817  15.147   4.657 -0.3149 -0.1799 -0.0843
27145W        W27345   6.846  16.909  11.801 -0.0120 -0.2182  0.4624
27146W        W27346   1.121  11.051  14.902  0.0362  0.0749 -0.1376
27147W        W27347   8.272  17.994  10.484 -0.0627 -0.1002 -0.2349
27148W        W27348   7.562  14.657   8.592 -0.0935 -0.0953  0.0813
27149W        W27349   5.193  13.097   7.170  0.1680  0.1686  0.1439
27150W        W27350  14.733   8.900   1.899  0.2009 -0.0974 -0.2889
27151W        W27351   5.498  16.902   7.160 -0.1177  0.2971  0.0637
27152W        W27352   5.998   8.474   0.845  0.1204 -0.0499  0.0269
27153W        W27353   0.986  13.075   4.629 -0.0821 -0.0092 -0.1984
27154W        W27354   7.761  10.271  14.142  0.0690  0.1152 -0.2179
27155W        W27355   5.399  11.313   6.802 -0.0871  0.0324  0.2109
27156W        W27356  10.667  15.358   8.728  0.1152 -0.0596 -0.1874
27157W        W27357  11.072  11.132   6.176 -0.0681  0.0796  0.4227
27158W        W27358  11.325  11.210  15.815 -0.0028 -0.3074 -0.0595
27159W        W27359  16.728  14.157   0.252 -0.3470 -0.0418 -0.1503
27160W        W27360  10.047  13.607   4.775 -0.4852  0.2239  0.1455
27161W        W27361   3.854   9.028   5.801 -0.2545  0.0110  0.1981
27162W        W27362   9.044   7.741  14.740 -0.1196  0.4359  0.0773
27163W        W27363  15.066  17.036  12.409  0.1199 -0.0190 -0.0625
27164W        W27364  17.344  14.140  10.423  0.0577 -0.3314  0.1676
27165W        W27365   4.781  13.425   6.427 -0.2402  0.0262 -0.2118
27166W        W27366   2.812   7.896  14.211  0.1610 -0.0316  0.1604
27167W        W27367   1.802  17.604   9.205 -0.0205  0.2186 -0.1858
27168W        W27368   2.873  14.654   2.415 -0.0275 -0.1647 -0.0312
27169W        W27369   0.418  12.329  12.173 -0.1863 -0.0328 -0.1159
27170W        W27370  15.328   9.230   9.060 -0.1390 -0.3686  0.0805
27171W        W27371   2.595  12.247   8.674 -0.0495 -0.2400 -0.0076
27172W        W27372   5.950  14.126  15.962  0.0531 -0.1166  0.2210
27173W        W27373  16.935  15.873  11.347 -0.1384  0.1152  0.0948
27174W        W27374  10.640   7.589  12.103  0.2620 -0.0164  0.1333
27175W        W27375   7.547  16.110   4.849 -0.0314  0.2444  0.0961
27176W        W27376   5.636  13.721   1.608  0.0205  0.1330 -0.2887
27177W        W27377  11.089  11.498  16.179 -0.1832  0.0559  0.4709
27178W        W27378   8.863  10.378  10.174  0.1545 -0.1110  0.0142
27179W        W27379   8.071  17.302   4.142 -0.2024 -0.3081  0.0734
27180W        W27380  10.093  11.515   4.608 -0.1589  0.1513  0.0832
27181W        W27381  11.834  17.548   3.591 -0.0121  0.0762  0.0945
27182W        W27382  14.215  11.743   6.678 -0.1948  0.2622 -0.0345
27183W        W27383   5.414  12.144  16.596 -0.1409 -0.0651  0.1110
27184W        W27384   2.783  10.957   4.904 -0.2458  0.0446  0.0869
27185W        W27385   6.834  11.043  11.999  0.0309  0.0037  0.0603
27186W        W27386   4.645  14.923  11.904  0.0641  0.0321  0.3974
27187W        W27387  11.401  16.412   9.351  0.0345 -0.0346 -0.1417
27188W        W27388   5.627  16.360  10.544  0.2641  0.1147 -0.1290
27189W        W27389   5.505  14.428  13.323 -0.0354 -0.2012  0.0617
27190W        W27390  11.918   1.894  10.206  0.1982 -0.1220 -0.2541
27191W        W27391  12.358   9.979  15.460  0.1866  0.3661 -0.1681
27192W        W27392  10.386   6.052  11.308  0.0363  0.0528 -0.0982
27193W        W27393   9.264  15.167   3.439  0.1609 -0.0278 -0.0976
27194W        W27394  10.956  16.369  11.837 -0.0052  0.0031 -0.1121
27195W        W27395   4.286  12.070   6.180  0.2062 -0.0676  0.1377
27196W        W27396   8.074  16.031  11.898  0.1251  0.3748  0.4571
27197W        W27397  18.084   0.806  11.120  0.0686 -0.1825  0.0117
27198W        W27398  13.908   9.253   2.815 -0.2967 -0.0461  0.2864
27199W        W27399   8.518   0.941  16.261 -0.1844 -0.0210 -0.0196
27200W        W27400   8.817   5.735   1.698 -0.2881 -0.1080 -0.1022
27201W        W27401   5.188   4.761  14.905  0.2170  0.1732 -0.1618
27202W        W27402   8.523   5.630  17.464  0.1581 -0.1150  0.0092
27203W        W27403   4.719  13.242   8.445  0.0354  0.0228 -0.1501
27204W        W27404  12.054  10.267  11.437  0.0751 -0.1541 -0.3174
27205W        W27405   2.238  14.235  13.965 -0.0777  0.0183  0.0739
27206W        W27406  11.647   0.072  11.197  0.2544  0.0601  0.0471
27207W        W27407  10.043  10.298   9.568 -0.1438 -0.1079  0.0262
27208W        W27408  14.313  14.790  18.083  0.1388 -0.1786  0.2156
27209W        W27409  14.236   4.041  15.671  0.3524 -0.1253  0.0559
27210W        W27410  10.983  11.552   1.207  0.0968 -0.1052 -0.1907
27211W        W27411  10.095  10.362   9.040 -0.0142 -0.0175  0.1558
27212W        W27412   7.201   3.425   4.373 -0.5380 -0.6319  0.0481
27213W        W27413   5.918   9.720   1.617  0.0836  0.1450 -0.1115
27214W        W27414   2.568  11.027  17.395  0.2938  0.0783 -0.1537
27215W        W27415  14.787  15.368  13.873 -0.3267 -0.2055 -0.1257
27216W        W27416   6.139   8.434  14.330 -0.4851  0.0524  0.0258
27217W        W27417  11.172   9.386   8.536  0.2922  0.0237  0.0094
27218W        W27418  12.052  11.740  14.500  0.1746  0.0908  0.2519
27219W        W27419   9.696  10.417   7.602  0.1469  0.0487  0.2797
27220W        W27420   5.259  11.546  15.947 -0.2164 -0.0245 -0.3156
27221W        W27421   4.977   9.447  11.666 -0.3831  0.0710  0.4808
27222W        W27422   2.061  14.772  10.083 -0.3377  0.2220  0.0743
27223W        W27423  14.241   7.145  14.936  0.4197  0.2069  0.1471
27224W        W27424   8.968  10.296  11.448 -0.1503 -0.0659  0.1116
27225W        W27425   4.886  12.630  14.443  0.2252  0.0713 -0.1131
27226W        W27426  16.522  16.856   8.473  0.1315  0.2227  0.1102
27227W        W27427   7.496  10.186  17.753  0.2212 -0.0521  0.1880
27228W        W27428   4.961   8.308  17.967 -0.0298  0.1379  0.1508
27229W        W27429   5.307  13.099   8.326 -0.1191  0.1279 -0.2638
27230W        W27430   7.871  10.155  15.004  0.2904 -0.1116 -0.2360
27231W        W27431   8.492  18.107  12.542  0.0449  0.1151 -0.3896
27232W        W27432  11.958  16.535  17.868 -0.2825  0.0767 -0.3869
27233W        W27433   6.862  15.727   4.978 -0.3084  0.0193  0.0731
27234W        W27434  15.676  17.637  16.298 -0.2466  0.2557  0.0196
27235W        W27435   5.145  12.103   2.343 -0.1413 -0.0350 -0.2538
27236W        W27436   8.779   3.323  13.682 -0.1436  0.0634  0.1327
27237W        W27437   6.053   0.513   8.533  0.2098  0.1235  0.0302
27238W        W27438  13.860  12.148   1.517 -0.2085  0.1923 -0.0477
27239W        W27439   1.953   9.789   2.010  0.1705 -0.0137  0.0567
27240W        W27440   4.295   2.216  16.378 -0.0626  0.1174  0.1055
27241W        W27441  14.758   9.334  14.574  0.3337 -0.3327  0.2827
27242W        W27442  14.208  12.798  17.432  0.1159  0.2370 -0.1182
27243W        W27443  10.316  11.126   0.040 -0.0724  0.4010 -0.1099
27244W        W27444   4.758  10.311  11.214 -0.2550 -0.0509 -0.0633
27245W        W27445   7.448   6.061   7.262 -0.0445 -0.2600 -0.1976
27246W        W27446  13.126  17.953   9.002  0.0380  0.1303  0.1864
27247W        W27447  15.401   7.593   4.765  0.1861 -0.2015 -0.0805
27248W        W27448   6.293  13.313   3.242 -0.0121 -0.1424  0.0915
27249W        W27449  11.689  15.185  14.383  0.1492  0.3811 -0.0759
27250W        W27450   3.819  13.874  13.916 -0.1510  0.2544 -0.0815
27251W        W27451   7.688  15.481   6.845 -0.0602 -0.2208 -0.0075
27252W        W27452   4.046   8.693  11.729  0.0837  0.1561 -0.1061
27253W        W27453   6.751   0.278  12.327  0.1004  0.0016 -0.0384
27254W        W27454   3.086   4.636   2.062 -0.3089  0.0781  0.0396
27255W        W27455  15.464   1.078   6.844  0.3206  0.4439  0.1297
27256W        W27456   9.829  16.951   1.046  0.0412 -0.0101  0.2276
27257W        W27457   7.393  14.714  14.796  0.1110  0.4225 -0.2931
27258W        W27458  13.417   7.472   4.792 -0.2235 -0.3455  0.0161
27259W        W27459  14.773  14.570   7.659 -0.1653 -0.1760 -0.0581
27260W        W27460  11.790   7.482   4.739 -0.1148 -0.0859  0.0739
27261W        W27461   6.858   3.941  12.923  0.0748 -0.1186 -0.1072
27262W        W27462   1.435   4.488  15.550 -0.2620  0.1841 -0.2619
27263W        W27463   4.349  15.581   0.784  0.3782 -0.0798  0.1339
27264W        W27464   9.703   1.687   8.586  0.0512 -0.0471 -0.3781
27265W        W27465  16.227  12.829  12.783  0.1427 -0.1223 -0.0060
27266W        W27466   4.943  13.119  13.480 -0.1151 -0.0290 -0.1261
27267W        W27467  12.615  13.271  12.425 -0.0433 -0.1680  0.1551
27268W        W27468   9.272   0.532   9.779  0.1414  0.1560 -0.1152
27269W        W27469   8.785  14.184  17.182 -0.0118  0.1433 -0.0523
27270W        W27470   7.842   0.073   5.454  0.0797 -0.1122  0.0833
27271W        W27471   9.475   1.004  14.423  0.0714  0.2696  0.0180
27272W        W27472  10.455   7.051  16.075 -0.3217 -0.3945 -0.2118
27273W        W27473  17.525   7.522   7.274 -0.0783  0.4797  0.1199
27274W        W27474   2.775  11.741  11.041 -0.2184  0.1454 -0.0384
27275W        W27475  16.363   0.297  11.244  0.0525 -0.1450 -0.2360
27276W        W27476  16.241  15.127   9.911  0.1772 -0.0742 -0.2757
27277W        W27477   9.442  13.437  12.125  0.0258 -0.2039 -0.0082
27278W        W27478   1.906  16.502  16.865 -0.3692 -0.0922  0.1236
27279W        W27479   6.597  17.686   9.544 -0.0477  0.3523 -0.1703
27280W        W27480  12.719   7.665  10.775 -0.0682  0.2733 -0.2270
27281W        W27481  11.635  10.594   6.150  0.1118 -0.0262 -0.0180
27282W        W27482   9.913   0.040  12.473 -0.0636  0.0956  0.1087
27283W        W27483  16.174  13.173  13.980 -0.1066  0.0631  0.0334
27284W        W27484   6.302   1.459   1.282 -0.2254 -0.1745  0.2294
27285W        W27485   4.464  12.830  17.478 -0.0728 -0.2724  0.1738
27286W        W27486   7.764   4.550   9.644  0.0653 -0.1653  0.1392
27287W        W27487   6.903   5.019   0.324  0.0345 -0.0524 -0.0383
27288W        W27488   8.033   9.034   0.714  0.2144  0.0698  0.0990
27289W        W27489   7.966  12.685  14.250 -0.3170  0.1595 -0.0581
27290W        W27490  16.182   8.242  15.117  0.0703  0.1352  0.0517
27291W        W27491   9.027   9.705  10.921 -0.0982  0.1901 -0.2240
27292W        W27492   8.567   6.988   0.760  0.0529 -0.0337  0.0990
27293W        W27493   3.008  12.725  11.282 -0.2311  0.3467  0.0824
27294W        W27494   0.910   8.217   9.425 -0.2454 -0.2379 -0.0606
27295W        W27495   5.370  17.638   0.986 -0.2586 -0.0593  0.0785
27296W        W27496  11.856   0.852   8.036 -0.0383  0.2787  0.0006
27297W        W27497  16.115  11.132   0.703  0.0320 -0.3386  0.1034
27298W        W27498  13.570  16.792   7.929  0.0378 -0.0790 -0.1806
27299W        W27499   8.994  11.762   2.494 -0.2185 -0.1339 -0.0765
27300W        W27500   9.210   3.762   5.567  0.1494 -0.0374 -0.1909
27301W        W27501   7.532  10.936   2.547 -0.0468 -0.0954  0.2571
27302W        W27502  15.167  13.182  15.528  0.0192 -0.1731  0.1995
27303W        W27503   0.349  13.703  12.497  0.2283  0.2908 -0.2756
27304W        W27504   5.616  18.006  10.169 -0.3057 -0.1222  0.0435
27305W        W27505   8.466   3.582  11.215 -0.0590  0.1322 -0.0968
27306W        W27506   0.981   1.843   1.921 -0.0186 -0.0011 -0.2945
27307W        W27507  16.613  10.542   7.038  0.2250 -0.0343 -0.2836
27308W        W27508  12.712   7.839   9.351 -0.0338 -0.0787  0.2406
27309W        W27509   6.337  17.870  13.919  0.0432 -0.0731 -0.0804
27310W        W27510  10.557   7.731  14.738  0.2433 -0.0364  0.0207
27311W        W27511   8.195  12.347  13.378 -0.2277 -0.0024  0.1934
27312W        W27512   9.924  11.323  10.561 -0.1475 -0.1683  0.2715
27313W        W27513  12.754   8.615   6.637  0.0990 -0.2273  0.1166
27314W        W27514  17.230   7.019   6.389 -0.0963  0.0338  0.1540
27315W        W27515  11.283   9.055  13.331 -0.1848  0.0102 -0.1441
27316W        W27516   5.477  17.570   9.823 -0.0885  0.3821 -0.0887
27317W        W27517  12.192  14.673  12.724  0.0458 -0.0033  0.1978
27318W        W27518  11.940  15.351   9.542  0.2849 -0.0708  0.3122
27319W        W27519  13.994  14.737  17.728  0.0641  0.1946  0.2115
27320W        W27520   0.215  14.772  12.407 -0.1234  0.1134  0.1387
27321W        W27521  15.579   6.686  17.754  0.1345 -0.4953 -0.3421
27322W        W27522   8.593   4.704  17.350 -0.1710 -0.0614  0.0444
27323W        W27523   8.806  16.217  16.001 -0.4470  0.0746  0.0969
27324W        W27524   4.286   9.104  12.737 -0.0724 -0.2459 -0.3534
27325W        W27525   7.746  17.115   6.273 -0.2461 -0.1673  0.2849
27326W        W27526  15.340  12.010   8.019  0.3749  0.1557 -0.0267
27327W        W27527   2.820  15.938   6.937 -0.2155  0.0048 -0.2800
27328W        W27528   2.501  15.020   0.719 -0.1962  0.0627  0.3350
27329W        W27529   3.591  10.149   3.085 -0.0608  0.2854  0.1042
27330W        W27530   4.571  12.963  14.123 -0.0405 -0.0625  0.1113
27331W        W27531  13.025   4.445   8.800  0.1937 -0.0707 -0.2455
27332W        W27532   9.312  16.146  11.913  0.2106  0.1056  0.1594
27333W        W27533  17.555   6.632  13.334 -0.0585 -0.1958  0.1545
27334W        W27534  10.568   3.470  17.984  0.3310  0.3584  0.0183
27335W        W27535   7.840  13.877  13.789 -0.1280  0.2888  0.2328
27336W        W27536   6.962  12.930  14.849  0.0322 -0.1194 -0.1987
27337W        W27537   2.695  13.234  15.354  0.3936 -0.1348  0.3965
27338W        W27538  14.641  11.152  13.960 -0.3060  0.3000 -0.1090
27339W        W27539  11.396  16.251   4.314  0.5117  0.1979  0.2223
27340W        W27540  10.165   0.001   8.493  0.2327 -0.1564  0.0426
27341W        W27541  17.741   2.190  11.500 -0.3189 -0.0461 -0.0521
27342W        W27542   4.807   9.770   7.923 -0.0327 -0.2597 -0.0116
27343W        W27543   5.577  10.487  13.274 -0.3802 -0.0912  0.1090
27344W        W27544   7.107  15.573   9.056 -0.1533 -0.0911  0.2468
27345W        W27545  13.137   1.171   1.023  0.1931  0.0358  0.2451
27346W        W27546   6.610   9.665  17.918  0.2989 -0.1347  0.2843
27347W        W27547  17.172  12.606   8.224 -0.2179 -0.1502  0.0231
27348W        W27548   1.521   9.545  12.546 -0.2270 -0.2548 -0.2501
27349W        W27549  11.384   1.024  14.100  0.1171  0.0324 -0.2694
27350W        W27550   7.297  17.129  11.768  0.0618  0.1766  0.3900
27351W        W27551  16.664  12.057  16.881 -0.0137 -0.1495 -0.0129
27352W        W27552   5.543   9.327  13.458 -0.3198  0.0880  0.1297
27353W        W27553  11.287   5.160  14.602  0.0935  0.0123 -0.1970
27354W        W27554  12.458  15.317  16.633 -0.2444  0.0232  0.4124
27355W        W27555   5.081  15.935   1.352 -0.1936 -0.1948 -0.2291
27356W        W27556   7.549   9.709  16.554 -0.0292  0.3283  0.1073
27357W        W27557  12.227  12.369  15.802 -0.1837  0.1393 -0.1404
27358W        W27558  11.302  14.818  10.662  0.0439  0.0349 -0.4200
27359W        W27559   7.612  15.194  12.562  0.1343 -0.0002 -0.0646
27360W        W27560  16.655  12.222   9.250 -0.1299  0.1420 -0.2095
27361W        W27561  14.170  10.144  18.066 -0.3138 -0.1700  0.1695
27362W        W27562   9.344   5.685   7.406  0.1654  0.0138  0.0190
27363W        W27563   4.089  16.980  10.921  0.2499  0.2375 -0.1996
27364W        W27564  12.087  14.356  11.001  0.0672  0.0291 -0.4418
27365W        W27565   0.204  13.215  14.519  0.1760 -0.2465 -0.0778
27366W        W27566   6.505   7.704   8.030 -0.1005  0.1462  0.4014
27367W        W27567   9.047   6.538  14.179 -0.3318  0.0650  0.2092
27368W        W27568   4.102  16.225   3.302 -0.1944 -0.0353 -0.0519
27369W        W27569   8.194  12.804  15.437  0.1313  0.3761  0.0860
27370W        W27570  12.212  11.033  10.954 -0.0869  0.1691  0.1837
27371W        W27571   7.315   9.551  13.754 -0.3062 -0.1789  0.0154
27372W        W27572   8.694   9.437   9.727 -0.1745 -0.1975  0.0330
27373W        W27573   5.237   7.780  14.288  0.1541 -0.0837  0.4827
27374W        W27574   9.723   4.581  11.947  0.0908 -0.2963 -0.1224
27375W        W27575   9.887   6.083   9.864  0.2760 -0.3904 -0.0027
27376W        W27576   4.407  11.788  12.645 -0.3973 -0.2514  0.1515
27377W        W27577  16.325   5.720  10.254 -0.1891 -0.0824 -0.0051
27378W        W27578   6.748   0.472  15.782 -0.0824 -0.1932 -0.0408
27379W        W27579   2.488   9.735   8.825  0.3772  0.1617 -0.0146
27380W        W27580  13.709  10.109   2.597 -0.0221  0.0044 -0.0857
27381W        W27581  10.916   4.634   1.723 -0.0785  0.1637  0.1432
27382W        W27582   4.894   9.194  13.324 -0.2167 -0.2197 -0.0461
27383W        W27583   5.870   0.108  16.026  0.0529 -0.1833 -0.1473
27384W        W27584   4.174   9.541  16.382 -0.1412 -0.0756 -0.3638
27385W        W27585   6.385   7.999   2.004 -0.1526  0.0160 -0.1066
27386W        W27586   5.735   0.068  15.309 -0.1137  0.2410 -0.2990
27387W        W27587   2.936  13.036   6.249 -0.2548  0.0858 -0.2320
27388W        W27588  11.445  15.090  11.476  0.1529  0.0630 -0.2507
27389W        W27589  16.589   5.803  11.260  0.1364 -0.0035 -0.0876
27390W        W27590   6.954  17.614   9.887  0.1285  0.0745  0.2501
27391W        W27591   7.813   3.411   0.357  0.0895  0.2069 -0.0932
27392W        W27592   0.568  16.558  15.543  0.0778  0.0266  0.1268
27393W        W27593  14.530   7.441  11.460  0.1564 -0.1199  0.0851
27394W        W27594   4.759  15.323  12.150  0.0663 -0.1672 -0.0929
27395W        W27595  12.510  15.808  13.922  0.2830  0.1109  0.1949
27396W        W27596  13.573  13.162  10.062 -0.0251 -0.0135 -0.0886
27397W        W27597  10.776   0.996  11.585 -0.2272 -0.3304 -0.2893
27398W        W27598  11.875  13.290  14.514 -0.0172  0.3811 -0.1428
27399W        W27599  14.066   2.385  10.872 -0.0390 -0.1556 -0.1776
27400W        W27600   3.240  11.536  15.501  0.2208  0.2537 -0.0148
27401W        W27601  12.144   6.967   8.986  0.3584  0.2275  0.0232
27402W        W27602   1.381  12.182  11.844 -0.0971  0.2739  0.2416
27403W        W27603  16.717   2.858  13.158 -0.1431  0.1183 -0.0836
27404W        W27604   3.748  11.533  13.244  0.1321  0.1117  0.0637
27405W        W27605   5.797   7.259   3.528  0.2683 -0.2775  0.2314
27406W        W27606   1.167  11.270   9.688 -0.0895  0.1074  0.1277
27407W        W27607  12.715  15.898  12.871 -0.0158 -0.3536  0.3258
27408W        W27608   9.181  10.811   3.130  0.1505 -0.1078 -0.2182
27409W        W27609  11.224   6.861   0.258  0.0943 -0.0420  0.1418
27410W        W27610   6.574  14.899  10.754 -0.1653 -0.0793  0.1268
27411W        W27611   2.626   7.833   6.798 -0.0979  0.1676  0.3065
27412W        W27612  15.089   9.584   4.289  0.1448  0.0469  0.2124
27413W        W27613  13.462  15.977  12.074  0.1000 -0.0652 -0.0832
27414W        W27614   9.906  11.631   3.757 -0.0901 -0.1669 -0.0106
27415W        W27615  10.263  12.327   9.646 -0.1294 -0.1170  0.0859
27416W        W27616   6.818  11.820  11.359 -0.0238 -0.0366 -0.1048
27417W        W27617  13.197  14.528  13.084  0.1670  0.1006 -0.1414
27418W        W27618  10.515  10.417  16.630  0.0615 -0.4660 -0.1844
27419W        W27619  10.903   2.448  10.956 -0.1316  0.0592  0.2010
27420W        W27620  10.706  10.794  14.091  0.0806 -0.2239  0.2542
27421W        W27621  10.543   9.384  16.656 -0.1522 -0.0157 -0.0627
27422W        W27622   8.662  10.253  12.086 -0.0895 -0.2564  0.0312
27423W        W27623  11.477  12.997   2.584  0.4222  0.1386  0.1515
27424W        W27624  13.039  15.155  15.086 -0.1409 -0.2347 -0.1363
27425W        W27625   8.714  16.715   4.630 -0.2157 -0.2549  0.0060
27426W        W27626   6.533  16.449  16.220 -0.0128 -0.1438 -0.1203
27427W        W27627  16.105  12.620  17.058 -0.1400  0.1371  0.0381
27428W        W27628  17.087   2.790  10.945 -0.0698  0.1290  0.0668
27429W        W27629   6.588   7.645  14.222 -0.0834 -0.1438 -0.0433
27430W        W27630   7.695   5.883   9.600 -0.0631  0.1953  0.1746
27431W        W27631   6.173  15.712  12.978 -0.2803  0.0210  0.0252
27432W        W27632  11.612  15.724  14.411  0.1775  0.0312 -0.2565
27433W        W27633   7.310  12.579   9.460 -0.2111 -0.3938  0.1216
27434W        W27634  16.382  14.284   4.839  0.3626 -0.0843  0.1264
27435W        W27635   0.620  16.050  14.637  0.2549  0.0871  0.2183
27436W        W27636   9.250  11.473   8.242 -0.2156  0.1126  0.1020
27437W        W27637  14.376  12.276   1.867 -0.0233  0.1827 -0.0400
27438W        W27638   5.598   2.443  13.235 -0.1335 -0.0713 -0.2899
27439W        W27639   4.646  13.880  15.139  0.1232  0.1309 -0.1847
27440W        W27640  10.819  10.583   8.168 -0.0958  0.2164  0.4259
27441W        W27641   7.720   0.535  16.766  0.2383  0.1834  0.1615
27442W        W27642   9.399  16.920   1.841 -0.1550  0.1693  0.0916
27443W        W27643   4.815  11.556   0.249 -0.2885 -0.1732  0.2688
27444W        W27644  10.482   7.704   9.963  0.1974  0.2654  0.1080
27445W        W27645   2.240  12.748  11.787 -0.2538 -0.0047  0.1450
27446W        W27646  12.607   3.256   6.811  0.1996  0.0256  0.1211
27447W        W27647  16.202  15.701  14.868  0.1854  0.0494 -0.1039
27448W        W27648   9.428  10.896  17.006  0.0996 -0.2870  0.2617
27449W        W27649  16.482  13.363  16.318  0.1322 -0.0621  0.2452
27450W        W27650  13.046  16.255  12.872 -0.0239 -0.2841 -0.0854
27451W        W27651   4.378  10.506  15.742 -0.0936  0.0161 -0.4736
27452W        W27652   7.141   8.239   8.671  0.2604 -0.1264 -0.2361
27453W        W27653  10.628  15.959   4.248  0.2151 -0.0080  0.2692
27454W        W27654   8.709   8.300  13.145  0.2205  0.2223  0.1656
27455W        W27655   2.950   8.880   7.962 -0.2760  0.0066 -0.2319
27456W        W27656  17.184   8.171  11.114  0.0089  0.1128  0.0653
27457W        W27657  10.499  11.469  12.881  0.1495  0.0296 -0.1718
27458W        W27658  12.816   3.157  17.243  0.3016  0.0754 -0.0733
27459W        W27659  18.103  16.139  16.782  0.0383 -0.1562 -0.0597
27460W        W27660   9.461  10.681  12.558  0.3654  0.0894  0.3537
27461W        W27661  13.081  10.005  12.981  0.0839 -0.2276  0.0479
27462W        W27662  15.657   2.003  10.571  0.2194  0.1383  0.0990
27463W        W27663  13.989   7.369  11.388  0.0617 -0.1102 -0.4832
27464W        W27664   7.472   7.697   7.701  0.1197  0.0347  0.0420
27465W        W27665   9.350   8.030   1.281 -0.0606 -0.1917  0.1381
27466W        W27666  18.111  10.167  12.521  0.1141 -0.1837  0.2160
27467W        W27667  13.845  11.671  10.126 -0.2424 -0.0025  0.2988
27468W        W27668  10.195  12.405   0.996  0.2195  0.2801 -0.2268
27469W        W27669   4.120  11.858   0.913  0.1830  0.0103  0.0107
27470W        W27670   8.504   9.220  17.132  0.2087 -0.1718  0.0633
27471W        W27671   6.893  17.418  11.576  0.1652 -0.2013  0.0140
27472W        W27672  16.549   2.741  16.131  0.0202  0.0258  0.0148
27473W        W27673   9.626   4.933  12.886 -0.0192 -0.0180 -0.2329
27474W        W27674  13.223   1.673   0.187 -0.2295 -0.2651  0.1131
27475W        W27675   9.812  13.602  16.131 -0.0180  0.0809 -0.2583
27476W        W27676   6.687  12.673   7.450 -0.0629  0.2945 -0.2835
27477W        W27677  11.405  11.764   4.446 -0.3481 -0.1009  0.0104
27478W        W27678  10.902  17.727  14.056  0.3424  0.3599  0.3601
27479W        W27679   9.864  15.167  14.074 -0.2309  0.2553  0.0872
27480W        W27680   6.691  12.202  12.974  0.0789  0.0711  0.0570
27481W        W27681   8.494   5.949  12.389  0.1255  0.3719  0.1302
27482W        W27682  14.862   7.794  13.274  0.0792  0.0759 -0.0712
27483W        W27683   8.568   8.696  14.418 -0.2426  0.1773  0.0615
27484W        W27684   8.034  16.163  14.789 -0.2304 -0.0585  0.0366
27485W        W27685   6.259  18.188   9.362 -0.0530 -0.0824 -0.1913
27486W        W27686   5.654  13.954  15.168  0.4069  0.2276  0.1614
27487W        W27687   5.690  13.099   0.354 -0.0193 -0.2996 -0.0359
27488W        W27688   7.768  10.337   9.407  0.3877  0.3962 -0.2479
27489W        W27689  13.025  14.636   5.628  0.0055 -0.0883  0.3394
27490W        W27690   0.562  16.974  12.068 -0.0973 -0.0545 -0.2339
27491W        W27691   4.793  13.011   3.017  0.2507  0.1194  0.0665
27492W        W27692  17.204  11.762   7.817  0.1444  0.1456  0.0916
27493W        W27693  11.264  10.824  17.958  0.1374 -0.0153 -0.0965
27494W        W27694   5.978   1.615   3.971 -0.1417 -0.1146 -0.3203
27495W        W27695   7.206  10.507   9.885  0.0312  0.0577 -0.0049
27496W        W27696  16.055  13.378   8.587  0.0267  0.0495 -0.2222
27497W        W27697  11.561  12.970  16.842 -0.1265  0.1132  0.1634
27498W        W27698  10.251  17.176   8.164 -0.2834  0.3054 -0.0045
27499W        W27699  10.179   7.514  13.044 -0.1928 -0.3467  0.0977
27500W        W27700   0.505  11.274   9.801  0.3560  0.1661  0.0256
27501W        W27701  17.777  10.492  10.401 -0.0065  0.2482  0.2641
27502W        W27702   5.652   4.808   9.290  0.1687 -0.0201  0.1091
27503W        W27703   3.885  12.125  16.760 -0.1576 -0.3161 -0.1739
27504W        W27704  13.707  10.850  18.062 -0.2700  0.0777  0.1083
27505W        W27705  14.171  12.725  15.585  0.2588 -0.0699 -0.2053
27506W        W27706   7.633  13.137   9.504 -0.1315 -0.2005  0.0536
27507W        W27707   8.377  10.803   7.542 -0.0916  0.0922  0.0636
27508W        W27708  14.752  12.693   7.841  0.0987  0.0971 -0.0995
27509W        W27709  13.606   3.750  17.199  0.1210 -0.1587  0.2099
27510W        W27710   6.851  13.473  16.659 -0.0930  0.1941  0.0727
27511W        W27711   8.586   9.253   6.076 -0.1204 -0.2815  0.2280
27512W        W27712  15.984  14.903  16.565  0.1909  0.0872 -0.2242
27513W        W27713  13.468  16.254  16.578 -0.2007 -0.1093  0.1925
27514W        W27714   8.985   9.371  12.593 -0.0158 -0.0877  0.0505
27515W        W27715  13.099   9.712   0.500 -0.0283 -0.2496 -0.0072
27516W        W27716   5.784  10.254  12.898 -0.1156  0.1068  0.3500
27517W        W27717   0.001  11.691  18.149  0.0058  0.2909  0.3511
27518W        W27718   8.420  12.184   9.374  0.1220  0.0030 -0.1029
27519W        W27719  16.601   8.178  14.778  0.3125  0.2161  0.0793
27520W        W27720   8.967  12.210   2.842 -0.2974 -0.0470 -0.1884
27521W        W27721   8.012  12.900  17.350 -0.1635  0.0277  0.2263
27522W        W27722   2.024   9.689   7.890  0.0547 -0.0219  0.1050
27523W        W27723   6.097  10.046  13.218 -0.1245 -0.1671 -0.0143
27524W        W27724  13.783  13.855  17.693  0.0878 -0.1203 -0.0614
27525W        W27725   1.514  18.175   8.308 -0.2378  0.0542  0.1334
27526W        W27726   9.984   7.497   5.322 -0.0028 -0.0781  0.1185
27527W        W27727   5.487   0.703  17.095 -0.2247  0.2871  0.1589
27528W        W27728  10.727  16.463  11.115  0.0335  0.1076 -0.1651
27529W        W27729   6.645  17.582  17.581 -0.1686 -0.2178  0.1023
27530W        W27730  12.332  10.159   0.851 -0.2379  0.0633 -0.1052
27531W        W27731   8.929  12.270   9.363  0.1133 -0.0419  0.0622
27532W        W27732  17.087  13.194   3.880 -0.1075 -0.1972  0.0731
27533W        W27733   9.081  11.907  13.463 -0.0017 -0.1243 -0.2327
27534W        W27734   9.540   4.310  17.353 -0.0879 -0.3308  0.1311
27535W        W27735  11.931  11.625   2.554  0.1116  0.0815 -0.3605
27536W        W27736   6.867  14.740  15.690 -0.1420 -0.1131 -0.0657
27537W        W27737   1.059   7.727  12.130 -0.2033  0.0125 -0.1187
27538W        W27738   9.799   6.434   6.768 -0.0189 -0.2979 -0.3543
27539W        W27739  12.524   5.226  11.777  0.1904  0.0863 -0.1073
27540W        W27740   5.312  16.231  12.552 -0.0215  0.0500  0.3246
27541W        W27741   4.964   7.518   0.250  0.3911 -0.1417  0.0819
27542W        W27742  17.577   8.787   0.575  0.0720  0.1411 -0.0877
27543W        W27743   9.245  17.852   5.362  0.1512  0.1495 -0.1808
27544W        W27744  13.453  17.136  14.114 -0.1388 -0.2204 -0.0227
27545W        W27745   5.543   6.161  17.337 -0.0684  0.1539 -0.0485
27546W        W27746   6.467  10.450  13.820 -0.0336 -0.0209  0.1442
27547W        W27747   8.270  17.099  11.957 -0.1016  0.0622  0.4489
27548W        W27748  12.035  14.388   9.462  0.0167  0.0882  0.0115
27549W        W27749  11.209  13.258  17.881  0.1293 -0.0771 -0.2429
27550W        W27750  17.168  17.216  12.070  0.0629 -0.2148 -0.3199
27551W        W27751  13.220  17.285  17.876 -0.0457 -0.0449 -0.3790
27552W        W27752  11.661   4.112   0.466  0.3972 -0.3899 -0.1438
27553W        W27753   6.976   0.322  15.372  0.1095 -0.0368 -0.1932
27554W        W27754   6.165  16.460   8.407 -0.0637  0.1323 -0.1292
27555W        W27755  12.072   1.190  11.923 -0.2170 -0.2737  0.3291
27556W        W27756   9.117  11.249   2.306  0.4666 -0.0017 -0.1517
27557W        W27757   0.307   6.568  13.171  0.1420  0.4388 -0.3363
27558W        W27758   7.131   8.800   8.899 -0.2842 -0.3245  0.1118
27559W        W27759  10.586  15.981  16.679 -0.0322 -0.1868 -0.0483
27560W        W27760  17.738  12.261  12.514  0.0823  0.2822  0.1301
27561W        W27761   8.956  11.711   9.613 -0.0848 -0.0680 -0.1242
27562W        W27762  13.123   7.552  12.560 -0.0628  0.0771 -0.2017
27563W        W27763  17.480   1.391  12.974  0.3209  0.1345  0.0771
27564W        W27764  12.709  10.613   0.380  0.1709  0.0789 -0.1581
27565W        W27765   8.118  13.482   2.421  0.0440  0.3310  0.2189
27566W        W27766  10.308  10.028  13.689 -0.1756 -0.5002 -0.0877
27567W        W27767   8.730   8.675  16.952 -0.2535 -0.1223 -0.1997
27568W        W27768   3.777   0.373  15.340 -0.3435  0.5175  0.0944
27569W        W27769   6.166  10.807   3.087 -0.1981  0.1817 -0.1628
27570W        W27770   6.511   5.938   0.429 -0.2670 -0.0346 -0.0270
27571W        W27771  15.651   8.141   7.902  0.0361  0.0985  0.1441
27572W        W27772   6.929  16.743  12.417 -0.3423 -0.1344  0.1240
27573W        W27773  10.645  14.618  12.168 -0.4656 -0.2844  0.0870
27574W        W27774   9.980   1.258   1.019 -0.1940 -0.0707 -0.1306
27575W        W27775   4.414   1.312  14.680  0.0920 -0.1518  0.2176
27576W        W27776  13.992   0.945  12.243 -0.2059 -0.0389 -0.1154
27577W        W27777   9.573   6.443   7.754 -0.0753 -0.2981  0.2667
27578W        W27778   8.348  15.807  12.699  0.1275 -0.0283 -0.1004
27579W        W27779   7.436   7.180   5.120  0.2110 -0.0527  0.1041
27580W        W27780  12.539  15.468  13.057 -0.4736 -0.1575 -0.1421
27581W        W27781   3.128  13.008  16.219 -0.0381 -0.1078  0.1843
27582W        W27782  14.908   9.744  15.383  0.0489 -0.3579 -0.1904
27583W        W27783  11.744  15.834  12.026  0.1093  0.0514  0.0514
27584W        W27784  10.466   9.219  14.813  0.0924  0.1840  0.1718
27585W        W27785   8.197  10.314  11.224 -0.0300 -0.3747 -0.0005
27586W        W27786   6.878  12.236  17.195 -0.1112  0.4597  0.0145
27587W        W27787   4.664  14.477   7.649  0.2889 -0.1454 -0.0874
27588W        W27788   6.015  14.672   7.138 -0.0038 -0.0724  0.1534
27589W        W27789  14.515  11.646  15.211 -0.0686 -0.0438  0.1329
27590W        W27790  10.034  13.281  14.039 -0.1992 -0.1642 -0.1899
27591W        W27791  11.290   9.853  10.810 -0.1534 -0.0413  0.5667
27592W        W27792   9.945  16.782  14.302 -0.0562 -0.1399  0.2584
27593W        W27793  11.401  12.952  14.127 -0.2576  0.0776 -0.0532
27594W        W27794  14.312   5.098  15.593  0.1329 -0.0707  0.0542
27595W        W27795   7.319  14.823  13.812  0.2106 -0.0563 -0.0110
27596W        W27796  15.643   6.117  14.189 -0.2782  0.0440 -0.2417
27597W        W27797   3.953  16.987  17.398 -0.1206  0.2730 -0.1065
27598W        W27798  14.587   2.267  16.861 -0.1449 -0.0243  0.0736
27599W        W27799   7.386   9.565  10.275  0.1067  0.0757  0.0695
27600W        W27800  10.654  11.940  13.119  0.1792 -0.2126  0.2823
27601W        W27801  13.972  11.920  11.308  0.0866 -0.1268 -0.0005
27602W        W27802   4.937  16.716   9.530  0.0384  0.2161  0.2480
27603W        W27803  11.931  10.173  13.581  0.1986 -0.2498  0.3928
27604W        W27804   9.265  15.310   7.494 -0.1336 -0.1143 -0.2188
27605W        W27805   7.591  14.854  10.776  0.0455 -0.4461  0.0164
27606W        W27806  13.637  16.146  13.138  0.0403 -0.0353  0.1707
27607W        W27807   0.231  10.440  15.484 -0.2596 -0.1328 -0.1319
27608W        W27808   7.678  11.219  16.188  0.0193  0.5090  0.1079
27609W        W27809   8.675   9.514   0.565  0.2389  0.0006  0.1207
27610W        W27810   1.467  12.009  10.380  0.2082 -0.0114 -0.0975
27611W        W27811   8.126  14.328  17.906  0.3376 -0.2916  0.0613
27612W        W27812   7.909   9.687  12.045 -0.1494 -0.0449  0.1489
27613W        W27813   3.744  10.786  11.195  0.0722  0.2740  0.1703
27614W        W27814  10.042  16.624  15.556  0.2140  0.4634  0.3122
27615W        W27815  11.701  16.828  16.778  0.0770  0.0519 -0.2420
27616W        W27816   2.441  11.931  15.738 -0.0968 -0.1007  0.1944
27617W        W27817   9.540   6.314  15.046  0.3101  0.1278  0.0350
27618W        W27818  13.258  15.237   0.421 -0.1717 -0.1497  0.0831
27619W        W27819  11.198   3.959  11.077 -0.1365 -0.4972 -0.0752
27620W        W27820  12.167  13.140   4.190 -0.1669 -0.3449  0.1162
27621W        W27821   2.117   8.202  15.667  0.1440 -0.1689  0.0375
27622W        W27822   1.168  17.056   6.109 -0.3055 -0.0569 -0.1168
27623W        W27823   8.472  16.550   6.602 -0.2857 -0.0958 -0.1403
27624W        W27824  12.901  12.790   9.444 -0.0206 -0.0010 -0.0219
27625W        W27825  11.296   8.967   4.435 -0.1643  0.0696  0.2445
27626W        W27826  10.756  10.245   2.909  0.0111  0.1870 -0.3458
27627W        W27827   4.044  16.618  12.561 -0.0469  0.1310 -0.0507
27628W        W27828  11.575  12.346  10.625  0.1269  0.0116 -0.1955
27629W        W27829  11.123   9.425  15.910  0.1986 -0.3254  0.0697
27630W        W27830   6.916   7.807   8.452  0.3538 -0.2808 -0.5221
27631W        W27831   3.160  15.710  12.632 -0.0584 -0.1146 -0.0126
27632W        W27832   5.443   6.919   1.388  0.2749  0.2625  0.1383
27633W        W27833   6.607   1.829  13.371  0.0473  0.0260  0.4213
27634W        W27834   9.142   7.474  10.827  0.2072  0.1347  0.1181
27635W        W27835  10.357  15.097  15.085 -0.3530  0.0136 -0.1644
27636W        W27836   5.257   7.809   0.780 -0.2059  0.1678 -0.1654
27637W        W27837  13.885  10.093   4.139 -0.0031 -0.0306  0.1516
27638W        W27838  10.655   2.817  12.313 -0.0282  0.0447 -0.0017
27639W        W27839   9.575   9.374   2.227  0.0514  0.1412  0.0794
27640W        W27840  11.755  18.165  13.440 -0.0935  0.3266  0.0667
27641W        W27841   4.482  10.147   3.475  0.1181 -0.2615 -0.0116
27642W        W27842  11.831  14.806   3.155  0.0094  0.0141 -0.2927
27643W        W27843   8.371   8.357  16.226  0.1107 -0.0315  0.0036
27644W        W27844   0.692   5.382  17.414 -0.0529  0.1882  0.1392
27645W        W27845   3.728  12.950  12.755 -0.0584  0.0203 -0.1616
27646W        W27846   8.189  10.899   0.231 -0.1179 -0.0095 -0.0519
27647W        W27847  12.422  10.852  11.413 -0.1660  0.2008  0.3003
27648W        W27848   8.865  11.831  14.851  0.0341 -0.2721  0.0312
27649W        W27849  12.095  12.456   2.072  0.2867  0.2945  0.1230
27650W        W27850   3.935  11.938  14.101 -0.1154 -0.2160  0.1641
27651W        W27851  13.242  10.550  13.109 -0.2495  0.2459 -0.0377
27652W        W27852   5.481  14.951  14.898  0.1428 -0.0751 -0.2329
27653W        W27853   9.771   8.151  18.071  0.0428  0.1695 -0.1248
27654W        W27854  16.814   8.170   0.063  0.3609  0.1186  0.1237
27655W        W27855  13.141  11.493  13.065  0.2754 -0.0414  0.1275
27656W        W27856  15.498   0.040  13.616 -0.3560  0.0045 -0.0850
27657W        W27857   5.547  15.090   0.599 -0.2289 -0.3345  0.6303
27658W        W27858   9.909   8.812  14.979  0.0264  0.0012  0.2650
27659W        W27859   7.124  10.859   2.856  0.0259 -0.1697 -0.1299
27660W        W27860  15.719  13.698   8.145 -0.0224  0.2629 -0.0547
27661W        W27861  10.621  10.212   4.916 -0.0371  0.1711 -0.1141
27662W        W27862   5.878   9.392   6.471 -0.0702 -0.4061 -0.0203
27663W        W27863   4.188  14.863   2.729  0.2127 -0.0492  0.1954
27664W        W27864  17.907  11.821   3.220 -0.3597 -0.2381  0.1870
27665W        W27865  12.140   2.603  15.290  0.0623  0.1267 -0.3735
27666W        W27866  12.036  16.152   3.114  0.1574  0.3081  0.1914
27667W        W27867   6.069   7.758   1.663  0.2315  0.1465 -0.1429
27668W        W27868   8.754  13.525  14.979  0.1183  0.0475  0.0819
27669W        W27869   4.658  14.682  17.350 -0.0197 -0.0142 -0.0905
27670W        W27870   8.624   7.598  15.975 -0.1152 -0.1368  0.1124
27671W        W27871   4.974   7.211   6.137  0.1570  0.0014 -0.0971
27672W        W27872   4.709  11.968   0.446  0.1031 -0.1455 -0.0740
27673W        W27873   5.185  15.915  16.594 -0.1858 -0.0172  0.0536
27674W        W27874  11.707  11.808  14.037 -0.3739  0.3146 -0.0202
27675W        W27875   1.473  11.775   1.902  0.3726  0.2819 -0.1037
27676W        W27876   8.537  13.182  12.312 -0.0174  0.2051 -0.3532
27677W        W27877  10.268  10.504  10.102 -0.1838  0.4276  0.2160
27678W        W27878  12.029  13.749  15.153 -0.1350  0.0314  0.2400
27679W        W27879  15.475   2.118  16.547 -0.1288  0.1477  0.1917
27680W        W27880   5.593  14.219  15.554  0.1756  0.1251  0.1942
27681W        W27881   5.875   5.645  14.866 -0.0518 -0.0241 -0.1462
27682W        W27882  14.563   5.200  11.844  0.0406 -0.2538  0.0508
27683W        W27883  15.343  12.886   4.571  0.0566  0.0971  0.0585
27684W        W27884  13.387   7.174   7.987  0.1571 -0.0511  0.3870
27685W        W27885   7.532  14.643  11.271 -0.2765  0.0422  0.2780
27686W        W27886  12.158   9.813  10.764  0.2117  0.2244  0.3456
27687W        W27887  10.000   8.457  10.382  0.1086  0.2050 -0.1186
27688W        W27888   5.351   6.376  14.102 -0.0306  0.6562  0.3165
27689W        W27889   7.815  16.495  10.723 -0.0866 -0.1482 -0.1765
27690W        W27890  11.088   6.741   4.455  0.2285  0.1970  0.0565
27691W        W27891  11.580  16.023  11.185  0.0701 -0.1075  0.2330
27692W        W27892   0.945   8.472  13.165 -0.0486  0.0702 -0.2176
27693W        W27893  14.559  16.628   3.461 -0.2075 -0.0674  0.1035
27694W        W27894  10.128   7.129  16.547  0.0376  0.2595  0.1991
27695W        W27895   6.306  12.421   4.303 -0.0716 -0.0315  0.0732
27696W        W27896   6.076   2.038   4.571  0.1477  0.3407  0.2032
27697W        W27897   7.674  10.190  16.536  0.1937 -0.0105  0.1409
27698W        W27898  16.794   4.356  14.275 -0.1219  0.1578  0.1869
27699W        W27899  12.488  12.455   2.368  0.1244 -0.0314 -0.2605
27700W        W27900   5.595  12.607  16.365 -0.2477  0.0366 -0.0643
27701W        W27901   6.202  10.493  12.630 -0.1558 -0.0688 -0.0382
27702W        W27902   5.145  16.412  14.419 -0.0770 -0.0609 -0.0980
27703W        W27903  13.991   1.213  17.514  0.1185  0.0299 -0.0317
27704W        W27904   4.475  15.794  18.180  0.1711  0.1149  0.0124
27705W        W27905  12.073  15.400  15.187 -0.1838 -0.1903 -0.2914
27706W        W27906  12.075   9.281   3.642 -0.0338 -0.1171  0.2544
27707W        W27907  12.984  14.226  14.341 -0.3830 -0.0643  0.2479
27708W        W27908  11.227   8.598   9.398 -0.3402  0.1217  0.2462
27709W        W27909   8.306  10.163  15.714 -0.0747 -0.4588  0.1815
27710W        W27910  14.449   1.673  15.479 -0.1013  0.0977 -0.0015
27711W        W27911   0.234   7.865   2.954 -0.1485 -0.0959  0.0522
27712W        W27912  11.004   0.476  16.814  0.2483  0.3663  0.2005
27713W        W27913  13.080   7.375  10.918  0.1205 -0.2470 -0.0326
27714W        W27914  10.216  11.671  15.630  0.0822 -0.3781 -0.1229
27715W        W27915   9.080  12.332   1.700 -0.0244  0.2960  0.1369
27716W        W27916   2.973   6.832  12.238  0.1230  0.1317  0.1353
27717W        W27917   0.180  16.278   5.071 -0.3323 -0.1417 -0.2016
27718W        W27918  12.573   7.895  17.718  0.2689 -0.0621 -0.0013
27719W        W27919  15.761  10.677  15.784  0.3829 -0.3013 -0.0999
27720W        W27920   8.914  13.880  14.088  0.0900 -0.0900 -0.0782
27721W        W27921   5.968  14.906   0.876 -0.0271 -0.1592 -0.0004
27722W        W27922   1.295   9.965  12.198 -0.2449  0.1778  0.1080
27723W        W27923  13.810  16.073   4.871 -0.0769  0.0579  0.2880
27724W        W27924   4.005   5.172   3.904 -0.1848  0.1378 -0.1546
27725W        W27925   4.439   8.671   2.222  0.1681 -0.0457  0.1530
27726W        W27926  10.622  14.713  14.168 -0.0465 -0.0210 -0.0569
27727W        W27927  10.132   8.798  16.459  0.2445 -0.0249 -0.1143
27728W        W27928   6.135  17.204  14.216 -0.1334  0.1074 -0.1541
27729W        W27929   8.001  16.552  14.427  0.1611  0.1233  0.0805
27730W        W27930   9.874  16.548   7.389 -0.4740 -0.1805  0.0158
27731W        W27931   1.788  10.184  14.886  0.1217 -0.1300 -0.0914
27732W        W27932   8.852   7.298  15.604 -0.1817  0.1935  0.3182
27733W        W27933  16.575  13.857  14.604  0.3696 -0.0379 -0.1398
27734W        W27934  15.870   4.885  14.414 -0.0846  0.1558  0.2696
27735W        W27935   3.686   9.120   0.108  0.0020  0.0028 -0.1605
27736W        W27936  17.075   2.725   4.709 -0.2386  0.0764  0.2526
27737W        W27937  11.569  15.168  10.931  0.1326 -0.2277  0.0166
27738W        W27938  12.250  11.874  15.628 -0.1629 -0.3589  0.0918
27739W        W27939   6.180  14.983  14.313  0.3206 -0.1908 -0.1074
27740W        W27940   2.299  14.167   0.904 -0.2780 -0.2484 -0.0540
27741W        W27941   5.178   7.557  16.015 -0.1372  0.1012 -0.2371
27742W        W27942  12.677  16.260   1.235 -0.2133 -0.1542 -0.1903
27743W        W27943  11.345   7.996  16.288  0.1353 -0.1092  0.0536
27744W        W27944  13.640  12.741   5.272  0.2829  0.0416 -0.0929
27745W        W27945   7.527   3.899  11.071 -0.0819  0.1583  0.1255
27746W        W27946   8.838   8.255  15.405  0.0082  0.0826 -0.0418
27747W        W27947   7.639   4.845  16.391 -0.0653 -0.1031  0.1489
27748W        W27948   6.191   0.633   4.298  0.1595  0.0822  0.0475
27749W        W27949   9.956   8.959   5.018  0.3066 -0.0528  0.4052
27750W        W27950  10.311   5.230   5.864 -0.0987  0.0157 -0.1977
27751W        W27951   1.104   3.301   4.431  0.0511  0.2222 -0.2670
27752W        W27952  12.960  10.275   3.662  0.0066  0.1358  0.1048
27753W        W27953   5.823  10.716  12.773 -0.2481 -0.0270  0.2058
27754W        W27954   6.088  15.900  14.422  0.2185  0.1318 -0.2193
27755W        W27955   6.976  10.293   0.149 -0.0892 -0.0226 -0.0809
27756W        W27956  17.592  13.823  17.589  0.2857  0.0432 -0.0047
27757W        W27957  11.805  14.529  13.634 -0.0185  0.0434  0.0906
27758W        W27958   4.206  14.315  16.497 -0.0006  0.0970  0.0121
27759W        W27959   6.036  12.879   5.938  0.1834 -0.1795 -0.2210
27760W        W27960  11.522  12.349  11.652 -0.1475  0.0159  0.4139
27761W        W27961  10.995  15.462  13.153  0.0850 -0.0180  0.2056
27762W        W27962   8.313   5.134  15.119  0.1182 -0.4608 -0.0549
27763W        W27963  13.881   8.829  12.818  0.2285 -0.2419  0.0285
27764W        W27964  15.863  17.861   0.463 -0.0270 -0.0758  0.0306
27765W        W27965  15.673   8.130  16.987 -0.5013 -0.0242  0.2807
27766W        W27966   2.519  12.758   9.935  0.1926  0.0871  0.3081
27767W        W27967   4.366   7.512   0.641  0.0611 -0.2743  0.2096
27768W        W27968  12.819  15.250  17.257 -0.1622  0.2818  0.3411
27769W        W27969  18.193   4.003   2.720 -0.1935  0.0906  0.2086
27770W        W27970  11.124  16.670  13.068  0.1669 -0.2196 -0.0771
27771W        W27971   1.262   8.257  12.549 -0.2169  0.2357  0.0480
27772W        W27972  11.593  10.404   5.093  0.2906 -0.2092 -0.1014
27773W        W27973   3.924   8.003  14.236  0.0320 -0.2596 -0.0064
27774W        W27974   8.940  15.843  11.337 -0.2684 -0.2468  0.1592
27775W        W27975  13.250   7.420   2.107  0.0578  0.0859 -0.0277
27776W        W27976   9.932  11.759  17.077  0.0834  0.1952 -0.2365
27777W        W27977  13.961   6.252   5.137  0.0760 -0.1187 -0.3185
27778W        W27978  16.038  14.755  15.240 -0.3130 -0.1913 -0.0748
27779W        W27979   8.066  10.644  15.857  0.1253  0.1003 -0.1798
27780W        W27980  12.825  13.112  16.061  0.1960 -0.3588  0.2725
27781W        W27981   8.324  11.362   6.806  0.0721 -0.1276  0.2121
27782W        W27982  12.249  13.057   0.433 -0.1271  0.2898  0.0228
27783W        W27983   7.312  15.064   4.349  0.0794  0.1447 -0.0158
27784W        W27984  17.731  16.976  17.231  0.0289 -0.0178  0.3218
27785W        W27985   8.417  16.321   0.529 -0.0686  0.0132  0.3131
27786W        W27986  15.930  11.937  15.569 -0.1369 -0.4528 -0.1412
27787W        W27987   9.903  10.015  14.047  0.0364  0.2118 -0.1871
27788W        W27988   0.772   2.202  12.299 -0.0901 -0.2427 -0.0133
27789W        W27989  11.703  16.833   2.167 -0.1189 -0.1854  0.0936
27790W        W27990   2.212  14.274   9.916 -0.3786  0.0013 -0.3602
27791W        W27991   2.063   9.394  14.116  0.1908 -0.0687 -0.0354
27792W        W27992   8.577  11.438   2.479  0.2289 -0.0786  0.0826
27793W        W27993  14.663  12.260  10.981  0.2064  0.1124 -0.1910
27794W        W27994   8.850  10.259  17.011  0.0854 -0.2906  0.3018
27795W        W27995  12.095  15.660  10.352 -0.1710  0.0649 -0.2065
27796W        W27996  10.109   9.739   0.739  0.1275 -0.0920  0.1541
27797W        W27997   9.858  17.378   4.677  0.4512  0.0060 -0.2262
27798W        W27998  16.932  14.062  15.386  0.0971 -0.1832 -0.1052
27799W        W27999   4.281  17.960   6.493  0.3650 -0.0096  0.3221
27800W        W28000  17.104   9.653   6.413 -0.1332  0.0216 -0.0442
27801W        W28001  10.840   9.483  17.354  0.1999 -0.0384 -0.2375
27802W        W28002   7.260  13.296  12.757  0.1555 -0.0685  0.2977
27803W        W28003  11.078   1.613   7.193 -0.1784 -0.3474  0.0612
27804W        W28004   5.624  11.551   1.578  0.1785  0.2601 -0.0207
27805W        W28005   2.815  12.131  16.196 -0.0665  0.1858  0.3183
27806W        W28006   8.258  12.948  11.261 -0.1174  0.0481 -0.0271
27807W        W28007  12.434  11.219  11.832  0.0688  0.0340  0.1177
27808W        W28008   7.635  10.897   3.063  0.2243 -0.1664 -0.0332
27809W        W28009  12.207  15.217   3.113 -0.0921 -0.0285 -0.3052
27810W        W28010   3.156   7.386  12.134  0.0871 -0.1701  0.0668
27811W        W28011   6.434  13.142  13.114 -0.0250  0.2133  0.0655
27812W        W28012   7.742  10.558  17.929  0.2233 -0.0112 -0.4175
27813W        W28013   6.087  12.473   3.842  0.2555  0.1832 -0.1825
27814W        W28014   9.993  12.469  16.152  0.1652  0.1771 -0.1319
27815W        W28015  12.650  17.131  12.250 -0.1055 -0.0698  0.1024
27816W        W28016   5.656  13.321  15.983  0.1142  0.0129 -0.1113
27817W        W28017  11.579  12.417  16.887  0.1763  0.0049 -0.2541
27818W        W28018   2.368   8.507  15.922  0.0978  0.1901  0.0153
27819W        W28019   4.074   9.938   2.855  0.0995 -0.0931 -0.0030
27820W        W28020   9.682   7.271   1.934  0.0822  0.0919  0.0891
27821W        W28021   3.379  15.840   0.060 -0.0090  0.1200 -0.1214
27822W        W28022  16.314  12.185   0.511  0.4931 -0.0052 -0.1039
27823W        W28023  10.837   1.850  15.655  0.0937  0.0435 -0.0712
27824W        W28024  16.777  11.663   1.903  0.2173  0.4582  0.1176
27825W        W28025   6.545   8.289   1.628  0.2411  0.3469  0.1952
27826W        W28026   5.571   4.049   8.358  0.1645  0.0071  0.0375
27827W        W28027   5.432  12.942  18.142 -0.0562 -0.2023  0.2257
27828W        W28028   3.685  12.152  16.117 -0.1625  0.0137 -0.0436
27829W        W28029   5.304  18.126  16.660 -0.1703  0.1656 -0.3116
27830W        W28030   9.610   4.711   2.296 -0.0068 -0.3476  0.1252
27831W        W28031  11.160   6.648  13.355 -0.0678 -0.0359  0.0268
27832W        W28032  12.964   4.194   0.082  0.0236  0.2151 -0.2601
27833W        W28033   8.084   5.524  14.132 -0.1888 -0.2901 -0.0872
27834W        W28034  17.399   3.807  14.074 -0.1150 -0.0174  0.1712
27835W        W28035   8.890  15.885  12.052 -0.1953 -0.1331 -0.0664
27836W        W28036  10.255   6.497  16.832 -0.0063 -0.2416  0.1894
27837W        W28037   8.535  15.496  16.330 -0.0443  0.1284  0.1045
27838W        W28038  13.460  12.340  16.874  0.3258 -0.0204  0.2205
27839W        W28039  12.111  16.706   3.521 -0.1875 -0.2152 -0.0090
27840W        W28040  16.916  14.795   7.715 -0.0774  0.0185  0.0742
27841W        W28041   7.993   3.422  12.630 -0.2160  0.2349  0.0923
27842W        W28042   6.379  10.688   7.817 -0.1534 -0.1625  0.1244
27843W        W28043  13.858   7.540   1.077  0.1621  0.1224 -0.2514
27844W        W28044   9.300   9.341   9.006  0.3119  0.2493  0.2959
27845W        W28045  12.259   2.515   1.810 -0.1566 -0.1656 -0.0412
27846W        W28046   8.968  10.146   2.679 -0.1712  0.1229  0.2288
27847W        W28047   8.549   3.626  11.802  0.0048 -0.4193  0.3172
27848W        W28048   2.725  16.137  18.044  0.2288  0.0380 -0.2769
27849W        W28049  11.148   2.438   6.850 -0.1471  0.0070  0.0331
27850W        W28050   9.309  15.985   0.306 -0.1488  0.1781  0.2040
27851W        W28051   5.069  11.581  17.926 -0.3372 -0.0218 -0.0799
27852W        W28052   9.533   3.254   6.784  0.1031 -0.0811  0.1352
27853W        W28053   6.521   1.105   3.138 -0.0302  0.0113  0.0493
27854W        W28054  13.237   9.882  18.147  0.0563  0.0627 -0.3159
27855W        W28055  16.370   9.612  17.251 -0.0517  0.1672  0.1187
27856W        W28056   7.566  17.859  14.256 -0.4444  0.1062 -0.1303
27857W        W28057   5.569   9.740   7.180 -0.1463  0.0841  0.0025
27858W        W28058  13.604  14.916   1.404  0.0030  0.3681 -0.2584
27859W        W28059   9.154   4.547  13.430  0.1301 -0.0340 -0.0533
27860W        W28060   3.462  12.677   7.130 -0.1419  0.1234  0.2096
27861W        W28061   8.248   9.603   3.042  0.0966  0.1364 -0.1986
27862W        W28062   8.181   4.924   1.767  0.1521  0.3236  0.2468
27863W        W28063  11.635   6.437  16.061  0.0651  0.0967 -0.0524
27864W        W28064  16.661   7.904  16.265  0.3590  0.0777 -0.3244
27865W        W28065   6.341  16.278  15.762 -0.5462  0.0593 -0.3227
27866W        W28066  15.295  13.441  17.965 -0.2105 -0.0706  0.0056
27867W        W28067   9.952   9.726  11.339  0.0681  0.4145  0.2473
27868W        W28068   6.229   0.474   1.191 -0.1482 -0.0550  0.4317
27869W        W28069   4.951  17.788  14.675 -0.1465 -0.1145 -0.1508
27870W        W28070   9.865   5.806  16.340  0.1388 -0.1172 -0.0844
27871W        W28071  13.098   6.579  14.584 -0.0246  0.0382  0.1392
27872W        W28072   0.260  12.698   8.041 -0.0090  0.1813 -0.1493
27873W        W28073   7.638   8.665   4.171 -0.0127  0.0693 -0.0792
27874W        W28074  12.429  12.836   8.240 -0.0869  0.0663 -0.0294
27875W        W28075  10.433  10.336  17.145 -0.0841 -0.2644  0.0964
27876W        W28076  11.746  14.572  18.187 -0.1382  0.0139  0.0085
27877W        W28077   6.787   0.241   4.346  0.0837 -0.1184 -0.0311
27878W        W28078   6.177  16.646   2.591 -0.0554  0.2455 -0.2320
27879W        W28079   7.113  13.229   0.249 -0.0421  0.1647 -0.0786
27880W        W28080   9.535  10.601  14.607 -0.1348  0.0552  0.1874
27881W        W28081   4.173  16.754  16.018 -0.1601  0.0203 -0.0262
27882W        W28082  12.411  12.739  17.304  0.1152  0.1781  0.2160
27883W        W28083   5.781  11.957  11.256  0.3171 -0.3557  0.1376
27884W        W28084   9.363   9.575  12.311  0.0425  0.2212  0.2478
27885W        W28085   6.504   0.057  15.722  0.0785 -0.1192 -0.2602
27886W        W28086   5.701  16.672  15.375  0.3380  0.2606 -0.1688
27887W        W28087   7.840  15.279  15.190  0.1471  0.0915  0.0713
27888W        W28088  10.585   9.007  16.372 -0.4333  0.1258 -0.0352
27889W        W28089  15.077  17.611  10.874  0.0870 -0.0038 -0.1014
27890W        W28090   9.174  12.004  17.681 -0.2099  0.3326  0.1741
27891W        W28091   7.559  17.496   9.568  0.0895 -0.0669  0.2312
27892W        W28092   8.617  11.288   4.845 -0.1256 -0.0088 -0.2206
27893W        W28093   4.604  14.433  15.080  0.0243  0.0673  0.1866
27894W        W28094   3.063   7.373   3.496  0.1112  0.0652 -0.0502
27895W        W28095  12.714   0.964  17.337 -0.0528  0.2961 -0.1028
27896W        W28096  10.380  14.765  18.070 -0.1622  0.0529 -0.0271
27897W        W28097   6.402  12.267   3.441 -0.0554 -0.1851  0.4235
27898W        W28098  16.922   7.164   4.764  0.3606 -0.0062 -0.1652
27899W        W28099   7.806  12.760  16.666 -0.0040 -0.0032  0.1577
27900W        W28100  15.717   5.870   1.815  0.1353  0.2313 -0.1122
27901W        W28101   6.387  12.540  16.657  0.1181 -0.0297  0.0891
27902W        W28102  14.878  12.813  15.791 -0.1053 -0.1132  0.0602
27903W        W28103  12.275  17.591  15.296 -0.1307 -0.0567 -0.1150
27904W        W28104  16.319   5.104   2.700 -0.0983  0.1783  0.1122
27905W        W28105  13.890   9.658   2.444 -0.0706  0.1938 -0.0583
27906W        W28106   5.291  15.463  14.218 -0.0351  0.1112 -0.0547
27907W        W28107   6.529  17.681  18.155  0.1203  0.2227  0.0722
27908W        W28108   5.273  10.195   7.346  0.0299  0.1001 -0.2436
27909W        W28109   2.658   6.250  12.839 -0.1737  0.3070 -0.3781
27910W        W28110  13.529  11.069   2.035 -0.0891 -0.1727  0.0520
27911W        W28111   7.684   2.111   8.430  0.0757  0.0959 -0.2510
27912W        W28112  12.572  12.476  13.879  0.0656  0.3570  0.0493
27913W        W28113  11.422  11.687  15.865  0.0949 -0.1791  0.0614
27914W        W28114   3.765   4.815  16.787 -0.1162  0.0480 -0.1305
27915W        W28115   8.271   9.792  14.434  0.0680 -0.1654 -0.4038
27916W        W28116   9.622  18.038  16.307  0.2407 -0.1677 -0.1916
27917W        W28117   7.406   3.325  12.387  0.0066  0.1425 -0.3538
27918W        W28118   2.982  10.477   8.881 -0.1676 -0.0405  0.3426
27919W        W28119   7.450  13.446  16.739 -0.0890  0.2875  0.0620
27920W        W28120   5.312   4.179   0.169  0.0899 -0.0535 -0.1326
27921W        W28121  12.460   9.889   4.109 -0.2037 -0.2295  0.0088
27922W        W28122   5.866  10.438  10.125  0.0267  0.1768 -0.0087
27923W        W28123  12.605   2.265  16.574  0.0510  0.2622  0.1886
27924W        W28124  13.630   7.848  17.721 -0.2462 -0.1080  0.2304
27925W        W28125  14.978  18.125   8.888 -0.1293 -0.1353 -0.2073
27926W        W28126  11.367  15.633  18.094  0.1070  0.0551 -0.1462
27927W        W28127   1.050  10.119   6.220 -0.4393 -0.1037 -0.1858
27928W        W28128  10.053  13.626  11.837  0.1177 -0.1676  0.0033
27929W        W28129   6.074  13.347   2.727  0.1093  0.1174 -0.0101
27930W        W28130  12.468  17.687  11.508 -0.0105 -0.0456 -0.1389
27931W        W28131   3.848  11.233  14.807 -0.1664 -0.1059 -0.1966
27932W        W28132   8.973  10.274   1.387 -0.0778 -0.3668  0.0439
27933W        W28133   8.993  14.152  12.903  0.0193 -0.0500 -0.0104
27934W        W28134  14.880  16.946   3.126  0.0632  0.1367 -0.0395
27935W        W28135  10.623  11.930  12.581  0.1824 -0.1170  0.0854
27936W        W28136   9.159  16.356   6.082  0.1289  0.1004 -0.0425
27937W        W28137  12.614  12.896  17.732 -0.0889 -0.3140 -0.2780
27938W        W28138  12.885  15.592  17.654  0.1235  0.0558 -0.2271
27939W        W28139  15.713  13.227   0.020 -0.1825 -0.3202  0.1405
27940W        W28140  10.786  15.346   3.894  0.1700  0.1600 -0.1537
27941W        W28141  12.046   9.966   0.089  0.2446 -0.1051  0.2944
27942W        W28142  10.141  12.836   8.116 -0.1217  0.1854 -0.0864
27943W        W28143  12.659  17.393   4.777  0.2676 -0.0921  0.1181
27944W        W28144   5.778  10.892   0.684  0.1652  0.0151  0.1140
27945W        W28145   6.690   4.724   3.278 -0.0019  0.3214 -0.0510
27946W        W28146   1.484   9.296   8.777  0.1012  0.0435  0.2153
27947W        W28147   7.839  11.083  14.301  0.0617  0.0764 -0.0792
27948W        W28148  12.074  15.061   4.150 -0.2498  0.0035 -0.0166
27949W        W28149   8.517   7.730  10.554  0.2097 -0.0949 -0.1115
27950W        W28150   2.175  11.070  16.734  0.0126 -0.0425  0.1279
27951W        W28151  11.680  15.259   9.113  0.0977 -0.0318  0.0863
27952W        W28152  14.301   3.140  11.498 -0.2287  0.3762 -0.2090
27953W        W28153  13.835  13.453  14.772  0.0165 -0.2975  0.0462
27954W        W28154   3.702   2.812   7.098 -0.0284 -0.0156  0.0543
27955W        W28155   5.624  12.495  15.027 -0.0658  0.1663 -0.1369
27956W        W28156  12.349   0.042   2.575  0.0988 -0.2595 -0.4093
27957W        W28157   7.170   8.484   6.609 -0.0270  0.0593 -0.1753
27958W        W28158  12.694  16.551   7.824  0.0752 -0.1571 -0.0434
27959W        W28159   5.674  15.330   2.556  0.0822 -0.0633  0.0927
27960W        W28160   9.807  16.459   2.422  0.0437 -0.0534  0.4832
27961W        W28161   7.638   8.319   9.464  0.1628  0.2902  0.1646
27962W        W28162  14.581   9.953  12.434  0.1142  0.3684 -0.0476
27963W        W28163  14.217   1.694  17.450 -0.0130 -0.1342 -0.0112
27964W        W28164   0.581  17.094  12.550  0.0008 -0.2299 -0.0578
27965W        W28165   6.096  10.773   7.322  0.0504 -0.0315 -0.2955
27966W        W28166   0.067  12.986  15.307  0.1491 -0.2985  0.2329
27967W        W28167   3.771   2.925  18.002  0.0823 -0.2422 -0.3289
27968W        W28168   6.553   0.061   5.921 -0.0720  0.0012 -0.1465
27969W        W28169   6.990   3.552  14.845 -0.2053  0.0802  0.0411
27970W        W28170   7.466  10.010   8.247 -0.0983 -0.0657  0.0622
27971W        W28171  12.426  16.316  11.113 -0.4441 -0.1211  0.1474
27972W        W28172   5.303   1.148   6.612  0.0153 -0.2341 -0.0028
27973W        W28173   9.078  12.943  13.138  0.2721 -0.0035  0.3487
27974W        W28174   6.402   8.571  13.247 -0.0481  0.0993  0.0219
27975W        W28175   0.407   6.547  10.986 -0.3589  0.1717 -0.2357
27976W        W28176   5.313  14.145  10.314  0.2115  0.0710  0.0882
27977W        W28177   6.645  10.921   3.225  0.1390  0.5057 -0.0135
27978W        W28178   8.105  12.115  16.040 -0.1383 -0.1014  0.0869
27979W        W28179  13.048   9.483  16.226 -0.0448  0.0255 -0.1967
27980W        W28180   3.783   9.515   9.768 -0.1365  0.0193 -0.2461
27981W        W28181   6.850   9.130  16.851  0.1230  0.0343  0.0589
27982W        W28182   4.871  11.574   6.372 -0.1003 -0.2505 -0.0314
27983W        W28183   2.845  13.349   8.433  0.1003  0.2322  0.0686
27984W        W28184  11.292   3.369  16.160  0.2527  0.3122  0.1664
27985W        W28185   6.525  10.697   5.137 -0.2554  0.1339 -0.0463
27986W        W28186   2.608   1.280   2.070  0.2307  0.1430 -0.0121
27987W        W28187  11.117  11.716   3.315  0.5467 -0.0150 -0.0160
27988W        W28188   6.867   9.876  15.503 -0.3830  0.0478 -0.1855
27989W        W28189   3.471  13.892  16.534  0.1639 -0.0043  0.2738
27990W        W28190   7.280  18.182   0.597  0.2114  0.0926  0.0289
27991W        W28191   1.269  16.872   4.373  0.0148 -0.0036 -0.3996
27992W        W28192  12.319  10.441  18.188 -0.2355 -0.0137 -0.0156
27993W        W28193   5.928  11.826   5.605  0.3037 -0.0327 -0.1311
27994W        W28194   2.429   7.618  14.011 -0.0788 -0.0850  0.1730
27995W        W28195   5.690  13.071  15.008  0.4861 -0.2029  0.0714
27996W        W28196   1.225  13.710   4.870 -0.0082 -0.2216  0.0679
27997W        W28197  10.305  16.490  14.543 -0.0815  0.4012  0.0204
27998W        W28198   3.558  12.358   3.694 -0.0415 -0.1438  0.1661
27999W        W28199   9.276  15.685  17.940 -0.1438 -0.0377  0.0232
28000W        W28200   9.972   5.737  12.834 -0.0575  0.1563  0.1933
28001W        W28201   0.148  13.838   8.927  0.1018  0.0571 -0.0640
28002W        W28202   6.101   5.224  17.121  0.1622  0.0374 -0.0668
28003W        W28203   9.946  10.921  11.787 -0.0768  0.0619  0.0456
28004W        W28204   7.245  11.083  18.147  0.1105  0.2039  0.0725
28005W        W28205  10.409   9.669  15.195 -0.0760 -0.2380  0.0039
28006W        W28206   9.831  12.303  12.591  0.0891 -0.0703  0.0506
28007W        W28207  13.431   5.527   6.132 -0.0398 -0.2120  0.2208
28008W        W28208  14.411  16.594   6.908  0.2506 -0.0740 -0.0427
28009W        W28209  11.012  16.475  15.798  0.4629  0.3076  0.1034
28010W        W28210  17.786  17.163   2.054  0.0674 -0.2841  0.0446
28011W        W28211  12.117  15.703   0.554 -0.0639  0.1263  0.1291
28012W        W28212   9.769  12.654   4.881  0.1176 -0.0042  0.0311
28013W        W28213   6.237  14.069  14.640 -0.1826  0.1582 -0.0065
28014W        W28214   9.413  16.061  17.571 -0.0453  0.2333  0.1969
28015W        W28215   1.933   2.334   5.029 -0.2342 -0.0970  0.4203
28016W        W28216  12.886  12.872   2.502 -0.1071  0.0852  0.0856
28017W        W28217   5.253   9.044   4.445  0.1391  0.0185  0.0559
28018W        W28218  12.066  15.632   8.828 -0.1458  0.1095 -0.2623
28019W        W28219  13.384  17.649   2.486 -0.1170 -0.1589  0.3495
28020W        W28220   8.272   6.604  15.906 -0.3135 -0.0489  0.0914
28021W        W28221   7.018  11.542   2.382  0.1761 -0.2762 -0.1580
28022W        W28222  11.897   3.751  13.834  0.0788  0.0717 -0.2026
28023W        W28223   7.495   1.008   7.263  0.1558 -0.2319 -0.1041
28024W        W28224   9.923  13.307  15.173 -0.1080  0.2810  0.1127
28025W        W28225   1.989  15.806   2.476  0.1631 -0.2201 -0.0033
28026W        W28226   2.263   6.505   5.421 -0.0269 -0.1144 -0.0043
28027W        W28227  11.068  12.201   6.076  0.1545 -0.2701  0.1883
28028W        W28228  16.108  14.137   5.505  0.1610 -0.0313 -0.4006
28029W        W28229   7.933  13.870   0.813 -0.2245  0.0383  0.1537
28030W        W28230   9.714   2.338   6.566  0.0853 -0.1550  0.2839
28031W        W28231   6.791  18.176   5.406 -0.0044 -0.2286 -0.1825
28032W        W28232   9.220  14.457   4.177  0.1201  0.1544  0.0877
28033W        W28233  13.789  14.852   0.101  0.2188 -0.3242 -0.1245
28034W        W28234   3.053   2.100   1.668 -0.1489  0.0510  0.3039
28035W        W28235   5.378   8.959  13.211 -0.1567  0.2849 -0.0756
28036W        W28236  12.108  16.115   1.514  0.0790  0.5542 -0.1651
28037W        W28237  10.979  17.693   3.595  0.1605  0.1802  0.3947
28038W        W28238  10.459  15.708  11.347  0.0682  0.1313  0.1153
28039W        W28239  10.729  14.185   3.774  0.2444 -0.0778 -0.0900
28040W        W28240   6.602  17.721   0.999  0.0468 -0.1999  0.0192
28041W        W28241   2.100  17.554   6.989  0.0102  0.2075  0.0563
28042W        W28242   9.894   4.948   2.004 -0.3621  0.0853  0.1274
28043W        W28243  13.993  12.165  17.642 -0.0532 -0.2163  0.1320
28044W        W28244   8.079   6.279   8.413  0.0170 -0.2886 -0.2279
28045W        W28245  11.503  15.563   3.462 -0.0868 -0.2532  0.0624
28046W        W28246   2.573   0.867   1.433 -0.1508  0.2724  0.0360
28047W        W28247   0.882  17.488   9.125 -0.3279  0.2559 -0.2163
28048W        W28248   8.200  16.670  15.593 -0.0500 -0.0918  0.4213
28049W        W28249  14.315   0.274  17.932  0.0310  0.2520  0.3420
28050W        W28250  12.357   2.996  13.512 -0.1895 -0.1588 -0.2567
28051W        W28251  12.382  11.917  16.619 -0.0732 -0.0614  0.2624
28052W        W28252   2.622   4.691   8.915  0.0839  0.0984  0.0204
28053W        W28253  10.002   2.897   6.027 -0.0129  0.0268  0.0499
28054W        W28254   6.328  10.419   1.855  0.3437 -0.0328 -0.0191
28055W        W28255  12.570  14.883  18.002 -0.1286  0.1377 -0.3691
28056W        W28256  12.987  15.377   5.744  0.2108 -0.1547  0.1103
28057W        W28257  17.949  14.102   2.062 -0.0045  0.1985 -0.1074
28058W        W28258   5.468   1.318   2.847  0.1681  0.0248  0.1380
28059W        W28259  11.932   1.822   1.086 -0.0167  0.2548  0.1093
28060W        W28260   9.376  15.549  16.040 -0.0448 -0.1429  0.1672
28061W        W28261  10.286  13.555  17.807 -0.1200  0.1701  0.2135
28062W        W28262   4.310   4.840  15.303  0.0814 -0.1601  0.0258
28063W        W28263   9.527  12.987   1.409  0.1664 -0.4111  0.2632
28064W        W28264  14.923  12.809  18.123  0.0793  0.1309 -0.1790
28065W        W28265  16.418   2.810  13.577 -0.2270 -0.0044 -0.0403
28066W        W28266   9.543  18.121  17.514  0.2506 -0.2658 -0.0802
28067W        W28267   5.502  14.224   2.722  0.1321 -0.1876 -0.2509
28068W        W28268  13.937   0.165   5.280  0.3373  0.3841 -0.0322
28069W        W28269  12.946   2.784  18.003 -0.0700 -0.1790 -0.0907
28070W        W28270   5.121   2.422  13.437 -0.4382  0.0773  0.2679
28071W        W28271  12.984  13.336   6.381 -0.0390  0.0200 -0.2370
28072W        W28272  14.571  14.288  18.107  0.0134  0.1940  0.0216
28073W        W28273  13.582  10.146  13.088 -0.0149  0.1470 -0.3514
28074W        W28274   5.026   5.136   5.059 -0.0691 -0.2130  0.1844
28075W        W28275  11.425   1.444   1.154  0.4194  0.0878  0.3895
28076W        W28276  17.594   3.513   2.220 -0.0053 -0.1162 -0.0585
28077W        W28277   8.302  16.077   2.850 -0.1035 -0.1406  0.1305
28078W        W28278  12.289  11.479  17.361 -0.1921 -0.2495  0.0442
28079W        W28279  10.315  14.663  15.342 -0.0528  0.0555 -0.0613
28080W        W28280  17.158   4.484   0.395  0.2113  0.0501  0.3776
28081W        W28281  16.360   0.079  17.380 -0.1557  0.1925 -0.2627
28082W        W28282   4.335   4.337   3.843  0.3418  0.0212 -0.1118
28083W        W28283   5.183  12.210   6.655 -0.1758  0.1735 -0.0300
28084W        W28284  11.854   0.357   6.469 -0.0549  0.2163 -0.0876
28085W        W28285   8.488  17.146  12.608  0.0052 -0.3581 -0.5044
28086W        W28286   4.226  17.386   1.899  0.3214  0.1598 -0.0944
28087W        W28287   8.920  14.220   3.832 -0.1197 -0.1406 -0.1383
28088W        W28288   7.455   2.703  12.652 -0.1893  0.2479  0.2584
28089W        W28289   6.730  13.113  15.473  0.1001 -0.0229 -0.2160
28090W        W28290   4.666   2.065   2.819 -0.0229  0.0368 -0.1756
28091W        W28291   7.473  12.182   1.999 -0.0224 -0.1504 -0.2569
28092W        W28292   6.713  14.474  17.585  0.0491 -0.0088 -0.3051
28093W        W28293   7.185   0.076   6.584  0.1154 -0.0060  0.0431
28094W        W28294   5.026  17.672   1.938  0.0702  0.2075 -0.0444
28095W        W28295  17.512   8.438   6.159 -0.1646 -0.2400 -0.1909
28096W        W28296  13.727  13.431   9.544  0.2511 -0.0758 -0.0984
28097W        W28297   6.803  14.274  15.355  0.1839  0.0961 -0.1215
28098W        W28298  12.770  11.296   2.629 -0.2933 -0.4959 -0.1844
28099W        W28299   7.026   9.373   2.371  0.0806 -0.2703  0.0030
28100W        W28300   4.679  15.674  17.267  0.0652  0.0729 -0.0903
28101W        W28301   6.077  10.943   9.113  0.1670 -0.0734  0.0078
28102W        W28302   9.819   2.404   2.818 -0.3530  0.4276  0.0566
28103W        W28303  14.030   0.775   2.923 -0.0921  0.1325 -0.0642
28104W        W28304  10.894   7.032   7.217  0.1400 -0.2719  0.0625
28105W        W28305  11.703  11.426  15.015  0.0549  0.1725  0.3145
28106W        W28306  11.974  13.711   5.386 -0.1458  0.2132  0.0850
28107W        W28307   7.855   5.988  12.296 -0.0832 -0.1319 -0.1554
28108W        W28308   3.394  17.178   9.079 -0.0724 -0.2044  0.1550
28109W        W28309   3.451  10.872   1.515 -0.1120 -0.0126  0.1591
28110W        W28310  11.578   2.940   3.589  0.0233  0.2049 -0.2262
28111W        W28311  13.797  15.152   0.721  0.0609 -0.1547  0.1368
28112W        W28312  17.515   1.295   2.375  0.0375 -0.0019  0.1041
28113W        W28313   8.209  16.567  12.151 -0.2609  0.0137 -0.0418
28114W        W28314   3.592  12.458  12.154 -0.1195 -0.0946 -0.1044
28115W        W28315   0.553  15.486   6.537 -0.2509 -0.0047  0.1288
28116W        W28316   9.138  14.737   2.982  0.0846  0.0829 -0.0242
28117W        W28317   7.405  17.984  12.569 -0.0172 -0.1933 -0.5267
28118W        W28318  10.675   0.025   0.978  0.2879  0.0250 -0.0040
28119W        W28319  16.852   0.178   4.992 -0.1039  0.1278  0.1139
28120W        W28320   1.717   7.372   2.726  0.0893  0.0899 -0.0035
28121W        W28321  16.622   0.229   5.530  0.1775  0.0650 -0.0125
28122W        W28322  15.016  17.003  16.610  0.0153 -0.0818 -0.0825
28123W        W28323  12.226  11.713  11.209 -0.0574  0.1050  0.0994
28124W        W28324  10.947  14.874   0.032 -0.2976  0.0046 -0.1834
28125W        W28325   5.572  16.914   0.229  0.1902  0.1926  0.0047
28126W        W28326   3.725  16.301   0.675 -0.1018 -0.3080  0.2477
28127W        W28327  12.195  18.032  17.289  0.1150 -0.2250  0.1338
28128W        W28328  13.329   8.503   3.531 -0.3092  0.2126  0.4003
28129W        W28329   7.592   4.081  16.885  0.1705  0.1833  0.0601
28130W        W28330   5.089  12.706  13.742  0.0386 -0.0769 -0.1629
28131W        W28331   1.839  15.193  12.027 -0.0726  0.1583  0.0108
28132W        W28332  14.340  14.297   4.667 -0.2352 -0.1147  0.2153
28133W        W28333   3.129  13.893  14.060  0.4244 -0.0088 -0.0251
28134W        W28334   9.483  17.815   9.905  0.1668 -0.1587 -0.0558
28135W        W28335  15.538  13.534   8.658  0.0534  0.1992  0.3436
28136W        W28336   9.433   2.339   0.141  0.1791 -0.1348 -0.1662
28137W        W28337   9.499   9.105  12.215  0.2099 -0.0928  0.3003
28138W        W28338   7.266   9.489   0.320 -0.4093 -0.1859  0.1025
28139W        W28339   9.982   3.345  17.272 -0.0563 -0.0554  0.0762
28140W        W28340   9.150  18.142   3.261 -0.2427  0.1381  0.1350
28141W        W28341   5.361   7.980   9.137 -0.3693 -0.1695 -0.0768
28142W        W28342   3.411  11.030  11.531  0.3049 -0.1114  0.4120
28143W        W28343   8.240   2.296   3.078  0.0207 -0.1233  0.4032
28144W        W28344  12.812  13.073   3.914 -0.1527  0.2075 -0.2590
28145W        W28345  12.065   2.849   0.347  0.0713  0.1688 -0.3727
28146W        W28346  13.402   9.701   4.000  0.1496 -0.1963 -0.0748
28147W        W28347  10.770  17.731   4.953 -0.1358  0.5269  0.2470
28148W        W28348  14.911   1.401   2.356  0.0978  0.0558  0.3096
28149W        W28349   4.428  15.060   9.743 -0.0110  0.0437 -0.0440
28150W        W28350  15.435   3.392   5.057 -0.0974  0.3801  0.0540
28151W        W28351   2.093   4.608   1.737 -0.3064 -0.0038  0.0504
28152W        W28352   3.503   5.291   0.450  0.0920  0.1399  0.1168
28153W        W28353   5.852   4.253   5.852  0.0944 -0.1799  0.2043
28154W        W28354  11.733   4.117   6.541 -0.1535 -0.2860  0.0784
28155W        W28355  10.839   3.804  14.429  0.0222 -0.0855 -0.0973
28156W        W28356  14.159   7.690   8.275 -0.2743  0.1423  0.2073
28157W        W28357  15.231   8.932   1.891  0.0550  0.2558  0.0283
28158W        W28358   6.728  12.340  15.849 -0.4601  0.1091  0.1226
28159W        W28359  10.902  13.262  14.260 -0.2385 -0.0155  0.4117
28160W        W28360   9.666  17.217   8.021 -0.1455  0.2658 -0.1057
28161W        W28361   6.295  14.453   5.162 -0.1587 -0.2754  0.3399
28162W        W28362   7.811  12.165   0.929 -0.1335 -0.2939 -0.3146
28163W        W28363   6.305   3.255  12.405 -0.1173  0.1249  0.0612
28164W        W28364   8.866  10.103   0.915  0.1849 -0.3194  0.0581
28165W        W28365   5.223  16.565  11.658 -0.2873 -0.0573 -0.2260
28166W        W28366   3.287   6.845   6.706  0.2044  0.2324  0.2353
28167W        W28367  17.624  15.955  18.053 -0.0495 -0.1464 -0.1176
28168W        W28368  14.925  12.565   4.408  0.0185 -0.1622 -0.0760
28169W        W28369  18.150   3.202   4.749  0.3496  0.1534 -0.0175
28170W        W28370  11.405  15.696   4.838 -0.2864 -0.2741 -0.1860
28171W        W28371   3.677  12.736   5.931 -0.1605 -0.1312 -0.0986
28172W        W28372   6.287  13.510   5.962  0.2436  0.0190  0.0430
28173W        W28373   1.873   1.039   2.786  0.0201 -0.1249  0.0873
28174W        W28374   8.580  16.096   2.037  0.0308 -0.3192 -0.3986
28175W        W28375  15.700   1.216  10.481 -0.2933 -0.0587 -0.1416
28176W        W28376  12.916  14.707   8.174  0.0342 -0.0394  0.1789
28177W        W28377  14.649  16.875   4.248  0.0737  0.0877 -0.0714
28178W        W28378   6.096   9.172   4.499  0.1521  0.0025 -0.0156
28179W        W28379  12.904   5.696  15.551  0.2277  0.0190 -0.4449
28180W        W28380  12.664   2.371   6.652  0.0096  0.0668  0.3430
28181W        W28381  10.761   5.570  14.005  0.0316  0.1665 -0.1111
28182W        W28382  10.190   1.287  13.909 -0.0140  0.0962 -0.1443
28183W        W28383  13.869  17.130   8.647 -0.1166 -0.0705 -0.0842
28184W        W28384  12.365  14.983  13.112  0.1186  0.0370  0.1783
28185W        W28385   9.499  15.618   0.634  0.1649  0.3232  0.0338
28186W        W28386   6.427  13.526  16.431  0.1490 -0.0322  0.0936
28187W        W28387  11.715   9.237  15.822 -0.0970 -0.0979 -0.3225
28188W        W28388   9.161   1.050   0.136  0.1118  0.1146 -0.0011
28189W        W28389  10.349   0.825   3.630  0.2769  0.2803  0.2386
28190W        W28390   9.434   5.559   8.353  0.3237  0.1007 -0.5714
28191W        W28391   8.314   1.493   1.711  0.0940  0.0618 -0.0723
28192W        W28392   2.116  12.139   5.815 -0.3087  0.0337 -0.4926
28193W        W28393   2.837   7.558  13.052 -0.0925 -0.3355 -0.1780
28194W        W28394   3.767  15.360  11.783 -0.0383 -0.1371  0.0640
28195W        W28395  17.323  11.359  14.652 -0.0696  0.0875  0.1697
28196W        W28396   7.070  13.799  12.682  0.2170 -0.1174 -0.2864
28197W        W28397  14.909  15.736   4.325 -0.2477 -0.0322  0.2752
28198W        W28398   9.975   1.149  13.027  0.2732 -0.1908  0.0672
28199W        W28399   3.481   9.230   0.617  0.0002  0.1792  0.2463
28200W        W28400   7.733   0.220   3.730  0.3121 -0.1983 -0.0496
28201W        W28401   2.280  17.354  15.761  0.4183  0.1849  0.0926
28202W        W28402  14.819  11.086   1.241 -0.0085 -0.2676 -0.1226
28203W        W28403  13.473   8.734   2.496 -0.0515 -0.2764  0.0981
28204W        W28404  15.262   9.132   6.139 -0.1923 -0.0560 -0.0375
28205W        W28405   6.568  12.684   3.746  0.3816  0.1153 -0.1130
28206W        W28406   2.915   9.246  17.814 -0.2190  0.0037 -0.1158
28207W        W28407   6.431  17.192   6.017  0.2114  0.2312  0.0735
28208W        W28408  12.733   8.896   5.541 -0.0558  0.2093 -0.0954
28209W        W28409   5.598  17.114  15.681 -0.0157 -0.4214  0.4179
28210W        W28410  11.962  17.928   2.642  0.1385 -0.1720 -0.0348
28211W        W28411  17.390  14.634  10.564 -0.0528  0.2021  0.0252
28212W        W28412  15.736  15.245   3.526  0.1144 -0.0696 -0.1433
28213W        W28413   7.622   3.312   7.226 -0.2306 -0.2361  0.4521
28214W        W28414   3.417   5.347   2.399 -0.0337  0.0874 -0.0746
28215W        W28415   9.774  16.656   5.128  0.0127  0.0059  0.2253
28216W        W28416  13.199   3.903  11.582  0.1981 -0.1403 -0.2586
28217W        W28417   0.466   0.914   1.908  0.0436  0.0319 -0.3328
28218W        W28418   3.183  15.676   0.836  0.0398 -0.0846 -0.4491
28219W        W28419   8.490   0.099   4.886  0.1136  0.2130 -0.3082
28220W        W28420   9.544  12.554  15.782 -0.1666 -0.0569 -0.1851
28221W        W28421  17.593   0.652  14.538 -0.2591 -0.1721 -0.0040
28222W        W28422  15.575  11.193   5.055 -0.1219 -0.0876 -0.1019
28223W        W28423   8.346  16.603   7.679  0.1822 -0.4304  0.0795
28224W        W28424   4.282   3.460  14.592  0.2736  0.1470  0.0242
28225W        W28425  15.629   3.828  10.868  0.1011 -0.0806  0.1106
28226W        W28426   5.049  10.058  16.747 -0.1337 -0.3791 -0.2424
28227W        W28427  10.615  17.204  13.130  0.0028  0.0671 -0.1144
28228W        W28428   7.443  15.778  13.175  0.2197 -0.3778  0.0462
28229W        W28429  18.112  16.730   4.661  0.0868  0.3613  0.0819
28230W        W28430  10.985  14.753   3.174 -0.0548  0.1232 -0.0351
28231W        W28431  11.473  13.268   1.041 -0.3639  0.1726  0.0564
28232W        W28432  14.965  13.489   0.170 -0.0744 -0.0675  0.2252
28233W        W28433   9.181   8.849  17.121  0.1664 -0.1827 -0.1481
28234W        W28434  11.020  10.058   3.281 -0.1922 -0.0219 -0.3435
28235W        W28435   2.302  10.203   2.586  0.0493 -0.5177 -0.3138
28236W        W28436   3.004  16.646   1.369 -0.0968 -0.1219  0.3954
28237W        W28437   3.767  17.421   5.746  0.0058 -0.0783  0.3038
28238W        W28438  13.352  14.571   1.680 -0.4169 -0.1615  0.1249
28239W        W28439   1.544   2.869   0.305  0.2793 -0.1782 -0.1745
28240W        W28440   2.559  13.848   8.873 -0.2520 -0.4139  0.0918
28241W        W28441   8.860  16.528   0.684  0.1153  0.1058 -0.0402
28242W        W28442   9.779   0.598  14.235 -0.2215  0.3534  0.0965
28243W        W28443   3.492   9.515   8.113  0.1133 -0.0569 -0.1569
28244W        W28444   6.595  13.155   1.513  0.2773  0.1794  0.4658
28245W        W28445   4.543  12.404  17.788  0.0965  0.1321  0.0235
28246W        W28446  15.664   0.157  16.071 -0.1029 -0.4680  0.4727
28247W        W28447   3.738  14.300   2.075  0.2489 -0.0204  0.0586
28248W        W28448   6.182  12.577  14.305 -0.0192 -0.0911  0.0508
28249W        W28449  12.426   3.665   5.335  0.3104  0.1073  0.0635
28250W        W28450   3.336   4.380   5.063  0.1620  0.1965 -0.1611
28251W        W28451  12.960  13.413  15.011  0.2396  0.2100  0.0559
28252W        W28452  16.993   1.330   2.244  0.1168 -0.1348 -0.1354
28253W        W28453   3.274   0.668   2.255  0.3247  0.0363 -0.3401
28254W        W28454   8.638  12.945   0.490  0.2290  0.1275 -0.0516
28255W        W28455  11.130  17.991  14.393 -0.0376  0.0491 -0.1197
28256W        W28456   6.409   9.714   1.201  0.1127 -0.1057 -0.0339
28257W        W28457   6.553   0.073   0.036  0.2440 -0.3820 -0.1276
28258W        W28458   5.215  11.731   7.179 -0.2227 -0.2924  0.0710
28259W        W28459   5.315  11.129   1.500  0.1251 -0.2758 -0.1505
28260W        W28460   6.071   3.208  14.873 -0.1212  0.0158  0.0229
28261W        W28461  17.348   0.095   5.096 -0.2275  0.0791  0.0516
28262W        W28462   8.810  12.324   4.482  0.0295  0.0839  0.0385
28263W        W28463  13.107   4.206   3.871  0.1624  0.1043 -0.1820
28264W        W28464  17.892  16.994  10.828 -0.4275 -0.2568  0.1582
28265W        W28465  12.476   0.691  17.741  0.5926  0.4252  0.0448
28266W        W28466   0.945  15.676  16.193 -0.1432  0.2867 -0.2047
28267W        W28467   1.165  16.944   0.785 -0.0695  0.0124 -0.0334
28268W        W28468  10.979   3.857   2.083 -0.4128  0.0330 -0.1185
28269W        W28469   5.113   0.867   6.296 -0.0066 -0.0028 -0.2423
28270W        W28470  11.010  17.621   8.443 -0.0877 -0.3466 -0.4788
28271W        W28471  10.816  14.353   6.984 -0.0251  0.0086 -0.0828
28272W        W28472   8.205  15.297   0.591 -0.2757  0.2257 -0.2368
28273W        W28473   1.428   2.878  17.920 -0.0711  0.1328 -0.2391
28274W        W28474  14.127  12.173   3.709  0.1984 -0.0842 -0.0338
28275W        W28475  16.233  16.510   5.395  0.0361 -0.1247 -0.0631
28276W        W28476   5.596  13.966  11.348  0.0459  0.0749  0.2594
28277W        W28477   1.849  15.344   4.925  0.2677 -0.2108 -0.0937
28278W        W28478   2.789   8.401   3.883  0.2342  0.0716  0.1326
28279W        W28479   2.042  10.109   0.781  0.1802 -0.1345  0.0724
28280W        W28480   9.829   3.379  15.387 -0.1604 -0.2406 -0.1465
28281W        W28481  10.092   4.714   8.538 -0.1842 -0.0319 -0.3116
28282W        W28482   4.819   3.398  17.350 -0.0136  0.0033  0.0459
28283W        W28483   8.601  16.059   0.991 -0.2280 -0.0790 -0.0302
28284W        W28484   6.333  17.407  16.789  0.2710 -0.1100  0.1131
28285W        W28485   8.944   7.010   9.740 -0.0887 -0.1361 -0.1094
28286W        W28486  10.282   1.478  17.117 -0.2522 -0.1112  0.1163
28287W        W28487  10.808   2.133   6.476 -0.4587  0.1088 -0.0696
28288W        W28488  12.074  15.723   1.839  0.1030 -0.0089 -0.1754
28289W        W28489   6.432  15.789   1.442  0.3342 -0.3276  0.0617
28290W        W28490   6.462   2.344   4.444  0.0299  0.0889  0.1699
28291W        W28491  16.512   7.929   4.795 -0.0170 -0.0853 -0.2900
28292W        W28492  16.028  15.792   4.097  0.3389  0.2012 -0.2187
28293W        W28493   7.611  14.555   6.649 -0.1889 -0.1160 -0.0776
28294W        W28494  12.760  14.322   3.949  0.1727 -0.1736  0.3491
28295W        W28495   9.721   8.827  18.009  0.1172  0.4575  0.1943
28296W        W28496  17.127  12.254   0.373  0.1326  0.1488  0.0745
28297W        W28497   1.263   0.278   5.054  0.4286 -0.2274  0.0786
28298W        W28498  10.959  16.356   7.765 -0.0349  0.2208  0.0152
28299W        W28499  10.508  16.120   4.785  0.2950  0.5042  0.1802
28300W        W28500   7.819  17.501  13.883  0.2492  0.0103  0.0789
28301W        W28501  10.839  18.004   3.991 -0.1423 -0.1896 -0.1488
28302W        W28502   4.306  14.647   2.278 -0.1622  0.0282 -0.0287
28303W        W28503   9.058   5.659  18.113  0.1139  0.2079 -0.2572
28304W        W28504  13.295  11.068  13.296 -0.0214  0.0169 -0.1635
28305W        W28505   9.514   1.830   3.140  0.2291 -0.3484  0.0902
28306W        W28506   3.959  10.411  16.128  0.0673 -0.2155  0.0953
28307W        W28507  17.262  11.337   6.897  0.2743  0.2194  0.0691
28308W        W28508   5.649  15.691   3.016  0.0545  0.2294 -0.0082
28309W        W28509  14.147  14.086  16.230  0.0852 -0.0580 -0.1836
28310W        W28510  12.936  12.071   0.948 -0.1440 -0.0811  0.2071
28311W        W28511  10.298   6.284   3.852 -0.0674 -0.0489 -0.0098
28312W        W28512   8.960   5.317   9.081 -0.1362  0.1539 -0.2865
28313W        W28513   8.597  11.703   3.716 -0.0656  0.2907  0.0124
28314W        W28514  10.706  17.728   2.428  0.0710 -0.2882 -0.1508
28315W        W28515   3.157   1.427   7.580 -0.1696 -0.1347 -0.0416
28316W        W28516  11.055   4.335  16.000 -0.0701  0.0172  0.4089
28317W        W28517   7.909  12.020   1.400 -0.1774 -0.4614  0.1236
28318W        W28518  13.590  15.557  13.380 -0.2525  0.3188 -0.2459
28319W        W28519   5.465   7.948   1.224  0.0833  0.4501  0.1994
28320W        W28520   5.405  10.262   0.207  0.0364 -0.0167  0.0728
28321W        W28521   3.510  14.594   1.270  0.1206 -0.0476  0.0733
28322W        W28522  11.632  13.482   7.685  0.0533  0.0260  0.0484
28323W        W28523   8.249   8.963   1.687 -0.2226  0.0302 -0.1452
28324W        W28524  17.017  14.232   6.224  0.1995 -0.0746  0.1270
28325W        W28525   4.216  13.465   4.858 -0.1350 -0.1711  0.2015
28326W        W28526  12.891   5.086   0.970  0.4462 -0.1072 -0.0087
28327W        W28527   6.704  16.045  16.520 -0.0446  0.1349  0.0769
28328W        W28528   5.807  12.887  14.142  0.0068  0.1880  0.0261
28329W        W28529  10.343   2.465  16.808 -0.0155 -0.2202  0.2206
28330W        W28530  12.070  13.081   5.288 -0.0034  0.0543  0.0880
28331W        W28531   6.963  16.161  17.607  0.4245 -0.1368 -0.0849
28332W        W28532   1.337  10.723   4.165  0.2044  0.1061 -0.2054
28333W        W28533   8.368  13.648   3.245 -0.3236  0.2262 -0.1115
28334W        W28534  10.212   4.670  17.791  0.2757 -0.0996 -0.0366
28335W        W28535   9.880   7.520  15.634  0.0025  0.4012  0.3851
28336W        W28536   8.296  16.245   5.101  0.3938  0.2170 -0.1801
28337W        W28537  13.446  17.036   2.727 -0.0482  0.2996  0.3257
28338W        W28538  12.271   5.404  10.481 -0.0711  0.0144 -0.4812
28339W        W28539   1.754  18.151   1.281 -0.3271 -0.2236  0.1225
28340W        W28540   3.007   8.641   5.893 -0.6195  0.2203 -0.1762
28341W        W28541   9.895  15.928  17.372  0.1462  0.2214  0.0007
28342W        W28542  11.177  16.762  18.103 -0.0680 -0.2683 -0.2432
28343W        W28543   8.968  14.305   0.018  0.4487 -0.0404 -0.3336
28344W        W28544   1.363   5.159  10.003 -0.0551  0.1934  0.4222
28345W        W28545  15.979   2.836   5.999 -0.2917  0.1612 -0.0107
28346W        W28546  15.309   2.778  17.142 -0.0507  0.0473 -0.0554
28347W        W28547  14.119   6.560  16.930 -0.1750 -0.1088  0.3851
28348W        W28548   9.050  14.998   2.280 -0.0733 -0.0135 -0.0878
28349W        W28549   8.989  12.508  17.881  0.2627  0.1256  0.2469
28350W        W28550   7.646   5.645   3.803 -0.2456  0.1951  0.0419
28351W        W28551  11.726   3.786   0.931  0.0571  0.1043  0.0038
28352W        W28552   6.506  14.424   2.349 -0.1393  0.0914 -0.0703
28353W        W28553   6.031  14.325  16.386 -0.2488  0.1081  0.0321
28354W        W28554  15.886  15.681   1.577  0.0960  0.3236  0.2374
28355W        W28555  10.802   1.047   0.717  0.0298  0.0204 -0.0704
28356W        W28556  11.499   0.152   1.480  0.1082  0.1114 -0.2066
28357W        W28557   5.176  13.172  11.723 -0.0462 -0.0495  0.2279
28358W        W28558   3.659   4.329  14.942  0.0254  0.0396  0.1746
28359W        W28559  13.954  15.302   2.197  0.2299 -0.1452  0.0372
28360W        W28560  11.519   5.973  17.473 -0.1819  0.2209  0.1529
28361W        W28561  15.941  10.281  14.151  0.0875  0.0107  0.1766
28362W        W28562   6.684   7.313  18.039  0.0384  0.1696  0.0008
28363W        W28563  11.033  14.507  11.897 -0.2195 -0.0593  0.0813
28364W        W28564   7.890  11.336   3.010  0.1388 -0.1526  0.1274
28365W        W28565  17.202  12.579   2.614 -0.2835  0.1430  0.1752
28366W        W28566  11.347  13.947   1.056  0.0037 -0.2699 -0.0043
28367W        W28567   2.536  15.744  13.399  0.1005  0.0080  0.2324
28368W        W28568  11.400   4.507   8.806 -0.1423  0.1764 -0.0285
28369W        W28569  13.797   4.629   1.888 -0.1359  0.1000 -0.0948
28370W        W28570   9.253  15.361   0.188  0.1502 -0.2977 -0.0374
28371W        W28571   9.643   6.265   0.879  0.1229 -0.0081 -0.1451
28372W        W28572   0.726   8.231   4.882 -0.0812 -0.1297  0.1497
28373W        W28573  15.886  14.199  17.831  0.1736  0.1441 -0.1798
28374W        W28574   3.388  16.636  13.538  0.0731  0.1043 -0.0813
28375W        W28575   9.808   7.440   3.823  0.1966  0.1306  0.0381
28376W        W28576   6.519   9.685   2.491  0.0334 -0.4352 -0.0538
28377W        W28577  16.863  15.547   3.269  0.0670  0.0942  0.1051
28378W        W28578  10.450   2.832   9.747 -0.1475  0.2395  0.2563
28379W        W28579  10.462   6.466   6.612 -0.2269 -0.1493  0.1815
28380W        W28580   5.415  13.660  12.675 -0.3338  0.0971 -0.3533
28381W        W28581   8.633  14.806   3.063 -0.2957  0.3103 -0.2153
28382W        W28582  10.171  16.833   4.130  0.0808 -0.0797  0.0198
28383W        W28583   6.139  10.004   3.985 -0.0600  0.0013 -0.1255
28384W        W28584  12.960  17.606   2.195  0.0493 -0.0489  0.0329
28385W        W28585   5.556  14.652   4.551  0.1823  0.1625 -0.1272
28386W        W28586  14.257  12.674   9.457 -0.0343  0.0873  0.0070
28387W        W28587   3.853  12.546  17.113 -0.0412  0.1196 -0.0051
28388W        W28588   5.717  13.273  17.666  0.1212  0.1208 -0.1007
28389W        W28589  12.027  12.849   1.608 -0.1896 -0.1172 -0.3356
28390W        W28590   8.234  16.569   3.278  0.1921  0.0134 -0.0531
28391W        W28591   7.771  13.035  18.149 -0.1522 -0.0405 -0.0510
28392W        W28592  11.729   7.475   4.239 -0.2621  0.1647  0.2506
28393W        W28593   6.571   5.390   4.667  0.1264  0.0884  0.0638
28394W        W28594   8.363  12.082   2.487 -0.2145 -0.1204 -0.1917
28395W        W28595   3.062  11.612  10.393  0.3623  0.1828 -0.1307
28396W        W28596   8.560  14.557   0.147  0.1450  0.0159 -0.0434
28397W        W28597  14.868  13.910  17.949  0.1132  0.1310 -0.0952
28398W        W28598   3.725  14.918  15.172 -0.1271  0.2958  0.1475
28399W        W28599   5.209   3.869   1.193  0.0225 -0.1314 -0.0795
28400W        W28600   0.033  14.595  10.616  0.1158  0.0660 -0.2805
28401W        W28601   8.645   2.252   2.419 -0.0467  0.0445 -0.2332
28402W        W28602   7.416  14.125   0.816 -0.1016 -0.2588 -0.4419
28403W        W28603  13.185   9.372   7.481  0.0814 -0.1566  0.0617
28404W        W28604   2.251  16.812  14.984 -0.0450 -0.0787  0.2331
28405W        W28605  10.551  13.181   8.087  0.0639  0.1142 -0.0088
28406W        W28606   7.299  17.805   5.831  0.1301 -0.2855 -0.2480
28407W        W28607   8.219   4.032   8.577 -0.0921  0.2448  0.1676
28408W        W28608   0.443  16.979   5.661  0.4959  0.3831 -0.1032
28409W        W28609  12.112   2.009   8.707 -0.2235 -0.1488 -0.0108
28410W        W28610  11.528   4.309   8.335 -0.0235  0.2136  0.2326
28411W        W28611   3.538   2.790  11.117 -0.1262 -0.4020  0.2043
28412W        W28612   9.631  17.210   1.404 -0.0530 -0.0806 -0.0124
28413W        W28613  10.953   6.032  16.495 -0.1964 -0.4355 -0.1043
28414W        W28614  18.176  14.211   4.743 -0.0396 -0.0603 -0.0801
28415W        W28615   4.108  17.853   8.920 -0.1292  0.0391 -0.0798
28416W        W28616   8.693  15.290   6.590  0.3584 -0.2580  0.0064
28417W        W28617   9.407  15.119   0.834  0.1489 -0.1188  0.2210
28418W        W28618  13.063   0.073  12.136 -0.0639 -0.0126  0.1327
28419W        W28619   2.199  16.715   7.892 -0.0427  0.2772  0.1833
28420W        W28620   9.767  13.634   7.708  0.0788  0.0171  0.1487
28421W        W28621  14.694  14.824  16.439 -0.1856 -0.1458  0.2269
28422W        W28622  11.086   2.077   2.429  0.1302 -0.0646  0.2620
28423W        W28623  11.295  11.192   9.983 -0.1930  0.2320  0.0169
28424W        W28624  15.741  14.628   8.827 -0.0198  0.0676 -0.1548
28425W        W28625  17.228  17.188   2.352 -0.1490 -0.2359 -0.0405
28426W        W28626   9.663  14.588   5.632  0.1639  0.0628 -0.1631
28427W        W28627   9.126   3.685   8.357  0.0932 -0.2754  0.3086
28428W        W28628  13.000  16.752   4.594  0.1500  0.0089  0.2118
28429W        W28629   9.266  13.461  16.855 -0.0590  0.1979 -0.0588
28430W        W28630   5.787  11.369   5.463  0.0666  0.0663 -0.0715
28431W        W28631   3.304  15.452   0.397 -0.1974  0.0020  0.1284
28432W        W28632   7.033   2.308   7.772  0.2024  0.2708  0.0136
28433W        W28633   4.510  13.047   6.161 -0.0562 -0.0312  0.0780
28434W        W28634   8.977  12.581  14.317  0.2814 -0.1662  0.0559
28435W        W28635  12.844   0.643  16.971 -0.2145  0.2286 -0.1900
28436W        W28636   4.483   6.900   1.297  0.0716 -0.2728  0.0204
28437W        W28637   6.347  16.829   4.439  0.2268 -0.3703 -0.0404
28438W        W28638   8.660  12.919  14.031  0.4978  0.0090 -0.2966
28439W        W28639  11.733   2.617   3.309 -0.0173  0.2467 -0.0585
28440W        W28640   3.801   0.899   8.937  0.0369 -0.2478  0.1367
28441W        W28641  10.230  15.109   5.541 -0.1824 -0.0926 -0.3065
28442W        W28642   2.807  17.776   5.768  0.0882 -0.1116 -0.0159
28443W        W28643   0.308   1.245  13.085  0.0380  0.0300 -0.0193
28444W        W28644  11.828  11.523   4.714  0.1878  0.4754  0.0933
28445W        W28645  12.376   1.950  11.519 -0.1186 -0.0517 -0.0483
28446W        W28646  16.173  11.987   6.260 -0.0606 -0.2273  0.0391
28447W        W28647  14.042  14.534   5.024  0.2697 -0.1454  0.0658
28448W        W28648  14.894   1.519   6.930 -0.2403 -0.0225  0.2467
28449W        W28649  14.726  14.671  17.808 -0.0101 -0.1519  0.3454
28450W        W28650  13.747   2.267  14.213  0.2281  0.0238 -0.0025
28451W        W28651   0.475   5.589   5.853 -0.2200  0.4398  0.2237
28452W        W28652  17.963   1.760   5.350  0.2238  0.0468 -0.3345
28453W        W28653   1.442   2.117   9.252  0.4461  0.1608  0.3022
28454W        W28654   8.130  10.730  11.502  0.4427  0.1961 -0.2033
28455W        W28655  13.660  15.195  11.969 -0.0420  0.1713  0.1272
28456W        W28656   4.069   1.750   2.885  0.3574  0.1866 -0.0175
28457W        W28657  12.239  14.565   5.699 -0.0227 -0.0795 -0.0789
28458W        W28658  17.177  15.778   9.426 -0.0428 -0.1506 -0.3398
28459W        W28659   3.397  14.375   9.157  0.0580 -0.0472 -0.2151
28460W        W28660  11.385  14.375   8.618  0.0419  0.4090  0.1341
28461W        W28661  14.331  13.727   4.278 -0.1989 -0.0880  0.1736
28462W        W28662  17.329  16.747  12.969 -0.1525 -0.2951 -0.0689
28463W        W28663   4.623   8.645  17.402 -0.1513  0.0174  0.2412
28464W        W28664   8.492  15.157   6.127  0.1501  0.1178  0.0248
28465W        W28665   8.056   5.067   9.357 -0.2107 -0.2062  0.0256
28466W        W28666  11.627  15.335   8.638 -0.0192 -0.0017 -0.1920
28467W        W28667   2.404   8.494   2.803 -0.0024  0.0557 -0.4546
28468W        W28668   5.692  15.045   3.642  0.3352  0.0701 -0.2677
28469W        W28669   4.472   0.189   0.729 -0.2307 -0.3752  0.1688
28470W        W28670   8.330  16.313   9.542  0.4974 -0.0889  0.0676
28471W        W28671  16.064  14.097   4.456  0.0360  0.2221  0.0007
28472W        W28672  15.971  16.757   9.487  0.0539  0.0347 -0.0310
28473W        W28673   6.154  16.973   8.309 -0.1020  0.0210 -0.4715
28474W        W28674   9.294   2.230  17.844 -0.0188  0.3105  0.2890
28475W        W28675   9.293  11.072   4.074  0.0837  0.0678 -0.4147
28476W        W28676  18.134   8.900   6.616  0.0602  0.3764  0.0798
28477W        W28677  12.151   7.227   4.904 -0.2072 -0.2142  0.0639
28478W        W28678   4.307  10.706  10.714  0.3705 -0.2092 -0.1447
28479W        W28679  12.397  15.585   9.169  0.3192 -0.0536  0.0212
28480W        W28680   8.388   5.326  10.118 -0.0686 -0.1950  0.0775
28481W        W28681  10.547   4.603   9.523 -0.0271 -0.0216  0.0460
28482W        W28682   6.383   3.114   5.082 -0.3535 -0.1046 -0.0790
28483W        W28683  15.200   8.862   9.344 -0.0354 -0.1596 -0.0246
28484W        W28684   8.475  11.666   7.660  0.2606 -0.1492 -0.1472
28485W        W28685   6.334   2.629   5.921  0.0420  0.0378  0.3421
28486W        W28686   2.993   2.974  12.714 -0.0454 -0.0684 -0.1297
28487W        W28687  12.673  15.667   2.624  0.0156 -0.0184  0.2233
28488W        W28688   8.263   0.598   2.580 -0.3191  0.0999  0.1345
28489W        W28689   2.703   6.219  13.403 -0.0586 -0.1556 -0.1841
28490W        W28690   6.840  12.144   6.185  0.0917  0.1771 -0.0123
28491W        W28691  15.336   9.223   8.429  0.2607 -0.1642 -0.3139
28492W        W28692   0.320  10.560   7.056  0.0151  0.0163  0.1130
28493W        W28693   7.479  13.455   4.997  0.2819  0.0462  0.3032
28494W        W28694  12.496   2.947  11.775 -0.1706 -0.0914 -0.2521
28495W        W28695   2.589  15.114   5.271 -0.0113  0.1811  0.0435
28496W        W28696  16.434   4.222  14.600  0.0656 -0.3903 -0.2288
28497W        W28697  11.711   0.788   0.718 -0.2264  0.0185  0.3459
28498W        W28698  11.761   1.855   5.334  0.1807 -0.1053  0.0285
28499W        W28699   5.786  14.808  11.830  0.1508  0.0496 -0.4857
28500W        W28700  10.006   0.642   7.598  0.0940  0.0149 -0.1528
28501W        W28701   0.008   0.334   9.500  0.3795  0.1680  0.2917
28502W        W28702  13.358   1.577   6.450  0.0623  0.1811 -0.0554
28503W        W28703   2.032  10.548   4.580 -0.0102  0.3771 -0.2055
28504W        W28704   6.285  17.774  10.585 -0.3100  0.3080 -0.2566
28505W        W28705  12.017  17.203  15.186 -0.1788  0.0368  0.0995
28506W        W28706   7.491  15.487  17.731 -0.1701  0.2103  0.4079
28507W        W28707   7.185  13.829   6.948  0.0907 -0.0448 -0.1252
28508W        W28708   9.292   5.752   5.448 -0.0845 -0.3319  0.1786
28509W        W28709   7.904  17.820   9.626 -0.0333 -0.1317 -0.5688
28510W        W28710  11.660   5.232   9.317  0.1310 -0.1267 -0.1240
28511W        W28711  13.511   4.489   4.042 -0.4085  0.2593 -0.0221
28512W        W28712   5.817   5.370   8.556  0.0454  0.1018  0.1753
28513W        W28713   8.888   8.985   8.878 -0.0393 -0.0698 -0.2959
28514W        W28714   8.664  17.065  11.297 -0.3705  0.0187  0.0632
28515W        W28715   1.674   0.604  10.298 -0.0415  0.1230  0.0436
28516W        W28716  18.184   1.517   4.067 -0.0359 -0.0978 -0.0501
28517W        W28717   9.890  17.397  15.765  0.1067  0.0852  0.1300
28518W        W28718  10.303   1.360   5.203 -0.3062  0.1803  0.2487
28519W        W28719  12.024  16.950   7.700  0.2093  0.2678  0.1497
28520W        W28720   6.897  12.023   8.822  0.0879  0.2690  0.1579
28521W        W28721   3.846   3.852   1.283 -0.1258 -0.3443  0.2102
28522W        W28722  14.888  17.723   5.020 -0.3857 -0.0350  0.0149
28523W        W28723   1.815   5.642   9.311  0.0318  0.3688  0.1590
28524W        W28724  13.420  15.740  10.665  0.0244  0.2021 -0.2932
28525W        W28725  12.174   2.716   4.329 -0.0520  0.0232 -0.0875
28526W        W28726  17.483   1.695  12.241 -0.0784 -0.0534 -0.0059
28527W        W28727  10.884  17.652   1.690 -0.0892  0.3189 -0.1411
28528W        W28728   4.944  12.441   8.461 -0.0516  0.0380  0.3149
28529W        W28729  11.754   2.296   7.526 -0.0587  0.1866  0.0405
28530W        W28730   7.440   0.287  12.087 -0.0341 -0.3505  0.1353
28531W        W28731   8.579  11.330   5.498 -0.0034  0.2599 -0.2201
28532W        W28732   5.173  13.808  13.938 -0.2673 -0.0334  0.3570
28533W        W28733  10.254   8.756   2.831 -0.5100  0.1160 -0.0409
28534W        W28734   3.785  16.648   3.208  0.2324 -0.2641 -0.0672
28535W        W28735  14.707   5.521   3.214  0.0622  0.2953 -0.0933
28536W        W28736  12.140  16.145  11.998 -0.1231 -0.1783 -0.0039
28537W        W28737  13.394   4.074   5.486 -0.1924 -0.0310 -0.1462
28538W        W28738   7.758  16.951  14.566  0.1603 -0.0356  0.0035
28539W        W28739  12.364  12.330   6.391 -0.2788  0.0682 -0.2559
28540W        W28740   0.448   0.138   6.587  0.2923 -0.0816  0.0357
28541W        W28741  11.609  10.424   8.825 -0.0765  0.1679 -0.2683
28542W        W28742  12.362  14.666   9.683 -0.0377  0.0373  0.6031
28543W        W28743   9.713   8.722   5.673 -0.1118 -0.3348 -0.2789
28544W        W28744   0.866   2.630   1.948  0.0446  0.2322 -0.2050
28545W        W28745  10.652  16.203   6.127  0.0930 -0.4701 -0.4692
28546W        W28746   4.110   8.265   6.212  0.2245  0.1061 -0.1458
28547W        W28747  15.642  15.327  11.721  0.0802  0.4247  0.2068
28548W        W28748   8.809   3.299   6.456  0.1969 -0.2332  0.2329
28549W        W28749  12.364   8.520   3.771 -0.1987  0.2416 -0.0025
28550W        W28750   3.905   7.887   6.935 -0.0711  0.0584  0.1036
28551W        W28751   9.495  15.206  14.628  0.0954 -0.0878  0.0781
28552W        W28752   6.462  12.770   6.899 -0.1004 -0.1926 -0.1917
28553W        W28753   8.147   1.699   3.550 -0.1129 -0.2145 -0.0455
28554W        W28754  10.048  16.259   5.334  0.1014 -0.0147  0.1303
28555W        W28755  10.063   4.203   8.645  0.2397  0.1026 -0.0773
28556W        W28756   7.281   0.403   3.560 -0.0442 -0.3154  0.0263
28557W        W28757   9.977  11.818  13.325  0.1192 -0.0186 -0.1016
28558W        W28758   2.906  18.139   3.413  0.0634 -0.1560 -0.1321
28559W        W28759   8.879  18.071   6.084 -0.1427  0.0591 -0.0259
28560W        W28760   2.430   7.930   5.860 -0.0057 -0.1468  0.1305
28561W        W28761  11.997  17.514  17.387  0.0185 -0.3927  0.3864
28562W        W28762  11.558   4.645   2.780 -0.0625  0.0504  0.1677
28563W        W28763   3.594   5.079   5.559  0.0639 -0.1347 -0.0788
28564W        W28764  15.213  13.933   5.826  0.2902  0.0172  0.0263
28565W        W28765  14.171   2.425   7.580  0.1565  0.2015 -0.3707
28566W        W28766   5.157   0.272   2.889 -0.3498 -0.3823 -0.0829
28567W        W28767   8.302  13.865  17.849 -0.1832 -0.1265 -0.0292
28568W        W28768   7.837  13.415   9.094  0.1900  0.0541 -0.0080
28569W        W28769  12.647  17.471  15.670 -0.1218  0.1841 -0.2505
28570W        W28770  11.019  11.780  16.588 -0.0929  0.0567 -0.3913
28571W        W28771  12.251  15.178   8.158 -0.3311 -0.1355  0.3168
28572W        W28772  10.387  16.234  16.276  0.0783 -0.3425  0.2264
28573W        W28773  17.830   2.278   8.170 -0.1822  0.2095 -0.0837
28574W        W28774  11.163   4.946   2.642  0.0280 -0.1557  0.4630
28575W        W28775   3.145  16.723   2.892  0.3788 -0.3237  0.1589
28576W        W28776   2.865   2.520  14.410  0.2108  0.1265 -0.0894
28577W        W28777   8.617  15.704  13.480 -0.3233  0.2013 -0.0098
28578W        W28778   5.020   1.626   2.711  0.3117 -0.0332  0.1801
28579W        W28779  11.860   8.342  14.770  0.0158 -0.2588 -0.0720
28580W        W28780  13.567   0.000   6.961 -0.1384 -0.1162 -0.5312
28581W        W28781  14.048   6.585   0.925 -0.3535  0.1780 -0.1932
28582W        W28782   2.392  11.336   4.793 -0.4336  0.0509 -0.2903
28583W        W28783  13.322   2.957   3.946 -0.2492 -0.2037  0.0014
28584W        W28784   8.566  11.787   6.701  0.0627  0.0977 -0.1155
28585W        W28785   0.856   2.646   8.898  0.2392  0.1458 -0.0557
28586W        W28786  12.013  17.285   0.912 -0.1954 -0.3037  0.0563
28587W        W28787   8.549   0.475   8.346 -0.0707 -0.1241 -0.1699
28588W        W28788   5.855  17.638  16.607 -0.2981  0.0397 -0.1356
28589W        W28789  11.157  15.991   9.291 -0.0164 -0.0914 -0.2316
28590W        W28790  11.990  13.534   9.303 -0.1460 -0.2591  0.0589
28591W        W28791   9.476   5.321   8.943  0.2349 -0.2820 -0.1043
28592W        W28792  10.714  15.906  13.116 -0.1877 -0.1907  0.1374
28593W        W28793  11.890   0.152   7.443 -0.0890  0.3831  0.0349
28594W        W28794   1.274  15.907   3.999 -0.2310 -0.0134  0.0155
28595W        W28795  13.928   2.529   3.530  0.0455  0.0102  0.1584
28596W        W28796   2.985   6.659   2.730  0.1382 -0.3559 -0.0373
28597W        W28797  10.652  12.450   6.159  0.1306  0.0297  0.0126
28598W        W28798   6.079   0.958   6.807 -0.1971  0.0927 -0.0878
28599W        W28799  12.467   1.597   3.291 -0.0567 -0.1454 -0.0182
28600W        W28800   6.944   1.164   2.069 -0.0442 -0.0360 -0.0333
28601W        W28801  10.681   5.762   6.791 -0.0432  0.0953  0.1691
28602W        W28802   9.026  13.929   7.589 -0.0001 -0.0717 -0.1594
28603W        W28803  12.669  18.155   8.751  0.1336 -0.0545  0.0373
28604W        W28804  10.267   0.225   9.914  0.0776 -0.0655 -0.0226
28605W        W28805   9.433   6.468  17.874 -0.1591 -0.2204 -0.3600
28606W        W28806   8.315  12.489   5.841 -0.2529 -0.2184  0.1037
28607W        W28807  14.222  17.178   2.790 -0.0155 -0.2002 -0.0731
28608W        W28808   2.414  18.075   8.828 -0.0671  0.4206  0.1320
28609W        W28809  12.575  18.012  18.155 -0.2365 -0.0315 -0.1182
28610W        W28810  13.706   5.407   5.049  0.1368  0.1378  0.0294
28611W        W28811  10.966  15.539   7.164  0.0789 -0.0295  0.1824
28612W        W28812   3.910   4.793  15.094 -0.1665 -0.0930 -0.1115
28613W        W28813   9.573  16.893  15.255 -0.3264 -0.2272  0.2808
28614W        W28814   8.787   2.440  12.443  0.2278 -0.0929  0.3193
28615W        W28815   8.785   8.234  14.515  0.0024 -0.0151 -0.0507
28616W        W28816  11.880  15.364   4.791 -0.2350 -0.2810  0.0755
28617W        W28817  11.559  12.747   3.787 -0.0688  0.1995 -0.2954
28618W        W28818  11.259  16.943   1.143 -0.2373 -0.0950 -0.1944
28619W        W28819   7.110  12.796   7.288  0.1588  0.0707  0.0065
28620W        W28820   2.469   2.019   3.318 -0.1908 -0.2563 -0.4369
28621W        W28821  15.173  16.232   5.057 -0.1185 -0.0529  0.1141
28622W        W28822  13.457  15.405   2.247  0.0252 -0.1689  0.1151
28623W        W28823   5.682  11.291   4.957  0.0598 -0.0278  0.0160
28624W        W28824   9.579   0.883  17.431 -0.0484 -0.0325  0.0683
28625W        W28825  13.600  15.063  17.830  0.1129  0.1782  0.0925
28626W        W28826   6.656  16.419   2.889  0.1327  0.0339 -0.1011
28627W        W28827  12.546  13.566  15.798  0.0579 -0.0219 -0.2106
28628W        W28828   8.775  10.483   2.280  0.2131  0.1018 -0.1444
28629W        W28829  15.068  15.712   7.472  0.1140 -0.3098  0.1604
28630W        W28830   3.830  14.107   9.345  0.0160 -0.0734 -0.1016
28631W        W28831  14.014  14.581   6.008  0.1772  0.0424  0.0570
28632W        W28832  14.055  15.788   4.124  0.1941  0.0987  0.0571
28633W        W28833   4.276   9.011   7.645 -0.1551 -0.4008 -0.2334
28634W        W28834  17.183   4.976  12.139  0.2088  0.1969  0.1306
28635W        W28835  11.654  14.026   3.540 -0.0965  0.0334  0.1217
28636W        W28836  10.167  15.825   4.945 -0.1182  0.1221  0.2794
28637W        W28837  10.162   4.019   2.774 -0.0284  0.0814  0.0182
28638W        W28838   7.831   0.627  11.924  0.0655  0.1190  0.0807
28639W        W28839  17.048  12.329   6.937  0.3630  0.1481  0.1390
28640W        W28840   4.116   8.689  17.622 -0.3655  0.4053  0.0484
28641W        W28841   7.442  16.419   6.509  0.1415 -0.1714  0.2491
28642W        W28842  10.453   3.049   3.413  0.1880  0.2438 -0.0932
28643W        W28843  16.108   0.570   5.173  0.2548  0.1059 -0.2861
28644W        W28844   6.302  12.255   7.224  0.0589  0.1746 -0.2362
28645W        W28845  18.102  14.969   1.710  0.0134 -0.2495 -0.1162
28646W        W28846  13.568  11.977   1.894 -0.0106 -0.2121 -0.4908
28647W        W28847   4.685  17.497   3.790 -0.2828  0.2340  0.3567
28648W        W28848   3.885  15.937   7.625  0.1308 -0.0187  0.0085
28649W        W28849  12.617   6.040  16.477  0.0958 -0.1126 -0.3772
28650W        W28850   6.092   1.311   9.236 -0.1324 -0.0776  0.1687
28651W        W28851  16.269  15.070  11.057  0.1354 -0.2936 -0.0751
28652W        W28852   9.637   7.720  14.602  0.3732 -0.0288  0.0776
28653W        W28853   3.902  16.391   1.767  0.3834  0.1948  0.0106
28654W        W28854   1.863  17.862   3.081  0.0463 -0.1098  0.1052
28655W        W28855   9.325  10.199   2.345  0.1712 -0.2624  0.0319
28656W        W28856   8.968  13.747   5.023 -0.1060 -0.2492 -0.0874
28657W        W28857  11.589   6.806   6.646  0.0752  0.1849 -0.3612
28658W        W28858  15.745  10.393   7.701  0.0380 -0.0258  0.2084
28659W        W28859   7.179  15.814   9.519  0.1545  0.3393 -0.3019
28660W        W28860   3.734   2.939  14.346 -0.1858  0.2941 -0.2123
28661W        W28861  16.157   0.927  10.553 -0.0647 -0.0897 -0.1937
28662W        W28862   8.439  13.488  11.477  0.0367 -0.2687  0.0012
28663W        W28863   0.607  17.381   5.362  0.0899  0.1036 -0.0676
28664W        W28864  13.852  16.467   1.423 -0.2432  0.0387  0.2148
28665W        W28865   3.880   3.611   7.164 -0.0535  0.0265 -0.3417
28666W        W28866  11.695  14.229   0.807 -0.2220  0.0902  0.0607
28667W        W28867   5.478  16.930  10.970 -0.0001 -0.1021  0.0530
28668W        W28868   8.782  13.114   9.326  0.3635  0.0470 -0.0864
28669W        W28869  10.997  14.659  17.682 -0.2066  0.0075  0.2850
28670W        W28870   6.393   4.000   7.152  0.0978  0.0848 -0.3599
28671W        W28871  15.986  11.675   3.367  0.0751 -0.2217  0.1786
28672W        W28872  17.275   6.588   5.000  0.0865 -0.2110  0.0206
28673W        W28873   3.355  13.154  12.460 -0.1847 -0.3492  0.0217
28674W        W28874  10.612   0.866   5.955 -0.0454  0.0789 -0.0111
28675W        W28875   9.568   1.966   0.927  0.0455  0.0361 -0.0763
28676W        W28876   8.117  15.279   5.790  0.1006  0.0803 -0.0880
28677W        W28877  11.868  12.552  17.620  0.0522 -0.1320  0.0424
28678W        W28878   4.305   0.069   9.101 -0.0727  0.1047  0.0253
28679W        W28879   6.899  13.037  14.313  0.3209 -0.0280 -0.0805
28680W        W28880   3.293   9.879   7.747 -0.1243 -0.1838  0.0004
28681W        W28881  15.175  17.385   4.068 -0.0382 -0.1628 -0.1419
28682W        W28882   7.295  14.836   6.119  0.0834  0.2061 -0.1875
28683W        W28883   2.973  17.672   1.515  0.0804  0.0257 -0.0221
28684W        W28884  15.404  15.280   7.478  0.0740 -0.2902  0.0326
28685W        W28885  14.064  15.626  14.222 -0.2838  0.0409 -0.1613
28686W        W28886   9.962  15.779  13.259  0.2527  0.2585 -0.1538
28687W        W28887   1.515  17.804  16.805 -0.0021 -0.1545  0.2348
28688W        W28888  11.381  12.651   3.316 -0.0765 -0.2284 -0.1271
28689W        W28889  16.388  16.374   5.865 -0.0712  0.0991  0.0799
28690W        W28890   6.193   0.260   3.526  0.1070 -0.1187  0.0864
28691W        W28891   7.798  14.921   3.039  0.1873  0.0278  0.0906
28692W        W28892  10.177  11.306   8.063  0.0463 -0.0323 -0.0331
28693W        W28893  12.152  17.458   5.715 -0.3100  0.0578 -0.2218
28694W        W28894  13.331  16.924   1.742  0.1396  0.0139 -0.0680
28695W        W28895  11.069  17.758   7.229  0.0154 -0.0532  0.0598
28696W        W28896   4.556  15.101  15.947  0.2197 -0.1038 -0.0133
28697W        W28897   3.235  13.050   8.701 -0.0936  0.0088  0.3406
28698W        W28898   3.761  13.598   3.947 -0.1197 -0.0372 -0.1606
28699W        W28899   5.200   2.984  12.168  0.3078  0.3025  0.1150
28700W        W28900   9.837  14.865   1.058 -0.2677  0.0290 -0.2898
28701W        W28901   0.467   1.462  16.278 -0.1080  0.2752  0.2862
28702W        W28902  10.918   4.156  10.165 -0.1639  0.0446  0.3422
28703W        W28903  12.137  15.263  12.699 -0.0704  0.1379  0.0872
28704W        W28904  13.311  17.597   2.994  0.1701 -0.0925  0.0023
28705W        W28905   5.969  15.454   1.596 -0.0230  0.1447 -0.0484
28706W        W28906  12.536   0.433   2.858  0.0262  0.0994 -0.2309
28707W        W28907  14.346   8.773   7.331  0.0419 -0.0145  0.2533
28708W        W28908  13.230  15.299  10.401  0.0193 -0.0882  0.1538
28709W        W28909  10.429  10.633  13.334  0.1908  0.2798  0.1063
28710W        W28910   0.740  13.272  11.817  0.2325 -0.0009  0.2486
28711W        W28911   1.934   3.811   6.881 -0.1604 -0.1301  0.0785
28712W        W28912  10.572  10.583  17.625  0.1877  0.0561  0.1007
28713W        W28913  13.344  12.197   1.199 -0.1808  0.0054 -0.1627
28714W        W28914  16.464  10.006   5.809 -0.2893 -0.0880  0.0151
28715W        W28915  11.536  14.905   3.971 -0.1013  0.1809 -0.1329
28716W        W28916   9.360   3.514  10.595  0.1317  0.0769  0.2503
28717W        W28917  14.553   6.386   6.257  0.2087  0.2665 -0.0299
28718W        W28918   8.319   5.447  11.703  0.0974  0.0987 -0.2707
28719W        W28919   3.475  15.731   8.658 -0.1224 -0.0723 -0.1049
28720W        W28920   8.844  15.833   4.736  0.0326 -0.0950 -0.0626
28721W        W28921   7.887  15.436  14.445 -0.0668  0.0802  0.0250
28722W        W28922   9.857  16.013   0.453  0.2072 -0.2126  0.0222
28723W        W28923  10.675  15.021   1.732 -0.3792  0.1938  0.3217
28724W        W28924  14.681   8.829   6.961  0.1468  0.4092  0.0274
28725W        W28925   0.411  15.513   2.431 -0.0881 -0.0930 -0.1425
28726W        W28926  10.812  12.991  15.596  0.0216 -0.1039 -0.0457
28727W        W28927   9.955  15.122   2.402 -0.0882 -0.0127 -0.1298
28728W        W28928  12.771  15.721   5.948  0.1138 -0.1612  0.3926
28729W        W28929   9.569   1.074   0.706  0.0269 -0.2016  0.0693
28730W        W28930  11.441  14.913  17.931  0.1037 -0.0259  0.2008
28731W        W28931  14.799   9.586   0.273 -0.1907 -0.1403  0.2009
28732W        W28932   9.327  18.151  13.240 -0.1645 -0.1913  0.2556
28733W        W28933   9.887   9.982  18.202 -0.1144  0.0759  0.0594
28734W        W28934   4.192  17.213   0.996  0.1271  0.1173 -0.2263
28735W        W28935   8.044  17.100  12.388 -0.0946 -0.2677  0.0327
28736W        W28936  10.776  15.920   8.550 -0.1555 -0.0949  0.0217
28737W        W28937  14.398   1.507   6.190  0.3481 -0.3186  0.0311
28738W        W28938   5.895   0.468   1.577 -0.1184 -0.1538  0.2766
28739W        W28939   8.253  17.311  10.366 -0.0674 -0.0242 -0.0137
28740W        W28940  10.753  10.537   3.298  0.2683  0.0355  0.1894
28741W        W28941   2.537  12.414   5.334  0.1560 -0.0579  0.1736
28742W        W28942  14.807  10.902  14.836  0.1260 -0.1384  0.1759
28743W        W28943   5.567  12.741   3.097 -0.0333 -0.0293  0.0975
28744W        W28944   4.203  11.016   5.032 -0.2895 -0.1207  0.0070
28745W        W28945   0.869   0.105  10.671 -0.1101 -0.0629  0.1027
28746W        W28946   8.135  11.442  18.199  0.0695  0.0262 -0.0149
28747W        W28947  13.586  17.907   9.543  0.2091 -0.3400 -0.0259
28748W        W28948  12.690  17.273  17.849  0.0459 -0.0256  0.0076
28749W        W28949  15.739  15.897   1.993 -0.0669 -0.0052 -0.0769
28750W        W28950  10.273   7.851   9.509  0.1872 -0.1025  0.0089
28751W        W28951   3.153  16.713   1.838 -0.0620  0.3401  0.0918
28752W        W28952  13.183   3.343   8.878  0.1325 -0.3860  0.0093
28753W        W28953   8.741  13.094   6.671  0.1931 -0.0707  0.1500
28754W        W28954  13.162   2.126   2.798  0.0698  0.0897  0.2126
28755W        W28955  10.348  17.958   8.055 -0.2716 -0.1741 -0.1096
28756W        W28956   1.686  12.113   3.396 -0.0742  0.2896  0.4263
28757W        W28957   9.161  17.311   3.157  0.1683  0.1008 -0.0894
28758W        W28958  10.512  14.160   9.469 -0.0090 -0.2923  0.2314
28759W        W28959   9.517  16.458  16.251  0.0504  0.0663  0.0451
28760W        W28960   4.221  15.870   1.596 -0.6132 -0.3017 -0.3012
28761W        W28961   6.724   5.839   7.112  0.1936  0.2025  0.1049
28762W        W28962   4.846  15.421   8.442  0.2317 -0.2187  0.0186
28763W        W28963  12.496  15.504   1.382  0.0442  0.2009  0.2019
28764W        W28964   9.876   8.179   2.261  0.0868  0.0479 -0.3086
28765W        W28965   2.104  14.714   0.913  0.0946  0.1556 -0.1800
28766W        W28966  13.943  14.384   5.524 -0.0706  0.0615  0.2795
28767W        W28967  11.461  10.593  11.353 -0.2866 -0.0307 -0.0868
28768W        W28968  11.497   0.601  16.840 -0.1527 -0.1526  0.2143
28769W        W28969  16.919  10.511   8.123 -0.1907  0.1830 -0.4413
28770W        W28970  11.113  15.330   4.644 -0.3404  0.0977 -0.1922
28771W        W28971  11.938  11.923   3.438  0.0217  0.0768 -0.0040
28772W        W28972   9.737  15.818   4.073  0.0164 -0.1038 -0.3005
28773W        W28973  10.240  17.641  18.084 -0.0574 -0.3618  0.0449
28774W        W28974   9.790   8.750   4.256 -0.0190  0.0320 -0.0728
28775W        W28975  12.650  14.064  16.928 -0.3858 -0.1311 -0.0750
28776W        W28976  11.312   6.734   1.343  0.1961 -0.0486  0.1577
28777W        W28977   5.748   3.273  11.098  0.0749 -0.1451  0.3714
28778W        W28978   9.118   0.179   1.809 -0.1804  0.0233  0.2247
28779W        W28979  17.441  15.286   7.342  0.0586 -0.2886  0.0312
28780W        W28980   4.016  17.578  10.875 -0.1662  0.0653  0.2223
28781W        W28981   7.204   1.079  10.299 -0.0737  0.0979  0.1361
28782W        W28982  10.476   2.598   4.100  0.0054  0.1743 -0.1951
28783W        W28983  16.777  16.084   9.437  0.0411 -0.0272 -0.0119
28784W        W28984   2.851   3.780   4.124  0.0527 -0.0530  0.3009
28785W        W28985  12.836  15.348   7.066 -0.1112  0.1518  0.0062
28786W        W28986   7.635   2.800   4.206 -0.0263 -0.1550 -0.0095
28787W        W28987   8.602  13.559   4.112 -0.1168 -0.2592  0.0630
28788W        W28988   7.100   1.070   4.673 -0.2601  0.0213 -0.0506
28789W        W28989   6.578   0.125  10.248 -0.0594 -0.0810 -0.1403
28790W        W28990   5.837   0.978   2.898 -0.3760 -0.0793 -0.1464
28791W        W28991   0.278   0.825   4.350 -0.0685  0.2315  0.3456
28792W        W28992  10.386   3.515   3.528  0.2127 -0.2930 -0.0766
28793W        W28993   0.277  16.404  17.577 -0.0769 -0.0586 -0.0806
28794W        W28994  10.302   0.527   7.199 -0.0435 -0.1025  0.2524
28795W        W28995  10.063  10.555  10.903  0.0979  0.1408  0.3857
28796W        W28996   9.673   6.032   5.085  0.0200  0.2839  0.0611
28797W        W28997  11.420  14.120   2.534 -0.1317 -0.2677  0.1491
28798W        W28998  12.296  15.011   1.285 -0.1289 -0.1139 -0.0476
28799W        W28999  12.881   2.933   5.143  0.5279  0.0180 -0.2157
28800W        W29000  11.156  15.477   5.732  0.1362 -0.1110  0.0577
28801W        W29001  13.521   4.355   1.382  0.0697 -0.1661  0.2779
28802W        W29002   6.760  12.582  15.413  0.2199 -0.1192 -0.1167
28803W        W29003  10.123  16.551  16.633 -0.0115 -0.2313  0.0207
28804W        W29004   2.270  14.294   2.863  0.0911 -0.0566 -0.1003
28805W        W29005  12.520  10.337  13.128  0.0384 -0.1608 -0.0395
28806W        W29006   5.933  12.859   6.446  0.0822  0.0173 -0.1407
28807W        W29007   2.277   8.643  15.431 -0.2858  0.0996  0.0014
28808W        W29008  16.741  16.418   8.606  0.2000  0.1060  0.0611
28809W        W29009  14.331  11.487   6.233 -0.1565 -0.0848  0.0351
28810W        W29010  18.020  13.041   3.563  0.0661 -0.1596  0.0920
28811W        W29011   9.514  17.532   3.836 -0.0095  0.3220 -0.2247
28812W        W29012   5.256  15.316   2.962 -0.1576 -0.1009 -0.0079
28813W        W29013   7.671   0.123  10.055 -0.2046  0.1042 -0.1416
28814W        W29014   9.809   2.163   8.995 -0.2191 -0.1354 -0.0302
28815W        W29015  10.544   3.369   7.077 -0.1014  0.1138  0.1677
28816W        W29016   8.312  12.579  13.865  0.2081 -0.1321  0.2146
28817W        W29017  10.655   4.210  10.587 -0.0474 -0.0646  0.2537
28818W        W29018  13.754  10.524  11.640  0.1096 -0.0962 -0.1532
28819W        W29019   5.913   0.024   1.369 -0.1708 -0.1306 -0.2322
28820W        W29020  17.672  13.079   1.268  0.1174  0.0303  0.0041
28821W        W29021   2.843  15.110   2.624  0.0750 -0.2575  0.1863
28822W        W29022   6.567  15.851   4.010  0.0277 -0.1518 -0.1543
28823W        W29023  10.128   2.446  12.590 -0.1092 -0.0114 -0.1244
28824W        W29024   5.616   0.297   8.428  0.1070 -0.2280 -0.1352
28825W        W29025   9.369  12.955  16.973  0.0733 -0.0468  0.0601
28826W        W29026   3.044   0.597  15.221  0.2074 -0.0598  0.0437
28827W        W29027  11.170   3.426   3.430  0.3593  0.1297  0.2367
28828W        W29028   8.145  12.085  11.771  0.0177 -0.1655 -0.1043
28829W        W29029   8.065  15.904   6.582 -0.2833  0.0635 -0.0385
28830W        W29030   8.579   6.203   9.836  0.2781 -0.0286 -0.1655
28831W        W29031  10.266   9.749  16.001 -0.3699 -0.1065 -0.2051
28832W        W29032  10.919  18.076   9.819 -0.0910  0.0393  0.3391
28833W        W29033   1.418   8.739   8.581  0.1777 -0.0986  0.3875
28834W        W29034   9.499  15.301  10.651  0.1713  0.0904 -0.2997
28835W        W29035  12.028  12.616   1.157  0.0965 -0.0876  0.0132
28836W        W29036  10.594  11.886   1.162  0.0380  0.3247  0.0844
28837W        W29037   9.210   9.142  18.036  0.0662 -0.0461  0.3514
28838W        W29038   4.708  12.191  16.414  0.0411 -0.0750 -0.4007
28839W        W29039   7.132   3.957   9.565  0.2436 -0.0434 -0.3460
28840W        W29040   1.223   4.738  10.169 -0.2005 -0.0601 -0.1197
28841W        W29041  12.025   0.831  18.023  0.0558  0.2277  0.1079
28842W        W29042   4.663   0.005   4.875 -0.0784  0.0554  0.0717
28843W        W29043  11.429  11.865   8.515  0.0276  0.0208 -0.1571
28844W        W29044  12.819  12.875  12.140  0.0399 -0.2021 -0.0856
28845W        W29045  18.207  15.874  11.603  0.0336  0.0242 -0.4619
28846W        W29046  12.570  12.992  11.218 -0.0049  0.0795 -0.1295
28847W        W29047   7.465  17.051   0.131  0.1596  0.1176  0.1759
28848W        W29048  14.679  15.167   8.542 -0.1662 -0.0514 -0.0160
28849W        W29049  13.979  16.041  15.982  0.0005  0.0366  0.3266
28850W        W29050  10.482   0.501   8.490  0.0466 -0.2445 -0.0738
28851W        W29051   3.307  15.401   9.003  0.2463  0.0210 -0.0253
28852W        W29052  15.842   4.497   4.954  0.0815  0.0813 -0.3332
28853W        W29053  11.960  12.545  17.134 -0.0410 -0.1157 -0.0962
28854W        W29054   8.700  13.077   9.911 -0.1479  0.3222 -0.0308
28855W        W29055   1.125  17.425   8.129  0.2436  0.1012 -0.3232
28856W        W29056   7.621  10.276   3.651 -0.4173  0.0448 -0.1264
28857W        W29057   9.713   4.356  11.148 -0.2052 -0.1703  0.1061
28858W        W29058   7.177   4.751   3.056 -0.0123 -0.0451  0.0039
28859W        W29059   3.594   6.139  13.137  0.1400 -0.2190  0.3112
28860W        W29060   2.439  16.458   7.580 -0.1136 -0.1349  0.0516
28861W        W29061   0.830   6.710  10.232  0.2002  0.1881 -0.0753
28862W        W29062  13.411   3.799   8.516 -0.1354  0.0119  0.1098
28863W        W29063   7.712   1.819  12.569 -0.0531  0.1448 -0.0229
28864W        W29064   1.040  15.101   4.355  0.0958 -0.1640 -0.0236
28865W        W29065  11.652  13.337   4.476  0.0001  0.2144 -0.1965
28866W        W29066   7.886  17.820   8.249 -0.0958  0.0394  0.0865
28867W        W29067   8.812  17.707   5.716 -0.3749  0.0999 -0.0381
28868W        W29068   8.517   3.964  10.168 -0.2184 -0.0256  0.1324
28869W        W29069  11.524   5.847   7.949 -0.1026  0.1951 -0.1582
28870W        W29070   2.105  13.375   1.006 -0.0612  0.0295  0.0387
28871W        W29071  13.475   4.819  13.113 -0.0793  0.0989 -0.0874
28872W        W29072  16.824  15.567  13.651 -0.0366 -0.0967  0.2107
28873W        W29073  12.019  18.153   6.979  0.1192  0.2574 -0.2327
28874W        W29074   8.640   0.574  12.594 -0.2260  0.1018  0.1134
28875W        W29075   4.527   0.421   6.995  0.0188 -0.1072 -0.0003
28876W        W29076  11.775   8.954   1.667 -0.1674 -0.0712  0.0744
28877W        W29077  14.833   2.455  17.357  0.0639  0.0096  0.0393
28878W        W29078  11.232  17.340   8.902  0.0236  0.0954  0.2422
28879W        W29079  13.831   9.386   8.638  0.1281  0.1039  0.1084
28880W        W29080   5.149   1.487  12.651 -0.1454  0.2048  0.0428
28881W        W29081   4.762   0.295   3.729 -0.0449 -0.0605 -0.1772
28882W        W29082   4.310   1.604   2.020  0.1949 -0.0825 -0.0862
28883W        W29083   4.746  13.533   4.806 -0.1948 -0.0872 -0.1011
28884W        W29084   2.883  10.244  11.358  0.0324  0.0711 -0.1976
28885W        W29085  15.958  13.764  11.897 -0.0288 -0.2112  0.4215
28886W        W29086  10.327   1.031  16.990 -0.0411 -0.0517 -0.1881
28887W        W29087   6.420  15.271  11.228  0.1446  0.0145 -0.1894
28888W        W29088   7.698  14.146   6.948  0.0819  0.3130  0.2169
28889W        W29089  17.761   8.885   5.994 -0.2479  0.0343 -0.0138
28890W        W29090   2.454  14.130   0.407 -0.1478 -0.1419 -0.0183
28891W        W29091  16.429   0.613   9.523  0.0485 -0.1027 -0.0696
28892W        W29092   4.142   3.903   9.653 -0.1041 -0.1029  0.1584
28893W        W29093   7.716   8.285  10.548 -0.1442  0.2540  0.0451
28894W        W29094   3.791   4.367   9.768  0.0999 -0.0733  0.1146
28895W        W29095   8.362   0.564  11.728 -0.1996 -0.0969  0.3653
28896W        W29096  17.867  15.010   4.734 -0.0532 -0.2120  0.2853
28897W        W29097  12.681   3.208   7.631  0.0342  0.0296 -0.2492
28898W        W29098   0.244   9.615  11.224  0.1355  0.0122 -0.0911
28899W        W29099   7.248  17.567  14.881  0.0546  0.0256  0.3999
28900W        W29100   4.533   9.071   5.214  0.0585 -0.2335  0.2606
28901W        W29101   0.087  16.683  10.936  0.1371 -0.1912  0.1553
28902W        W29102  10.797   6.163  13.782  0.2904 -0.0806  0.0436
28903W        W29103  17.602  16.996   5.415 -0.2240 -0.2777 -0.0639
28904W        W29104  12.387   0.960  14.407  0.0051  0.1290  0.1960
28905W        W29105   4.278  17.943   8.479  0.1726  0.0775 -0.0822
28906W        W29106  16.772  14.118   8.817  0.0396 -0.1821 -0.0860
28907W        W29107  10.168  16.534  10.167 -0.0402 -0.0186  0.1985
28908W        W29108  16.760  13.201  11.696 -0.1238 -0.0926  0.1389
28909W        W29109   9.086  14.862   7.313  0.1727 -0.3500 -0.0309
28910W        W29110   1.866   2.825  17.659 -0.3068 -0.0222 -0.0873
28911W        W29111   6.878  16.824  10.960  0.0447  0.3300  0.2339
28912W        W29112  16.189  14.220  11.641  0.1461  0.1611 -0.1299
28913W        W29113  14.915  17.033   6.899 -0.2131  0.0451  0.1660
28914W        W29114  10.252  12.898   1.292  0.0525  0.0824 -0.0937
28915W        W29115  12.253   0.208   8.592 -0.2165 -0.0988  0.2445
28916W        W29116  15.231   6.787   8.314  0.1171  0.1721 -0.0917
28917W        W29117   0.458  15.134   3.679 -0.2025  0.0659 -0.2171
28918W        W29118   5.761   4.189   0.252 -0.0218 -0.2175 -0.1460
28919W        W29119  12.796  11.364   0.851  0.0672 -0.0313 -0.1701
28920W        W29120   8.584  13.699  17.484 -0.0870 -0.4354  0.1212
28921W        W29121   4.933  17.275   9.948  0.0848  0.2137 -0.1833
28922W        W29122  12.384   2.219   9.279 -0.2987  0.1203 -0.0230
28923W        W29123   2.180  12.669   6.888  0.0800 -0.0949  0.0645
28924W        W29124   3.423  14.190   4.527 -0.0067 -0.0644 -0.1763
28925W        W29125   6.095  17.785   6.815 -0.1595 -0.3268 -0.0368
28926W        W29126   4.415   2.370  13.218 -0.0472  0.1767  0.0358
28927W        W29127  10.211   4.771   5.581 -0.0052 -0.0020 -0.2028
28928W        W29128   3.977  14.510  12.754  0.1171 -0.1236  0.2535
28929W        W29129  13.749  16.217   6.654 -0.2171 -0.0753 -0.0137
28930W        W29130   8.396   1.283   8.312  0.1667 -0.0411  0.1160
28931W        W29131   3.283  15.030   4.431  0.0897  0.0797 -0.2598
28932W        W29132   7.454  14.265   8.240 -0.2323 -0.0772  0.2677
28933W        W29133   5.988   4.314   7.064  0.2312 -0.2397  0.1174
28934W        W29134  11.911   8.041   6.313 -0.1063 -0.1969 -0.1556
28935W        W29135  10.291  12.391  13.096  0.2835  0.1419 -0.1238
28936W        W29136  14.261  10.036   3.259 -0.2064  0.1548  0.1679
28937W        W29137  10.241   0.180  12.820  0.0838  0.2688  0.0309
28938W        W29138  10.212   3.196  13.143 -0.2083  0.2583  0.0178
28939W        W29139   8.870   0.045   0.326  0.1095 -0.0138 -0.0009
28940W        W29140  13.275  15.755  13.749  0.1109 -0.0635  0.1599
28941W        W29141  15.768   6.895   8.527  0.1392  0.0322 -0.0770
28942W        W29142  12.004  14.985  15.980 -0.1562  0.0600 -0.0962
28943W        W29143  10.077  13.261   7.826 -0.1788 -0.1168 -0.0275
28944W        W29144   7.049  14.616  16.721 -0.3142 -0.1154 -0.1427
28945W        W29145  11.496   2.412  12.360  0.0258  0.2219  0.0668
28946W        W29146  10.510  12.991  14.037  0.0521 -0.0426  0.4059
28947W        W29147  10.846   1.313   4.937 -0.3301 -0.3727 -0.2174
28948W        W29148  10.956   1.307   3.508 -0.0041  0.2113  0.1644
28949W        W29149  10.083  12.396   8.809  0.1173 -0.0039  0.1194
28950W        W29150  10.603   6.343   5.065 -0.1887  0.0021 -0.3684
28951W        W29151  11.623  15.611   5.821 -0.1520  0.3316 -0.0879
28952W        W29152   6.200  16.645  17.052  0.1805 -0.1671 -0.0454
28953W        W29153  12.186   5.718   3.328 -0.1523 -0.2587  0.1044
28954W        W29154  10.213   3.378   9.459  0.0157  0.1659  0.1185
28955W        W29155   7.404   3.763   0.558  0.0954 -0.1337  0.2906
28956W        W29156  10.889   3.352   9.594  0.0120  0.4304  0.0325
28957W        W29157   0.092   1.878  13.222  0.4027 -0.1527  0.2721
28958W        W29158  10.597   3.043   9.305  0.1007  0.1087 -0.1445
28959W        W29159   5.999   1.703  10.092 -0.2898 -0.1680  0.0253
28960W        W29160  12.011  16.540   2.776  0.2947 -0.1399  0.0424
28961W        W29161  10.334  14.956   4.618 -0.0673  0.0209  0.0512
28962W        W29162  10.189  16.744   5.407 -0.2241 -0.0105 -0.3196
28963W        W29163   8.164   5.313   3.051  0.1368 -0.0638  0.2871
28964W        W29164   6.679   6.258   4.589 -0.1499  0.2169 -0.1466
28965W        W29165  10.876  16.284  12.833  0.3325 -0.0742  0.0203
28966W        W29166   8.587  16.438   2.990 -0.1438 -0.0324  0.1772
28967W        W29167   1.646   3.498  10.617  0.2084 -0.0483 -0.1906
28968W        W29168  17.347   8.852   5.141 -0.0378 -0.2049  0.2731
28969W        W29169   9.350   4.055   9.375 -0.1262 -0.0548 -0.1072
28970W        W29170   0.697  14.443   8.573  0.1182  0.0500 -0.0675
28971W        W29171  12.424  14.258  12.878  0.2004 -0.0401  0.1036
28972W        W29172  17.575   2.577   9.470  0.1861  0.0755  0.0633
28973W        W29173   1.269  14.271  13.558  0.2547 -0.2113  0.4556
28974W        W29174   8.396  18.045  11.016  0.2558  0.1718  0.1160
28975W        W29175  14.301  17.620   9.904  0.0306 -0.1553 -0.0306
28976W        W29176  16.782  13.056   7.249 -0.0404 -0.0122 -0.0220
28977W        W29177   9.292   3.407   7.774 -0.2996 -0.0938  0.0058
28978W        W29178   8.669   1.351   7.317 -0.0669  0.1683  0.3603
28979W        W29179   7.840  16.999   1.564  0.2712  0.1298  0.0488
28980W        W29180   4.653   1.748   5.178 -0.3132  0.0499 -0.0066
28981W        W29181   7.787   3.012  10.809  0.0972 -0.0397  0.0553
28982W        W29182   3.364  13.757   1.839 -0.2109 -0.1462  0.1415
28983W        W29183   0.009   3.012  16.196 -0.1488  0.1195  0.1483
28984W        W29184   3.195  12.768  17.841 -0.0144 -0.1993 -0.1449
28985W        W29185  11.663  13.996  15.657  0.1601  0.0294 -0.1572
28986W        W29186   4.395   9.109  13.224  0.1892  0.1940 -0.0372
28987W        W29187  14.363  16.097   0.344 -0.0476 -0.1719 -0.0101
28988W        W29188  11.586   1.060   6.517 -0.0427  0.1670  0.0994
28989W        W29189   9.563   0.472  15.564  0.1407  0.1175 -0.2350
28990W        W29190   3.180   1.779   4.748  0.0485 -0.3578 -0.1470
28991W        W29191   3.694  15.314   6.955 -0.0414  0.0303  0.5155
28992W        W29192   7.602  15.193   1.440  0.2881 -0.1204 -0.0123
28993W        W29193   9.357   8.921  11.369 -0.2468  0.0935 -0.0866
28994W        W29194   6.959  16.968   6.102  0.4171 -0.1693 -0.0534
28995W        W29195  15.210  17.825  14.908  0.1892  0.1419 -0.3127
28996W        W29196  11.916   0.192   7.981 -0.0178  0.1445 -0.3325
28997W        W29197   6.683  14.724   5.407 -0.4612  0.2767 -0.1931
28998W        W29198  15.233  12.102  13.095 -0.0262  0.2853 -0.2320
28999W        W29199   8.472  14.982   8.747 -0.1855 -0.1393  0.0155
29000W        W29200   9.450   7.358   9.168 -0.0449 -0.4025 -0.0539
29001W        W29201   9.309  13.917   9.936  0.1926  0.1900  0.0158
29002W        W29202   9.880  10.522  18.185  0.1894  0.0037  0.0397
29003W        W29203   1.814  13.139  14.027 -0.0015 -0.1884 -0.0541
29004W        W29204  14.576  14.821  14.055  0.0695  0.0232 -0.0782
29005W        W29205  10.094   5.615  11.392  0.0285 -0.0596 -0.2839
29006W        W29206   6.536   3.281   9.431 -0.0081 -0.1336  0.1188
29007W        W29207  10.939  18.199   1.447 -0.1225  0.1020 -0.2220
29008W        W29208   4.965  15.037   6.070 -0.1277 -0.1751  0.1757
29009W        W29209  13.546   0.098   9.848 -0.2889 -0.1301 -0.0719
29010W        W29210   6.320  17.865  11.897 -0.0367 -0.1529 -0.1123
29011W        W29211  11.077   2.640  10.519  0.1124  0.4011  0.0256
29012W        W29212   2.795   9.329  11.335  0.1984 -0.4220 -0.1161
29013W        W29213  13.705  13.616   3.316  0.1774  0.1800  0.2092
29014W        W29214   0.647   3.104   6.654  0.1976 -0.0201 -0.2022
29015W        W29215   8.774  11.402  15.786 -0.3851  0.1240 -0.0705
29016W        W29216  16.841  18.017   9.148 -0.2867  0.0782 -0.2812
29017W        W29217   2.959   4.972  14.291  0.2132  0.2935 -0.1556
29018W        W29218   6.173  12.704  11.813  0.1822 -0.0789 -0.0843
29019W        W29219   2.083  11.626  13.367  0.0449 -0.1807  0.3940
29020W        W29220  13.551   7.163  13.001 -0.0592 -0.1659  0.0861
29021W        W29221  16.844  17.164   8.151 -0.0069 -0.2408  0.1475
29022W        W29222   7.996  17.588  10.665  0.0254  0.1642 -0.1998
29023W        W29223  16.260  15.570  12.944  0.1384 -0.2077 -0.2789
29024W        W29224   8.180   2.867  16.617  0.0180 -0.0534  0.1414
29025W        W29225   7.031  17.794   8.447 -0.1967  0.1983 -0.1472
29026W        W29226  13.804  12.929   9.694  0.0582  0.1135  0.1753
29027W        W29227  18.094  15.095  16.398 -0.1792 -0.0421 -0.1449
29028W        W29228  14.041   0.165   6.873 -0.0822 -0.0274 -0.0246
29029W        W29229  17.209   0.725  14.865  0.1630 -0.2575  0.1677
29030W        W29230   7.677  11.646  14.975  0.0504  0.3131  0.1353
29031W        W29231   5.783   3.218   5.895 -0.1438  0.0927  0.3468
29032W        W29232  14.054   5.132   8.719 -0.0072  0.1889  0.0801
29033W        W29233  13.646   2.516   7.605 -0.0805 -0.0286 -0.0964
29034W        W29234  17.121   8.259  12.055 -0.2064 -0.2382  0.0665
29035W        W29235   7.414   9.808  10.854 -0.1602  0.1513 -0.2182
29036W        W29236   9.718   6.627  12.710 -0.1732 -0.3403 -0.0239
29037W        W29237   8.829  17.657   3.207  0.2033  0.2232  0.0430
29038W        W29238  11.654   8.626  10.297  0.0957 -0.0529 -0.2028
29039W        W29239   7.440  15.899   8.836  0.1416 -0.0570 -0.3049
29040W        W29240   9.214  15.795   8.252 -0.0674  0.1814  0.0486
29041W        W29241  11.596  14.794   8.801 -0.3578  0.0588 -0.1067
29042W        W29242   4.206  14.139  15.187 -0.0417 -0.0576  0.0430
29043W        W29243  12.362  15.709   7.758 -0.1090 -0.2568  0.0049
29044W        W29244  10.876   2.477   8.989 -0.0474 -0.3034  0.3849
29045W        W29245  14.580   0.483   6.898 -0.0670  0.0262  0.2108
29046W        W29246   4.789   1.165  11.289  0.0207 -0.0015 -0.0112
29047W        W29247  15.823   6.004  12.595 -0.0029  0.0783 -0.1219
29048W        W29248  14.956   1.366  10.462 -0.0237  0.0462  0.1689
29049W        W29249  14.722  15.011   5.640 -0.4184  0.0807 -0.3150
29050W        W29250  14.141   4.575   0.495  0.0316  0.0644  0.2613
29051W        W29251  11.914  17.497   7.879 -0.0266 -0.2629 -0.2696
29052W        W29252   4.987  13.955   8.770 -0.0495  0.1396  0.1265
29053W        W29253  16.547   1.849   7.216  0.0102 -0.0945  0.0458
29054W        W29254  12.963  17.816  11.793 -0.3654 -0.2346  0.0180
29055W        W29255   7.721   4.122   8.919  0.0877 -0.0539 -0.2545
29056W        W29256   8.449  17.296   8.326  0.0563  0.0863 -0.0794
29057W        W29257   4.079  13.460  10.761 -0.1435  0.1448 -0.0518
29058W        W29258   8.791  11.358   6.602 -0.1054  0.2191  0.3460
29059W        W29259   6.526  18.141   3.627  0.1074  0.0485 -0.2625
29060W        W29260   0.807   0.645   2.740 -0.1619  0.1332 -0.0260
29061W        W29261   8.639   2.434   6.735  0.0752 -0.0086  0.0467
29062W        W29262  11.421  13.622   1.451 -0.3122  0.1293  0.2267
29063W        W29263   6.616  18.079   2.024  0.6113  0.1731 -0.1139
29064W        W29264   9.888  10.919  14.507 -0.2297  0.1694 -0.2353
29065W        W29265   9.625   2.504   5.070 -0.1222 -0.0277 -0.1749
29066W        W29266   4.978  13.423  10.732 -0.0810  0.1594 -0.0599
29067W        W29267  10.767  10.994   9.419  0.4717 -0.0658  0.0103
29068W        W29268  13.753   0.527   8.560  0.1355  0.2664  0.0524
29069W        W29269   6.106  14.640  10.616  0.0460 -0.2389 -0.1856
29070W        W29270  15.086   0.313  12.208  0.0038 -0.3414  0.0439
29071W        W29271  11.894   0.551   9.921 -0.1819  0.2082  0.1565
29072W        W29272   6.796  12.801   8.554  0.0496 -0.1211  0.1667
29073W        W29273   0.255   2.646  13.589  0.1067 -0.0096  0.2750
29074W        W29274   8.308  15.701  15.879 -0.3724 -0.1947 -0.3903
29075W        W29275  13.558   5.325  14.681  0.1250  0.0122  0.1498
29076W        W29276  13.660  14.879  13.855 -0.1645  0.0911 -0.4811
29077W        W29277   6.991  14.093   3.679 -0.1037 -0.3091  0.2686
29078W        W29278  12.617  14.301   5.864 -0.0775  0.0638 -0.3385
29079W        W29279   8.467   1.700   5.583  0.2615 -0.1187 -0.1085
29080W        W29280  17.031   1.695   6.235 -0.2417 -0.0223 -0.0399
29081W        W29281  11.772   9.922   8.923  0.1590 -0.3181 -0.1065
29082W        W29282  10.914   3.623   7.995 -0.3072 -0.2385  0.2193
29083W        W29283   2.546   3.624   3.519  0.1216 -0.0001  0.3348
29084W        W29284  16.793  13.677  14.080  0.0030 -0.1285  0.0106
29085W        W29285   9.535  16.370   1.979  0.2679  0.2163  0.1189
29086W        W29286  15.389  17.189   7.122  0.0080  0.0998 -0.0533
29087W        W29287   9.069  16.433   1.688  0.2123 -0.2351  0.0484
29088W        W29288   6.362  14.404  10.964  0.3437  0.1656 -0.1193
29089W        W29289  17.471  15.398   9.698 -0.0152 -0.0913  0.2830
29090W        W29290  11.143  16.877  16.618 -0.1002  0.1239 -0.0272
29091W        W29291  11.888   4.250   9.158 -0.0794 -0.0536 -0.0652
29092W        W29292  14.159  11.391  12.304  0.3026  0.1570  0.2146
29093W        W29293   8.429  15.413  13.093  0.0432  0.1634  0.0478
29094W        W29294  17.565  14.036   7.755 -0.2321 -0.0811  0.0781
29095W        W29295  12.444  17.087  10.338 -0.0137 -0.1519  0.1199
29096W        W29296   1.555  13.890   0.479  0.0125  0.3012  0.2227
29097W        W29297   0.384  11.632  16.837 -0.2556  0.0283  0.0156
29098W        W29298   9.927   6.104   8.274 -0.1023 -0.2994 -0.0584
29099W        W29299  11.234   7.617  10.128  0.0964  0.1745 -0.1948
29100W        W29300  14.512   9.471  12.245  0.0400  0.2483  0.0156
29101W        W29301   1.306   5.036  11.628 -0.1850 -0.0088  0.2545
29102W        W29302   8.085   2.481  12.570  0.2599 -0.1521 -0.0617
29103W        W29303  15.674  16.370  10.905  0.2924  0.0755  0.1690
29104W        W29304   5.101   2.770   8.273  0.0606 -0.1542  0.1330
29105W        W29305   3.709   3.848  13.971  0.0400 -0.0961  0.0066
29106W        W29306   6.586  14.165  17.238  0.3465 -0.0922 -0.0529
29107W        W29307  11.271  16.103  17.450  0.0079 -0.2321 -0.0104
29108W        W29308   5.070   8.998  10.154  0.4658  0.0455 -0.1347
29109W        W29309  11.875  13.311   2.547  0.1596 -0.0745 -0.0341
29110W        W29310   9.760   7.651  15.115 -0.1346 -0.1090  0.2113
29111W        W29311   7.591  15.854   6.342  0.0200 -0.0360 -0.1071
29112W        W29312   2.709   8.390  13.616 -0.0917 -0.1634 -0.1025
29113W        W29313   9.228  17.680  15.070 -0.0678  0.1350 -0.0389
29114W        W29314   8.831   1.636   6.359 -0.1777 -0.1258 -0.1687
29115W        W29315   9.999  16.741   5.860 -0.2220  0.1075  0.0505
29116W        W29316   1.773  14.128  16.820 -0.2114 -0.1036  0.0219
29117W        W29317   9.606  11.691  13.989  0.0069 -0.0483  0.0082
29118W        W29318  14.465  12.145   5.046 -0.0730 -0.0024 -0.1686
29119W        W29319   3.216   1.818  11.592  0.1210 -0.3932  0.1864
29120W        W29320   9.875   5.567  14.873 -0.0339  0.0753 -0.1345
29121W        W29321   5.829   4.963   7.774  0.3422  0.0371 -0.1442
29122W        W29322  12.797   3.310  11.821  0.0280  0.1136  0.0693
29123W        W29323  16.077  17.304   5.938  0.0002  0.1361 -0.2565
29124W        W29324  17.166   9.006   6.886 -0.1226 -0.0990  0.0155
29125W        W29325   3.939  13.883  10.455  0.0119  0.2487 -0.0812
29126W        W29326  12.219   4.990  14.133  0.3889  0.0151  0.1707
29127W        W29327  12.344   1.415   4.325 -0.0045 -0.1266 -0.1693
29128W        W29328  15.601   1.614   8.139 -0.1706 -0.2468  0.0003
29129W        W29329   8.690  13.405  14.090  0.0442  0.0028 -0.0258
29130W        W29330   7.534   0.281   1.969 -0.0311 -0.3443  0.0527
29131W        W29331   9.172   3.471   1.404 -0.1290  0.2165  0.1357
29132W        W29332  13.099   6.019   9.272  0.0580 -0.1725  0.0632
29133W        W29333   8.210  12.987   8.095 -0.1556 -0.0589 -0.1799
29134W        W29334   0.288   5.086   5.777  0.1872  0.4307 -0.0136
29135W        W29335   0.665   6.298   9.700 -0.1155 -0.0816  0.0728
29136W        W29336   8.172  11.486   9.841 -0.1027 -0.0310 -0.0747
29137W        W29337   9.649   0.808   8.593 -0.1200 -0.1852  0.0295
29138W        W29338   9.816  14.502  11.097  0.0883  0.2912 -0.2328
29139W        W29339   6.815   4.448  12.082 -0.0959 -0.1534 -0.0277
29140W        W29340   3.808   1.373  11.129  0.1505  0.3011 -0.3097
29141W        W29341   9.202  14.598  11.434 -0.0049 -0.0948 -0.2878
29142W        W29342  12.448  13.423  15.316  0.1549  0.1148  0.0116
29143W        W29343  16.689  15.589  15.070  0.0741 -0.0495 -0.0055
29144W        W29344   6.131  16.423   5.103  0.1067 -0.1390 -0.1320
29145W        W29345  11.553  13.702  14.875 -0.1556 -0.3177 -0.0009
29146W        W29346   9.572  13.040   6.876  0.0041  0.0359  0.0618
29147W        W29347  16.708   8.577   9.621  0.0072  0.4547  0.3682
29148W        W29348  13.368   0.738   9.708  0.1069 -0.2534 -0.1615
29149W        W29349   8.890  17.772   2.477  0.2383 -0.1203  0.0164
29150W        W29350  13.022   5.056   9.479 -0.1021 -0.0362  0.2559
29151W        W29351  15.936  14.759  12.417  0.0819 -0.1647 -0.2671
29152W        W29352  11.644   7.338  10.206 -0.3023 -0.3574  0.2807
29153W        W29353  14.350   3.218   5.016 -0.1963 -0.0699  0.0267
29154W        W29354   0.573  12.776   8.509  0.4153  0.0992 -0.0468
29155W        W29355   5.974  16.980   6.190 -0.2686 -0.1053  0.2099
29156W        W29356   7.561   5.837   9.135  0.2141 -0.1229 -0.2110
29157W        W29357   9.770  15.262  16.809 -0.1377  0.2589  0.1178
29158W        W29358  14.912   0.114  14.203 -0.0538  0.1064 -0.0111
29159W        W29359   7.808  14.649  12.437  0.1062 -0.0110 -0.0097
29160W        W29360  16.103   1.658   3.452 -0.2997 -0.1041  0.0151
29161W        W29361   4.766   8.062  16.781  0.0336 -0.1675 -0.2192
29162W        W29362  16.408  17.032   6.354  0.0573  0.1601  0.0193
29163W        W29363  13.324  17.514   6.219 -0.0473 -0.0060 -0.1110
29164W        W29364  10.725  14.466  15.640 -0.3996  0.0068 -0.0064
29165W        W29365   5.639   2.364   3.856  0.0670  0.1163  0.1257
29166W        W29366   8.690  15.573   4.182  0.4896  0.0627  0.0561
29167W        W29367   7.554   4.032  17.879  0.0383 -0.2431 -0.0948
29168W        W29368   6.623  11.739   7.783  0.1224 -0.0043  0.1418
29169W        W29369   2.579   0.347   9.887 -0.1645 -0.5402 -0.0515
29170W        W29370   9.220  15.875   6.195  0.0956  0.0638 -0.0136
29171W        W29371   6.958   0.381   7.845 -0.1805  0.1542  0.0197
29172W        W29372   0.892  14.530   9.973  0.1642 -0.3308 -0.0540
29173W        W29373  15.705  11.121   2.123  0.0807 -0.2315 -0.0818
29174W        W29374   9.497  16.342   7.731 -0.0180  0.2180 -0.1830
29175W        W29375  10.619  11.132   8.497 -0.1190 -0.3518  0.0724
29176W        W29376  11.772  13.682   0.961 -0.3340  0.5409  0.4975
29177W        W29377  14.567  15.064   3.015  0.0190 -0.0327 -0.0512
29178W        W29378   7.686   5.445  14.559 -0.1210 -0.0222 -0.3204
29179W        W29379  11.287  17.992   1.866  0.0255 -0.2898 -0.1407
29180W        W29380   7.350   0.210  11.160  0.1403  0.2982 -0.1023
29181W        W29381   3.720   8.412  14.955  0.0163  0.1336 -0.0046
29182W        W29382   6.463   4.820  11.025 -0.0507  0.0393 -0.2305
29183W        W29383   8.780   4.103   4.782 -0.3102  0.3292  0.0026
29184W        W29384  14.705  15.482  12.906 -0.0569  0.1118 -0.0299
29185W        W29385  13.975   8.889  14.420  0.0925 -0.1189  0.1352
29186W        W29386   2.289  13.302   7.662 -0.0311 -0.0249 -0.0361
29187W        W29387   8.002   1.400   9.923 -0.1227  0.2992 -0.0797
29188W        W29388   6.490  16.936   6.945 -0.1505 -0.2169 -0.1205
29189W        W29389  11.082   6.042  17.044 -0.0586 -0.1969  0.4150
29190W        W29390  13.330   0.955  11.566 -0.0314 -0.1221  0.0323
29191W        W29391   8.334  12.596   9.908  0.0883  0.1529  0.3570
29192W        W29392   7.666  11.913  16.526 -0.1169 -0.0469 -0.0719
29193W        W29393   6.729  16.698   2.492 -0.0994  0.2158 -0.2263
29194W        W29394   5.509  13.618   5.906 -0.3630 -0.0776  0.2591
29195W        W29395   8.007  12.925   9.182  0.0889 -0.1958  0.0498
29196W        W29396   8.000   7.292   9.549 -0.0906 -0.0131  0.0479
29197W        W29397   6.918  15.604  14.529  0.1722 -0.0398 -0.1343
29198W        W29398  10.902  12.449   9.083 -0.0885  0.2274 -0.4215
29199W        W29399   5.638  15.194   8.426 -0.2324  0.1207  0.2378
29200W        W29400  13.640  15.665   8.553 -0.1227 -0.0755  0.1087
29201W        W29401  16.135   3.252   5.400  0.1168  0.0303  0.0991
29202W        W29402  10.356   1.518   9.736 -0.2579 -0.0504 -0.1640
29203W        W29403   9.494   1.284  11.557  0.1479 -0.0656  0.1185
29204W        W29404   7.670  16.838   7.950 -0.0500 -0.1486  0.2699
29205W        W29405  13.071   1.460  15.559 -0.2611 -0.0091  0.0563
29206W        W29406   5.713  13.254   8.075  0.0265  0.1708 -0.0740
29207W        W29407  11.730  16.543   7.906  0.3352 -0.0950 -0.0599
29208W        W29408  12.668  12.265   7.540  0.1049  0.2059 -0.0242
29209W        W29409   5.238   2.014  13.206 -0.4449  0.2820  0.1861
29210W        W29410  13.045  17.714  15.830 -0.1780 -0.2103 -0.0256
29211W        W29411  16.302   2.135  14.592 -0.1902  0.2670  0.2299
29212W        W29412   8.858   3.699   7.989 -0.1158 -0.2012 -0.1589
29213W        W29413   7.865  17.815  17.619 -0.1614  0.1166 -0.1590
29214W        W29414  13.663   9.961  14.214  0.4824 -0.1153 -0.2464
29215W        W29415   6.172  13.078  17.559 -0.0255  0.0890  0.1571
29216W        W29416   6.684  12.313  12.444 -0.1326  0.1357 -0.1840
29217W        W29417  11.420  17.660  10.585  0.2010  0.2865  0.1704
29218W        W29418  11.189  15.409  10.031  0.0179 -0.1382 -0.0189
29219W        W29419  17.400  10.190  17.666  0.3026 -0.2112 -0.2799
29220W        W29420   7.983  17.517   6.556 -0.0704  0.1507  0.0103
29221W        W29421  13.664   1.936   6.591  0.0903 -0.1012  0.0563
29222W        W29422   5.253  14.158   0.300  0.0726  0.1159 -0.0079
29223W        W29423  13.138   8.747  14.891 -0.2380 -0.3938 -0.2349
29224W        W29424   2.233   0.235  13.568  0.6461  0.0908  0.0236
29225W        W29425   9.572   3.223   3.167 -0.2832  0.1383  0.0400
29226W        W29426  13.223  11.331   1.714 -0.1543 -0.0095  0.3117
29227W        W29427   8.312   3.396  13.656  0.2502  0.2276  0.1977
29228W        W29428   4.109  14.817  17.147  0.4138  0.2767 -0.0326
29229W        W29429  10.651  13.378   2.133  0.1883  0.4335  0.0946
29230W        W29430   3.120  10.630   6.104 -0.1269  0.0194  0.0099
29231W        W29431  10.511  10.801   0.975 -0.0090  0.0175 -0.2463
29232W        W29432   3.931  17.608  14.321  0.1115 -0.1084  0.0396
29233W        W29433   9.549  15.804   1.869 -0.1000  0.0391  0.0208
29234W        W29434   4.987   2.480  15.085  0.0482  0.1843 -0.0650
29235W        W29435  10.430  17.927  15.693  0.0935  0.1842 -0.0255
29236W        W29436  11.902   2.078  14.967  0.0026  0.2749 -0.2048
29237W        W29437  16.747  11.960  13.197  0.0388 -0.0712 -0.2618
29238W        W29438  10.046   0.234  14.456  0.3392 -0.0384  0.0654
29239W        W29439   6.287  15.807  17.410 -0.1933 -0.1157 -0.0098
29240W        W29440   5.200   6.548  10.507 -0.0745  0.1865 -0.2103
29241W        W29441   8.226  15.960  17.937  0.0470 -0.2548 -0.1944
29242W        W29442   1.141  14.493   2.790 -0.0785 -0.3345  0.2640
29243W        W29443  12.063   1.582  13.400 -0.1060  0.4535 -0.1785
29244W        W29444   7.755  10.659   6.885  0.2458  0.1718 -0.5098
29245W        W29445   0.953   6.801   7.484  0.1294 -0.1183 -0.1881
29246W        W29446  11.489  16.188   4.789 -0.1938  0.2373 -0.1003
29247W        W29447  12.317  16.923   0.740  0.1834  0.1433 -0.0229
29248W        W29448   8.052   1.271  16.245 -0.0595  0.1365  0.1804
29249W        W29449   3.724   7.156  16.857  0.0119 -0.0032  0.0720
29250W        W29450   5.768   5.815   9.955  0.0424  0.0095  0.4475
29251W        W29451   7.722  12.631   2.199 -0.0610  0.1232 -0.1012
29252W        W29452  10.298   3.912  14.149 -0.1122  0.1144 -0.4155
29253W        W29453   9.978  11.806  11.381  0.0002 -0.0531 -0.0192
29254W        W29454   8.379  11.315  10.486  0.0236 -0.1377 -0.0616
29255W        W29455  11.920   3.670   7.537  0.1067  0.1956  0.0576
29256W        W29456   2.383   1.733  17.138 -0.0696  0.3114  0.1073
29257W        W29457   9.459  17.819  12.861 -0.0412  0.2149 -0.0701
29258W        W29458   2.156  10.418  13.229 -0.1791 -0.1326 -0.0824
29259W        W29459   6.124  14.054  11.334  0.1612  0.2598  0.3330
29260W        W29460   3.611   5.988  16.474  0.0423  0.5032  0.0357
29261W        W29461   2.526  16.681   5.971  0.1321 -0.0968 -0.2324
29262W        W29462   4.251  11.961   1.726 -0.1057 -0.1140 -0.0508
29263W        W29463   1.496  16.664   4.841 -0.0121 -0.3389 -0.0550
29264W        W29464   9.660   3.079  12.395 -0.2962 -0.0982 -0.0317
29265W        W29465   6.390   2.984  13.743 -0.0608  0.1644  0.0710
29266W        W29466  12.975  11.897   7.692 -0.2649 -0.2064  0.0307
29267W        W29467  12.443  15.933  13.361 -0.1877  0.1849  0.1729
29268W        W29468  15.011  14.402  13.500  0.1199  0.0619 -0.1849
29269W        W29469   1.456  13.802  14.434 -0.0413  0.0987  0.0741
29270W        W29470  13.748  17.996  11.622  0.0194 -0.1333 -0.0891
29271W        W29471   6.369  17.058  15.146  0.1372  0.2094  0.0508
29272W        W29472  11.310  14.597   2.453  0.3270 -0.0534 -0.0844
29273W        W29473   8.160   0.809  10.875 -0.2450 -0.0687 -0.1902
29274W        W29474   4.700  12.265   2.520  0.0253 -0.1141  0.2356
29275W        W29475  16.011   3.402   3.509  0.0130 -0.1639  0.1306
29276W        W29476  12.953   0.927  13.652  0.2705 -0.2233  0.1577
29277W        W29477   6.958  14.078  10.938  0.0594 -0.0889  0.1314
29278W        W29478   4.390  15.106   7.646 -0.0817 -0.2361 -0.0991
29279W        W29479   8.400  15.219   1.970  0.0425  0.0584 -0.2344
29280W        W29480  13.576   1.750   8.534 -0.0539  0.2511 -0.2390
29281W        W29481   9.369  14.110   2.444 -0.0846  0.2039  0.2566
29282W        W29482   4.110  11.110   7.333  0.2186 -0.1523 -0.1348
29283W        W29483   7.879   7.658   8.101  0.1436 -0.0559  0.2292
29284W        W29484   1.554   7.562  15.078 -0.1834 -0.2018 -0.0913
29285W        W29485   8.553   7.926   7.882 -0.0436  0.1287  0.0286
29286W        W29486   5.297   4.224   0.740  0.1626  0.0557  0.3203
29287W        W29487   6.656  13.435   9.179  0.3443 -0.2027  0.0914
29288W        W29488   4.409  13.648  13.918 -0.0205 -0.0226  0.0802
29289W        W29489   9.968   9.933  15.130  0.2813  0.0185  0.1660
29290W        W29490   3.889  13.988  10.973 -0.0548  0.1315  0.2022
29291W        W29491   1.646   4.758   8.888 -0.3179  0.0002 -0.1811
29292W        W29492   4.903   8.651   9.780  0.3243  0.1172  0.0719
29293W        W29493   9.691  12.916   3.037 -0.1093  0.2172  0.2308
29294W        W29494   3.935  12.013  17.278  0.3059 -0.2718 -0.4582
29295W        W29495   6.297  14.717  13.619 -0.2360  0.0475 -0.2100
29296W        W29496  13.940  16.945  12.155 -0.0504 -0.0751  0.1380
29297W        W29497   8.342  17.841  17.733 -0.2109 -0.3217 -0.4881
29298W        W29498  13.641  14.710  13.328  0.3448  0.3106 -0.1914
29299W        W29499   5.920  16.793  15.857 -0.0766 -0.0747  0.4710
29300W        W29500   4.542  16.132  17.376 -0.1363  0.1707  0.1591
29301W        W29501   1.547   5.249  10.731 -0.3466 -0.1507 -0.1867
29302W        W29502   7.406  13.996   2.097 -0.2163  0.2713  0.1261
29303W        W29503  10.209  13.339   8.902 -0.0289 -0.1575  0.0725
29304W        W29504   8.817  11.320   9.146 -0.2120 -0.0443 -0.2319
29305W        W29505  13.602   9.219  14.089 -0.1052 -0.1525  0.1517
29306W        W29506   5.285  12.987  17.700  0.2370 -0.0019 -0.1586
29307W        W29507   6.752  14.281   5.107 -0.1336  0.2853  0.2138
29308W        W29508   4.647  15.958  15.709 -0.1711  0.2516  0.0219
29309W        W29509   2.139  11.924   0.239 -0.0316 -0.0358  0.0727
29310W        W29510  14.132   8.896  16.095  0.0486 -0.1665 -0.1202
29311W        W29511  11.478  16.942  10.029 -0.1839  0.2655 -0.2202
29312W        W29512   4.798  18.195   8.335 -0.3370 -0.1020  0.2298
29313W        W29513   8.217   1.099  14.853 -0.3403 -0.0050 -0.0990
29314W        W29514   7.925  14.265  11.088 -0.0866  0.0902 -0.0143
29315W        W29515  10.692  10.077  10.973  0.1753  0.2136 -0.0056
29316W        W29516  12.682   2.493  15.282  0.3212 -0.3000  0.0047
29317W        W29517   3.725   2.151   9.153  0.1064  0.1579  0.0243
29318W        W29518   5.698   2.208   1.053 -0.1987 -0.1757  0.0448
29319W        W29519  14.251  15.884   5.885  0.0291 -0.3696  0.3886
29320W        W29520  10.978   5.331   9.939 -0.0178  0.4395  0.0696
29321W        W29521   9.684  16.412  12.144 -0.0713  0.1813 -0.1731
29322W        W29522   9.194  14.022   9.166  0.0598 -0.2381 -0.1749
29323W        W29523  15.334   3.422   6.633  0.0469  0.1557  0.0456
29324W        W29524  10.351  17.997  17.778  0.1951  0.1493  0.0796
29325W        W29525   2.225   4.967  11.359  0.3366  0.1310 -0.0323
29326W        W29526   8.931   1.011   4.246 -0.0242  0.0643 -0.0903
29327W        W29527   7.151   9.993   0.617 -0.2853 -0.1053 -0.0205
29328W        W29528   8.383   2.047  14.533 -0.0853 -0.1045 -0.1794
29329W        W29529   8.001  16.898  17.040  0.2435  0.0789  0.0397
29330W        W29530  10.131   2.219   1.523 -0.0976 -0.1770 -0.0201
29331W        W29531   5.891  15.679   8.216  0.1964 -0.0610  0.1665
29332W        W29532  10.814  17.279  18.176  0.0104 -0.1158  0.1117
29333W        W29533  12.295   2.948  16.366  0.2169  0.1255 -0.1864
29334W        W29534   0.328  17.300  17.325 -0.1138 -0.0538 -0.0954
29335W        W29535  10.925   0.507   8.766 -0.2432 -0.1166 -0.1777
29336W        W29536  17.314  14.387  14.190 -0.0858  0.0174  0.0253
29337W        W29537   7.416   1.399  13.934 -0.3526 -0.1984  0.0189
29338W        W29538   9.673  17.070  14.002  0.2968 -0.2000 -0.0478
29339W        W29539   2.131  12.641   1.007  0.2087 -0.1195 -0.2507
29340W        W29540   8.547  10.602  16.524 -0.0568 -0.0066  0.0352
29341W        W29541   5.161  15.099   9.901 -0.0768 -0.2806  0.1019
29342W        W29542   5.321  18.033  17.350 -0.2321 -0.0054 -0.0335
29343W        W29543  13.698   3.885   5.031 -0.0440  0.1502  0.0392
29344W        W29544  13.630  10.126   9.467 -0.0468 -0.0779  0.0900
29345W        W29545   7.638  10.768  13.922  0.0381 -0.0129  0.1116
29346W        W29546   5.346  16.789  13.109  0.2696  0.1871 -0.0897
29347W        W29547  10.160   1.670   3.786 -0.1501 -0.0803 -0.1660
29348W        W29548   2.272  11.626   0.634  0.1373 -0.1694 -0.0848
29349W        W29549  16.236   6.698   8.112 -0.0969 -0.2613 -0.0639
29350W        W29550  12.235  11.795   0.232  0.0707 -0.0000 -0.0753
29351W        W29551  11.595  10.638  12.769 -0.0493 -0.0883  0.0763
29352W        W29552  12.670   1.182  10.641  0.0952 -0.1947  0.0685
29353W        W29553   8.086  14.973  14.791  0.2024  0.1723  0.1677
29354W        W29554  14.409  16.586  13.031  0.0012  0.0158  0.0554
29355W        W29555   7.405  17.441  12.122 -0.1164  0.2495  0.1734
29356W        W29556  10.464   2.968   6.196 -0.1025 -0.0824  0.0012
29357W        W29557   3.712  14.886   7.974  0.0221  0.0562 -0.0203
29358W        W29558  11.970  15.313   1.532 -0.4792 -0.0193  0.1241
29359W        W29559   6.799  17.722  12.021  0.0996  0.1153 -0.1463
29360W        W29560  15.721  12.905  17.402 -0.0251 -0.4954 -0.5100
29361W        W29561   5.213  14.187  14.270  0.3346  0.2121 -0.1930
29362W        W29562  15.944   0.113  13.393 -0.3589 -0.1026 -0.0293
29363W        W29563   9.989   2.092   7.970  0.0465 -0.0441 -0.1122
29364W        W29564   9.914   7.694  13.574 -0.2134  0.1979 -0.1894
29365W        W29565   8.843   2.722   8.390 -0.2334  0.2353 -0.1295
29366W        W29566  16.242   2.130   9.451 -0.0782  0.1884 -0.0402
29367W        W29567  11.900   9.639   4.609  0.2050 -0.2109  0.2812
29368W        W29568   8.658  15.127   8.325 -0.3923 -0.0146 -0.2322
29369W        W29569  12.978  17.327  12.553  0.1770  0.4941 -0.0499
29370W        W29570   2.401   8.131   6.452 -0.1868  0.1854 -0.4037
29371W        W29571  13.502  12.997  14.617 -0.1094 -0.1702  0.0733
29372W        W29572   7.094   1.084  13.741  0.0390 -0.0918 -0.3686
29373W        W29573   7.868  15.289   9.351 -0.0921 -0.2258  0.0325
29374W        W29574   3.977   4.001  15.359 -0.1447  0.1239  0.1732
29375W        W29575  15.213   0.954  13.295  0.5275 -0.2400  0.1454
29376W        W29576  13.560  13.517  13.407  0.1920 -0.1115 -0.2204
29377W        W29577   9.252  17.980   0.459  0.0957 -0.0613 -0.2443
29378W        W29578  17.187  15.772   2.305  0.0315  0.1063  0.2080
29379W        W29579   6.483  15.244  14.014 -0.1149 -0.2661  0.1323
29380W        W29580   9.741  14.300  14.783  0.1219 -0.2370 -0.0734
29381W        W29581   7.880  11.162  13.391 -0.3519 -0.2346 -0.1058
29382W        W29582   8.118   2.021  12.796 -0.2491 -0.0533 -0.1179
29383W        W29583   9.650   2.292  14.148 -0.0912  0.0595  0.5972
29384W        W29584   6.594  16.370  16.954 -0.1337 -0.2805 -0.0465
29385W        W29585   1.193  13.907   6.601 -0.3098 -0.0929  0.0022
29386W        W29586   6.211  12.419  12.767 -0.0538 -0.1154  0.1027
29387W        W29587  11.121  17.202  10.817  0.2438 -0.0740 -0.0722
29388W        W29588  13.041  15.559   8.902  0.0784  0.2502 -0.1606
29389W        W29589   7.029  14.611   7.496 -0.0295 -0.1281 -0.0118
29390W        W29590   4.249  14.314   8.514 -0.1295  0.3034  0.0316
29391W        W29591   8.158  15.563  14.024 -0.1295 -0.0432  0.2444
29392W        W29592   3.472  16.550  11.469  0.3041 -0.1551  0.0798
29393W        W29593   6.203   7.120   8.666  0.1060 -0.1437 -0.0391
29394W        W29594   8.817   6.129   3.067  0.0729  0.0865 -0.0025
29395W        W29595  10.809   0.456  11.007  0.0715  0.3562  0.1923
29396W        W29596   9.443   1.478   0.875 -0.0004  0.0197 -0.1974
29397W        W29597   0.734  15.943  10.499  0.0112 -0.1818 -0.2620
29398W        W29598   6.866   5.400   2.854 -0.1861 -0.0566  0.2779
29399W        W29599  15.348  12.473   4.174  0.1234  0.2166 -0.3573
29400W        W29600   5.455   4.249  11.459  0.1768  0.1917 -0.1263
29401W        W29601  17.879   2.996   9.513  0.0239  0.1905  0.1088
29402W        W29602  17.380   4.671  18.191  0.0641  0.3646  0.0672
29403W        W29603   7.859  13.777  10.768  0.1451  0.0843  0.1256
29404W        W29604  13.167  12.233  16.441  0.2071 -0.0820  0.0835
29405W        W29605   5.866  11.709   0.396  0.2201  0.2492 -0.0992
29406W        W29606  12.122   7.408   2.936 -0.1527  0.3052 -0.2707
29407W        W29607   8.836  16.275   3.718  0.0381 -0.2328 -0.0424
29408W        W29608   9.015   5.446   0.897  0.1251  0.0419 -0.1576
29409W        W29609  15.227  11.344  15.972 -0.1346  0.2064 -0.1835
29410W        W29610   6.161   6.625  11.240 -0.1137  0.0095 -0.2680
29411W        W29611   8.396  15.125   7.707  0.1271  0.0226 -0.2467
29412W        W29612   0.648   9.872  12.088  0.1234 -0.3947 -0.2156
29413W        W29613  11.585  16.751   5.261 -0.1893 -0.1046  0.0844
29414W        W29614   1.293  15.342  16.374 -0.0316 -0.1430  0.1744
29415W        W29615   6.835  16.795  14.494 -0.3126  0.1926 -0.0527
29416W        W29616   6.216  14.623   6.190  0.2826 -0.1956  0.3639
29417W        W29617  14.976   9.637  15.916  0.0018  0.3222 -0.0344
29418W        W29618   9.621  15.648  15.079  0.1785 -0.1728  0.0599
29419W        W29619  14.181  13.808  12.171  0.1452  0.4053 -0.0271
29420W        W29620   5.991  12.461   8.161  0.1870 -0.0133  0.1631
29421W        W29621  15.954  11.126   7.992 -0.2431 -0.0662  0.1915
29422W        W29622  14.632  10.191   2.954  0.0367  0.0360 -0.0219
29423W        W29623   9.796  16.745  11.223  0.1352  0.3238  0.1332
29424W        W29624  17.181  15.328  15.844 -0.3639 -0.0061 -0.1309
29425W        W29625   9.637  12.974  10.478  0.0267  0.1336  0.0257
29426W        W29626   0.748  13.205   0.321 -0.0508 -0.1122  0.1950
29427W        W29627   1.875  14.598  12.869  0.0652 -0.0095  0.0534
29428W        W29628   9.021   5.179   8.391  0.4197  0.0645  0.1070
29429W        W29629  17.441  15.732   6.329 -0.0326  0.1519 -0.1440
29430W        W29630  16.010  15.828   9.988 -0.2186  0.1031  0.3495
29431W        W29631  11.817  17.580   4.900 -0.0572  0.0234 -0.0562
29432W        W29632  11.713  14.378   9.929  0.0775 -0.0741  0.0737
29433W        W29633  14.358   1.463  13.272  0.1410 -0.2731  0.0339
29434W        W29634   6.129  14.040  17.277 -0.1807  0.4416  0.0744
29435W        W29635   1.842  12.993  10.417  0.0521 -0.1346 -0.0484
29436W        W29636  12.532   8.315  10.292  0.0292 -0.0729 -0.2960
29437W        W29637   5.815  16.937  13.933  0.1053  0.1383  0.0744
29438W        W29638  10.958   2.802   9.624  0.1729  0.0075  0.2637
29439W        W29639  14.077  12.724  10.125  0.1082 -0.2954 -0.1840
29440W        W29640  10.223   5.669  17.011 -0.0039  0.0645  0.2096
29441W        W29641   6.827   4.412  17.655 -0.2142 -0.0682  0.1972
29442W        W29642  10.078   6.949  15.711  0.0615 -0.3415  0.0019
29443W        W29643   5.939  12.152  15.268  0.0916 -0.1195 -0.0080
29444W        W29644   9.870   4.182  11.689  0.0577  0.1559 -0.0085
29445W        W29645   8.764   2.560  11.180  0.1210  0.0224  0.0822
29446W        W29646   7.563  15.222  14.785 -0.2683  0.3216  0.0134
29447W        W29647   4.747  13.813   0.476  0.4429 -0.1511  0.1328
29448W        W29648   6.643   0.397   2.060 -0.0561  0.5841 -0.1367
29449W        W29649  10.730  12.139   7.120 -0.5017 -0.0307  0.0800
29450W        W29650   3.891  17.948  10.568  0.1228 -0.3280 -0.1514
29451W        W29651  11.748  13.958   2.983 -0.0493 -0.1976  0.3106
29452W        W29652   7.771   1.591  11.575 -0.2933  0.0750 -0.0229
29453W        W29653   1.375   3.290   0.101 -0.0191 -0.2109  0.0552
29454W        W29654  10.111  11.219  10.093  0.1392  0.4479  0.0441
29455W        W29655   9.435   4.829   7.557 -0.1801  0.2569 -0.1536
29456W        W29656   4.984   0.610  17.344 -0.0394  0.0014 -0.3141
29457W        W29657   8.494   2.379  14.910 -0.1315  0.0714  0.0377
29458W        W29658  12.469   1.218   1.692 -0.0625 -0.0234 -0.5408
29459W        W29659   8.309  13.453  12.910 -0.2257  0.0308  0.0530
29460W        W29660   9.758  14.807  16.973  0.1245  0.0370  0.1353
29461W        W29661   8.545   0.851  14.588 -0.1712  0.1831 -0.2516
29462W        W29662  12.370   0.964   6.941 -0.0388 -0.1288  0.0541
29463W        W29663  11.224   1.633   0.707 -0.3089  0.4004  0.0149
29464W        W29664  15.075   8.193  14.067  0.1270 -0.0352 -0.0966
29465W        W29665  16.813  13.153   9.455  0.3081 -0.1654  0.1847
29466W        W29666  10.076   6.644  13.567  0.1613 -0.3088 -0.0155
29467W        W29667   1.875   7.536   9.862  0.3316 -0.0304 -0.1223
29468W        W29668  14.441   4.439   0.927  0.0433 -0.1174 -0.1154
29469W        W29669   7.375   7.513  11.399 -0.0317 -0.0883  0.1304
29470W        W29670   7.305   8.390   5.079  0.3931 -0.0478  0.3671
29471W        W29671   5.368   2.210  10.332 -0.2325  0.0018 -0.1059
29472W        W29672   6.520  15.724   8.815 -0.1039 -0.1398  0.0351
29473W        W29673   8.919  16.278  11.033 -0.1419  0.2635  0.2546
29474W        W29674   9.647  14.946  11.313  0.0674 -0.2418 -0.2948
29475W        W29675  13.155  13.756  13.546 -0.2891 -0.1867 -0.0714
29476W        W29676   7.717  13.878   0.311  0.1629 -0.0598 -0.0063
29477W        W29677  13.011  15.381   9.692 -0.2387 -0.0558  0.0479
29478W        W29678  11.588  11.239  13.778  0.3314  0.1440 -0.1586
29479W        W29679   7.109  12.899   3.082 -0.1468 -0.3586 -0.1183
29480W        W29680  11.514  13.892  16.711  0.3626  0.0776 -0.0596
29481W        W29681  10.182   0.341   0.867  0.3630  0.0304  0.3032
29482W        W29682  17.410  11.891  14.694  0.3664 -0.0791 -0.2248
29483W        W29683   7.250  11.894   7.168  0.0722  0.0645 -0.1909
29484W        W29684  10.172  18.045  10.267 -0.2060  0.0825  0.0523
29485W        W29685   4.020   8.876   0.842 -0.1851 -0.2075 -0.1594
29486W        W29686   2.307  14.431   5.242  0.1270 -0.0939 -0.0935
29487W        W29687  10.593   0.595  12.728  0.2394 -0.0343 -0.1650
29488W        W29688   6.809  18.124   0.781 -0.1847  0.0058 -0.0894
29489W        W29689  15.001   0.374   8.101 -0.0483 -0.1085 -0.0196
29490W        W29690   4.636   1.163   3.543 -0.2733 -0.2373  0.1544
29491W        W29691   7.576  17.503   8.552  0.1136  0.1723  0.0523
29492W        W29692  10.722   6.497   1.014 -0.2669 -0.1887 -0.1373
29493W        W29693  10.143   6.470  11.345 -0.0405 -0.0009  0.0759
29494W        W29694   0.870  16.538  14.525 -0.2661 -0.0925 -0.0741
29495W        W29695   7.256  10.654  10.922  0.0551 -0.0634  0.1145
29496W        W29696  11.248  14.576   6.753 -0.0515 -0.0544  0.2048
29497W        W29697  17.378   9.304  13.424  0.2663  0.4095 -0.2367
29498W        W29698  17.993   9.689   0.072  0.0214  0.0122  0.0673
29499W        W29699  15.869   7.865  10.946  0.0137 -0.0701  0.1247
29500W        W29700   4.685   4.499  10.853 -0.1934 -0.2238  0.2374
29501W        W29701   6.039  16.537   0.300  0.0485  0.0736  0.2468
29502W        W29702   5.586   0.461  12.554 -0.0559  0.3241 -0.1617
29503W        W29703   7.119   0.631  16.976  0.2411 -0.3241  0.0894
29504W        W29704   7.599  10.878  11.337  0.0210  0.3798 -0.1898
29505W        W29705  12.295   0.455   8.145  0.1369  0.1672 -0.2398
29506W        W29706   8.112  17.656  13.534 -0.1479  0.3083  0.1565
29507W        W29707   8.460   7.728  12.040  0.1923 -0.0907 -0.0351
29508W        W29708  13.569   9.575  10.893  0.2901  0.3470 -0.4300
29509W        W29709   9.500  15.543  13.768  0.0637  0.3287 -0.0369
29510W        W29710   9.446   2.496   9.055  0.1381 -0.1385 -0.1812
29511W        W29711  12.030   3.502  16.627 -0.0900 -0.0344  0.2440
29512W        W29712   3.635   0.973  12.528 -0.1249  0.1814  0.3022
29513W        W29713   5.006  17.157  12.260  0.1478 -0.0426  0.3272
29514W        W29714  11.456   2.595  14.140  0.1147 -0.2113  0.1332
29515W        W29715   5.527  15.235   1.664  0.1315  0.2065 -0.1371
29516W        W29716   5.961   7.465   5.973 -0.1932  0.2010  0.0739
29517W        W29717  11.711   1.010   8.729 -0.1327 -0.2011  0.1349
29518W        W29718   4.671  16.129   6.783 -0.0747  0.0104 -0.0826
29519W        W29719   3.292   6.317  13.549 -0.1094  0.2425  0.0478
29520W        W29720   7.587   0.566   5.402  0.2937  0.0033  0.0979
29521W        W29721   4.313   1.573   1.071  0.1936  0.0729  0.0061
29522W        W29722   8.778  11.967  10.255 -0.0264 -0.0285 -0.0071
29523W        W29723   7.202   4.680  12.360  0.2794 -0.1437  0.2786
29524W        W29724   4.814   9.501   2.026 -0.3759 -0.1381  0.0876
29525W        W29725   9.396  14.118   7.869 -0.0119  0.0692 -0.0185
29526W        W29726  16.605  12.034   8.779 -0.0082  0.1664 -0.1131
29527W        W29727   6.676  11.252   1.095  0.1967 -0.0288 -0.0518
29528W        W29728   9.043   0.270   9.380 -0.1255 -0.1442 -0.1914
29529W        W29729  16.647   1.978   3.302 -0.0850  0.1814 -0.0007
29530W        W29730   2.200  15.860  15.626  0.1340  0.1420  0.1256
29531W        W29731   6.815  16.512  11.412  0.1298 -0.1510  0.3644
29532W        W29732   8.412  16.976   9.625  0.1545 -0.0097 -0.1162
29533W        W29733  12.668  17.972   7.708 -0.1482 -0.1213 -0.0416
29534W        W29734   6.008  12.711  15.334  0.1235 -0.2532 -0.1820
29535W        W29735   8.924  14.546  16.796 -0.3022  0.2574 -0.0029
29536W        W29736  15.663   1.675  11.722 -0.1384 -0.2415 -0.2728
29537W        W29737   6.412  17.269  17.900  0.0795 -0.0559 -0.0432
29538W        W29738   1.856  14.484  13.389 -0.3055  0.1402  0.2954
29539W        W29739  17.181   1.698   9.594  0.2443  0.2223  0.2633
29540W        W29740   9.221   1.805  13.353  0.1007 -0.0502  0.1172
29541W        W29741   8.671  11.372  13.983  0.0107  0.0809 -0.2035
29542W        W29742   5.822  10.683   3.489  0.1699  0.0679 -0.0049
29543W        W29743   8.517  17.377   5.425  0.1339 -0.2681  0.0481
29544W        W29744   1.491  11.048   0.178 -0.0454 -0.0303 -0.0508
29545W        W29745   3.093   4.064   9.561 -0.1225 -0.0944  0.1302
29546W        W29746  10.896   8.299   9.201  0.0021  0.1431 -0.0853
29547W        W29747  10.103  13.215   3.004  0.4028 -0.1108 -0.0594
29548W        W29748   6.630  11.809   8.240  0.2642  0.3199 -0.0859
29549W        W29749   7.824   0.373  15.216  0.2227 -0.0050  0.1181
29550W        W29750  11.090  15.930  14.718  0.0845 -0.0754 -0.0921
29551W        W29751   6.546  14.561  14.318 -0.0041  0.1507 -0.0011
29552W        W29752   8.450  13.179  17.419 -0.2838 -0.0602 -0.3319
29553W        W29753   3.554   9.157  14.421  0.0050 -0.0301  0.1762
29554W        W29754   3.282   8.205  15.737 -0.0007  0.1281 -0.0411
29555W        W29755   6.777  16.672   3.893  0.1507  0.2389  0.0524
29556W        W29756   9.928   3.002  10.252  0.1554  0.0134  0.1998
29557W        W29757   9.849  17.740   2.079  0.1476  0.2150  0.0299
29558W        W29758   4.910  15.852  12.274 -0.0602  0.2212  0.1746
29559W        W29759  16.424  18.120  16.103 -0.1382 -0.2537 -0.1376
29560W        W29760   0.635   2.323  10.744 -0.0310  0.1738 -0.2223
29561W        W29761  12.344   0.203  10.316 -0.0898 -0.0098 -0.2482
29562W        W29762  11.312   8.958  16.437  0.0645  0.0556 -0.2956
29563W        W29763  12.392  13.380  10.981 -0.1478  0.0852  0.2525
29564W        W29764   4.677  12.572  12.519  0.2126  0.1704 -0.0015
29565W        W29765  15.701   1.968   7.402  0.1337  0.2349  0.1272
29566W        W29766  13.720   8.900  10.498  0.1187  0.0154  0.1465
29567W        W29767   4.667  13.959  13.200  0.2429 -0.0834 -0.0071
29568W        W29768   5.236   2.062  13.747 -0.1475  0.1506 -0.0448
29569W        W29769   8.022  12.380   6.263  0.4665  0.1823 -0.0934
29570W        W29770   7.108  14.239  14.953 -0.1545  0.2350  0.0966
29571W        W29771   2.035  15.117   3.430 -0.0206 -0.3207 -0.2698
29572W        W29772   8.361   1.619  13.643 -0.0207  0.0466  0.0688
29573W        W29773  14.510  12.176  15.127 -0.0355 -0.2719  0.2396
29574W        W29774  14.826  14.932   1.624 -0.1087 -0.1510 -0.0541
29575W        W29775  11.409  15.203  14.008  0.1319  0.0676 -0.0338
29576W        W29776   5.272   6.577   8.728  0.0346 -0.0097  0.1657
29577W        W29777   4.213   1.060   1.242 -0.1755  0.0729 -0.2168
29578W        W29778   3.757   6.385  12.580 -0.0122  0.1630  0.0709
29579W        W29779  10.907   3.133   4.787  0.0281  0.0121  0.2740
29580W        W29780  14.922  12.997  13.187 -0.0338  0.0891  0.2559
29581W        W29781   9.365  13.407  15.958  0.1013  0.2029  0.0573
29582W        W29782   2.440  17.423  16.678  0.1954  0.3625  0.3461
29583W        W29783  11.607  17.255  16.437  0.1861  0.0306  0.0835
29584W        W29784   5.375  16.300  10.974  0.0660  0.2356  0.1174
29585W        W29785   6.985   2.698  11.703  0.4081 -0.3404  0.0209
29586W        W29786   7.823  13.369  13.413 -0.1160  0.0210 -0.2639
29587W        W29787   8.579  12.592  11.596  0.1541  0.1633 -0.1117
29588W        W29788  13.238   5.694  10.061 -0.2440 -0.0326 -0.1070
29589W        W29789  11.741   2.100  15.478  0.0504  0.1663  0.1584
29590W        W29790   5.931  11.311  16.679 -0.0402  0.0501 -0.0504
29591W        W29791   5.806  17.127  10.547 -0.3445  0.0138 -0.1086
29592W        W29792   6.694   6.787  13.474  0.1937 -0.4828 -0.2568
29593W        W29793   6.616   8.749  13.645  0.0076 -0.2483  0.3371
29594W        W29794  12.753  16.098  14.233  0.1193  0.2343  0.0044
29595W        W29795   4.012   1.169   1.969  0.0682 -0.0055 -0.2682
29596W        W29796  10.443   3.630  11.448  0.3230 -0.3957  0.0006
29597W        W29797  16.871  17.685  15.573  0.0510 -0.1604 -0.2646
29598W        W29798   1.410   1.473   3.628 -0.1320  0.0681 -0.3196
29599W        W29799   6.065  10.400  12.136 -0.1329  0.0749  0.0706
29600W        W29800   8.478   5.159   0.877 -0.0450 -0.0509  0.2407
29601W        W29801   9.382   8.423  17.872 -0.0625  0.0043  0.0280
29602W        W29802   8.210  12.809   3.119 -0.3847  0.0823 -0.0920
29603W        W29803   7.081   3.470  10.971  0.1736 -0.0876  0.0576
29604W        W29804   4.790  12.487   3.044  0.0398  0.3060  0.0135
29605W        W29805  12.813   2.919   3.208  0.1465 -0.0087 -0.4385
29606W        W29806   5.677   4.123   6.353 -0.0651  0.1284  0.0292
29607W        W29807  12.720   1.922  10.786 -0.3569  0.3764  0.0796
29608W        W29808  16.260   9.575   5.568 -0.0217 -0.1881  0.1368
29609W        W29809  10.838   3.077  10.719 -0.0845  0.0702 -0.1102
29610W        W29810   4.516   9.454  15.035 -0.2854 -0.0667 -0.3359
29611W        W29811  10.252   8.243  17.991  0.0872 -0.0827 -0.2370
29612W        W29812   5.714  18.134  12.300  0.1168 -0.2208 -0.0359
29613W        W29813  15.646   3.983   0.137 -0.0903 -0.1414  0.1013
29614W        W29814   6.614  11.210  15.967 -0.3980 -0.0843 -0.1659
29615W        W29815   7.103   1.730  13.841  0.0795 -0.3142 -0.4212
29616W        W29816  10.804   0.962   8.523  0.1860 -0.0991  0.1170
29617W        W29817  11.440  16.938   6.155  0.0116  0.1615 -0.1918
29618W        W29818  12.104  18.118   2.154 -0.1610 -0.0455 -0.1950
29619W        W29819  14.115  16.878  14.733  0.0270  0.1423 -0.2267
29620W        W29820  10.108  15.633   2.402 -0.0383  0.0626 -0.4075
29621W        W29821   5.357   4.353  10.219  0.0608 -0.1571 -0.0801
29622W        W29822   8.747   9.718  16.901 -0.1635  0.0540  0.0832
29623W        W29823  12.230  13.771  17.112  0.0568  0.2206 -0.0434
29624W        W29824  10.149  17.668  16.982  0.0387  0.2352 -0.1946
29625W        W29825   7.171  16.052  12.026  0.0648 -0.1883  0.2082
29626W        W29826   5.415  15.005  16.855  0.0776 -0.1763  0.0713
29627W        W29827   4.913  16.698  12.020  0.1150  0.1242 -0.2158
29628W        W29828   3.955   1.839  16.449  0.0248  0.0289  0.3250
29629W        W29829  12.691   1.607  18.095 -0.1633 -0.2376 -0.2249
29630W        W29830   7.879   0.892  17.515  0.1776  0.0437 -0.3466
29631W        W29831   8.382   1.604   1.241  0.1197  0.2051 -0.1020
29632W        W29832   8.636   7.999  14.937  0.1653  0.0983 -0.1468
29633W        W29833   5.986   3.969  14.483  0.0228 -0.1035 -0.0731
29634W        W29834   0.647  16.666  17.853 -0.1256 -0.2034  0.0622
29635W        W29835   9.557   2.692  11.028 -0.0017 -0.1468 -0.2274
29636W        W29836  10.508  15.010  11.799  0.0034  0.0923 -0.0435
29637W        W29837  16.984  15.100  14.473  0.3412 -0.4041  0.3091
29638W        W29838  10.670  13.238  16.637 -0.0301  0.0710 -0.1467
29639W        W29839  11.307   7.126   2.920  0.1344 -0.3313 -0.1620
29640W        W29840   5.661   1.248  16.021  0.1467  0.1498  0.2211
29641W        W29841   8.066  11.576  14.566  0.2134 -0.1160  0.0277
29642W        W29842   8.465   5.189  13.792  0.0995  0.2271 -0.5445
29643W        W29843  13.119   8.130   8.932  0.1949 -0.0810  0.0575
29644W        W29844   5.342  12.906   3.882 -0.0845 -0.2332  0.4327
29645W        W29845  13.693  12.835  17.176 -0.0524 -0.3550  0.1885
29646W        W29846  12.424  17.414   0.634  0.2363  0.1462  0.3003
29647W        W29847   5.411  10.649   7.697 -0.3413 -0.0095  0.1706
29648W        W29848   4.802   5.597  13.595 -0.1084 -0.3738 -0.2440
29649W        W29849  15.917   3.022   3.174  0.0767 -0.3790  0.0109
29650W        W29850  16.028  10.607  13.677  0.1269  0.0846  0.0014
29651W        W29851   6.129   5.832   2.380  0.0719 -0.1540  0.2523
29652W        W29852  15.074  15.228   6.034 -0.1326 -0.0273  0.0315
29653W        W29853   3.403   0.229   0.368  0.1974  0.3596  0.0024
29654W        W29854   0.076  14.740   9.057 -0.2833 -0.2172 -0.1878
29655W        W29855   5.185  16.233   0.855  0.1988  0.0921  0.1493
29656W        W29856   7.217  16.822  11.404  0.0920 -0.2335 -0.3856
29657W        W29857   8.378  15.098  11.576 -0.0669  0.1081  0.0123
29658W        W29858  13.493  16.034  14.549  0.0082  0.1219  0.1020
29659W        W29859  17.404   8.679  15.907  0.0463 -0.0982  0.0321
29660W        W29860  10.592  11.141   2.800  0.0332  0.3662 -0.3274
29661W        W29861   9.679  18.179   6.913 -0.1872  0.3455  0.1945
29662W        W29862  13.375  17.033   0.873 -0.0605  0.0465  0.0984
29663W        W29863  15.521   5.451   2.526  0.2748  0.0327 -0.0104
29664W        W29864  12.830  16.514   3.385 -0.0700 -0.2635  0.0007
29665W        W29865  10.005  17.052  14.801 -0.1879 -0.0719  0.0455
29666W        W29866   5.140   3.250  10.074  0.1950 -0.1013  0.2738
29667W        W29867   9.193   4.987   2.300  0.1298  0.1583  0.1677
29668W        W29868  13.387   2.198  14.608 -0.0238 -0.1074  0.1171
29669W        W29869   5.760   0.600   1.112 -0.1782 -0.0397  0.4478
29670W        W29870  13.737  14.340  14.760 -0.1676  0.1250 -0.0210
29671W        W29871   6.677  16.867  12.851  0.0320 -0.0248 -0.1129
29672W        W29872   1.044  16.955  12.803 -0.0102 -0.1826  0.1408
29673W        W29873   7.036  16.563  16.676 -0.2497 -0.3603 -0.0467
29674W        W29874   5.824  11.510  16.028  0.1358  0.1988 -0.0922
29675W        W29875   9.478  13.324  14.792  0.1339  0.0988 -0.3479
29676W        W29876   6.842  14.709  13.442  0.1495  0.0962  0.0337
29677W        W29877  13.877  15.542  16.001 -0.1555 -0.1220  0.0659
29678W        W29878   5.151  15.332  16.590  0.0894  0.0741  0.2868
29679W        W29879  13.354  10.305  12.668 -0.0604  0.2100 -0.1879
29680W        W29880  17.329  17.566   1.297 -0.1406 -0.0878 -0.1809
29681W        W29881   1.467   9.513  16.253 -0.1697 -0.1803 -0.1727
29682W        W29882   7.005  17.584   7.383 -0.0053 -0.0400 -0.0622
29683W        W29883  11.373  16.983  17.240 -0.1905  0.0245  0.1059
29684W        W29884  13.237   5.925  11.438  0.0475 -0.0948  0.2529
29685W        W29885  10.114  17.241  15.275 -0.1859 -0.0016 -0.0302
29686W        W29886  11.270   3.555   7.634  0.2906  0.0413  0.0411
29687W        W29887  11.088  14.619   1.631 -0.1216  0.0067  0.1278
29688W        W29888  12.582   9.424  17.802 -0.2347  0.1681 -0.4475
29689W        W29889  10.780  16.166   0.118 -0.1682 -0.2039 -0.4435
29690W        W29890  15.447  14.170  11.331 -0.2436  0.1129  0.2290
29691W        W29891  13.582   0.961   6.532 -0.0445 -0.0876  0.0896
29692W        W29892   5.167  15.519  11.916 -0.0794  0.0963  0.2823
29693W        W29893  11.946  15.202  16.937  0.1069  0.1723  0.2035
29694W        W29894  10.792  13.989  15.754  0.2309 -0.0430 -0.2146
29695W        W29895  11.528   2.856   2.601 -0.2532  0.2854 -0.1115
29696W        W29896  13.044   2.533  17.107  0.1714 -0.2531 -0.1315
29697W        W29897  12.219  11.044  16.021 -0.0099  0.4923  0.1960
29698W        W29898   7.124   4.755  15.698  0.0880  0.0723 -0.3749
29699W        W29899   9.679   9.513   1.410 -0.3234 -0.0027 -0.2068
29700W        W29900  15.769  15.000  17.760 -0.2138 -0.4543  0.1691
29701W        W29901   6.704   7.210  16.238 -0.1435 -0.0777 -0.0805
29702W        W29902   3.906   5.914   8.470  0.3368 -0.2011  0.2701
29703W        W29903  11.849  10.070  10.068  0.0842 -0.1158 -0.1636
29704W        W29904   8.487   4.639  11.778 -0.0918 -0.0942  0.1510
29705W        W29905  16.759  17.814   2.792  0.2217 -0.1114  0.1828
29706W        W29906   6.948  13.569   3.993  0.0564  0.0033  0.0922
29707W        W29907  11.245  15.618   2.181 -0.1842  0.2760 -0.2633
29708W        W29908  10.746   3.264  13.173  0.1417 -0.1846  0.1331
29709W        W29909  11.283  16.247   3.108 -0.0003  0.0384 -0.0000
29710W        W29910   1.901   3.286   3.208  0.1382  0.0785 -0.3950
29711W        W29911   7.345  13.046  12.286  0.2050  0.1483  0.1131
29712W        W29912  11.152   5.053   0.896  0.0770  0.1552 -0.2781
29713W        W29913   7.612   2.709   3.664  0.1432  0.0692 -0.1770
29714W        W29914   5.959   7.413  17.990  0.0126  0.1802  0.4040
29715W        W29915  12.474   2.754   0.807 -0.1700 -0.1868  0.2094
29716W        W29916   9.163  11.156  11.720  0.0190  0.2054  0.0615
29717W        W29917   7.396  16.115   4.356  0.0539  0.3095 -0.1055
29718W        W29918  10.595  11.731  12.113 -0.1694 -0.0387  0.0614
29719W        W29919  11.511  16.583   5.762  0.1094 -0.0186  0.1812
29720W        W29920   8.025  14.344  13.755  0.2311 -0.2843  0.1015
29721W        W29921   8.429   5.441  16.113  0.0565 -0.0039  0.2389
29722W        W29922   7.536  12.712   6.308 -0.0481 -0.0039  0.0354
29723W        W29923   9.085  12.247  16.075  0.0336 -0.0720 -0.0869
29724W        W29924   6.015  14.553  17.291  0.0650  0.0492  0.0704
29725W        W29925  14.028  17.436   0.258 -0.3003 -0.3125 -0.0167
29726W        W29926   9.800  15.285   2.953 -0.1176 -0.1293  0.3595
29727W        W29927   8.406  17.982  16.770 -0.0831 -0.1015 -0.2026
29728W        W29928   8.116  15.573  17.130 -0.3134  0.0801 -0.0169
29729W        W29929  10.245   4.897  12.809  0.1886  0.1731 -0.2440
29730W        W29930  13.334  14.781  15.083  0.0275 -0.2214  0.3601
29731W        W29931  15.009  17.705   9.213  0.1624  0.2455 -0.3038
29732W        W29932  11.484   9.349  14.423  0.1160  0.2364 -0.0734
29733W        W29933  14.961  12.886  16.859 -0.0495 -0.0133  0.0540
29734W        W29934   6.515   2.631  15.720 -0.1237  0.1989  0.0025
29735W        W29935  17.160  11.522   0.020 -0.5628  0.0558 -0.3229
29736W        W29936   3.868   0.598  16.882  0.1524 -0.2769  0.1052
29737W        W29937   6.568   4.047  14.884 -0.0241  0.1352  0.0377
29738W        W29938   2.013  17.871  12.793  0.0742 -0.0461 -0.0173
29739W        W29939  10.355  11.995   6.741  0.1613  0.0230  0.3215
29740W        W29940   6.156  15.569   6.006  0.2266  0.2015 -0.0479
29741W        W29941  12.178  13.760  13.671  0.0452  0.3617  0.2705
29742W        W29942  10.728   5.939  14.335  0.0651 -0.0362 -0.0222
29743W        W29943  11.899   5.233   8.638  0.0271  0.1726 -0.1098
29744W        W29944  10.189  16.309   6.297 -0.3270  0.0237 -0.2137
29745W        W29945   4.877  13.367  13.919  0.2846  0.2154  0.2805
29746W        W29946  13.040  14.958  11.253  0.2032 -0.3868  0.0968
29747W        W29947   7.664   2.209  11.451  0.0924 -0.1891  0.1511
29748W        W29948  16.526  17.136  11.309 -0.0656 -0.1487 -0.2917
29749W        W29949   3.933  14.336  16.039  0.0686  0.1593  0.1180
29750W        W29950  11.847  12.916   0.791 -0.3929 -0.1458 -0.0929
29751W        W29951  13.773  17.290   5.921  0.1062 -0.0922 -0.0360
29752W        W29952  15.666  18.192   3.026  0.0982  0.4311  0.1846
29753W        W29953  12.481   2.453   3.673  0.0263  0.0908 -0.0188
29754W        W29954   5.091  12.098  17.844 -0.0651  0.0674 -0.0371
29755W        W29955   9.125  16.856   0.346 -0.1074 -0.1555 -0.0927
29756W        W29956   8.685  10.535   3.015 -0.1964  0.1068 -0.0946
29757W        W29957   9.804   4.935  14.413  0.1313  0.0598  0.1103
29758W        W29958   9.804  17.816  17.812  0.0207  0.3958  0.0649
29759W        W29959   1.773  12.420   0.702  0.0701  0.2342 -0.0704
29760W        W29960  15.248  11.865  17.957  0.2327  0.2401 -0.0899
29761W        W29961  10.429  13.606  14.167 -0.1019 -0.1811 -0.1414
29762W        W29962  11.544  15.690   9.550  0.0893 -0.0376 -0.0606
29763W        W29963   3.783   3.290   5.164 -0.1260  0.0048  0.0700
29764W        W29964   5.511  15.725  16.272  0.0955 -0.1164  0.1444
29765W        W29965  18.000  11.655  16.115  0.0180 -0.1092  0.1015
29766W        W29966   6.211   5.996  14.711 -0.2428 -0.0218  0.0053
29767W        W29967   9.428  12.239   3.811  0.1898  0.3197  0.4165
29768W        W29968   7.932  14.658  16.707  0.1135 -0.1684  0.0200
29769W        W29969   6.575   0.038  13.216 -0.0170  0.1335 -0.5820
29770W        W29970  13.459  12.882  18.107 -0.0047 -0.0873  0.2381
29771W        W29971   5.076   3.198   1.235 -0.5439 -0.3017  0.1780
29772W        W29972   8.893   7.579  12.847  0.2572 -0.0800  0.0047
29773W        W29973  17.081   2.038   4.935  0.1309  0.0298 -0.1965
29774W        W29974   8.316   2.720   9.049  0.0971  0.0115  0.2706
29775W        W29975  11.549  11.350   6.159 -0.0755 -0.2274  0.1395
29776W        W29976   3.609  14.127  12.572 -0.1132 -0.0994  0.1549
29777W        W29977  11.612   0.240   3.367 -0.2548  0.4935 -0.0334
29778W        W29978   6.982  17.107   2.117 -0.4183  0.1227  0.0173
29779W        W29979  10.395   0.606  16.129  0.2424  0.0546 -0.3164
29780W        W29980  11.151   0.728  12.161 -0.0872 -0.1264 -0.1415
29781W        W29981   2.647  16.728  13.265 -0.1844 -0.1159 -0.0847
29782W        W29982   9.747  14.158  13.609  0.1294 -0.1334 -0.1767
29783W        W29983  15.946  13.921  15.962  0.0043 -0.3071  0.1985
29784W        W29984  11.708   8.810   4.109 -0.0393  0.0183  0.0912
29785W        W29985   7.391   2.671  15.412  0.1839  0.0891 -0.0611
29786W        W29986   9.452  16.405   2.831  0.1278 -0.2377  0.0783
29787W        W29987  12.460  16.787  17.935 -0.1065  0.4768 -0.0125
29788W        W29988   8.244   1.974   2.535  0.0124 -0.1178  0.2367
29789W        W29989  11.167   7.241   7.573  0.1400 -0.0105  0.1247
29790W        W29990   6.472  17.308   7.383 -0.5114  0.0504  0.0819
29791W        W29991   7.910  18.157  16.917 -0.1817  0.0295  0.1783
29792W        W29992   9.248  14.069   4.536  0.2613 -0.0835 -0.2953
29793W        W29993  12.221  17.650  16.909 -0.0523 -0.0613 -0.2025
29794W        W29994  10.302   0.797  18.153  0.1235 -0.0793 -0.0618
29795W        W29995  11.463  13.553  10.838 -0.2443 -0.3173 -0.1800
29796W        W29996  12.503  13.640   3.996  0.3751  0.3134 -0.0093
29797W        W29997   6.042  14.234   2.678 -0.1259 -0.0430  0.0770
29798W        W29998  12.413  14.489  15.587 -0.0501  0.0024 -0.0830
29799W        W29999   9.402  10.032  13.304  0.0242 -0.0815  0.1934
29800W        W30000  15.413  13.352   5.443  0.2890  0.1565  0.0085
29801W        W30001   6.193   6.497   3.747  0.3442  0.5252  0.0462
29802W        W30002  11.212   9.002   1.556 -0.0502  0.1515  0.0917
29803W        W30003   7.890  14.170  14.181 -0.0677 -0.0731  0.0621
29804W        W30004  16.692  15.618  14.529 -0.0533  0.1860 -0.0865
29805W        W30005   1.471  15.243  12.471  0.0095  0.0906  0.0378
29806W        W30006   9.963  16.259   7.786 -0.3926  0.3432  0.0083
29807W        W30007  13.371   9.709  17.632  0.1788 -0.4711 -0.0012
29808W        W30008   7.072  12.977  13.095 -0.3809 -0.2384 -0.1613
29809W        W30009  14.028  13.616   2.878 -0.2123 -0.0023 -0.3493
29810W        W30010   9.134   3.005   8.764 -0.0740  0.0524 -0.1130
29811W        W30011   6.088  16.940   0.056 -0.0509  0.1731  0.2908
29812W        W30012   7.990  12.614   0.831 -0.2751  0.1934 -0.0911
29813W        W30013  11.314  16.521   9.863 -0.1403 -0.2255 -0.3876
29814W        W30014   4.600  14.712  12.543 -0.0581  0.0043  0.0199
29815W        W30015  15.855   1.930   1.302  0.0409 -0.0903 -0.1212
29816W        W30016  14.690   0.067  10.347 -0.3925  0.0052 -0.0882
29817W        W30017   6.051  13.864  15.537  0.2672  0.0651 -0.0415
29818W        W30018  14.718  13.968  16.664  0.1692  0.0349  0.1873
29819W        W30019  10.289   5.866  13.999 -0.1160 -0.0176 -0.1552
29820W        W30020  10.325   9.137  12.468 -0.0385  0.1262 -0.1597
29821W        W30021  14.896  18.111  17.282 -0.0354 -0.3039 -0.2200
29822W        W30022   8.975   5.725  14.894 -0.0332 -0.0904 -0.0213
29823W        W30023   6.507  15.884  14.705  0.3718  0.2060 -0.0136
29824W        W30024   7.348  16.192   5.989  0.2429 -0.0828 -0.4335
29825W        W30025  10.811  16.850  17.090  0.0067 -0.1024 -0.1534
29826W        W30026   9.366  17.234  12.040  0.0831 -0.0694 -0.2459
29827W        W30027   6.983  12.151  18.126 -0.1462 -0.1021  0.2158
29828W        W30028  16.943  17.125   8.628  0.1228 -0.1950  0.0350
29829W        W30029  11.514   0.868   7.069 -0.2991 -0.2282  0.1299
29830W        W30030  11.821  14.644  16.952 -0.3074 -0.2667  0.0220
29831W        W30031   4.168   1.551   9.692  0.1444 -0.2627  0.2557
29832W        W30032   2.536   1.552  15.869  0.2157  0.2088 -0.1156
29833W        W30033   4.116   6.324  11.264 -0.0620  0.2521  0.2885
29834W        W30034  10.252   2.976   0.683 -0.4229  0.0571  0.3008
29835W        W30035  15.762   1.074  18.132  0.2352  0.0399  0.0095
29836W        W30036   9.255   1.365  17.965 -0.0630 -0.1151 -0.3202
29837W        W30037   7.979  17.097  15.646  0.0980  0.1621 -0.0657
29838W        W30038  13.295   0.501  11.349  0.1074  0.2678 -0.2201
29839W        W30039   9.926   9.533  13.940  0.1175  0.2027  0.0898
29840W        W30040  10.901  16.047   2.147 -0.0236  0.3408 -0.1571
29841W        W30041   8.007   1.864   3.090  0.2010  0.0346  0.0449
29842W        W30042  14.617  17.803  14.703  0.1606  0.2429  0.0521
29843W        W30043   9.275   5.239   3.995 -0.0406 -0.3421 -0.1433
29844W        W30044  17.592  12.714   1.710  0.4120 -0.0491  0.0243
29845W        W30045  12.566  16.627  16.504  0.0142 -0.0583  0.0570
29846W        W30046  13.016   0.215   1.969 -0.2006 -0.0828  0.0869
29847W        W30047   6.523  14.704   7.490  0.1924  0.0439 -0.2903
29848W        W30048   8.096   0.140   9.719 -0.1248  0.0136  0.0456
29849W        W30049  11.857  14.234  17.802  0.2830 -0.0732  0.1826
29850W        W30050   7.142  13.193   5.716 -0.1374  0.1767 -0.2066
29851W        W30051  12.446   2.621   2.390 -0.0367  0.2003 -0.3579
29852W        W30052   4.651   1.582  15.727  0.4476 -0.1997  0.2809
29853W        W30053   8.596   2.077   3.412 -0.0293  0.1890 -0.0916
29854W        W30054   9.313  17.250   0.056  0.3134  0.0490 -0.2044
29855W        W30055  16.375  14.617   4.495 -0.1742  0.3441 -0.2852
29856W        W30056  10.467  17.173   7.627  0.2690  0.1083 -0.1288
29857W        W30057  10.617   5.584   2.028 -0.3482  0.3037  0.0534
29858W        W30058   5.024  18.144   0.631  0.1821  0.1250 -0.0345
29859W        W30059   3.170  11.527  16.898  0.0620 -0.1278 -0.1609
29860W        W30060  13.429   4.215  18.102 -0.1477  0.1585 -0.0995
29861W        W30061  14.478  14.317  17.093  0.1212  0.2402 -0.1421
29862W        W30062  17.466  12.249   1.587 -0.0880  0.1189 -0.0102
29863W        W30063   9.976   3.843   0.954  0.1332  0.0949 -0.2195
29864W        W30064   5.832  16.231   6.590 -0.0565  0.0437 -0.1186
29865W        W30065   7.020  16.128  14.467 -0.2265 -0.0387 -0.1963
29866W        W30066  13.158   1.284  15.093  0.0377  0.0166  0.2054
29867W        W30067  12.220  16.716  15.261  0.3464  0.1777  0.1081
29868W        W30068  11.527   0.632  17.939  0.0163 -0.2888  0.1879
29869W        W30069   4.013   1.307  12.202 -0.1199  0.1177  0.0961
29870W        W30070  10.394   6.075  17.391  0.0536  0.2692  0.0404
29871W        W30071   8.152   8.604   0.373  0.0232  0.4222 -0.0400
29872W        W30072   8.568  13.887   3.723  0.0412  0.0362  0.0921
29873W        W30073   3.786  16.685  16.293  0.1280  0.3961 -0.1032
29874W        W30074   8.114   2.376  13.176 -0.0400  0.0433 -0.1317
29875W        W30075  17.438   0.266  15.334 -0.1974  0.1906 -0.1046
29876W        W30076  11.462  17.697   3.167  0.0649 -0.1368 -0.3913
29877W        W30077  14.679  14.189  17.549 -0.0606 -0.3506 -0.0771
29878W        W30078   9.316   9.828  11.906  0.2398 -0.0406 -0.2260
29879W        W30079   6.942  16.182   0.014  0.2040  0.0002 -0.0461
29880W        W30080  15.062  15.570   0.897 -0.0424  0.1648  0.0259
29881W        W30081   8.589  14.579  11.460 -0.3142  0.2324 -0.0308
29882W        W30082   9.722  17.678   0.109  0.2510  0.0002 -0.0246
29883W        W30083  11.511  10.128   3.153 -0.0795  0.1515  0.4607
29884W        W30084   8.930   7.469  17.538 -0.0157 -0.2184  0.3084
29885W        W30085  12.575  13.099   0.026 -0.2907 -0.1299  0.2354
29886W        W30086  17.274  14.579  17.903 -0.0417  0.2146 -0.0836
29887W        W30087   2.762  14.573  16.210 -0.1354  0.0438  0.2232
29888W        W30088   9.473  13.103  11.525 -0.1584  0.0615  0.1689
29889W        W30089   5.770  17.047  12.925 -0.3804 -0.1703 -0.1007
29890W        W30090   4.420  10.279   0.297 -0.0846  0.1171 -0.0209
29891W        W30091  10.215  17.894  16.293  0.1553 -0.3823  0.2038
29892W        W30092  16.404   2.203   0.639 -0.4289  0.0139  0.1537
29893W        W30093   2.187  14.850   1.359  0.0182  0.2078 -0.1761
29894W        W30094  15.096  12.199  15.238 -0.0552 -0.1725  0.1498
29895W        W30095  11.955   8.803   3.638 -0.0095  0.0649  0.1246
29896W        W30096   4.812   1.914   0.107  0.0095 -0.2238 -0.2609
29897W        W30097   9.057   8.294  17.094 -0.2190 -0.0846 -0.0615
29898W        W30098  14.642   1.195   1.981 -0.0356 -0.1209  0.0858
29899W        W30099  12.950   1.185   7.124  0.1555  0.0678 -0.3224
29900W        W30100   1.212  11.916  14.458 -0.2375  0.1705  0.0616
29901W        W30101   8.288   1.546  11.741 -0.3926 -0.0554 -0.1593
29902W        W30102  16.555   7.761   0.194  0.1428  0.2494  0.0691
29903W        W30103  11.290   8.411  12.042  0.0803 -0.0077  0.0726
29904W        W30104  15.379  11.913  14.706  0.1558 -0.0195 -0.2552
29905W        W30105   6.264   6.238   7.120 -0.0329 -0.0173 -0.0777
29906W        W30106   9.796  14.055   8.173 -0.2091  0.0199 -0.1059
29907W        W30107   7.945  10.950   7.896  0.0697 -0.1304 -0.0110
29908W        W30108   9.229  11.896  16.799  0.2227 -0.2711  0.0468
29909W        W30109  13.150  11.679  15.296  0.4676  0.2200  0.0987
29910W        W30110   8.362  14.692  13.377 -0.1237 -0.2320  0.0755
29911W        W30111  10.022  18.027  17.324  0.1576 -0.1526  0.0039
29912W        W30112   2.770  14.574  14.891 -0.1239  0.4844 -0.0577
29913W        W30113   2.442   0.770   0.108 -0.1487 -0.0078  0.0049
29914W        W30114   3.901   7.513   2.099  0.0309  0.0429  0.1141
29915W        W30115   5.076  15.104  17.931 -0.1415 -0.1625 -0.1014
29916W        W30116  11.055  16.495   1.119  0.1392  0.1593 -0.1057
29917W        W30117  12.907  17.800   4.649 -0.0151 -0.1334  0.1958
29918W        W30118   8.753  16.487  13.041  0.0822  0.1241  0.0497
29919W        W30119   5.248  16.634   2.829 -0.3727 -0.4429  0.1405
29920W        W30120  10.724  13.357  15.245  0.2273  0.1665 -0.0919
29921W        W30121   8.083  10.457   7.319  0.1819 -0.2145 -0.2203
29922W        W30122   7.992  13.640  17.503  0.0230  0.1393  0.0038
29923W        W30123  10.612   8.814   2.342  0.0629  0.1299 -0.0007
29924W        W30124  12.712   3.346  14.312  0.1641 -0.1522  0.3411
29925W        W30125   6.429  12.585   0.372  0.0968  0.1800  0.1905
29926W        W30126   8.421   4.243   0.663  0.0005  0.1193 -0.1277
29927W        W30127   5.604  10.811   3.996 -0.1109  0.0933  0.1235
29928W        W30128   5.683   7.696  14.028 -0.0696 -0.2074 -0.0510
29929W        W30129   8.611   0.251   5.356 -0.3093  0.0922 -0.0202
29930W        W30130   9.723   0.326  13.156  0.0951  0.1226 -0.0341
29931W        W30131  13.914  14.878   3.691  0.1013  0.1334 -0.3496
29932W        W30132  11.433   5.111   8.692  0.1435 -0.2847  0.3611
29933W        W30133   8.652  13.519  11.912 -0.0986 -0.0061  0.1126
29934W        W30134   4.472  14.125  14.640 -0.2699 -0.4640 -0.0149
29935W        W30135  13.501  16.059   5.344 -0.1831  0.3196 -0.1020
29936W        W30136  14.948  13.694  16.385  0.1186  0.4857 -0.3836
29937W        W30137  17.131  12.186  16.825  0.1572  0.4139 -0.0884
29938W        W30138  14.518  12.485  16.073  0.0992 -0.0304 -0.2441
29939W        W30139  14.927   1.471   6.366 -0.2397 -0.3346  0.2579
29940W        W30140   5.491   3.495   1.327  0.0615 -0.1361 -0.4452
29941W        W30141   2.820  16.459  15.585 -0.0699  0.1233 -0.0953
29942W        W30142   1.623   2.872  12.842  0.1533 -0.0807  0.0828
29943W        W30143  18.180   3.610  15.173 -0.0666  0.0317 -0.0592
29944W        W30144  11.321  17.481   1.744 -0.2394  0.0608  0.2780
29945W        W30145   9.422  17.442   4.363  0.2615 -0.0858  0.2021
29946W        W30146   7.899   0.476  17.791 -0.2583 -0.2138 -0.1329
29947W        W30147  17.432  15.115  17.091  0.4006 -0.0959 -0.0111
29948W        W30148   1.141  13.335  16.230  0.1314 -0.1018  0.1075
29949W        W30149  14.546   1.486   9.812 -0.1004 -0.0821 -0.1605
29950W        W30150   3.545   1.618   7.818  0.1032  0.0116 -0.3053
29951W        W30151  13.457   1.642   1.701  0.2352 -0.0138 -0.1302
29952W        W30152   6.660  17.570  10.283  0.0595 -0.1143 -0.0129
29953W        W30153   5.637  12.033   2.272  0.0104 -0.1201 -0.1310
29954W        W30154  11.246  13.620  12.660 -0.0632 -0.3905 -0.2210
29955W        W30155   0.617   2.782  16.504  0.1885  0.0262 -0.0903
29956W        W30156   4.216  15.695  15.478  0.3026  0.0734  0.1455
29957W        W30157   9.372  14.209  13.305 -0.0776 -0.0087 -0.0305
29958W        W30158  13.919   2.725   9.968 -0.0454  0.3915 -0.0439
29959W        W30159  10.315   8.498  14.724  0.0041  0.2010  0.3618
29960W        W30160   9.932  17.761   8.895 -0.1000 -0.0904 -0.0120
29961W        W30161   5.442  15.846  10.448 -0.0983 -0.1293 -0.1305
29962W        W30162  11.659   1.055  17.689  0.2059 -0.0297  0.3458
29963W        W30163   6.293  15.428   4.119 -0.0961  0.2356 -0.1750
29964W        W30164   4.376  16.218  13.471 -0.4466 -0.1448 -0.1310
29965W        W30165   6.297  14.944  15.760 -0.0262  0.0095 -0.1668
29966W        W30166   4.639   7.276  13.168 -0.2498 -0.0612  0.0898
29967W        W30167  14.631   1.449   3.599  0.1845  0.1477 -0.2416
29968W        W30168   0.617   8.645  16.525  0.1857  0.0987 -0.7232
29969W        W30169   3.863  15.573  16.321  0.2308  0.2259  0.1863
29970W        W30170  16.580  16.835   3.162 -0.1239 -0.1281  0.1460
29971W        W30171   5.865  12.732  15.913 -0.3301 -0.0922  0.0025
29972W        W30172   9.909  16.208   3.255  0.1091 -0.0289 -0.2385
29973W        W30173  13.348  12.142   0.064  0.1755 -0.0333 -0.0105
29974W        W30174  13.816  13.323  17.382 -0.1805  0.2864 -0.1234
29975W        W30175   3.583  14.992   0.510  0.0248  0.2360  0.0979
29976W        W30176  10.653  10.991  12.964 -0.0846  0.1073 -0.1266
29977W        W30177  10.271  16.777  15.159 -0.0321  0.3202 -0.1424
29978W        W30178  10.094  11.510  17.965 -0.0952  0.2256 -0.2463
29979W        W30179  14.120  14.184   6.854 -0.0009  0.1019  0.1409
29980W        W30180   9.472  16.068   3.429  0.0848  0.1355 -0.1852
29981W        W30181  12.965   1.370  11.459  0.0656 -0.2419  0.0787
29982W        W30182  12.392  12.539  16.826  0.1218 -0.2044  0.0898
29983W        W30183   8.728  17.915   6.639 -0.0836  0.1381 -0.1473
29984W        W30184   5.985   4.277   8.371 -0.0055  0.0383  0.0565
29985W        W30185  14.040   8.455  15.719 -0.0060 -0.1303 -0.1294
29986W        W30186   8.029  13.914   9.212 -0.1065 -0.0651 -0.3198
29987W        W30187   5.990  14.947   2.693  0.3086  0.1624 -0.1387
29988W        W30188  10.137  14.808  12.861 -0.0910 -0.2971  0.0312
29989W        W30189  15.200   1.235   2.714  0.0451 -0.0316 -0.0219
29990W        W30190   1.283   0.709  13.962  0.3462 -0.1331 -0.4105
29991W        W30191   4.275  16.813   0.178  0.2399 -0.0386 -0.0290
29992W        W30192   6.595   0.655   2.927  0.0981 -0.0846 -0.1389
29993W        W30193   1.537  17.187  16.353 -0.1126  0.1237  0.1581
29994W        W30194   8.069  15.781   3.198  0.0841  0.1184  0.5201
29995W        W30195   9.249   3.092   1.757 -0.3190 -0.1371 -0.1847
29996W        W30196   9.144  16.462   9.130  0.2434  0.1712 -0.0691
29997W        W30197   5.977   0.025  12.702 -0.0071  0.3383  0.3436
29998W        W30198   6.803   5.507  13.298 -0.1127 -0.2747  0.0470
29999W        W30199   6.722  13.819  14.905  0.1928  0.0115 -0.0826
30000W        W30200  14.268  17.245  12.457  0.1357  0.1629 -0.1181
30001W        W30201   7.188  15.592  14.988  0.2240 -0.1321 -0.0127
30002W        W30202  13.969  16.996   5.551  0.1398  0.1627 -0.4063
30003W        W30203  11.134  14.060   2.018 -0.2067 -0.1067 -0.0732
30004W        W30204  10.345  14.617  14.718 -0.0320 -0.2311  0.0219
30005W        W30205   2.885   6.276  17.591 -0.1736  0.1859  0.1797
30006W        W30206  14.225   3.441   3.276  0.0215 -0.3009  0.0175
30007W        W30207  16.216  15.854   2.159  0.0379  0.1286 -0.2598
30008W        W30208  12.834  13.832  11.886 -0.0060  0.1460 -0.0712
30009W        W30209  18.043  16.239   5.428  0.4528 -0.1808  0.0763
30010W        W30210  11.953  15.795   3.515 -0.0927 -0.2387  0.1047
30011W        W30211  11.768   4.658  16.043 -0.1041 -0.1778  0.0459
30012W        W30212   4.080   1.733   8.123 -0.3181  0.2152 -0.0237
30013W        W30213  12.204   4.024  16.946  0.0304  0.3081 -0.0822
30014W        W30214  11.016   5.914   8.109 -0.0657 -0.4041 -0.0888
30015W        W30215  13.806  15.061   5.917 -0.2043 -0.3795  0.3275
30016W        W30216   3.242  11.031   4.677  0.1053 -0.1951  0.3687
30017W        W30217   4.914   6.150   3.931 -0.0753 -0.2880 -0.1859
30018W        W30218   6.121  11.327   8.533 -0.0420  0.4453  0.1087
30019W        W30219  10.361  16.013  14.150 -0.0256  0.0835  0.1065
30020W        W30220   9.555  13.222   0.615 -0.2224 -0.2094  0.3180
30021W        W30221  12.733  12.454   5.458 -0.1402 -0.0488  0.1694
30022W        W30222   0.312   1.566   3.421  0.1228 -0.3883  0.2645
30023W        W30223  15.515  15.735  17.817 -0.2599  0.1829 -0.1169
30024W        W30224   1.272  10.151   1.247  0.0881  0.0289 -0.1718
30025W        W30225   2.956  12.300   9.079  0.0191 -0.0255 -0.1087
30026W        W30226  11.422   5.897   9.812  0.1140  0.1009  0.2583
30027W        W30227   0.580   2.524   5.655  0.3219 -0.1209 -0.0699
30028W        W30228   8.387  13.392   1.392 -0.1164 -0.3148 -0.1307
30029W        W30229   8.920   0.706   1.048 -0.0364 -0.0639 -0.0458
30030W        W30230  14.140  13.798  13.638  0.1176  0.0238 -0.2461
30031W        W30231   1.409   5.019   2.895 -0.0681 -0.0226  0.0748
30032W        W30232  15.567   5.414  17.187  0.1153  0.0773 -0.0136
30033W        W30233  17.950   0.706   0.727  0.0283 -0.0249 -0.3085
30034W        W30234  14.654   5.009   5.074  0.4485 -0.1146  0.0805
30035W        W30235   8.471   4.206  16.737 -0.2445  0.2504  0.1768
30036W        W30236   0.739   0.336   1.485 -0.0825 -0.1759  0.0256
30037W        W30237   6.550  13.904   1.013  0.0170 -0.0351  0.6219
30038W        W30238  10.603   6.621  11.717  0.1301  0.0914  0.1191
30039W        W30239  14.922   2.040   7.087 -0.1306 -0.1580  0.0727
30040W        W30240  11.257  14.330  15.738 -0.0245  0.1056 -0.2888
30041W        W30241   6.281   5.718  17.653 -0.0198  0.1161 -0.0336
30042W        W30242  13.510  17.944   6.423  0.0093 -0.1296  0.0675
30043W        W30243   0.555   8.809   1.382  0.1097  0.3308 -0.0064
30044W        W30244  12.240   9.734   2.406 -0.2019 -0.0909 -0.0846
30045W        W30245  14.607  10.858   6.929 -0.0212  0.0729  0.0129
30046W        W30246  11.893   5.774   7.560  0.1333 -0.1901  0.0875
30047W        W30247   1.185   1.492   2.275  0.2341  0.0417  0.2684
30048W        W30248  16.163   4.822   0.479  0.3783  0.1245  0.0608
30049W        W30249   9.429  15.049   5.689  0.0071 -0.1521  0.1294
30050W        W30250   9.353   3.303   0.400 -0.0765 -0.1545 -0.0194
30051W        W30251  12.934   6.495   3.957 -0.0747 -0.0993 -0.0402
30052W        W30252  10.098   0.257   2.603  0.0784  0.0365  0.0819
30053W        W30253   0.220   3.705  17.132 -0.0939 -0.1161 -0.1241
30054W        W30254  12.841  17.012   0.646 -0.0398 -0.0489 -0.0052
30055W        W30255  15.153   4.300  10.427 -0.2289 -0.2587 -0.0665
30056W        W30256  13.154  15.755  10.161 -0.1009 -0.1506  0.3256
30057W        W30257   3.026   7.294  13.463 -0.1125 -0.2308  0.0412
30058W        W30258  15.450   2.532   1.360  0.1543 -0.3939 -0.1696
30059W        W30259  11.141  16.846   9.195  0.1104 -0.4345 -0.2656
30060W        W30260  14.397  14.435   7.234 -0.0476 -0.0093 -0.2748
30061W        W30261   2.666  14.294   6.656 -0.3684 -0.1762 -0.2382
30062W        W30262  12.373   9.924  16.038 -0.0287  0.0594  0.2022
30063W        W30263  12.643   1.900   1.339 -0.0251 -0.1720 -0.0741
30064W        W30264  12.371  11.440   6.598  0.1011  0.2018 -0.0970
30065W        W30265  12.655   6.791  15.550  0.2518 -0.2542  0.1866
30066W        W30266   9.694   3.023  15.747  0.1684  0.0084 -0.1290
30067W        W30267   4.773   0.845   2.155  0.1185  0.0354 -0.1418
30068W        W30268  17.394   0.196   7.588  0.1037 -0.2309  0.0610
30069W        W30269   2.699   0.890  13.789 -0.2540 -0.0864  0.0586
30070W        W30270   2.949  11.340  15.052  0.2631  0.1276 -0.0036
30071W        W30271  16.439  12.015   2.183 -0.1023  0.1279  0.0023
30072W        W30272  18.035   5.391   7.487 -0.1542 -0.3635 -0.1752
30073W        W30273   5.499   1.930   8.081  0.1975  0.0077 -0.2399
30074W        W30274   3.745   4.727   5.253  0.2027 -0.1952  0.5261
30075W        W30275   9.788  15.436   5.624  0.0253 -0.0755 -0.1929
30076W        W30276   6.803   6.409   0.708 -0.0061 -0.1411 -0.0763
30077W        W30277  17.296   6.927   4.055  0.1133 -0.3258  0.0931
30078W        W30278  12.216   3.874   0.771  0.1683  0.3455 -0.1641
30079W        W30279  14.279  17.216   6.268  0.0424  0.2958  0.0420
30080W        W30280   4.413   5.147   2.118 -0.0076 -0.0227 -0.0646
30081W        W30281   8.554  16.645   2.041  0.0455  0.2710  0.3405
30082W        W30282  16.987   2.677   0.998 -0.0184  0.1404  0.1153
30083W        W30283  17.787  13.416  17.736 -0.0649  0.0668  0.1950
30084W        W30284  12.236  14.204  14.904 -0.1278  0.0393  0.0416
30085W        W30285  15.007  15.761  17.922 -0.1708 -0.0765 -0.0196
30086W        W30286  11.897  16.712  12.879  0.0166 -0.1860 -0.0006
30087W        W30287  13.928   8.847   4.013 -0.1110 -0.0772  0.1401
30088W        W30288  13.245  15.896   7.494 -0.1491  0.1327  0.2594
30089W        W30289  14.509   1.027  17.476  0.1444 -0.3082  0.0058
30090W        W30290  17.187   3.804   7.351  0.1384 -0.1909  0.1245
30091W        W30291  17.156   7.414   5.497  0.0588 -0.0385 -0.0665
30092W        W30292  14.016  13.125   6.454  0.0943  0.2121  0.3995
30093W        W30293   2.852   8.090   2.889  0.2686  0.2265 -0.3815
30094W        W30294   1.403   0.297   5.889 -0.0206  0.2060  0.0938
30095W        W30295   7.641  10.449   5.684 -0.2272 -0.1257 -0.1041
30096W        W30296  14.644   2.834   9.893  0.1062  0.1191  0.3314
30097W        W30297  10.164   3.781  11.839 -0.0432 -0.3016 -0.1060
30098W        W30298   1.434   1.280  18.157  0.0198 -0.3584  0.2929
30099W        W30299  12.028   1.088   4.029 -0.2735 -0.1711 -0.0648
30100W        W30300   3.121  14.986  16.014  0.1327  0.2480 -0.0851
30101W        W30301  16.206   6.623   1.773 -0.1009  0.1380 -0.1445
30102W        W30302   9.366   0.798   2.655  0.1959 -0.0340 -0.0891
30103W        W30303  10.263   1.886   0.416 -0.0478 -0.0259 -0.1597
30104W        W30304  12.609   7.154  10.662  0.0312  0.1162 -0.2340
30105W        W30305   4.171   5.658   3.146  0.3202  0.3767  0.1531
30106W        W30306   3.520   4.176  15.441  0.0862  0.1935 -0.2550
30107W        W30307   1.268  16.591   1.462 -0.1580 -0.1832  0.2409
30108W        W30308  13.523   7.448  17.373 -0.2110  0.0768  0.3105
30109W        W30309  18.045   3.209   2.300  0.1711 -0.1025  0.0878
30110W        W30310  15.254   5.705  17.444 -0.1308 -0.1448 -0.0624
30111W        W30311  14.054   0.140  16.700  0.1760  0.2841  0.1810
30112W        W30312  12.971   2.978  14.592  0.2092  0.0601  0.2614
30113W        W30313  13.387  17.201  16.361  0.2867  0.2384 -0.0357
30114W        W30314  13.109  15.768   8.437  0.1475  0.2836 -0.1214
30115W        W30315   6.800   5.648   9.162 -0.3329 -0.0631  0.0980
30116W        W30316  17.480   1.952   4.579 -0.1557 -0.1675 -0.0080
30117W        W30317   0.561   0.908   6.558 -0.0770 -0.0601 -0.1696
30118W        W30318   3.683   8.486   4.982  0.0640  0.1533  0.0075
30119W        W30319  13.177  14.920   2.442 -0.1056 -0.1017  0.1327
30120W        W30320  18.141  15.220   1.229 -0.2242 -0.3353 -0.1138
30121W        W30321   1.166   9.276   5.885  0.0943 -0.1717 -0.0827
30122W        W30322  15.135   3.095   5.391  0.0293  0.2934 -0.0326
30123W        W30323  14.564   2.624   5.968  0.3160 -0.0857 -0.0017
30124W        W30324  18.172  14.949   4.098 -0.0794  0.4185 -0.1554
30125W        W30325   5.176   2.491  16.302 -0.0987 -0.1996 -0.1557
30126W        W30326  15.244   2.366   8.726 -0.0002  0.1432 -0.2891
30127W        W30327   8.636   9.140   7.527 -0.1411 -0.2019  0.0154
30128W        W30328  16.798   5.219   3.549  0.2665  0.0347  0.2390
30129W        W30329   1.009   2.181  14.903 -0.4581 -0.3480  0.1325
30130W        W30330  14.750  15.817   7.854 -0.0102  0.1977 -0.1565
30131W        W30331   5.606   4.143   1.690 -0.0243  0.0792  0.2698
30132W        W30332   0.546   8.424   0.194 -0.1100 -0.0091 -0.1710
30133W        W30333  12.797   1.853  17.618 -0.2628  0.1707  0.3351
30134W        W30334  10.059   0.913   6.864 -0.1285  0.0285 -0.1173
30135W        W30335   8.585  15.864  10.384 -0.0180 -0.1712  0.0359
30136W        W30336   7.900   4.413   0.403 -0.0460 -0.1997  0.1952
30137W        W30337  12.400   1.999   2.267 -0.2046 -0.2161 -0.2920
30138W        W30338   4.813  16.477   0.460 -0.0575 -0.0210  0.0960
30139W        W30339   7.691   0.249  10.495  0.0996 -0.0059  0.0953
30140W        W30340   4.589  15.696   7.070 -0.1978  0.1103  0.1743
30141W        W30341   0.190   3.109  14.760 -0.0058 -0.0518 -0.1523
30142W        W30342  14.519   0.890  15.945 -0.1943  0.0429  0.0598
30143W        W30343  15.029   3.781   6.249 -0.2124  0.1042 -0.2037
30144W        W30344  10.753   0.369   2.506 -0.0527 -0.2087 -0.1909
30145W        W30345  12.813   2.524   7.062 -0.0562 -0.1498 -0.3513
30146W        W30346  16.577  15.633   9.060 -0.2665  0.0440  0.0123
30147W        W30347  13.501  16.120   3.805 -0.0542  0.1691  0.3095
30148W        W30348   0.859  18.207  15.738  0.0376  0.1475 -0.0141
30149W        W30349  14.676   4.741   1.912 -0.1962  0.0115 -0.2213
30150W        W30350  12.329   0.895   2.774 -0.2128  0.1223 -0.1033
30151W        W30351  17.154   5.402  11.830  0.0635 -0.1462  0.0579
30152W        W30352  16.437  17.572   2.068  0.2649 -0.1550 -0.0060
30153W        W30353   7.465   1.143  16.693  0.0019  0.0188 -0.1860
30154W        W30354  16.440  10.400  16.836 -0.1224 -0.0487  0.1959
30155W        W30355  12.887  16.409  18.067 -0.0703 -0.1737 -0.1359
30156W        W30356   9.218   2.132   9.791  0.1621  0.0158  0.2248
30157W        W30357  16.912  16.356  14.087 -0.5272  0.0397  0.0314
30158W        W30358  13.567   5.670   0.993 -0.2057 -0.0155  0.2993
30159W        W30359  10.064  12.746   2.764  0.1729  0.0193 -0.2770
30160W        W30360   4.893   5.077   0.818  0.1239  0.2012 -0.1117
30161W        W30361  12.786   6.790  17.245  0.0345 -0.0519 -0.2526
30162W        W30362  14.897   1.631   4.151  0.0125  0.0783 -0.0293
30163W        W30363  15.990  12.389   1.397  0.2159 -0.1372  0.0676
30164W        W30364   0.083  18.172   6.909 -0.0138  0.0272 -0.4096
30165W        W30365  11.638  13.018   4.809  0.0170  0.0553  0.2340
30166W        W30366  11.652   0.218   1.943  0.0359  0.1180 -0.2160
30167W        W30367  16.297   1.374   6.817 -0.0947 -0.0409 -0.0317
30168W        W30368   1.924  17.796   2.162 -0.0986  0.0950 -0.0953
30169W        W30369   0.621  17.887   5.278 -0.1433 -0.0930  0.0024
30170W        W30370  15.283   4.964  16.657  0.0312  0.1052  0.0997
30171W        W30371  13.149   1.652  16.943  0.2694  0.0086 -0.2818
30172W        W30372   9.915   3.709  17.905  0.1013 -0.1454  0.1702
30173W        W30373   5.599  17.614  17.002  0.2944 -0.1235  0.1572
30174W        W30374   4.481   5.955   2.343  0.2407 -0.3144 -0.0556
30175W        W30375  11.227   1.500   7.711  0.3186  0.3158 -0.2187
30176W        W30376   4.069  15.042   0.295  0.1020 -0.1324  0.2119
30177W        W30377  15.405   7.881   0.289 -0.1558  0.1195  0.0669
30178W        W30378   7.051   5.262  18.099 -0.2063  0.0826  0.1528
30179W        W30379  14.465  10.213  17.238 -0.0084  0.1655  0.2093
30180W        W30380  14.247  17.623   3.062 -0.1172  0.3718  0.0735
30181W        W30381  12.082   2.307   0.241  0.0529 -0.1159 -0.0482
30182W        W30382  11.461   2.263  10.588  0.2891  0.0052 -0.0864
30183W        W30383   8.097   1.621   5.300  0.1362 -0.2081 -0.1514
30184W        W30384  12.283  10.772   4.850 -0.0191 -0.5942  0.0600
30185W        W30385  11.620   6.061  10.864  0.0419  0.1949  0.2289
30186W        W30386   9.400   6.901  14.124 -0.0156  0.1752 -0.0238
30187W        W30387   9.497  15.340   1.565 -0.0371  0.4207 -0.1436
30188W        W30388   7.244   2.044  12.815 -0.0499  0.0475  0.1673
30189W        W30389  14.759   2.411   9.476  0.1393 -0.2106  0.1446
30190W        W30390  13.132  16.165  16.919  0.2050 -0.1959  0.2655
30191W        W30391   8.886   4.860   2.800 -0.1033  0.2506  0.0875
30192W        W30392   0.521  13.314  16.074  0.3734  0.0150 -0.1734
30193W        W30393   8.795  17.427  14.929 -0.0067  0.0635  0.1165
30194W        W30394  15.110   0.089  15.800 -0.1334  0.3031  0.0565
30195W        W30395   7.865  17.004   1.006 -0.1358  0.1552 -0.2622
30196W        W30396   0.283   7.486   3.298  0.1084  0.0378  0.0974
30197W        W30397  10.607  16.072   9.509  0.1141  0.1149  0.0831
30198W        W30398  17.067   1.090  16.882 -0.0925  0.1526  0.1272
30199W        W30399  16.606  17.355   2.974 -0.3175  0.0534 -0.0081
30200W        W30400  16.080   0.111   0.289 -0.1292  0.1321  0.2998
30201W        W30401  11.897   0.911   1.497 -0.0458  0.0943 -0.0040
30202W        W30402  13.132   1.057  17.065  0.3898 -0.3290 -0.0722
30203W        W30403  15.167  11.613   4.414  0.0333  0.2069  0.1176
30204W        W30404  13.717   9.324  15.384 -0.0767  0.3349 -0.1782
30205W        W30405  17.989  13.984  16.350 -0.1023 -0.0511  0.1734
30206W        W30406   1.939   3.848  15.174  0.2279  0.0776  0.1714
30207W        W30407  17.697   2.313   7.218  0.2333 -0.0871 -0.1584
30208W        W30408  12.861   5.545   2.610 -0.0767 -0.0323  0.1428
30209W        W30409  15.731  13.002   3.043 -0.1108  0.0238  0.1421
30210W        W30410  16.509   1.749  15.354 -0.5013 -0.0150  0.1700
30211W        W30411   2.132   1.641  15.512 -0.4668 -0.1951 -0.3750
30212W        W30412   8.257  12.727  16.133  0.1184 -0.1191  0.0376
30213W        W30413   8.402   6.342   1.119  0.3545  0.0866 -0.1710
30214W        W30414   1.093   4.250   5.951 -0.0492  0.1873  0.1767
30215W        W30415   0.313   0.039   8.080 -0.2126  0.2364  0.1241
30216W        W30416   0.863   0.811   1.558  0.1068  0.1153 -0.0911
30217W        W30417   7.641  12.708   7.412  0.0980  0.2050 -0.0250
30218W        W30418   3.854  14.693   1.838 -0.0622 -0.0008 -0.0238
30219W        W30419   6.309   0.270   3.990  0.0312 -0.3653  0.1323
30220W        W30420  15.332  17.545  14.510  0.1014  0.4972  0.1221
30221W        W30421  16.569   3.640  12.106 -0.2722 -0.1023  0.0368
30222W        W30422  12.905   1.867   3.520  0.1024 -0.1627 -0.2616
30223W        W30423  12.662  16.343  17.560 -0.0983 -0.1219 -0.0316
30224W        W30424  15.793  14.219   2.664  0.1140 -0.3269 -0.0377
30225W        W30425  17.199  17.391   5.652 -0.0236  0.1277  0.3315
30226W        W30426  12.840   6.076   8.228  0.1901  0.0601  0.2739
30227W        W30427  12.896  17.624   8.603  0.1095 -0.1569  0.0144
30228W        W30428   3.025  17.883   8.221 -0.2019 -0.1696 -0.3481
30229W        W30429   5.315  15.455   8.116 -0.0884  0.0964  0.1284
30230W        W30430  14.740   9.250   3.591  0.0299  0.1696 -0.1995
30231W        W30431   1.948  16.473   1.565  0.1483 -0.0645  0.4232
30232W        W30432  16.106  10.680  17.631  0.0089  0.5071 -0.0250
30233W        W30433  11.445   1.815  17.445 -0.0485  0.2722 -0.1661
30234W        W30434   8.830  13.095   3.917  0.2895 -0.0334 -0.1877
30235W        W30435  17.672  17.504  13.240  0.1072 -0.0138 -0.0521
30236W        W30436   5.983   0.953  11.458  0.0415  0.2170 -0.0487
30237W        W30437   7.058   0.133  17.212  0.0642  0.0885  0.0671
30238W        W30438   7.179  14.159   0.388  0.2705 -0.0363  0.2085
30239W        W30439   2.191   2.528   1.635 -0.1480 -0.1516 -0.1108
30240W        W30440  13.925   0.758  13.999  0.3221 -0.2863 -0.3425
30241W        W30441  15.769   3.226   9.190 -0.4777  0.1889  0.1037
30242W        W30442   0.366  15.763  17.691  0.0030  0.1807 -0.0275
30243W        W30443   9.904   6.945   3.982 -0.0940  0.1510 -0.0710
30244W        W30444  17.394   5.609  16.367  0.1010 -0.0723  0.0883
30245W        W30445   9.196  17.986   2.138  0.0399 -0.1934 -0.0585
30246W        W30446  11.981   0.117   3.028 -0.2562 -0.2102 -0.2279
30247W        W30447  12.231  16.381   4.004  0.1004  0.0426  0.0756
30248W        W30448  12.138  16.194  17.510  0.1190  0.1352  0.2099
30249W        W30449   6.847   1.665  16.218 -0.2010 -0.3925 -0.2008
30250W        W30450  14.636   1.918  17.951 -0.2126 -0.2140 -0.2322
30251W        W30451  12.384  16.435  14.397  0.1860 -0.1531 -0.1157
30252W        W30452   0.470   4.049  17.423  0.1506  0.2144  0.0890
30253W        W30453  11.179  15.519  14.349  0.0055  0.1332 -0.0861
30254W        W30454   7.227   5.679   6.964  0.0120 -0.1101 -0.0721
30255W        W30455  11.219  11.201  13.409 -0.3368 -0.3419  0.2278
30256W        W30456   3.797   8.210   3.740 -0.1242 -0.0040 -0.1244
30257W        W30457  12.703  17.806   0.464  0.1929 -0.1216 -0.1374
30258W        W30458   6.866  12.352  11.478 -0.2814 -0.1589  0.0630
30259W        W30459  15.683   6.927  15.597 -0.0046  0.1149  0.2139
30260W        W30460  14.862   0.208  17.695 -0.0307  0.1151  0.2131
30261W        W30461  14.658   1.221   1.383 -0.0007 -0.0553 -0.3000
30262W        W30462   4.501   7.101  15.068 -0.4769  0.2776  0.0804
30263W        W30463  12.871   9.071   4.269  0.0836 -0.1371  0.0499
30264W        W30464  12.890   8.569   8.873  0.0018 -0.2853 -0.1794
30265W        W30465  14.093   4.064   6.046 -0.1497  0.0450  0.0050
30266W        W30466  11.782   5.049   6.015  0.4687 -0.1820 -0.2293
30267W        W30467  11.214  16.097   8.738 -0.1737  0.0731  0.0653
30268W        W30468   5.709  10.685  15.786 -0.0044  0.2256  0.4959
30269W        W30469  11.454   0.325   0.590 -0.0477 -0.0265 -0.0046
30270W        W30470  15.220  16.936   0.909 -0.3933  0.0413  0.0372
30271W        W30471  12.520  17.235   0.119  0.1533  0.0455 -0.1251
30272W        W30472  15.474   7.235   8.163 -0.1232 -0.1745 -0.1580
30273W        W30473   2.295   1.247   5.947 -0.4797 -0.0758 -0.2852
30274W        W30474  17.530   3.569   0.701  0.0647  0.0275  0.1956
30275W        W30475   7.608   6.554  12.699 -0.0010 -0.1103  0.0132
30276W        W30476  13.605  11.866  16.309  0.1514 -0.0205  0.0474
30277W        W30477  17.180  16.635   4.141 -0.0301  0.0488 -0.1830
30278W        W30478   0.309   4.082   9.523  0.0180  0.3806  0.0546
30279W        W30479  10.954   0.019  13.954 -0.0212  0.0791  0.0138
30280W        W30480   9.249  17.465   9.595 -0.0639  0.2151 -0.1558
30281W        W30481   7.751   2.583  16.328  0.0056  0.0397  0.1666
30282W        W30482  14.246  17.129  12.940  0.1030 -0.4926 -0.0227
30283W        W30483  10.230  16.943   1.305 -0.1111 -0.0397  0.2421
30284W        W30484  17.974   1.126  10.619 -0.3114  0.0963 -0.0124
30285W        W30485   7.811  17.524   2.392  0.3279 -0.0913  0.0932
30286W        W30486  13.452   3.861   3.263 -0.0408  0.1950  0.0185
30287W        W30487   7.059   7.166   7.127  0.0746  0.1659 -0.3228
30288W        W30488  13.655  18.009   3.251  0.0141 -0.0528 -0.0046
30289W        W30489  17.462   5.954   4.463  0.1993 -0.0904 -0.1493
30290W        W30490  18.005   2.035   4.193  0.1586  0.2809 -0.2095
30291W        W30491  13.024  11.676   3.602 -0.3477  0.2507 -0.3251
30292W        W30492   3.393  12.971   9.492  0.0663  0.0983 -0.1786
30293W        W30493  11.476   2.021  17.984  0.1104  0.3971  0.0786
30294W        W30494  11.606   3.074   3.054 -0.0019  0.0706 -0.0982
30295W        W30495  15.536  14.852   0.476 -0.1764 -0.2203  0.0044
30296W        W30496  15.645   1.966   3.470  0.1583 -0.2873  0.0435
30297W        W30497   8.486  18.047   2.905  0.0522 -0.2924 -0.1352
30298W        W30498  14.331  14.831   1.811 -0.0683 -0.4181 -0.1361
30299W        W30499   3.751   9.514  18.060  0.0889  0.2491 -0.0480
30300W        W30500  16.576   0.881  13.242  0.1023 -0.0118 -0.2774
30301W        W30501  13.395  13.140  13.797 -0.0806 -0.0550 -0.0416
30302W        W30502   0.787   1.090   3.080  0.1934  0.0151 -0.0762
30303W        W30503   5.612  16.528  12.763 -0.0887  0.2125  0.1009
30304W        W30504  11.168   9.866   3.820  0.1960  0.0702  0.1822
30305W        W30505   0.542   1.927   3.179  0.1841  0.1093  0.1668
30306W        W30506   2.857  15.333   0.690 -0.1804  0.1147 -0.1657
30307W        W30507   0.450  15.693   5.671 -0.0639 -0.2481  0.4517
30308W        W30508   5.679  16.382   0.720  0.1698  0.3406  0.0034
30309W        W30509  17.266   3.718   1.928 -0.2634 -0.0395  0.0249
30310W        W30510  17.578   3.348   6.762 -0.0044 -0.0033 -0.2022
30311W        W30511  16.888  17.660   9.906 -0.1052 -0.0968  0.0121
30312W        W30512  16.511  16.156   9.852  0.3314 -0.4249  0.0925
30313W        W30513  11.353   6.995  15.968 -0.4221  0.1667  0.0782
30314W        W30514  12.300   1.603   0.252  0.4054  0.2105  0.0876
30315W        W30515  13.065   3.660   7.039 -0.1230  0.0096 -0.2369
30316W        W30516  15.647  15.492  17.377 -0.1743 -0.2521  0.2345
30317W        W30517   6.673   5.988   9.578  0.1876 -0.1615  0.1605
30318W        W30518   2.721   1.726   8.353 -0.1323  0.2137  0.1906
30319W        W30519  17.010   0.653  11.223  0.0451 -0.1029  0.1101
30320W        W30520  13.752  17.104  11.654 -0.0635 -0.0442 -0.3694
30321W        W30521  10.076  11.132  17.584  0.2107  0.3097  0.1650
30322W        W30522  14.273   9.015   5.345  0.1204  0.0853  0.0636
30323W        W30523   7.145   0.531   5.534 -0.0963  0.0396  0.3206
30324W        W30524  13.323  17.724   5.627  0.0806  0.0133  0.1640
30325W        W30525   4.188  15.624   7.382  0.1980  0.1185 -0.0372
30326W        W30526   6.218  17.053   5.046  0.0286  0.0246 -0.1141
30327W        W30527  17.360   2.400   6.625 -0.1514  0.0484 -0.0197
30328W        W30528  13.343   6.968   3.980  0.0130 -0.1798 -0.1921
30329W        W30529  14.765  17.499   4.526 -0.1788  0.1364  0.2262
30330W        W30530   5.742   3.603  13.193  0.1537 -0.1520 -0.3950
30331W        W30531  14.220   5.509   7.782 -0.1268  0.2754  0.0023
30332W        W30532  12.521   4.945  14.838  0.0334  0.3075  0.2197
30333W        W30533  14.969   1.719   8.366 -0.0880 -0.3245 -0.0324
30334W        W30534  11.287   1.323  17.410 -0.0267  0.0118 -0.4193
30335W        W30535  15.518   3.679  15.313 -0.0861 -0.0148 -0.1094
30336W        W30536   4.003   3.180   3.011 -0.0570  0.1310  0.1753
30337W        W30537   2.303   8.726  11.126  0.0598  0.2854  0.1164
30338W        W30538  16.674   2.159  17.538 -0.0559  0.0048  0.1068
30339W        W30539   1.044  17.456  14.372  0.1037  0.2083 -0.0140
30340W        W30540   8.782   2.368   5.209  0.1812 -0.1358 -0.0013
30341W        W30541   4.233   4.366  15.601  0.1262 -0.0878  0.1912
30342W        W30542  13.861   3.681   6.710  0.0824 -0.0530 -0.1223
30343W        W30543  11.152  12.496   4.404 -0.1510  0.1830  0.0165
30344W        W30544   3.832   7.998  15.785  0.1036  0.1475 -0.5980
30345W        W30545   8.188  11.755   4.594  0.0154  0.1122 -0.2619
30346W        W30546   2.894   2.238  17.191 -0.0249  0.1121  0.1539
30347W        W30547  10.741  13.625  12.501  0.0585  0.2338  0.0138
30348W        W30548  13.170   6.952   9.090  0.1045  0.2941 -0.0888
30349W        W30549   8.719   1.631  15.535 -0.1086  0.1140 -0.3699
30350W        W30550  16.214   2.714   5.603  0.1410  0.0279 -0.4367
30351W        W30551  12.728  13.138   9.150  0.2400 -0.0138  0.1397
30352W        W30552   9.604   0.959   9.814 -0.0098 -0.1754 -0.5594
30353W        W30553   3.131   3.697  10.409 -0.3034  0.0744 -0.2121
30354W        W30554  13.971   0.580   0.391 -0.1242  0.1990  0.1502
30355W        W30555   1.577  17.625  14.533  0.1551 -0.1890  0.0773
30356W        W30556  14.680   4.702   4.638  0.2648  0.0616  0.3417
30357W        W30557  16.055   5.476   6.338 -0.0152  0.0516 -0.0727
30358W        W30558  13.115   8.847   1.815 -0.1822  0.0729  0.1651
30359W        W30559  12.980   8.777  12.919 -0.0659 -0.3198  0.1542
30360W        W30560   4.326   8.636  14.887 -0.0413  0.0517  0.0345
30361W        W30561   1.921   1.861  16.471  0.4642 -0.0704 -0.2167
30362W        W30562  14.774  12.711  11.834  0.1075  0.2326  0.1175
30363W        W30563   2.062   1.996   0.548  0.0350  0.0677 -0.1381
30364W        W30564   0.051   0.083   2.605  0.0508  0.2057 -0.1798
30365W        W30565  13.628  17.256   4.694  0.1485 -0.0013  0.1132
30366W        W30566  14.150   0.777  17.219  0.0715  0.0305  0.2286
30367W        W30567  16.235   0.537  13.382 -0.1276 -0.1872  0.3911
30368W        W30568  11.849   0.269   2.469 -0.1232  0.2993  0.0198
30369W        W30569  10.394   6.565  13.227 -0.0913 -0.3055  0.0880
30370W        W30570  15.932   8.465  18.092 -0.0701 -0.5422 -0.1988
30371W        W30571   7.035   8.329   2.514  0.1217 -0.2427  0.0378
30372W        W30572   9.613  18.082   8.635  0.0603 -0.1824  0.1386
30373W        W30573   5.141  17.508  18.091 -0.3956  0.2184 -0.0715
30374W        W30574  15.960   3.710   4.370  0.2188  0.3125 -0.2768
30375W        W30575  10.083  15.978   1.061 -0.0395 -0.3523  0.1958
30376W        W30576  17.557   6.254  15.437  0.1339 -0.0661 -0.1563
30377W        W30577   8.980   5.703  12.397 -0.3964  0.1949 -0.4020
30378W        W30578  15.881   0.781  17.699  0.0691 -0.1179  0.0019
30379W        W30579  11.690   2.943   5.285  0.1774  0.4631  0.0717
30380W        W30580   9.853  13.824   8.595 -0.2328 -0.0566 -0.0565
30381W        W30581   2.295   5.913   4.430  0.0657  0.0132 -0.2313
30382W        W30582  14.703  15.871   1.723 -0.0802  0.1453  0.2279
30383W        W30583  14.138  17.347   4.730  0.2599  0.0407  0.0162
30384W        W30584  17.896  16.677   2.553  0.0276 -0.0684 -0.0192
30385W        W30585   8.623   0.726   2.952 -0.1383 -0.0818 -0.1339
30386W        W30586   6.220   6.862   7.834 -0.2225 -0.0138  0.2099
30387W        W30587  14.408  10.547  15.070  0.4467  0.2701  0.0957
30388W        W30588  17.661  10.085  10.101 -0.0136 -0.2674  0.0745
30389W        W30589  12.543   4.698   1.250 -0.1832 -0.1066  0.1891
30390W        W30590  12.945  10.778   8.470 -0.0059  0.1986  0.2701
30391W        W30591   8.531  16.573  11.272 -0.3452  0.2967  0.0016
30392W        W30592  10.187   3.593   4.300  0.1502 -0.0419  0.2563
30393W        W30593   3.880   2.437  17.918  0.2240  0.2514 -0.1583
30394W        W30594  14.904   6.710   3.329  0.2154 -0.0952 -0.0482
30395W        W30595   6.499   4.706  11.714  0.1111 -0.3752 -0.0690
30396W        W30596  17.340   4.788  14.222 -0.1235  0.3110  0.0836
30397W        W30597   9.943   3.264   7.074 -0.0352 -0.1181  0.0318
30398W        W30598  10.873   3.903  18.086  0.0311  0.3540 -0.1802
30399W        W30599  16.144  10.244   2.107  0.0463 -0.0192  0.1921
30400W        W30600   9.184   8.584  15.635 -0.1263  0.0722  0.1346
30401W        W30601  14.379   8.608   9.052  0.2718  0.3098 -0.2538
30402W        W30602  17.226   2.025   1.568  0.1769 -0.1171  0.0012
30403W        W30603   5.483   8.045   4.212 -0.0655  0.0423  0.0469
30404W        W30604  13.374   5.122  13.754  0.0085 -0.0558  0.1104
30405W        W30605  15.750   2.435  10.862  0.1434  0.1393  0.1883
30406W        W30606   0.093   3.481   2.631 -0.0090 -0.1700  0.1669
30407W        W30607  15.784  14.250   0.721  0.0391  0.0272  0.0106
30408W        W30608   0.750  16.909   4.212  0.0159 -0.2325 -0.0374
30409W        W30609   9.288   2.769  14.372 -0.1413  0.4680  0.0529
30410W        W30610  10.319   1.852   5.321 -0.0599  0.0275 -0.0578
30411W        W30611   3.006   6.066   4.047 -0.2238  0.2571  0.0624
30412W        W30612  12.015  15.033   8.615  0.2308  0.1544 -0.1394
30413W        W30613  14.211   1.861  11.904  0.2832  0.0840 -0.0322
30414W        W30614   3.464  10.566   7.168  0.1802 -0.0482 -0.2504
30415W        W30615  14.303   4.785  17.997 -0.0835  0.2567  0.1779
30416W        W30616   3.155   1.576  15.983 -0.0567 -0.0279  0.0305
30417W        W30617  10.537   2.819   7.275  0.2968 -0.1680 -0.0848
30418W        W30618  13.197  17.781   3.508  0.0417 -0.1923 -0.0431
30419W        W30619  14.131   4.156   2.187 -0.0372 -0.2174  0.0147
30420W        W30620  15.887  12.103   3.070 -0.1099 -0.3219  0.1122
30421W        W30621   8.854   2.994  14.505  0.2281  0.0792  0.1188
30422W        W30622   9.031  17.792  12.528 -0.1069 -0.1406 -0.0162
30423W        W30623  17.776  13.398   8.397  0.1958  0.1589 -0.2209
30424W        W30624   8.232   3.887   5.182 -0.2439 -0.0742  0.3387
30425W        W30625   2.506  10.506   1.616  0.1305  0.0715  0.1487
30426W        W30626   7.050   3.132  17.724  0.0813  0.0061 -0.2836
30427W        W30627   0.926   8.020   6.073 -0.0121 -0.3441 -0.2145
30428W        W30628  14.904   3.196  17.213  0.0095 -0.0004 -0.1112
30429W        W30629  11.555  10.071   1.376  0.3760 -0.0189 -0.2745
30430W        W30630  17.949   1.804   8.425 -0.1734  0.0932  0.0329
30431W        W30631  17.309  14.435   6.597  0.0006 -0.0079  0.0979
30432W        W30632   8.001   1.151   3.544  0.1397 -0.0869 -0.0428
30433W        W30633  13.527   5.301   8.591 -0.3909  0.1208  0.2908
30434W        W30634  17.828   4.325  17.934 -0.1554 -0.0682  0.2715
30435W        W30635   2.350  16.432  10.703  0.0383 -0.2494 -0.1914
30436W        W30636  11.562   4.398  12.739  0.2470 -0.2506  0.0718
30437W        W30637  10.524   2.052  17.584 -0.1303  0.1399  0.2106
30438W        W30638   5.935   3.593  12.653  0.3982 -0.3144 -0.1025
30439W        W30639  10.211   5.369   2.632 -0.1747  0.1380  0.1698
30440W        W30640  17.017   1.499   7.374 -0.0253 -0.0784 -0.2114
30441W        W30641  13.022   0.359   2.903  0.2690  0.0051 -0.1903
30442W        W30642  15.991   0.730   9.690 -0.2595  0.0020  0.0620
30443W        W30643   5.247   0.453   8.743  0.1612 -0.1054  0.0716
30444W        W30644  11.887  12.276   3.841  0.2771  0.0096  0.0516
30445W        W30645   7.811   9.505   0.670 -0.1072 -0.2473  0.3659
30446W        W30646   3.751   0.525   5.995 -0.1482 -0.0870 -0.2333
30447W        W30647  10.871  12.072  16.208  0.1700  0.0403  0.0119
30448W        W30648  13.096   4.777   5.048 -0.0449  0.2027  0.0230
30449W        W30649   2.256  14.336   4.664 -0.0699  0.4797 -0.1138
30450W        W30650   9.096   4.917  12.636  0.2805  0.2072 -0.1572
30451W        W30651   3.076   4.462   7.327  0.2568  0.3047 -0.1409
30452W        W30652  15.287   8.997  17.485 -0.0594 -0.1640  0.2810
30453W        W30653  13.852   9.124   7.261 -0.3755 -0.0789  0.2859
30454W        W30654   1.697   5.656   4.934  0.0347  0.0173 -0.0375
30455W        W30655  12.460  14.238   7.689  0.0626  0.1590  0.0524
30456W        W30656  16.000  15.903   5.558  0.1708 -0.2517  0.0545
30457W        W30657  13.446   5.856   6.783 -0.0018 -0.1189  0.4464
30458W        W30658   4.173   5.411  17.312  0.3406  0.0920  0.0469
30459W        W30659  12.434   1.436   6.907  0.0128  0.3488 -0.2261
30460W        W30660   6.116  18.132  10.249 -0.0327  0.0318 -0.2747
30461W        W30661   9.616   7.007  11.437 -0.0081  0.2763  0.2941
30462W        W30662   0.995   6.514   8.852 -0.3092  0.0314  0.0186
30463W        W30663  11.133   2.217   1.913 -0.0082 -0.1818  0.1464
30464W        W30664  13.559   0.527   5.106 -0.1176 -0.0946 -0.3214
30465W        W30665  17.840   5.866   1.635 -0.0180  0.2590  0.1209
30466W        W30666  15.320  15.207   4.065  0.3350 -0.1598 -0.0080
30467W        W30667  17.282   0.262   9.869  0.0963 -0.0801 -0.0659
30468W        W30668  11.984  13.389   7.340 -0.1873 -0.1894 -0.3164
30469W        W30669  13.521   0.654   1.426 -0.0939 -0.1536  0.1027
30470W        W30670  15.745  15.812   8.068  0.2626 -0.1446 -0.0900
30471W        W30671   4.355   4.551   3.046 -0.2770 -0.0738  0.1219
30472W        W30672  17.849   6.004   3.077 -0.0341  0.1653  0.0265
30473W        W30673  16.671  13.667  11.206 -0.0032 -0.0821 -0.1006
30474W        W30674  14.677  10.708  13.116  0.0185  0.1173 -0.1995
30475W        W30675  16.519  12.835   0.374 -0.0815  0.1788 -0.0737
30476W        W30676  15.172   4.897   7.847 -0.0754 -0.1268 -0.1571
30477W        W30677  12.123   1.948  12.458  0.2851  0.1221 -0.2007
30478W        W30678   1.428   3.888   1.012  0.2629 -0.1277  0.0634
30479W        W30679  10.323  15.687   8.520 -0.1197  0.4589  0.3473
30480W        W30680  15.955  15.295   8.291  0.0452 -0.0273  0.1366
30481W        W30681   0.091  17.382   8.199  0.0073 -0.2837 -0.3036
30482W        W30682  10.833   0.690   9.304 -0.1155 -0.1941  0.0297
30483W        W30683  14.384  14.481   2.977 -0.0341 -0.2034  0.0489
30484W        W30684  11.400   0.584   6.579  0.1134 -0.4139  0.4060
30485W        W30685   0.370   1.338   4.307 -0.0300 -0.1995  0.0045
30486W        W30686   9.224   4.336   4.883 -0.0078 -0.2058 -0.4916
30487W        W30687  11.084   9.950   5.763  0.0588 -0.0266  0.1025
30488W        W30688   4.167   9.513   7.380  0.0436 -0.1158 -0.1207
30489W        W30689   0.494   5.362  12.922 -0.0122  0.1841  0.0320
30490W        W30690  12.865  14.491   7.680  0.1471  0.3229 -0.2561
30491W        W30691  16.509   5.647   3.603  0.0289 -0.1107  0.1983
30492W        W30692  12.139   0.613   5.272  0.1402  0.1838  0.1985
30493W        W30693  12.312   0.544   3.290 -0.0289 -0.2621  0.0467
30494W        W30694   5.229   3.203   1.715 -0.1725  0.1060  0.3070
30495W        W30695   2.484   3.184   0.052  0.0299  0.2558 -0.0309
30496W        W30696  10.710  15.527   2.949 -0.1312  0.1793 -0.0488
30497W        W30697  11.418  11.957   8.025 -0.1229  0.1776 -0.1269
30498W        W30698  11.882  14.040  17.343 -0.0977 -0.1662 -0.0694
30499W        W30699  14.332  15.849   3.521  0.1349  0.0321 -0.2074
30500W        W30700  10.781  14.389  15.078 -0.1958 -0.2116  0.1996
30501W        W30701  10.685  16.567   5.327 -0.3521  0.0769  0.0151
30502W        W30702  16.302  10.051  16.430 -0.2180 -0.0792 -0.3325
30503W        W30703   2.326   5.897   2.955 -0.2760 -0.3242  0.0522
30504W        W30704   1.092   5.406  12.211 -0.0426 -0.1407  0.2556
30505W        W30705  14.695  15.223  17.918 -0.0115 -0.1655  0.3618
30506W        W30706  12.377   0.016   7.321  0.0009 -0.0274  0.2713
30507W        W30707  14.723   2.501   2.431  0.1195 -0.1162 -0.1505
30508W        W30708  18.106   5.357   6.143  0.0308 -0.1367  0.1536
30509W        W30709   3.345  16.857   6.605 -0.0424  0.2222  0.3851
30510W        W30710  17.250  14.110   4.569 -0.0268  0.1167 -0.1027
30511W        W30711   7.264   4.234   7.450 -0.0898 -0.0477  0.0237
30512W        W30712   7.298  17.292  10.052 -0.3508 -0.2204 -0.2467
30513W        W30713   9.524  15.551   6.687 -0.0602 -0.1960 -0.0031
30514W        W30714  17.835   3.812  10.097  0.1004  0.0136 -0.1352
30515W        W30715  16.865   3.581   4.205  0.0465 -0.1076 -0.0583
30516W        W30716  13.731   4.836   8.467 -0.0887  0.0387  0.1683
30517W        W30717  14.150   3.401   1.989 -0.0024 -0.1912  0.2668
30518W        W30718   2.680   2.118   2.856 -0.1405  0.1359 -0.0485
30519W        W30719   8.384   6.412  11.032 -0.1645  0.0107  0.2578
30520W        W30720  12.437   3.465  15.320  0.2648 -0.3128 -0.0182
30521W        W30721  13.868  16.936   1.646 -0.2095  0.1827  0.0397
30522W        W30722  15.224   1.895   8.801  0.0779  0.0299 -0.3036
30523W        W30723  13.726  17.843   9.027  0.1721  0.2759  0.3376
30524W        W30724  11.290   9.059   9.042  0.0288 -0.1328  0.1348
30525W        W30725  14.673  16.335   5.092  0.3497  0.5627 -0.2164
30526W        W30726  12.650   6.534   6.462  0.3148  0.1390  0.0726
30527W        W30727   8.284   6.360   7.086 -0.0642 -0.1533 -0.4946
30528W        W30728   7.610   8.126   4.784 -0.1790  0.0554 -0.1198
30529W        W30729   5.267   4.413   4.428  0.1053 -0.1689  0.0833
30530W        W30730  10.688   7.306   8.946  0.0488 -0.0464 -0.0773
30531W        W30731   3.218  13.474   2.374 -0.1484 -0.3338 -0.1266
30532W        W30732  12.586   6.852   9.207  0.3117  0.0493 -0.2663
30533W        W30733  15.584   0.996   5.025 -0.0386 -0.3190  0.1895
30534W        W30734  16.498   4.364   9.364 -0.2011  0.4040  0.1286
30535W        W30735  12.834   8.197   8.481  0.2078  0.2305  0.1396
30536W        W30736   8.913   4.474   7.811  0.0950  0.0536  0.1204
30537W        W30737   9.654  15.614   7.198  0.1097  0.0163 -0.1768
30538W        W30738   2.402   9.288   9.066  0.0008  0.2154  0.0073
30539W        W30739  10.656  16.902   8.915  0.0171 -0.1642 -0.0388
30540W        W30740  11.131   5.885  10.754 -0.0068 -0.2907 -0.0462
30541W        W30741  15.587   3.059   2.209 -0.2118 -0.5689  0.2408
30542W        W30742   8.140   2.722   3.428 -0.2081  0.0466  0.2040
30543W        W30743  11.118   6.932   3.889  0.0690  0.1206  0.1935
30544W        W30744  14.851   3.832   3.085  0.1743  0.3169 -0.0987
30545W        W30745   4.882   9.399   6.621  0.1778  0.1212 -0.2788
30546W        W30746  14.674  18.143  11.214 -0.1618 -0.0541 -0.4828
30547W        W30747  14.556  13.899   3.730 -0.2522  0.2400 -0.3538
30548W        W30748  16.958  17.128   9.722  0.3107  0.2960 -0.2819
30549W        W30749   2.385  17.494   7.465 -0.1473 -0.0557 -0.2396
30550W        W30750  13.319   7.261  15.829  0.0431  0.2243  0.0993
30551W        W30751  16.349   3.554   8.599  0.0160 -0.0876  0.3542
30552W        W30752   9.597  18.163   1.901  0.0347  0.3349  0.0757
30553W        W30753   1.510   7.013  15.864  0.0255  0.1124 -0.0828
30554W        W30754  14.155  12.837  13.121  0.0884 -0.0012 -0.3097
30555W        W30755   7.338   2.197   4.883 -0.0597 -0.0113  0.0244
30556W        W30756  10.596   3.577  13.941  0.2905  0.1344 -0.1207
30557W        W30757   1.700  18.107  17.159 -0.3272 -0.4064 -0.1231
30558W        W30758  17.971   0.768   4.206 -0.0576 -0.2083  0.0472
30559W        W30759   7.401   3.856  14.793 -0.1681 -0.1528  0.3889
30560W        W30760  11.201  14.482  18.052  0.3385 -0.2420 -0.7024
30561W        W30761   9.202   9.354   9.785  0.0686 -0.0655  0.3771
30562W        W30762  17.762   3.836   1.039  0.2210  0.1720  0.1324
30563W        W30763   0.643   5.837   4.757 -0.1329  0.2057  0.0822
30564W        W30764  18.181  18.067  12.779 -0.0902 -0.1578 -0.2871
30565W        W30765   7.827   0.782   4.943  0.2501 -0.0549 -0.1204
30566W        W30766   0.533   4.452   8.193 -0.3000  0.1168 -0.0667
30567W        W30767  12.255  16.905   7.223  0.3077  0.1549 -0.1854
30568W        W30768  16.669   8.993   3.476  0.0432 -0.2813 -0.1986
30569W        W30769  15.167   5.792   2.667 -0.2098 -0.0724  0.0064
30570W        W30770  15.476   4.781   5.250 -0.0138  0.1839 -0.0047
30571W        W30771   5.873   8.894   1.071 -0.2321  0.0053 -0.1082
30572W        W30772  18.191   6.761   5.862 -0.0301 -0.0437 -0.2395
30573W        W30773   2.081  16.001  15.115  0.2590  0.0433  0.1263
30574W        W30774  12.143  14.787   0.161 -0.0878 -0.2732  0.0856
30575W        W30775  17.141  17.735  12.085 -0.0166 -0.0698 -0.0586
30576W        W30776  13.024   0.322   0.778 -0.0205 -0.1660  0.2088
30577W        W30777  10.897  11.066   6.737  0.2059  0.0611 -0.2711
30578W        W30778   8.418  16.292   8.144 -0.0312  0.1140  0.0506
30579W        W30779  12.481  17.344   2.215  0.2209 -0.2421 -0.1198
30580W        W30780   9.389   3.650  14.204 -0.0570 -0.1325  0.0751
30581W        W30781   6.615  10.277   3.891 -0.4230 -0.1799 -0.1268
30582W        W30782  13.132  13.961  11.122 -0.0708  0.1237  0.0178
30583W        W30783  17.102   1.489  15.935 -0.2800  0.2855 -0.3444
30584W        W30784   4.908  16.921   6.795  0.3580  0.0909  0.0785
30585W        W30785  12.876   2.052  12.172 -0.1279  0.1304  0.0957
30586W        W30786  12.190  13.736  10.115  0.0930 -0.1632 -0.1713
30587W        W30787  16.044   8.963  11.094  0.2116  0.2230  0.1444
30588W        W30788  15.924   1.987  12.040 -0.3467  0.0920 -0.3495
30589W        W30789   1.870  14.822   4.839  0.0766  0.0792  0.1779
30590W        W30790  14.886  16.732   3.835 -0.0214  0.1416  0.1629
30591W        W30791  14.368   5.062   3.958  0.0291  0.1255 -0.1274
30592W        W30792  17.639  14.258   5.719  0.1719  0.1436 -0.0704
30593W        W30793  13.100   0.493   5.279 -0.4318 -0.1913  0.1627
30594W        W30794   9.113   5.669   8.703  0.1148 -0.1935  0.0857
30595W        W30795  12.921   3.793  11.042  0.0473 -0.3933  0.1627
30596W        W30796  12.609  10.460   2.269 -0.0084 -0.0329 -0.0553
30597W        W30797  10.695  16.563   4.837  0.2716  0.4184 -0.0087
30598W        W30798  16.263  17.884   6.813  0.1251 -0.0716 -0.2414
30599W        W30799   4.823   1.328  10.327 -0.3230  0.0411  0.1253
30600W        W30800   4.738  17.358   7.876 -0.3305 -0.0141  0.1584
30601W        W30801  13.858   8.721   5.341  0.1112  0.1357 -0.2778
30602W        W30802  14.575  16.896  16.823 -0.2346 -0.3933  0.3766
30603W        W30803   3.516  14.839   8.905 -0.0007  0.1476  0.4102
30604W        W30804  12.192   9.284   6.791  0.3049 -0.2842  0.1828
30605W        W30805  10.581  16.175  17.849  0.1027  0.0528 -0.0039
30606W        W30806  15.523   5.483   1.142  0.0856 -0.0204 -0.1460
30607W        W30807   7.852   0.428   6.238  0.0733 -0.0911 -0.3132
30608W        W30808  14.017   8.868   3.210 -0.0079  0.0054  0.3605
30609W        W30809  15.383   0.771   2.490  0.0249  0.3200  0.0361
30610W        W30810  18.021  15.076   5.975  0.1640  0.1147 -0.0463
30611W        W30811   0.360  16.909   0.120 -0.2261  0.3487 -0.5019
30612W        W30812  15.169   8.946   2.807  0.1131 -0.4530  0.2182
30613W        W30813  15.954  17.444   5.465 -0.4197  0.0918 -0.0824
30614W        W30814  12.157   0.527  12.397  0.1005  0.0260  0.2245
30615W        W30815  15.883   3.994  13.226 -0.2291 -0.2982 -0.0920
30616W        W30816  15.083  12.020   3.608 -0.1941  0.0827 -0.1115
30617W        W30817   6.443   0.905   3.944  0.1632  0.1199 -0.0202
30618W        W30818  10.849   4.348   8.956 -0.0845  0.3167  0.3161
30619W        W30819  13.687   1.181   2.543 -0.2528  0.0779  0.3408
30620W        W30820   8.385   1.242  12.132 -0.1414  0.1096  0.0830
30621W        W30821  10.019   0.190   2.099 -0.0363 -0.1160  0.0000
30622W        W30822  12.366   6.103   9.819  0.0698 -0.3194  0.6674
30623W        W30823  16.444   7.337   9.030 -0.1246 -0.0646 -0.2984
30624W        W30824  16.406  17.062  16.672 -0.2104  0.1660  0.0185
30625W        W30825   2.697   7.101  16.214  0.0181  0.0677 -0.0099
30626W        W30826  13.894   3.017   2.154 -0.0873 -0.1342  0.0983
30627W        W30827  12.272  11.007  12.264 -0.0882 -0.0783 -0.1208
30628W        W30828  15.583   7.510  10.676  0.1035 -0.2715 -0.1178
30629W        W30829   1.944  12.490  16.349 -0.0930  0.0682  0.3843
30630W        W30830   0.694   1.504   7.279 -0.2786 -0.2129  0.0805
30631W        W30831  12.549   6.751  13.217 -0.3109 -0.0388  0.0112
30632W        W30832   1.510   6.951  10.960 -0.0531  0.1708 -0.1591
30633W        W30833  17.629   3.931   9.001  0.1200 -0.1632 -0.1734
30634W        W30834  12.596   7.418  17.012 -0.0910 -0.2242 -0.3097
30635W        W30835   9.219  17.046  15.559 -0.0220  0.1446 -0.2867
30636W        W30836   9.415   8.426   4.537 -0.1720  0.3020 -0.0952
30637W        W30837   9.858   5.837  10.378 -0.2474 -0.1955  0.1490
30638W        W30838  16.323   7.468   6.197 -0.5276  0.0824  0.1099
30639W        W30839  12.319  16.588   8.681 -0.1912  0.0784  0.0662
30640W        W30840   0.215   9.951   2.494  0.2003 -0.2719 -0.0248
30641W        W30841  13.121  13.867   2.009 -0.1355  0.2818 -0.0400
30642W        W30842  17.185   4.795   5.173  0.1156  0.0381  0.0613
30643W        W30843  11.776   8.751   9.606  0.0769  0.1408  0.1486
30644W        W30844  14.190   0.884  11.448  0.1274 -0.1591  0.1913
30645W        W30845  16.778   9.088   9.588  0.0586 -0.0078 -0.3281
30646W        W30846  15.048  16.584   0.100  0.1419 -0.0696 -0.1360
30647W        W30847  10.489  17.295  17.231 -0.0553  0.2410  0.2597
30648W        W30848  16.669   5.715   2.140 -0.0407  0.1638  0.0539
30649W        W30849  10.566   2.640   1.574  0.1660  0.0734 -0.0701
30650W        W30850   1.954  13.119   8.096 -0.0504  0.2118 -0.0927
30651W        W30851  10.439  17.735  17.380 -0.0003 -0.3074 -0.0549
30652W        W30852  14.428  17.066  11.050 -0.0522 -0.0693  0.2598
30653W        W30853  12.049  17.694  12.790  0.0228  0.3211  0.0705
30654W        W30854   9.171   2.679  11.458  0.2271 -0.1311 -0.2786
30655W        W30855  12.716  16.698   0.269  0.3386 -0.0112  0.1035
30656W        W30856  10.027   0.864   4.498 -0.2000 -0.0938  0.2296
30657W        W30857   1.627  14.176   8.530  0.0481 -0.0584  0.0717
30658W        W30858  17.957  17.747   4.825 -0.1726  0.2446 -0.0391
30659W        W30859   1.954   1.098   6.943  0.1153 -0.1183  0.2335
30660W        W30860   0.153   8.459   8.866 -0.1337 -0.0632  0.2244
30661W        W30861  14.208   4.921   4.507  0.1269  0.4841 -0.1319
30662W        W30862  14.191   6.084   8.333 -0.2389  0.0553  0.1388
30663W        W30863   0.736  17.420   2.927  0.0747  0.3471  0.0925
30664W        W30864  16.672   9.648   5.230 -0.2985  0.1033  0.0819
30665W        W30865   9.519  11.617  13.479  0.0537  0.1573 -0.1470
30666W        W30866  12.354  14.158   3.693 -0.1135  0.2980  0.0112
30667W        W30867   0.157   6.585   9.396 -0.2923  0.4123  0.1274
30668W        W30868  16.143   3.462   6.285 -0.0016 -0.2759  0.5869
30669W        W30869  12.664   6.948  17.734 -0.0335  0.1803  0.0471
30670W        W30870  13.119   1.434   4.320 -0.0523 -0.0555 -0.3354
30671W        W30871  12.326  17.969  10.075 -0.1908  0.1842 -0.2573
30672W        W30872  12.466   7.615  16.559 -0.0005 -0.0339  0.0117
30673W        W30873  12.059   5.954  11.169  0.1219  0.1785  0.0376
30674W        W30874  12.578   4.657   8.594  0.3533 -0.2403 -0.0721
30675W        W30875   2.571   7.894   7.916  0.3008  0.5251 -0.0055
30676W        W30876  18.019   0.767   8.619 -0.0027  0.1475 -0.1847
30677W        W30877  12.822   4.234  15.200 -0.1197 -0.2739 -0.0968
30678W        W30878  14.789   2.192   0.553 -0.2270 -0.0273  0.2531
30679W        W30879  11.048  11.799  17.978 -0.0289  0.2347 -0.0234
30680W        W30880  10.033   0.203   9.415  0.0964  0.1661  0.1133
30681W        W30881  13.483   2.144   8.823  0.2742 -0.0997 -0.1209
30682W        W30882  10.584  12.471   8.680  0.0484 -0.3187  0.1071
30683W        W30883  11.773   1.383   7.945  0.2128  0.1135  0.1137
30684W        W30884  15.098  16.970   5.675 -0.1137  0.0399 -0.0923
30685W        W30885   8.132   6.546   2.538 -0.0493  0.2359 -0.1069
30686W        W30886  16.075  16.575  18.028  0.1986 -0.1215 -0.1802
30687W        W30887   0.073   8.798   2.594  0.1267  0.0616  0.1352
30688W        W30888  16.020   1.089   7.050  0.0791 -0.5239 -0.1500
30689W        W30889  14.894   1.065  16.719 -0.0815  0.0316  0.2930
30690W        W30890  12.379  14.759  11.153  0.1075  0.0097  0.1729
30691W        W30891  16.917  10.999   2.770  0.0796  0.2411  0.0836
30692W        W30892  13.652   4.138   2.327  0.0209  0.0097  0.1762
30693W        W30893  12.042   0.307   0.541 -0.3390  0.0747  0.0798
30694W        W30894  16.082   0.825   3.167 -0.0286 -0.0246  0.2283
30695W        W30895   8.342   0.858   1.691 -0.1205 -0.1497  0.3825
30696W        W30896  17.133   3.356   5.559 -0.0806 -0.0601  0.3448
30697W        W30897  14.139   1.649  18.190 -0.0613 -0.0464  0.3194
30698W        W30898  15.683   1.574   7.636 -0.1186  0.0638  0.1854
30699W        W30899  12.912   7.143  11.353 -0.1759  0.1527 -0.2354
30700W        W30900  14.343  16.864  15.564  0.1341 -0.0706  0.1218
30701W        W30901  16.404  16.476   0.259 -0.1867  0.0703  0.1360
30702W        W30902  17.337   8.011  18.118  0.1657 -0.2272 -0.2220
30703W        W30903   6.778  11.530   9.037  0.2322  0.2198  0.2447
30704W        W30904  10.123  10.324   8.509  0.1563 -0.1171 -0.3301
30705W        W30905  16.851   9.307   7.799 -0.0897 -0.2299  0.0536
30706W        W30906  12.044  11.825   2.991  0.1176 -0.0574  0.3419
30707W        W30907  14.072  17.580   2.101  0.2203 -0.4161  0.0710
30708W        W30908   2.846  16.737  12.242 -0.2012  0.0311  0.0889
30709W        W30909  17.496   6.426   5.737  0.0955 -0.1851 -0.1894
30710W        W30910  14.615   1.692   8.015 -0.2108 -0.2710  0.3271
30711W        W30911  10.407   1.567   1.479 -0.1397 -0.1690 -0.2808
30712W        W30912  16.860   1.019   7.462 -0.0877  0.1986  0.0564
30713W        W30913  13.604  16.112   7.772 -0.1070 -0.0722  0.0780
30714W        W30914  16.072  14.187   6.082 -0.0097 -0.1594  0.1612
30715W        W30915   0.789   2.551   4.741  0.1733 -0.1966 -0.0259
30716W        W30916   9.135   1.174  14.076  0.0573  0.3408  0.2486
30717W        W30917   9.864  18.175   4.011 -0.0379 -0.0841  0.0080
30718W        W30918  17.570  14.549   6.187 -0.0252  0.3108  0.1662
30719W        W30919  15.461  15.404   6.351  0.0647 -0.0045 -0.4849
30720W        W30920   0.928   0.612   7.801 -0.1739 -0.0983 -0.1248
30721W        W30921  12.909   2.460  14.700 -0.0869 -0.1054  0.0324
30722W        W30922  14.303   8.985   3.673  0.0225  0.1600  0.1675
30723W        W30923  15.287  15.822   1.314 -0.3415  0.4459 -0.0022
30724W        W30924  13.204   2.521   4.199 -0.1878 -0.1221 -0.2717
30725W        W30925   4.093  13.851   5.867 -0.1371  0.0768 -0.5250
30726W        W30926   8.181  17.836   5.537  0.1360 -0.0650  0.3472
30727W        W30927  17.043   7.506   9.821  0.5202 -0.3272  0.2092
30728W        W30928   2.223  12.980   7.281  0.3319 -0.0013  0.2274
30729W        W30929   7.918  16.125   1.980 -0.1437 -0.4386  0.5499
30730W        W30930  17.861  14.994   8.664  0.1912  0.1809  0.0595
30731W        W30931   1.157  15.905   7.758 -0.4454 -0.0998 -0.0520
30732W        W30932  18.154   1.867  14.792 -0.1300  0.1805 -0.2293
30733W        W30933   3.419   0.181   8.961  0.1967  0.1429 -0.0750
30734W        W30934  11.371   3.792  14.223  0.0106  0.2119  0.0326
30735W        W30935  15.749   2.583   8.837  0.1674  0.0403  0.2855
30736W        W30936   6.198   1.065  12.797 -0.1936 -0.0242  0.0038
30737W        W30937   1.257   3.438  16.365  0.0620  0.1037 -0.5366
30738W        W30938  14.812   1.552  12.447  0.0169  0.1749 -0.1904
30739W        W30939   2.951   5.258   7.775  0.2890  0.0192 -0.1446
30740W        W30940  16.431   7.134   0.746  0.2604 -0.2731  0.1334
30741W        W30941  16.695   4.799  11.309 -0.1489  0.1179 -0.1569
30742W        W30942   1.239   6.996   5.825  0.4178  0.4960 -0.2075
30743W        W30943   8.969   3.487   1.878 -0.3764 -0.1086 -0.1110
30744W        W30944   9.262   9.252  11.804 -0.3162 -0.0795 -0.0342
30745W        W30945  13.267   4.973   3.305 -0.0521 -0.0110 -0.0097
30746W        W30946   3.623   2.308  11.273  0.2522 -0.2699 -0.2476
30747W        W30947  13.288  15.466   7.200  0.0787 -0.1550  0.1336
30748W        W30948   0.190   5.950   4.997  0.2091 -0.0051  0.2614
30749W        W30949  10.707   3.521   2.659 -0.0529 -0.2051 -0.5123
30750W        W30950  16.434  13.889   7.577  0.1329 -0.0481  0.1112
30751W        W30951   9.468  12.962  12.038 -0.0480 -0.2946  0.1977
30752W        W30952  15.190   6.329   5.561 -0.1576 -0.0818  0.0177
30753W        W30953   3.006   0.622  14.658  0.1270  0.2149 -0.2651
30754W        W30954   9.600   1.834  17.838 -0.0408 -0.1181 -0.1605
30755W        W30955  14.889   4.165  12.605 -0.1316  0.0808  0.3344
30756W        W30956   3.685   5.123  13.962  0.0451 -0.1710  0.1450
30757W        W30957   0.469  17.811   6.973  0.2828 -0.2202  0.3755
30758W        W30958  15.032   2.801  13.752  0.1158  0.1141  0.3560
30759W        W30959   0.868   4.516   9.249  0.0273 -0.0488  0.1112
30760W        W30960   0.190   2.142   6.144 -0.4449  0.0695  0.0224
30761W        W30961   6.818  14.922   7.843  0.0383  0.2054  0.1261
30762W        W30962  17.677  15.233   0.382 -0.2088  0.0830  0.0603
30763W        W30963  15.680  17.267   8.616  0.0111  0.1503 -0.1672
30764W        W30964   9.417  17.708   1.680  0.1925  0.1574 -0.1325
30765W        W30965  17.218  14.376  15.674  0.1490 -0.0451  0.1331
30766W        W30966   1.069  14.963   5.794 -0.0562 -0.0286 -0.1337
30767W        W30967  15.584   3.685   3.672  0.2441  0.0461 -0.1249
30768W        W30968  12.992  14.242   4.834 -0.3560 -0.0904 -0.1891
30769W        W30969   5.165   2.211   8.689 -0.2593  0.2723  0.0429
30770W        W30970  12.019   7.008   8.480 -0.2305 -0.1575 -0.0562
30771W        W30971   2.873   1.825   9.310  0.0643  0.0962  0.1445
30772W        W30972   8.443  17.430  13.183 -0.1596 -0.0864 -0.1441
30773W        W30973  11.547   3.334   6.576  0.0736  0.0983  0.0944
30774W        W30974  12.299   0.497   2.417 -0.1194 -0.2122 -0.3335
30775W        W30975  14.873  13.097  13.719  0.1290 -0.1628  0.4837
30776W        W30976   8.600   1.722   0.586 -0.2835 -0.1783  0.1073
30777W        W30977   9.896   8.770   8.601  0.3638  0.3765  0.2372
30778W        W30978  16.079   4.166   9.103 -0.4351 -0.0717  0.0434
30779W        W30979   8.227   2.993  17.129 -0.0137  0.1045  0.1990
30780W        W30980   3.207  15.229   5.658  0.1135 -0.0282  0.0475
30781W        W30981   8.739   4.199   3.733  0.0873  0.0174  0.2424
30782W        W30982  13.600  14.040   2.992  0.3155 -0.3728 -0.0678
30783W        W30983  11.828  17.776   1.334  0.2892  0.3014 -0.1115
30784W        W30984   0.838  16.513   1.653 -0.0882  0.0720 -0.1503
30785W        W30985   3.255   6.035   9.689  0.4198 -0.0994 -0.0198
30786W        W30986  11.833   5.494   6.300 -0.0009 -0.0082 -0.0092
30787W        W30987  17.836  15.497   6.170  0.3906  0.4089 -0.0234
30788W        W30988   4.721   0.828   0.518  0.0693  0.0846  0.0801
30789W        W30989  10.543   3.896   3.944  0.1468 -0.3570 -0.0361
30790W        W30990  15.373   7.613  15.122  0.2684  0.2520 -0.1424
30791W        W30991   1.607   2.718   3.097 -0.2809 -0.3559 -0.1634
30792W        W30992  15.891  10.643  12.157  0.0728 -0.1598 -0.0075
30793W        W30993  14.346   0.924   4.223  0.1822  0.0021  0.2550
30794W        W30994   4.976  14.980  10.725  0.2459 -0.0567  0.1549
30795W        W30995  12.216   1.384  16.562 -0.0863 -0.2404  0.0885
30796W        W30996  14.848   1.983   2.478  0.1260 -0.4550 -0.1280
30797W        W30997   0.215   2.263   9.719 -0.2224  0.1196  0.1076
30798W        W30998  15.934   1.699   4.576  0.1468 -0.0363 -0.2328
30799W        W30999   3.866   0.939   5.680  0.0545 -0.0340  0.0385
30800W        W31000  14.117   1.599   3.708  0.3081  0.0619 -0.3282
30801W        W31001  16.148   2.374   8.430  0.2311  0.2876  0.1292
30802W        W31002  14.037   3.721  14.118 -0.2072  0.2107  0.1611
30803W        W31003  10.899   3.677  12.676 -0.0105  0.0111  0.2599
30804W        W31004  14.830  12.738   9.529  0.1104 -0.0912  0.1716
30805W        W31005   0.582  10.402   8.564 -0.0822 -0.0725  0.0778
30806W        W31006  12.304   0.110  14.630  0.3518  0.0155 -0.0651
30807W        W31007  10.706   9.489   4.809 -0.1273 -0.3231 -0.1860
30808W        W31008   9.537   5.335  14.436 -0.3312 -0.3569 -0.1238
30809W        W31009   6.630   1.355   9.179 -0.0196  0.1032  0.2267
30810W        W31010   5.331   5.756  10.820 -0.0732  0.2428  0.0139
30811W        W31011   2.048   3.342   9.472 -0.0544  0.1414  0.1105
30812W        W31012  16.020   3.010   7.740 -0.0468  0.0797  0.1571
30813W        W31013  13.493   8.778  13.108  0.1539 -0.0220 -0.0983
30814W        W31014  11.943  12.189  10.888  0.2164  0.2705  0.1161
30815W        W31015  14.288  18.095   5.970  0.0260  0.0956 -0.0083
30816W        W31016   3.449   1.046  10.688 -0.2481 -0.1243  0.0006
30817W        W31017   9.920   2.152  13.029 -0.0920 -0.2674 -0.1600
30818W        W31018   7.220   0.665   0.216 -0.1932 -0.0211 -0.3208
30819W        W31019   4.005   2.609   3.965 -0.0562  0.3109  0.1228
30820W        W31020   4.023   7.463  15.958 -0.1917  0.0227  0.0639
30821W        W31021  12.814   4.740  14.470 -0.1057  0.2363 -0.0874
30822W        W31022   0.172  16.702   9.949  0.0170  0.3721 -0.1999
30823W        W31023  11.451  15.858  10.073  0.1331 -0.0271 -0.0135
30824W        W31024  11.813  17.563   0.560  0.3205 -0.0814 -0.1022
30825W        W31025   8.600   3.760   2.522  0.3208 -0.3078  0.0221
30826W        W31026   8.694  15.453   8.757  0.1723 -0.4533  0.1134
30827W        W31027   6.625   6.572   8.068  0.1201  0.1061 -0.0025
30828W        W31028  13.802   6.103  13.207 -0.1508  0.1497  0.0002
30829W        W31029  17.410   2.232   3.832 -0.2900  0.1637  0.1453
30830W        W31030  17.669   2.071  13.743  0.1853 -0.2759 -0.0776
30831W        W31031   1.495   5.757   4.030 -0.2920  0.1311  0.2730
30832W        W31032   7.864   2.424  10.586  0.0749  0.4138  0.0587
30833W        W31033   3.437   5.497   6.494  0.2101 -0.1382  0.2752
30834W        W31034   2.123  15.200  16.485 -0.1884 -0.4569  0.1543
30835W        W31035   9.510   5.742   9.862  0.3043 -0.2780 -0.3028
30836W        W31036  12.654   0.762   7.800  0.1953 -0.0170 -0.4348
30837W        W31037  16.274  16.204   7.413 -0.0515  0.1252  0.0854
30838W        W31038   6.825  15.951   9.069  0.2126 -0.3207 -0.2162
30839W        W31039  15.999   3.614  14.033  0.0456 -0.2231  0.1090
30840W        W31040  17.677   1.239   7.252  0.0095 -0.0436  0.1776
30841W        W31041  15.802   8.075  11.583  0.0751  0.0083 -0.0036
30842W        W31042   8.129   4.460   4.989 -0.0646  0.6238  0.3115
30843W        W31043  17.588   5.746   5.518  0.2584  0.2504  0.2408
30844W        W31044  13.974  11.746   8.557 -0.1139  0.2746 -0.1431
30845W        W31045  12.213   2.291   2.751  0.2039 -0.5102  0.1908
30846W        W31046   0.098   3.773  15.694 -0.0547 -0.0423  0.0140
30847W        W31047  17.441   5.266  15.391  0.0487 -0.1192  0.0234
30848W        W31048  15.325   0.065  10.218  0.0830 -0.1063 -0.4073
30849W        W31049  15.923   0.438   4.481  0.3693 -0.2794 -0.1397
30850W        W31050  10.870   9.840   7.268 -0.1166 -0.3853 -0.1661
30851W        W31051  15.211  15.274   4.565 -0.0094  0.1122 -0.1407
30852W        W31052  12.640   0.095  15.052 -0.0229 -0.0566 -0.0219
30853W        W31053   9.193   2.343  12.026 -0.0059 -0.0875  0.1592
30854W        W31054   8.237  10.860  10.556  0.0968 -0.0752  0.2722
30855W        W31055  17.933   4.700  14.936  0.0598 -0.0749 -0.2336
30856W        W31056  12.307   5.296  10.989 -0.0867  0.2756 -0.1878
30857W        W31057   4.880   5.152  11.745  0.0740 -0.0479  0.3719
30858W        W31058   6.637   4.066   6.713 -0.0456 -0.0396  0.2183
30859W        W31059  11.887   3.592   6.351 -0.3165 -0.0892 -0.1319
30860W        W31060  16.519   6.828   9.632 -0.3880  0.0674  0.0698
30861W        W31061  14.413   1.226   5.595  0.1989  0.2644 -0.1478
30862W        W31062  13.945   3.524  11.363 -0.2718  0.1899 -0.0992
30863W        W31063   8.088  17.701  11.169 -0.0365  0.2736  0.1063
30864W        W31064   9.300   3.875   1.621  0.3473  0.3036 -0.2808
30865W        W31065   8.339   0.041  15.983 -0.1377  0.0105  0.2575
30866W        W31066  10.641  14.177   8.258 -0.0157 -0.3883  0.1563
30867W        W31067   2.591   3.834  11.242 -0.0999 -0.3839  0.0556
30868W        W31068  15.433   2.535  10.259  0.1403 -0.0951  0.0945
30869W        W31069  12.105  18.062  16.681 -0.2005  0.0940  0.1289
30870W        W31070   8.076   4.534  13.480 -0.0347 -0.1538 -0.2573
30871W        W31071   6.769  13.921   9.712  0.3000 -0.0829 -0.0113
30872W        W31072  12.418   5.799   7.566 -0.1595  0.2227  0.1598
30873W        W31073  12.019  10.198   9.344  0.1586 -0.0212 -0.0160
30874W        W31074  13.634   4.987   3.735  0.0200  0.1688  0.1715
30875W        W31075  12.953   0.581  17.561 -0.3857  0.2890  0.0441
30876W        W31076  17.624   3.209   4.119  0.3145 -0.0302  0.0936
30877W        W31077   5.851  16.557  11.754  0.0031 -0.1197 -0.0963
30878W        W31078   8.324   6.832   8.712  0.1626  0.3233 -0.1317
30879W        W31079   9.478   2.568   1.657  0.2030  0.1472 -0.0589
30880W        W31080  16.892   3.917   9.302 -0.0648  0.0409 -0.1033
30881W        W31081  14.551   4.714  16.914 -0.0587 -0.3060 -0.0912
30882W        W31082   3.910   9.184   4.102 -0.1833 -0.0921 -0.2202
30883W        W31083  10.380  14.935   6.008  0.0614  0.1350  0.0313
30884W        W31084   5.526   5.572   8.998  0.0161 -0.0926 -0.3656
30885W        W31085  17.078   0.762   5.828 -0.0938 -0.0165 -0.0782
30886W        W31086  10.483  14.368  10.399 -0.2271 -0.1780  0.4473
30887W        W31087   7.259   0.433  12.490 -0.2546 -0.0772 -0.0898
30888W        W31088  12.039   4.602  18.028 -0.0479  0.0704  0.2995
30889W        W31089   9.219   5.286  10.651  0.1389 -0.0658 -0.1868
30890W        W31090  14.144   8.245   7.407  0.2609 -0.1552 -0.0616
30891W        W31091  13.029  14.733  14.099  0.0289 -0.1062  0.0682
30892W        W31092  10.125  14.747  14.225  0.1495  0.0031  0.0459
30893W        W31093  15.924   6.912  12.569 -0.0332 -0.2799 -0.1934
30894W        W31094  12.898   6.325  12.544  0.0068 -0.1441 -0.2484
30895W        W31095   8.816   2.912  12.767 -0.1288  0.0198  0.3980
30896W        W31096  13.218   0.864  12.939 -0.0456  0.0941  0.1005
30897W        W31097  12.718   7.825  12.364 -0.1427  0.2133  0.1293
30898W        W31098   7.024   2.255  10.882  0.3228 -0.0405 -0.2238
30899W        W31099  16.636  16.521   1.294 -0.0635  0.1146 -0.0526
30900W        W31100  14.302   6.674  11.959  0.1186 -0.4871  0.3400
30901W        W31101   3.512  13.990  11.994 -0.3635  0.0513  0.2292
30902W        W31102  15.500  17.001   6.706 -0.2148  0.0055 -0.1406
30903W        W31103  11.015   2.145   1.060 -0.0633 -0.1685 -0.0239
30904W        W31104   0.177   4.648   4.005  0.0865 -0.0603  0.0847
30905W        W31105  11.825   3.146  14.669  0.1648 -0.4218 -0.1376
30906W        W31106  15.903   0.701  12.027 -0.0147 -0.3165 -0.1144
30907W        W31107  13.195  16.333  12.338 -0.1007  0.0709  0.2532
30908W        W31108  18.039   6.237   8.609 -0.0699 -0.0840 -0.1199
30909W        W31109   4.963  10.289  15.579  0.2679  0.1937 -0.0541
30910W        W31110  14.436   4.445   4.222 -0.0424  0.0799 -0.2078
30911W        W31111   1.142  15.700  14.506  0.0839 -0.0868 -0.0548
30912W        W31112  13.572   5.740  14.229  0.0926  0.0793  0.1701
30913W        W31113  14.479   4.271   8.171  0.2183 -0.3197 -0.1124
30914W        W31114  16.499   4.566   5.410  0.1944 -0.2016 -0.1102
30915W        W31115   9.060   3.464  14.567  0.0626 -0.1888  0.0195
30916W        W31116   0.620   1.032  16.427 -0.0581 -0.2049 -0.0943
30917W        W31117   2.177  13.296   1.693  0.0835 -0.1801 -0.0788
30918W        W31118  13.926  18.087  13.727  0.2658  0.2876 -0.0669
30919W        W31119   9.551   4.271   1.424 -0.1100 -0.0155 -0.3213
30920W        W31120  13.114   4.815   8.489  0.1509 -0.0715  0.2316
30921W        W31121   4.417   4.206   7.876  0.0639 -0.1159 -0.0329
30922W        W31122   9.143  16.374   5.596  0.2735  0.0721 -0.0914
30923W        W31123   1.879  16.439   8.687  0.1288  0.0819 -0.2005
30924W        W31124   7.222  13.544  11.992 -0.0112 -0.1366 -0.0869
30925W        W31125   5.646   1.701  14.862  0.0699 -0.0956 -0.0311
30926W        W31126  13.520  17.845  10.074 -0.2172 -0.0522  0.2154
30927W        W31127  11.755   2.374   1.702 -0.0917 -0.0692 -0.1949
30928W        W31128   3.643   4.264  12.866 -0.0415  0.0901 -0.0612
30929W        W31129  16.600  13.242  14.239 -0.0833  0.3319  0.2359
30930W        W31130  10.272   3.362   5.890  0.0279 -0.0864  0.6094
30931W        W31131   0.359  18.032   3.707  0.0592  0.1340  0.0024
30932W        W31132  13.459   4.564  10.982  0.1185  0.1976  0.0048
30933W        W31133  12.924   3.290  11.183  0.2144  0.2532 -0.1613
30934W        W31134   9.579   4.048   5.819 -0.2606  0.2910  0.2932
30935W        W31135  13.355   0.953   2.253  0.1702  0.2671  0.1463
30936W        W31136   1.577   6.609   1.827 -0.2207  0.2361 -0.1321
30937W        W31137   7.301  17.668   8.955 -0.0153  0.1300 -0.1774
30938W        W31138  16.894  17.594   3.383 -0.1204 -0.3058  0.1665
30939W        W31139   2.279   0.401   1.368 -0.2176  0.0932  0.3110
30940W        W31140   3.638  15.851   1.995  0.2346 -0.2191 -0.0310
30941W        W31141  17.998   5.573   5.127  0.0801 -0.3434 -0.0845
30942W        W31142  14.391   4.386  11.142 -0.2451 -0.1133 -0.0549
30943W        W31143  13.036  12.248   1.773 -0.1389  0.1331 -0.2192
30944W        W31144   2.487   3.828   7.376 -0.0723  0.2543  0.1792
30945W        W31145  10.110  17.780   3.867 -0.0800  0.0633  0.1329
30946W        W31146  11.321   1.210  11.322 -0.2658 -0.0386  0.0489
30947W        W31147  15.145   2.556   8.185  0.0660  0.0413  0.0118
30948W        W31148  13.864   3.702   9.719  0.1605 -0.0194 -0.1871
30949W        W31149   1.664  13.824   4.082 -0.2518 -0.0704  0.2224
30950W        W31150  15.889  14.372  12.697  0.2997  0.1636  0.2770
30951W        W31151  17.400   4.445   2.040  0.2009  0.2304  0.1633
30952W        W31152  16.409  14.644   3.552 -0.1560 -0.1161  0.0395
30953W        W31153  11.703  16.803   4.363  0.0708 -0.1295 -0.1705
30954W        W31154   1.836  11.677   5.654 -0.2040  0.0995  0.4054
30955W        W31155   3.851   2.808  12.779  0.0347 -0.1359 -0.2308
30956W        W31156  10.051   2.870   9.328  0.2291 -0.0092 -0.1084
30957W        W31157   1.400   2.259   8.488  0.0290 -0.0969 -0.3338
30958W        W31158  16.188   4.026   8.583  0.4358 -0.1059  0.1118
30959W        W31159   8.624   4.573  11.288 -0.1854 -0.3248  0.0132
30960W        W31160  14.259   2.151   3.412 -0.0543  0.1401 -0.1109
30961W        W31161  12.836  16.701  14.768 -0.3937 -0.3535 -0.0352
30962W        W31162  17.154   1.615  14.307  0.2478  0.0634 -0.0540
30963W        W31163  16.925   1.590  16.882  0.1041  0.1196  0.2513
30964W        W31164  12.747   3.452   8.069 -0.1016  0.0987 -0.0828
30965W        W31165  11.566  12.294  12.313  0.1284 -0.1888 -0.2800
30966W        W31166   8.325   0.259  14.122 -0.0757  0.0431 -0.0170
30967W        W31167  13.847  17.624  12.570 -0.2003 -0.0757 -0.2964
30968W        W31168  11.273  11.474   5.724 -0.0291 -0.1149  0.1885
30969W        W31169  15.773   2.201  16.954 -0.0010  0.1153  0.2757
30970W        W31170   1.332  10.229   3.872  0.1678  0.0309  0.1323
30971W        W31171  13.523   1.551  10.954 -0.1360 -0.2894  0.0092
30972W        W31172  17.921  15.332  10.152 -0.0088 -0.0269  0.0915
30973W        W31173  12.187   5.870   6.253  0.0228  0.2246 -0.3959
30974W        W31174   8.966   2.473  16.618 -0.1129  0.0712  0.1411
30975W        W31175   0.117   6.595   0.281 -0.0433  0.0472  0.5953
30976W        W31176   2.258  14.031  16.915 -0.1513 -0.0753 -0.1123
30977W        W31177  11.171   7.543  14.035  0.1288 -0.1419  0.1240
30978W        W31178  10.388   8.078   8.452 -0.1121  0.0595  0.3662
30979W        W31179   0.363  11.020   7.313  0.0062 -0.0360 -0.1247
30980W        W31180  17.213   8.579  12.616 -0.1113  0.2472 -0.2888
30981W        W31181   5.643   0.899   0.696  0.0347 -0.0742 -0.0604
30982W        W31182  13.669  15.050  15.631  0.1815 -0.1942  0.1484
30983W        W31183  12.252   2.501   5.960 -0.0339  0.0839 -0.0737
30984W        W31184  17.204   4.215   8.984 -0.0905 -0.1867  0.2622
30985W        W31185   9.624   4.786   9.631 -0.0535 -0.1243 -0.1677
30986W        W31186  13.823   7.942  11.487 -0.0795  0.1606 -0.2411
30987W        W31187   9.678  16.075   7.348 -0.1328 -0.0062 -0.1243
30988W        W31188  12.704  17.637  10.033  0.1721 -0.0899 -0.0963
30989W        W31189   8.015  17.862  10.090  0.2074  0.3199 -0.0433
30990W        W31190   9.983   8.750  13.526  0.1069 -0.3655  0.2642
30991W        W31191  17.857   5.389   9.074 -0.2977 -0.0341  0.0356
30992W        W31192  17.504   9.619   1.808 -0.1729  0.4014  0.0626
30993W        W31193   9.293   8.898   7.677  0.0343  0.0825  0.0468
30994W        W31194   0.315   0.916  13.639  0.1300  0.1018  0.1944
30995W        W31195  10.688   1.850   9.908 -0.0742  0.3531 -0.0874
30996W        W31196   7.923  12.058  14.788  0.0273  0.2242 -0.2293
30997W        W31197  12.996   1.851   8.701  0.3791 -0.2393 -0.1594
30998W        W31198   2.585   5.146   9.984  0.1299  0.0346  0.0604
30999W        W31199  14.881   4.399   8.557  0.0856 -0.0431 -0.0350
31000W        W31200  16.726  17.438  12.234  0.1984  0.0584 -0.3160
31001W        W31201   9.675  13.157  12.517  0.1008  0.4333  0.2082
31002W        W31202  14.500  13.830   2.925  0.0396  0.1947  0.0846
31003W        W31203  17.380  17.945   2.138 -0.0057  0.2297 -0.1187
31004W        W31204  18.033  16.279  10.023  0.3192 -0.1618 -0.0333
31005W        W31205  10.554  12.872   0.895  0.3349  0.0286 -0.1151
31006W        W31206  13.366   1.966  10.034 -0.2625 -0.2934 -0.2034
31007W        W31207   9.238   4.524  10.285 -0.1808 -0.0673  0.2196
31008W        W31208   8.994   1.061   7.764 -0.0194 -0.0129 -0.0614
31009W        W31209  14.667   9.291   7.751 -0.2249 -0.1358 -0.0955
31010W        W31210  12.327   0.696  13.004  0.1945  0.0203 -0.1361
31011W        W31211  13.198   9.305  11.131 -0.2343  0.0195 -0.2711
31012W        W31212  10.778   4.936   9.221  0.2338 -0.0077 -0.1895
31013W        W31213   6.848  11.383   4.675  0.2704 -0.0570 -0.0973
31014W        W31214   9.803   9.945   9.354 -0.1336  0.2603  0.3354
31015W        W31215  13.959   4.434  14.747 -0.2441 -0.0543  0.0616
31016W        W31216  12.266   3.599  11.951 -0.2698 -0.1630 -0.1451
31017W        W31217   2.695   7.706  12.334  0.1307 -0.1652  0.1188
31018W        W31218  11.495   4.279  14.150  0.1018  0.4024 -0.2500
31019W        W31219  14.935   5.092  15.311  0.1349 -0.1336  0.2256
31020W        W31220   0.066   1.568  15.832  0.0135 -0.3706  0.2524
31021W        W31221   9.529   0.775   0.355 -0.1190 -0.0839  0.1354
31022W        W31222  15.475   9.003   5.720 -0.1220 -0.1006  0.2746
31023W        W31223   1.675   3.616  16.704  0.0132  0.2189  0.1247
31024W        W31224  15.505   3.507   1.905 -0.0094  0.1800  0.2402
31025W        W31225  12.128   1.000  12.483  0.2679 -0.0690 -0.0762
31026W        W31226   1.425   0.200   9.830 -0.2126 -0.0928 -0.1018
31027W        W31227   7.720   3.029  15.263  0.0703  0.3227  0.0235
31028W        W31228   9.328  18.107  10.841 -0.1931 -0.1935 -0.3997
31029W        W31229   7.531  18.036  17.280  0.1068  0.0526  0.0168
31030W        W31230  14.768   1.507   5.380  0.1752 -0.0127 -0.2237
31031W        W31231  11.372   1.729  15.583 -0.0721 -0.0866  0.1810
31032W        W31232  11.433   0.370  16.068  0.0001  0.1921 -0.2384
31033W        W31233  16.734   6.219   7.577  0.0114 -0.2920 -0.1782
31034W        W31234  13.216   6.556  13.539 -0.1355  0.1499  0.0031
31035W        W31235   2.338   0.172   4.375  0.1351 -0.1512 -0.0318
31036W        W31236   2.609   2.769  12.988 -0.0880  0.0246  0.2760
31037W        W31237  14.451   8.045  11.572 -0.1135  0.2552  0.2014
31038W        W31238  11.225   4.452  13.783 -0.0598 -0.1328 -0.1972
31039W        W31239   9.213  10.499   1.016 -0.0845  0.0082 -0.2443
31040W        W31240  13.672   9.924  12.495  0.1916 -0.0235  0.0637
31041W        W31241   0.532  16.198   5.636 -0.1236 -0.0341 -0.1128
31042W        W31242  10.311   7.573   8.271  0.0904 -0.1465 -0.2622
31043W        W31243  10.949   7.219   9.415 -0.2570 -0.1122  0.3224
31044W        W31244   5.383  12.927   9.815  0.3152  0.0779 -0.0892
31045W        W31245   0.742   3.353   7.054  0.0609 -0.2920 -0.1918
31046W        W31246  14.915  10.666  14.058  0.2301 -0.5052 -0.1697
31047W        W31247  15.090  10.037   9.796  0.1678  0.1501 -0.0373
31048W        W31248   3.289   5.464  14.279 -0.0456  0.2269  0.2115
31049W        W31249   6.035   2.752  15.926 -0.1913 -0.0636  0.1237
31050W        W31250  18.088  17.103  13.511 -0.4734  0.1778 -0.0586
31051W        W31251   8.276   0.807  15.235  0.1315  0.0443 -0.1404
31052W        W31252   3.778   1.783  11.957  0.0763  0.1135  0.1730
31053W        W31253   6.731   9.431  14.718 -0.1947  0.1648  0.1287
31054W        W31254  10.800   9.104  10.806  0.2538  0.2366  0.1997
31055W        W31255  14.350   4.374   1.781 -0.1701  0.2678  0.1537
31056W        W31256  13.896  15.511  11.022 -0.1667  0.4126 -0.1059
31057W        W31257  14.019   8.894   5.798 -0.2785 -0.1986  0.3359
31058W        W31258   9.619  18.173   9.579  0.0916 -0.1148 -0.2260
31059W        W31259   6.329  14.661  12.571  0.1438 -0.1441 -0.0642
31060W        W31260  16.203  13.567   7.923  0.0172 -0.1221  0.0148
31061W        W31261  15.174  14.760   4.253 -0.1653 -0.0966  0.2203
31062W        W31262   6.280  11.758   3.434 -0.1337  0.0082  0.1626
31063W        W31263  15.129  17.365   6.608 -0.1095 -0.4208  0.0901
31064W        W31264  16.205   9.771   8.332  0.0442 -0.3017 -0.0980
31065W        W31265   5.223   5.522   8.638  0.1619 -0.1164  0.0961
31066W        W31266  13.602   7.744  11.068  0.2376 -0.0242 -0.0388
31067W        W31267  15.799   5.597   7.879  0.0883  0.0073  0.0041
31068W        W31268  14.067  13.272   7.730  0.0689  0.2417 -0.1199
31069W        W31269  14.075   4.061   2.670 -0.2400  0.2431  0.1186
31070W        W31270   8.397  14.457  12.877 -0.0857  0.1353  0.1333
31071W        W31271  14.407   6.554   6.766 -0.1505  0.0603  0.1526
31072W        W31272   0.556   0.289   2.960  0.0239 -0.1455 -0.2018
31073W        W31273  17.278   5.627   7.230  0.5064  0.0675 -0.2039
31074W        W31274   9.132   3.779   3.875  0.0894 -0.3466 -0.1290
31075W        W31275   6.056   1.557  11.031 -0.1498  0.1881 -0.0309
31076W        W31276  14.493   6.177  11.028  0.0584  0.0266  0.0958
31077W        W31277  11.761  18.198  15.434  0.0730 -0.0331  0.1264
31078W        W31278   2.238   8.995   3.505  0.1717  0.1391 -0.3463
31079W        W31279   8.638  13.945  10.031 -0.0033 -0.0906  0.0408
31080W        W31280   0.019   4.067  16.359  0.3727 -0.0418  0.2276
31081W        W31281  13.804  17.317   4.185  0.0284  0.0524 -0.0507
31082W        W31282   1.067  17.614   6.095 -0.2356  0.0088  0.1416
31083W        W31283  14.034   0.584  13.236  0.0709 -0.0824  0.3691
31084W        W31284  14.695   5.876   2.376 -0.0337 -0.0952 -0.2707
31085W        W31285   3.506  11.747   7.067 -0.0584  0.2976  0.2478
31086W        W31286  14.086   4.911   7.182 -0.2815  0.1626 -0.1491
31087W        W31287  16.304   3.256   4.867 -0.2272  0.3276  0.3629
31088W        W31288  12.863  15.161  14.431 -0.2698  0.0349  0.1735
31089W        W31289   7.701   1.914  13.090 -0.1414  0.1499  0.0354
31090W        W31290  15.611   1.126  13.070 -0.0753  0.0615 -0.3574
31091W        W31291   2.062   9.221   0.817  0.0692 -0.0307 -0.0213
31092W        W31292  16.776   5.830  12.568 -0.5041 -0.0096 -0.1660
31093W        W31293  11.342  17.846  11.237 -0.5459  0.0343  0.0030
31094W        W31294  12.917   4.718  15.801 -0.1239  0.0681 -0.0421
31095W        W31295   5.081   3.452  11.395  0.4159  0.1989  0.0562
31096W        W31296  12.043   4.441   8.749  0.0520  0.2260  0.4058
31097W        W31297  17.660   4.113   8.184 -0.0178  0.4179  0.0092
31098W        W31298   9.310  17.258   7.045  0.3133 -0.0780  0.2834
31099W        W31299  15.054   6.680   2.209  0.3123  0.4024 -0.0040
31100W        W31300  14.048  17.985  17.619 -0.5119 -0.2101  0.0155
31101W        W31301  16.231   1.038  17.434  0.3040 -0.1223 -0.1177
31102W        W31302  13.664  15.161   7.306 -0.0587 -0.2427  0.0411
31103W        W31303  11.960   5.905   1.430  0.1895 -0.5073 -0.2320
31104W        W31304   6.853  15.865   8.325 -0.0402  0.2151 -0.1899
31105W        W31305  16.806   3.809  11.174  0.1593 -0.1587  0.0944
31106W        W31306  11.445   4.315  15.709 -0.1089 -0.1032  0.0280
31107W        W31307  13.679   4.730   0.481 -0.0115 -0.1412 -0.0206
31108W        W31308  16.639  13.556   9.671  0.2343  0.0658 -0.0356
31109W        W31309   7.358   4.303   3.061  0.0665 -0.0988  0.2359
31110W        W31310   0.182   5.105   9.136  0.2366  0.2493 -0.0038
31111W        W31311  13.089   5.206   9.928  0.1935 -0.2864  0.0941
31112W        W31312  17.550   3.128  10.017 -0.0545  0.5498  0.3761
31113W        W31313  13.173   6.706  12.298  0.0173  0.0574 -0.1156
31114W        W31314  11.037   2.538   6.190 -0.0228  0.0568 -0.0088
31115W        W31315  10.824  11.716   6.694 -0.2392 -0.0564  0.0557
31116W        W31316   2.723   5.760  10.536  0.0606 -0.1196 -0.2565
31117W        W31317  10.994  16.198  15.107 -0.2482 -0.1125 -0.0432
31118W        W31318  10.681  15.704  14.335 -0.1508 -0.0458  0.0132
31119W        W31319  16.851   2.550   9.898  0.4564 -0.0101 -0.2541
31120W        W31320  16.009  16.920   6.663 -0.0906  0.2397  0.0298
31121W        W31321   2.120  10.222  15.930  0.1966 -0.1453 -0.0117
31122W        W31322  11.215   7.685   8.016  0.1513 -0.0484  0.0452
31123W        W31323  15.033  15.123  14.348  0.0694 -0.2124  0.2003
31124W        W31324  12.920   4.060  13.814 -0.0543 -0.1493 -0.0483
31125W        W31325   8.455   1.778   2.109  0.2360 -0.1185  0.0011
31126W        W31326  15.005   2.732   6.993  0.3253 -0.0889 -0.0461
31127W        W31327   3.297   3.926  15.978 -0.0849 -0.2542  0.2864
31128W        W31328  15.657  16.900  13.085 -0.1687  0.1164  0.0852
31129W        W31329  10.098   5.962   8.894  0.3202 -0.1376  0.2096
31130W        W31330  17.979   6.636   8.981 -0.3188  0.1255  0.2157
31131W        W31331  16.524   7.444   5.197  0.1121  0.4153 -0.1836
31132W        W31332   3.566   5.791  10.882 -0.1084  0.0192  0.0757
31133W        W31333  10.128   2.447   7.013 -0.0369  0.1491  0.0532
31134W        W31334  15.807  15.970   7.123 -0.2639  0.2781 -0.2584
31135W        W31335   5.883  17.586   9.458  0.0994 -0.0045 -0.1774
31136W        W31336   2.815   2.209   9.742 -0.3293  0.0752  0.0364
31137W        W31337  13.244  13.868  12.983  0.0709  0.0124 -0.0718
31138W        W31338  10.515   6.948  18.012  0.0262 -0.2398 -0.1158
31139W        W31339  16.097   7.364  13.127 -0.0919  0.0717 -0.0943
31140W        W31340  14.922  12.053   4.316  0.0063  0.1389  0.3654
31141W        W31341  10.347   4.080  13.022 -0.1732 -0.0534  0.2669
31142W        W31342  16.861   6.747   9.301  0.3758 -0.0875  0.0849
31143W        W31343  12.824   8.677  12.187 -0.1333  0.1449 -0.2002
31144W        W31344  17.260  10.710   8.533  0.3125  0.0664  0.1280
31145W        W31345  11.105   1.149   4.086 -0.1641  0.2705 -0.0704
31146W        W31346  11.030   7.808  13.001 -0.1719 -0.1950 -0.0773
31147W        W31347  13.429  11.097  14.548  0.1210  0.3313 -0.0412
31148W        W31348  13.440   0.979  12.130 -0.0423  0.1131  0.0916
31149W        W31349  10.006  15.505  10.599 -0.3919  0.0740  0.1065
31150W        W31350  17.340   7.157   5.033 -0.0302  0.0954 -0.2335
31151W        W31351   4.047   4.982   9.799  0.0092 -0.0472  0.3383
31152W        W31352   8.403   5.765   7.514  0.2240 -0.0589  0.0732
31153W        W31353  15.488   3.574  15.844  0.0554 -0.1201  0.0723
31154W        W31354  16.313  15.514  10.274  0.0403  0.0074  0.0871
31155W        W31355   8.665  16.319  12.054  0.0138 -0.1793 -0.1973
31156W        W31356  14.281   3.635   7.534  0.3604  0.0641 -0.4279
31157W        W31357   2.400  17.043   3.272 -0.1764 -0.2931 -0.1181
31158W        W31358  18.078  12.281   7.026  0.0395  0.0364 -0.1925
31159W        W31359  13.220   8.386  10.843  0.1386 -0.0858  0.1062
31160W        W31360  13.421  12.412   9.675  0.0839  0.0977  0.0642
31161W        W31361   1.560   4.884   5.261 -0.1635 -0.0125  0.0433
31162W        W31362   2.062   0.291   2.643  0.2669 -0.0210 -0.2969
31163W        W31363   7.596   2.566  17.266 -0.4468 -0.0043  0.0669
31164W        W31364  15.023  17.858   5.764 -0.1506  0.0660  0.3793
31165W        W31365   1.052   0.414   5.485  0.0934  0.3517 -0.0370
31166W        W31366  11.677  13.261  10.448  0.3373 -0.1310 -0.1640
31167W        W31367  16.478  16.552  10.230  0.2252 -0.1206  0.1259
31168W        W31368  16.838  11.771   6.757  0.1656  0.1998  0.2413
31169W        W31369  15.463   3.035  12.896  0.1161 -0.0942 -0.0086
31170W        W31370  11.744  13.863  11.817 -0.0022 -0.0708 -0.1543
31171W        W31371  16.409   4.264   3.348  0.2258  0.1345 -0.4135
31172W        W31372  10.649  16.730   3.211  0.0853  0.0269  0.3197
31173W        W31373  17.007   0.510   6.491  0.0343 -0.2370  0.0840
31174W        W31374  13.848  10.738   8.357  0.2403 -0.0870  0.0648
31175W        W31375   3.764   5.622   3.442  0.1022 -0.2713 -0.0034
31176W        W31376   0.059   8.274  10.503 -0.1272 -0.2369 -0.0160
31177W        W31377  11.832   8.267   9.922  0.2225  0.0467 -0.1661
31178W        W31378   0.708  13.946   1.904 -0.1259  0.0440 -0.1141
31179W        W31379  17.358   3.885  13.570  0.0091  0.1904 -0.0727
31180W        W31380  11.705   1.609   0.696 -0.0310  0.1329  0.3446
31181W        W31381  12.546  15.180  14.820  0.2365 -0.0310  0.0394
31182W        W31382   9.963  16.540  12.823  0.5538  0.2393 -0.0062
31183W        W31383   9.860   3.805   2.430 -0.0858 -0.0732 -0.0227
31184W        W31384  13.947   1.404   5.925 -0.0458  0.0198  0.0641
31185W        W31385   0.430   0.095   9.397 -0.1574 -0.0512  0.0902
31186W        W31386  11.373   4.990  10.721 -0.0498  0.0703  0.0247
31187W        W31387  13.082   3.536  14.628  0.0844 -0.0162 -0.0123
31188W        W31388  14.787   3.766   7.402  0.1900  0.3132 -0.1373
31189W        W31389   8.663   6.558  11.851  0.1135 -0.0877 -0.0016
31190W        W31390   9.174   5.857  12.884 -0.0628  0.0102 -0.2833
31191W        W31391  12.778   2.768  16.658 -0.3635 -0.1826 -0.0813
31192W        W31392  12.875   0.750  10.438  0.3036  0.1038 -0.0496
31193W        W31393  13.388  15.337  15.941  0.0833 -0.0364  0.3466
31194W        W31394  16.986   3.320  11.221  0.2415  0.0838 -0.3658
31195W        W31395  10.717  12.465  13.354  0.0963 -0.0688 -0.1677
31196W        W31396   5.335   6.366   3.222  0.1260 -0.0463 -0.0087
31197W        W31397  10.711   9.584   5.457 -0.2089  0.2198 -0.0141
31198W        W31398  13.659   9.095  10.957 -0.1430 -0.1047  0.0233
31199W        W31399  16.169   2.811  11.024 -0.4088  0.0490  0.0138
31200W        W31400   8.179  10.171   6.891  0.0519  0.2894 -0.0028
31201W        W31401   9.818   0.562  10.043 -0.3388 -0.0979  0.0019
31202W        W31402  11.264   3.475  12.482 -0.0533  0.2244  0.0418
31203W        W31403   6.439  18.073  10.996  0.0455 -0.2081 -0.0159
31204W        W31404  12.217  14.796  13.581 -0.0993  0.0791 -0.0411
31205W        W31405   8.843  15.456  14.397  0.1137 -0.0094  0.2053
31206W        W31406   5.090  13.900  12.989  0.0004  0.1165 -0.2121
31207W        W31407  11.187   8.137   9.628 -0.3281 -0.3047  0.1632
31208W        W31408   5.732   1.172  17.134 -0.0840 -0.1011 -0.0852
31209W        W31409  15.812   4.157   2.450 -0.0854  0.1072 -0.0788
31210W        W31410  10.638   8.291  10.460  0.2023 -0.0481 -0.1836
31211W        W31411  16.076  15.395   9.043  0.0176 -0.0655 -0.0961
31212W        W31412   1.115  14.818  12.514 -0.1425  0.4182  0.1929
31213W        W31413   2.696  16.187   5.861 -0.1327 -0.0411 -0.0248
31214W        W31414   9.906   9.193  11.172 -0.3917 -0.1604 -0.1570
31215W        W31415  15.582  12.909  10.611 -0.2135 -0.1154  0.0548
31216W        W31416   6.300   2.180  14.872 -0.0894 -0.3116 -0.2545
31217W        W31417  10.439   3.515  14.473 -0.0456 -0.0221  0.0265
31218W        W31418  14.967   5.371   1.512  0.2033 -0.2807 -0.2190
31219W        W31419  11.920   0.534   7.161 -0.0099 -0.3805 -0.0059
31220W        W31420  13.802   5.908  12.240 -0.1177 -0.3077 -0.3111
31221W        W31421   8.019  16.287  16.493  0.0297  0.1051  0.0574
31222W        W31422  16.460  13.180  10.791  0.0582 -0.1065 -0.2527
31223W        W31423   5.555   6.334  15.647 -0.3605 -0.0728 -0.1439
31224W        W31424   2.548   0.225  12.177 -0.0749 -0.0445 -0.1339
31225W        W31425  15.721  17.892  15.094 -0.0145  0.1347 -0.1711
31226W        W31426  13.129  12.984   4.235  0.0574 -0.1637 -0.0858
31227W        W31427  15.387  16.241  13.204 -0.0535  0.1444  0.1181
31228W        W31428  15.420   1.122  14.492 -0.4008  0.3052 -0.0120
31229W        W31429   8.472  17.200  15.781 -0.0074 -0.1012 -0.0896
31230W        W31430  14.145   3.898   8.253  0.0294 -0.0802 -0.2062
31231W        W31431  15.754   9.168   9.337  0.3230  0.2259 -0.3106
31232W        W31432  14.847   6.321  10.397 -0.3317  0.0759  0.1359
31233W        W31433  14.834  13.776   6.576 -0.0222 -0.2695 -0.0501
31234W        W31434   9.491  11.725  11.934  0.1400  0.2891  0.1945
31235W        W31435   0.456   6.392   8.634 -0.0429  0.1465  0.1199
31236W        W31436   1.305  13.379   9.887 -0.1012  0.2501  0.1368
31237W        W31437   8.605  13.917   2.579  0.1886 -0.0757 -0.1249
31238W        W31438  10.769   1.411   9.032 -0.1897 -0.1056 -0.4152
31239W        W31439  11.097   5.616  14.608 -0.0401  0.0364 -0.2768
31240W        W31440  17.179   5.022   6.620  0.0886  0.1989 -0.3666
31241W        W31441   9.375  18.063   7.776  0.2892 -0.2300 -0.4017
31242W        W31442   7.783  18.183  18.004  0.0027  0.0531 -0.0010
31243W        W31443  10.359   4.998  13.353  0.0927 -0.3366 -0.1882
31244W        W31444  12.915   1.230  10.103 -0.0187 -0.2487  0.4237
31245W        W31445  12.689   0.164   9.843  0.1378  0.0717 -0.1186
31246W        W31446  14.966   0.994   9.857 -0.1147 -0.1776 -0.1964
31247W        W31447  11.345  14.056  17.697 -0.1702 -0.0486  0.0691
31248W        W31448   6.217   2.518   0.011 -0.1383  0.1671 -0.4942
31249W        W31449  10.488   0.667  11.342  0.0792  0.1510 -0.0789
31250W        W31450   1.336  15.043  11.175  0.0846 -0.4080 -0.0574
31251W        W31451  11.727   7.607   7.909  0.3873  0.1388  0.1674
31252W        W31452  18.025   3.790   2.256  0.0759 -0.0430  0.1278
31253W        W31453  14.103   4.331  17.704 -0.0045 -0.0804  0.2222
31254W        W31454   9.410  17.481  12.519 -0.1464 -0.1042 -0.0845
31255W        W31455  15.608   1.950  11.183  0.0924  0.3162 -0.0539
31256W        W31456   7.608   7.103  13.935 -0.1292 -0.0430  0.1558
31257W        W31457   8.028  13.581   4.107  0.2379 -0.2213  0.2248
31258W        W31458  14.533  13.624  10.350 -0.0931 -0.0725  0.1302
31259W        W31459  14.648  17.314   7.207 -0.1420  0.0842  0.4341
31260W        W31460   0.162   3.337  12.460  0.1349  0.0343  0.2025
31261W        W31461   4.725  17.180  13.227  0.0356 -0.0444  0.1090
31262W        W31462   7.589   3.539   9.784 -0.0192  0.0180  0.0552
31263W        W31463   8.945  11.386  13.538 -0.0457 -0.1610  0.3310
31264W        W31464  13.650   0.898   4.768  0.1266 -0.0218 -0.0542
31265W        W31465   7.791   8.911  12.593 -0.0313  0.1859 -0.2193
31266W        W31466   7.342  16.274  15.783  0.0284 -0.0046  0.0019
31267W        W31467  17.791  14.655  10.947 -0.3382 -0.1848 -0.1222
31268W        W31468   8.077   0.476  13.253 -0.0325 -0.2643 -0.3352
31269W        W31469   9.443   2.238  13.167  0.3222  0.4088 -0.2347
31270W        W31470  15.278   5.976   8.838 -0.0884 -0.1415 -0.2056
31271W        W31471  15.876   9.546  17.193  0.1420  0.0747  0.2398
31272W        W31472  12.436  11.891  17.788  0.2426 -0.0373  0.2708
31273W        W31473   7.357   6.431   8.097 -0.0408  0.1894  0.0440
31274W        W31474   6.937  11.034  10.131 -0.0081  0.1324 -0.1372
31275W        W31475  13.454   7.551  15.483 -0.1902  0.2074 -0.1631
31276W        W31476  18.153   1.197  16.538  0.0881  0.1407 -0.3201
31277W        W31477  17.379  12.708   8.681 -0.0768  0.3349 -0.0884
31278W        W31478   8.061   1.503   2.513 -0.0225  0.0846  0.1798
31279W        W31479   9.770   9.373   4.673 -0.1716  0.1135 -0.2674
31280W        W31480   7.327  15.740  15.819  0.0924 -0.5398  0.3855
31281W        W31481  14.823   3.616  10.815  0.0290 -0.2433  0.0946
31282W        W31482  11.532  17.384  11.132 -0.4948  0.0054 -0.0986
31283W        W31483   9.944   3.146  14.727  0.3027 -0.0406 -0.2107
31284W        W31484  13.719   5.726  11.315  0.3185 -0.0041 -0.2156
31285W        W31485   9.012   2.233   8.486 -0.1658 -0.0462  0.3312
31286W        W31486  14.044  15.237   7.689  0.4720  0.1632  0.1686
31287W        W31487   7.621   3.585  10.697  0.0513 -0.0487 -0.0391
31288W        W31488  16.470   3.952   1.247 -0.0406 -0.0645 -0.1096
31289W        W31489   1.579  15.947   7.483  0.0387  0.1971  0.0098
31290W        W31490   0.298  11.822  12.353 -0.0309  0.1303 -0.0613
31291W        W31491  10.630   7.218   9.977 -0.0403 -0.0980 -0.3687
31292W        W31492   9.152   2.747  17.498 -0.0040  0.1285  0.0532
31293W        W31493  10.994   8.216  10.925 -0.2608 -0.0905  0.1220
31294W        W31494  15.281   0.170  18.001 -0.2811 -0.4040  0.2287
31295W        W31495   9.967   0.452   6.678 -0.0968 -0.1234  0.0469
31296W        W31496   3.777   4.317  10.465  0.0564 -0.1449 -0.2080
31297W        W31497  15.318  12.976   6.269 -0.2567  0.2976  0.2655
31298W        W31498   9.450  10.598  10.469 -0.2355  0.0117 -0.0780
31299W        W31499   4.581   3.582  12.822  0.1465  0.0084 -0.2369
31300W        W31500   5.691   2.355  11.222 -0.1934  0.2243 -0.3117
31301W        W31501  11.769  16.374  10.853  0.2485  0.3186 -0.0843
31302W        W31502   9.186   0.833   9.354  0.0759 -0.1941  0.0173
31303W        W31503  13.679   3.556  17.632 -0.0308 -0.2755  0.4701
31304W        W31504   2.590   4.912   4.624  0.0830  0.0190 -0.3807
31305W        W31505   9.452   4.487  13.042 -0.1250  0.0556  0.0782
31306W        W31506  17.433   7.345   9.517 -0.0003  0.2216 -0.0588
31307W        W31507  15.053   5.471   7.906  0.0250  0.0649  0.1108
31308W        W31508   0.734   1.741   5.181  0.2319  0.3266 -0.1371
31309W        W31509   0.018   9.666   7.871 -0.0858 -0.3441  0.1385
31310W        W31510   1.024   5.600  11.758 -0.0151 -0.3462 -0.2339
31311W        W31511  12.888   3.674   0.404  0.0186 -0.0983  0.2225
31312W        W31512   8.963   4.904  11.445 -0.0289  0.1964  0.0341
31313W        W31513  10.584  15.036   3.131 -0.3677  0.1309 -0.1971
31314W        W31514  17.028   9.584  11.001 -0.1529 -0.1714 -0.0882
31315W        W31515  13.885   2.432   0.492 -0.0455 -0.1327 -0.1735
31316W        W31516  17.753  17.792  14.753 -0.0104 -0.0139  0.1828
31317W        W31517  11.379   7.057  11.606 -0.0852  0.1259 -0.1789
31318W        W31518  10.277   2.263  11.498 -0.1012  0.0150  0.2204
31319W        W31519  13.262   0.353   7.568 -0.0115 -0.0762 -0.0194
31320W        W31520   5.980   5.967  16.430  0.3831  0.1362  0.1723
31321W        W31521  18.095   3.557   6.929  0.4106  0.1246  0.0868
31322W        W31522  16.971  15.051  16.841 -0.0285  0.4112 -0.0909
31323W        W31523   5.630  18.005   8.313 -0.0939  0.2697 -0.0429
31324W        W31524  17.349  12.125   8.111 -0.0099  0.0272 -0.0027
31325W        W31525  11.298  15.060  13.131 -0.1655  0.0224  0.0597
31326W        W31526  12.456   4.426   9.120  0.1551  0.1963 -0.1111
31327W        W31527  18.199   4.041  14.985 -0.1266 -0.0239  0.1438
31328W        W31528  15.092  10.788  12.734  0.2115 -0.1315 -0.1481
31329W        W31529  11.966   3.238  17.705 -0.1323 -0.4577  0.1399
31330W        W31530  13.991   1.785  11.299 -0.1875 -0.2562 -0.0730
31331W        W31531  16.864   3.007  14.257  0.3838  0.0131  0.1610
31332W        W31532   8.746  17.632  15.927  0.0106 -0.2819 -0.0711
31333W        W31533  16.270  12.021  13.829 -0.0960  0.0910  0.0719
31334W        W31534   1.456   0.345  12.996 -0.0342  0.3860  0.1757
31335W        W31535  16.500  13.835  11.642  0.1572  0.0727 -0.1067
31336W        W31536  16.585  17.024   0.956 -0.2837 -0.2821  0.1009
31337W        W31537  12.316  16.383  15.658  0.1469  0.0114 -0.1205
31338W        W31538  16.638  17.628   8.060  0.1754  0.2482  0.1413
31339W        W31539  11.985   2.123  16.575 -0.3773  0.0175 -0.2103
31340W        W31540  17.091  10.919   0.086 -0.1178 -0.1982 -0.0864
31341W        W31541  11.616   0.521  10.880  0.3463 -0.2164  0.1532
31342W        W31542  11.457   0.703  13.689 -0.0745 -0.0063  0.0777
31343W        W31543   5.448  17.477  12.908  0.0936 -0.1860  0.2412
31344W        W31544   0.725   4.926  10.280 -0.0167 -0.3584 -0.3132
31345W        W31545  15.060  14.035   0.170 -0.0541 -0.0910 -0.0509
31346W        W31546   3.858   9.995  11.810  0.0395 -0.1646  0.0918
31347W        W31547  15.268   0.957  10.452  0.1221  0.4096  0.0538
31348W        W31548  14.146  14.165  11.867  0.2193 -0.2247 -0.0407
31349W        W31549  16.719   3.075   2.326 -0.1800  0.0908 -0.2919
31350W        W31550   6.893  10.670  14.203 -0.3147  0.0351  0.1438
31351W        W31551  14.654   5.608   8.158 -0.2260  0.0234  0.0193
31352W        W31552  17.084  14.437   9.604 -0.1066 -0.1459  0.0874
31353W        W31553  16.871  10.814  13.086 -0.0901  0.0415 -0.2156
31354W        W31554   2.810   3.707  13.245 -0.3380 -0.2862 -0.1111
31355W        W31555   5.341  10.815  17.022 -0.0935  0.0454  0.1633
31356W        W31556  17.825  18.159  10.001  0.2085  0.1492  0.1899
31357W        W31557   3.039   8.354  14.278  0.1371 -0.2895 -0.1690
31358W        W31558  12.669   1.460  17.049  0.4783 -0.1258  0.1317
31359W        W31559   7.115   0.875  11.483  0.0191 -0.2726  0.1767
31360W        W31560   1.318   3.148  10.816 -0.3418  0.0612  0.1591
31361W        W31561  15.314  12.242  16.535 -0.1856 -0.1546  0.1992
31362W        W31562  11.450   1.130  18.176  0.1276 -0.4184  0.0142
31363W        W31563  11.589  13.116  16.103 -0.2130  0.1259 -0.0441
31364W        W31564   6.328   4.918  13.092 -0.0628 -0.2195 -0.3147
31365W        W31565   8.704   0.038  17.600 -0.2664  0.0518  0.0371
31366W        W31566  12.823   4.385   9.675  0.0597 -0.2698  0.2983
31367W        W31567   7.561   3.168  13.486 -0.0288  0.1433 -0.1897
31368W        W31568   9.690  12.164  13.653 -0.5084  0.2262  0.2300
31369W        W31569  15.755   1.801   0.371 -0.0868 -0.0519 -0.0178
31370W        W31570  10.093  17.461  17.621 -0.0683  0.2030 -0.2080
31371W        W31571  18.098   2.613   9.353  0.3020  0.3464  0.0045
31372W        W31572  13.716  16.559  12.422 -0.0471 -0.0926  0.1152
31373W        W31573  14.099   9.762  11.217 -0.2681 -0.3045  0.1460
31374W        W31574  12.612   1.013  15.822  0.1260 -0.0715  0.1537
31375W        W31575   4.332   0.708   0.884  0.1307  0.3279 -0.3014
31376W        W31576  10.937   0.159   9.176  0.0619 -0.0500  0.1047
31377W        W31577   5.067  16.562  15.526 -0.1230 -0.0349 -0.0738
31378W        W31578   2.843   1.185  12.477 -0.1485 -0.1569  0.0788
31379W        W31579  11.740   8.486  11.737  0.0428 -0.0337 -0.0332
31380W        W31580   4.847   2.511  12.588  0.0440  0.0749 -0.1384
31381W        W31581  13.379  16.522  14.654  0.0504  0.3542 -0.0140
31382W        W31582   5.542   4.407  16.782  0.4905 -0.0915 -0.0643
31383W        W31583   2.735   5.533  11.615  0.2397  0.2338 -0.0698
31384W        W31584   3.496   2.492  17.621  0.1225 -0.0735  0.3128
31385W        W31585   7.073  13.027   6.191  0.0186  0.0562 -0.0771
31386W        W31586   3.796   1.324  14.461  0.3446 -0.1149  0.2407
31387W        W31587   9.387  13.254   7.800  0.4028 -0.0985 -0.0420
31388W        W31588   9.232  14.367  12.224  0.1194  0.0766 -0.0239
31389W        W31589   5.207   7.614  11.012  0.2374  0.1809 -0.0258
31390W        W31590   0.229   4.322  12.021 -0.2230 -0.1746 -0.0453
31391W        W31591  11.404  16.087  10.679  0.2285 -0.1210 -0.0338
31392W        W31592  11.476  16.750   3.727  0.0988  0.0503 -0.1021
31393W        W31593   9.594  13.628  13.629 -0.0735  0.2027 -0.2911
31394W        W31594  11.818  15.724   1.233 -0.1637 -0.1097 -0.3044
31395W        W31595   8.929   2.737  11.900  0.1223  0.1564  0.0690
31396W        W31596  10.706   0.687  17.853 -0.0840  0.4352 -0.1940
31397W        W31597  12.732  14.488   0.142  0.0825  0.0029 -0.3492
31398W        W31598   6.114  14.290  15.038  0.1418  0.2307  0.2347
31399W        W31599   4.430  13.788  16.418 -0.3068 -0.0990 -0.0749
31400W        W31600  15.465   2.654  14.886 -0.0668  0.0489  0.0166
31401W        W31601   0.128  17.208   7.761  0.1894 -0.0262 -0.1715
31402W        W31602  17.959  13.770  13.248  0.1420 -0.2050  0.1255
31403W        W31603  16.013   4.529  14.755  0.1594  0.0956 -0.0273
31404W        W31604   2.516   7.049  12.841 -0.0918  0.0089  0.0289
31405W        W31605  16.287   0.001   6.365 -0.1571  0.0393  0.2576
31406W        W31606  15.555   3.954   4.642  0.3314  0.0077 -0.2991
31407W        W31607   9.586   1.320  15.245  0.0388  0.0879  0.0178
31408W        W31608   1.091  10.376  11.273 -0.1437 -0.0992  0.0116
31409W        W31609  15.668   1.482  12.663  0.1744 -0.0509  0.1129
31410W        W31610  14.619  17.726   5.439 -0.0796  0.3013  0.1766
31411W        W31611   9.793   9.742  12.574 -0.1838 -0.0629 -0.2441
31412W        W31612  11.585   1.215  14.955 -0.0903 -0.2441 -0.1779
31413W        W31613  17.687  17.497  17.824  0.0696  0.1253 -0.2254
31414W        W31614  16.892  16.929  11.743  0.4268 -0.0441 -0.1927
31415W        W31615  12.441  17.553  12.534 -0.0884 -0.2078 -0.0880
31416W        W31616  14.504  11.592  17.274 -0.0252  0.2856 -0.1475
31417W        W31617   5.651   2.416   6.525  0.1210  0.2842  0.1098
31418W        W31618  10.657   7.307  15.097 -0.4561  0.2514 -0.4484
31419W        W31619   8.939  13.745  17.047 -0.2309 -0.3616  0.0850
31420W        W31620   7.667   9.319   1.099 -0.4106 -0.1575 -0.0835
31421W        W31621   8.196  16.119   7.505  0.2011 -0.2372  0.1542
31422W        W31622  15.162   6.392  11.605  0.0240 -0.0756 -0.0460
31423W        W31623   6.557   2.584   0.415  0.3702  0.1457 -0.1153
31424W        W31624   6.873  11.169   8.041 -0.1605  0.1998  0.0534
31425W        W31625   7.927   4.409  16.712  0.0534 -0.1633  0.1685
31426W        W31626   8.914   0.432  10.689 -0.0847  0.2060  0.0052
31427W        W31627   9.616   4.275  12.569  0.1003  0.3461 -0.0030
31428W        W31628  11.395   3.891  16.128 -0.2405 -0.0708 -0.0157
31429W        W31629  17.053  16.882   7.022  0.0174 -0.1163  0.0523
31430W        W31630  17.509  15.138  11.574 -0.0657  0.3087 -0.1703
31431W        W31631  15.859  18.070   3.502  0.2187  0.0572 -0.1170
31432W        W31632   9.486  14.598  13.555 -0.0468  0.2951 -0.1708
31433W        W31633  12.703   8.126   4.892  0.0686  0.2293  0.1185
31434W        W31634   5.383  16.184  15.394  0.0314 -0.1167  0.0435
31435W        W31635  12.647  14.647   2.553 -0.1521  0.1545  0.0341
31436W        W31636   0.902   6.250  11.072  0.2216 -0.1088 -0.2158
31437W        W31637  16.421   0.842  14.675  0.3798  0.1508 -0.2184
31438W        W31638  10.866  14.950   6.305 -0.2136  0.0564  0.0101
31439W        W31639  17.649  17.891   7.549  0.1073 -0.0534 -0.0703
31440W        W31640   8.292   4.600  15.823  0.2201 -0.0743 -0.0227
31441W        W31641  17.298   2.971  13.979  0.0194 -0.0066 -0.2168
31442W        W31642   6.495   2.178   5.416  0.1689  0.2086 -0.3030
31443W        W31643  12.209  17.288  15.708 -0.0823 -0.1401 -0.3436
31444W        W31644  15.295  16.047  16.736 -0.0238 -0.1085  0.1175
31445W        W31645  10.938   7.709  12.527 -0.1027  0.0444  0.1414
31446W        W31646   5.295   5.274  11.475  0.0989 -0.1510  0.0344
31447W        W31647  17.848   4.970   7.152  0.1645 -0.0788  0.0414
31448W        W31648  15.931   2.287  14.238  0.0108 -0.2759  0.1059
31449W        W31649  14.621   8.872  16.200 -0.1193 -0.0163 -0.0525
31450W        W31650  16.362  12.895   0.844 -0.0122 -0.0148 -0.3921
31451W        W31651  15.559   5.579   8.736  0.2968  0.2448  0.0683
31452W        W31652  15.368  15.352  14.863  0.1978 -0.1668  0.2717
31453W        W31653   0.883   1.677   2.911 -0.0069  0.1150  0.0189
31454W        W31654  16.949   9.119   1.503 -0.2749 -0.2590 -0.0134
31455W        W31655  12.159   3.589   8.064 -0.0490  0.1469  0.0806
31456W        W31656   0.348   8.396   1.141  0.0311 -0.1860 -0.2266
31457W        W31657   5.331  17.654  11.571  0.0499  0.1059  0.0121
31458W        W31658  13.390  16.603  10.378 -0.0296  0.2553 -0.4442
31459W        W31659  15.133   3.003  14.218 -0.0148  0.2257 -0.0486
31460W        W31660  11.564   5.503  14.431 -0.2895 -0.1255  0.3583
31461W        W31661  10.253  18.189  11.979  0.0806  0.2404  0.1059
31462W        W31662  16.583   0.751  16.865 -0.1379 -0.1705 -0.2476
31463W        W31663   6.633  10.954  15.047  0.3373 -0.0374 -0.0398
31464W        W31664   8.654   2.626   7.629  0.0686 -0.1728 -0.0799
31465W        W31665  13.387   9.850   2.263  0.0360 -0.0570 -0.1181
31466W        W31666  17.467  14.306  17.468  0.1072  0.3281  0.4582
31467W        W31667  10.483   8.399   5.553  0.0621 -0.1882  0.0577
31468W        W31668  13.614  17.880  13.369 -0.2837  0.2343 -0.0620
31469W        W31669  13.390   2.110  17.688 -0.0524  0.0970 -0.1098
31470W        W31670   3.578  17.772  13.945 -0.1626  0.1738 -0.1491
31471W        W31671   9.918   0.425   8.474 -0.0324 -0.1219  0.1290
31472W        W31672   0.974   4.687   7.271  0.1229  0.0789  0.1745
31473W        W31673  11.587  15.423   5.238 -0.3532 -0.1623 -0.1370
31474W        W31674   0.508  16.695  10.313  0.3275  0.3647  0.0175
31475W        W31675   6.983   4.408  12.701  0.0086 -0.0236 -0.1282
31476W        W31676   4.839  15.281   9.553 -0.1489  0.0806 -0.3115
31477W        W31677  10.008   1.930  14.347  0.2486 -0.0787  0.2379
31478W        W31678  11.234   1.608   8.960 -0.1462 -0.3677 -0.2847
31479W        W31679   7.475  16.783   7.479 -0.2920  0.1767 -0.0739
31480W        W31680   5.193  13.423  14.939  0.3457 -0.3347  0.3484
31481W        W31681   1.989   1.166  15.745  0.0306 -0.0957 -0.3933
31482W        W31682   7.278  17.964   9.433  0.2673 -0.1289  0.0997
31483W        W31683   8.678   6.277  15.055  0.1410 -0.0926 -0.0370
31484W        W31684  12.095   6.734  14.202 -0.2838  0.0360 -0.0533
31485W        W31685  16.740   5.206  13.727  0.2286 -0.0277 -0.1643
31486W        W31686   2.969  17.195   0.573 -0.1712 -0.0496  0.1871
31487W        W31687  10.372   2.484   8.689 -0.1964 -0.0279 -0.0309
31488W        W31688  14.259   4.061  16.858  0.0514 -0.1671  0.2653
31489W        W31689   2.308  15.927   8.741  0.2168 -0.0966 -0.2400
31490W        W31690  13.829   4.112  14.360 -0.0019 -0.3298 -0.0661
31491W        W31691   8.246   2.275  10.322  0.3309  0.1172 -0.1956
31492W        W31692  17.143  16.275  11.723 -0.1565 -0.1072 -0.0850
31493W        W31693  17.549   2.791   7.081  0.1936  0.2532 -0.1032
31494W        W31694   0.080  16.846  11.362  0.1115  0.0886 -0.1043
31495W        W31695  15.771   4.619   9.080 -0.1292  0.0550 -0.0566
31496W        W31696   9.715  17.353  13.592 -0.1847 -0.1512  0.0170
31497W        W31697  11.540   0.355  10.386  0.0512 -0.1763 -0.0409
31498W        W31698  15.173   7.241   7.632 -0.3913  0.1223  0.0493
31499W        W31699  13.641  18.006  14.179  0.1626  0.1409  0.0758
31500W        W31700   9.767   0.331  16.431 -0.0975  0.3478  0.0594
31501W        W31701  14.979   0.947  14.724 -0.0564 -0.0410 -0.2402
31502W        W31702  12.259  13.344  14.785 -0.1900 -0.1933  0.0056
31503W        W31703   9.689  11.415  16.170  0.0155  0.0059 -0.0975
31504W        W31704  13.962   8.607   0.501  0.1032 -0.2536  0.0131
31505W        W31705  11.710  13.339   0.564 -0.2440  0.0733  0.0684
31506W        W31706   5.382   2.136  14.690 -0.4465 -0.0091 -0.1573
31507W        W31707   9.014  18.188  15.349 -0.1407 -0.0411  0.0973
31508W        W31708  14.007   3.078   1.266  0.0457 -0.2044 -0.0460
31509W        W31709  11.819  13.411  14.002  0.0177 -0.0921 -0.2479
31510W        W31710  13.826   1.903  14.638  0.1502  0.1408 -0.1044
31511W        W31711   9.472   0.887  12.825  0.2799 -0.0089 -0.4099
31512W        W31712   5.745   9.043  15.874  0.0178  0.0365 -0.4213
31513W        W31713  13.027  11.383  10.162 -0.0887  0.4475  0.1308
31514W        W31714  17.049   7.934  11.724 -0.3401 -0.2594  0.1038
31515W        W31715  10.517   0.486   5.010  0.0138  0.0776  0.2145
31516W        W31716  17.075   3.518  16.743 -0.0358 -0.0971 -0.2654
31517W        W31717   8.692   2.673   4.627  0.3842 -0.0428  0.2777
31518W        W31718   0.628   9.815  15.825 -0.0836 -0.2761 -0.1277
31519W        W31719   9.827  17.280  18.044  0.3827  0.1273  0.4676
31520W        W31720  12.094   7.180   5.749  0.1794  0.3641  0.0480
31521W        W31721   8.678   3.627   9.780  0.0161  0.1237 -0.0734
31522W        W31722  14.168   8.968   6.879 -0.4076  0.0851  0.1734
31523W        W31723  10.890   1.316  16.430 -0.0374  0.1895  0.1525
31524W        W31724  18.055   2.267  11.913  0.0564 -0.0929  0.0965
31525W        W31725  10.921  11.195   8.941  0.1277  0.0235  0.0141
31526W        W31726   7.911   0.107  11.856  0.0411 -0.0459  0.0631
31527W        W31727  13.645  15.947   1.653  0.0856  0.1337 -0.2500
31528W        W31728  15.603   0.316   1.484 -0.1238 -0.0718  0.1497
31529W        W31729   4.917   0.774   3.251 -0.0368  0.1217  0.0633
31530W        W31730  17.358   5.280  16.778 -0.0510 -0.1390 -0.0081
31531W        W31731   8.025   2.206   9.253 -0.1001  0.0729 -0.0555
31532W        W31732  14.665  12.165  13.032 -0.0993  0.1122  0.2549
31533W        W31733  15.879  16.587  11.874  0.0859  0.0470  0.1039
31534W        W31734   2.492   4.185  15.386 -0.1427 -0.2238  0.0892
31535W        W31735  15.719   0.890  16.674  0.0070  0.1705 -0.3508
31536W        W31736   6.203   3.339  13.376  0.1471 -0.2298 -0.1332
31537W        W31737  15.293   7.791   3.378 -0.0518  0.2637  0.0798
31538W        W31738  17.031   7.476   8.766  0.2241 -0.0934 -0.2120
31539W        W31739   8.804  17.491  15.472 -0.0356  0.3232 -0.0914
31540W        W31740  13.743   3.644  13.768 -0.0895 -0.3219  0.0798
31541W        W31741  14.011   5.086  13.174 -0.0966 -0.3763  0.0938
31542W        W31742   7.203   5.706  17.876 -0.1172 -0.2072  0.0890
31543W        W31743  11.449   4.989   5.034 -0.0106  0.1471 -0.3033
31544W        W31744  12.255   4.513  15.184 -0.6046  0.3504 -0.0707
31545W        W31745   8.467   4.654  16.867  0.1558 -0.2987 -0.0355
31546W        W31746  14.418  17.594  11.318 -0.0688 -0.4947  0.1257
31547W        W31747   5.526   8.966   9.046  0.0556  0.0488 -0.2174
31548W        W31748  12.789   1.934   3.037 -0.2116 -0.2401  0.0408
31549W        W31749  12.348   7.027   9.798 -0.4941 -0.2300  0.1327
31550W        W31750  12.129  12.421   8.277  0.0335  0.1516  0.2057
31551W        W31751  14.012   2.149  17.311 -0.2219 -0.4509  0.0633
31552W        W31752  11.011   2.221  10.301  0.0726  0.3143 -0.0025
31553W        W31753  10.405   8.826  14.303 -0.2166  0.0514 -0.1299
31554W        W31754  18.171   2.395  13.165 -0.2115 -0.1428 -0.0083
31555W        W31755  12.828   0.105   2.411 -0.2637 -0.0417  0.1164
31556W        W31756  11.660   8.415   2.356 -0.1795 -0.0408  0.2454
31557W        W31757  12.103   6.567  12.012  0.0833  0.0404 -0.0135
31558W        W31758  17.389  14.829   9.561  0.3664  0.1581  0.0904
31559W        W31759   5.286   1.765   8.945 -0.1509  0.4025  0.2865
31560W        W31760   4.244  14.273   9.012 -0.2921 -0.0866  0.0322
31561W        W31761  13.248   5.873   4.284 -0.0871 -0.0999 -0.2152
31562W        W31762   9.017   1.050   3.117  0.0473 -0.0181  0.3902
31563W        W31763  14.809   0.291   1.025  0.0714 -0.1877  0.0534
31564W        W31764  10.091  12.155   0.603  0.1591 -0.2603 -0.3873
31565W        W31765  10.178  17.938   9.456  0.0278 -0.1835  0.0491
31566W        W31766   0.758   2.778  14.146  0.0324  0.1561  0.0134
31567W        W31767  12.973   7.485   5.102 -0.1944  0.0384  0.0330
31568W        W31768  15.133  16.006  14.733 -0.1277  0.2229  0.2319
31569W        W31769  17.322  15.780  17.306  0.0575 -0.1482  0.1477
31570W        W31770   7.701  14.592   4.010 -0.1013 -0.2875 -0.3880
31571W        W31771  15.543  10.727   6.671  0.0330 -0.3205 -0.0950
31572W        W31772  16.533  16.470  12.554  0.1515 -0.1107  0.1728
31573W        W31773   1.417   2.781   5.856 -0.1622 -0.0048  0.0851
31574W        W31774  10.462   7.982   3.684  0.0662 -0.4116 -0.0767
31575W        W31775  11.384  12.197  17.703  0.2403  0.0417  0.1335
31576W        W31776   1.896   8.886  14.811  0.1220 -0.2611 -0.1763
31577W        W31777   8.936   2.122   0.221 -0.1885  0.1252 -0.0715
31578W        W31778   4.147  16.892  14.014 -0.1210 -0.1820  0.0865
31579W        W31779  13.091  17.979   1.744  0.0374  0.0315 -0.2126
31580W        W31780  15.576  15.773  13.532 -0.1536 -0.0870 -0.2922
31581W        W31781  17.157  17.741  14.567 -0.2827 -0.3918 -0.1330
31582W        W31782   8.310  17.167   0.243 -0.1508 -0.0803 -0.2196
31583W        W31783   7.467   2.404   1.558 -0.4856 -0.0827  0.0052
31584W        W31784  10.855   1.769  11.773  0.0223 -0.2151  0.1489
31585W        W31785  11.752  14.483  12.472 -0.1370 -0.0423  0.1094
31586W        W31786  16.350   0.002   3.581  0.1927 -0.0939 -0.0333
31587W        W31787   8.079   4.275   8.104  0.2333  0.1097  0.1070
31588W        W31788   2.951  15.697   6.432  0.0348 -0.0488 -0.1407
31589W        W31789  12.278  17.055   2.540  0.1380 -0.2381 -0.1653
31590W        W31790  11.373   3.932  11.607 -0.1711 -0.1032 -0.1859
31591W        W31791  16.174   6.318   3.095  0.0746  0.3539  0.0996
31592W        W31792  13.445   5.836   7.525 -0.2565  0.0369 -0.1824
31593W        W31793  13.401   3.857   4.207  0.0830 -0.2274  0.3556
31594W        W31794   6.925   0.561  10.291  0.1763  0.0398  0.0401
31595W        W31795  16.395   1.611  16.732  0.1469 -0.0644 -0.0516
31596W        W31796  15.003   9.109   2.335  0.1539  0.0118 -0.1883
31597W        W31797  15.555   2.535  14.387 -0.1835  0.3707  0.1856
31598W        W31798   2.443  15.959  17.253  0.4270  0.0280  0.0401
31599W        W31799  15.710   7.411  17.769  0.2963 -0.0640  0.0127
31600W        W31800  14.544   3.055  12.485  0.0804  0.1411  0.2642
31601W        W31801  17.066   0.024   7.189 -0.0026 -0.2128 -0.1910
31602W        W31802  10.732   6.947   0.223  0.1204 -0.0465  0.0284
31603W        W31803   8.504  16.195  14.550  0.0274 -0.3689 -0.0500
31604W        W31804  13.390   0.396  10.860 -0.4248  0.3976 -0.1185
31605W        W31805  13.726   2.846   3.050  0.0287  0.3149 -0.2069
31606W        W31806  15.268  14.671  10.117 -0.1281  0.0332 -0.2434
31607W        W31807   3.542  15.034   7.349  0.1233  0.0116  0.0201
31608W        W31808  10.741   3.577   8.538  0.0283  0.0617 -0.0784
31609W        W31809  14.605  17.357  17.772 -0.1414 -0.0448  0.2036
31610W        W31810   8.162  16.266  11.188  0.0097  0.0907  0.0580
31611W        W31811  13.707  13.784  15.967  0.0094  0.2084 -0.1874
31612W        W31812  13.430  11.657   8.476  0.0775 -0.0438 -0.2242
31613W        W31813   8.270   2.689  10.842 -0.1911  0.1024 -0.1712
31614W        W31814   9.826  17.143  10.896  0.1130  0.3013  0.0409
31615W        W31815  10.197  12.958   3.969 -0.1962 -0.4162 -0.1577
31616W        W31816   9.987  10.583  17.518  0.1910 -0.3457 -0.0811
31617W        W31817   6.814   0.052  16.081  0.3520  0.0834  0.0945
31618W        W31818   6.654   1.709   5.668  0.1200  0.2402 -0.0743
31619W        W31819   9.041   2.641  18.146  0.0917 -0.2083 -0.2087
31620W        W31820  16.522  18.034   2.039 -0.1782 -0.3594  0.3703
31621W        W31821  16.543   1.510   8.746  0.0429  0.1574 -0.0905
31622W        W31822  12.793  15.782  16.968  0.1993  0.1587  0.1866
31623W        W31823  10.299  16.952  16.335 -0.1227  0.1255 -0.0978
31624W        W31824  12.504  11.769   3.475 -0.1403  0.0171  0.4120
31625W        W31825  10.983  15.623   5.131  0.3618 -0.3118  0.3552
31626W        W31826  10.227   0.931  15.432 -0.1755  0.1261 -0.3324
31627W        W31827  11.825   2.572  15.690  0.2783  0.2106  0.1088
31628W        W31828   0.965   3.114  16.659 -0.3506  0.2578 -0.1469
31629W        W31829   6.658   1.081  10.376  0.2209  0.1713  0.0312
31630W        W31830  12.014   4.931  17.564 -0.1130  0.0315 -0.2606
31631W        W31831  14.937   0.897  16.212  0.0130  0.1584 -0.1339
31632W        W31832  17.226   2.988  13.051 -0.2356 -0.0534 -0.0260
31633W        W31833   7.006   0.305   5.069  0.0653  0.0974 -0.2245
31634W        W31834  18.038   3.825  16.690  0.1260 -0.1459 -0.3938
31635W        W31835  10.991  17.820  16.521  0.0868 -0.0872  0.0092
31636W        W31836  15.129   2.476  14.132  0.1195  0.3023 -0.2423
31637W        W31837  12.560  16.595  10.129 -0.2775  0.1235 -0.0289
31638W        W31838  12.432   1.431   1.189  0.2685  0.0659  0.3951
31639W        W31839  13.853   5.346  13.594 -0.1208  0.0859  0.1895
31640W        W31840  10.061   0.526   4.064  0.1374 -0.1709  0.1223
31641W        W31841  17.699   6.393   1.782  0.2377 -0.0998 -0.1087
31642W        W31842  11.154  16.563   1.720  0.3502 -0.1000 -0.0506
31643W        W31843  17.418   7.048  17.963  0.0806  0.2637 -0.0767
31644W        W31844  11.122  17.225  16.213 -0.0948 -0.1728  0.2037
31645W        W31845  17.183  14.230   2.485  0.0456 -0.1463  0.0228
31646W        W31846   5.679   2.379  15.975 -0.1389 -0.2199 -0.0670
31647W        W31847   8.940   0.062  14.826 -0.0114  0.0018 -0.1060
31648W        W31848  16.542   2.513   1.103 -0.2251 -0.0630  0.1117
31649W        W31849  12.391  17.646  16.048  0.1847 -0.0688  0.3063
31650W        W31850   5.775  11.052  17.068  0.3111 -0.2469  0.0486
31651W        W31851  13.748   9.869   6.271 -0.2095 -0.0585  0.1229
31652W        W31852  10.309  15.200  17.025  0.0358 -0.2747 -0.2612
31653W        W31853   2.890  12.256  14.501 -0.0177 -0.3911  0.0591
31654W        W31854   4.727   5.586  17.476 -0.2436  0.0200  0.3242
31655W        W31855   5.645   0.036  18.034 -0.1792  0.1022 -0.3105
31656W        W31856  14.516   3.614  18.041  0.0313 -0.3841 -0.0725
31657W        W31857  10.558  14.335  16.918 -0.0143 -0.0114  0.0558
31658W        W31858  12.252  17.654   0.208 -0.2308  0.2195 -0.3433
31659W        W31859  15.499  13.602   0.299  0.0131 -0.2079 -0.0237
31660W        W31860  12.148  11.635  15.028  0.0218 -0.0214  0.5169
31661W        W31861  14.836   4.573   9.475  0.0571 -0.1135 -0.3090
31662W        W31862   9.099   0.046  17.380  0.1806 -0.0293  0.2600
31663W        W31863   5.093  12.004  15.702 -0.1088 -0.1327 -0.1077
31664W        W31864  11.064   1.158  15.576 -0.1578 -0.1698 -0.2195
31665W        W31865  14.169  12.541   0.745 -0.0198  0.0454 -0.1105
31666W        W31866   8.529  16.538   1.559  0.1418 -0.1975  0.0783
31667W        W31867  13.165   1.697  14.549  0.0905 -0.2693  0.1550
31668W        W31868   4.269  12.869  15.225  0.0291  0.0944  0.2297
31669W        W31869  11.346   0.526  12.577 -0.1404  0.0500  0.0530
31670W        W31870   9.156  18.202  17.882 -0.1704  0.0416 -0.2047
31671W        W31871  12.714   8.954   1.390  0.1972  0.1331 -0.3490
31672W        W31872  10.968  16.450   2.779  0.0064  0.2064  0.0258
31673W        W31873  17.839   9.572  13.266 -0.1862  0.0270  0.1027
31674W        W31874  12.979   0.130   0.264 -0.0150 -0.0621  0.1791
31675W        W31875   0.913   9.388  10.441  0.1976 -0.0762 -0.0169
31676W        W31876  16.275  17.785  16.483 -0.1625 -0.2402 -0.0696
31677W        W31877   1.178  11.258  13.956  0.0764 -0.1378 -0.0498
31678W        W31878   8.548   1.105  13.400  0.3436 -0.1130  0.0118
31679W        W31879  17.482   2.008  14.186  0.1445 -0.0527 -0.1901
31680W        W31880  10.608   0.352  16.594 -0.0443 -0.0425 -0.1033
31681W        W31881   8.519   9.294  13.854  0.1029  0.1487  0.0413
31682W        W31882   2.892   3.954  14.796  0.0360 -0.2968 -0.0242
31683W        W31883   4.713   0.228  15.718 -0.1434 -0.0510 -0.2657
31684W        W31884  10.315   0.191  15.808  0.0558 -0.1876 -0.2953
31685W        W31885   5.637   0.710  14.852 -0.0981 -0.2568  0.1968
31686W        W31886   9.206  14.341  13.981 -0.1540  0.0929  0.1740
31687W        W31887   7.943   5.089  14.369  0.1911  0.2173 -0.3115
31688W        W31888  14.569  16.086   4.096 -0.0582 -0.1807 -0.1641
31689W        W31889  13.727   1.009  17.075 -0.4448  0.3595  0.0503
31690W        W31890   7.498  13.059  14.770  0.0882 -0.2769 -0.0728
31691W        W31891   8.365  16.659  12.654 -0.0568  0.0937 -0.1526
31692W        W31892  15.244   0.368   9.405  0.4776  0.1580 -0.0840
31693W        W31893   1.531   9.708  15.783 -0.1465 -0.0485 -0.0634
31694W        W31894  10.938   0.321   3.013 -0.1196  0.1489  0.3016
31695W        W31895   1.071   3.031   2.190 -0.0372 -0.0763 -0.0270
31696W        W31896  13.564  16.139   0.265 -0.0782 -0.2010 -0.0700
31697W        W31897  13.661  14.117   1.282  0.2373  0.0436  0.1413
31698W        W31898  15.018  15.392  16.710 -0.1745  0.0686 -0.0738
31699W        W31899   8.964  16.223  15.460 -0.2114 -0.1008 -0.0547
31700W        W31900  11.521  14.113  15.126  0.1399  0.1754 -0.0696
31701W        W31901  13.495   2.464  17.384  0.0361  0.2316 -0.1889
31702W        W31902   5.283  11.324  11.685  0.0117  0.1274 -0.0778
31703W        W31903   8.824  15.827  16.700  0.2492 -0.1750  0.1881
31704W        W31904  13.216  13.772  16.920 -0.0198 -0.0143  0.1257
31705W        W31905   7.967   0.256   0.243  0.0702  0.2380  0.1276
31706W        W31906  12.758  17.047  10.725  0.0200  0.2586 -0.0676
31707W        W31907  15.376  13.837  12.310 -0.1207 -0.2006  0.0747
31708W        W31908   1.119   4.340   1.284 -0.0299 -0.0411 -0.0379
31709W        W31909  16.609  17.488   6.677  0.1250  0.3993  0.0172
31710W        W31910  11.271  16.551  17.067 -0.0873 -0.0123 -0.3512
31711W        W31911   4.803   9.130  16.130 -0.0204 -0.1490 -0.1716
31712W        W31912  12.719   4.857  12.670 -0.0468 -0.0667 -0.1836
31713W        W31913   9.221   6.015  13.574 -0.1749  0.1676  0.3154
31714W        W31914  15.373   7.489   6.792  0.0165  0.1687  0.2921
31715W        W31915  12.298  12.165  14.663 -0.1999 -0.0252  0.0371
31716W        W31916  16.505   0.695   2.656  0.2166 -0.2595  0.1689
31717W        W31917   0.525   7.079   2.601  0.0898 -0.2447  0.0114
31718W        W31918  17.378   1.309   8.267 -0.0518 -0.1983  0.2399
31719W        W31919   5.336   0.851   2.869 -0.0177  0.2448 -0.2404
31720W        W31920  13.388  14.613  15.575  0.1404  0.0276 -0.1566
31721W        W31921   6.925   2.340  15.441  0.2390  0.0555  0.4842
31722W        W31922  11.436   1.448  14.354 -0.2145  0.0195  0.1720
31723W        W31923  12.756  17.178   3.896 -0.1984  0.3176 -0.1286
31724W        W31924  16.400   0.540  17.688  0.2450  0.2664  0.1986
31725W        W31925   9.093   1.712  14.113 -0.3562 -0.1348 -0.0016
31726W        W31926  11.860  17.570  15.965  0.4316  0.1819 -0.3574
31727W        W31927  12.675   0.260  17.980  0.0791  0.0853 -0.2289
31728W        W31928  17.030  14.265   3.226 -0.0110 -0.0120 -0.0117
31729W        W31929   4.208  16.261  14.668  0.0030 -0.1454 -0.0315
31730W        W31930   8.946   9.494  16.476  0.2294 -0.2343  0.3098
31731W        W31931  13.659   8.432  14.434  0.0654  0.1072 -0.0383
31732W        W31932  13.161  17.258  15.912  0.0064  0.0538  0.0717
31733W        W31933  18.111   7.762  16.601  0.0731  0.0659  0.0736
31734W        W31934  12.531  13.685  17.564 -0.0157  0.1422  0.1132
31735W        W31935  12.906   8.280  15.046 -0.0016  0.1496  0.1147
31736W        W31936  12.366  15.973  16.882 -0.1151 -0.1566 -0.4320
31737W        W31937  16.965   0.575  18.105 -0.0400  0.1109  0.2808
31738W        W31938  10.160   2.394  14.370 -0.0602  0.1081  0.0098
31739W        W31939   9.870   4.737   4.593  0.1350  0.1530  0.1621
31740W        W31940  12.617  17.957  15.570 -0.0442 -0.0319 -0.0293
31741W        W31941   8.361   3.608  17.686 -0.2371 -0.1282 -0.0811
31742W        W31942  10.054   6.596   1.001 -0.2302 -0.0165 -0.1215
31743W        W31943  14.259   2.297   2.541 -0.2216 -0.1548 -0.0098
31744W        W31944   8.053   0.983  13.439  0.2463  0.1919 -0.1708
31745W        W31945  16.028   5.582   3.851  0.1762 -0.0505 -0.1763
31746W        W31946  17.339   2.364  13.427 -0.1182 -0.0258 -0.0230
31747W        W31947   3.240  15.487   7.711 -0.5073  0.1194 -0.4124
31748W        W31948   4.264   3.637  17.400  0.0290  0.1075 -0.5751
31749W        W31949   7.429   8.373  15.227  0.1172  0.2491 -0.1337
31750W        W31950  10.159   8.756  17.359 -0.1093  0.2809  0.3718
31751W        W31951  16.175   5.803   3.159 -0.1149  0.2903 -0.0243
31752W        W31952  14.284   2.199   5.812 -0.1149 -0.1349  0.1787
31753W        W31953   0.372  16.861  14.465  0.0903 -0.1245 -0.0544
31754W        W31954  12.178   3.272  13.138 -0.3750  0.2732 -0.0048
31755W        W31955   6.413   3.006  15.143  0.1492  0.1233 -0.0053
31756W        W31956  12.828  15.089  13.278 -0.2077  0.2300  0.3345
31757W        W31957   3.142   0.396  13.564 -0.0139 -0.0397  0.0134
31758W        W31958  11.355   4.441  11.373  0.0511 -0.1769 -0.3875
31759W        W31959   4.836   4.039  16.569 -0.0564  0.1418 -0.2235
31760W        W31960  13.200   0.060  14.182 -0.0830 -0.1022  0.1173
31761W        W31961  13.282   1.390   4.819  0.0455  0.0383  0.0758
31762W        W31962  13.764   4.550   3.566 -0.1140 -0.0722 -0.4422
31763W        W31963  14.698   5.638   5.668 -0.2462 -0.2260  0.1764
31764W        W31964  12.746   9.159   0.063 -0.1091 -0.1886  0.1960
31765W        W31965  15.961  10.888  12.824  0.0224 -0.0434  0.0951
31766W        W31966  14.900  17.610  17.378  0.1896  0.2440  0.1484
31767W        W31967  16.981  14.404   0.734  0.1393 -0.0007 -0.0377
31768W        W31968   8.622   5.464  14.679  0.1416  0.0876  0.1451
31769W        W31969  11.253   8.167   2.108 -0.0095  0.1473  0.0273
31770W        W31970   8.985  11.326  18.157 -0.2093 -0.1484  0.2185
31771W        W31971   7.325   9.850  18.155 -0.4030 -0.0250  0.2586
31772W        W31972  15.941   0.962  14.438 -0.0021 -0.1133 -0.0076
31773W        W31973  17.096   1.047   6.538  0.1052 -0.0783  0.0921
31774W        W31974  11.519  11.382   9.270  0.2336 -0.0260  0.1953
31775W        W31975  14.744  14.826  13.533  0.1330  0.2175 -0.2162
31776W        W31976  13.445   2.640   0.650  0.3665  0.1246 -0.0915
31777W        W31977  15.316  14.114   2.638  0.0965  0.1819  0.0647
31778W        W31978  11.070  14.906  14.303 -0.2137 -0.4867 -0.0045
31779W        W31979   4.480   7.445   8.791 -0.1178 -0.0911 -0.0297
31780W        W31980  11.626   2.527  15.145  0.0217  0.3367  0.0242
31781W        W31981  13.103  15.776  11.451 -0.0306 -0.1635  0.1444
31782W        W31982   9.432   1.966  15.850  0.2009  0.1213 -0.0097
31783W        W31983  13.365   2.439  10.044  0.2679  0.2807 -0.2300
31784W        W31984  11.487  14.521  17.606 -0.3389  0.0574 -0.0331
31785W        W31985   7.889   3.716  17.879 -0.0273  0.1037  0.0106
31786W        W31986   8.091  14.823   2.024  0.0729  0.1697  0.0816
31787W        W31987  18.179  16.616  15.062 -0.1918 -0.1752  0.2521
31788W        W31988  12.085   6.583   0.180 -0.0965  0.0519 -0.0460
31789W        W31989  11.125   2.172   0.535  0.0216 -0.1673  0.0997
31790W        W31990   3.145   7.398   1.336 -0.2323  0.0390 -0.3932
31791W        W31991   0.392   5.954  18.106  0.0627 -0.0905 -0.0654
31792W        W31992   1.954   1.011  14.877  0.2050  0.0942  0.1086
31793W        W31993   8.619  17.510  11.804  0.1574  0.2454  0.0411
31794W        W31994  13.002   4.034   3.336 -0.0547 -0.2106  0.1625
31795W        W31995  14.829   1.711   5.894 -0.1279  0.1546 -0.2533
31796W        W31996  17.628   1.560  14.378 -0.1054 -0.0093 -0.3272
31797W        W31997  10.444   1.738   3.180  0.0927 -0.1500  0.1153
31798W        W31998   5.274   5.845  11.392  0.0870  0.2892  0.0990
31799W        W31999   7.453   6.178  15.780  0.0681  0.4198  0.2649
31800W        W32000  11.772  16.431   1.314 -0.1516 -0.1364  0.0354
31801W        W32001   5.171  14.577   8.900  0.0256 -0.1366 -0.0485
31802W        W32002  13.035  16.585  17.153  0.1896  0.2279 -0.1972
31803W        W32003  12.754   4.739  15.251 -0.0527 -0.1544  0.1946
31804W        W32004  16.046   2.166  13.368 -0.1579 -0.0590  0.2494
31805W        W32005  14.528  11.614   1.876 -0.1345 -0.0668 -0.2445
31806W        W32006  10.970   3.847   3.066  0.0111 -0.0764  0.2825
31807W        W32007  10.841  13.528  10.140  0.0557  0.0256  0.0644
31808W        W32008   4.465  15.634   5.115  0.0748 -0.2679  0.0900
31809W        W32009  15.795   7.304  11.884 -0.3833  0.1859 -0.0262
31810W        W32010  15.457   1.991   3.962  0.2760 -0.1953 -0.2748
31811W        W32011   9.958   2.795  18.075  0.1023 -0.1774 -0.1487
31812W        W32012   7.909  14.055   4.075  0.0658  0.0296 -0.2409
31813W        W32013  14.122   3.378   6.237  0.0567  0.1021  0.0427
31814W        W32014  14.517  13.267  12.495  0.1848  0.1923  0.1106
31815W        W32015  14.115   9.239   7.696 -0.2551 -0.2779 -0.0205
31816W        W32016  10.214  17.007  15.783  0.1286  0.0433 -0.0564
31817W        W32017   2.868   3.738  16.200 -0.1018 -0.0521  0.1881
31818W        W32018   9.863   2.703   1.371  0.0072 -0.1700 -0.0550
31819W        W32019  13.635   6.954  17.321  0.0245 -0.1478  0.0534
31820W        W32020  15.665   4.765   8.059 -0.0742 -0.0401  0.1212
31821W        W32021  17.015   0.217   3.342  0.3252  0.0220 -0.1117
31822W        W32022  10.488   2.765  13.374  0.2368  0.4079 -0.0220
31823W        W32023   8.241  10.767  17.926  0.0298 -0.2672  0.0950
31824W        W32024   9.331   0.546  17.139  0.0313 -0.3173  0.0379
31825W        W32025  16.033   2.994  12.440  0.2392  0.1855 -0.0132
31826W        W32026   0.504  10.984   2.325  0.1876  0.1539  0.1163
31827W        W32027   4.435  15.274   8.221 -0.0049 -0.3676  0.1836
31828W        W32028  13.495   9.322   1.153  0.0635  0.1584  0.2196
31829W        W32029  17.556   5.597   1.943  0.0666 -0.1225 -0.1230
31830W        W32030  16.381   1.697   4.335 -0.1509 -0.5518 -0.2791
31831W        W32031   9.127   6.360  16.969 -0.1759 -0.0079  0.1572
31832W        W32032  10.986  12.551  12.418  0.3477  0.1479 -0.3154
31833W        W32033  10.933   0.247   3.696 -0.1521  0.1175 -0.1961
31834W        W32034  12.154   1.506  17.913 -0.0490  0.5587  0.0190
31835W        W32035   9.035  14.516  15.430  0.0068 -0.3010 -0.0068
31836W        W32036  13.472   5.472   9.604  0.2003  0.2825 -0.0786
31837W        W32037  16.738  16.481   3.463  0.0146  0.3713  0.2384
31838W        W32038   3.976   5.992   6.831 -0.0806 -0.0212  0.2409
31839W        W32039   7.713   9.931   4.871 -0.1104  0.0663  0.2621
31840W        W32040   0.354   7.515  10.493  0.1100 -0.1107  0.1360
31841W        W32041  12.720   2.105  17.100 -0.0083  0.3310 -0.1586
31842W        W32042   0.246   8.667  16.119 -0.0975  0.1203 -0.1542
31843W        W32043  15.564  13.589   3.389 -0.2191  0.2821  0.0428
31844W        W32044  12.717   0.893   3.158  0.0430 -0.0369  0.1325
31845W        W32045  14.264   7.451  14.109  0.0058 -0.2396 -0.2767
31846W        W32046  14.782   4.059  15.678 -0.1202  0.2511  0.1129
31847W        W32047   9.336   7.016   2.110  0.0788 -0.0640  0.0565
31848W        W32048  17.788   4.427  11.841 -0.1038  0.1289  0.3079
31849W        W32049  15.325   2.359   1.848  0.0662  0.2242 -0.0398
31850W        W32050   3.500  11.815   9.541  0.0704  0.0528  0.0082
31851W        W32051   6.528   3.706  13.200 -0.0560 -0.3051 -0.1549
31852W        W32052   0.959   6.756   9.300  0.0680 -0.0326  0.1200
31853W        W32053  11.945   2.812  14.276 -0.0746  0.1958  0.0686
31854W        W32054  12.178  11.404   1.646  0.0458 -0.1593  0.1980
31855W        W32055  16.016   5.536  11.454  0.0669  0.2247 -0.3094
31856W        W32056  15.910   7.589  16.254 -0.0726  0.2359  0.2393
31857W        W32057  18.013   2.631   1.414 -0.1701  0.0669  0.0591
31858W        W32058   0.816   0.230   2.439 -0.0407 -0.2666  0.0122
31859W        W32059  13.968   5.737  16.292  0.3016 -0.1692 -0.1184
31860W        W32060  15.429  17.617  17.630 -0.1703 -0.2039 -0.1725
31861W        W32061   5.657  16.081   1.945  0.2108  0.2867 -0.1080
31862W        W32062  15.381  17.175   0.174 -0.3390  0.1490  0.0092
31863W        W32063   9.740   1.618  17.254  0.1767 -0.2856  0.2773
31864W        W32064  15.168   1.854  17.817  0.3628 -0.1363 -0.1614
31865W        W32065  17.446  18.160   5.598 -0.0611  0.0079 -0.1421
31866W        W32066  15.398  15.696  13.044 -0.3959 -0.1188  0.4207
31867W        W32067  11.441   9.340  11.691 -0.2635  0.0772  0.1575
31868W        W32068   8.918   6.800  13.263  0.3776 -0.2623 -0.0548
31869W        W32069   2.598   1.009  17.682 -0.1935  0.0792 -0.4012
31870W        W32070  12.027  14.661  14.140 -0.2473 -0.0989  0.2485
31871W        W32071  17.251   0.137  16.558 -0.2663 -0.0350 -0.1428
31872W        W32072   8.872   0.289  16.936  0.1372  0.0952  0.4647
31873W        W32073  12.334   1.265   4.772 -0.0496  0.1560 -0.3576
31874W        W32074  10.925  11.448  17.394 -0.1667  0.1555 -0.0884
31875W        W32075  14.392   0.986   6.969 -0.1123  0.2594  0.1157
31876W        W32076   4.802   7.336   4.470 -0.0790 -0.0903 -0.0802
31877W        W32077  18.187  14.269  16.787 -0.0369 -0.2299  0.3013
31878W        W32078  17.365  13.850  14.129 -0.1299 -0.1926 -0.3116
31879W        W32079   9.940   0.056  15.468  0.0849  0.0548 -0.2262
31880W        W32080   8.492   0.447   0.266  0.3389  0.0786  0.0530
31881W        W32081   6.272   2.797  13.163 -0.0573 -0.2036  0.2222
31882W        W32082  15.793  11.357  15.304 -0.2415 -0.4339  0.0386
31883W        W32083   8.940  17.196  16.811 -0.0494  0.1018 -0.0906
31884W        W32084  15.639   2.754   0.275  0.1494  0.2111 -0.1653
31885W        W32085  16.681  17.691  16.124  0.1397  0.0540 -0.0150
31886W        W32086   9.118  10.895  12.895  0.0153 -0.1022  0.0166
31887W        W32087  15.061   1.397   1.890  0.5659  0.0906 -0.0160
31888W        W32088  14.725   4.894   0.780 -0.3496 -0.0690  0.0555
31889W        W32089  10.499   7.083  13.473 -0.1180 -0.0305 -0.0370
31890W        W32090   1.901  18.023  13.694  0.3026  0.0294  0.0325
31891W        W32091   0.307  14.978  18.088  0.0157  0.0966  0.1063
31892W        W32092  13.542  13.893   5.232 -0.0686 -0.0663 -0.3518
31893W        W32093  13.859  10.768   3.327 -0.1997  0.2106 -0.1417
31894W        W32094   4.125   5.850  12.356 -0.0722  0.2418 -0.0020
31895W        W32095   4.845  16.351  13.431  0.0149 -0.0389  0.3210
31896W        W32096  11.385   5.390  15.962 -0.0706 -0.1421 -0.2545
31897W        W32097  13.712   2.453  16.891 -0.3655 -0.0379  0.1509
31898W        W32098   2.936   2.892   0.748  0.0431  0.0599  0.2387
31899W        W32099   0.756   6.645   1.119  0.0119  0.0495  0.0915
31900W        W32100   3.316   7.038  17.180  0.0770  0.2666 -0.0065
31901W        W32101  15.726   6.254   4.221  0.2227  0.4069 -0.1309
31902W        W32102  17.657   4.589  10.861 -0.2105  0.0195  0.2826
31903W        W32103   0.285   2.150  11.532  0.3943  0.0285  0.0177
31904W        W32104   0.194  15.041  12.889 -0.2124 -0.1209  0.1042
31905W        W32105  10.376   7.379   3.437 -0.0950 -0.0124  0.0663
31906W        W32106  12.782   6.054   4.892 -0.2438 -0.0908 -0.0244
31907W        W32107  13.123  17.432  15.449  0.0699 -0.0753  0.0486
31908W        W32108  10.159  13.665   2.771 -0.0624 -0.3335 -0.3044
31909W        W32109  11.817   3.563   4.105 -0.0196  0.1153 -0.3547
31910W        W32110  17.030   2.032  16.673 -0.2384  0.2378 -0.0600
31911W        W32111  16.190  16.120  16.605 -0.1923 -0.0403  0.0017
31912W        W32112  13.200  12.397  17.364 -0.1786  0.0515 -0.0449
31913W        W32113   0.939   8.006   7.003  0.0350  0.2684  0.0647
31914W        W32114   8.902   4.583  12.981  0.1840  0.1655 -0.1179
31915W        W32115  10.038   0.589  15.737  0.4518 -0.0539  0.0748
31916W        W32116  12.919  15.777  10.573 -0.1443  0.0108  0.0156
31917W        W32117  13.290   2.885  11.187 -0.4208 -0.1533  0.1756
31918W        W32118  10.810   5.625   7.724 -0.0127 -0.1563 -0.4317
31919W        W32119  16.415  17.098  10.744  0.0197 -0.0465 -0.0708
31920W        W32120  16.405   4.938  12.623  0.1063 -0.1945 -0.0785
31921W        W32121   7.821  13.213   8.268 -0.1770 -0.0993 -0.1769
31922W        W32122   9.197   4.686  13.944 -0.0194 -0.1527 -0.0049
31923W        W32123  13.291  17.193   5.764  0.0298 -0.1634  0.0526
31924W        W32124   5.256   0.247  17.071  0.0290 -0.0571  0.4958
31925W        W32125  15.151   0.777  14.262 -0.1249  0.0005  0.0576
31926W        W32126  10.595   4.956  14.891  0.0879 -0.2567 -0.0065
31927W        W32127  14.091  16.828  16.801 -0.2720 -0.3648 -0.1304
31928W        W32128   7.067   4.176  16.807 -0.0185  0.2384 -0.0202
31929W        W32129   9.530  17.998   4.913 -0.4780  0.0477  0.0157
31930W        W32130   4.519  16.593  13.864  0.0055 -0.2050  0.1239
31931W        W32131   6.244   7.790  16.880  0.0610 -0.1337 -0.1338
31932W        W32132   5.035  16.512   1.384  0.0515  0.1935 -0.1734
31933W        W32133   2.094  18.140   1.701  0.0098 -0.3213 -0.2546
31934W        W32134  15.561   5.989   0.411 -0.1083  0.1630  0.0424
31935W        W32135  10.404   3.032  17.422  0.0053 -0.0569 -0.0582
31936W        W32136  11.193   9.175   6.350  0.2270 -0.1440 -0.3006
31937W        W32137  17.672   4.370   3.441 -0.3084 -0.0812 -0.5000
31938W        W32138  17.583  12.348  14.481 -0.1735  0.0757  0.0180
31939W        W32139  16.319   2.731   7.498 -0.0501 -0.1314 -0.0586
31940W        W32140  16.167   4.590  17.186 -0.0049 -0.1960 -0.1201
31941W        W32141  10.186  12.762   2.279  0.1576  0.0261 -0.0587
31942W        W32142   2.911   8.710   6.395  0.2398 -0.2755 -0.1088
31943W        W32143  12.893   0.181  15.767 -0.1822  0.1207  0.1061
31944W        W32144   3.978   6.476   9.683 -0.0292 -0.0921  0.2420
31945W        W32145  15.262   6.374  14.405 -0.1651  0.4379 -0.1483
31946W        W32146   7.605  16.804  17.806  0.2486  0.0097 -0.1066
31947W        W32147  10.630  11.540   4.480 -0.0587 -0.0996  0.2634
31948W        W32148  14.650   4.828  14.784  0.1031  0.2147  0.2052
31949W        W32149   4.618  16.870  10.906  0.0951  0.0917  0.2500
31950W        W32150   7.909   1.240  15.340  0.0070 -0.1628  0.1321
31951W        W32151  12.279  14.109   1.109  0.1977  0.0953  0.0314
31952W        W32152  17.557   2.532   3.125  0.1854 -0.1664 -0.3071
31953W        W32153  12.379   6.623  13.836 -0.0788  0.0318 -0.2783
31954W        W32154  15.544   3.394   7.504 -0.0256 -0.1280  0.2804
31955W        W32155   8.079   4.961  12.661 -0.0379  0.0949 -0.2811
31956W        W32156  11.711   1.942  13.293 -0.1712 -0.2144  0.0332
31957W        W32157   4.869   0.998  11.818  0.0258  0.0750  0.0949
31958W        W32158  15.040  18.105   5.316  0.1188 -0.2128 -0.0794
31959W        W32159   0.223   3.023  14.270 -0.0420 -0.1055 -0.0088
31960W        W32160   6.721   3.507   0.389 -0.2164  0.1366 -0.0636
31961W        W32161  16.693   7.720   1.942 -0.2502 -0.2590 -0.0762
31962W        W32162  12.173  17.905  13.531  0.4238  0.2698 -0.0882
31963W        W32163  12.891   0.756  14.440 -0.3087 -0.1904 -0.0848
31964W        W32164  12.580   1.290   2.587 -0.0890 -0.0248 -0.1296
31965W        W32165  14.238  16.359   6.032  0.1162  0.0432 -0.0438
31966W        W32166  15.576   9.595   9.615  0.2275 -0.1922  0.1495
31967W        W32167   7.198   1.922  16.461 -0.2200  0.1125  0.3214
31968W        W32168  10.505   5.432  13.030 -0.0296  0.1174 -0.0715
31969W        W32169   9.089  16.335  16.728 -0.2163  0.1503 -0.0095
31970W        W32170  14.549  16.411   4.633 -0.1814  0.0603  0.3125
31971W        W32171   9.105   3.784  14.978 -0.0475  0.1229 -0.0493
31972W        W32172   1.854   8.195   9.456  0.0584  0.0091 -0.2237
31973W        W32173  16.682   1.828   2.310 -0.1669 -0.0372 -0.0739
31974W        W32174  10.714  17.612  12.716 -0.1143  0.1119  0.1229
31975W        W32175  10.624   1.497  16.051  0.0203  0.1326  0.1531
31976W        W32176   1.791   1.148  13.935 -0.2843  0.3003 -0.1018
31977W        W32177  16.608   1.937  17.045  0.1330  0.0989  0.0381
31978W        W32178  12.151   8.651   2.251 -0.3043  0.3966 -0.0941
31979W        W32179  16.513   2.844  12.151  0.1183  0.0028  0.1225
31980W        W32180  17.362  12.614   2.168  0.1283  0.3957 -0.1674
31981W        W32181  10.700   4.291   5.930  0.1623  0.0671 -0.0873
31982W        W32182   7.948   0.270   4.740  0.0731  0.0523 -0.0183
31983W        W32183   9.371   7.563  12.743 -0.3454  0.0225  0.0585
31984W        W32184  15.601   7.410   9.228 -0.2837  0.2517 -0.1208
31985W        W32185   0.664  18.174  12.758  0.0085  0.1256  0.2839
31986W        W32186  15.349   8.774   8.830  0.0299  0.0935  0.0890
31987W        W32187  16.995  16.250  16.207 -0.0447 -0.0725  0.0615
31988W        W32188  10.249   7.666   1.790  0.3060 -0.0510  0.0322
31989W        W32189   3.858  13.027  16.820  0.1792  0.1542  0.1259
31990W        W32190  16.544   1.296   8.149 -0.1744  0.2956 -0.1066
31991W        W32191   9.388   5.019   5.979  0.0015 -0.2115  0.2021
31992W        W32192  16.519  11.629  14.007 -0.1146  0.0444  0.2423
31993W        W32193  12.980  16.029  11.016  0.0829  0.0828 -0.2166
31994W        W32194   9.397  18.170   1.350 -0.0546  0.2606 -0.1996
31995W        W32195   5.901   4.717   0.072 -0.4831  0.0287 -0.1404
31996W        W32196   0.474   7.347  17.930 -0.1736 -0.1302  0.2605
31997W        W32197   9.678   2.500   0.908  0.0683 -0.1906 -0.0682
31998W        W32198   4.970   5.192  14.546  0.0357  0.0242 -0.1393
31999W        W32199   8.649  16.551  16.608  0.1422 -0.2405 -0.0161
32000W        W32200   9.537  17.759  14.390  0.0639  0.0474 -0.1068
32001W        W32201  10.451   8.852   3.404 -0.2609 -0.0038 -0.1331
32002W        W32202  15.976   0.194  11.526  0.3717  0.0665 -0.4242
32003W        W32203  11.937   7.539   5.366 -0.1634 -0.0101  0.1782
32004W        W32204  10.754  12.602  13.808 -0.0304  0.2238 -0.0989
32005W        W32205   6.359   4.833  12.157 -0.1820  0.2440 -0.0665
32006W        W32206   7.003  12.608  14.076 -0.0639 -0.0453 -0.3630
32007W        W32207   8.450  11.104  16.589  0.2730  0.3850 -0.2547
32008W        W32208  12.669   3.550  12.334  0.1460  0.1052 -0.1741
32009W        W32209   0.443   5.343   3.942  0.1232 -0.4516 -0.0345
32010W        W32210  14.050   6.072   2.435 -0.2441  0.0752 -0.2876
32011W        W32211  17.512   9.192   9.668 -0.0027  0.2696  0.1319
32012W        W32212  11.937  15.174  16.457 -0.1610 -0.1656 -0.1683
32013W        W32213  16.551  10.335   5.086  0.1565  0.0255 -0.0387
32014W        W32214   9.049   6.954   0.560 -0.0235 -0.1282 -0.0740
32015W        W32215   3.657  11.728  15.743  0.0703  0.0717 -0.2750
32016W        W32216   2.081  16.757  14.434  0.0372  0.0419 -0.1552
32017W        W32217   7.277   1.341   0.890  0.2473  0.1151 -0.0671
32018W        W32218  10.854   2.963   5.292 -0.2013  0.0287  0.0354
32019W        W32219   1.091   7.990   1.050  0.0188 -0.2012  0.4871
32020W        W32220  14.641   7.319   3.921  0.1716  0.0275 -0.0287
32021W        W32221  16.752   7.158  11.637  0.1409 -0.0352 -0.2569
32022W        W32222   0.689   7.758  16.051  0.0542  0.0647  0.0892
32023W        W32223   5.391  12.206   0.536 -0.1002 -0.0147 -0.0279
32024W        W32224  13.491  16.681   4.041  0.0659 -0.0898  0.0541
32025W        W32225  13.206   0.692   1.874 -0.4131  0.2581 -0.1335
32026W        W32226  14.299   4.996  12.792  0.3243 -0.0695 -0.0981
32027W        W32227   8.854   5.782   9.176 -0.3589  0.0138  0.3710
32028W        W32228   2.048   7.045   4.899 -0.2025  0.0057 -0.0951
32029W        W32229   7.368   3.515  17.778  0.0890 -0.0511 -0.0772
32030W        W32230   8.326  12.838  14.961  0.0341 -0.3812  0.3193
32031W        W32231  12.386   4.633   3.867 -0.1660 -0.0311 -0.3497
32032W        W32232  12.284   8.147   0.421  0.0575  0.4183  0.0207
32033W        W32233   2.050   6.091  15.901 -0.2705 -0.2022  0.1463
32034W        W32234  10.700   2.133   2.721  0.2978  0.2628  0.1936
32035W        W32235  10.628  10.403   1.267 -0.0686 -0.1331  0.1776
32036W        W32236  15.712   0.738   3.464 -0.2336  0.2527 -0.3202
32037W        W32237   6.335   0.934  18.176 -0.0130 -0.1096  0.6974
32038W        W32238   8.438   5.162  17.012  0.0786  0.2510 -0.0627
32039W        W32239  11.691   4.132  18.152  0.0982  0.3645 -0.0388
32040W        W32240   3.474   0.778  17.511 -0.0479  0.2547 -0.2878
32041W        W32241  12.233   7.945  10.104 -0.3249 -0.4114  0.1170
32042W        W32242  16.371   7.731  16.590 -0.1158  0.2311  0.0459
32043W        W32243  11.699  16.720   3.206  0.2349  0.2875 -0.2543
32044W        W32244  13.620   2.735   1.295 -0.0012  0.0137 -0.2258
32045W        W32245  14.229   2.196  14.913  0.0103  0.0604  0.0294
32046W        W32246   8.474  15.248   1.009 -0.1627 -0.0656  0.1535
32047W        W32247  14.261   8.542  15.283 -0.0954 -0.1110  0.3139
32048W        W32248  13.032   8.967   7.074 -0.0299  0.1812 -0.3132
32049W        W32249   9.785   6.126  17.622 -0.1501 -0.1277 -0.1828
32050W        W32250   9.655  18.103   3.027  0.1651  0.1514 -0.1642
32051W        W32251   8.497   8.183   1.673 -0.1744 -0.0016  0.0815
32052W        W32252   2.347   9.838   8.294 -0.1789 -0.1796 -0.2826
32053W        W32253  13.848  14.446   3.074  0.0572  0.0172 -0.0713
32054W        W32254   4.898  12.491  18.143 -0.1317  0.2185 -0.0756
32055W        W32255   2.538   9.301  18.159  0.1148  0.1984 -0.0776
32056W        W32256  10.423  13.494   0.396 -0.1011 -0.0064 -0.1865
32057W        W32257  15.755   5.849   8.294 -0.2303 -0.0817  0.0048
32058W        W32258  15.112   5.442  14.151  0.0900  0.1866  0.2906
32059W        W32259  15.342   7.062   4.977 -0.2289 -0.0414 -0.0220
32060W        W32260   6.512   6.816   0.528 -0.0751 -0.2848  0.2319
32061W        W32261  15.141   7.004  12.858  0.3195  0.4331  0.3043
32062W        W32262   5.251  14.816   7.039  0.2462  0.0453 -0.0679
32063W        W32263   7.685   7.452   5.471  0.3997  0.2476 -0.0360
32064W        W32264   2.502   7.023  15.116 -0.1713  0.0394 -0.1454
32065W        W32265   6.107   0.949   1.273  0.1477  0.0854  0.1030
32066W        W32266   7.435   9.839   9.305 -0.2251  0.0175 -0.2261
32067W        W32267   7.840   1.019  18.057 -0.0740  0.2307  0.0728
32068W        W32268   4.198   1.311  17.936 -0.1577 -0.2318  0.1912
32069W        W32269   9.016   8.020   0.357 -0.1844  0.1327  0.0231
32070W        W32270   8.638  16.673  13.652 -0.5453  0.0944 -0.0471
32071W        W32271   8.514   3.388  14.411 -0.0311 -0.2601 -0.0803
32072W        W32272  13.916  11.902  16.736  0.2157  0.3453 -0.0800
32073W        W32273   3.368  14.926   0.062 -0.0684 -0.1722 -0.3462
32074W        W32274   9.350  10.068  15.289 -0.2677 -0.0730 -0.3067
32075W        W32275  13.306  10.890   7.428 -0.0316  0.3048  0.1192
32076W        W32276  16.181   2.074  17.348  0.0132 -0.0802  0.0185
32077W        W32277   7.840   5.210   2.047 -0.0508  0.0367 -0.1767
32078W        W32278  10.488   5.838   4.991  0.0727  0.4646  0.1295
32079W        W32279  12.700  10.863   0.903 -0.0883 -0.4540  0.2787
32080W        W32280  11.372   2.478  15.979 -0.3187 -0.0814  0.0794
32081W        W32281  12.104   5.457   7.240  0.0384  0.0221 -0.1022
32082W        W32282   9.636   2.142  12.070  0.1804 -0.0269  0.1577
32083W        W32283  14.536   7.496   1.883 -0.0537 -0.0704 -0.0897
32084W        W32284  13.407   9.378  16.586 -0.1770  0.1173 -0.1270
32085W        W32285  13.377   0.337  16.589  0.0818 -0.1463 -0.1455
32086W        W32286   7.940   4.434   1.635 -0.0164 -0.1765  0.2356
32087W        W32287   9.466   2.347   3.231  0.0588  0.1444 -0.3086
32088W        W32288  12.735   3.526   8.685 -0.0679  0.0971  0.2164
32089W        W32289  13.914   5.640  17.139 -0.4807  0.0937  0.0680
32090W        W32290  12.565   5.588   3.000 -0.0825  0.1622 -0.0552
32091W        W32291  17.847   6.321  12.661 -0.1905  0.1272  0.0188
32092W        W32292  16.532   6.750   5.576  0.1921 -0.1995  0.0110
32093W        W32293  13.955   8.480   6.121 -0.3109 -0.0743  0.2777
32094W        W32294  14.348  12.732  15.137 -0.0240 -0.0260  0.2352
32095W        W32295   1.387  17.780   1.295  0.2307  0.0185  0.2131
32096W        W32296   0.025  18.009   4.462 -0.2262 -0.1345  0.4864
32097W        W32297   1.897   0.384   1.717 -0.1633  0.4302  0.1310
32098W        W32298  16.305  16.694  12.147  0.3435  0.1695  0.1798
32099W        W32299  14.408   2.385  17.710  0.2240  0.2079 -0.0882
32100W        W32300   9.657   2.722   6.909  0.1556  0.0028 -0.0683
32101W        W32301  15.874   3.319   4.007  0.0074 -0.0314 -0.1441
32102W        W32302  15.786   4.833   2.959  0.0876 -0.4521 -0.0185
32103W        W32303   3.148  14.608   9.965  0.1993  0.1514 -0.1411
32104W        W32304  16.013   5.157   1.590  0.0969  0.0817  0.3008
32105W        W32305   3.770   0.615   6.528 -0.0158 -0.0364  0.3688
32106W        W32306  17.814   0.088  11.623  0.2643 -0.0172  0.0464
32107W        W32307  16.644   1.607   5.835  0.0836 -0.2571 -0.3429
32108W        W32308   1.859   0.554  17.533 -0.0801 -0.0326  0.0262
32109W        W32309  14.940   0.360  11.385  0.1443 -0.1588  0.1294
32110W        W32310  15.698   7.343   0.539 -0.2160 -0.1416 -0.0387
32111W        W32311  10.685   3.985  15.298 -0.1833  0.0670  0.0621
32112W        W32312  18.146   5.766   8.781  0.0716  0.0605 -0.2758
32113W        W32313  14.871  12.842  16.303  0.0507 -0.0118 -0.0165
32114W        W32314   3.715  11.359   0.794  0.1166  0.0604 -0.0355
32115W        W32315  13.280   2.238   0.188 -0.0458 -0.4047  0.3622
32116W        W32316  10.563   9.709   6.784  0.2845 -0.0689  0.2189
32117W        W32317  12.305  10.260   6.851  0.1064 -0.0512  0.0382
32118W        W32318  13.163   1.218   2.663  0.0864  0.0522  0.1181
32119W        W32319   8.804   9.939   3.093  0.4357  0.3071 -0.0663
32120W        W32320  12.922   3.184   6.258 -0.0452 -0.4676  0.0658
32121W        W32321   7.557   8.140   4.318  0.3363  0.0373  0.0547
32122W        W32322  17.780  15.180   5.514  0.1486  0.2427  0.1056
32123W        W32323  14.730   7.804   0.723  0.0381 -0.0897 -0.2024
32124W        W32324   6.498  15.491  10.785  0.0439 -0.2741 -0.3644
32125W        W32325   0.760   6.830  17.514  0.1102 -0.1779  0.0499
32126W        W32326   8.718   6.239  15.705 -0.0620 -0.1105  0.2027
32127W        W32327  12.670   8.601   1.747 -0.3692 -0.2937 -0.0206
32128W        W32328   2.857   9.069   3.988  0.1526  0.0141 -0.2397
32129W        W32329   8.938   3.292  11.988 -0.0174 -0.2082  0.0311
32130W        W32330   0.085   6.852   8.610 -0.0827 -0.0275 -0.0822
32131W        W32331   5.445   4.499  17.967 -0.0712 -0.0041  0.1516
32132W        W32332  14.991   9.183  16.141 -0.1102 -0.1164  0.1925
32133W        W32333  15.853   0.462  12.510  0.1844 -0.0790  0.1321
32134W        W32334  11.698   0.191  17.825 -0.2816  0.1124 -0.2239
32135W        W32335   4.434   8.621  15.377 -0.2725 -0.2289  0.0361
32136W        W32336   6.717   3.459   7.410  0.2308  0.1612  0.1323
32137W        W32337   5.513   3.771   0.240  0.1173 -0.0985 -0.3831
32138W        W32338  14.600   6.205   1.793 -0.1117 -0.1824  0.0538
32139W        W32339   3.628   5.710   9.156 -0.0879 -0.0365 -0.3867
32140W        W32340  17.478   0.623   1.528  0.1812  0.1256  0.1692
32141W        W32341   8.759   1.817   7.637 -0.2420 -0.1524  0.0907
32142W        W32342  11.370   3.915   1.212  0.0671 -0.2156  0.0106
32143W        W32343  15.616   5.563   5.588  0.1649  0.2127 -0.1110
32144W        W32344  13.566   9.200   2.366  0.3396  0.0133  0.2615
32145W        W32345  11.010   6.018  18.099  0.4221  0.2239  0.1321
32146W        W32346   3.358   2.394   3.529  0.1173 -0.3943  0.2387
32147W        W32347   3.909  17.402   1.428 -0.0429  0.1426  0.2108
32148W        W32348  13.668   5.268  14.163  0.1716  0.0876  0.1128
32149W        W32349   2.018  13.530   6.438  0.1227 -0.0662 -0.1522
32150W        W32350  11.211   6.698  15.137 -0.3695 -0.1611  0.0745
32151W        W32351   0.882  15.004   2.903 -0.1241  0.3778  0.1008
32152W        W32352  13.651   7.387   6.499 -0.0917  0.4573  0.2789
32153W        W32353   5.471   0.774  13.715  0.0919  0.2126  0.1395
32154W        W32354   4.352   7.781  12.838  0.0848  0.0985 -0.0464
32155W        W32355   5.990   2.859   7.311 -0.0120  0.0788 -0.4294
32156W        W32356   7.210   9.661   5.613 -0.1841 -0.0028 -0.0050
32157W        W32357  10.305   9.448   4.532  0.2525  0.3245 -0.0921
32158W        W32358  10.936   8.684   6.079 -0.0628  0.2215 -0.0891
32159W        W32359  15.095   1.233   7.315  0.2615 -0.2244  0.1191
32160W        W32360  13.324   6.244   2.979 -0.3806  0.2248 -0.2321
32161W        W32361   9.728   2.196  16.192  0.1033 -0.0366  0.3615
32162W        W32362   9.146   9.068   6.805  0.0866 -0.6499  0.0201
32163W        W32363  13.177   3.353   8.409  0.3960 -0.0813  0.5855
32164W        W32364  12.295   3.473  17.046  0.0661  0.0924 -0.0006
32165W        W32365   3.080   8.246   0.119 -0.0913 -0.1502 -0.1051
32166W        W32366  14.344   2.312   9.171 -0.1466 -0.0381 -0.3268
32167W        W32367  14.984   4.209  16.443 -0.0316 -0.0689  0.2747
32168W        W32368   1.452   5.215  17.904  0.0226  0.0746  0.0493
32169W        W32369   7.297  17.493   3.441 -0.0057 -0.0702 -0.2052
32170W        W32370   9.267   4.613   5.419 -0.1526  0.0079 -0.0338
32171W        W32371   8.164   7.068  17.693  0.1091  0.0230  0.0254
32172W        W32372  17.482   0.546   0.943 -0.0788  0.0876  0.1220
32173W        W32373   8.069   2.582   3.927 -0.0761 -0.3085  0.0376
32174W        W32374  14.184  10.177   7.654  0.2717 -0.2213 -0.0474
32175W        W32375  15.372   1.141   0.995  0.4581  0.0933  0.1217
32176W        W32376   7.633   5.338  15.578  0.1673 -0.0563 -0.2999
32177W        W32377   2.085   2.652   7.310 -0.2818 -0.2783 -0.0945
32178W        W32378  12.237   2.589  16.695  0.1913 -0.0214  0.3439
32179W        W32379  11.716   1.535   2.004  0.0096 -0.0064  0.0164
32180W        W32380  10.299   9.910   9.182 -0.1439  0.0991  0.0248
32181W        W32381   4.760   7.817  15.881  0.0031  0.0502  0.1108
32182W        W32382   1.519   6.695  13.634  0.1745  0.0147 -0.0982
32183W        W32383  17.753   8.091   2.170  0.2066 -0.1374  0.0384
32184W        W32384  16.749   3.868   1.736 -0.0171 -0.0457  0.0499
32185W        W32385  11.972  15.046   3.599 -0.2717  0.1095 -0.0846
32186W        W32386  12.898   5.265   4.755 -0.1965  0.1600  0.0093
32187W        W32387   0.248   3.469   6.510 -0.1481 -0.5032 -0.0365
32188W        W32388  14.332  15.137  16.109 -0.0707 -0.3438 -0.0758
32189W        W32389  12.124   6.279  16.164 -0.3417  0.2630  0.2350
32190W        W32390   4.076   5.271  13.647 -0.1135  0.2793  0.0086
32191W        W32391   7.113   5.481  16.100  0.0485 -0.0357  0.2900
32192W        W32392   6.050   8.407   1.863  0.1727  0.1248  0.0123
32193W        W32393  11.340   8.543   8.127 -0.1017 -0.1030  0.0803
32194W        W32394  17.676  13.414   0.800 -0.0109 -0.3989  0.0707
32195W        W32395  12.627   3.200   4.101 -0.1019 -0.4668 -0.1157
32196W        W32396  11.706  11.475  17.279  0.2446 -0.3280  0.2769
32197W        W32397  15.979   0.870   4.807  0.2364  0.1710  0.0401
32198W        W32398  10.751  11.308  16.463  0.3952  0.2119 -0.0218
32199W        W32399  10.006   6.057  16.689 -0.0803 -0.0051  0.1396
32200W        W32400  16.101  12.910   3.948  0.0839 -0.0034 -0.1346
32201W        W32401   8.654   4.320   6.178 -0.1452 -0.3502 -0.0361
32202W        W32402   7.587   6.232   0.332 -0.0192  0.0057 -0.0674
32203W        W32403  13.830   3.729   2.964  0.0802  0.0888 -0.0521
32204W        W32404  18.179   4.053   9.031 -0.1029  0.3698 -0.1181
32205W        W32405   7.633   8.737   3.615  0.1323 -0.0279 -0.1130
32206W        W32406  17.217   4.376  13.432 -0.1216  0.1927  0.1097
32207W        W32407   0.486  17.466   8.483 -0.1311 -0.0713 -0.1740
32208W        W32408   2.496  11.513   5.269 -0.0822 -0.0393 -0.0661
32209W        W32409  10.132   6.624   4.265  0.0279  0.3773  0.0679
32210W        W32410   6.888  12.917   7.892 -0.1459 -0.2063  0.1458
32211W        W32411  12.176   2.231   4.546 -0.0694 -0.0823  0.2913
32212W        W32412  12.112   3.713   3.574  0.3425 -0.0938 -0.0552
32213W        W32413  17.975   2.267   5.245 -0.0170  0.1328  0.2003
32214W        W32414  13.989   6.628   8.993  0.0226 -0.0774  0.0519
32215W        W32415   6.748   7.588   2.890 -0.0969 -0.1789  0.1209
32216W        W32416  14.976   5.371   4.876 -0.2952  0.2823  0.1358
32217W        W32417  11.714   2.087   4.321  0.1077 -0.0538 -0.2135
32218W        W32418  15.221   6.309   1.271 -0.0909  0.2382  0.0691
32219W        W32419   8.988   8.887   8.057 -0.0226 -0.0475 -0.0862
32220W        W32420  17.153   1.515   5.250  0.3605 -0.0650 -0.0243
32221W        W32421   9.543   5.248   4.436  0.0716 -0.1173  0.0967
32222W        W32422  13.380  12.741  10.940  0.1136  0.1488  0.0706
32223W        W32423  16.955   5.352   7.959 -0.2882 -0.1649 -0.0038
32224W        W32424   0.217   7.001   3.050  0.0872  0.0812  0.1610
32225W        W32425  16.163   4.947   9.300  0.1166 -0.1753 -0.1866
32226W        W32426  17.993  16.678   1.027 -0.2041  0.1598  0.0826
32227W        W32427  10.358   2.309   5.561 -0.0267  0.3802  0.1141
32228W        W32428  13.627   4.012   8.148 -0.3403 -0.0566  0.1284
32229W        W32429   6.423   0.870   5.968  0.1987  0.0585  0.2668
32230W        W32430   9.205   6.846   6.836 -0.1152 -0.0648  0.1681
32231W        W32431  12.025  17.769   5.320  0.0511  0.1587 -0.2248
32232W        W32432   0.083   1.853   1.665 -0.0405  0.1987  0.1448
32233W        W32433  16.374   5.134   2.127 -0.0143  0.1191 -0.0928
32234W        W32434  12.292   3.701  13.502 -0.1885 -0.1846 -0.1004
32235W        W32435  13.572   5.095   2.013  0.1024 -0.4112  0.1034
32236W        W32436  13.408   3.554   3.774  0.3521  0.2510  0.2373
32237W        W32437   9.349   1.794  14.806  0.3302 -0.1366 -0.2162
32238W        W32438   8.270   4.607   6.479 -0.0382  0.1412  0.2132
32239W        W32439   0.475   6.850   5.101 -0.1235 -0.2652 -0.2691
32240W        W32440  12.687   7.730   8.271  0.0365 -0.1889 -0.0786
32241W        W32441  16.152  17.868  14.804  0.1914 -0.1963 -0.1016
32242W        W32442   9.016  16.165  10.458  0.0228  0.0411 -0.0025
32243W        W32443  10.529   4.927   8.650  0.1681  0.2413  0.2197
32244W        W32444  13.378   5.109   5.779  0.1646 -0.1033  0.0333
32245W        W32445   9.508   9.699  18.098 -0.1552 -0.2080  0.0891
32246W        W32446  14.686   5.788   3.679 -0.1877 -0.0564 -0.1153
32247W        W32447  13.930   8.551   9.811  0.3832  0.5815 -0.2359
32248W        W32448   0.369   9.192   4.329  0.0849 -0.0339 -0.0433
32249W        W32449  12.401   3.617   1.273  0.0209 -0.0602 -0.1377
32250W        W32450  11.315   2.650  17.282  0.1341  0.0421 -0.0918
32251W        W32451  10.663   8.162   5.948  0.3269  0.3618  0.4631
32252W        W32452   7.684   6.075   3.400 -0.2176 -0.0789 -0.0135
32253W        W32453  15.882  10.658   5.569  0.0813 -0.3116 -0.0355
32254W        W32454   6.713  14.383   0.386 -0.1210  0.1139 -0.0973
32255W        W32455  16.306   4.413   4.191 -0.0107  0.1322  0.0566
32256W        W32456  16.305  14.627   1.400 -0.2410 -0.1174  0.1849
32257W        W32457  12.197  12.592   3.127  0.0226 -0.0342 -0.1448
32258W        W32458  13.850  10.681   2.161 -0.0778 -0.1708  0.1571
32259W        W32459  14.552   3.721   3.605  0.3326  0.0420  0.0376
32260W        W32460  11.320  17.355  14.510  0.3067 -0.1842  0.0699
32261W        W32461   5.854   2.748   1.094  0.2347 -0.3456  0.0791
32262W        W32462   6.189   2.392   1.221  0.3598  0.2260 -0.0218
32263W        W32463   9.423  18.021   3.841  0.1242  0.1858 -0.1074
32264W        W32464  15.144   7.948  18.057 -0.0520 -0.0468 -0.0253
32265W        W32465  12.190   6.024   5.748  0.1446 -0.2714 -0.0788
32266W        W32466  15.983   8.365   3.723  0.2262  0.0825 -0.0821
32267W        W32467   1.332  11.796   2.786 -0.0344  0.2694  0.0613
32268W        W32468   6.328   3.966   1.645  0.1617 -0.1788 -0.3298
32269W        W32469  16.853   1.009  12.193  0.0389  0.1267 -0.0540
32270W        W32470  16.186   7.520   0.452  0.0408 -0.0182 -0.2054
32271W        W32471   3.928  10.904   8.639 -0.1079  0.0692 -0.0912
32272W        W32472  14.996   1.242   0.617  0.2206 -0.0578  0.1085
32273W        W32473   9.687   8.146   1.712  0.0517 -0.2176  0.0628
32274W        W32474   0.632  10.117  10.293  0.0340 -0.1535 -0.3023
32275W        W32475   2.844   6.891   0.129  0.3160 -0.1330 -0.1153
32276W        W32476   9.910   6.641  16.552  0.1901 -0.5407  0.0239
32277W        W32477  15.192  13.768  11.132 -0.2124  0.2105 -0.2195
32278W        W32478   0.821   2.494   1.212 -0.0808 -0.1169  0.0951
32279W        W32479  11.032   2.676   4.390 -0.0962  0.2666 -0.1631
32280W        W32480   4.562   4.942  14.320  0.3178  0.4143 -0.1034
32281W        W32481  13.795   3.757   2.010  0.0753  0.3211 -0.0322
32282W        W32482   5.362   0.762  12.071 -0.0146 -0.0811  0.2737
32283W        W32483  14.696   2.697  14.089 -0.2858  0.1835 -0.1837
32284W        W32484  11.073  12.226   1.864  0.2600 -0.0429 -0.0756
32285W        W32485   5.778  12.384  14.045 -0.3467 -0.1257  0.1721
32286W        W32486  15.577   6.703  13.109  0.1756  0.1812  0.0176
32287W        W32487  16.409   8.786  17.419  0.0401  0.2601 -0.2677
32288W        W32488  11.549  17.877  14.609 -0.1604 -0.1817 -0.2647
32289W        W32489  15.318   8.799   0.956  0.0026 -0.0979 -0.1052
32290W        W32490  17.313  13.574   6.058 -0.2267  0.1104  0.2925
32291W        W32491  17.099  12.779   0.464  0.1657  0.2417  0.0210
32292W        W32492   9.679   4.642   0.848  0.0313 -0.2354 -0.1512
32293W        W32493  12.370   5.743  17.158  0.1112  0.1646 -0.1089
32294W        W32494  12.174   2.698   1.287 -0.0026 -0.0858 -0.3933
32295W        W32495  11.019   4.681   6.847  0.1040 -0.0552 -0.0730
32296W        W32496  15.319   6.441   2.615  0.0390 -0.3172 -0.0988
32297W        W32497  12.383   5.594  11.482  0.3327  0.3281  0.0019
32298W        W32498  11.398   4.503   1.944 -0.3213 -0.0271  0.1708
32299W        W32499  10.355   8.731  17.894 -0.1647 -0.1241  0.1568
32300W        W32500  15.158  12.737  15.276 -0.2509 -0.1011 -0.2533
32301W        W32501  17.269   5.184   3.246  0.3167 -0.2904 -0.0064
32302W        W32502   8.771  13.829  16.128  0.0292 -0.0169 -0.3497
32303W        W32503   9.327   2.061  13.808 -0.1085 -0.0283 -0.3052
32304W        W32504  17.274  18.009  17.525  0.0293 -0.0753 -0.2867
32305W        W32505   3.698   5.012  17.232  0.2779 -0.1286 -0.0298
32306W        W32506   0.626   3.146   1.940  0.0019 -0.0058  0.1063
32307W        W32507  14.883   2.634   1.961  0.1393  0.0441 -0.1421
32308W        W32508  12.067   0.534   7.672  0.3317  0.0272 -0.2256
32309W        W32509   7.959   6.589   0.448  0.0371 -0.1675  0.2383
32310W        W32510   7.592   2.444  14.305 -0.2092  0.1995 -0.0152
32311W        W32511  17.352   8.252   1.611  0.1215  0.1085 -0.0300
32312W        W32512   5.656   7.020   0.416  0.0233  0.3174 -0.3462
32313W        W32513   9.101   8.418   5.946  0.0355  0.0524  0.1134
32314W        W32514  15.348   7.132   5.997 -0.1837  0.2658  0.0868
32315W        W32515  13.625   1.242   9.582 -0.3858  0.0296 -0.1643
32316W        W32516  13.695   8.498   0.089  0.3079 -0.1667  0.3175
32317W        W32517   8.890   9.767  16.021 -0.0263  0.1847  0.1558
32318W        W32518  14.709   9.799   3.504 -0.0021 -0.0088 -0.1679
32319W        W32519  12.634  15.583   4.275  0.1666  0.4717  0.4051
32320W        W32520   5.119  17.036   3.062  0.1337 -0.2360  0.6284
32321W        W32521  16.540   7.852   3.560 -0.3315 -0.1209  0.1193
32322W        W32522   6.076   3.832   6.686 -0.1292 -0.0025  0.0735
32323W        W32523   9.052   7.071   7.331  0.1874 -0.0202  0.2190
32324W        W32524  15.120   1.682   0.920  0.2301 -0.0340  0.0495
32325W        W32525   9.697   9.674  14.345 -0.3097 -0.0545 -0.1425
32326W        W32526   4.321   2.180   3.229  0.0680 -0.1098 -0.1264
32327W        W32527   9.873   7.425  17.398  0.1944  0.1555 -0.1726
32328W        W32528   5.971   4.156   4.976 -0.3299 -0.1197  0.1067
32329W        W32529  16.197  16.889   1.219 -0.1988  0.1540 -0.2014
32330W        W32530   6.430  11.636  10.528  0.1081  0.0851  0.1251
32331W        W32531   3.514  13.476   5.149  0.2368 -0.0809 -0.1511
32332W        W32532   2.087   1.233   4.873 -0.0265  0.0930  0.0824
32333W        W32533  16.068   4.654   2.491  0.1773 -0.0048 -0.0460
32334W        W32534  11.871  16.506   1.807 -0.1199  0.2616  0.2494
32335W        W32535   7.231   6.114  15.173 -0.1941  0.0362 -0.0509
32336W        W32536  14.917  15.373   6.723  0.3516  0.0721 -0.0654
32337W        W32537  15.579  11.639  17.646  0.2067  0.0180  0.0367
32338W        W32538  16.935   4.131   2.102 -0.1372  0.1109  0.0478
32339W        W32539   4.904  15.646  15.026 -0.0145 -0.0278  0.1377
32340W        W32540   2.514   0.214   3.004 -0.0046 -0.1576 -0.2070
32341W        W32541   7.616   6.908  15.699 -0.2148 -0.2535  0.1847
32342W        W32542  16.088   9.498   2.942 -0.0150  0.1063  0.1093
32343W        W32543   5.669   2.360   1.931  0.0882  0.0273  0.0445
32344W        W32544  12.523   6.157  17.733 -0.4400 -0.0543  0.1633
32345W        W32545  16.867   9.905   4.192  0.0256  0.0737  0.0373
32346W        W32546  10.729   3.188   0.924 -0.1941 -0.2111 -0.0505
32347W        W32547   2.604  16.890  17.772 -0.0982 -0.0593 -0.3134
32348W        W32548  17.605  15.737   7.486 -0.2654  0.0189  0.1549
32349W        W32549   4.109   7.378   5.726  0.1151 -0.0316 -0.1466
32350W        W32550  14.811   9.934   4.624  0.0567 -0.0359  0.1170
32351W        W32551  10.835  17.319  13.644  0.0459 -0.1012 -0.1780
32352W        W32552  11.231  11.439  15.259 -0.1421  0.0611 -0.2121
32353W        W32553   1.123   4.614   5.423 -0.1797  0.3678 -0.2224
32354W        W32554  11.985  13.241   1.208 -0.2358  0.0677  0.2394
32355W        W32555  16.744   6.276   9.080  0.0801  0.3767  0.0467
32356W        W32556  12.283   6.953  12.353 -0.1514  0.2495  0.3603
32357W        W32557  16.007   1.941   3.028  0.0201  0.0968 -0.1155
32358W        W32558  18.069   1.469   4.974 -0.0293 -0.1870  0.1152
32359W        W32559  11.252   6.192   6.728  0.2707 -0.0060 -0.0365
32360W        W32560   0.695  17.852  11.604  0.0751  0.1937 -0.4570
32361W        W32561   1.389   9.187   7.723  0.1824  0.0260  0.0280
32362W        W32562  13.430   4.007  17.584 -0.2519  0.1187 -0.4245
32363W        W32563  12.466  11.303  11.231 -0.1900  0.2095 -0.2977
32364W        W32564  13.570  10.267   0.814  0.1283  0.1418  0.0756
32365W        W32565  11.984   2.659  17.156  0.3205 -0.3249  0.2845
32366W        W32566  16.761   4.234  10.884 -0.1529 -0.0175 -0.1657
32367W        W32567   4.914  14.509  17.893  0.1707  0.2174  0.1486
32368W        W32568   8.726  15.806  15.678  0.0324 -0.1824 -0.1648
32369W        W32569   7.652  15.926  17.979 -0.2739  0.1748  0.2812
32370W        W32570   3.771   1.634  18.065  0.0194 -0.3000  0.0592
32371W        W32571  12.324   5.708   1.208  0.0720 -0.3873  0.1756
32372W        W32572   9.115   6.101  15.247 -0.2884  0.0155 -0.0519
32373W        W32573   0.870  11.859   1.448 -0.0607 -0.2914  0.1645
32374W        W32574   9.302   6.572   0.209  0.2857  0.0980 -0.3802
32375W        W32575  15.455   6.446   8.784  0.2953 -0.2682  0.2826
32376W        W32576  16.136   1.751   9.091 -0.0022  0.0811 -0.0213
32377W        W32577  16.409  16.221  14.050  0.4409  0.0165 -0.2617
32378W        W32578  16.797   5.455   7.446 -0.1646 -0.2275  0.1212
32379W        W32579   6.092   3.244  16.033 -0.0214 -0.3802 -0.1259
32380W        W32580  12.836   4.448   1.621  0.0928 -0.0135 -0.1448
32381W        W32581  10.098  12.783   9.157  0.0925  0.1298 -0.5483
32382W        W32582   3.440  12.568   3.241 -0.0084 -0.1198  0.0319
32383W        W32583   3.447   7.832   2.152 -0.1082  0.3009 -0.1094
32384W        W32584  17.245  17.984   7.917 -0.1008  0.3013  0.0369
32385W        W32585  15.639   0.606   0.967  0.3900 -0.0790  0.0625
32386W        W32586   2.065  14.104  13.004  0.1929  0.0462 -0.0125
32387W        W32587   6.417   4.503   2.391 -0.2471 -0.3420 -0.0990
32388W        W32588   3.882   3.645   4.020 -0.0836  0.1212  0.0225
32389W        W32589  16.088   5.982   2.665 -0.1094 -0.0773  0.0057
32390W        W32590   6.702  11.262   3.537  0.2270  0.0166  0.1694
32391W        W32591  13.780  11.184   9.971 -0.1783 -0.1372  0.1038
32392W        W32592   8.424  15.139   3.806  0.0958  0.2822 -0.1267
32393W        W32593   1.946   3.417   0.895 -0.3755 -0.1804  0.0135
32394W        W32594   8.895   8.425   5.449 -0.0311  0.1174  0.2552
32395W        W32595  16.482  17.403   9.750 -0.1322  0.0173  0.1529
32396W        W32596  13.006   5.925   2.333 -0.1597 -0.1321 -0.0648
32397W        W32597  10.692   2.688  17.209  0.1577 -0.2316 -0.0791
32398W        W32598  12.331   8.000   5.275 -0.1788 -0.3128  0.0189
32399W        W32599  11.683   6.507  12.480 -0.0697 -0.4168  0.2716
32400W        W32600   4.084   6.480  10.205  0.0924  0.1233  0.0311
32401W        W32601  10.750   2.762  15.150  0.2605  0.2058 -0.2256
32402W        W32602  10.894   8.495   1.943  0.2489  0.0542 -0.0698
32403W        W32603  10.771   9.431  13.222 -0.0038 -0.0206  0.4496
32404W        W32604   8.474   1.167   2.790  0.0551 -0.3300 -0.4138
32405W        W32605  12.042  18.043   1.670 -0.0276  0.1706  0.0971
32406W        W32606  12.672  18.011   0.959  0.1574 -0.1402 -0.4001
32407W        W32607   7.205  16.988   5.374  0.1126  0.0373  0.1330
32408W        W32608   4.487  12.352   1.492  0.1428  0.2037 -0.0491
32409W        W32609  13.790   0.769  17.609 -0.0191 -0.0730 -0.1340
32410W        W32610  11.278   3.139   9.843  0.1232  0.3035  0.1435
32411W        W32611  12.389   6.501   7.341 -0.0345  0.1904  0.0573
32412W        W32612  12.138  15.450  12.245  0.0020 -0.1746 -0.0035
32413W        W32613  15.206  17.539  12.448  0.0817  0.0971  0.1209
32414W        W32614  12.742   5.645  10.416 -0.0068 -0.1480 -0.1144
32415W        W32615   0.141   2.992   6.241  0.2362 -0.2585 -0.3060
32416W        W32616   5.014  14.334   6.918  0.1419  0.3998 -0.1710
32417W        W32617  17.764   7.979   5.380  0.0956 -0.1414  0.2652
32418W        W32618  10.434   5.901   9.274  0.0859  0.1053  0.2134
32419W        W32619  14.820   9.339   9.911  0.0844  0.1781  0.2330
32420W        W32620  12.805   4.548   6.123  0.0897  0.0961 -0.0339
32421W        W32621   5.285   6.321   6.297  0.0411  0.1012 -0.2012
32422W        W32622   8.814   6.766   5.144  0.0702 -0.4531  0.2492
32423W        W32623  11.829   0.820   6.133  0.1292 -0.2202  0.1873
32424W        W32624  14.149   0.822   4.806 -0.3216  0.1659  0.2983
32425W        W32625   6.379   6.164  11.999  0.2712 -0.1032  0.0922
32426W        W32626   2.168   3.350  10.335  0.0567 -0.2606  0.1130
32427W        W32627  13.257  14.369  10.532 -0.1646 -0.0020  0.1423
32428W        W32628  13.909   8.149  14.842  0.2194  0.1514  0.0508
32429W        W32629  14.397   5.201   9.888  0.1608 -0.1932  0.0523
32430W        W32630  12.413   9.268   1.667  0.1820  0.0095  0.0934
32431W        W32631  15.553   7.396   3.504 -0.0956 -0.0414 -0.2441
32432W        W32632   1.233   2.148   9.686  0.0917 -0.0236  0.0719
32433W        W32633   0.169   1.972   0.804 -0.0569  0.2869 -0.0254
32434W        W32634   9.122  11.294   4.880  0.2499 -0.2707 -0.1345
32435W        W32635   8.175   2.370   1.352 -0.1056 -0.1553  0.0745
32436W        W32636  10.882   3.465   5.178 -0.0755  0.0279  0.0745
32437W        W32637   1.212   0.758  11.100  0.0862  0.1761 -0.1715
32438W        W32638   7.377  12.995   1.311  0.1048 -0.1595 -0.4449
32439W        W32639  13.000   6.894  11.882 -0.0734  0.2441  0.4821
32440W        W32640  10.436   9.993   9.757 -0.4369  0.2230 -0.2008
32441W        W32641  18.135   9.927   2.052  0.3985  0.0019  0.1620
32442W        W32642  10.032   7.293   7.463 -0.0792 -0.3563  0.3466
32443W        W32643  12.561   4.479  18.051 -0.2015 -0.0231  0.0030
32444W        W32644  17.974   7.712   7.090 -0.1425 -0.1275  0.0083
32445W        W32645   8.134  18.178   2.571  0.2097  0.1047  0.0070
32446W        W32646  12.054   4.611   5.700 -0.0317  0.0205  0.1564
32447W        W32647   3.614  13.095  17.862 -0.0760  0.0425 -0.0746
32448W        W32648  11.545   6.413   6.353  0.0174  0.0936 -0.1950
32449W        W32649   2.081   3.385   7.191 -0.1995 -0.2607 -0.1229
32450W        W32650   1.646  16.637   5.641 -0.3537 -0.1600  0.0037
32451W        W32651  13.270   3.146   1.357 -0.1356 -0.0429 -0.1260
32452W        W32652  11.422   7.493   2.572  0.1628 -0.2121 -0.2408
32453W        W32653  11.695   8.897   2.169 -0.0637  0.1481  0.0272
32454W        W32654   9.892  17.216  17.152 -0.2025 -0.0568 -0.1179
32455W        W32655  14.385   8.206  13.199 -0.1209  0.1366 -0.0887
32456W        W32656   4.837   9.057   7.253 -0.2678  0.1181  0.2424
32457W        W32657  17.280   7.836   2.080 -0.2076 -0.0446  0.1014
32458W        W32658   5.633   9.152   8.130  0.1285 -0.0928  0.1543
32459W        W32659  10.690   6.715  15.244  0.0790  0.3825 -0.0980
32460W        W32660  10.004   5.135   5.202  0.0118 -0.1177 -0.2794
32461W        W32661   9.266   4.236  16.311  0.3536  0.1800 -0.0582
32462W        W32662  14.878   0.152   3.086  0.0265  0.1241 -0.2300
32463W        W32663   0.611  17.635   7.496 -0.0289 -0.0215 -0.0747
32464W        W32664  11.161   8.645   4.840  0.1574  0.0717  0.0547
32465W        W32665   9.958   1.267  18.034  0.3826 -0.0091  0.2610
32466W        W32666   7.614   2.429   0.181 -0.0633  0.2134  0.0770
32467W        W32667  11.453   1.933  16.045 -0.1338 -0.0670 -0.2347
32468W        W32668  16.440   9.545   4.181  0.0622  0.2592 -0.0106
32469W        W32669  16.674   7.178   6.561 -0.2736  0.0436  0.1314
32470W        W32670  16.181   8.484   9.555  0.0848 -0.1977  0.1135
32471W        W32671   3.040  17.663   3.370 -0.2783 -0.0713 -0.0124
32472W        W32672  11.161  12.837   9.487 -0.1178  0.1599 -0.2361
32473W        W32673  13.093   3.622  12.110  0.0295  0.1964  0.1328
32474W        W32674   0.273   7.479   0.272 -0.2895 -0.2242  0.1293
32475W        W32675  14.175   3.744   5.167 -0.4393  0.1541  0.1139
32476W        W32676  13.830   7.126   8.628 -0.1239  0.2685  0.3808
32477W        W32677   6.621  10.095   0.912  0.0337 -0.1757 -0.2073
32478W        W32678  13.378   8.125  17.367 -0.3034  0.1632  0.1233
32479W        W32679  10.558   5.438   8.883 -0.3274  0.2093  0.0179
32480W        W32680  10.798   6.330  12.310  0.0885 -0.0448  0.2275
32481W        W32681   8.118   2.036  12.288  0.0035 -0.6026 -0.0753
32482W        W32682   7.148   7.672  17.164 -0.2829 -0.0499 -0.0271
32483W        W32683   2.384   3.373   1.950  0.0396  0.0558  0.0331
32484W        W32684  16.276  16.085  10.331 -0.2274  0.1587  0.0283
32485W        W32685   8.279   8.694  17.170  0.1244  0.0870 -0.0505
32486W        W32686  18.008   7.339   1.750 -0.0933  0.4289 -0.2603
32487W        W32687   3.264   6.041  11.278  0.3612 -0.1400 -0.1978
32488W        W32688   8.385  11.225   7.849 -0.1556  0.0779 -0.2287
32489W        W32689  11.180   7.401   3.606 -0.2526  0.1934  0.1297
32490W        W32690  10.510  12.722   9.968 -0.0141 -0.0354 -0.0732
32491W        W32691  11.471   8.622   0.324 -0.1563  0.0588 -0.0426
32492W        W32692  12.090  11.557   3.839 -0.2842 -0.1201  0.0301
32493W        W32693   3.395   1.155  17.847 -0.1656  0.2049  0.1280
32494W        W32694   8.415   0.050   0.983 -0.3563  0.1264  0.0264
32495W        W32695  15.229   4.229   9.568 -0.0582 -0.0524  0.0120
32496W        W32696  16.803   7.734   6.303 -0.0518 -0.3350  0.2953
32497W        W32697  14.638  16.466  15.598  0.0185  0.1690  0.3916
32498W        W32698  10.938   5.440   1.228 -0.1474 -0.2066 -0.3043
32499W        W32699  11.686   5.282   4.217 -0.0528  0.3068 -0.2967
32500W        W32700  16.994   4.548   7.515 -0.3999 -0.0973 -0.4295
32501W        W32701   9.867  11.855   2.555 -0.2336  0.0930 -0.1236
32502W        W32702  14.762   8.056   4.465  0.2131  0.1317 -0.1573
32503W        W32703   8.390   4.312   7.596 -0.0801 -0.1138  0.0802
32504W        W32704   8.585   2.490   3.794 -0.3129 -0.1675  0.3413
32505W        W32705   2.377   6.250   2.542 -0.0535 -0.1671 -0.1413
32506W        W32706   2.590  10.091   7.596  0.3676  0.0234 -0.0861
32507W        W32707  10.021  16.482   2.857  0.1221 -0.3443  0.1261
32508W        W32708  16.310  14.096   2.330  0.2493  0.0320  0.2530
32509W        W32709  13.546  18.197   0.058 -0.0693 -0.0064  0.1382
32510W        W32710   5.630   4.078  13.261 -0.1413 -0.1147 -0.0179
32511W        W32711  13.545   8.614   5.779  0.0960 -0.2242  0.0563
32512W        W32712  12.256   8.577  11.656  0.1382  0.1465  0.2272
32513W        W32713  18.198   6.717   3.915  0.2413 -0.1601 -0.2373
32514W        W32714  14.143  16.156   9.423  0.0042  0.1105  0.2497
32515W        W32715  14.412   4.345  17.272 -0.3729 -0.2066  0.2679
32516W        W32716   3.001   8.522   0.920 -0.1412 -0.2809 -0.2134
32517W        W32717  13.729   7.039   1.279  0.1652 -0.1332 -0.0227
32518W        W32718   6.015   4.396   1.481 -0.0893  0.3710  0.0344
32519W        W32719   6.009   2.592  16.908  0.2386  0.1692  0.1443
32520W        W32720  16.373   2.421   6.017  0.1736  0.1010 -0.1384
32521W        W32721  15.130   6.378  16.795 -0.0034  0.0588 -0.2989
32522W        W32722   3.036   1.875   7.750  0.0307 -0.0000  0.3910
32523W        W32723  11.199  11.392   6.641  0.1403  0.1625  0.2750
32524W        W32724   9.259   4.215   8.394  0.1541 -0.2618  0.1319
32525W        W32725  12.977  14.365   2.094 -0.0745  0.1037  0.1156
32526W        W32726  17.234  17.422   2.836 -0.1933  0.1128  0.0856
32527W        W32727  15.896   3.453   4.759  0.2798  0.3712 -0.0397
32528W        W32728  16.344   8.459   7.264 -0.0852  0.0358 -0.0095
32529W        W32729  15.151   6.249  16.297 -0.0875 -0.0090  0.0442
32530W        W32730  14.788   7.086  11.209 -0.1000 -0.0544  0.0434
32531W        W32731   0.596  17.413  14.149  0.4277 -0.1123  0.1278
32532W        W32732   1.969  11.810   1.972 -0.0859 -0.2081 -0.1750
32533W        W32733  13.920  17.691   8.087  0.0292  0.0046  0.1638
32534W        W32734   9.283  11.793   4.983 -0.2173 -0.0090  0.1397
32535W        W32735  14.036   4.464  10.241  0.1524  0.1145  0.0476
32536W        W32736   9.684   8.192   6.606 -0.0208  0.1137 -0.1833
32537W        W32737  12.634   5.657   8.526 -0.3908  0.0672  0.1932
32538W        W32738   8.755   2.126   4.700  0.0168 -0.2945 -0.2372
32539W        W32739   9.201  10.893   0.120 -0.0385  0.1177  0.1162
32540W        W32740  12.255   1.088   7.884  0.0639 -0.1207 -0.0027
32541W        W32741  13.041   6.741   8.534  0.0458 -0.0037 -0.3468
32542W        W32742  12.010  17.320   7.404  0.0221 -0.1420  0.1833
32543W        W32743  15.181  11.975  11.705 -0.2499 -0.4279  0.0698
32544W        W32744  13.799   3.311  11.910 -0.3562 -0.2492  0.1856
32545W        W32745   8.145   0.838   3.009 -0.1007  0.0102 -0.1167
32546W        W32746  11.348  13.614   3.215  0.0757 -0.1707  0.0312
32547W        W32747  15.377   2.211   9.577 -0.1481  0.2234  0.2708
32548W        W32748  14.069   2.018   9.423 -0.2098 -0.2259 -0.1270
32549W        W32749  15.162   9.595   8.738 -0.4506  0.4454  0.1454
32550W        W32750  15.222   7.721   5.872 -0.0129 -0.0918 -0.0211
32551W        W32751  13.195  10.016   1.028 -0.1727 -0.0134  0.0114
32552W        W32752  10.798   8.828   9.072 -0.1834  0.0444  0.1420
32553W        W32753  14.590   9.703   3.042 -0.2212  0.0442 -0.0043
32554W        W32754   5.449   2.684   7.356  0.2058  0.1274  0.1201
32555W        W32755   2.867   4.915  10.925 -0.0624  0.0785  0.5591
32556W        W32756   6.384  10.262   3.385 -0.0534 -0.0441  0.0520
32557W        W32757  12.607   0.911   5.003 -0.3749  0.2618  0.1561
32558W        W32758  11.636   5.916  10.352 -0.0322  0.0651 -0.0926
32559W        W32759  17.614   2.506   6.167 -0.1130  0.0776  0.0762
32560W        W32760  16.705   2.529   4.279 -0.3137 -0.1978  0.0955
32561W        W32761   1.386   4.919   7.178 -0.1302  0.2852  0.0932
32562W        W32762  14.426  15.498  12.422 -0.0230 -0.2440  0.0722
32563W        W32763  16.377  16.007   3.834  0.0333 -0.3005  0.0755
32564W        W32764  13.486   1.902  12.155  0.3668  0.3800  0.1525
32565W        W32765  14.154   6.240   1.324  0.1140  0.0222 -0.0928
32566W        W32766  15.472   1.509  13.934 -0.0464 -0.2510  0.2441
32567W        W32767  13.039   6.799   6.636 -0.2300  0.1039 -0.2622
32568W        W32768  12.036   5.691   2.829 -0.1576  0.1184  0.0304
32569W        W32769   5.745   7.317   8.778 -0.0029 -0.3096  0.0587
32570W        W32770  11.628   2.084   0.572 -0.0480  0.0928 -0.1788
32571W        W32771  18.024   1.754   1.172  0.0589  0.0069  0.0363
32572W        W32772  16.560   6.217   6.461  0.2058  0.1576 -0.1134
32573W        W32773  12.494   3.992   3.412 -0.0854  0.2588  0.1178
32574W        W32774  14.545  16.749   6.363 -0.1075  0.1216 -0.2068
32575W        W32775   0.655   5.565   7.953  0.1175  0.2869  0.0502
32576W        W32776   5.681   7.070  11.794 -0.1905  0.0562 -0.5531
32577W        W32777  14.471   6.399   0.415  0.3242  0.0175  0.0509
32578W        W32778  10.232   5.663   5.378  0.4420 -0.3445 -0.0752
32579W        W32779  10.379   2.534   2.045 -0.2152 -0.4069 -0.0444
32580W        W32780   1.758   6.080  13.363  0.0538 -0.2182  0.0850
32581W        W32781  16.630   3.833   5.684 -0.2831 -0.3642  0.1383
32582W        W32782   0.254  10.200   8.244  0.1766 -0.0457  0.0401
32583W        W32783   9.777   5.508  17.378  0.3177  0.1206  0.0513
32584W        W32784  12.687  17.253   8.228  0.0204 -0.2532 -0.3583
32585W        W32785  13.899  11.153   5.529 -0.0089  0.2326  0.3054
32586W        W32786  10.536  16.199   7.644  0.0787  0.0937 -0.1137
32587W        W32787  12.986   2.322   3.302 -0.3115  0.0071 -0.0359
32588W        W32788  16.919   2.142   6.768 -0.0059  0.0114  0.0951
32589W        W32789  10.782   4.731  11.593  0.1924 -0.1001 -0.0320
32590W        W32790   5.663  10.971   7.219  0.2040 -0.1194  0.2315
32591W        W32791   8.184  12.438  10.644  0.1910  0.2661  0.2182
32592W        W32792   6.629   4.726  10.552 -0.3501 -0.2388 -0.3064
32593W        W32793   0.713   0.988   7.169  0.4334 -0.2901  0.1099
32594W        W32794  15.128   5.465  12.510  0.1033  0.4228 -0.2904
32595W        W32795   2.505   8.630  17.362 -0.3351 -0.0721  0.1081
32596W        W32796  13.579   3.011  17.640 -0.2954 -0.0921 -0.0647
32597W        W32797  12.904   2.467   5.101  0.1324  0.1437 -0.0397
32598W        W32798   3.068   3.696  11.414  0.1138  0.2303  0.0335
32599W        W32799   9.699   3.596   5.636  0.0406 -0.0380 -0.0562
32600W        W32800  13.850   0.999   7.907  0.3104  0.0502 -0.1019
32601W        W32801  14.956   5.984   5.350 -0.1936  0.1673  0.1304
32602W        W32802  12.111   7.732  11.554  0.0176 -0.2115 -0.1766
32603W        W32803  11.682  14.737   9.354 -0.0453  0.0115  0.2176
32604W        W32804   0.276   4.935   4.800  0.0974 -0.2555  0.1299
32605W        W32805  13.327   7.468  14.204  0.0725  0.1829 -0.0885
32606W        W32806  12.994  12.715  13.118 -0.0572  0.1327  0.0887
32607W        W32807   1.766   4.794   9.847 -0.0467 -0.0900 -0.2132
32608W        W32808  12.305  13.382  13.284  0.0900  0.2122 -0.1963
32609W        W32809  17.132  16.576   6.358 -0.0286 -0.0456  0.2635
32610W        W32810   8.418  11.055  15.833 -0.0038  0.1222 -0.1452
32611W        W32811  15.240  15.925  17.385  0.2158 -0.0949 -0.2490
32612W        W32812   1.815   6.824   5.380  0.2371  0.3590 -0.0645
32613W        W32813  11.113  17.622  12.236 -0.2359  0.1782 -0.2070
32614W        W32814  15.233   3.853   2.763  0.0473  0.0146  0.1988
32615W        W32815   0.167   1.054  14.635 -0.0162 -0.3410  0.0703
32616W        W32816   7.838   1.989   7.204  0.2397  0.1113  0.1057
32617W        W32817   8.617  12.542   7.892 -0.1688 -0.2545 -0.1537
32618W        W32818  14.939  14.451  11.603  0.0251 -0.1351 -0.1657
32619W        W32819   5.854   6.034   7.485  0.0988  0.0054 -0.4625
32620W        W32820  17.262   9.655   5.827  0.1096 -0.1409 -0.1975
32621W        W32821  10.905   9.480   9.113  0.3085  0.0066 -0.0968
32622W        W32822  12.439   7.651   0.158 -0.1964  0.0134  0.0531
32623W        W32823  16.873  14.061   7.515  0.1081  0.0013  0.1683
32624W        W32824   5.586  17.069   2.780 -0.1827  0.1183  0.1456
32625W        W32825  12.553   2.860   4.711 -0.0253 -0.0847  0.2969
32626W        W32826  14.561   6.550   4.549 -0.4454 -0.3117  0.0935
32627W        W32827  13.754   1.434   7.583  0.1129  0.2480  0.0761
32628W        W32828   2.315   6.624  10.915 -0.2858  0.1764 -0.0878
32629W        W32829  15.844  14.972  11.444 -0.0972  0.1334  0.2464
32630W        W32830  13.735   3.321  18.100  0.0882 -0.0660 -0.1113
32631W        W32831  12.120  17.917  14.389  0.1452  0.3544  0.0149
32632W        W32832  15.409   7.679   7.854  0.1221 -0.2343  0.0166
32633W        W32833  16.225   6.972   3.910 -0.0437 -0.0762  0.0562
32634W        W32834   0.780   3.308   1.436 -0.1895  0.1412 -0.0268
32635W        W32835  14.765  14.563   8.626  0.0074 -0.2839 -0.0685
32636W        W32836  14.193   8.134   8.407 -0.0454 -0.2300 -0.4442
32637W        W32837   5.138  14.961   2.628 -0.1431  0.1557  0.0127
32638W        W32838  13.941  11.142   6.879  0.0228  0.1875 -0.1465
32639W        W32839  14.987   7.462   6.235 -0.0637  0.1556  0.0698
32640W        W32840  14.344   3.319  14.305 -0.1157  0.1718 -0.0021
32641W        W32841   6.212   7.355   3.934 -0.0390 -0.1157 -0.1734
32642W        W32842   2.539  10.439  17.281  0.0421  0.0405  0.0146
32643W        W32843   7.339   1.219  16.194  0.0513 -0.1534  0.2331
32644W        W32844  12.338  12.042   4.757  0.2434  0.2655 -0.0299
32645W        W32845  14.108   8.354   3.117  0.2000 -0.0712 -0.2641
32646W        W32846  12.894   7.904  18.188 -0.3472  0.1434 -0.1582
32647W        W32847   1.164   8.316   8.415 -0.0023  0.0095 -0.0856
32648W        W32848   4.006   5.709  16.528  0.0283  0.3033  0.0229
32649W        W32849  11.634   8.936   7.408  0.1722  0.2081  0.4641
32650W        W32850  13.579   7.828  15.070  0.4248 -0.0256  0.2135
32651W        W32851   5.324   7.630  13.546 -0.0046 -0.0293 -0.2969
32652W        W32852  15.808  14.978   5.006  0.0626 -0.0725  0.0771
32653W        W32853  17.857   8.100   4.904  0.0342 -0.4856  0.4052
32654W        W32854   2.157   8.184   0.996  0.2035  0.4605  0.1167
32655W        W32855  13.062  14.776  10.339 -0.1583 -0.0270 -0.1084
32656W        W32856  10.965   6.481   0.498 -0.0277  0.3481 -0.1486
32657W        W32857  11.683   5.465   8.261 -0.2102 -0.1607 -0.0500
32658W        W32858  17.606   5.180   9.397 -0.0357  0.1333  0.0151
32659W        W32859   4.580  16.068  11.421  0.0783 -0.3082 -0.1039
32660W        W32860  11.886   9.889   1.057 -0.1089  0.1215  0.3264
32661W        W32861   7.591  13.079   6.674 -0.0400 -0.0878  0.2771
32662W        W32862   4.150  10.368   8.613 -0.0588 -0.1208  0.0914
32663W        W32863  17.034  15.527  10.442  0.2717 -0.1449 -0.5059
32664W        W32864  10.330  11.610   6.043  0.1564  0.0238  0.0106
32665W        W32865  17.491   6.841   9.770  0.2048  0.0804 -0.0307
32666W        W32866  16.446   2.536  15.528 -0.1597 -0.1851 -0.1062
32667W        W32867   0.517   6.786   9.023 -0.2240  0.2317 -0.0126
32668W        W32868   4.980   4.723   5.219 -0.3996 -0.0800 -0.1092
32669W        W32869   0.026   7.224   3.882 -0.1296 -0.2649  0.1223
32670W        W32870  12.742  13.329   2.794  0.3705  0.0958  0.0826
32671W        W32871   8.573   9.717   6.820 -0.1232 -0.0563 -0.2624
32672W        W32872   3.605   6.492   4.293 -0.1808  0.1066 -0.0914
32673W        W32873  11.834   7.871   0.692  0.0089  0.2456  0.0509
32674W        W32874  15.991   3.055   6.622 -0.0105 -0.2478  0.2197
32675W        W32875   0.364   4.282   2.499  0.0389 -0.0317  0.0793
32676W        W32876   7.520   2.298   7.990  0.0482  0.0750 -0.1119
32677W        W32877   9.157   5.808   3.321  0.1225 -0.2179  0.0025
32678W        W32878  11.424   7.484   7.004  0.0125 -0.0123 -0.1329
32679W        W32879  14.138   0.505   7.177 -0.0040  0.3670  0.0875
32680W        W32880   5.708  13.744  10.484 -0.0983 -0.1643 -0.2917
32681W        W32881   1.224   1.133   4.701 -0.0876  0.0842  0.0435
32682W        W32882  10.151   9.272  16.331  0.0864 -0.5330 -0.0959
32683W        W32883   4.517   2.379  13.731  0.2500 -0.0670  0.0755
32684W        W32884  10.074   4.364   0.835  0.0416  0.0597  0.1793
32685W        W32885   2.155   2.349   4.476 -0.2360  0.0153 -0.2608
32686W        W32886   6.336  16.266   1.291 -0.0227 -0.2629  0.0351
32687W        W32887  16.212   3.048   1.375  0.0043 -0.1672  0.0871
32688W        W32888  12.872  15.781   1.174  0.0138 -0.3677  0.2756
32689W        W32889   6.834  15.110   1.948  0.1965 -0.1511  0.1051
32690W        W32890  13.585   6.929  10.456  0.0028  0.0620 -0.0551
32691W        W32891  16.598   2.779   1.941  0.3659  0.1867  0.0805
32692W        W32892  11.028  13.208   6.862 -0.1889 -0.1505  0.1585
32693W        W32893  10.075   4.153  15.946 -0.1641 -0.1366  0.1162
32694W        W32894  14.864   6.871   0.635 -0.3144  0.0005 -0.0738
32695W        W32895  15.782   6.249   3.427 -0.0748  0.0905 -0.0364
32696W        W32896   5.683  17.087  13.420 -0.1423  0.0113  0.1510
32697W        W32897  15.918   4.539   0.082  0.0879  0.0654 -0.0558
32698W        W32898   1.375   5.707  18.083 -0.0738  0.2725 -0.1470
32699W        W32899  10.025   4.842   6.877  0.0510  0.0357 -0.0544
32700W        W32900  11.973   4.374  12.252  0.0322  0.1760 -0.1664
32701W        W32901   1.566   6.282   4.984 -0.1890  0.1614  0.0892
32702W        W32902   8.677   8.131  10.304  0.1458 -0.0642  0.1581
32703W        W32903  17.408   5.195   0.793  0.1089  0.1251  0.0398
32704W        W32904  17.122   9.057   6.410  0.0458  0.2582 -0.2166
32705W        W32905   7.633   7.023   2.597 -0.2283 -0.2653 -0.1531
32706W        W32906  12.307   6.121   4.666 -0.1765  0.0112  0.0368
32707W        W32907   3.121   2.229   5.799 -0.1573  0.1948  0.0081
32708W        W32908  14.821  17.596   7.691  0.0752  0.0980 -0.6162
32709W        W32909  10.627   8.019   4.185 -0.3785  0.1731  0.0134
32710W        W32910   9.393   7.488  10.419  0.0047 -0.2608  0.1079
32711W        W32911   9.153  12.817  10.665  0.1903 -0.2469  0.1792
32712W        W32912  15.476  16.915   3.472 -0.1558 -0.1880  0.3428
32713W        W32913   5.064   0.737   7.792  0.0048  0.0433 -0.1086
32714W        W32914  17.945   0.619  17.900  0.0528  0.0245  0.0783
32715W        W32915  14.110   9.686   7.381 -0.0237  0.0054 -0.1968
32716W        W32916  11.887   4.752  12.935 -0.1884 -0.2581  0.0157
32717W        W32917  14.168  16.112   4.497  0.0745  0.0661  0.0631
32718W        W32918  10.664   6.637   2.787 -0.0191  0.1593 -0.0903
32719W        W32919   9.237   4.808  14.926 -0.2703  0.1387  0.1043
32720W        W32920  11.311   5.984   5.530  0.0626  0.3348 -0.4484
32721W        W32921  13.525   9.372   3.318 -0.2897  0.2219 -0.2437
32722W        W32922   5.887   5.093  13.033  0.0222  0.5281  0.0660
32723W        W32923  15.222  10.224   1.073 -0.1991 -0.0393 -0.1749
32724W        W32924   5.849   6.092   6.851 -0.0601 -0.0838 -0.1023
32725W        W32925  14.030   2.676  11.397 -0.2267 -0.1053  0.3193
32726W        W32926  10.400   2.864   5.661 -0.2227  0.2169 -0.1765
32727W        W32927  17.855  14.446   8.629  0.1116 -0.1869 -0.2267
32728W        W32928  17.033   5.634   3.324 -0.0396  0.0879  0.2389
32729W        W32929  13.527  12.067  10.020 -0.0621  0.2849  0.3346
32730W        W32930   8.790   5.615   6.453 -0.1577 -0.0821 -0.4237
32731W        W32931  14.323   5.754   1.877 -0.0966  0.2699 -0.0893
32732W        W32932   8.033  17.711  14.318 -0.0212 -0.0280  0.2117
32733W        W32933   8.887  16.439   8.031  0.0811 -0.1865 -0.0638
32734W        W32934   3.058   2.970   5.390 -0.3855 -0.1131 -0.0307
32735W        W32935  13.287   9.446   9.481  0.1897  0.1323  0.0383
32736W        W32936  13.708   7.300   7.527 -0.1075 -0.2071 -0.4717
32737W        W32937  14.382   6.869   8.020 -0.0485 -0.0248 -0.2130
32738W        W32938   9.808   4.498   5.525 -0.2453  0.1675  0.0181
32739W        W32939   8.272   3.149  11.319 -0.1697  0.2351  0.4383
32740W        W32940   8.562  17.059   6.894  0.0386  0.0641  0.2562
32741W        W32941  10.544   7.060  10.483  0.0623 -0.2469 -0.1101
32742W        W32942   5.858  17.340   7.975  0.4848 -0.2086  0.1405
32743W        W32943  15.347  13.305   7.350  0.1035  0.1615 -0.0342
32744W        W32944  12.131   8.431   5.451 -0.1027  0.2466 -0.3366
32745W        W32945  12.415   6.033   1.663 -0.3648  0.1065  0.1766
32746W        W32946  14.389   9.265  18.178 -0.1042 -0.2363 -0.1567
32747W        W32947  13.646   5.884  18.105 -0.2060  0.2101 -0.0400
32748W        W32948   7.730   4.976   6.499  0.1723 -0.0891 -0.0883
32749W        W32949   7.501  11.763   5.274  0.0962  0.0389  0.0376
32750W        W32950  14.477   1.958  16.443  0.0105 -0.0925  0.0445
32751W        W32951  17.108   6.139   2.171  0.1457  0.1191 -0.1032
32752W        W32952   0.584  13.361   4.235 -0.0284  0.1967  0.0139
32753W        W32953   0.118   2.435   7.298  0.3216  0.1906  0.3417
32754W        W32954  13.717  17.255  16.740  0.0022  0.1998 -0.1459
32755W        W32955   4.611   7.154  12.468  0.0253  0.2250 -0.0486
32756W        W32956  11.671   2.799   9.758  0.0880 -0.3492 -0.2210
32757W        W32957  16.087   3.095  13.323  0.0844 -0.1620 -0.0672
32758W        W32958  16.168  17.719   2.688 -0.0146  0.3297  0.1079
32759W        W32959   2.121   6.039   8.193  0.1117 -0.0882 -0.1590
32760W        W32960  13.732   5.655  10.569 -0.2677 -0.0398  0.2879
32761W        W32961  13.661   5.225  12.882  0.0028 -0.1332  0.0153
32762W        W32962   3.218   8.175   8.074 -0.0562  0.0264 -0.1113
32763W        W32963  13.678   2.926   5.443  0.0262 -0.1181  0.0929
32764W        W32964  11.497   3.115  11.801  0.0739 -0.1184  0.3078
32765W        W32965   2.047  10.905  14.813 -0.1007 -0.2133  0.0869
32766W        W32966  14.299  16.867   8.710  0.0018 -0.1411 -0.1622
32767W        W32967  12.572  11.087   3.067 -0.2805 -0.0586 -0.0098
32768W        W32968  15.626  15.424  16.382  0.0738 -0.0250  0.2912
32769W        W32969  15.302   4.938  11.196  0.0974  0.2409  0.0069
32770W        W32970   5.663   1.814  10.435  0.1595 -0.1922 -0.2793
32771W        W32971  10.183   1.158   1.685 -0.1804 -0.2373  0.1570
32772W        W32972   0.627   1.119   4.672 -0.0287 -0.0477 -0.1526
32773W        W32973   0.729   3.768  12.377 -0.0290 -0.2366 -0.4074
32774W        W32974  16.166   7.106  10.482  0.1519 -0.2066  0.0267
32775W        W32975   6.129   4.750   2.750  0.0221  0.0572  0.0332
32776W        W32976  10.266   4.267   9.671  0.1174 -0.1732 -0.1025
32777W        W32977  14.932   7.957   9.655  0.0399 -0.2081 -0.0065
32778W        W32978   1.012   4.064   3.009 -0.1395 -0.1413  0.0044
32779W        W32979  13.777   2.011   1.972  0.3037  0.0459 -0.0393
32780W        W32980   8.528   3.709   4.010  0.1213  0.0323  0.2839
32781W        W32981  15.598   1.060   8.234 -0.1185  0.1853  0.1845
32782W        W32982   7.132   7.006  13.675 -0.0633 -0.0796  0.3311
32783W        W32983  17.145   2.739  14.715 -0.0742 -0.0055  0.2445
32784W        W32984  14.285   8.577  12.766  0.1323  0.0915 -0.0195
32785W        W32985   6.424   6.848   5.870 -0.2685  0.1100  0.1200
32786W        W32986  17.947   3.049   6.478  0.0148 -0.4670 -0.3788
32787W        W32987  12.400   6.826   6.015 -0.2318 -0.1172 -0.2166
32788W        W32988  11.905   5.553   0.551  0.4815  0.1649 -0.1883
32789W        W32989   9.081   4.350  11.352  0.5434  0.2092  0.0263
32790W        W32990  17.590   3.018   0.437  0.4003  0.3908  0.1177
32791W        W32991  10.242   7.336  12.250  0.2436  0.2105 -0.3456
32792W        W32992  11.116  16.161  17.900  0.4420  0.0253  0.1807
32793W        W32993  11.642   4.102   1.689 -0.0687 -0.1835 -0.4786
32794W        W32994  14.497   2.000   7.640  0.0211  0.1530  0.3404
32795W        W32995  14.524   0.834   9.187 -0.1298 -0.1365 -0.0355
32796W        W32996   5.742   5.373   4.225  0.1761 -0.3159 -0.1274
32797W        W32997  18.099   4.498  10.611 -0.3181 -0.2051  0.0171
32798W        W32998  12.210   5.151   2.108  0.0016 -0.1272  0.2102
32799W        W32999  14.143   2.894   1.718 -0.2012  0.1904 -0.0030
32800W        W33000  11.347   9.610   8.106  0.0843 -0.1901 -0.1057
32801W        W33001   3.491   3.384  11.545  0.0123 -0.1574  0.0658
32802W        W33002  17.846   8.877   0.189  0.1517 -0.4012 -0.1928
32803W        W33003  11.529   6.230   1.416  0.3975  0.0869  0.1893
32804W        W33004  16.744   1.982  13.418  0.1778 -0.1007 -0.1037
32805W        W33005   3.126   1.838  15.009 -0.1222  0.0029  0.1024
32806W        W33006  13.240   5.910  12.509  0.3417 -0.0307 -0.2073
32807W        W33007  12.785  14.729  12.224 -0.2511  0.0748  0.1215
32808W        W33008   2.150   7.664  17.298  0.0049 -0.1359 -0.1771
32809W        W33009  13.648  13.938  10.302 -0.0839  0.3577 -0.0556
32810W        W33010   0.209  16.431   7.045 -0.0215  0.1404 -0.2265
32811W        W33011  10.382   1.091   2.577 -0.0796 -0.3533 -0.1950
32812W        W33012  12.865   6.439   5.980 -0.1420 -0.2689 -0.2765
32813W        W33013  15.007  10.199  12.456  0.0366 -0.2208 -0.1406
32814W        W33014  15.931   0.702   8.644  0.2032  0.0637 -0.0006
32815W        W33015  10.223  16.049   9.871 -0.1639  0.0563 -0.2245
32816W        W33016  11.838   3.673  13.268  0.0493 -0.0359  0.0253
32817W        W33017   5.241   5.862  13.560 -0.1584 -0.2102  0.2453
32818W        W33018  16.937  17.297  13.548 -0.0984  0.1902 -0.3610
32819W        W33019  10.347   8.647   4.518  0.0165 -0.2574  0.1501
32820W        W33020   6.706   1.999   7.601  0.0981  0.4459 -0.0881
32821W        W33021  12.719  16.992  14.369  0.0560  0.1978 -0.1703
32822W        W33022  10.024   3.883  12.668 -0.0882  0.1859 -0.0721
32823W        W33023  12.870   5.581  13.196 -0.1688  0.0390  0.1822
32824W        W33024  12.376   0.904   4.419  0.2640  0.4330  0.1428
32825W        W33025  17.609  10.070   2.053 -0.0695 -0.0775 -0.0904
32826W        W33026  13.379   8.037  12.536 -0.1062 -0.1485  0.1429
32827W        W33027  13.664  10.054  10.489  0.1212  0.0157  0.1742
32828W        W33028  17.576  16.204  11.248  0.0922  0.0512 -0.2438
32829W        W33029   0.190   1.929   5.078  0.3708 -0.0703  0.1326
32830W        W33030   1.576  17.713   8.153 -0.2101 -0.1583  0.0703
32831W        W33031   7.762   2.138   9.718  0.2503 -0.2278 -0.2414
32832W        W33032  13.272   2.773  12.398  0.0080 -0.0559  0.0188
32833W        W33033   9.214   7.556  13.251 -0.0679 -0.1360 -0.0586
32834W        W33034  10.879  14.657  17.190 -0.0552 -0.2015  0.1456
32835W        W33035  16.299   0.371  10.005 -0.0627  0.0094 -0.1426
32836W        W33036  15.276  10.590   9.855  0.1604  0.1693  0.3892
32837W        W33037   1.708   4.889  11.340  0.0671  0.2092  0.0701
32838W        W33038  13.347  12.731  12.293 -0.0350 -0.3483  0.1217
32839W        W33039  15.009  17.876  16.306  0.0219  0.0005 -0.2380
32840W        W33040  12.599   8.231  11.981 -0.1625 -0.1515 -0.1761
32841W        W33041  13.787  12.911  10.530  0.0018  0.2231  0.0942
32842W        W33042  16.808   8.136   9.153  0.2469 -0.1669 -0.3845
32843W        W33043  12.545  16.009  11.606 -0.4807 -0.0878  0.0981
32844W        W33044  10.735  10.334   5.948 -0.2408  0.0040  0.0143
32845W        W33045   2.304  11.578   5.809  0.1818 -0.1483  0.0759
32846W        W33046  12.586   4.443  14.818  0.0471  0.0911 -0.0254
32847W        W33047   3.866   0.117   9.617  0.2367  0.1562  0.0835
32848W        W33048  16.058   4.776   4.545 -0.0516 -0.1506  0.0611
32849W        W33049  12.719   3.858  14.835  0.0393 -0.1812  0.0330
32850W        W33050  11.693  11.664  15.425 -0.0383 -0.3467  0.2719
32851W        W33051   0.771   6.495   8.288  0.0872 -0.1636  0.0082
32852W        W33052   9.353  12.231  12.575 -0.0506 -0.0820 -0.2885
32853W        W33053  12.829   0.879  11.526 -0.0169  0.0455 -0.0196
32854W        W33054  14.766   7.552  11.964 -0.3263 -0.1876  0.0457
32855W        W33055  16.853  14.233  11.725  0.2689 -0.0521  0.1788
32856W        W33056  15.992   8.986  12.531  0.1276 -0.0199 -0.0589
32857W        W33057   6.994   8.183   5.994  0.3045 -0.0836  0.0164
32858W        W33058  12.004  10.673  10.650  0.0159  0.0186 -0.1232
32859W        W33059  11.335   9.839  16.904 -0.0781 -0.2455 -0.0413
32860W        W33060  14.832   3.197   6.640 -0.2232  0.1131  0.0023
32861W        W33061  10.448  13.483  10.590  0.0348 -0.0565  0.2235
32862W        W33062  15.716  12.063   4.793  0.2872  0.0593 -0.1679
32863W        W33063  16.325  12.236  15.631 -0.2335  0.2150 -0.1550
32864W        W33064  13.416   5.991   8.024  0.0557  0.2436  0.0136
32865W        W33065   5.144  15.379   1.112 -0.0942  0.1833  0.1229
32866W        W33066  16.180   0.965  12.401 -0.2167 -0.0092  0.0258
32867W        W33067  11.563   3.335   1.029  0.0755  0.0152  0.1844
32868W        W33068   4.289   7.701   1.852 -0.1774 -0.2515  0.1810
32869W        W33069   5.787   8.563   9.456  0.0985 -0.2730 -0.0762
32870W        W33070  12.795  15.635  13.516  0.2986 -0.0148 -0.0050
32871W        W33071  11.733   1.270  10.827  0.0166 -0.1549  0.0489
32872W        W33072   5.525  16.607   5.082 -0.0024  0.0641 -0.0338
32873W        W33073   9.445  11.000   5.118  0.0441  0.0854  0.0296
32874W        W33074   9.571  16.290   5.461 -0.3414 -0.2407  0.1479
32875W        W33075   5.366  15.676  13.213 -0.0864 -0.1805 -0.1105
32876W        W33076  17.401  12.672  10.306 -0.1338  0.2841 -0.0155
32877W        W33077   6.711   5.296  15.750 -0.1682 -0.0064 -0.4140
32878W        W33078   8.538   8.415   8.194  0.0102  0.3503  0.0203
32879W        W33079  16.807   7.240  17.795  0.0582 -0.0597  0.0730
32880W        W33080  12.626   4.692  11.725  0.2889 -0.2549  0.0186
32881W        W33081   4.820   2.190  12.932  0.2130 -0.2422  0.1331
32882W        W33082  10.806   7.949  11.408  0.0983  0.1957 -0.2019
32883W        W33083  15.855  18.093   9.474  0.0046 -0.1235  0.1209
32884W        W33084  14.627   2.624   7.913  0.2794 -0.1250  0.0268
32885W        W33085   8.265   2.526  12.089  0.0906 -0.0212 -0.2112
32886W        W33086  11.166   1.772   9.817 -0.0198 -0.3512  0.1811
32887W        W33087  14.341  10.825   9.790  0.1841 -0.1405  0.0765
32888W        W33088   1.230   3.518   6.548 -0.0624  0.2487  0.1567
32889W        W33089  16.627   5.658   8.394  0.2266  0.1120  0.2435
32890W        W33090  10.464   9.657   7.292  0.1615 -0.0322 -0.4820
32891W        W33091  14.433   7.378   5.543  0.1657  0.0855 -0.1927
32892W        W33092   9.477  11.852  10.856 -0.1151 -0.0265 -0.0209
32893W        W33093  12.354   3.983  15.437  0.1390  0.1833 -0.1411
32894W        W33094   7.685  13.903  14.538  0.5436 -0.5064 -0.2397
32895W        W33095  12.120  11.253   9.124 -0.0094  0.0893 -0.1794
32896W        W33096  17.312   5.285   7.577 -0.1425 -0.0544 -0.4353
32897W        W33097  12.522   2.093  14.281 -0.0292  0.0863 -0.2469
32898W        W33098   1.227   7.573   5.902 -0.0008 -0.0200  0.2970
32899W        W33099  12.097   1.838  11.092  0.1168 -0.2869  0.0155
32900W        W33100   3.431   5.141   5.079 -0.0850  0.4223 -0.0438
32901W        W33101  16.799   2.615   7.545 -0.1119 -0.1520  0.0769
32902W        W33102  12.925  17.358   9.078 -0.1457 -0.1618 -0.0659
32903W        W33103  16.421   3.815   9.235 -0.0666  0.0276 -0.1300
32904W        W33104   0.382   3.247  13.243 -0.0655  0.0666 -0.1291
32905W        W33105  11.243   6.672  12.860 -0.0514  0.0434  0.1139
32906W        W33106   1.833  15.303   7.577  0.0333  0.0426 -0.1837
32907W        W33107  13.909   7.273  17.630 -0.1702 -0.1400 -0.2746
32908W        W33108   1.930   4.498  15.917  0.0781  0.1731  0.1401
32909W        W33109  10.504   2.866  13.922  0.3476  0.0823 -0.1756
32910W        W33110  14.479  17.794   8.225  0.0356  0.2363  0.0691
32911W        W33111  12.237   3.828  12.978  0.0828  0.1469 -0.0454
32912W        W33112   5.932   3.622  10.452 -0.2681  0.1160 -0.2151
32913W        W33113  11.652   7.576  11.255  0.1849  0.1565  0.1639
32914W        W33114   4.512  17.553  13.433  0.0395  0.1422 -0.0203
32915W        W33115  10.730   7.046   3.591  0.1235  0.1339 -0.1625
32916W        W33116   2.757  17.491   4.960  0.0065 -0.2762 -0.0882
32917W        W33117   3.909  13.026  10.510  0.2591 -0.1276  0.0449
32918W        W33118  13.750  14.046   9.132  0.1319 -0.0247  0.2000
32919W        W33119  13.531   4.945   9.495  0.0623 -0.1593 -0.4188
32920W        W33120  12.171   5.041  11.447  0.4334  0.1718  0.1063
32921W        W33121  14.523  17.118   7.670 -0.0293  0.1771  0.2356
32922W        W33122  15.481   7.130   3.968 -0.1301 -0.0763  0.1545
32923W        W33123  17.051  10.296  11.844  0.0713 -0.3738 -0.1526
32924W        W33124   6.601   0.977   9.521 -0.0832  0.0081  0.2293
32925W        W33125  14.917   7.703   7.700  0.1684 -0.0170  0.4807
32926W        W33126  17.096   7.844   5.847  0.0092  0.2927  0.0675
32927W        W33127  10.538   0.323  14.826 -0.0197 -0.1654  0.0192
32928W        W33128   2.734  12.135  12.019 -0.2831 -0.1516  0.1273
32929W        W33129   1.100   8.196   0.547 -0.1279  0.3904  0.3210
32930W        W33130  15.647   8.542   9.417  0.1621 -0.0178 -0.1213
32931W        W33131   8.792   9.608   8.447 -0.4177  0.0087 -0.0155
32932W        W33132  13.284   0.802   4.414 -0.0041  0.0354  0.1070
32933W        W33133   9.833   0.112   0.480 -0.0374 -0.0413 -0.2118
32934W        W33134  10.716  18.051  13.490  0.0091 -0.1578 -0.0798
32935W        W33135   8.451   4.815   5.098 -0.1681 -0.0650  0.0680
32936W        W33136  17.787  15.308  17.491  0.0194 -0.0366 -0.2517
32937W        W33137  17.347  11.533   5.004  0.1499  0.1434 -0.0542
32938W        W33138   0.625   5.717  14.118  0.1708 -0.1561 -0.1610
32939W        W33139  16.777  17.284   6.073  0.1102 -0.0764 -0.1917
32940W        W33140  13.280  18.104   7.399  0.0606  0.1427 -0.3162
32941W        W33141  15.305   4.723   9.590  0.0484  0.1811  0.2611
32942W        W33142  10.803  15.206  14.008 -0.2010 -0.0586  0.5017
32943W        W33143  16.003   2.590  15.762 -0.0458 -0.1241 -0.2005
32944W        W33144   9.226   2.590   6.440 -0.1052 -0.1568  0.3156
32945W        W33145   8.460   6.936  13.680  0.0811 -0.0870 -0.4484
32946W        W33146   3.926   4.764  14.199 -0.2849 -0.3196  0.2658
32947W        W33147  11.981   7.474  12.748 -0.3874 -0.1010 -0.1826
32948W        W33148   9.345  15.600   4.898 -0.0880 -0.0777  0.1271
32949W        W33149  14.861  15.280  10.403 -0.0413  0.0997  0.2235
32950W        W33150  15.697   7.637   5.603  0.3842  0.3004  0.0780
32951W        W33151   2.071   0.305   5.323  0.0790 -0.2737 -0.0706
32952W        W33152   1.827   2.782   4.903 -0.0315 -0.1016 -0.0852
32953W        W33153  16.924  16.906  17.268  0.0369 -0.1270 -0.0761
32954W        W33154  15.728   3.528  18.080 -0.0422 -0.1502 -0.3460
32955W        W33155  10.354   5.880  10.540  0.1109  0.1469 -0.0150
32956W        W33156   3.540  10.936  15.538  0.3872 -0.0283 -0.4400
32957W        W33157   0.906  13.328   3.577 -0.1969  0.1927 -0.0484
32958W        W33158  15.155  10.734   1.314 -0.1980 -0.3030  0.1635
32959W        W33159  10.276   6.889  10.089 -0.1415 -0.1505  0.1927
32960W        W33160   1.391   2.333  18.109  0.2874 -0.2547 -0.3371
32961W        W33161   0.431  14.502  15.220  0.0177  0.2367 -0.0880
32962W        W33162  13.764  16.886  14.397  0.0608 -0.2617  0.1649
32963W        W33163  10.760  17.751   1.179 -0.0265  0.4819 -0.0779
32964W        W33164   0.473  17.182   9.967  0.1108 -0.1349 -0.0421
32965W        W33165  14.563  15.662  11.352  0.4942 -0.1124 -0.0032
32966W        W33166  11.924   3.186   8.357 -0.4080  0.2746  0.1278
32967W        W33167   6.279   9.144   9.762 -0.2553  0.1739 -0.0516
32968W        W33168  15.224   5.508  11.126 -0.2089  0.2146  0.1655
32969W        W33169   8.468  12.824  14.486 -0.2588 -0.0406 -0.1835
32970W        W33170   9.451   7.641  11.780 -0.0602  0.1471 -0.2260
32971W        W33171  15.404   8.801   7.309  0.2582 -0.3923 -0.4798
32972W        W33172  15.929   4.479   7.651  0.0490 -0.0596  0.0292
32973W        W33173  10.987  16.243   3.940 -0.1797  0.1017  0.2260
32974W        W33174   1.880   0.354   5.837  0.1355  0.0034 -0.1189
32975W        W33175   9.544   9.926   7.735  0.1621 -0.0058  0.0053
32976W        W33176   8.955   7.450  13.847  0.0119  0.1072 -0.2691
32977W        W33177   0.100   7.382   7.802  0.1034  0.0234  0.0532
32978W        W33178  14.000  15.895   8.201  0.2078 -0.2230  0.1382
32979W        W33179  18.115   9.879   7.431  0.0682  0.1415 -0.0776
32980W        W33180  16.109   5.973  11.219 -0.0029 -0.1354  0.1622
32981W        W33181  10.072  12.883  13.216 -0.0208 -0.1013 -0.0470
32982W        W33182  11.053   8.065   7.224  0.1693  0.1878  0.1371
32983W        W33183   7.871   4.327  15.675 -0.0205 -0.1625 -0.1106
32984W        W33184  16.261  17.424   7.031 -0.1473  0.1756 -0.0207
32985W        W33185  17.828  13.397  10.431 -0.2931 -0.0058  0.0159
32986W        W33186   9.757   6.467   8.722 -0.0902 -0.2360 -0.0395
32987W        W33187  11.561   8.141   7.792 -0.4752 -0.2447 -0.0408
32988W        W33188   9.611   4.459   8.768 -0.2504 -0.3506  0.2374
32989W        W33189  10.151  14.359   4.299  0.0604  0.1974  0.2043
32990W        W33190  16.952   7.929  10.678  0.3009 -0.1799  0.1328
32991W        W33191  13.218   4.520  11.555 -0.1880  0.0046  0.4080
32992W        W33192   6.449   9.922   9.657  0.1564 -0.1556  0.3929
32993W        W33193   4.347   8.622   9.049 -0.2870 -0.3294  0.3024
32994W        W33194  11.365   0.012  11.639  0.0480  0.2038  0.0878
32995W        W33195   8.561   1.387   6.002 -0.1000 -0.0975 -0.2160
32996W        W33196  15.240  13.864   4.461 -0.2460  0.2572  0.0778
32997W        W33197   0.960   1.384   9.704 -0.3891  0.0741  0.1942
32998W        W33198  12.218  17.242   3.823  0.0954  0.0148  0.0562
32999W        W33199  16.175   6.648   4.638  0.3603  0.0265 -0.3620
33000W        W33200   2.449   4.152   8.871  0.1249  0.1066  0.0969
33001W        W33201   1.901   7.255  14.538 -0.0708  0.0904  0.2550
33002W        W33202  10.271   9.347   6.985 -0.1127  0.0366 -0.3569
33003W        W33203  11.324   6.786  10.721 -0.1506 -0.0593  0.3340
33004W        W33204  15.202   7.492   8.886 -0.2312 -0.3436  0.0451
33005W        W33205  13.357  14.130  17.844 -0.0900 -0.1982  0.0154
33006W        W33206  10.808   5.619   6.302 -0.1816  0.2370  0.1024
33007W        W33207   3.812   7.047   2.166  0.0977 -0.1641  0.0270
33008W        W33208  14.596  17.636   6.020  0.0836  0.1914  0.1781
33009W        W33209   8.164   3.733   6.564  0.0777  0.0780 -0.3046
33010W        W33210   7.280   4.199  11.444  0.2103 -0.3914 -0.3295
33011W        W33211  11.899   3.953  12.572  0.0147  0.1051 -0.1271
33012W        W33212  10.784   0.413   9.726  0.1868  0.1169 -0.1615
33013W        W33213  12.869  17.643  18.101  0.1493 -0.3257  0.2056
33014W        W33214   0.968   6.331   7.329  0.2436  0.1663 -0.0822
33015W        W33215  10.134   2.774   7.809 -0.0028  0.1636 -0.1193
33016W        W33216  17.001  16.851  10.200  0.0378  0.1116  0.3781
33017W        W33217   9.920   7.799   7.309  0.2099 -0.1599 -0.0373
33018W        W33218  13.605   0.617  15.644  0.0021 -0.0991 -0.0818
33019W        W33219  13.745  13.821  11.790  0.2400 -0.0632 -0.0694
33020W        W33220   8.153   5.224  10.923  0.1438 -0.2644  0.1581
33021W        W33221  12.799   2.989   8.150  0.3549  0.0417 -0.2578
33022W        W33222  11.784  17.840  17.100 -0.0654 -0.2047  0.0235
33023W        W33223  14.760  17.390  14.220 -0.0714 -0.0063 -0.2372
33024W        W33224  10.618   6.484  10.009 -0.3127 -0.1004 -0.0506
33025W        W33225  11.666  17.467  10.155  0.0575 -0.0602  0.1640
33026W        W33226  11.086  10.358  13.560 -0.1118  0.0176 -0.0458
33027W        W33227   0.815   1.949  11.494  0.0973 -0.0361 -0.3913
33028W        W33228   7.239   6.184  18.061 -0.0148 -0.1213 -0.1730
33029W        W33229   0.627  10.436   3.102  0.1736  0.1075  0.0960
33030W        W33230  11.036  17.421  11.256  0.2120  0.1008  0.0522
33031W        W33231  14.456  18.109   6.903  0.1053  0.0379  0.0819
33032W        W33232  12.490   6.375   2.522 -0.0536  0.1469  0.2148
33033W        W33233   5.439  15.113   5.915 -0.0825 -0.2215 -0.5664
33034W        W33234  13.027   8.419   7.696  0.0220 -0.1441  0.1148
33035W        W33235  11.580   5.184   2.833  0.1323  0.0634  0.0494
33036W        W33236  17.401  17.381  10.779  0.0052 -0.1062  0.0696
33037W        W33237  11.431   4.148  16.992 -0.1651 -0.1896 -0.3249
33038W        W33238   1.239   8.024  16.137  0.0666  0.3603 -0.0578
33039W        W33239   4.074   7.064  10.919  0.2224 -0.0797  0.1832
33040W        W33240  14.580   7.781  14.047 -0.0044  0.3223 -0.0195
33041W        W33241   6.998   6.092   9.230 -0.0401 -0.0768  0.4727
33042W        W33242  12.117   9.729  11.607  0.0297  0.1725  0.0713
33043W        W33243  15.142   4.154  11.715 -0.3003  0.2133  0.0777
33044W        W33244  17.172   2.215   8.955  0.3105 -0.1662  0.0798
33045W        W33245  10.713   9.002  12.921 -0.2389  0.0268  0.4323
33046W        W33246   6.961   4.406   6.052  0.2679 -0.2556 -0.0060
33047W        W33247  15.466   5.084   9.300 -0.3683  0.0828 -0.1212
33048W        W33248   0.336   7.580  15.750  0.2238  0.1735  0.0858
33049W        W33249  14.631   0.788  11.138  0.0295  0.3596  0.0768
33050W        W33250  17.412   1.976   6.028  0.2084  0.0095  0.2151
33051W        W33251   9.957   2.108  17.590  0.0489  0.3340 -0.3421
33052W        W33252   9.510   2.784  17.882 -0.1115  0.1521  0.3319
33053W        W33253   8.044   6.045   9.149 -0.3706  0.0766 -0.1723
33054W        W33254  15.427   2.542  11.248 -0.1822  0.0134 -0.0731
33055W        W33255  16.896  10.371  11.359  0.1919  0.0254  0.3284
33056W        W33256  16.385  11.855   0.111  0.0069 -0.0184 -0.0920
33057W        W33257  15.510   5.256   7.710 -0.1070  0.2100  0.1473
33058W        W33258  12.482  15.650  11.986 -0.4915  0.0984  0.2086
33059W        W33259  10.733   6.634   9.183 -0.0633 -0.1743  0.1393
33060W        W33260   8.404   6.014  11.862 -0.1828  0.2269 -0.1562
33061W        W33261  11.778   6.112   6.048 -0.2673 -0.0461 -0.2032
33062W        W33262  17.428  18.014   3.816 -0.1448 -0.0216  0.0237
33063W        W33263  10.617   2.281  13.590  0.0157 -0.1679 -0.3292
33064W        W33264  11.968  10.560  13.968 -0.0268  0.0335  0.2358
33065W        W33265   5.629   8.133  11.948 -0.1538  0.1338  0.0335
33066W        W33266  15.248   8.173   6.093 -0.0686 -0.0847  0.1631
33067W        W33267  15.836  13.108   9.480  0.1353  0.0017 -0.1986
33068W        W33268   5.715   3.804   9.302 -0.0418  0.0370 -0.5163
33069W        W33269  16.963  13.506  10.104 -0.2885 -0.1394 -0.1748
33070W        W33270  15.374  10.858   8.840 -0.0511 -0.3036  0.0414
33071W        W33271   0.665   7.403  12.213 -0.2890  0.0519 -0.0685
33072W        W33272  16.367   7.840  11.388  0.2072 -0.2035 -0.0009
33073W        W33273   7.202   3.174  12.850  0.1791 -0.1186  0.3182
33074W        W33274   4.723  13.390   6.974  0.0594  0.2729 -0.1183
33075W        W33275   1.149   1.362   8.007  0.0126  0.0702 -0.1523
33076W        W33276  13.548  17.132   3.667  0.1382 -0.0908  0.3556
33077W        W33277  11.722   0.193  12.428  0.1803  0.3773 -0.0647
33078W        W33278  14.353   4.215   8.671  0.1044 -0.2265  0.2263
33079W        W33279   9.585   9.609  13.022 -0.4055  0.1477  0.0697
33080W        W33280  12.472  12.981   7.740 -0.0602 -0.1157 -0.1215
33081W        W33281  15.388  11.027   3.764 -0.4654  0.0914  0.0235
33082W        W33282  13.936  13.141   5.078 -0.2451 -0.3733  0.2149
33083W        W33283   9.955  11.018   4.450  0.1005  0.1822 -0.0635
33084W        W33284   3.169  11.470   9.429 -0.0600 -0.1095 -0.0006
33085W        W33285  15.185   0.026  14.632 -0.2158  0.1500  0.4143
33086W        W33286  11.766   5.202  10.905 -0.0217  0.0464  0.1812
33087W        W33287  11.508   8.518  11.123  0.3185  0.0313  0.2235
33088W        W33288  14.775  15.633   8.773 -0.1097  0.2763  0.0118
33089W        W33289  16.398   0.285   7.744 -0.1751  0.2541 -0.1573
33090W        W33290  12.961   6.978   0.199 -0.4713 -0.1612  0.0685
33091W        W33291   3.464   2.443   5.388  0.0864 -0.2890 -0.1991
33092W        W33292  12.495   1.155  13.487  0.1591  0.0103  0.1093
33093W        W33293   7.166   9.319  11.661 -0.1535  0.1746  0.2755
33094W        W33294  17.065   2.968   7.368 -0.3433  0.0211  0.2462
33095W        W33295   1.331   9.910   9.841  0.0725  0.2194  0.1046
33096W        W33296  13.854   6.417  12.323  0.2307  0.1660 -0.0928
33097W        W33297  15.460   4.058  12.670 -0.0245 -0.0013 -0.0402
33098W        W33298  11.007   0.365   7.667  0.1440 -0.0119 -0.3153
33099W        W33299  16.486  10.465  10.035  0.0774  0.2633  0.1082
33100W        W33300   2.296   5.479   4.700  0.1338 -0.2410  0.0741
33101W        W33301   0.395  11.626  11.492  0.1316  0.4484  0.3256
33102W        W33302   6.622   5.434  10.387 -0.3514  0.1083 -0.4189
33103W        W33303   5.169   3.513   5.691 -0.1064 -0.0416  0.0420
33104W        W33304  14.835   8.531   2.975  0.0215  0.3101 -0.0745
33105W        W33305  13.835   5.530  11.763 -0.1775 -0.0085 -0.0891
33106W        W33306   9.814   2.974  16.620 -0.4421  0.0877 -0.0119
33107W        W33307  13.283   0.465  14.868 -0.0472 -0.3389 -0.2039
33108W        W33308  12.888   3.805   5.427 -0.2601 -0.1092  0.0768
33109W        W33309   2.789  10.152  14.447  0.4385  0.0430  0.2209
33110W        W33310   1.768   5.673   8.225 -0.1122  0.1624  0.0304
33111W        W33311   9.889   9.178   7.377  0.3125  0.0031 -0.1290
33112W        W33312   3.884  14.475   9.685  0.0948  0.1377  0.2660
33113W        W33313   5.536   4.550   9.772 -0.0727  0.1429  0.2693
33114W        W33314  10.052   7.689  12.576  0.0337  0.1822  0.0019
33115W        W33315  10.189  13.806  15.850 -0.0157  0.0876 -0.2726
33116W        W33316  12.521   3.075   5.939 -0.1188 -0.1303 -0.1264
33117W        W33317  16.918  18.036  11.589 -0.0127 -0.0335 -0.1747
33118W        W33318  10.161   4.472  14.300 -0.0616  0.2258  0.1905
33119W        W33319   0.272   9.924  16.611 -0.2654 -0.1070  0.1544
33120W        W33320  16.672   7.578  13.120 -0.0397  0.0159  0.1825
33121W        W33321   2.792   7.992   8.452 -0.0675  0.0297 -0.2532
33122W        W33322  16.753  10.936   8.593 -0.2400 -0.2789  0.0411
33123W        W33323  10.795   8.584  10.093  0.0640 -0.0926  0.2820
33124W        W33324  11.743   9.947  10.549 -0.0424  0.1224 -0.1183
33125W        W33325  16.651   9.895   1.444  0.4339  0.1494  0.0500
33126W        W33326   5.373  16.794  10.490 -0.0021  0.0097  0.0876
33127W        W33327  11.813   3.198  10.118 -0.1310 -0.0017 -0.1220
33128W        W33328  15.666  17.922   4.697  0.1603  0.3310 -0.1077
33129W        W33329  16.109  11.721   4.705 -0.0296 -0.1823  0.3684
33130W        W33330   0.076   9.526  15.876 -0.1192  0.1303  0.1945
33131W        W33331  13.066  16.867   3.617 -0.0196  0.3110  0.2032
33132W        W33332   5.564  17.694   5.785 -0.1283 -0.0195  0.1922
33133W        W33333  10.889   1.938   8.144  0.1708  0.0730  0.3487
33134W        W33334  15.611   3.702  12.313 -0.1372  0.0224  0.1049
33135W        W33335   0.783   0.717   4.387 -0.1245  0.0053 -0.2440
33136W        W33336  12.197   0.059   9.665  0.1100  0.2301 -0.0255
33137W        W33337  16.446   5.685  16.889 -0.1676 -0.0035 -0.1261
33138W        W33338  14.570   4.818   6.002  0.1086 -0.0529  0.0311
33139W        W33339   2.714   2.304   7.762 -0.1376  0.2205  0.0957
33140W        W33340  13.265  11.798  12.430 -0.0197 -0.3687 -0.0282
33141W        W33341  10.018  17.624   2.633 -0.1303  0.1119  0.0435
33142W        W33342  10.157   9.790   4.027 -0.1881  0.0567 -0.0018
33143W        W33343   8.747  12.515   6.595 -0.1052  0.1818 -0.0436
33144W        W33344  14.344  15.593  15.112  0.2173  0.0133  0.1013
33145W        W33345   1.086   1.730   6.503 -0.1423 -0.0040 -0.2741
33146W        W33346   9.175   2.005   4.428 -0.0895  0.0299 -0.0142
33147W        W33347  12.213   6.840  10.797  0.0448  0.0412  0.2084
33148W        W33348   7.978   9.402  16.377  0.2340 -0.1509 -0.0387
33149W        W33349  14.489   5.418  10.655  0.1894 -0.2601 -0.0855
33150W        W33350  12.008   8.983  10.439 -0.2613 -0.3103 -0.1072
33151W        W33351  10.144  10.609   2.153  0.1245 -0.1562 -0.3349
33152W        W33352  15.211   6.856  11.418 -0.2404  0.0640 -0.1834
33153W        W33353   0.656  10.053   9.072 -0.1242  0.0392 -0.0229
33154W        W33354  14.139  15.357  14.735 -0.4039  0.1232  0.1736
33155W        W33355  12.304  10.507   8.375 -0.0583 -0.0846 -0.1723
33156W        W33356  10.669  15.478  12.642  0.0742 -0.2709  0.0518
33157W        W33357  12.529   9.434  10.092  0.2001 -0.1681 -0.0794
33158W        W33358  12.625   5.497   3.570  0.0732 -0.1563  0.1365
33159W        W33359  15.328  12.269   1.522 -0.0947 -0.1229  0.1542
33160W        W33360  14.317  15.904   8.734  0.0502 -0.0952  0.0712
33161W        W33361   0.362   6.356   6.167  0.2463  0.0315  0.2308
33162W        W33362   7.365  13.641   4.284 -0.0855  0.0806 -0.0067
33163W        W33363  17.687  13.330  11.330  0.2083  0.0755  0.0933
33164W        W33364  17.240   9.149   1.985  0.0101  0.0095 -0.0012
33165W        W33365  11.073   1.245   2.500  0.1355  0.0522 -0.2383
33166W        W33366  10.429   1.879   8.445 -0.1473 -0.0201 -0.1217
33167W        W33367  15.934  14.468   3.074 -0.2957  0.1107  0.1318
33168W        W33368  16.639   6.484   4.746  0.2358  0.0451  0.3175
33169W        W33369  11.995   7.858  14.877 -0.1101  0.1318 -0.0856
33170W        W33370  16.273  15.187  13.794  0.4081 -0.0088 -0.2134
33171W        W33371   7.716   7.185  12.060  0.0297  0.1607 -0.2681
33172W        W33372  13.897   5.157   8.086 -0.0650 -0.0151  0.0234
33173W        W33373   9.758   0.905   1.843 -0.0337 -0.1860 -0.0966
33174W        W33374  16.737   5.978   5.668  0.1457  0.1296 -0.0919
33175W        W33375  10.234  11.232  16.336 -0.0325  0.2356  0.0743
33176W        W33376   8.448   5.860   8.466  0.0175 -0.1836 -0.2823
33177W        W33377  17.897  17.267   6.905 -0.1850  0.1111 -0.2408
33178W        W33378  15.320  16.669  10.726  0.0991 -0.1251 -0.2344
33179W        W33379   4.576   9.629   8.989  0.2416 -0.1981 -0.2450
33180W        W33380  14.589   2.710   3.641 -0.2459  0.2275 -0.0534
33181W        W33381  14.151   7.012   7.124  0.5312  0.1618 -0.1700
33182W        W33382  11.539   1.909   7.786  0.0300 -0.2320  0.4269
33183W        W33383  14.250   1.534  16.400  0.0173  0.5320  0.4481
33184W        W33384   9.274   4.553   9.307 -0.0775 -0.2715  0.0464
33185W        W33385  15.396   7.906   9.890 -0.0147  0.0172  0.1506
33186W        W33386  13.328  10.019   6.531  0.0433 -0.2268  0.0466
33187W        W33387  16.600   9.177   5.552 -0.1605 -0.0220  0.1488
33188W        W33388  15.308   3.369   3.906  0.0531  0.0865  0.3273
33189W        W33389  17.230  16.178  16.638 -0.2744 -0.0923 -0.0005
33190W        W33390  14.639   4.937  13.157  0.2734 -0.6332  0.1980
33191W        W33391  12.033   5.618  13.077 -0.2141 -0.1383  0.1063
33192W        W33392  11.953   9.407   8.978  0.1539 -0.3333  0.3398
33193W        W33393  14.552  15.970   2.621  0.1932  0.2006 -0.0441
33194W        W33394   8.276   0.401   7.905 -0.0777 -0.2392  0.3290
33195W        W33395  13.496   8.485   0.600  0.0815  0.1659 -0.0088
33196W        W33396  15.124   7.980  12.660 -0.0756  0.1624 -0.1855
33197W        W33397   7.997  13.313   5.893  0.4049 -0.1382 -0.1019
33198W        W33398  14.949   6.459   8.759 -0.0260  0.0688  0.0527
33199W        W33399   9.934   7.869   4.936 -0.2263 -0.1301  0.1665
33200W        W33400  13.525   3.371   2.161  0.2036 -0.0756 -0.3476
33201W        W33401   4.950  10.480   0.160 -0.2031 -0.0972  0.2466
33202W        W33402  14.983  13.705  11.592  0.0403  0.2126 -0.0088
33203W        W33403   6.490  12.692   8.168 -0.1701  0.0003 -0.1180
33204W        W33404  15.556   5.674  11.750 -0.2495 -0.2066 -0.2305
33205W        W33405  16.569   5.936  14.827 -0.0927  0.1639 -0.1570
33206W        W33406   7.949  15.327   1.081 -0.2103 -0.0934 -0.1749
33207W        W33407   0.124  16.362  14.620 -0.2036  0.0046 -0.0506
33208W        W33408   9.845  10.014  12.100  0.1064  0.1712 -0.1782
33209W        W33409   8.430   3.828  14.052  0.2092  0.3447  0.2000
33210W        W33410  16.009   7.022  17.777 -0.1075  0.3826  0.0373
33211W        W33411  15.413   4.638  18.205  0.0963  0.4270  0.2246
33212W        W33412  12.761   7.746   8.846  0.6050 -0.3343  0.1701
33213W        W33413   3.518   5.472  16.375 -0.0083  0.0305  0.2010
33214W        W33414  17.731   7.516  14.077 -0.0845 -0.1921 -0.1425
33215W        W33415  16.802   3.441   9.093 -0.0836  0.1478  0.0687
33216W        W33416   9.830  11.703   9.496 -0.2290  0.1094  0.0872
33217W        W33417  13.495  16.207  12.682 -0.0985  0.2672  0.0338
33218W        W33418   7.010   1.571  13.037  0.0592 -0.0038 -0.1905
33219W        W33419  16.355   6.175  15.302  0.1432 -0.0934  0.2995
33220W        W33420   8.514   8.456  17.847  0.3191  0.0577 -0.1163
33221W        W33421  12.495   2.445  13.068 -0.0495  0.2534  0.0614
33222W        W33422   2.438   0.222  10.767 -0.0782  0.2919  0.1819
33223W        W33423  15.818   4.907  17.995 -0.1928  0.1281 -0.0151
33224W        W33424  12.320   3.990  12.332  0.0615  0.2168  0.1584
33225W        W33425   9.429   2.826   0.181  0.0783  0.0736  0.0113
33226W        W33426  11.685  17.775   9.328  0.0888 -0.1616  0.1920
33227W        W33427  12.596  17.076  13.454  0.0327 -0.3327 -0.1268
33228W        W33428  10.727   3.320  11.106 -0.2939 -0.0272  0.0518
33229W        W33429  17.757   6.289  17.900  0.2625 -0.0225  0.3373
33230W        W33430   5.480   8.844  15.366  0.4047  0.2043  0.3347
33231W        W33431   9.006  16.098  14.966  0.1938  0.1791 -0.1158
33232W        W33432  10.816  11.712  14.983  0.0452 -0.0220 -0.0676
33233W        W33433   9.799  10.174  11.590  0.0544  0.0834 -0.0091
33234W        W33434   7.710   2.359  12.905  0.0881  0.1090  0.1973
33235W        W33435  13.693  14.014   7.131 -0.1349 -0.1484  0.0127
33236W        W33436   2.028   1.031   6.464 -0.1560 -0.0804  0.3696
33237W        W33437  10.813  11.067  15.991 -0.2272  0.1097  0.1381
33238W        W33438  12.612   3.031   0.392  0.0350 -0.2935  0.0009
33239W        W33439  13.569   9.325  13.582 -0.1100  0.1056  0.3896
33240W        W33440  13.326  12.987  12.773 -0.1621 -0.0164  0.0007
33241W        W33441  14.352   5.525   2.316 -0.2315 -0.2196 -0.0872
33242W        W33442   2.560   8.081  17.383  0.1311  0.1887 -0.0207
33243W        W33443  12.057   6.766  16.229 -0.1446 -0.2942  0.2911
33244W        W33444   6.993   6.753  10.097  0.2138  0.0586  0.0762
33245W        W33445  12.777   2.981  16.138 -0.3660  0.1253  0.3544
33246W        W33446  17.027   1.115   4.511  0.0907  0.2107 -0.1926
33247W        W33447   2.988   5.512   0.720  0.0906  0.1866 -0.2483
33248W        W33448   9.667   2.857   6.413 -0.2145 -0.0730 -0.2303
33249W        W33449  12.261   8.137  16.614 -0.0842  0.1950  0.0250
33250W        W33450  10.860  10.793  10.570 -0.3336  0.1899  0.0139
33251W        W33451  15.988   5.143   4.079  0.3459 -0.0158  0.0068
33252W        W33452  11.441   4.791  14.124  0.0906  0.0818  0.0407
33253W        W33453  10.489   5.923  12.982 -0.1239 -0.0135 -0.1127
33254W        W33454  13.362   6.738  10.011 -0.1113  0.0711 -0.0395
33255W        W33455   6.640  13.824  10.534  0.0943 -0.1777  0.2881
33256W        W33456  12.457   3.777   5.833  0.1515  0.0918 -0.2218
33257W        W33457  11.037  10.030   1.400 -0.0004  0.0708  0.1983
33258W        W33458   5.226   5.480  12.223  0.0986  0.0687  0.0812
33259W        W33459  14.180   0.475  11.035 -0.1195  0.0716 -0.4059
33260W        W33460   0.524   4.291   4.130 -0.0188 -0.1204  0.1283
33261W        W33461   9.396   3.390  12.158  0.1051  0.1887 -0.0807
33262W        W33462  10.815   6.201  13.282 -0.0969 -0.2826 -0.0150
33263W        W33463   2.024   0.533   0.356  0.0703  0.2045 -0.2536
33264W        W33464  11.567   8.611  13.366 -0.2137  0.0960 -0.0309
33265W        W33465  12.825   7.095  16.675  0.2943 -0.4154 -0.0728
33266W        W33466  13.426  12.431  13.853  0.2184 -0.2583  0.0754
33267W        W33467  15.439  13.496  12.658 -0.0716 -0.0786  0.1311
33268W        W33468  14.117   4.032  11.537 -0.0381 -0.1753  0.1418
33269W        W33469  14.469   4.643   7.482 -0.2325 -0.0248 -0.3200
33270W        W33470  13.954   3.770  10.667 -0.0360  0.3478  0.1470
33271W        W33471  10.616   5.111   7.717 -0.1954  0.2068 -0.1703
33272W        W33472  11.353   9.679   3.239  0.2030 -0.0441  0.0161
33273W        W33473   5.346   8.479   2.458  0.2291 -0.1898  0.2286
33274W        W33474  16.092  10.703  11.728 -0.0477 -0.1103  0.0342
33275W        W33475   9.176  10.518   7.464 -0.1319  0.0729 -0.2939
33276W        W33476   4.527   7.850  14.162 -0.1144  0.2351  0.0699
33277W        W33477   3.144   5.802  17.452  0.2915  0.3305  0.2255
33278W        W33478   2.772   3.058   8.868 -0.3049  0.0506 -0.1592
33279W        W33479   9.979  12.840   7.238  0.0102  0.1632 -0.0673
33280W        W33480  11.176  13.185  10.524  0.1022  0.0833 -0.0307
33281W        W33481  11.517   2.884  16.842  0.2554  0.0509  0.1191
33282W        W33482  11.701   1.821   3.734  0.1159 -0.1746 -0.2041
33283W        W33483  10.781   5.639  12.514  0.0676  0.1248 -0.0563
33284W        W33484   0.257   4.690  16.735 -0.3039  0.1392  0.1776
33285W        W33485   9.900   5.061  11.942  0.1349  0.1150 -0.1724
33286W        W33486   4.393  10.671   9.014  0.5555 -0.0797  0.0385
33287W        W33487  14.532   5.028   2.365  0.2172  0.0260  0.1215
33288W        W33488   9.448   0.037   9.091 -0.2291  0.1145 -0.1241
33289W        W33489   1.946   5.160   2.875  0.1860 -0.0196  0.1572
33290W        W33490   8.828   7.193  11.176 -0.2028  0.1680 -0.1551
33291W        W33491   5.702  15.866  13.901 -0.1088 -0.1419 -0.2700
33292W        W33492  10.952   7.831   5.067 -0.0772 -0.1297 -0.1915
33293W        W33493  13.816   4.717  15.262  0.2565  0.0142 -0.1452
33294W        W33494  12.505   5.063   5.344  0.2306 -0.1002 -0.1819
33295W        W33495  17.149  15.440  14.757  0.0386  0.0271 -0.0503
33296W        W33496  15.180   8.223   5.162 -0.0662  0.2860 -0.1326
33297W        W33497   8.156   9.910   5.906  0.2769 -0.2518  0.1571
33298W        W33498   2.145   5.628   0.361  0.0292  0.0971  0.0762
33299W        W33499   0.199   4.198  16.876 -0.2088 -0.0776  0.2527
33300W        W33500  15.616  13.081  16.316  0.3469  0.1868  0.0955
33301W        W33501  17.794   7.929   8.802  0.2691 -0.1335 -0.0366
33302W        W33502  15.635   2.603   2.150 -0.1668 -0.2344  0.2244
33303W        W33503   8.329  14.316  11.978  0.1180  0.0950 -0.0865
33304W        W33504  15.627   0.593   2.948 -0.1400  0.0490 -0.1799
33305W        W33505   8.993  12.516  12.907 -0.0660 -0.2315  0.0620
33306W        W33506   4.607   3.596  14.242 -0.2517 -0.0299 -0.1735
33307W        W33507   6.772   6.074  13.244 -0.1434  0.2004  0.2508
33308W        W33508  13.278   3.642  16.692  0.1844 -0.2588 -0.2139
33309W        W33509   7.654   1.285   8.861 -0.2208 -0.0614  0.0715
33310W        W33510   4.220  16.749  14.885 -0.1643 -0.3271  0.2541
33311W        W33511  13.911  10.627   5.768  0.1454 -0.0673 -0.2107
33312W        W33512  16.559   6.268  11.562 -0.0134  0.3550  0.0095
33313W        W33513  15.871   2.708   1.221 -0.2103 -0.1877 -0.1769
33314W        W33514   0.790   1.073   7.690  0.0348 -0.1610  0.1895
33315W        W33515  11.115   5.550   1.689 -0.1978 -0.2223  0.0644
33316W        W33516   7.725   7.163   1.262 -0.4080  0.2507  0.1039
33317W        W33517   1.226   6.338  13.400  0.1572 -0.0496 -0.1198
33318W        W33518  15.039   0.438   4.621  0.3748  0.0515  0.0304
33319W        W33519  15.440  17.400  10.557 -0.2943  0.2021 -0.1335
33320W        W33520  14.243  12.633   6.573  0.1690 -0.0720  0.0374
33321W        W33521  13.952  16.569   7.128  0.5904  0.0831  0.0590
33322W        W33522  10.224   8.426   0.891  0.0662  0.4005  0.1274
33323W        W33523   6.513   1.629  13.891 -0.0404 -0.1556  0.0370
33324W        W33524  12.116   6.572   8.262  0.0420  0.1968 -0.0936
33325W        W33525  12.874   5.536  11.494  0.1190 -0.0605  0.0957
33326W        W33526  13.540  14.267  12.828 -0.0513  0.1239 -0.1016
33327W        W33527   4.264   1.743   6.797  0.0545 -0.0896  0.1218
33328W        W33528   8.284  15.722   1.093 -0.3040  0.0592  0.0491
33329W        W33529  17.321   3.851  15.496  0.0080  0.0208 -0.1107
33330W        W33530   7.906  18.190  15.603  0.0717  0.1119  0.1623
33331W        W33531  12.768   0.355  13.593  0.3234  0.1900 -0.2381
33332W        W33532   7.278   7.923   2.633 -0.0029  0.1603 -0.0677
33333W        W33533  17.911   1.464  17.684  0.0541  0.0847  0.0801
33334W        W33534  13.079   8.203  13.766  0.0425 -0.3454  0.0567
33335W        W33535  11.818  18.203   8.821  0.2738 -0.0045 -0.0033
33336W        W33536  12.979   4.324   8.272  0.2249 -0.1771  0.1833
33337W        W33537  17.753   0.085  14.688  0.1274  0.1522 -0.0793
33338W        W33538  16.886   1.647  15.015 -0.0276  0.2694  0.1235
33339W        W33539   7.339  15.026  15.210 -0.2164 -0.1589  0.2939
33340W        W33540  13.195   5.529   2.023 -0.3231  0.0271 -0.0672
33341W        W33541   9.076  17.453  11.319 -0.2224  0.2438  0.1642
33342W        W33542   9.470   6.248  14.037 -0.3417  0.0236  0.2344
33343W        W33543  11.144   2.708  12.758  0.1935  0.0253  0.1398
33344W        W33544   8.570  14.902  15.678  0.0967  0.0878  0.0341
33345W        W33545   3.322  17.485  10.014 -0.0735 -0.3386  0.3382
33346W        W33546   7.943   0.075   1.772 -0.1013 -0.0369 -0.1408
33347W        W33547   0.571  13.838   7.713 -0.0322 -0.2192 -0.2946
33348W        W33548  16.387  10.788  12.113 -0.0995  0.0597  0.0150
33349W        W33549  12.022  11.698  13.184 -0.2279  0.2481  0.4306
33350W        W33550   6.817   3.133   9.014  0.0818  0.1090  0.1216
33351W        W33551  16.297   2.913  16.954  0.3861 -0.0801 -0.0408
33352W        W33552  10.311  10.227  12.313 -0.1142  0.2556  0.0156
33353W        W33553  14.991   0.677   5.065  0.2327  0.1205 -0.4054
33354W        W33554   4.729   4.715  11.987 -0.1852 -0.1330  0.1306
33355W        W33555  14.839  16.538   8.613 -0.1952  0.1932  0.5021
33356W        W33556   9.388   8.889   9.918 -0.2513  0.0895 -0.2484
33357W        W33557  16.089   5.450   5.816  0.0068  0.1063 -0.1546
33358W        W33558  10.156  12.435  16.736 -0.1883  0.0365 -0.2074
33359W        W33559   5.365   9.859   6.561  0.0601 -0.0975  0.3510
33360W        W33560   4.689   9.145  13.742 -0.0525  0.0115  0.1128
33361W        W33561  17.907   8.553  15.957 -0.3224  0.1904  0.0515
33362W        W33562  14.679  11.407  10.057  0.1572  0.2137 -0.1603
33363W        W33563  15.285  16.474   3.824 -0.0967 -0.1482 -0.2390
33364W        W33564  14.573   0.073  16.320 -0.1184 -0.2160  0.3208
33365W        W33565  12.505   7.709  14.040  0.0706  0.0774 -0.1055
33366W        W33566  14.628   0.676  11.604  0.2847 -0.0030 -0.3515
33367W        W33567   8.968  13.158   2.728 -0.1935 -0.0558 -0.1086
33368W        W33568   6.678  10.172   9.252  0.0249  0.1381  0.2491
33369W        W33569  10.565   0.914   0.290 -0.2192 -0.2184 -0.1519
33370W        W33570  13.494   7.011  14.294 -0.4238 -0.3120  0.0600
33371W        W33571  14.902   2.684  11.099  0.2547 -0.1956  0.1401
33372W        W33572  15.143   2.996  14.766  0.1078 -0.1515  0.1351
33373W        W33573  16.729   0.163  17.807 -0.1219  0.0959  0.0014
33374W        W33574  17.158   1.814  15.484 -0.0086  0.2388  0.0177
33375W        W33575   4.441   4.878   6.568  0.0709  0.0103 -0.3210
33376W        W33576   8.222   6.536   9.993  0.1469  0.1185 -0.1471
33377W        W33577   8.061   9.806  12.682 -0.2061  0.1529 -0.0711
33378W        W33578   9.909   7.370   7.940 -0.0461 -0.0488 -0.1535
33379W        W33579   9.817   3.104   0.475 -0.2091 -0.2455 -0.0328
33380W        W33580  14.343  14.713  12.204  0.0279 -0.3738  0.0454
33381W        W33581  10.385  17.632  11.641  0.1572 -0.1533 -0.2944
33382W        W33582   5.890  10.284   4.406 -0.0271  0.1069 -0.0336
33383W        W33583  11.766   2.488   9.129 -0.2298  0.0717 -0.1432
33384W        W33584   1.332   2.966   4.771  0.1847  0.0463  0.1066
33385W        W33585  12.969  17.378  14.288 -0.2568  0.0210 -0.0224
33386W        W33586  12.797   8.802  13.831  0.1331 -0.2211 -0.2347
33387W        W33587  14.100   2.635  11.917  0.1119 -0.0653  0.0754
33388W        W33588  13.224   9.738   7.123  0.0953 -0.3580  0.0186
33389W        W33589  13.476   1.964   1.287 -0.1483  0.1547 -0.2042
33390W        W33590   8.190   4.435   6.951  0.3315 -0.0851  0.1771
33391W        W33591  14.199   4.595   3.240 -0.1006 -0.0758  0.0233
33392W        W33592   2.762   4.245   9.958 -0.0649  0.2963  0.0288
33393W        W33593  12.213  16.540   9.728  0.1595  0.0929 -0.1314
33394W        W33594   0.141  16.684  16.209  0.1588  0.1783  0.0375
33395W        W33595  14.974   6.445   9.839  0.0137  0.2018  0.4499
33396W        W33596  13.425   4.344   8.528 -0.2089 -0.3991 -0.2969
33397W        W33597  10.375  11.007  13.655  0.3407 -0.2436 -0.1662
33398W        W33598  12.841   6.773  10.942  0.0279 -0.1921 -0.0056
33399W        W33599   8.814   4.538  15.738 -0.2684 -0.0912 -0.1052
33400W        W33600   4.589   4.163  11.903 -0.0569  0.2198  0.2005
33401W        W33601   7.278   2.747  13.662  0.0921 -0.1739 -0.1454
33402W        W33602   0.570   5.069   7.619 -0.1382 -0.1966  0.1753
33403W        W33603  10.330   0.433  13.785 -0.2058  0.2434 -0.1532
33404W        W33604   9.749  15.056   9.741 -0.0367 -0.1783 -0.0607
33405W        W33605   7.668   0.304   6.733 -0.1515 -0.3687  0.1401
33406W        W33606   6.199   5.849  15.233  0.2503 -0.1743  0.0972
33407W        W33607  10.701  16.816   1.192  0.5453 -0.0836  0.1057
33408W        W33608   0.944   2.801   5.832  0.1159 -0.0415 -0.1835
33409W        W33609   9.720   6.661   9.177  0.3027  0.0387 -0.1273
33410W        W33610  12.397   9.026   4.541 -0.2803  0.1251  0.0387
33411W        W33611   9.296   4.095  13.352 -0.4875  0.1001 -0.1655
33412W        W33612  16.149  15.750   5.123  0.1004 -0.0667  0.2012
33413W        W33613  14.681   0.715   8.138  0.0098 -0.0827 -0.1260
33414W        W33614  15.355   5.146  16.202 -0.1189 -0.1821  0.4302
33415W        W33615   1.883  12.181  10.181  0.2180  0.1108  0.0293
33416W        W33616  11.591  10.646   7.481 -0.1810  0.1975  0.0276
33417W        W33617   6.554  10.041  10.130 -0.0142  0.0118 -0.1120
33418W        W33618   9.340  11.463   9.432  0.0933 -0.1779  0.1424
33419W        W33619  17.001   9.918  16.329  0.0647  0.1476  0.1201
33420W        W33620   1.986   9.858  13.410 -0.1189 -0.1031 -0.2475
33421W        W33621   6.535   7.458  14.786  0.1933  0.2627 -0.0536
33422W        W33622  14.875   8.644  13.944 -0.0925 -0.2547  0.4612
33423W        W33623  14.651   8.349   3.983 -0.1179  0.1082 -0.3068
33424W        W33624  11.727   3.910  11.287 -0.1367 -0.2527 -0.0394
33425W        W33625  15.541   1.010  14.013 -0.0091 -0.1580  0.4151
33426W        W33626   0.147   7.959  10.024  0.3236  0.3379  0.1531
33427W        W33627  15.809  16.299  10.445  0.0901 -0.0885  0.0327
33428W        W33628   1.571   2.538   5.403 -0.1637  0.4853  0.0817
33429W        W33629   0.680  11.159   8.952 -0.2962 -0.1401 -0.0361
33430W        W33630   9.806   2.933  15.241  0.3240 -0.0809  0.0690
33431W        W33631  10.209  15.438  11.720 -0.1140  0.2586  0.0248
33432W        W33632  11.674  12.838   6.970  0.0572 -0.0674  0.4225
33433W        W33633  10.466  16.622  11.729  0.2333 -0.2095 -0.0319
33434W        W33634   9.941   5.893   3.662 -0.0510  0.2128 -0.0944
33435W        W33635   7.151  11.458   7.813 -0.1549 -0.0437  0.0991
33436W        W33636  13.100  18.184  17.542  0.0718 -0.0132  0.1174
33437W        W33637  16.074   8.719  14.384 -0.1268  0.0564 -0.2879
33438W        W33638   7.432  12.888   9.054  0.2729 -0.1459 -0.4811
33439W        W33639   7.808   9.558  10.684 -0.1863  0.0006 -0.1385
33440W        W33640   7.597  11.163   1.554  0.0012  0.0479  0.2346
33441W        W33641  14.051  10.047  17.444  0.3695  0.0415  0.2778
33442W        W33642   4.760  12.087  12.467  0.2394 -0.3892  0.3450
33443W        W33643  13.387  14.958   0.851  0.2756  0.1344  0.0427
33444W        W33644   7.731   5.307  16.344  0.0572  0.4208 -0.3242
33445W        W33645   9.109   8.868   6.201  0.1430  0.1097 -0.1450
33446W        W33646   5.017   7.920   8.273 -0.3736  0.1170 -0.2153
33447W        W33647  10.386   6.188  13.524 -0.0633 -0.1535 -0.1369
33448W        W33648  16.625   7.089  13.059  0.0156 -0.0990 -0.0407
33449W        W33649  15.673  13.527  11.220  0.0715 -0.1502  0.0374
33450W        W33650  17.561  15.895  15.245 -0.0301 -0.2480  0.0076
33451W        W33651   9.491  16.969   9.451  0.0752 -0.1400  0.1957
33452W        W33652  12.343  10.164  11.821 -0.0872  0.3976  0.1892
33453W        W33653   8.578   6.217  11.433 -0.0433 -0.0082 -0.0787
33454W        W33654  13.354   9.347   8.588 -0.2432  0.0196 -0.0703
33455W        W33655   1.867   2.460  17.331 -0.0799  0.1855  0.3621
33456W        W33656  14.534   7.418   6.978 -0.1087 -0.1344 -0.1447
33457W        W33657  11.795   7.805   5.768 -0.0898 -0.0297  0.3289
33458W        W33658  14.089   7.472   6.768 -0.2259 -0.2269 -0.0346
33459W        W33659   8.763  10.643  13.261 -0.2920  0.2848  0.1811
33460W        W33660  14.775   7.953   6.166 -0.4899 -0.3270  0.1067
33461W        W33661  15.043  16.004  10.081  0.1100  0.0813  0.2508
33462W        W33662  10.927   4.959   1.320 -0.0795  0.4353  0.1659
33463W        W33663  15.304   6.650   0.732 -0.1199  0.0788 -0.0286
33464W        W33664  10.164   4.863   0.821 -0.1654 -0.0869  0.3075
33465W        W33665   6.674   4.468  15.714 -0.0347  0.0456 -0.1516
33466W        W33666  14.741  17.633   8.626 -0.4254 -0.2080  0.0051
33467W        W33667  11.816   0.553  13.294 -0.1710 -0.2227  0.0332
33468W        W33668   0.730   2.322   9.735  0.0041  0.1811  0.1254
33469W        W33669   7.536   8.207  13.637 -0.0094 -0.2851  0.0823
33470W        W33670   0.153   7.710   9.562 -0.0431  0.4078 -0.1285
33471W        W33671  15.311   5.253  11.582  0.2260 -0.0903 -0.5028
33472W        W33672   3.715  12.610  14.214  0.2129  0.0856  0.1683
33473W        W33673  14.146  13.906  18.150 -0.2273 -0.1569  0.0622
33474W        W33674  16.761   6.078  12.107  0.1633 -0.1671  0.3033
33475W        W33675  15.370   7.662   8.415  0.0145  0.0118  0.0411
33476W        W33676   6.754  11.977  16.758 -0.1724 -0.0538 -0.1017
33477W        W33677   4.899   5.567   9.884  0.2746  0.2595  0.1406
33478W        W33678   9.160  15.960   5.242  0.2890 -0.2464 -0.1189
33479W        W33679  12.832   5.168  16.626  0.0005  0.0662  0.0817
33480W        W33680   6.083  16.142  13.371  0.0870  0.2141  0.0498
33481W        W33681   0.948  17.623  10.157  0.0733  0.0426 -0.2234
33482W        W33682  10.427   3.269  12.588 -0.4995  0.4288 -0.0683
33483W        W33683  10.719   7.605  17.290  0.0081 -0.2470 -0.1857
33484W        W33684   2.111   1.269   7.921 -0.2645  0.2736 -0.0668
33485W        W33685  13.003   6.821  14.178 -0.2503 -0.1042  0.0673
33486W        W33686  13.800   6.162  14.075 -0.0639  0.3678  0.2292
33487W        W33687  12.820  10.354  14.935 -0.4966  0.0158 -0.0511
33488W        W33688  17.213   2.292  15.575 -0.1435 -0.0176 -0.5162
33489W        W33689  11.567   1.934  14.440 -0.0658 -0.1578 -0.2508
33490W        W33690  17.718  10.696   8.266 -0.0460 -0.1235 -0.0707
33491W        W33691  16.836   9.426  15.038  0.0163 -0.0588 -0.1435
33492W        W33692  12.729   8.629  11.608  0.2248 -0.0928  0.1713
33493W        W33693   6.490   1.219   1.685 -0.0221  0.1538 -0.1222
33494W        W33694   2.491  10.111  13.009 -0.0363  0.0467  0.1159
33495W        W33695   6.911   3.497  12.360 -0.1314  0.0528 -0.0879
33496W        W33696  14.927  10.638  15.328  0.0462  0.3109 -0.1325
33497W        W33697   2.140   8.722   0.952 -0.1326 -0.0969 -0.3678
33498W        W33698  17.491  12.125  11.014 -0.1111  0.1465 -0.3657
33499W        W33699  14.903   6.681  14.405  0.0953  0.0266 -0.1285
33500W        W33700  10.247  13.769  10.073 -0.3134 -0.0412  0.2353
33501W        W33701   6.897   8.093  16.046 -0.1395  0.1336  0.4018
33502W        W33702  16.866   7.615   8.063  0.0202  0.2181  0.0099
33503W        W33703   9.799  15.641  12.672 -0.1322 -0.1947 -0.1989
33504W        W33704   8.256   9.549  10.126 -0.1868 -0.0298  0.2548
33505W        W33705   7.257  14.098   5.133  0.1968 -0.2139 -0.0003
33506W        W33706  13.511   4.697  15.725 -0.0573  0.1848 -0.2175
33507W        W33707   5.539   1.739  10.978  0.1209 -0.0918 -0.0930
33508W        W33708  12.192   6.975  14.725 -0.0630  0.2538  0.2939
33509W        W33709   8.684   7.930  17.724  0.2819 -0.2210  0.1379
33510W        W33710   7.146   5.367   5.341 -0.0594  0.0870  0.0665
33511W        W33711   9.039   1.760   9.457 -0.0462  0.1287  0.1062
33512W        W33712  18.182  16.480  10.456 -0.2067  0.0600 -0.1007
33513W        W33713  18.131  13.929  15.869 -0.3050  0.3779  0.0483
33514W        W33714   8.401  11.708  14.136  0.1331 -0.1561 -0.1676
33515W        W33715  10.967   9.465  10.472  0.0757 -0.0327 -0.1866
33516W        W33716  12.976   3.283  15.233  0.1591  0.1063  0.1763
33517W        W33717  13.389   7.583   3.815 -0.1896  0.0121  0.1593
33518W        W33718  15.861   9.964   2.865 -0.0702 -0.2401  0.1233
33519W        W33719  16.753   1.278   7.026 -0.0957 -0.0956 -0.0112
33520W        W33720   9.595   7.812  12.272  0.0638 -0.1358 -0.0969
33521W        W33721  17.311   7.596  17.004  0.0934 -0.4520 -0.1288
33522W        W33722   6.111   6.114  16.877 -0.0804 -0.2444 -0.0170
33523W        W33723  14.237   2.478   8.297  0.0131 -0.0617  0.2116
33524W        W33724  12.127   0.162  14.194 -0.0840 -0.1487 -0.0172
33525W        W33725  17.060   5.497  12.865  0.1389  0.1387 -0.1189
33526W        W33726   6.773   3.973   1.247 -0.2690 -0.3051 -0.0774
33527W        W33727  13.657   5.331  17.581  0.1441 -0.2118 -0.2242
33528W        W33728   3.664   7.097  10.449 -0.4613  0.1529  0.0664
33529W        W33729  11.689   4.829  11.276 -0.1017  0.1248  0.1264
33530W        W33730  12.744  17.535   1.699 -0.2337  0.0073  0.0276
33531W        W33731   8.224  16.039  10.084  0.0616  0.3373 -0.2057
33532W        W33732   4.816   0.763  16.266  0.0982 -0.2243  0.1762
33533W        W33733  16.392   6.991   6.178  0.1489 -0.1703 -0.1625
33534W        W33734  16.932  14.666   8.280 -0.2782  0.0203  0.0451
33535W        W33735  10.444   6.820  17.154 -0.0463 -0.0153  0.4135
33536W        W33736  12.045   7.353  14.122 -0.2856 -0.1704  0.1046
33537W        W33737  13.942  10.508  17.712  0.0845  0.1719  0.2244
33538W        W33738   6.117   7.656   6.945  0.2103  0.2104  0.1087
33539W        W33739  18.014  16.327   4.275  0.2247  0.2607 -0.0218
33540W        W33740  10.014   9.485   9.314 -0.0019 -0.1970 -0.1522
33541W        W33741   0.445   5.918   2.739  0.1712 -0.0184 -0.4475
33542W        W33742  15.511   3.436   8.776 -0.0495  0.0247 -0.1692
33543W        W33743  12.912   2.872  13.972  0.1525 -0.1337  0.0094
33544W        W33744  15.319   5.722   2.139 -0.1090  0.1854  0.0360
33545W        W33745  12.061   7.349  13.240  0.0227  0.0134 -0.1201
33546W        W33746   4.764  17.559   7.436  0.4840  0.0656  0.1236
33547W        W33747   6.782   0.855   4.985 -0.2160  0.2285 -0.0934
33548W        W33748  12.399  10.317  10.792 -0.4931  0.0900 -0.0583
33549W        W33749   6.870   5.512  16.576 -0.0232 -0.1719 -0.2635
33550W        W33750  10.945   3.046   2.638 -0.0815  0.0696  0.0106
33551W        W33751  11.118  18.033   0.169 -0.0575 -0.1208 -0.1651
33552W        W33752   9.280   4.867  14.448 -0.1094  0.1494  0.0834
33553W        W33753  13.512   8.444   9.604 -0.1079  0.2803  0.0615
33554W        W33754  17.895   3.481  11.419 -0.0692  0.1043  0.1130
33555W        W33755  16.836   8.481   8.675  0.4459  0.2359  0.2179
33556W        W33756  14.120   7.854   1.693  0.0879 -0.0085 -0.2831
33557W        W33757  12.158   4.343   0.309  0.2272 -0.7174  0.1897
33558W        W33758   7.299  10.216   7.830 -0.0841 -0.0934  0.1943
33559W        W33759  13.371   5.231  13.289 -0.1815 -0.0937 -0.3071
33560W        W33760  16.067   6.309  10.659 -0.0940 -0.1768 -0.0123
33561W        W33761  11.945   4.038   7.017  0.1689 -0.0389 -0.1116
33562W        W33762   9.377   8.152  11.978 -0.2719 -0.1435 -0.2380
33563W        W33763  15.861   9.651  11.734  0.1443  0.1440 -0.3613
33564W        W33764   6.470   5.349  12.371 -0.1302 -0.2604 -0.2557
33565W        W33765  15.694   2.527  12.030 -0.2029 -0.2490 -0.0122
33566W        W33766  10.725   5.914   8.519  0.0503  0.1255  0.1591
33567W        W33767  10.037  11.833  13.833  0.0441 -0.4842 -0.4023
33568W        W33768  17.131   4.581  11.036  0.1103  0.0507  0.1479
33569W        W33769  11.359  17.398  13.229  0.1081 -0.3237  0.1689
33570W        W33770   7.312  10.976  16.691 -0.0520 -0.0251 -0.0387
33571W        W33771  13.647  12.334   6.163 -0.1607 -0.1951 -0.0806
33572W        W33772  12.728   6.375   9.450 -0.0893  0.2897 -0.0217
33573W        W33773   1.181   2.804  13.066  0.1433  0.2347 -0.0103
33574W        W33774   8.733   9.974   5.094 -0.0705 -0.0165 -0.5930
33575W        W33775  14.869   0.961   4.276 -0.1130  0.0135 -0.1067
33576W        W33776  13.590  12.199   7.071 -0.1093 -0.1614 -0.0886
33577W        W33777   2.061   6.740  13.380 -0.1059 -0.2249  0.0700
33578W        W33778   9.558  16.594  13.925 -0.3064 -0.2240 -0.0391
33579W        W33779   9.707   3.287  18.200  0.1024  0.2626 -0.2462
33580W        W33780   6.142   3.029  17.369  0.2187 -0.0311 -0.2824
33581W        W33781   5.951   6.516   1.812  0.1320  0.1012 -0.1231
33582W        W33782  12.900  16.669  11.453 -0.0390  0.3689  0.1527
33583W        W33783   4.081   7.954  17.471 -0.4508 -0.1505  0.1734
33584W        W33784  14.072   3.546  12.804 -0.1491  0.1864 -0.0121
33585W        W33785   0.647  17.974   9.779  0.3832  0.2537 -0.1184
33586W        W33786  13.328   0.404   3.304 -0.1811  0.2933  0.2629
33587W        W33787   8.718   1.425   6.785 -0.3232 -0.2681 -0.0584
33588W        W33788  11.663  17.555  12.147  0.2596 -0.0093 -0.1960
33589W        W33789  12.317   5.258  12.801 -0.1152  0.1477  0.0097
33590W        W33790   7.875   6.334  14.592 -0.4169 -0.0643  0.0082
33591W        W33791   3.327   3.813  13.435 -0.1450 -0.1278  0.1189
33592W        W33792   5.592  14.494  15.095 -0.0529 -0.2903 -0.1673
33593W        W33793   0.081  15.464  17.359  0.1398 -0.1578  0.0603
33594W        W33794   4.451   9.160  18.111 -0.0304  0.2288  0.1816
33595W        W33795  12.623  10.511  14.485 -0.2766 -0.1685  0.0290
33596W        W33796   1.566   3.703  11.721  0.2525 -0.1204 -0.0060
33597W        W33797   7.830  14.552  14.667 -0.2022 -0.1177  0.2064
33598W        W33798   1.058   7.417  13.452  0.0379  0.1085  0.0851
33599W        W33799  17.010  11.671  14.030  0.1832  0.0159 -0.3158
33600W        W33800  10.638  11.939   6.257 -0.1525 -0.2204  0.0231
33601W        W33801   9.976   7.306   6.922 -0.0996 -0.1055  0.1452
33602W        W33802  10.231   1.483  10.255  0.0207  0.1011 -0.1356
33603W        W33803  17.216   2.760   2.747 -0.1937 -0.0306 -0.0739
33604W        W33804   2.156   4.063  11.159 -0.0595 -0.1086 -0.2015
33605W        W33805  11.241  17.835   2.391 -0.1531 -0.2455 -0.0467
33606W        W33806  12.829  10.493  17.830  0.0719  0.2064 -0.1084
33607W        W33807  12.095   8.600  14.369  0.1967 -0.2037 -0.1335
33608W        W33808   1.191  14.525   0.199 -0.0147  0.2837  0.1462
33609W        W33809  16.611   6.685   7.797 -0.0413  0.1317 -0.0020
33610W        W33810   8.029   7.202  14.898 -0.0477  0.0795 -0.5047
33611W        W33811  17.520   8.075   5.811 -0.0439 -0.1027 -0.0147
33612W        W33812  15.128   0.772  10.994 -0.0343 -0.2313 -0.0076
33613W        W33813   8.372   5.213   4.243 -0.5840 -0.0742 -0.0170
33614W        W33814  12.798   7.513  14.846  0.0284  0.1230  0.0688
33615W        W33815  13.556   6.864  15.575  0.1685  0.0259  0.2373
33616W        W33816   7.607  10.620  14.458 -0.0926  0.2108 -0.0838
33617W        W33817   2.011   5.829  12.983  0.0732 -0.2662  0.0383
33618W        W33818  14.353   3.205   2.443  0.1895  0.0371  0.3065
33619W        W33819  14.489   9.998  10.497  0.0486  0.0640 -0.1876
33620W        W33820  11.542   0.077  16.926  0.1123  0.1636  0.0419
33621W        W33821  14.453  14.551  15.967  0.2445  0.0815  0.0729
33622W        W33822  11.649   1.547   6.369  0.0798 -0.3156 -0.0728
33623W        W33823  10.897   2.283  11.791  0.0317  0.0013  0.1149
33624W        W33824  13.917  17.478  13.122 -0.1337 -0.4364  0.0430
33625W        W33825   0.863   1.568  11.061 -0.0997 -0.0640  0.0410
33626W        W33826  15.035  10.341   2.046 -0.0538 -0.2394 -0.0801
33627W        W33827   4.344  10.554   4.223 -0.0179  0.0252 -0.1082
33628W        W33828  10.780   5.955   0.918 -0.0800 -0.1519  0.0162
33629W        W33829   0.514   2.181   1.994 -0.2599 -0.1450  0.2115
33630W        W33830  18.066   5.785  13.712  0.0194 -0.1649  0.1073
33631W        W33831   3.251   9.146  13.628  0.1825 -0.2336  0.0240
33632W        W33832   3.156   1.345   6.204 -0.0065  0.3355  0.0067
33633W        W33833   9.196   3.698   6.512 -0.0411  0.0389 -0.1666
33634W        W33834   8.639  18.113  18.114  0.4647 -0.2109 -0.1014
33635W        W33835  13.635   6.124   3.353 -0.0744  0.0989 -0.1445
33636W        W33836   3.768   9.887  17.568 -0.0594  0.3764  0.0297
33637W        W33837   9.862   1.582   0.607  0.0510 -0.3529 -0.0841
33638W        W33838   8.853   8.493   0.697 -0.0354 -0.1404  0.0210
33639W        W33839  15.174   4.348  17.829 -0.2587 -0.0981  0.0519
33640W        W33840  13.613   0.969   0.442 -0.0023  0.1896  0.1894
33641W        W33841  10.407  10.507   0.096  0.0761 -0.0362  0.0252
33642W        W33842   2.440   3.425  17.393  0.0468  0.0283 -0.2349
33643W        W33843  12.817   6.164   2.805  0.0593  0.1367 -0.2435
33644W        W33844   9.743   7.252  12.730 -0.1110  0.3520 -0.0163
33645W        W33845   3.259   8.587  16.122 -0.0570  0.0523  0.0655
33646W        W33846   0.639   5.622  15.382  0.1417  0.0490  0.0361
33647W        W33847  12.101   2.831  10.276  0.1687  0.0097 -0.0565
33648W        W33848  13.827  17.283   1.119 -0.3041  0.1493 -0.2845
33649W        W33849   5.771   1.053  15.469 -0.0854 -0.1156  0.2313
33650W        W33850  13.042   9.462   9.936 -0.1614 -0.1905 -0.0697
33651W        W33851  13.127   1.060   1.553  0.1462  0.1811 -0.0466
33652W        W33852  17.707  11.133  14.242 -0.2165  0.3101  0.2642
33653W        W33853  12.551   0.487  14.221  0.2829  0.0079  0.1687
33654W        W33854   9.899   4.555   1.731 -0.1974 -0.0024  0.1115
33655W        W33855  17.283   6.663  17.161 -0.3083 -0.0386 -0.1316
33656W        W33856  14.167  14.927  13.004  0.1506 -0.0390  0.2502
33657W        W33857  11.082  11.074   8.161 -0.0720  0.2685  0.0247
33658W        W33858  16.543   2.532  11.137  0.2665 -0.3018  0.2338
33659W        W33859  14.760   5.791  13.833  0.1228 -0.0061  0.1939
33660W        W33860   3.784  16.182   2.853  0.1027 -0.3057 -0.0500
33661W        W33861   3.491  10.066   4.225  0.1506  0.2094  0.1686
33662W        W33862  12.475  11.968  13.041  0.0580 -0.0846 -0.1936
33663W        W33863  12.921   5.452  12.196 -0.0260 -0.0204 -0.2396
33664W        W33864  12.850   0.181   1.278  0.1750 -0.3481 -0.4037
33665W        W33865  16.825  15.404  17.817 -0.0792  0.0677  0.1351
33666W        W33866   0.747   4.835  16.599  0.1196  0.0396 -0.0008
33667W        W33867  10.734  11.001  12.430  0.1044 -0.2315  0.0091
33668W        W33868  15.896   7.871   0.612 -0.1465  0.0960  0.2204
33669W        W33869  11.066   5.885   2.771 -0.1895 -0.1361 -0.1693
33670W        W33870   3.838   2.259  14.319  0.0583 -0.1813  0.0998
33671W        W33871   3.970   6.722  11.879  0.0849  0.2595  0.2152
33672W        W33872   9.612   7.187   0.365  0.1771  0.2834  0.1149
33673W        W33873   4.898  10.654  17.913 -0.0810 -0.3690 -0.0919
33674W        W33874   1.249   7.749   2.283 -0.2551 -0.0061 -0.3994
33675W        W33875   2.320   2.810  16.634 -0.5124 -0.2695  0.3463
33676W        W33876  17.721  16.936  15.024  0.0112  0.1525  0.0982
33677W        W33877  10.931   9.917   9.882 -0.3748 -0.0393 -0.4504
33678W        W33878   8.371   2.632  15.353 -0.1310  0.2575 -0.2978
33679W        W33879  17.400   0.164   1.810  0.3809  0.0513  0.0676
33680W        W33880   9.176   4.151  15.693 -0.0470 -0.1516  0.1259
33681W        W33881   7.612   1.815   7.998  0.0080 -0.1061  0.2142
33682W        W33882   9.265   9.637  10.404  0.3675 -0.0600  0.1292
33683W        W33883   7.164   1.515  17.872 -0.2851  0.1953 -0.1434
33684W        W33884   0.526   1.691   1.836  0.1164  0.0304  0.1587
33685W        W33885   8.294   1.364   0.792  0.4197  0.1919 -0.1105
33686W        W33886   2.386   4.680  15.371 -0.1282  0.3372 -0.0085
33687W        W33887  17.353   1.842   6.539  0.0052 -0.1971 -0.1104
33688W        W33888   7.562  17.166  10.464 -0.0563  0.0205 -0.0624
33689W        W33889  11.511   6.330   2.308  0.2055  0.2656 -0.0202
33690W        W33890  14.797   3.244  17.950 -0.1221 -0.1568 -0.2371
33691W        W33891  12.260   5.361   8.268 -0.1758 -0.1597 -0.0134
33692W        W33892   9.531   2.958   3.583  0.1173  0.4406 -0.0188
33693W        W33893  10.646   4.383  17.956  0.0758  0.0728 -0.0103
33694W        W33894  14.242   6.240   3.618 -0.0266  0.1734  0.0858
33695W        W33895  11.973   5.316   1.318 -0.0780  0.0076 -0.0194
33696W        W33896  12.647   2.473   1.402 -0.0566  0.2452 -0.1814
33697W        W33897  10.996   8.409   0.247 -0.3651  0.0100  0.0539
33698W        W33898  11.759   4.567   0.572  0.0963  0.1397 -0.0705
33699W        W33899  13.212   0.778  16.623 -0.1057 -0.1259  0.4546
33700W        W33900  15.759   6.808   0.579  0.0683 -0.2496  0.1910
33701W        W33901  14.914   1.536  18.138 -0.2357 -0.0506 -0.2128
33702W        W33902   9.151   1.569   5.074 -0.0823  0.2173  0.3638
33703W        W33903   4.675   6.286  16.184  0.0607 -0.1471  0.2028
33704W        W33904  16.878  17.118   9.119  0.2136 -0.0713 -0.1747
33705W        W33905  18.029   1.470  13.134  0.1315  0.1755 -0.1129
33706W        W33906  11.726   3.618   8.459  0.2215  0.0413 -0.0734
33707W        W33907  13.357  17.623  12.400 -0.0030 -0.0041  0.0494
33708W        W33908   4.951   6.189  16.620  0.1284  0.2000  0.0899
33709W        W33909   7.592   2.117   3.263 -0.2651  0.0013 -0.0140
33710W        W33910   9.362   1.153   2.223  0.1271  0.3623  0.1666
33711W        W33911  17.281  12.271   9.535 -0.0135 -0.1555 -0.0502
33712W        W33912  16.846  13.593  12.888 -0.2420  0.1516 -0.2333
33713W        W33913  11.965   5.562  12.562 -0.1317  0.0297  0.4517
33714W        W33914  17.736  16.105  17.197  0.3079  0.3111  0.1194
33715W        W33915  16.774   2.295  13.023 -0.1218 -0.0412 -0.0091
33716W        W33916   7.652   5.054  16.855 -0.2586  0.0569  0.1082
33717W        W33917   4.000   7.205  13.657  0.1442 -0.3353 -0.0537
33718W        W33918  15.590  16.803  14.405 -0.2609 -0.0143  0.0968
33719W        W33919  16.894   2.454  16.979 -0.0215  0.0390 -0.1960
33720W        W33920   8.827  15.728  12.519 -0.3499 -0.0627 -0.0535
33721W        W33921  15.817  15.456   4.797  0.1096  0.0347  0.2831
33722W        W33922  11.498  16.529   2.753 -0.1989  0.4420 -0.3138
33723W        W33923   7.804   5.053  17.706  0.2480 -0.1672 -0.0608
33724W        W33924  10.867   6.103   3.804  0.0417  0.2157  0.2362
33725W        W33925  15.628   7.713  17.222  0.0132 -0.5285  0.2910
33726W        W33926  10.374   7.871  15.573  0.1260  0.2017 -0.1435
33727W        W33927  10.914  16.619   3.633  0.0545 -0.0667 -0.1179
33728W        W33928  14.674  11.741  17.840 -0.4472  0.2244  0.0125
33729W        W33929   9.380   4.163  14.036 -0.1582  0.3382  0.3379
33730W        W33930  15.598  11.011   0.642 -0.3341  0.3574  0.0146
33731W        W33931   5.066   0.227   5.077 -0.0154 -0.0058  0.0933
33732W        W33932  11.327   8.926   9.831 -0.0230 -0.2007  0.0700
33733W        W33933   0.524   1.525   9.399  0.0203 -0.1551 -0.1427
33734W        W33934   7.458   1.899   2.172  0.0215 -0.1811 -0.1924
33735W        W33935  13.925   5.319   1.105  0.0329 -0.1842 -0.0320
33736W        W33936   1.963  14.320   2.396 -0.1660 -0.0987  0.2230
33737W        W33937  13.376   0.736  10.512  0.1796  0.0301 -0.0544
33738W        W33938   4.325   1.173  16.785 -0.2041  0.0036 -0.1785
33739W        W33939   2.975   4.863   0.390 -0.0843 -0.0109  0.1890
33740W        W33940   6.043   9.821  16.821 -0.0197 -0.0640  0.0894
33741W        W33941  14.913  14.083  10.513 -0.1216 -0.0343  0.2905
33742W        W33942   9.189  15.181  14.040  0.3082  0.0540 -0.2215
33743W        W33943   6.757   5.832  14.515 -0.4203  0.0611 -0.0903
33744W        W33944   7.363  14.977  17.757  0.3357  0.1893 -0.1889
33745W        W33945   5.833   2.428   4.354  0.1067  0.0694 -0.1745
33746W        W33946  14.431   6.947  16.890  0.1749  0.0293  0.0395
33747W        W33947  12.328   1.799  17.382 -0.0692 -0.0739  0.0355
33748W        W33948   1.683  11.373  13.827  0.1119  0.2510  0.1356
33749W        W33949  10.172  14.860  12.260  0.3005 -0.1455 -0.2515
33750W        W33950   8.856   8.180  16.293 -0.2708 -0.1943  0.2849
33751W        W33951   5.418   2.115   5.191  0.1123 -0.1002 -0.0047
33752W        W33952  10.255  10.130   6.133 -0.3043 -0.2665  0.1598
33753W        W33953   6.317  11.710   7.380 -0.0924  0.1458 -0.1981
33754W        W33954  15.714   5.946   1.325 -0.0437  0.1370 -0.0198
33755W        W33955   1.197   9.722   3.922  0.1130 -0.2045  0.0769
33756W        W33956   7.871   4.742   1.260 -0.1489  0.0493 -0.0639
33757W        W33957  12.018   3.267   0.092 -0.0133  0.0134 -0.0839
33758W        W33958  16.705  12.722  10.776 -0.2050  0.2058 -0.0041
33759W        W33959   7.969   6.785   9.548  0.0606  0.0052 -0.1387
33760W        W33960  13.179   6.711  16.947 -0.0717 -0.1136  0.1322
33761W        W33961  14.511   3.354   4.392 -0.1231  0.1742 -0.0687
33762W        W33962  12.519   6.444   5.600  0.0393 -0.2957  0.1043
33763W        W33963  14.961   0.444   6.409 -0.1903  0.1766  0.0213
33764W        W33964   8.222  11.485   5.895  0.3399  0.1074  0.0292
33765W        W33965  12.933   6.347  14.009  0.0461  0.0108  0.1719
33766W        W33966   4.269   1.505  13.742 -0.0633  0.2484 -0.1728
33767W        W33967   8.967   7.716  16.959 -0.0156 -0.0653 -0.0205
33768W        W33968   8.866  13.172   5.138  0.0954 -0.1298 -0.2303
33769W        W33969   7.439   1.854  14.147  0.0481  0.0681 -0.0089
33770W        W33970  11.041   5.213  15.553  0.0675  0.1777  0.1285
33771W        W33971  14.179   2.968  15.755  0.1721 -0.0983 -0.0280
33772W        W33972   8.432   6.040   0.720  0.0745 -0.0150 -0.0288
33773W        W33973  10.686   7.421  14.292  0.0801 -0.3547  0.0551
33774W        W33974  16.296   5.001   5.616  0.0622 -0.0483  0.0726
33775W        W33975  10.922   3.032   6.894 -0.1140  0.0364  0.0547
33776W        W33976  13.019   9.032  16.526  0.2127  0.0750 -0.0460
33777W        W33977  11.776  15.459   3.901  0.0995  0.3185  0.1226
33778W        W33978   8.247   6.536  11.601 -0.1984  0.0501 -0.0730
33779W        W33979   8.163   0.829   0.294 -0.0101  0.0740  0.2573
33780W        W33980  10.680   1.165  12.553  0.0866  0.2761  0.3590
33781W        W33981   3.674  11.633   3.179  0.0068 -0.0291 -0.1087
33782W        W33982  11.949   2.596   6.412  0.0017 -0.1222  0.1845
33783W        W33983   4.551   6.807   8.779  0.0390 -0.1663 -0.2486
33784W        W33984  12.982   4.503  12.057 -0.1391 -0.3292  0.3176
33785W        W33985   9.413  10.229  12.364  0.1253 -0.3974  0.1802
33786W        W33986  15.033   6.878   5.526 -0.2307  0.0532 -0.1190
33787W        W33987  10.742   0.039  11.931  0.0488  0.0640 -0.2279
33788W        W33988   7.460   4.938  17.294  0.2402  0.0858  0.1048
33789W        W33989  14.355  15.977   4.924  0.0736 -0.0175 -0.1695
33790W        W33990  12.203   5.528   1.676  0.2861  0.6699  0.1985
33791W        W33991  11.762   7.340   3.740  0.0316  0.0676  0.0064
33792W        W33992   6.150   4.969  12.583 -0.1023  0.0295  0.2901
33793W        W33993   2.121   2.539   0.782  0.0188  0.3216  0.1003
33794W        W33994   0.236   0.590  17.747  0.0943 -0.2080  0.0200
33795W        W33995   5.919   5.958  14.254  0.1285  0.1965 -0.1920
33796W        W33996  17.317  16.791  16.865  0.2216  0.0736  0.5268
33797W        W33997   4.051  14.602   7.703  0.1799  0.1728  0.1765
33798W        W33998  10.535   0.614  15.625 -0.2297 -0.1642  0.3760
33799W        W33999  11.887   8.443   7.545  0.0754 -0.1839 -0.0972
33800W        W34000  14.326   8.713  16.565 -0.0690 -0.1921 -0.0173
33801W        W34001  12.059  13.631  15.624  0.0147  0.1296 -0.0105
33802W        W34002  16.042   6.918   7.142 -0.5430  0.0180  0.0006
33803W        W34003   8.918   0.644   5.478 -0.0043  0.1514  0.0568
33804W        W34004  12.431   2.883   6.458  0.0964  0.4390  0.0236
33805W        W34005  17.782   2.141  14.552  0.2286  0.2148 -0.1366
33806W        W34006   3.695  18.024   3.027  0.1576 -0.4401  0.4064
33807W        W34007  11.477   7.393  14.460 -0.1549  0.0489  0.5139
33808W        W34008   9.087  10.363   3.324  0.1074  0.2206  0.0555
33809W        W34009   6.520   2.920  16.141 -0.2893  0.5416 -0.1746
33810W        W34010  12.955   9.557   8.884 -0.0755  0.3207  0.0493
33811W        W34011  10.489   4.826  14.373 -0.2432 -0.0369 -0.2186
33812W        W34012  12.135   3.356  14.107 -0.2138  0.2164 -0.1331
33813W        W34013   2.736   3.068   5.017  0.2290  0.0855 -0.2672
33814W        W34014  12.926   5.818   6.759 -0.0710  0.2339 -0.0039
33815W        W34015  10.652   8.645   9.507  0.0923 -0.3211  0.0812
33816W        W34016  10.751   8.193  12.584  0.3063  0.1394 -0.1093
33817W        W34017  17.468   1.540  13.890  0.1924 -0.0170 -0.0127
33818W        W34018  10.672  13.778  16.748  0.2028  0.1769 -0.0028
33819W        W34019  15.812   8.587   3.146  0.1278  0.2873  0.0387
33820W        W34020  14.518   0.168   7.313 -0.0922 -0.0891 -0.3301
33821W        W34021  16.261   3.737   3.771  0.0721 -0.3371 -0.2617
33822W        W34022   0.669  10.725  15.670  0.2923  0.0204 -0.4219
33823W        W34023  13.114   2.995  13.522 -0.0494 -0.0870 -0.0205
33824W        W34024  15.356   3.184  17.931 -0.2480 -0.0998 -0.3151
33825W        W34025   7.699  14.218   4.918 -0.0637 -0.0559 -0.1665
33826W        W34026  12.638   4.852  17.320 -0.3122 -0.1637 -0.0874
33827W        W34027  16.452  10.268   0.341 -0.2509  0.2542 -0.0560
33828W        W34028   9.528  10.552  11.038  0.2446 -0.0701 -0.1767
33829W        W34029   7.424   5.644  13.952 -0.0220 -0.0207  0.0783
33830W        W34030   4.992  11.760  16.655  0.2809  0.0688  0.0138
33831W        W34031   9.464   5.724  13.984  0.3088  0.1391  0.0825
33832W        W34032  14.919  11.457  10.500 -0.0685 -0.1228 -0.1493
33833W        W34033   0.637   2.809   6.249  0.1110  0.1377 -0.1225
33834W        W34034  10.172   0.662   1.783 -0.1202 -0.0234  0.1812
33835W        W34035  10.909   4.762  15.191 -0.3254  0.0772 -0.0304
33836W        W34036  13.001   7.375  11.781  0.1023  0.0117 -0.0257
33837W        W34037  10.039   9.352  15.065  0.0557 -0.2014  0.0241
33838W        W34038  17.299  15.594  10.979  0.2992  0.0299 -0.1025
33839W        W34039  13.986  10.113  15.030 -0.1178  0.2193 -0.0395
33840W        W34040  14.670   7.526   9.698 -0.1175  0.0958  0.5786
33841W        W34041  10.299  14.272  11.213 -0.3171  0.1578  0.0958
33842W        W34042  11.063   3.519  10.823  0.0088 -0.0219  0.3517
33843W        W34043  12.868   3.576  16.949 -0.0185 -0.0627  0.1542
33844W        W34044  14.511   1.017   3.739  0.0801 -0.2699 -0.0292
33845W        W34045  17.692  11.375   3.482  0.0119  0.2516  0.0218
33846W        W34046  16.663  13.052  15.297  0.0452  0.0569 -0.0584
33847W        W34047   8.237  15.295  13.551  0.0041 -0.0068 -0.1880
33848W        W34048  15.705  10.147  13.775  0.0993 -0.1968  0.1452
33849W        W34049   4.451   6.084   7.844 -0.1714  0.3045 -0.2883
33850W        W34050  13.647   8.463  17.668 -0.1358  0.3059 -0.0158
33851W        W34051  14.820   4.466   5.021 -0.0880  0.0161  0.2877
33852W        W34052  11.763   5.629   1.015 -0.1498 -0.2621  0.1725
33853W        W34053  14.989   9.310   0.667 -0.1563  0.1069  0.1262
33854W        W34054  12.856  16.761  16.057  0.0255  0.0244  0.1984
33855W        W34055   7.454   4.640   2.675 -0.0461 -0.0795 -0.0106
33856W        W34056  17.995  10.651   0.312 -0.0586 -0.0453 -0.2269
33857W        W34057   4.499  17.113   2.325  0.2749 -0.2519 -0.0470
33858W        W34058   3.546   6.273  15.911  0.3379 -0.0125 -0.1504
33859W        W34059   9.592  16.620   3.265  0.5432 -0.1939 -0.2763
33860W        W34060   6.784  16.078  13.826  0.2782  0.1880 -0.0334
33861W        W34061   5.985  15.587  12.130  0.1745 -0.5146 -0.1856
33862W        W34062  13.100   3.559  17.603  0.1307 -0.0048 -0.0970
33863W        W34063  17.557   4.161   4.186  0.0139  0.2874  0.3268
33864W        W34064  17.104   7.089   0.338 -0.5514  0.3095  0.1908
33865W        W34065  16.169   8.828  16.557 -0.2513 -0.0478 -0.0106
33866W        W34066  16.152   0.168  15.766 -0.0641 -0.0316 -0.1908
33867W        W34067  14.497   2.754  18.050 -0.0763  0.2471 -0.2162
33868W        W34068  12.670   6.669  12.182  0.4875 -0.2937 -0.2640
33869W        W34069  15.853   4.391  14.221  0.0766 -0.0908 -0.1428
33870W        W34070  18.136   5.665  12.071  0.0510  0.0574 -0.0915
33871W        W34071  15.540   2.809   7.893 -0.2615  0.1066 -0.1653
33872W        W34072  16.502   1.445  11.475  0.0720  0.0389 -0.1181
33873W        W34073  10.019   7.076   1.560 -0.0294 -0.0314  0.1590
33874W        W34074  17.129  11.201  13.288 -0.2841  0.0915 -0.1344
33875W        W34075  12.303  17.613  17.856 -0.2673 -0.0527 -0.0247
33876W        W34076  10.875   0.939   1.227  0.0098  0.1765 -0.3206
33877W        W34077  16.483   5.310   3.935 -0.2224  0.4315 -0.0222
33878W        W34078  13.384   9.747   1.391  0.0771 -0.0635  0.2636
33879W        W34079  11.642   8.259  12.339  0.2750 -0.1026  0.1448
33880W        W34080  13.895   3.486   2.465 -0.3314 -0.1467 -0.3985
33881W        W34081  12.650  16.323  17.039  0.3119 -0.0443  0.1098
33882W        W34082  11.541   2.088   2.180  0.3920  0.1793 -0.1898
33883W        W34083  15.152   6.751  17.992  0.0388 -0.1253  0.2504
33884W        W34084   0.044   3.817  12.189  0.1658  0.3008 -0.1941
33885W        W34085  13.397   0.713   2.867  0.3818 -0.2646 -0.2040
33886W        W34086  13.687  16.625  16.833 -0.3533  0.1891 -0.2015
33887W        W34087   0.208   0.580  15.244  0.0983 -0.1727 -0.3647
33888W        W34088  17.791   4.089  11.414  0.0682 -0.0275 -0.1907
33889W        W34089  11.761  10.517  10.262  0.1442 -0.0343  0.0872
33890W        W34090  15.246   4.143   0.768 -0.1404  0.0330  0.1129
33891W        W34091   6.256   8.860  14.536  0.0525  0.0634  0.1568
33892W        W34092   9.314   2.841   1.213  0.2185 -0.2112 -0.1811
33893W        W34093  12.212   6.554   3.194  0.1238 -0.2995  0.2039
33894W        W34094   6.169   3.704  16.924  0.0436  0.0852 -0.4285
33895W        W34095  10.972  17.128   3.398  0.0212 -0.0997  0.1440
33896W        W34096   9.741  11.565   8.195 -0.3326 -0.0227 -0.1155
33897W        W34097  10.419   4.614   1.158 -0.0562  0.0672 -0.0041
33898W        W34098   6.207   1.311   2.098 -0.1379 -0.1066 -0.0202
33899W        W34099   2.416  10.099  15.204  0.2235 -0.0647 -0.2511
33900W        W34100  12.007   1.592   1.503 -0.2145  0.2652 -0.0166
33901W        W34101  11.198  10.508   4.110 -0.2091 -0.0235  0.0124
33902W        W34102  17.742   6.762  10.199  0.0465 -0.1401 -0.0172
33903W        W34103   9.672   4.736  16.757 -0.3099 -0.2528 -0.1960
33904W        W34104  17.877  15.293  11.846 -0.1050  0.1548  0.1132
33905W        W34105   9.863   5.619  17.835  0.1456 -0.0386  0.2082
33906W        W34106   1.767   4.521   3.788  0.0801  0.3463  0.4215
33907W        W34107  13.401   4.033  14.600 -0.0518 -0.2261 -0.2835
33908W        W34108  12.323  13.895   5.088 -0.0114  0.1025  0.1218
33909W        W34109  10.376   4.207  10.187 -0.2314  0.2606  0.1455
33910W        W34110  13.393   7.031   2.567  0.0516  0.0150  0.1527
33911W        W34111   9.666   0.047  14.094  0.3294 -0.1162  0.1010
33912W        W34112   4.834   9.765   3.433  0.2491  0.0577 -0.0365
33913W        W34113   2.119   3.004  11.692  0.1069 -0.0075 -0.1045
33914W        W34114   6.873   7.268  14.415  0.1312 -0.0713  0.0103
33915W        W34115  10.981  15.418  14.904  0.1519  0.2251  0.2540
33916W        W34116  13.608  10.575  15.494  0.2805  0.0498 -0.0719
33917W        W34117   9.768   3.409  16.293 -0.1107  0.0197 -0.0317
33918W        W34118  11.340  16.934   2.551  0.2171 -0.1035  0.2064
33919W        W34119  17.264   4.724   1.263 -0.0284  0.3031  0.1435
33920W        W34120  14.877   8.325  15.821  0.0136 -0.0567 -0.1669
33921W        W34121   7.565   2.822   5.695  0.1881 -0.0593  0.0160
33922W        W34122  14.286  12.879   8.018 -0.3105 -0.2340  0.1642
33923W        W34123  12.890   4.209  10.210 -0.1247  0.0668  0.6070
33924W        W34124  16.898  17.758  10.420  0.0594 -0.1587 -0.2673
33925W        W34125   4.170   1.141   3.854  0.1958  0.1301 -0.0323
33926W        W34126  17.428   2.498  16.091  0.3389 -0.1130  0.0944
33927W        W34127  12.037  15.807   9.426 -0.2064  0.1980  0.3025
33928W        W34128  12.192  16.976   3.066 -0.0239 -0.0548  0.1252
33929W        W34129  15.688   2.989  14.522 -0.2564 -0.0272  0.0172
33930W        W34130  13.855  18.051   7.721  0.3966  0.1742  0.0669
33931W        W34131  14.388   5.496   0.172  0.0174  0.1225 -0.0274
33932W        W34132  14.591   4.405  17.765  0.1880  0.3942  0.2307
33933W        W34133   0.048  11.612   2.984 -0.0101 -0.0289  0.1750
33934W        W34134  16.486   5.506   9.868  0.0714 -0.0606 -0.1129
33935W        W34135  16.188  18.180   4.436  0.1564  0.3907  0.0911
33936W        W34136  10.432  10.067   1.987 -0.2380 -0.0037 -0.0290
33937W        W34137   9.760  10.295  17.102 -0.2537  0.3590 -0.0116
33938W        W34138  14.855  16.130  11.292 -0.0332  0.0426 -0.2289
33939W        W34139  12.014   6.581   4.003  0.1849 -0.3912 -0.0535
33940W        W34140  15.894   1.713   1.707  0.1881 -0.1996 -0.2336
33941W        W34141  16.601   2.949  10.867 -0.0659  0.2897 -0.0859
33942W        W34142  11.506  17.454  14.965  0.1495 -0.2168  0.1184
33943W        W34143   6.270   5.748  11.433  0.2275 -0.2154  0.0742
33944W        W34144  10.131   4.758  14.768  0.1465 -0.1358 -0.4333
33945W        W34145  17.284   6.482  10.139  0.2652  0.0713 -0.4556
33946W        W34146   7.468  12.287   0.587 -0.0473  0.2162 -0.2800
33947W        W34147   8.835   3.585  17.416 -0.0068 -0.0220 -0.3747
33948W        W34148  18.010   9.991  15.078  0.0737 -0.2405 -0.1548
33949W        W34149   9.446  13.806  17.136 -0.2479 -0.2206  0.1257
33950W        W34150  12.617   9.098  17.356 -0.2292 -0.2945 -0.1048
33951W        W34151  14.136   5.107   5.262  0.2025 -0.0970 -0.0518
33952W        W34152   1.386  12.344  14.766 -0.0682 -0.1069 -0.1503
33953W        W34153   9.528   0.784   3.120 -0.2417  0.1109 -0.2263
33954W        W34154  11.692   5.395  16.359  0.1466 -0.1356 -0.1351
33955W        W34155   0.478   5.535   1.306  0.1090  0.0507 -0.1783
33956W        W34156   5.086   7.291   1.606  0.1122  0.0063 -0.0690
33957W        W34157   4.940   9.825   4.348  0.1595 -0.1987 -0.1926
33958W        W34158   9.571   5.452   0.519  0.1122  0.0054  0.2507
33959W        W34159   6.353   7.398   1.326 -0.2778  0.1899 -0.0972
33960W        W34160   9.215   6.517  13.611 -0.1249  0.4037 -0.1405
33961W        W34161  10.506   8.443  17.503  0.2747 -0.2803  0.1460
33962W        W34162  14.983   6.607   0.241 -0.0104 -0.1054  0.0693
33963W        W34163  10.032   4.222   0.074  0.2454  0.4083 -0.0998
33964W        W34164   3.439  11.056   3.292  0.0734  0.0815 -0.1888
33965W        W34165  15.421   4.509  16.495 -0.3670 -0.1037  0.1209
33966W        W34166   0.945  10.228  13.980 -0.1583 -0.1779  0.0608
33967W        W34167   4.881   9.569  13.755  0.1931 -0.1946  0.1156
33968W        W34168  13.036   3.964  17.249 -0.0380  0.0911 -0.0891
33969W        W34169  16.078   5.572   1.329  0.0211  0.0709 -0.1322
33970W        W34170   4.177   4.529  10.130  0.2334 -0.1243  0.1530
33971W        W34171  11.984  15.212   0.533  0.4219  0.0780  0.1876
33972W        W34172   8.821   3.602  16.421  0.0586 -0.0449 -0.0976
33973W        W34173  13.926   4.382   0.885  0.0559  0.0844 -0.1252
33974W        W34174   6.689   2.258   1.126 -0.0976  0.2837 -0.1506
33975W        W34175  14.106   5.531  15.616  0.0762 -0.1254  0.1749
33976W        W34176  10.457   7.454   7.653  0.0313  0.1448 -0.0063
33977W        W34177  13.238  10.721   0.630  0.0078  0.1163  0.2046
33978W        W34178  13.520   2.334   1.589  0.0614  0.0926 -0.0404
33979W        W34179  11.555  10.962   4.244  0.0713  0.2119  0.2746
33980W        W34180  14.606   6.015  15.618  0.3319  0.0813  0.2303
33981W        W34181  11.763   8.382   0.666 -0.0408 -0.2099  0.1035
33982W        W34182  11.303  17.242   3.003 -0.1111  0.2334 -0.0009
33983W        W34183  12.212   7.222   1.941 -0.1076 -0.0887 -0.1624
33984W        W34184  15.689   7.532   1.761  0.4474 -0.2935  0.0234
33985W        W34185  14.601   1.184   2.772  0.0985 -0.2677 -0.0203
33986W        W34186  15.071   7.264  13.345 -0.0399 -0.0606  0.0730
33987W        W34187  17.955  11.550  17.045  0.1423  0.0063 -0.1100
33988W        W34188  15.590   3.311  14.141 -0.1014  0.1657 -0.1969
33989W        W34189  12.567   9.279   2.480 -0.0448 -0.1378 -0.0554
33990W        W34190  11.047  17.946   0.786 -0.1753 -0.0857 -0.1040
33991W        W34191   6.293   6.628  16.031 -0.0544 -0.2927 -0.2247
33992W        W34192   8.165  17.337   2.645 -0.0202  0.2277 -0.0710
33993W        W34193   2.172   0.437  16.254  0.0111 -0.0239  0.0877
33994W        W34194  14.613   5.691  12.044  0.1002  0.2210 -0.0462
33995W        W34195   9.974   2.548  16.465 -0.0747  0.2144 -0.2050
33996W        W34196  14.020  11.501  14.746 -0.0166 -0.2629  0.0131
33997W        W34197  14.624  15.144  12.151 -0.3603 -0.2817  0.0950
33998W        W34198  10.094   7.821  17.789  0.0716 -0.0164  0.1534
33999W        W34199  13.574   3.353  12.730  0.1065 -0.0151  0.0997
34000W        W34200  13.282  12.856   6.218 -0.3266 -0.1020  0.0027
34001W        W34201  11.282  13.365   6.393  0.0253 -0.1630  0.2837
34002W        W34202  14.577   8.953  17.847  0.0392 -0.2357  0.0548
34003W        W34203  15.254   8.547   5.606 -0.2323 -0.0193  0.1847
34004W        W34204  11.952  10.222   3.346 -0.0007  0.1133 -0.1679
34005W        W34205  13.258   9.059  15.227 -0.0346 -0.0621  0.0864
34006W        W34206   1.681   2.416   0.424  0.2144  0.1992 -0.0733
34007W        W34207   8.470  10.426   5.248  0.2044 -0.4615  0.1552
34008W        W34208   5.405   8.580  15.805 -0.1480  0.0585  0.1370
34009W        W34209  12.990   6.845   4.361  0.1499  0.3173  0.2020
34010W        W34210  11.121  13.512   8.528 -0.0372  0.0177  0.0172
34011W        W34211  12.000   8.924   7.712 -0.1103  0.4529 -0.0584
34012W        W34212  10.477   1.609   2.659  0.1312 -0.2872  0.1913
34013W        W34213   0.845   7.173  15.709 -0.2363  0.0036 -0.0561
34014W        W34214   3.832   1.422  17.618  0.1159 -0.0430 -0.2469
34015W        W34215   9.903  10.590  11.367  0.4457  0.0942  0.2201
34016W        W34216  11.793   6.250   1.013 -0.0598 -0.0556 -0.0308
34017W        W34217   1.609   9.299   1.808 -0.1468  0.0336 -0.2138
34018W        W34218   6.481   7.876   0.451 -0.1946 -0.1377 -0.1934
34019W        W34219  16.575   7.030   7.418  0.0582  0.0141 -0.0900
34020W        W34220  10.703  13.188   1.270  0.2763 -0.0656  0.3940
34021W        W34221  17.963  10.642  15.511 -0.1887 -0.2720 -0.0533
34022W        W34222  11.758  11.218  18.022 -0.2199  0.1014  0.0429
34023W        W34223  16.168   8.173   3.274  0.0786 -0.0355  0.2023
34024W        W34224   7.849  10.536   4.056 -0.0083  0.1222 -0.1222
34025W        W34225   4.782  14.842   3.570  0.3425 -0.1587  0.0390
34026W        W34226   0.296  11.408   2.078 -0.2554 -0.5302  0.0269
34027W        W34227  15.482   8.051   2.593 -0.1426  0.2818  0.3891
34028W        W34228   1.645  12.414  12.858  0.3411 -0.0967 -0.0109
34029W        W34229  10.151   4.808   0.067 -0.1218 -0.1543 -0.0341
34030W        W34230  15.879   1.278   5.916 -0.0730  0.2226 -0.2773
34031W        W34231   4.563  12.479  10.067  0.2003 -0.4005 -0.2885
34032W        W34232   8.959  10.948   4.608 -0.2743  0.1029  0.3998
34033W        W34233  12.549   1.838   0.846  0.1330  0.0072 -0.1629
34034W        W34234  11.009   7.937  13.593 -0.3309 -0.0655 -0.1015
34035W        W34235  11.427   9.603   8.922  0.0897  0.0044  0.0899
34036W        W34236   0.401  17.378   4.929  0.0163 -0.2358 -0.3975
34037W        W34237  13.222  18.165  10.316 -0.0002 -0.1142 -0.1447
34038W        W34238  13.480   2.145   3.242 -0.3039 -0.0052 -0.3006
34039W        W34239  11.188   9.210   1.092 -0.1536  0.2201  0.1816
34040W        W34240   2.291   9.866  17.977  0.0939 -0.1219 -0.0953
34041W        W34241   3.243   6.660   2.254  0.0342 -0.1620 -0.0169
34042W        W34242   8.814  11.658   8.163  0.1073 -0.1221  0.1126
34043W        W34243   9.801  12.482   3.255  0.3351  0.1165 -0.0100
34044W        W34244   9.811  12.830  16.492 -0.0166  0.3544  0.0197
34045W        W34245   1.378  12.145   4.446  0.6935  0.3262  0.3327
34046W        W34246   3.018  13.442   3.865  0.0297  0.0677  0.0435
34047W        W34247   9.010   2.602   1.608  0.2827 -0.1019  0.0652
34048W        W34248  14.614  10.096   0.112 -0.0078  0.0942 -0.1415
34049W        W34249  13.267  10.397  13.602 -0.1202 -0.1082 -0.1051
34050W        W34250  15.243   3.487  11.044  0.0777 -0.2105  0.0509
34051W        W34251  15.198   5.441   0.340  0.0455 -0.2182  0.0408
34052W        W34252  17.447   7.522  13.622  0.3164 -0.0141  0.4590
34053W        W34253  15.806  12.074  17.588  0.0997  0.1535  0.0862
34054W        W34254   0.512   8.673  17.503 -0.1375  0.2996  0.1325
34055W        W34255   8.589  12.686  18.083  0.0289 -0.0209 -0.0119
34056W        W34256  14.710   1.051   3.285  0.0343 -0.0422 -0.2756
34057W        W34257  10.360   7.364  17.104  0.2205 -0.0411  0.0367
34058W        W34258   9.956  10.418  15.104 -0.1058  0.0801  0.0903
34059W        W34259  15.527   8.623   4.170  0.0158  0.0834  0.0432
34060W        W34260  15.497   4.717  17.654  0.1313 -0.3570 -0.0007
34061W        W34261   6.314   7.279   7.585 -0.5264 -0.0759 -0.1768
34062W        W34262  11.543   3.476  17.521  0.0839 -0.1580  0.0868
34063W        W34263   5.906  13.538   0.319  0.0340 -0.0088 -0.2124
34064W        W34264   7.517   7.319  17.239  0.1213 -0.4258  0.1927
34065W        W34265  12.783   7.781  15.273 -0.1443 -0.0978  0.0156
34066W        W34266   9.789   8.194   1.003 -0.0363 -0.0907 -0.1844
34067W        W34267   7.439   4.223   0.452 -0.4139 -0.0412  0.3414
34068W        W34268   5.961  11.903   8.961  0.2572  0.1286 -0.0124
34069W        W34269   0.081  13.429  15.841 -0.0689 -0.0420  0.0768
34070W        W34270  10.440  10.607   8.821 -0.0208  0.0508 -0.1618
34071W        W34271   9.179  11.991   8.337  0.1618  0.0661  0.1949
34072W        W34272  11.223  10.409   5.520  0.0319 -0.0685  0.0974
34073W        W34273  10.344   5.790   3.920 -0.3473  0.0573  0.0756
34074W        W34274  10.932  12.212  15.180  0.2063  0.2240  0.0740
34075W        W34275  12.494  11.816   9.993 -0.1889 -0.1734  0.1405
34076W        W34276   3.391   8.692   2.566  0.1382 -0.3016 -0.1258
34077W        W34277  15.819   1.577   4.037  0.2323  0.1044  0.2448
34078W        W34278  10.972   6.704  17.129  0.2259  0.2180 -0.0673
34079W        W34279   3.794  10.207  11.325 -0.2018 -0.1659 -0.1130
34080W        W34280   4.324  14.325   8.049  0.0724  0.0502  0.2670
34081W        W34281  13.174  14.164   0.111 -0.0278  0.3009 -0.0166
34082W        W34282  17.371   1.221   7.608  0.1571 -0.1951 -0.3515
34083W        W34283   9.449   7.972  11.438  0.1271  0.1053 -0.2180
34084W        W34284  12.243  11.754   8.906 -0.0302 -0.0404  0.1794
34085W        W34285   5.753   8.007  11.443 -0.1122 -0.1583 -0.0025
34086W        W34286  12.120   7.407  10.642 -0.3063  0.0238  0.3894
34087W        W34287   5.020  15.739   6.794 -0.2630  0.1090 -0.3304
34088W        W34288   4.336  13.933   4.727 -0.2431 -0.0615  0.0253
34089W        W34289  13.867   5.805   3.658 -0.0230  0.1556 -0.1065
34090W        W34290  14.068   1.767  14.114  0.4073 -0.1930  0.0017
34091W        W34291  18.139   7.615   8.461  0.1454 -0.0178  0.0651
34092W        W34292   9.281   8.149  14.508  0.2068 -0.0731 -0.1643
34093W        W34293   0.732  11.772   4.950  0.1681  0.1002  0.0000
34094W        W34294   9.325  12.545   6.045  0.0290  0.0917  0.1245
34095W        W34295  13.491   7.985  15.781  0.2228 -0.0812  0.1108
34096W        W34296  13.164   9.814  15.715 -0.0058 -0.0677  0.3042
34097W        W34297   0.743  11.787   3.431 -0.3126 -0.2806 -0.1671
34098W        W34298  16.613  13.042   4.832  0.1808 -0.0193  0.1359
34099W        W34299   0.522   8.154   3.875  0.0023 -0.0695 -0.2467
34100W        W34300  10.260   9.587  18.083  0.0602  0.0389  0.2109
34101W        W34301  14.995   5.514   8.699 -0.1743 -0.1428  0.1882
34102W        W34302   2.522   9.747   0.197 -0.1286 -0.0042 -0.3043
34103W        W34303  14.055  13.933   3.795  0.0312 -0.3122 -0.2002
34104W        W34304  14.110  12.545  17.886 -0.0439  0.0474  0.2114
34105W        W34305   9.146   4.982  15.630  0.2812  0.0256  0.0559
34106W        W34306  11.669  14.622   5.920  0.1980 -0.1472  0.0395
34107W        W34307  14.852  16.514  16.597  0.2019  0.0567 -0.1058
34108W        W34308   0.632   2.875  17.003 -0.0850  0.3966 -0.3727
34109W        W34309  13.118  15.407   2.629  0.0385  0.0093  0.0558
34110W        W34310   5.934  12.915   3.464 -0.0128  0.1894  0.0182
34111W        W34311  15.808  17.274  17.015 -0.1276 -0.1413 -0.0183
34112W        W34312  17.937  14.298   0.756  0.0251  0.1452  0.1970
34113W        W34313  16.336  11.501   6.817  0.0887  0.1278  0.1536
34114W        W34314   3.112  12.816  12.703 -0.4328 -0.0333 -0.3614
34115W        W34315   9.189  12.549   8.373  0.1891 -0.2087 -0.1214
34116W        W34316  12.281   9.083  11.505 -0.2018 -0.0652  0.1287
34117W        W34317  10.667   8.242   1.520 -0.1778  0.4816  0.0758
34118W        W34318  15.770   5.047   6.415 -0.0889  0.1176  0.0007
34119W        W34319  11.024   4.332  15.468  0.2133 -0.0141  0.2153
34120W        W34320   0.854   5.355   1.027  0.1061  0.3770 -0.2672
34121W        W34321   2.369   1.267  18.168 -0.0208  0.1416 -0.0336
34122W        W34322   0.438  12.177   4.811 -0.1686  0.0614 -0.0554
34123W        W34323   2.507  12.509   4.401  0.2814 -0.0744 -0.2161
34124W        W34324  10.892  11.927   5.344  0.1423 -0.0557  0.2559
34125W        W34325   9.517   9.707  14.867 -0.0789  0.2362  0.1138
34126W        W34326   5.680   8.301   7.164 -0.2242 -0.0545  0.2306
34127W        W34327   9.116   3.014  11.032 -0.0350 -0.2641 -0.2839
34128W        W34328  10.914   3.735  16.218  0.1839 -0.3262  0.1228
34129W        W34329  10.540   5.640   5.836  0.1477  0.0318 -0.1399
34130W        W34330   2.902   9.991  14.907  0.0787  0.1279  0.1366
34131W        W34331   7.516   3.071   2.694 -0.1503 -0.3119  0.1198
34132W        W34332  13.271   8.118  15.389  0.0044 -0.1456  0.1571
34133W        W34333  11.137  16.501   2.302 -0.0647 -0.0557 -0.0754
34134W        W34334  13.871  15.094   8.672 -0.4666  0.2571  0.1982
34135W        W34335  11.598   1.281   5.540 -0.4437 -0.0754  0.1490
34136W        W34336   4.845   3.464   6.040 -0.0688  0.0231  0.0332
34137W        W34337   0.023   0.049   3.988  0.0280  0.2019  0.1479
34138W        W34338   8.747  11.226  17.690  0.0101 -0.2767 -0.1192
34139W        W34339   5.685   8.969  13.724 -0.0081  0.0356  0.0900
34140W        W34340   0.404   2.440   0.799  0.2396  0.0679 -0.0323
34141W        W34341  11.891   5.719  17.759 -0.2278  0.1151  0.1905
34142W        W34342   9.040   7.655  15.217 -0.0577 -0.0285  0.0319
34143W        W34343  11.145   8.017  14.998 -0.0693  0.0784 -0.0541
34144W        W34344  11.825  10.135  11.928 -0.0154 -0.1342  0.1867
34145W        W34345  11.542  14.598   5.009 -0.0254 -0.0863  0.1660
34146W        W34346   1.520   8.555  17.378 -0.0098 -0.0189  0.1220
34147W        W34347   2.179  15.144  14.436 -0.0241  0.1828 -0.0370
34148W        W34348   8.053  11.149   5.478  0.1873  0.2156  0.3147
34149W        W34349  17.062   4.415   9.388  0.1928 -0.4001 -0.0384
34150W        W34350  17.941   8.816  14.325  0.0310 -0.3339  0.0868
34151W        W34351  16.874   7.428   1.640  0.0222 -0.2021 -0.2024
34152W        W34352   8.666   6.710   4.581  0.0261  0.4448 -0.1475
34153W        W34353   9.810   2.806  14.328  0.1281  0.0017  0.3427
34154W        W34354  15.642  12.158  18.040 -0.2654  0.0132 -0.4858
34155W        W34355  15.445   6.619  16.442  0.1298 -0.0368 -0.1177
34156W        W34356  10.516   1.685  16.487 -0.0788  0.2017  0.0098
34157W        W34357  12.939  14.534   4.362 -0.3143 -0.0196 -0.1468
34158W        W34358   5.009  10.778  14.403 -0.1684  0.1190 -0.0515
34159W        W34359  15.812  16.993  15.605 -0.1126  0.1005 -0.2570
34160W        W34360   9.326  15.882  15.444  0.0763  0.2570 -0.2167
34161W        W34361  12.556  14.943   6.934 -0.1715 -0.1820 -0.2579
34162W        W34362  11.329   9.407  17.896  0.3484 -0.0147 -0.2173
34163W        W34363   5.894   9.326   1.880  0.0906  0.0145 -0.0987
34164W        W34364   8.209   8.965  14.138 -0.3459 -0.0593 -0.0586
34165W        W34365   7.987   9.426  17.150  0.1849 -0.0951 -0.1765
34166W        W34366   9.514   9.772   9.892  0.1616  0.0065 -0.1407
34167W        W34367   0.341  16.305  18.100 -0.0432  0.2672 -0.0361
34168W        W34368   5.485  10.660  11.494 -0.2732 -0.0714  0.3266
34169W        W34369   0.507   9.936   2.999  0.1648 -0.1603  0.1084
34170W        W34370  17.894  10.540  17.266  0.3466  0.3892 -0.1420
34171W        W34371   2.697   6.823   7.676  0.0436 -0.1829 -0.1111
34172W        W34372  13.144   9.927  10.734 -0.0195 -0.0970 -0.0671
34173W        W34373   8.485  10.714  11.141 -0.0611 -0.1538  0.0818
34174W        W34374  14.380   8.502   2.371  0.3396  0.1458  0.0132
34175W        W34375   5.961   7.104   7.134  0.1512 -0.2515  0.0877
34176W        W34376   5.857  12.343   1.217 -0.2272 -0.1464 -0.1238
34177W        W34377  11.079  14.613   5.217 -0.0319 -0.1023 -0.1573
34178W        W34378   6.750   9.108   6.189 -0.1079  0.1727  0.1134
34179W        W34379  10.731   5.222   1.700 -0.1055  0.1261 -0.1818
34180W        W34380   5.128   7.233  13.070 -0.0218  0.3354  0.0179
34181W        W34381  14.155  14.993  15.670 -0.1719 -0.2293 -0.1419
34182W        W34382  18.107  13.101   0.926 -0.1134  0.0512  0.0562
34183W        W34383   2.596   6.704   1.339 -0.3261  0.0284  0.0894
34184W        W34384  14.750  16.336   1.957 -0.1111  0.2840 -0.0452
34185W        W34385   9.783  13.630   6.966  0.0134  0.0665  0.0283
34186W        W34386  14.368  17.168  15.983 -0.0474 -0.0366 -0.0284
34187W        W34387   8.912   8.869  12.681  0.1274 -0.0675 -0.0302
34188W        W34388  10.648  10.027  17.577 -0.0611  0.1402 -0.2064
34189W        W34389   1.253   6.871   2.083  0.5298 -0.1999 -0.1377
34190W        W34390  11.622  12.685  15.815 -0.1936 -0.1825  0.0800
34191W        W34391   3.834  13.147   5.009  0.0307  0.2497  0.0600
34192W        W34392  14.283  11.585   5.560  0.1086 -0.0049 -0.1904
34193W        W34393  12.635  11.047   5.118  0.0905 -0.0981  0.1099
34194W        W34394   3.122   6.811   7.241 -0.2916  0.1134 -0.0742
34195W        W34395   9.543   6.183   6.130 -0.0385  0.1997 -0.0467
34196W        W34396  15.097   4.853   4.898  0.1477  0.0340  0.1952
34197W        W34397   6.505   5.475   6.787 -0.0323 -0.1969  0.0304
34198W        W34398  10.908   4.857   7.336  0.5581  0.0153  0.0944
34199W        W34399  10.231   3.159   0.156  0.0054 -0.1086 -0.2729
34200W        W34400   7.468   3.745   5.894  0.4280  0.0805  0.0674
34201W        W34401  13.113  13.227  17.015 -0.1308 -0.1401 -0.0725
34202W        W34402  13.316   7.225   8.657 -0.0994  0.0731 -0.2123
34203W        W34403   6.914  10.287   1.944  0.0200  0.0183 -0.2242
34204W        W34404  16.661   6.231  13.575 -0.1976  0.1323 -0.0776
34205W        W34405   1.014   9.307  17.926 -0.1934  0.0592  0.0349
34206W        W34406   9.800  15.434   0.991 -0.0551 -0.0343  0.1355
34207W        W34407  14.412   5.921   7.404  0.1843  0.0187  0.1616
34208W        W34408  10.370   9.093  13.297 -0.0036 -0.1062  0.0139
34209W        W34409  11.858  16.103   5.709  0.0842  0.0659 -0.2818
34210W        W34410  13.378   3.387   0.232 -0.0903 -0.0906 -0.1630
34211W        W34411   7.089   3.721   6.610 -0.1185 -0.1139  0.3121
34212W        W34412   9.067   5.447   6.032  0.1522  0.1681 -0.2252
34213W        W34413  17.408  12.322   3.639 -0.0263  0.1549  0.1085
34214W        W34414  15.157   3.352   3.439  0.0914  0.0125  0.1055
34215W        W34415   7.886   6.465   7.344 -0.0146  0.0749 -0.3136
34216W        W34416  12.444   7.345   9.078 -0.0276 -0.0521  0.0763
34217W        W34417  13.778   9.218   5.508 -0.1705  0.1060 -0.0838
34218W        W34418   8.367  17.039   7.396  0.0441 -0.1466 -0.2800
34219W        W34419   1.554   7.659   7.642  0.3791  0.0454  0.0170
34220W        W34420  13.616   3.090   8.144  0.1834 -0.3402  0.1985
34221W        W34421  18.026   6.236   1.370  0.1838  0.2576 -0.0670
34222W        W34422  10.957  11.547   0.457 -0.0486 -0.0532  0.1193
34223W        W34423   7.337  10.655   6.655  0.3650 -0.1838  0.1027
34224W        W34424   3.538   8.264   8.542  0.1715  0.2918 -0.1603
34225W        W34425   1.849   9.581   0.567 -0.0606  0.3228  0.3002
34226W        W34426   3.076  13.090  17.504 -0.0390 -0.2206 -0.0021
34227W        W34427   1.067   6.687   0.701  0.1811  0.0764  0.1326
34228W        W34428  15.825   8.473   1.342  0.1094 -0.3329 -0.1200
34229W        W34429  10.100  11.222  15.811 -0.1273  0.1161 -0.2672
34230W        W34430  10.070   4.227   6.786 -0.1876 -0.1641 -0.0843
34231W        W34431  10.025   4.271   1.316  0.1624 -0.0117 -0.2292
34232W        W34432   5.621   9.764   9.855  0.3195 -0.1535  0.0717
34233W        W34433  12.462   7.010   3.473 -0.0311  0.1306  0.1156
34234W        W34434   7.717   1.693  11.039 -0.1138  0.3274  0.0028
34235W        W34435  15.653   6.249  11.921  0.2387  0.0410 -0.1963
34236W        W34436  11.598   9.398   3.952  0.0577  0.1371  0.0632
34237W        W34437   1.446   2.236  17.093  0.1026 -0.1876 -0.2982
34238W        W34438  15.255   9.223   3.606 -0.0814 -0.0348  0.2234
34239W        W34439  13.439  16.866   7.065  0.1696  0.1593 -0.1039
34240W        W34440  14.540  10.996   0.148  0.0607  0.3478  0.2489
34241W        W34441  14.469  15.272   6.049  0.1125  0.2207 -0.1560
34242W        W34442  15.343  11.771  16.334  0.1114  0.3015  0.0469
34243W        W34443   7.679   0.664   8.569  0.3093  0.0852  0.0210
34244W        W34444  10.583   8.613  15.433 -0.0494 -0.0015 -0.0472
34245W        W34445  13.931   0.550   8.084 -0.1405 -0.2988 -0.1719
34246W        W34446  11.285  14.375  14.336 -0.1559  0.2864 -0.0737
34247W        W34447   1.435  16.852   3.364 -0.1433  0.2574 -0.1584
34248W        W34448  15.682  13.269   2.588 -0.0566 -0.4287 -0.0241
34249W        W34449   3.196   5.193   1.943 -0.2686 -0.1914  0.0116
34250W        W34450   4.722   0.245  11.377  0.1896 -0.0586  0.1664
34251W        W34451   3.803  15.640  16.857  0.2432 -0.1177  0.2154
34252W        W34452  12.951   5.839   3.718 -0.0416 -0.0536 -0.0166
34253W        W34453  11.457  13.244   7.282 -0.1278  0.0569  0.2562
34254W        W34454  13.732  15.389  13.830  0.0598 -0.0388  0.1456
34255W        W34455   7.744  10.360  13.636  0.0333  0.1037 -0.0620
34256W        W34456   7.255  12.423  15.640 -0.2913  0.2922  0.1425
34257W        W34457  11.269  16.730   4.635 -0.2466  0.3675  0.2152
34258W        W34458  11.586  12.485   2.367 -0.3922 -0.1683 -0.0469
34259W        W34459  12.865   1.980  16.195 -0.2986 -0.1479 -0.1348
34260W        W34460   9.318  13.026   6.210 -0.0668 -0.2918 -0.0299
34261W        W34461   2.905  11.798   6.138 -0.1151  0.0906 -0.0112
34262W        W34462  17.868   6.337   4.287 -0.0432  0.4172  0.1659
34263W        W34463  11.369   8.640   5.658 -0.1380 -0.1942 -0.1371
34264W        W34464  13.604   3.345   3.175  0.1206 -0.1759 -0.3262
34265W        W34465   8.470   1.663   3.093  0.0845  0.2141 -0.3380
34266W        W34466   9.749   7.671   1.140 -0.2510  0.1116  0.1475
34267W        W34467   7.292   4.486  17.885 -0.3544  0.0630 -0.0754
34268W        W34468   8.001   5.758   0.540  0.0090  0.2342 -0.0603
34269W        W34469  14.886  10.394  14.868  0.0744 -0.1966  0.0438
34270W        W34470   7.508   4.434  13.436 -0.1923 -0.0931 -0.0362
34271W        W34471   2.948   8.960   4.565  0.1319  0.3842 -0.0962
34272W        W34472   7.282  13.698   7.541 -0.3484 -0.2943 -0.0135
34273W        W34473   8.036  10.824   3.536 -0.1978  0.1313 -0.1106
34274W        W34474  15.065   2.654   5.594 -0.1945  0.1584  0.0800
34275W        W34475   2.518   9.207  16.598  0.1868 -0.2994 -0.3661
34276W        W34476   8.971  16.231   3.245 -0.1557 -0.0461  0.4543
34277W        W34477  11.519  14.243   9.409 -0.2479  0.3083 -0.1179
34278W        W34478   2.724  11.333   7.014  0.0288 -0.0587 -0.0205
34279W        W34479  11.136   3.548  17.779  0.1807 -0.0950 -0.2471
34280W        W34480   9.416   5.104  16.900 -0.2488 -0.3810  0.0361
34281W        W34481  13.822   0.876  18.194 -0.2388  0.2041 -0.1950
34282W        W34482  15.659  13.202   8.307 -0.1200  0.0105 -0.2809
34283W        W34483   8.241  15.431   8.133  0.2276 -0.0405 -0.0114
34284W        W34484  13.830   9.752   3.545  0.2035 -0.2405 -0.0909
34285W        W34485  13.168  10.779   1.938  0.0808  0.1707  0.1803
34286W        W34486  14.134  16.620  17.822  0.3466 -0.4970 -0.1997
34287W        W34487  11.811  16.962   2.729 -0.0585  0.0100 -0.1427
34288W        W34488  17.159  10.782   4.353  0.0264  0.2098  0.2594
34289W        W34489  12.213   3.714  15.841 -0.0251 -0.0919 -0.0938
34290W        W34490   9.425   6.136   0.426 -0.1664 -0.1581  0.2068
34291W        W34491  14.528   9.309   0.996  0.2450  0.1125  0.0759
34292W        W34492  11.371  12.259  10.167  0.2730  0.1068  0.0464
34293W        W34493  11.846   3.950  15.170  0.4339 -0.1695  0.1005
34294W        W34494   6.912   3.855   2.181 -0.0007  0.1645 -0.1683
34295W        W34495  12.596  12.863   1.992 -0.0717  0.0426  0.0209
34296W        W34496  13.797  10.463   7.477  0.2910  0.3695 -0.4740
34297W        W34497  12.252   3.304   7.362 -0.1064  0.1819 -0.0506
34298W        W34498  13.912   7.006   1.754  0.1839  0.3242  0.0807
34299W        W34499   5.950  11.627  15.339 -0.2899 -0.0435  0.1637
34300W        W34500   4.303   7.866  15.963  0.0946  0.0254 -0.1510
34301W        W34501  16.858   2.878   6.630  0.1688  0.0353  0.0231
34302W        W34502  10.403  11.389  10.450 -0.1921  0.0384  0.1813
34303W        W34503   6.965  12.639   9.019 -0.1726  0.0384  0.3008
34304W        W34504  18.148  13.686  13.684 -0.1451 -0.1050 -0.0434
34305W        W34505  14.532  10.395   3.770 -0.1550 -0.2475 -0.0676
34306W        W34506  17.410  15.744   5.787 -0.1062  0.3856 -0.0596
34307W        W34507   8.738   9.718   9.339 -0.1094 -0.2730  0.0927
34308W        W34508  14.154   8.581  10.939  0.2754 -0.4964 -0.0937
34309W        W34509  12.341   6.820   5.334 -0.1891 -0.1456 -0.0810
34310W        W34510  13.427  14.322   4.276  0.2816 -0.2588 -0.1743
34311W        W34511  11.925  13.930   9.676  0.0164 -0.2067 -0.1573
34312W        W34512  14.316   5.118  16.984 -0.1062 -0.3503  0.1093
34313W        W34513  17.205  11.916   1.028  0.1453 -0.0616  0.2398
34314W        W34514  10.879   6.118   5.860 -0.1515  0.3734 -0.1061
34315W        W34515   8.931   8.420   2.997 -0.0942 -0.0824  0.1508
34316W        W34516  17.271   8.887   0.180  0.0413  0.0062 -0.0304
34317W        W34517  17.236  10.051   0.307  0.0039 -0.2524  0.1031
34318W        W34518  10.672   1.227  17.365  0.0681  0.0618  0.1159
34319W        W34519  14.063   8.853   0.032 -0.1504  0.1705  0.2864
34320W        W34520  12.221  11.284   4.900  0.0216 -0.0689 -0.0981
34321W        W34521   9.397  15.093   4.914 -0.0223  0.1725  0.1148
34322W        W34522  12.964   2.123  18.003  0.0466  0.1716 -0.2317
34323W        W34523  14.641   8.226  13.772  0.1190  0.3891 -0.0440
34324W        W34524  10.252   5.920   2.215 -0.1690  0.0300  0.3134
34325W        W34525  11.133   7.258   1.049 -0.0264  0.1968 -0.1306
34326W        W34526  10.840   5.029   6.381  0.0433  0.1994 -0.1009
34327W        W34527   9.022  10.752   2.659  0.0182  0.1708 -0.0038
34328W        W34528  15.354   8.567  15.018  0.0399 -0.0010  0.0221
34329W        W34529   5.317   5.393   0.925  0.0986 -0.0074  0.0858
34330W        W34530   9.167   8.242   1.716  0.0156  0.1969  0.0623
34331W        W34531   2.697  12.712   6.998 -0.1066 -0.0424  0.1026
34332W        W34532   1.451  11.233  16.151 -0.2290  0.0374  0.1524
34333W        W34533  10.900  10.204   2.432  0.0440 -0.0949 -0.0237
34334W        W34534  13.885   7.616   3.582 -0.3850  0.1607 -0.0306
34335W        W34535  17.116   7.014   0.889 -0.1420 -0.0285  0.0528
34336W        W34536  13.254  11.688   0.894 -0.1683 -0.1026  0.0169
34337W        W34537   9.935   6.044  17.164 -0.1162 -0.1283 -0.2309
34338W        W34538  13.935  12.139   8.928 -0.0900  0.0024 -0.0705
34339W        W34539  13.585   7.955   2.960 -0.0884 -0.0111  0.1246
34340W        W34540  11.794  12.765  14.536 -0.2808 -0.1129 -0.0088
34341W        W34541  15.326  12.802   0.820 -0.0029 -0.1076  0.3153
34342W        W34542  10.895   7.205  16.262 -0.2041 -0.2436 -0.0108
34343W        W34543  11.657  10.976  10.282  0.0120 -0.4714  0.2975
34344W        W34544   8.995   6.958   4.047  0.0052 -0.1660 -0.2437
34345W        W34545   5.253  13.620   4.766 -0.0832 -0.4261  0.3284
34346W        W34546  10.705   4.740   5.605 -0.1757 -0.0274  0.1414
34347W        W34547   5.351   9.047   7.365 -0.0881  0.0924 -0.0476
34348W        W34548  11.940  13.273   0.092 -0.0767 -0.1017 -0.1279
34349W        W34549  10.803   9.626  17.909  0.0405  0.1634  0.2556
34350W        W34550  14.352   8.504   5.537 -0.1762  0.2002  0.0808
34351W        W34551  12.209   1.258  15.377  0.0619 -0.1862  0.0051
34352W        W34552   8.584   8.235   5.848  0.1767  0.2204 -0.0306
34353W        W34553  10.683   9.776   8.765  0.1333 -0.2907 -0.1619
34354W        W34554  14.072   0.236  10.173  0.1913  0.2060  0.2423
34355W        W34555  15.854   3.161  14.953 -0.1066  0.2023 -0.4420
34356W        W34556  10.430   7.993  11.769 -0.1987  0.0997 -0.5089
34357W        W34557  12.417   9.204  13.621 -0.0637 -0.1118 -0.1876
34358W        W34558   7.178   9.813   3.373 -0.0011 -0.0388  0.0421
34359W        W34559  12.914  17.368  11.576  0.0550 -0.2348  0.0520
34360W        W34560  15.403   7.755  11.617 -0.2228 -0.1628 -0.2743
34361W        W34561   6.248   5.800   4.605 -0.0733 -0.0661 -0.2134
34362W        W34562  13.036   6.177  17.352 -0.0291 -0.0893 -0.1905
34363W        W34563   3.057   8.982  16.617 -0.4032 -0.1587  0.0352
34364W        W34564   6.506   7.572   6.661  0.0313 -0.0853  0.2421
34365W        W34565   1.411  12.880   9.081  0.0245  0.1803  0.2572
34366W        W34566  13.775   7.108   2.260 -0.1347  0.0804 -0.0424
34367W        W34567  14.800  10.604   0.322 -0.0072  0.4623 -0.0925
34368W        W34568   1.011   5.126   3.709  0.0572 -0.0485  0.1390
34369W        W34569   9.490   9.732  17.453  0.0263 -0.1396 -0.3748
34370W        W34570  11.780   6.721   1.173 -0.0598 -0.0919 -0.0482
34371W        W34571   0.561   8.788  12.956  0.1007 -0.0458  0.0189
34372W        W34572   0.224  14.001  13.383 -0.1860  0.0727  0.1860
34373W        W34573  14.711  10.906   4.666  0.0877 -0.0554 -0.0287
34374W        W34574  17.253  14.743   3.986  0.0254  0.0583  0.0192
34375W        W34575  13.060  11.487  16.920 -0.0805  0.0692  0.0312
34376W        W34576  14.918   9.618   6.069  0.1002 -0.2342 -0.0605
34377W        W34577  12.778  14.893   3.190 -0.1188 -0.1246 -0.0244
34378W        W34578   0.226  10.145   5.776 -0.0692 -0.0480 -0.0536
34379W        W34579  10.479   7.800  16.864 -0.0279 -0.1652  0.0145
34380W        W34580   7.296   7.230   5.733  0.0746 -0.2940  0.2593
34381W        W34581   7.581  11.391   3.886  0.1523  0.1900 -0.3855
34382W        W34582  15.252   7.612   1.418 -0.0245  0.1691  0.0497
34383W        W34583  13.655   6.816   6.052  0.2741 -0.0833 -0.1379
34384W        W34584  16.545  15.278   4.139  0.0549  0.0065 -0.2720
34385W        W34585   6.396   8.341  15.476  0.1727 -0.0828  0.2101
34386W        W34586   1.947  16.820   5.248  0.0399 -0.3328  0.0792
34387W        W34587   8.959   6.344  17.644  0.0851  0.0824  0.1053
34388W        W34588  17.843   3.486   3.263 -0.0618 -0.1548 -0.1127
34389W        W34589   5.261   8.272   8.521  0.0737  0.2674 -0.0861
34390W        W34590   7.011  15.845   6.014  0.1418 -0.0735 -0.1597
34391W        W34591  11.878   9.844   1.628 -0.0466 -0.1110 -0.1795
34392W        W34592  16.095   5.893   0.312  0.0391 -0.0908 -0.2433
34393W        W34593  14.356   2.555   7.149 -0.0901 -0.1133  0.0095
34394W        W34594  14.538  11.604   3.091 -0.1921  0.1359  0.2071
34395W        W34595  17.373   7.512   1.625 -0.3127  0.1952  0.3583
34396W        W34596   8.691  11.186   8.277  0.2758 -0.0746  0.1330
34397W        W34597  11.189   8.996   2.725  0.0931 -0.1861 -0.3617
34398W        W34598  12.484   8.369   3.188 -0.1948 -0.0728 -0.0214
34399W        W34599   8.089  11.005   1.722  0.0299 -0.2374  0.2375
34400W        W34600  16.879  14.653   9.057 -0.0306  0.0247  0.2028
34401W        W34601   9.677  13.225   5.872  0.1626  0.2703  0.0063
34402W        W34602  11.715  10.801  14.280  0.0080  0.3178  0.0909
34403W        W34603   6.909   8.949   0.988  0.0047 -0.0420 -0.1151
34404W        W34604  10.056  18.160   0.077  0.2729 -0.1033  0.0642
34405W        W34605   7.819  16.288  13.910 -0.5403  0.0698  0.3439
34406W        W34606   3.755  13.358   6.488  0.1158 -0.0625  0.0584
34407W        W34607  12.933   5.942   3.250 -0.0139  0.0661 -0.0761
34408W        W34608   6.764   8.107  10.139 -0.0464 -0.0533 -0.0004
34409W        W34609   7.075  11.470   6.326 -0.0222 -0.1600 -0.3200
34410W        W34610   7.906  11.328   4.376 -0.0208 -0.2672  0.0371
34411W        W34611  12.418   1.341  10.175 -0.0663  0.1019  0.3786
34412W        W34612   3.487  17.260   4.878 -0.0384  0.1806  0.1093
34413W        W34613   7.819   9.451   4.729  0.1535 -0.0726 -0.3229
34414W        W34614   9.938  11.406   7.640 -0.4518 -0.1260  0.2931
34415W        W34615   7.039  13.527   9.547  0.0260  0.1848 -0.1167
34416W        W34616  11.341   7.953   3.742 -0.0929 -0.2540  0.0172
34417W        W34617   1.077  17.910   4.313 -0.0428 -0.1611  0.0132
34418W        W34618   0.118   3.809   4.968  0.0843  0.0645 -0.1517
34419W        W34619   6.030  12.296  11.520  0.2754 -0.0290 -0.1157
34420W        W34620  16.531  10.166  11.725  0.2833 -0.1578 -0.1934
34421W        W34621   8.992  10.421   0.116 -0.0502 -0.0938 -0.1442
34422W        W34622  15.037  11.868   8.429 -0.0465  0.2382 -0.0652
34423W        W34623  15.531  17.489   7.574  0.1956  0.3186  0.2812
34424W        W34624  10.449   3.721   3.055 -0.0053  0.1184 -0.1837
34425W        W34625   9.166   7.966  12.436  0.1184 -0.3708 -0.2185
34426W        W34626   1.496  17.212   3.705  0.1757  0.0373  0.0272
34427W        W34627  17.558  11.577   4.025 -0.2465 -0.1094  0.0452
34428W        W34628   9.689   8.148  13.716  0.1879  0.1667 -0.0695
34429W        W34629  12.622   3.233   5.464 -0.0130  0.3222 -0.0955
34430W        W34630  16.123  12.954   3.310  0.0785 -0.1532 -0.1607
34431W        W34631  16.583  12.555   6.997  0.3132 -0.2526  0.1311
34432W        W34632   8.180  10.091  13.432  0.0628 -0.0112  0.2120
34433W        W34633  11.796  12.189   5.671 -0.0177 -0.0204 -0.0653
34434W        W34634   8.814   4.473  10.071 -0.1355 -0.0419  0.1934
34435W        W34635  10.387  12.057  11.786  0.0256 -0.5294  0.1018
34436W        W34636   9.140   9.253   3.697 -0.2403  0.2560  0.3547
34437W        W34637   9.358  18.004   5.886 -0.0636 -0.1101 -0.2884
34438W        W34638   5.560   8.258   0.247 -0.0875 -0.3334 -0.1842
34439W        W34639  17.755   0.944   2.004 -0.1140  0.1325 -0.0028
34440W        W34640  14.873   6.458  11.210  0.0279 -0.1752 -0.0425
34441W        W34641   7.565   8.356   6.013 -0.0371  0.1032  0.0791
34442W        W34642  10.993  12.991   8.383 -0.0078 -0.1492 -0.1000
34443W        W34643  15.478  10.735   4.794 -0.0239 -0.1535 -0.0057
34444W        W34644  14.507   7.541   5.983  0.2222 -0.2441  0.2147
34445W        W34645  12.154  13.105  11.425 -0.0164  0.1541  0.1246
34446W        W34646   9.151   8.230   2.571  0.1633 -0.0389  0.1184
34447W        W34647  13.430  10.520   9.802 -0.1308  0.1381 -0.0074
34448W        W34648   7.559  10.105  14.557  0.0570  0.2750 -0.1170
34449W        W34649   1.752  11.045  17.149 -0.0325  0.1534 -0.0401
34450W        W34650   5.605  12.518   3.608 -0.0377  0.1255  0.1329
34451W        W34651  10.675   4.200   1.446 -0.1117 -0.0701 -0.1242
34452W        W34652   1.652  15.878   4.387  0.2541 -0.0443 -0.3517
34453W        W34653   3.086   6.477   1.764 -0.1421  0.1639 -0.2309
34454W        W34654  15.730   9.670   1.704 -0.0426  0.0980 -0.3218
34455W        W34655  13.517   2.652   9.583  0.1517  0.0915 -0.0366
34456W        W34656  15.886   9.772   2.183 -0.2350 -0.0098  0.2591
34457W        W34657   8.647  14.742   0.994  0.1049  0.2539 -0.2073
34458W        W34658  11.750  11.523  11.203  0.1889 -0.0774  0.1660
34459W        W34659  13.555  12.373  11.969 -0.0125 -0.0731  0.0774
34460W        W34660   9.367  16.777   6.465 -0.3795  0.0659  0.0050
34461W        W34661   5.202   4.315   6.106 -0.2944 -0.2011 -0.1011
34462W        W34662   9.494  12.416   5.566  0.0604  0.0233  0.0020
34463W        W34663  12.986  17.362   2.663 -0.1487 -0.1134 -0.0264
34464W        W34664   8.874   5.668   5.630  0.0917  0.0000 -0.0613
34465W        W34665  11.126  10.405   4.998 -0.0185  0.2837  0.0309
34466W        W34666  11.709   3.551   4.611  0.1616  0.0238  0.1416
34467W        W34667   9.376   9.231   2.617  0.0752  0.0125  0.0116
34468W        W34668  17.266  10.055   6.669 -0.0911 -0.1925 -0.0907
34469W        W34669  11.215   9.337   1.962  0.0781  0.1246  0.0621
34470W        W34670  10.802  16.308  13.929 -0.1125 -0.2502 -0.1917
34471W        W34671  14.168   7.895   6.951  0.0800 -0.0072 -0.3711
34472W        W34672   9.228  10.735   5.544 -0.3157 -0.0190  0.0602
34473W        W34673   1.561  16.267   0.533  0.2184  0.0718 -0.3932
34474W        W34674  11.478   8.140   3.211  0.2108  0.2266 -0.4195
34475W        W34675   4.045   9.559   8.272  0.0967 -0.0013 -0.3536
34476W        W34676  11.748   7.779   6.718 -0.0328 -0.1314 -0.1238
34477W        W34677  14.728  13.084   0.260  0.5435 -0.0082  0.0825
34478W        W34678   0.458  12.179  13.611  0.0753 -0.0915 -0.1559
34479W        W34679  10.062  10.810  10.487  0.2114 -0.1552 -0.3067
34480W        W34680  12.821   8.079   3.540 -0.1272 -0.0319 -0.1379
34481W        W34681  10.345  12.961  10.589  0.0655  0.2263 -0.1094
34482W        W34682  10.004   7.964  14.798  0.1347  0.1165 -0.0407
34483W        W34683  10.352  10.960   1.426  0.1381  0.0619 -0.0567
34484W        W34684   0.949   3.299   3.764 -0.0399 -0.2650 -0.0745
34485W        W34685  10.615  10.215   7.521  0.2037 -0.0403  0.0309
34486W        W34686   0.223  15.662   4.318  0.0848 -0.1877 -0.2439
34487W        W34687  12.485   5.611   9.975  0.1902  0.0586  0.1722
34488W        W34688  13.860  11.537   5.962  0.1047  0.1277  0.0499
34489W        W34689  17.573   8.442  16.343 -0.0558 -0.3302  0.0317
34490W        W34690  14.590   7.535   4.470 -0.0717 -0.0305  0.0296
34491W        W34691  16.397  17.601   6.162 -0.1666  0.0990  0.0683
34492W        W34692   8.888   6.634   1.952 -0.5256 -0.0337  0.1653
34493W        W34693  15.022   3.661  12.665 -0.2490  0.0306  0.4617
34494W        W34694  10.537   9.016   3.923 -0.1219 -0.1676  0.0862
34495W        W34695  10.947  14.788   2.170 -0.0680 -0.2153  0.4299
34496W        W34696  16.133  16.203  17.566 -0.2053  0.1457 -0.2307
34497W        W34697  12.013   4.523   3.417 -0.0031 -0.1290  0.0944
34498W        W34698  10.369  13.467   4.388  0.2827  0.0026 -0.3173
34499W        W34699  14.756  14.866   2.126  0.1365 -0.0364  0.1885
34500W        W34700  11.361   0.388   3.757 -0.2677 -0.3977 -0.0768
34501W        W34701   6.891   3.402   1.275  0.0178  0.3460  0.1273
34502W        W34702  13.713   6.505   1.244  0.1774  0.2067 -0.0562
34503W        W34703  14.885  14.275  12.964 -0.0184  0.0857  0.1392
34504W        W34704   9.605   9.200   8.516 -0.3228 -0.0170 -0.0747
34505W        W34705   6.559   8.084   2.943 -0.0959 -0.0962  0.0671
34506W        W34706  16.440   4.898   1.712 -0.2094  0.0880  0.0184
34507W        W34707   8.904  13.461   6.223  0.2043  0.2614  0.1388
34508W        W34708  13.712  14.750  11.132  0.3064 -0.0100  0.1319
34509W        W34709  10.674   8.373   7.469  0.0939  0.0652 -0.2406
34510W        W34710   6.676  12.498  10.945 -0.0705  0.1066 -0.1058
34511W        W34711  16.952   3.996   7.934  0.1156 -0.2301  0.1499
34512W        W34712   7.654   7.902   3.043 -0.4793 -0.3047  0.0018
34513W        W34713   5.688   8.277  10.072  0.1285 -0.0509  0.0451
34514W        W34714   7.292  12.253   3.961  0.0193 -0.1086 -0.2798
34515W        W34715  17.730   5.089  10.415 -0.1425  0.0707 -0.0267
34516W        W34716   2.205   0.522   7.554  0.2000  0.1311  0.1730
34517W        W34717  12.052   9.177  15.204  0.1762 -0.0081  0.0349
34518W        W34718  12.587   1.878   6.826  0.0226  0.3960 -0.3339
34519W        W34719  10.888   9.956  15.956  0.2978 -0.0539  0.1113
34520W        W34720   0.135   2.845   3.985  0.0105  0.0807 -0.1392
34521W        W34721  17.812  10.333   8.639 -0.2946 -0.0971 -0.4332
34522W        W34722  17.939  15.025   7.180  0.2708 -0.1292  0.1854
34523W        W34723  12.706   4.221   6.493  0.1543  0.1440 -0.1276
34524W        W34724  12.145   7.897   4.199  0.1299  0.0623  0.2762
34525W        W34725   7.831   7.486   3.460 -0.0932  0.0221 -0.0818
34526W        W34726  16.545   6.444   5.951 -0.3337  0.1481  0.0454
34527W        W34727  10.957  10.985   4.716  0.0120  0.0919 -0.2345
34528W        W34728  17.367  11.475   1.316  0.0158  0.0579  0.0652
34529W        W34729   8.055   4.543   4.028 -0.3062 -0.1987 -0.1287
34530W        W34730   7.250  15.066   8.316 -0.1895 -0.0842  0.1172
34531W        W34731  14.267  10.826   6.503 -0.0111  0.1473 -0.1538
34532W        W34732   9.221  13.927   8.285  0.1403 -0.0444  0.2723
34533W        W34733  17.910  10.664  16.239 -0.1883 -0.1256  0.0470
34534W        W34734   0.992   1.256   4.151  0.2172  0.1046  0.2129
34535W        W34735  15.989   3.689   8.941  0.0253 -0.2105 -0.1465
34536W        W34736  11.560  17.177  15.884 -0.1757 -0.1465 -0.0341
34537W        W34737   6.022   7.214   2.554  0.0809 -0.0491  0.3799
34538W        W34738  14.105   1.572   9.596  0.1922  0.1100  0.1576
34539W        W34739  12.923   7.387   2.549 -0.1051  0.2755 -0.2205
34540W        W34740   8.912   6.554  14.669  0.1630  0.3600  0.0893
34541W        W34741  10.182   8.479   1.444 -0.2252 -0.2664 -0.1534
34542W        W34742   9.025   5.567  17.549  0.2822 -0.0067  0.1316
34543W        W34743  11.247   5.081   1.761  0.1675  0.0081  0.0268
34544W        W34744   7.116  12.075  12.775 -0.1619  0.1719 -0.2883
34545W        W34745  11.434   6.058   5.038  0.0204 -0.0486  0.0702
34546W        W34746  10.059  16.904   9.469 -0.1350 -0.0666 -0.0288
34547W        W34747  11.880  11.918   4.399 -0.1135 -0.4686  0.1798
34548W        W34748  13.771  10.211  10.026  0.3805  0.1917 -0.1998
34549W        W34749  10.085   9.771   6.926 -0.1794 -0.1284 -0.0430
34550W        W34750   6.904   7.115   5.203 -0.0190  0.0254  0.1671
34551W        W34751  15.585   3.687   9.285  0.4149 -0.1930 -0.0955
34552W        W34752  13.923  16.669  12.927 -0.2713  0.1865 -0.0722
34553W        W34753  14.732   7.157  14.168 -0.0685  0.1081  0.0585
34554W        W34754   4.188   3.869   0.243  0.4420  0.1653 -0.1849
34555W        W34755  16.881   9.851   2.457  0.1853 -0.1688 -0.0410
34556W        W34756   4.390   7.850   4.964 -0.0218 -0.0179 -0.2241
34557W        W34757  17.803  14.761   2.714  0.3864 -0.2297  0.0059
34558W        W34758  14.685  13.107   8.748  0.2447 -0.1131  0.1853
34559W        W34759   0.060  13.090   4.519  0.1282 -0.1005 -0.4343
34560W        W34760   4.049   4.555  12.663 -0.2383  0.3078 -0.2017
34561W        W34761  16.753   1.933   2.784  0.1655 -0.0120 -0.1027
34562W        W34762   7.214   3.654   7.387  0.0049 -0.3000 -0.0091
34563W        W34763  10.370  14.662   9.484 -0.1036  0.3134  0.0277
34564W        W34764   1.015  16.230  16.614  0.2277  0.1284 -0.0132
34565W        W34765  11.602   5.699   8.794  0.0617  0.1630  0.0735
34566W        W34766  14.955   9.328  10.817 -0.2231  0.2480  0.0033
34567W        W34767   7.183  11.433   5.031  0.2957  0.2278  0.1267
34568W        W34768  12.163  14.004   4.194  0.2480 -0.3484 -0.0524
34569W        W34769   3.880   6.404   6.452 -0.0051  0.1709  0.3278
34570W        W34770  16.475  13.644   2.449 -0.3087 -0.0879  0.0950
34571W        W34771  15.611   1.819   5.006 -0.3206  0.1023 -0.2254
34572W        W34772  12.675   2.756  11.327  0.1362  0.0745 -0.1866
34573W        W34773  14.603  12.960  17.213  0.1047  0.2946 -0.2463
34574W        W34774  15.011   5.910  12.369 -0.2185  0.1833  0.3463
34575W        W34775   1.544   3.420   4.054  0.1971 -0.3477 -0.2142
34576W        W34776  10.213   9.623  13.372  0.1218  0.1924  0.2026
34577W        W34777  12.892  16.030   8.882 -0.2725  0.1100 -0.0588
34578W        W34778   5.999   4.142  17.916  0.0162  0.1033 -0.1658
34579W        W34779   9.673  13.832  10.488  0.0590 -0.1639 -0.2659
34580W        W34780   7.546   6.916   7.346  0.0329 -0.1018  0.2376
34581W        W34781  12.405  13.810   8.114 -0.0443  0.0935 -0.1393
34582W        W34782   5.746  11.682   8.604  0.1442 -0.2760 -0.0967
34583W        W34783  11.960   0.567  17.569 -0.1119  0.2037 -0.1180
34584W        W34784   4.188   7.502   4.564 -0.2994  0.1553 -0.2421
34585W        W34785  11.258   8.298   6.423 -0.1395  0.4020 -0.0381
34586W        W34786  15.115   6.999   8.810  0.1269  0.0131 -0.1475
34587W        W34787  12.859   7.568   1.063 -0.0666  0.3677  0.1209
34588W        W34788   7.652   8.286   3.810  0.1877 -0.5769  0.0676
34589W        W34789   0.627   4.300   9.816 -0.3296  0.1732  0.1744
34590W        W34790   3.164   5.812   1.162  0.1972  0.0519 -0.1620
34591W        W34791   3.228  11.267   1.348  0.4031  0.2269 -0.1308
34592W        W34792  15.944   8.826  13.100 -0.2269 -0.0901 -0.3268
34593W        W34793   9.885   7.531   0.681 -0.0098 -0.1474  0.3978
34594W        W34794   9.545  12.612   8.003 -0.1094  0.1807  0.3520
34595W        W34795  15.846  11.405   5.514  0.1605 -0.0551  0.0576
34596W        W34796   9.454  11.469   5.351  0.0827 -0.1348 -0.1991
34597W        W34797   7.193   4.090   0.953 -0.0197 -0.0551 -0.4191
34598W        W34798  10.015   9.526   0.292  0.0343 -0.1014 -0.2736
34599W        W34799  12.057   4.422  15.644  0.0411 -0.0048  0.0642
34600W        W34800   6.657   5.273   1.206 -0.1278  0.2554 -0.1363
34601W        W34801   8.764  12.091   6.307  0.0154 -0.1858  0.1484
34602W        W34802  12.486  15.544   9.654  0.3030 -0.2458  0.0606
34603W        W34803   7.408   5.854   5.550  0.2321 -0.1237  0.1384
34604W        W34804  11.319   2.947   5.634  0.1280 -0.1298 -0.1125
34605W        W34805  11.285   3.435  12.970  0.0461  0.3537  0.3939
34606W        W34806   3.214   0.781  12.151 -0.2431  0.0499 -0.0967
34607W        W34807  14.250   8.356   4.607  0.1886 -0.0815 -0.1857
34608W        W34808  10.560  11.740  10.159  0.1007  0.2652 -0.0141
34609W        W34809  10.353  13.288  13.194  0.1149  0.3348  0.2367
34610W        W34810  13.838  17.724  17.269 -0.1662  0.1289  0.1227
34611W        W34811   5.386   6.525   1.758  0.1005  0.0722  0.1797
34612W        W34812  10.560  13.693   3.656  0.0985 -0.0869  0.0890
34613W        W34813  13.906   1.446   6.399 -0.1234  0.0933  0.0755
34614W        W34814   5.766  16.222   5.319  0.4080 -0.2064  0.2501
34615W        W34815  15.271  16.986   6.188 -0.0343 -0.1010 -0.1774
34616W        W34816   3.686  10.311  14.883  0.2142 -0.2010 -0.0390
34617W        W34817   9.864   3.970   1.754  0.0263 -0.2700  0.0209
34618W        W34818   8.349   4.295   4.531  0.3233  0.2443 -0.5263
34619W        W34819   1.070   5.742   6.614 -0.1437  0.0166 -0.2050
34620W        W34820  11.208  10.336   7.331 -0.0465  0.0133 -0.1845
34621W        W34821   0.988   4.714   7.838 -0.3946  0.2685  0.0738
34622W        W34822  12.960   9.690   8.280  0.1477 -0.0172  0.0916
34623W        W34823  14.901   7.883   4.920 -0.1742  0.1865 -0.2911
34624W        W34824  13.332   7.184  17.013 -0.0719  0.0021  0.0459
34625W        W34825  17.744   4.958   3.523 -0.1976  0.0770  0.1164
34626W        W34826   6.060  11.112   4.071  0.1746  0.1247 -0.0341
34627W        W34827  10.306  16.459   9.163 -0.0412  0.1777  0.2127
34628W        W34828  16.682   6.068   3.956  0.1613  0.0557 -0.1153
34629W        W34829  12.088   3.352   0.556  0.1538  0.0465  0.1596
34630W        W34830  10.838  18.000   8.155  0.1303  0.0979 -0.1607
34631W        W34831   6.755   8.224   8.274  0.0889 -0.1652  0.3957
34632W        W34832  15.529   4.869  10.646  0.2046  0.0526 -0.1680
34633W        W34833  11.302  12.095   4.875 -0.0108  0.0819 -0.3203
34634W        W34834   9.668   5.111  10.941  0.0750 -0.1954 -0.0076
34635W        W34835  12.297   4.640   5.239 -0.0194 -0.0490 -0.0800
34636W        W34836  14.099   7.035   7.647 -0.0254 -0.1779  0.1757
34637W        W34837   6.549   0.920   2.133 -0.3232 -0.0854 -0.4118
34638W        W34838   2.387   6.300   4.974 -0.0121  0.0943  0.2986
34639W        W34839  10.661   4.060   2.576 -0.1207 -0.0309 -0.0049
34640W        W34840  14.109  13.164   1.860 -0.1443 -0.0344  0.2777
34641W        W34841   4.734  10.984  10.547 -0.1460 -0.0548 -0.0431
34642W        W34842   5.151   4.147  15.226  0.1789 -0.0328  0.0232
34643W        W34843   8.803  12.283   2.403  0.0426  0.0463  0.2372
34644W        W34844  10.222   8.599   7.242  0.2235 -0.1341  0.1957
34645W        W34845  16.067  11.197   9.181  0.1706 -0.3521 -0.2733
34646W        W34846  14.955  11.934  11.247  0.2228 -0.0749 -0.0164
34647W        W34847  10.217   3.588   7.899 -0.1635  0.1894 -0.0887
34648W        W34848  10.385  11.603   2.597  0.2962 -0.2907 -0.0402
34649W        W34849  10.710  10.108   6.445  0.0398 -0.1261 -0.1028
34650W        W34850  13.438  17.021  12.282 -0.0636  0.2093 -0.0413
34651W        W34851  12.724  17.106   8.679  0.0648 -0.0771  0.0247
34652W        W34852  12.611  14.935  15.765  0.0873  0.3423 -0.1053
34653W        W34853   0.120   5.397   0.965 -0.1013 -0.0188  0.0951
34654W        W34854   9.643   7.861   5.419 -0.0178  0.0037 -0.1745
34655W        W34855   5.474  12.780   2.582  0.0040  0.0399  0.1240
34656W        W34856  16.385   5.637   7.564 -0.2068  0.0092  0.2156
34657W        W34857   6.639  16.111   9.959 -0.0487  0.1130  0.2071
34658W        W34858  16.988   9.586   0.552  0.1582  0.0039 -0.0431
34659W        W34859   4.505  12.854   4.353  0.0554  0.2656 -0.2597
34660W        W34860  16.138  12.276  10.822 -0.0432 -0.2289  0.1188
34661W        W34861   5.204   8.177   2.046  0.0072 -0.0579  0.1433
34662W        W34862   6.841  17.362   3.248 -0.2367  0.1254  0.3180
34663W        W34863  13.651   5.863   5.298 -0.0404  0.0400  0.0407
34664W        W34864  11.696  17.503   8.309  0.0951 -0.1236 -0.3142
34665W        W34865  11.887   7.066   4.485 -0.3920 -0.1578 -0.0381
34666W        W34866  15.318  16.266  10.475  0.1612  0.0497 -0.0976
34667W        W34867   0.344  10.664   6.480 -0.3131  0.1992 -0.1618
34668W        W34868   1.016   2.138   4.880 -0.2117 -0.3274 -0.1378
34669W        W34869   5.263   9.608  11.204 -0.3087  0.3174 -0.1700
34670W        W34870   8.223   7.293  12.122  0.2216 -0.0158  0.1428
34671W        W34871  13.209  12.167   4.518 -0.0619  0.0613 -0.0133
34672W        W34872  10.259  13.728   8.057 -0.4375 -0.2696 -0.2425
34673W        W34873  15.530   1.375   4.739  0.0122  0.1986 -0.1685
34674W        W34874  11.346   2.676   7.230  0.2512  0.2152 -0.0865
34675W        W34875   1.738   3.349   0.449 -0.1078 -0.1612  0.1204
34676W        W34876  12.705  16.166   5.664 -0.4440 -0.1564 -0.0781
34677W        W34877  15.416   9.095   9.723 -0.3871 -0.0598  0.2596
34678W        W34878  13.044  14.013   4.352  0.0508  0.0107  0.0273
34679W        W34879  12.808   5.491   1.702  0.1259  0.2358  0.0402
34680W        W34880  10.717  15.386   4.375  0.1427  0.0114  0.1803
34681W        W34881  14.303   3.832   4.222 -0.2148 -0.0887  0.1209
34682W        W34882  12.559  12.599   6.733 -0.1332  0.2462  0.4040
34683W        W34883  11.155  14.006   5.031  0.0233  0.0691 -0.2223
34684W        W34884   8.833  12.433   5.899 -0.0972  0.1244  0.3071
34685W        W34885  16.816   6.610   8.343 -0.0641  0.0707  0.2529
34686W        W34886  11.359   8.759  16.999 -0.1600  0.0580  0.0322
34687W        W34887   4.879  12.070   8.164 -0.1645 -0.1779 -0.1925
34688W        W34888  16.956  15.872  16.980  0.0187 -0.1849  0.1617
34689W        W34889  13.355  13.623   7.205 -0.2596  0.3101  0.2052
34690W        W34890  15.849  10.812   8.946  0.2167  0.1496 -0.3688
34691W        W34891  10.550  11.250   4.998 -0.1494 -0.3854 -0.1171
34692W        W34892  13.449   6.553  11.738  0.6513  0.2170 -0.0915
34693W        W34893   6.988  10.111   7.221  0.3146 -0.3977 -0.0640
34694W        W34894   2.869   7.824   5.115  0.2562  0.1083 -0.1114
34695W        W34895   4.932  10.772  10.112  0.0088  0.1619  0.2936
34696W        W34896  14.459   1.663   8.463 -0.2511 -0.1072 -0.2381
34697W        W34897   1.308  17.378   1.661 -0.2054  0.0011 -0.1502
34698W        W34898  16.076   2.786  11.974 -0.2722  0.0428 -0.0238
34699W        W34899   8.110   6.341  12.097  0.1843 -0.0986 -0.1075
34700W        W34900  17.499  13.233   2.220  0.1823 -0.1211  0.1849
34701W        W34901   6.861  11.403  17.437  0.2721 -0.3409 -0.3397
34702W        W34902   2.008   7.741   9.426 -0.0037 -0.0395 -0.1488
34703W        W34903   8.598   3.698   8.476  0.1288 -0.3216 -0.2341
34704W        W34904  14.769   9.640   2.472 -0.1480 -0.0284 -0.1935
34705W        W34905  17.903  10.340   5.033 -0.1236  0.0988  0.1656
34706W        W34906  12.701  15.738   5.263  0.3802 -0.1708  0.5432
34707W        W34907  15.672   6.633  11.509  0.2871 -0.1802  0.1540
34708W        W34908  11.861   7.844   3.717  0.3901 -0.0421 -0.1227
34709W        W34909  11.909   0.162   4.635  0.0414 -0.1387  0.2011
34710W        W34910   9.965   5.609   5.795  0.1747  0.0136  0.0474
34711W        W34911   8.104   9.623  13.693  0.1550  0.1075 -0.0315
34712W        W34912  11.950   6.949  13.752 -0.2551 -0.2364 -0.1920
34713W        W34913   5.146  15.476   5.827 -0.0291  0.0120 -0.0074
34714W        W34914   6.874   0.856   6.355  0.2653  0.4064 -0.0889
34715W        W34915  10.216  10.700   6.306  0.3215  0.1842 -0.0976
34716W        W34916   7.340  11.775   4.031 -0.0238  0.0923 -0.4647
34717W        W34917  16.710   8.668   6.010  0.2396 -0.0406 -0.0714
34718W        W34918  13.104  12.252   7.336  0.4877 -0.1356 -0.1236
34719W        W34919   9.224  12.885  18.120  0.0663 -0.1928 -0.0564
34720W        W34920  15.367  12.430   2.321  0.1367  0.0223  0.1329
34721W        W34921  15.707   9.810   5.841 -0.1986  0.2087 -0.0080
34722W        W34922  10.044  12.320   6.916  0.1126  0.0168  0.1883
34723W        W34923  15.998  10.273   8.305 -0.0364  0.0505 -0.1318
34724W        W34924  16.869  12.946   8.980  0.1655 -0.0758  0.1393
34725W        W34925   9.684  13.014   9.979 -0.0124  0.1991  0.1054
34726W        W34926  13.316  12.714   7.687  0.0390  0.0664 -0.3803
34727W        W34927   7.680   0.167   4.265 -0.1181 -0.0597  0.0544
34728W        W34928  14.758   7.264  10.162 -0.0765  0.0649 -0.0505
34729W        W34929   9.946  12.408   7.777  0.0308  0.0262  0.1678
34730W        W34930   9.374  15.918   5.717 -0.3251  0.3544  0.0872
34731W        W34931   3.226   6.933   5.635  0.2124  0.1617 -0.0731
34732W        W34932  14.702  17.097   8.591 -0.0574 -0.2402 -0.0044
34733W        W34933  15.855   1.900  13.912  0.1079  0.0691  0.0293
34734W        W34934  16.095   9.973  11.263 -0.1285  0.1177  0.0227
34735W        W34935   4.939   6.294   9.550 -0.0584  0.1850 -0.3843
34736W        W34936  10.710   3.021   4.214  0.0644 -0.1608 -0.0335
34737W        W34937   0.144  14.325   2.581 -0.0213  0.0593  0.0389
34738W        W34938  12.897   1.547   6.674 -0.3776  0.6053 -0.0684
34739W        W34939  10.675  12.735   2.557 -0.1808  0.2834  0.3100
34740W        W34940   7.682   9.506   7.069 -0.1648 -0.0618 -0.2388
34741W        W34941   3.955  10.433   9.052 -0.1257 -0.2540  0.0473
34742W        W34942  14.476   4.395  16.526  0.2217 -0.0882  0.4167
34743W        W34943   8.999  16.585  16.293 -0.2471 -0.0456  0.1607
34744W        W34944  17.401   6.773   9.232 -0.2448  0.0788 -0.1963
34745W        W34945   0.372  10.915  14.388 -0.0800 -0.1014  0.0739
34746W        W34946  12.841  10.278   9.928  0.0060  0.0187 -0.0888
34747W        W34947   8.097  16.743   9.237  0.1737 -0.0225 -0.0440
34748W        W34948  11.379   0.925  10.826  0.3695 -0.0365  0.1866
34749W        W34949  16.438   2.722   8.194  0.1339 -0.1730 -0.2141
34750W        W34950  16.195  13.677   9.510 -0.0366 -0.2816  0.0704
34751W        W34951  14.332  10.515   7.318 -0.0142 -0.3293 -0.1458
34752W        W34952  12.421  17.883  13.118  0.2484  0.1584 -0.1022
34753W        W34953  11.204  15.946  11.951  0.1572  0.2059  0.2631
34754W        W34954  14.904   7.358   3.342 -0.0583 -0.0735  0.0560
34755W        W34955  15.376   4.331  13.069 -0.1666 -0.1905  0.0799
34756W        W34956   6.852  11.630  15.473 -0.3608 -0.1390  0.1805
34757W        W34957  13.512  11.773   4.359  0.1418  0.0208  0.0293
34758W        W34958  13.712   0.679   6.050  0.0409  0.1799 -0.4385
34759W        W34959  14.062   3.486   4.668 -0.1161 -0.0494  0.0471
34760W        W34960   3.077  13.202  11.446  0.1058  0.3067 -0.0580
34761W        W34961  16.002   7.667  10.058  0.0681 -0.1247 -0.2177
34762W        W34962   7.292   9.132  12.419 -0.4689 -0.1959  0.0023
34763W        W34963   1.386   9.664   2.041  0.1683  0.1518  0.0004
34764W        W34964  16.683   3.662   7.628 -0.3356 -0.2017 -0.0397
34765W        W34965  10.512   3.319  16.932 -0.0530 -0.2556 -0.3276
34766W        W34966  10.693   8.756   1.311  0.0696 -0.1761 -0.0949
34767W        W34967   9.816   3.791   5.122 -0.3326  0.1182 -0.0359
34768W        W34968   5.598   3.308   8.223 -0.0130  0.1911  0.2732
34769W        W34969   8.510   9.701   5.418 -0.2404 -0.1455  0.1889
34770W        W34970  11.578   6.606   4.278 -0.1795 -0.0377  0.2565
34771W        W34971   6.243  11.005   5.448  0.3019  0.0971  0.1408
34772W        W34972  11.984   8.815   0.223 -0.0546 -0.2906  0.1273
34773W        W34973  10.472  13.175   1.745 -0.1598 -0.1479  0.0435
34774W        W34974  17.722   2.159   2.083 -0.0370  0.3712  0.2133
34775W        W34975   4.441   1.261   8.192  0.2663  0.0446 -0.1111
34776W        W34976  12.389   7.774   0.739 -0.0691 -0.1881  0.3052
34777W        W34977  14.749   8.192  17.322 -0.4016  0.1318  0.0626
34778W        W34978   8.284   1.670  13.105  0.0668 -0.0934 -0.1240
34779W        W34979  10.277   3.969   0.572 -0.0409 -0.2159 -0.3028
34780W        W34980  12.756   8.579  16.255  0.0466  0.2090 -0.1586
34781W        W34981  14.677  10.679   2.130 -0.1392  0.3783  0.0584
34782W        W34982   6.384  15.393   1.802 -0.0008 -0.0464 -0.1246
34783W        W34983  12.816   8.078  16.424  0.3371  0.2367  0.1661
34784W        W34984  14.437  16.415   8.902 -0.1163 -0.1417  0.0448
34785W        W34985  11.329  11.747  17.340  0.0383 -0.0360  0.0958
34786W        W34986  14.577   5.888   0.489 -0.0589 -0.1398 -0.2307
34787W        W34987  13.125   8.407   4.919 -0.3978  0.3474 -0.0133
34788W        W34988  13.225  13.333   1.900  0.3660 -0.1379 -0.4112
34789W        W34989   8.953   8.288   7.867  0.0746  0.0053  0.0348
34790W        W34990  14.150   9.236  14.000  0.1059 -0.4228  0.0733
34791W        W34991   8.589  13.673   1.721 -0.1152  0.2168 -0.0581
34792W        W34992   0.293  16.171  10.208  0.0086 -0.0397  0.0886
34793W        W34993  12.954  11.124   8.822 -0.0906 -0.3138  0.2687
34794W        W34994   9.333  13.563   4.676  0.0358 -0.1179  0.1213
34795W        W34995   5.011  17.420   6.937  0.0970 -0.1576  0.0481
34796W        W34996  13.671  14.083   6.639  0.1053 -0.0606  0.0968
34797W        W34997   4.622   9.973   2.900 -0.3161  0.2087 -0.1660
34798W        W34998  16.136  16.723   7.611  0.2235 -0.3003  0.1135
34799W        W34999   0.702  12.387  16.398  0.3946  0.1285 -0.1028
34800W        W35000  13.464   0.484  14.425  0.0266  0.1678  0.0928
34801W        W35001   6.451  17.529  12.335  0.0633  0.2087  0.1410
34802W        W35002   9.255  17.814   8.471  0.0022 -0.0611  0.0389
34803W        W35003   8.917  15.965   2.399  0.2261  0.1223  0.3134
34804W        W35004   8.336  12.440  16.511 -0.2108  0.1264 -0.0530
34805W        W35005   7.570  11.601  12.451  0.1300  0.0363  0.2586
34806W        W35006  16.015   8.839   9.059 -0.0145  0.1932  0.1895
34807W        W35007   8.618  10.268   6.667  0.2473  0.4437  0.0973
34808W        W35008   9.847  15.234  14.961 -0.0502  0.0262 -0.0512
34809W        W35009   6.996  17.646  12.492 -0.1005 -0.0237  0.1111
34810W        W35010   4.511   6.662  11.943 -0.2220  0.1514  0.1159
34811W        W35011   5.380   7.786   4.613  0.0673 -0.2876  0.1892
34812W        W35012  16.205   0.465  13.973 -0.3390  0.0660 -0.1181
34813W        W35013   3.962   7.933   5.641  0.2211 -0.0506  0.0859
34814W        W35014  12.269   5.110   3.378 -0.0452 -0.0493 -0.0438
34815W        W35015  16.683  13.880   5.054  0.1027  0.1168 -0.0442
34816W        W35016  11.062   5.744  11.680  0.0226 -0.3111 -0.1584
34817W        W35017   4.103   9.206  11.620 -0.1894  0.0871  0.1117
34818W        W35018   9.085  12.775  11.570  0.3130 -0.0564 -0.3476
34819W        W35019  17.177  11.120   7.655 -0.0512 -0.3142  0.1664
34820W        W35020   7.989   7.048   9.083 -0.1404  0.0130 -0.1378
34821W        W35021   8.410  11.913  14.660 -0.0558  0.0230  0.1769
34822W        W35022   5.376   9.333   6.564  0.1160 -0.3006  0.2171
34823W        W35023   9.951  11.355   1.338 -0.2218  0.3273 -0.1637
34824W        W35024  12.021   6.184   6.600  0.0327  0.3849 -0.0191
34825W        W35025  14.066   9.472   6.908  0.1831 -0.1496  0.1374
34826W        W35026  11.209  17.971   9.337 -0.1870  0.1349 -0.1133
34827W        W35027   9.045  15.382  13.620  0.1103  0.0275  0.0566
34828W        W35028   8.428   0.084  13.583  0.4033  0.1541 -0.1444
34829W        W35029  15.993  10.215  11.849  0.2269 -0.0635  0.0306
34830W        W35030  12.696  14.873   2.005 -0.3737  0.0678 -0.5374
34831W        W35031  13.433  11.565   2.243 -0.0016 -0.3552 -0.1327
34832W        W35032  13.492   5.052   5.275  0.0179  0.4083  0.1344
34833W        W35033   9.382   8.930   0.269  0.1331 -0.1977 -0.1747
34834W        W35034  16.296  10.664  13.136  0.0317  0.0786  0.0246
34835W        W35035  16.978  11.391   4.082 -0.0925  0.0786 -0.0988
34836W        W35036   8.976  14.928   8.809  0.1857  0.1113 -0.0178
34837W        W35037  11.788   6.928   0.420  0.1117 -0.0229  0.0685
34838W        W35038  11.657  11.094  14.684 -0.0872 -0.0784 -0.2283
34839W        W35039  17.921  10.786   4.898  0.0752  0.2083 -0.3703
34840W        W35040  16.834   8.096  10.139 -0.1232 -0.0769 -0.0161
34841W        W35041  17.317  10.265  10.417  0.2443 -0.1371 -0.1205
34842W        W35042  12.112   5.640   2.146  0.1099 -0.1060  0.1287
34843W        W35043  13.739  10.021  11.475 -0.1905  0.0004 -0.3370
34844W        W35044   7.145  15.481   5.559 -0.1357 -0.1834 -0.0679
34845W        W35045   7.061   3.537   6.115  0.3194  0.2054  0.3841
34846W        W35046   7.627   7.287   8.856  0.0235 -0.1530  0.1584
34847W        W35047  12.168  11.696  11.752  0.0998  0.0856 -0.0501
34848W        W35048  10.765  13.695   8.182  0.2413  0.4226  0.0370
34849W        W35049   7.689  15.020   0.410 -0.2909 -0.1969 -0.1135
34850W        W35050  17.015   0.526   7.354 -0.2027 -0.0898  0.1704
34851W        W35051  16.793   1.143   5.534 -0.1618  0.0657  0.1686
34852W        W35052  12.144   7.552   2.276 -0.2580  0.0889 -0.0281
34853W        W35053  12.963  10.726   9.675  0.2713  0.0132  0.0522
34854W        W35054  13.347   9.436   7.966 -0.2270  0.1033  0.3500
34855W        W35055   4.883  14.101   2.050 -0.1389 -0.1483 -0.1142
34856W        W35056   0.523   4.985   5.253  0.1407  0.1251  0.3293
34857W        W35057  11.050   4.176   6.665 -0.3782 -0.1215 -0.2196
34858W        W35058   7.296  10.198  11.185  0.1136  0.1876 -0.3338
34859W        W35059  10.511  10.891  10.221  0.2040  0.1558  0.0315
34860W        W35060  14.694  15.363   2.382  0.0880  0.0323 -0.0789
34861W        W35061  10.502  12.891  11.136 -0.0400 -0.0389 -0.0115
34862W        W35062   9.407  14.796   9.296 -0.2686 -0.1070 -0.2577
34863W        W35063  18.152  14.115  12.349  0.1434 -0.0980 -0.1157
34864W        W35064   3.321  14.382   5.013  0.1925  0.0452 -0.0148
34865W        W35065   8.654   4.698  13.901  0.0090 -0.1740  0.1394
34866W        W35066  15.239   8.795   5.103 -0.1257 -0.0760 -0.0453
34867W        W35067  15.987  11.204   9.791  0.0705 -0.1805 -0.2071
34868W        W35068  10.597  10.457  13.737 -0.1697 -0.0448  0.3071
34869W        W35069  13.474   6.741   0.880 -0.1659 -0.2593  0.1442
34870W        W35070  17.711  15.503  13.400 -0.0516 -0.0522 -0.2395
34871W        W35071  12.602  13.692  12.711 -0.0440  0.4629  0.1423
34872W        W35072   2.240  15.227   8.231 -0.0718  0.0444  0.0690
34873W        W35073  14.889   9.375   7.096 -0.0826 -0.1252  0.3799
34874W        W35074  18.069   5.741  17.254 -0.2792  0.3489 -0.2477
34875W        W35075  15.827   4.585   4.047  0.3708 -0.0856  0.3000
34876W        W35076   4.784  10.105   3.940  0.2613  0.3014  0.2050
34877W        W35077  16.057  13.035  10.368 -0.0618  0.1594 -0.1108
34878W        W35078   6.260  17.181   5.525  0.1325  0.1116  0.0822
34879W        W35079   9.213  13.674  10.629 -0.1886 -0.1222 -0.2226
34880W        W35080  12.793   6.395  10.027 -0.0940  0.0896 -0.0229
34881W        W35081   7.337   9.134  15.804  0.1877 -0.0889 -0.0045
34882W        W35082   9.959  11.666  14.811 -0.4481 -0.0383  0.1228
34883W        W35083   2.843   8.203   1.990 -0.0649 -0.0261 -0.1803
34884W        W35084   1.764   9.935   7.228 -0.2406 -0.1150  0.1520
34885W        W35085  12.186   6.933  17.847 -0.0470 -0.2687 -0.1424
34886W        W35086   4.505  12.889  14.717 -0.0034  0.1215 -0.3622
34887W        W35087  13.991   9.060   4.921 -0.1077 -0.0853  0.0929
34888W        W35088   9.727   5.846  14.399 -0.0955  0.0767  0.2520
34889W        W35089   7.435   8.386   9.016 -0.2114 -0.2074  0.1251
34890W        W35090  12.734   6.017   6.284  0.0339  0.1874  0.1264
34891W        W35091   7.492  16.692   6.059  0.0123 -0.3409 -0.1056
34892W        W35092   6.174   3.605  11.301  0.0459  0.0732  0.0435
34893W        W35093  14.154   8.118   9.883  0.0253  0.0587  0.0363
34894W        W35094  14.725  17.711  11.696  0.1390  0.2071  0.0449
34895W        W35095   3.385  14.195  10.847 -0.0066 -0.0304 -0.0039
34896W        W35096  16.558  10.184   1.087 -0.0934  0.1971 -0.0771
34897W        W35097  16.604  12.856   9.836 -0.0228  0.2520  0.2770
34898W        W35098   4.943   7.233   7.467  0.2556  0.0616 -0.1373
34899W        W35099  13.572   8.177   6.387 -0.0666 -0.0040  0.0420
34900W        W35100   6.403  10.069   7.904  0.0010 -0.0827 -0.1504
34901W        W35101   2.847   7.390   4.188  0.0434 -0.1843  0.2416
34902W        W35102  18.071  11.700   3.779 -0.0593 -0.2921 -0.0173
34903W        W35103   7.791  11.197  10.997  0.0638  0.0754 -0.2047
34904W        W35104   4.087  13.026  14.244 -0.0841  0.0467  0.0585
34905W        W35105   9.347  17.283   0.973  0.0203 -0.0362 -0.0520
34906W        W35106  15.318   5.478   4.482  0.0853 -0.1154 -0.1243
34907W        W35107  13.874   9.284   9.603  0.0807  0.3967  0.2859
34908W        W35108  14.783  13.904   6.106  0.3454  0.0042  0.0646
34909W        W35109  14.549   8.630  10.470 -0.1855 -0.1191  0.1021
34910W        W35110   0.545   4.725   8.941 -0.0041 -0.0968  0.1784
34911W        W35111  11.231  14.178   8.029  0.1223  0.2419  0.1020
34912W        W35112   9.800  11.189  13.695  0.2540  0.2238  0.0490
34913W        W35113   9.246  12.204  14.512 -0.0197 -0.3517 -0.3153
34914W        W35114   1.436   5.750   6.304  0.0921 -0.1978 -0.0262
34915W        W35115  10.680   5.087  12.740 -0.2285  0.0453 -0.0342
34916W        W35116  12.504   6.030   3.517 -0.0012 -0.0551  0.1111
34917W        W35117   2.852  10.982  10.618 -0.0411  0.1031 -0.0573
34918W        W35118  14.459   4.959   9.445 -0.3594  0.0416 -0.2838
34919W        W35119  14.862   9.263   9.036  0.2404 -0.0663 -0.2195
34920W        W35120  12.914  17.406   4.326  0.1606  0.2943  0.0918
34921W        W35121  10.938  10.592   1.567  0.2644  0.1404 -0.1930
34922W        W35122   0.664   7.948  12.256  0.2619 -0.0888 -0.1258
34923W        W35123   6.139   5.364   5.074 -0.1634  0.0490  0.2352
34924W        W35124  13.621   4.666  17.333 -0.1847 -0.1639 -0.1745
34925W        W35125   7.760  10.960  12.998 -0.0635  0.0454 -0.0616
34926W        W35126  11.388   4.140   4.790 -0.0003  0.1132  0.1228
34927W        W35127  15.721  10.367  17.477  0.2664  0.0191  0.0377
34928W        W35128  10.885   4.025   4.963 -0.3691 -0.0229 -0.2460
34929W        W35129   7.521  10.120   9.910  0.0550 -0.0642  0.2010
34930W        W35130  11.922   4.198  14.440  0.3100  0.1351  0.2289
34931W        W35131  13.031  16.898   8.181 -0.0856  0.0138 -0.1270
34932W        W35132  14.200  12.550   1.372 -0.0000  0.0242  0.0862
34933W        W35133   5.294  14.463  13.775 -0.0723  0.2285  0.1446
34934W        W35134   0.057  11.147   1.659 -0.2536 -0.1519  0.1568
34935W        W35135  12.567   5.632   7.092  0.0826  0.2272 -0.1384
34936W        W35136  15.591   4.478  10.230 -0.0233  0.1937  0.1452
34937W        W35137   9.735   6.581   8.205  0.0995 -0.0551 -0.0213
34938W        W35138  12.133  10.268   8.818  0.0629 -0.1550 -0.2427
34939W        W35139  11.389  11.212   8.769  0.2052 -0.4900  0.2860
34940W        W35140  11.087  10.936  11.023  0.1443  0.2078 -0.1407
34941W        W35141  11.076   6.310   9.919 -0.4638  0.0584  0.1923
34942W        W35142  17.885  12.162   3.555  0.0945  0.0673  0.1476
34943W        W35143  11.595  13.398  15.676 -0.0334  0.4177 -0.2019
34944W        W35144  15.443   8.812   6.468  0.1580  0.0705 -0.0929
34945W        W35145   5.357   4.460   3.949  0.1846 -0.1474 -0.1476
34946W        W35146  17.522  11.305  10.557 -0.3240 -0.1746  0.1867
34947W        W35147  13.787   3.212   5.850 -0.0742 -0.3093 -0.2829
34948W        W35148  16.674  16.092   4.820  0.1245 -0.1002  0.1452
34949W        W35149   7.619  11.665   4.628  0.1402 -0.1581  0.0239
34950W        W35150  11.914   9.971   5.305  0.0285  0.0607 -0.1574
34951W        W35151  11.710   8.592  13.896 -0.1068  0.0748  0.3611
34952W        W35152  11.673   9.334  12.602  0.2536  0.4130  0.1027
34953W        W35153   9.503   7.317   7.618  0.0710  0.0547  0.2373
34954W        W35154  10.008  16.524   8.717 -0.0797 -0.2062  0.0377
34955W        W35155  13.864  16.531  10.746  0.3265 -0.0081 -0.1100
34956W        W35156   2.512   3.226   9.354  0.1695 -0.4084 -0.1308
34957W        W35157  10.350  11.132   2.336 -0.0060  0.0691 -0.1715
34958W        W35158  13.287   1.333  15.963 -0.1823  0.0036 -0.1154
34959W        W35159   9.735  13.290   6.487  0.0221  0.0430  0.1304
34960W        W35160  14.904   5.973   9.172 -0.1812  0.1420  0.1686
34961W        W35161   5.088  11.156   8.815  0.1911  0.0781 -0.0514
34962W        W35162  12.549   7.623  10.320 -0.0074  0.1666 -0.1783
34963W        W35163   8.425   9.364   9.143  0.0277 -0.1392  0.1405
34964W        W35164   6.988   1.281  11.089 -0.1671 -0.0735 -0.0303
34965W        W35165  13.839  10.376   3.029  0.0665 -0.0611  0.0797
34966W        W35166   3.883  11.492   8.769  0.3163  0.2252 -0.1440
34967W        W35167  17.959  14.609   5.819  0.0973  0.0335  0.0364
34968W        W35168   5.403  12.590   4.754  0.1759 -0.0928 -0.0052
34969W        W35169   1.137  16.123   1.635  0.0791 -0.1974  0.0948
34970W        W35170   8.335  17.512   6.867 -0.1449  0.0903 -0.1831
34971W        W35171   0.452  12.896   9.007 -0.2359 -0.4892  0.1323
34972W        W35172   8.784   3.130   7.892  0.0032 -0.1658 -0.1605
34973W        W35173  14.986   7.530  11.443 -0.0740  0.0214  0.0971
34974W        W35174  16.350   4.673   7.745 -0.2099  0.0442 -0.0150
34975W        W35175  17.978  13.819   6.489  0.0610  0.1210  0.2102
34976W        W35176  12.686   5.113   5.902  0.0825 -0.0008 -0.0584
34977W        W35177  16.013  10.178   5.903 -0.0001 -0.1289 -0.0209
34978W        W35178   0.464   6.174   3.586 -0.2581 -0.0300 -0.3550
34979W        W35179  14.893   4.447  13.029  0.1384 -0.1973  0.0488
34980W        W35180   1.395  13.346  12.457 -0.2176  0.2623 -0.2567
34981W        W35181   5.119  12.087   9.098  0.0978 -0.0961 -0.1325
34982W        W35182  15.888  12.164  12.181 -0.0925 -0.0385 -0.0814
34983W        W35183  14.795  14.932   9.022 -0.1840 -0.1222 -0.2849
34984W        W35184   8.570  15.467  10.115  0.1303  0.2175  0.0342
34985W        W35185  11.698   8.147  11.379  0.0751 -0.2322  0.0635
34986W        W35186  11.573  12.507  11.156 -0.0902  0.1206 -0.1527
34987W        W35187   9.075  10.046   6.980  0.0238 -0.0821 -0.0236
34988W        W35188   6.193  12.362   1.608 -0.0181  0.1055  0.1131
34989W        W35189   9.841   9.951   3.051 -0.0855 -0.1239  0.1050
34990W        W35190   8.762  12.022   7.534 -0.0635 -0.3114  0.1414
34991W        W35191  12.191  11.377   5.832  0.1889  0.2032 -0.0466
34992W        W35192  10.251  10.816   0.431 -0.2735  0.2325 -0.0204
34993W        W35193   7.120  12.604  12.675 -0.1231 -0.0224 -0.2343
34994W        W35194   2.775   3.974  12.721  0.2821  0.2047  0.0698
34995W        W35195   4.296  13.496  11.464 -0.1121  0.0617  0.2711
34996W        W35196  16.391   3.224  15.036 -0.0725  0.1626  0.3844
34997W        W35197  16.290  16.462   4.011  0.0588  0.0888 -0.1204
34998W        W35198   0.818  16.900   2.910 -0.1068 -0.0782 -0.2005
34999W        W35199  14.635  11.486  12.489 -0.1215 -0.0315 -0.2063
35000W        W35200  11.386   2.563  11.889 -0.0988  0.1507 -0.0543
35001W        W35201   3.480  10.210   9.171 -0.3375  0.0522 -0.1115
35002W        W35202  17.151  16.711   8.457  0.0016  0.0660  0.0980
35003W        W35203   7.394  16.525   9.851  0.0827 -0.0083  0.2836
35004W        W35204   8.594  12.678   4.134  0.0960  0.1413 -0.1701
35005W        W35205   7.091   5.705  14.886  0.0696 -0.1312  0.2316
35006W        W35206  11.081  15.520   2.652  0.1418  0.3581  0.1275
35007W        W35207  11.593   3.566   8.993  0.1415  0.1161 -0.2028
35008W        W35208  16.040  15.987   8.829  0.1506  0.0246 -0.3442
35009W        W35209   7.390   4.002  13.078  0.0211  0.0856 -0.0213
35010W        W35210  14.505  10.952  10.243  0.1739  0.0149 -0.1472
35011W        W35211   4.203   8.208  15.148  0.0112 -0.1606 -0.0378
35012W        W35212   7.357   8.351  15.764  0.0113  0.2314 -0.1262
35013W        W35213   4.324  16.123   7.281 -0.2824  0.0098  0.3122
35014W        W35214  10.367  17.023  14.461  0.0913  0.2679 -0.0163
35015W        W35215   2.377   8.006   3.082 -0.1025  0.2396  0.0000
35016W        W35216  15.289   7.827   6.437 -0.1477 -0.2562 -0.1195
35017W        W35217  14.111   2.589   4.813  0.1404 -0.0561  0.2187
35018W        W35218   5.924   8.589  15.670  0.1936  0.0318  0.3283
35019W        W35219   6.837   8.363  11.594  0.3261 -0.1149 -0.0334
35020W        W35220  12.438   3.344   4.937  0.2022  0.0026  0.0128
35021W        W35221  11.341  14.018   8.979 -0.0175 -0.1956 -0.0159
35022W        W35222   1.788  10.464  14.474  0.0446 -0.1552 -0.0580
35023W        W35223  11.696   2.242   8.614  0.2607  0.1230 -0.3247
35024W        W35224   0.493   9.620   6.551 -0.0159 -0.3533 -0.3082
35025W        W35225  11.433   9.847  12.444 -0.2426  0.4111  0.2851
35026W        W35226  15.070   6.249   1.733  0.1081 -0.0756  0.0926
35027W        W35227  13.723   6.298  15.070 -0.2899 -0.1645 -0.1136
35028W        W35228   7.065   9.193   9.166  0.3287  0.0366 -0.0927
35029W        W35229  16.716   8.280   4.441  0.0835 -0.0454 -0.0844
35030W        W35230  12.760   1.092  15.304  0.1211  0.0526  0.2400
35031W        W35231   9.979   7.784  11.903  0.0186 -0.3979  0.0879
35032W        W35232  12.986  17.860   2.697 -0.1486  0.0715 -0.1504
35033W        W35233   7.916   5.097   5.689  0.0300  0.1685  0.0182
35034W        W35234   0.780  11.654   9.918 -0.3777 -0.2359 -0.2353
35035W        W35235   7.879   0.916  14.090 -0.0814 -0.0794  0.1707
35036W        W35236   0.922   6.534   5.952 -0.1222  0.3530 -0.0590
35037W        W35237   5.090   3.274   8.247  0.4967  0.0461  0.2666
35038W        W35238  12.337  12.754  10.207 -0.0429 -0.1346  0.0264
35039W        W35239  13.978  16.908   8.206 -0.0537 -0.1202 -0.2082
35040W        W35240   5.249  16.287   9.833 -0.0749 -0.4348 -0.1101
35041W        W35241  12.579   5.513  13.735 -0.1995 -0.1659 -0.0131
35042W        W35242  12.043   9.225  16.322 -0.2197  0.3004  0.1163
35043W        W35243   9.566   2.610  15.999  0.0237 -0.0198 -0.0580
35044W        W35244   7.062  14.948  10.599  0.0243 -0.2323 -0.2286
35045W        W35245  14.651  16.270  12.049  0.0703  0.2512  0.2885
35046W        W35246  13.653   9.651   4.457  0.0725  0.0551 -0.3243
35047W        W35247  15.723  15.934  14.651 -0.2570 -0.0839 -0.0072
35048W        W35248   4.837  15.298   4.799 -0.0147  0.0413 -0.0490
35049W        W35249  15.575   0.587  10.757  0.4326 -0.0898  0.1033
35050W        W35250   1.856   8.509   8.652 -0.2118 -0.1379  0.0351
35051W        W35251   7.087  13.105   5.158 -0.0275 -0.3135  0.0335
35052W        W35252  13.680  12.585  17.639 -0.0954 -0.2432 -0.0252
35053W        W35253  16.571  12.125   3.871  0.0074  0.0594 -0.1238
35054W        W35254  15.777   5.387  18.049  0.1348 -0.3962  0.5020
35055W        W35255  10.981   0.030  10.616  0.1958  0.0147  0.0878
35056W        W35256  12.075   8.374   9.297 -0.2754  0.0707 -0.4538
35057W        W35257  12.802   9.683   0.082  0.0830  0.0277 -0.2083
35058W        W35258   8.278  12.096   8.583  0.1176  0.0492 -0.1134
35059W        W35259   7.259   8.986   5.319 -0.0391  0.0587  0.1224
35060W        W35260   4.458   9.888   9.503  0.1382 -0.0184 -0.0126
35061W        W35261   2.043   8.037   8.990  0.0615 -0.0504 -0.1022
35062W        W35262  16.594   9.128  11.064 -0.2106 -0.3222 -0.2776
35063W        W35263  11.962  11.085  16.533  0.1281 -0.2641 -0.1994
35064W        W35264  11.777   6.138   1.891 -0.1565  0.1206 -0.1421
35065W        W35265   7.211  11.597   3.564  0.6559  0.0873 -0.4582
35066W        W35266  10.353  10.021   0.202  0.1440 -0.2953  0.1758
35067W        W35267   2.784   8.546   2.342  0.0678 -0.0416  0.0091
35068W        W35268   9.011   9.746   8.915 -0.0237  0.1071 -0.2466
35069W        W35269  10.641  18.015   7.113 -0.1872 -0.0118 -0.2522
35070W        W35270  12.492  11.387   2.202 -0.2068 -0.0625  0.0316
35071W        W35271  10.245   5.697   8.467  0.0941  0.0722 -0.2043
35072W        W35272  11.124   0.750  11.302  0.3622 -0.0451  0.0095
35073W        W35273   9.135  10.583   9.552 -0.0426 -0.1618  0.1663
35074W        W35274  12.502  12.569  12.992  0.0070  0.1374  0.6345
35075W        W35275  10.629  12.334  12.138 -0.0375 -0.0022 -0.2352
35076W        W35276   4.553   6.850   1.873  0.1409 -0.0771  0.1897
35077W        W35277  13.843   8.593   8.236  0.2252  0.0030 -0.2343
35078W        W35278  10.904   2.820  11.841  0.1535  0.1451 -0.1929
35079W        W35279  13.201   3.938  15.003  0.2171  0.1249 -0.0799
35080W        W35280  14.158   3.623  11.892  0.1610  0.0498  0.1025
35081W        W35281  10.259   6.064   5.906 -0.0648 -0.0559  0.0631
35082W        W35282   1.730  18.129   5.643  0.1618  0.1778  0.0789
35083W        W35283   9.586  15.253  10.188 -0.0666 -0.2822 -0.0574
35084W        W35284  11.188  12.955   8.801 -0.2163 -0.3471  0.0872
35085W        W35285   7.024   8.549   7.933 -0.1175 -0.0329  0.0529
35086W        W35286  14.608   7.704  10.469  0.1519  0.6845 -0.0595
35087W        W35287   2.780  10.032   6.545  0.0649 -0.0487  0.1047
35088W        W35288   8.423   6.611   5.488 -0.1221  0.1694  0.4018
35089W        W35289   9.528  14.247   5.963  0.3383 -0.1295  0.1316
35090W        W35290   8.977   7.331   9.349  0.1180 -0.0249  0.0027
35091W        W35291   6.785  13.579   8.348 -0.2093 -0.0355  0.1930
35092W        W35292  12.502   8.991  16.480  0.1145  0.2089  0.0216
35093W        W35293   7.234   9.253   7.005  0.0730  0.0926 -0.0944
35094W        W35294  14.200  11.403   2.768 -0.1162  0.0748  0.1283
35095W        W35295  16.467   9.173   3.057  0.1721 -0.0563 -0.0095
35096W        W35296  12.701   4.075  11.375  0.0963  0.1134 -0.0627
35097W        W35297  14.275   4.733  15.070  0.2059  0.3713 -0.0491
35098W        W35298  14.733   4.080   9.960  0.2657 -0.5615  0.2897
35099W        W35299   2.839   3.386   7.112  0.5307  0.0077 -0.1604
35100W        W35300   9.918   1.953  11.669 -0.1058  0.1736  0.0164
35101W        W35301  12.507  10.713   7.184  0.1719  0.0229  0.0090
35102W        W35302   8.203   4.662   5.481 -0.2422  0.1289 -0.1275
35103W        W35303  13.833  16.161  15.138  0.2354  0.0588  0.1853
35104W        W35304   8.831   8.051   8.336 -0.1870 -0.0764  0.1431
35105W        W35305  10.635  12.543  11.700 -0.0396  0.2132  0.0172
35106W        W35306  13.057   6.174  15.748 -0.0170  0.1449  0.3309
35107W        W35307  13.282  17.935  10.886 -0.1071  0.0477 -0.0226
35108W        W35308   3.446   7.333  17.518 -0.2939 -0.0273  0.2093
35109W        W35309   3.273  14.370   7.879 -0.1801 -0.1052  0.2462
35110W        W35310  15.197   8.649   4.630 -0.0326  0.2682 -0.0175
35111W        W35311  10.463  10.594   7.225 -0.2277  0.0367  0.1364
35112W        W35312   9.026   6.347  11.585 -0.0414 -0.2817  0.1221
35113W        W35313  15.245   5.705   7.509 -0.2818  0.4110  0.1233
35114W        W35314   8.477  14.059  11.466 -0.0730  0.2319 -0.0774
35115W        W35315  13.216  10.200  10.283  0.1920  0.2349  0.0003
35116W        W35316   7.297  12.217  13.664  0.0116 -0.1951  0.0935
35117W        W35317  15.877  12.073   9.840 -0.2423 -0.0649  0.0642
35118W        W35318   8.508   8.886   8.254  0.1681 -0.0220  0.1872
35119W        W35319  16.931   3.352   1.823 -0.0568  0.2128  0.2194
35120W        W35320   7.031  10.800  12.600 -0.2972  0.0410 -0.2810
35121W        W35321   9.828   7.672   2.978 -0.4090 -0.2018  0.1021
35122W        W35322  15.843  14.115   0.182  0.1748  0.2419 -0.0421
35123W        W35323   6.298  15.594   7.401  0.0635  0.0046  0.3355
35124W        W35324   8.486  14.162  12.381  0.1148 -0.1624 -0.0873
35125W        W35325   2.921  14.272   4.605 -0.1769  0.2507  0.1673
35126W        W35326   7.995   5.723   2.100 -0.0051 -0.2469 -0.0600
35127W        W35327  10.624   6.789  14.328  0.0658  0.1214  0.0714
35128W        W35328   6.703  10.533   2.871  0.0403 -0.0052 -0.0449
35129W        W35329   5.462  12.905   6.018 -0.4078  0.0310 -0.0351
35130W        W35330   1.873  10.922   9.574 -0.3809 -0.2235  0.2008
35131W        W35331  10.461   0.562   6.760 -0.0902  0.0518  0.0974
35132W        W35332  12.911   1.474  12.778 -0.0048 -0.1164  0.4414
35133W        W35333  10.177   9.018  10.756 -0.2020 -0.0161 -0.1602
35134W        W35334   1.396   6.591   7.519 -0.2912 -0.0031  0.0648
35135W        W35335  13.947  11.019   9.547  0.2854 -0.4519  0.0735
35136W        W35336   7.775   2.936   7.597 -0.0625  0.2835  0.2568
35137W        W35337  14.209   2.250  11.579 -0.2596 -0.0700  0.0807
35138W        W35338   8.575  14.451   9.978 -0.1129  0.5035  0.0013
35139W        W35339  16.458   6.199   8.179 -0.2063  0.2801  0.0725
35140W        W35340  12.690  14.297   8.390  0.0727  0.1302 -0.4686
35141W        W35341  14.938   8.007  11.163 -0.3100  0.1770 -0.1400
35142W        W35342   7.776  10.243  10.888 -0.0005  0.4189 -0.2120
35143W        W35343   8.345  12.261   7.531 -0.1413 -0.0532 -0.2038
35144W        W35344  10.166  12.114   6.286  0.0797 -0.0263  0.1744
35145W        W35345   6.918  14.238  12.769  0.1175  0.0108 -0.0464
35146W        W35346   9.884  10.320  10.460  0.2067 -0.0546  0.2264
35147W        W35347   8.272   6.129  10.328  0.1174  0.0961  0.0214
35148W        W35348   0.429   3.322  11.070  0.2219 -0.0266 -0.3462
35149W        W35349   7.013  18.019  11.711 -0.1963  0.1091  0.0294
35150W        W35350  14.595   6.095  10.021  0.1171  0.2032  0.1560
35151W        W35351   4.331   9.123   7.104 -0.1970  0.1567 -0.0434
35152W        W35352  11.422  14.847  17.200 -0.1302  0.0797 -0.2162
35153W        W35353  11.016  16.394   8.310  0.0740  0.0861  0.4376
35154W        W35354   0.558   3.360  17.970  0.2486 -0.0472  0.2237
35155W        W35355   9.717   3.855  10.769  0.0677  0.0980  0.3633
35156W        W35356  12.434  16.105  10.094 -0.0479 -0.0528 -0.1093
35157W        W35357  15.557   5.625  14.349 -0.0101 -0.2366 -0.1067
35158W        W35358   7.595   0.126  13.346 -0.0466  0.0815  0.2560
35159W        W35359  12.556  11.086  13.507 -0.2428 -0.0285 -0.2165
35160W        W35360  11.093   2.370   3.428  0.2244 -0.0945 -0.0484
35161W        W35361  13.632  11.405  12.255  0.2386  0.0631  0.1670
35162W        W35362  10.254  12.478   7.434 -0.1471  0.0507 -0.2633
35163W        W35363  10.310   4.507   0.426 -0.0220  0.2593 -0.1558
35164W        W35364   6.429   9.423   4.165  0.1513  0.1682 -0.3013
35165W        W35365  13.616   8.503  11.618 -0.3267 -0.2133 -0.3172
35166W        W35366  14.308  14.252  12.413  0.0230  0.1191  0.1400
35167W        W35367  10.875   5.636  11.115  0.1139 -0.2658 -0.2795
35168W        W35368  12.808  11.793   4.449 -0.1519  0.0214 -0.1160
35169W        W35369   8.981   1.182   6.383  0.5129 -0.4710  0.0659
35170W        W35370  10.924   6.975   1.586  0.1343 -0.1477 -0.0939
35171W        W35371  15.763   5.919   7.397 -0.2370 -0.1903  0.2109
35172W        W35372   9.346  13.355   8.628  0.1206 -0.2366  0.2156
35173W        W35373  16.125  15.544  10.923  0.1408 -0.3351  0.0295
35174W        W35374  17.217  11.973   4.901  0.1008 -0.2264 -0.0141
35175W        W35375  12.819   8.262  13.164 -0.0230  0.0746  0.1194
35176W        W35376  17.493  12.217  10.513  0.1523  0.0509  0.0481
35177W        W35377  12.584   6.434   0.881  0.1685  0.1473 -0.0117
35178W        W35378  15.900   8.289  13.434 -0.0548  0.0339  0.0691
35179W        W35379  13.003  13.270   7.665 -0.0246 -0.1872 -0.0049
35180W        W35380  13.916   2.931   8.982  0.0771 -0.1472  0.1168
35181W        W35381  12.357   7.639  14.571  0.0626 -0.0000  0.1255
35182W        W35382   5.567   6.571   6.621  0.3079  0.1597  0.0435
35183W        W35383  13.184  11.613  11.394 -0.1700 -0.0276  0.1150
35184W        W35384  15.263  16.615  12.816 -0.0972 -0.3672  0.1520
35185W        W35385  13.683   5.066  12.352  0.1622  0.1922  0.1934
35186W        W35386  13.185  16.290   8.611  0.0102  0.1803 -0.0909
35187W        W35387  10.032   8.270   7.559 -0.1280 -0.0232  0.2758
35188W        W35388   2.774   0.837  11.834 -0.1109  0.0488 -0.0568
35189W        W35389  12.782  15.081   5.354  0.1420  0.1268 -0.3110
35190W        W35390  15.324   9.498   2.137 -0.0656 -0.1468 -0.0918
35191W        W35391  15.579   5.844   9.175 -0.1525 -0.2361 -0.1178
35192W        W35392   3.057   8.718   8.901 -0.0141 -0.1726 -0.1267
35193W        W35393   7.498  14.507  11.819  0.0474  0.0234  0.0862
35194W        W35394  11.014  12.696  10.619 -0.1294  0.2164  0.3927
35195W        W35395  16.543   8.669   5.443  0.0559 -0.1088 -0.2329
35196W        W35396  12.421  11.136   4.031 -0.0037 -0.5245 -0.0367
35197W        W35397  12.674  11.600  11.548 -0.3127  0.0912 -0.1161
35198W        W35398  15.974  12.539  10.399  0.0710  0.1787  0.2140
35199W        W35399   7.683   3.762  12.103 -0.1483  0.1703  0.2474
35200W        W35400  11.587  15.354  12.377 -0.1937  0.1156 -0.0990
35201W        W35401  10.524   6.587   1.719  0.2069  0.3310  0.1285
35202W        W35402   1.182   8.290  13.890 -0.1383  0.0517  0.0199
35203W        W35403  10.637   2.437  14.736  0.3809 -0.1218 -0.0651
35204W        W35404  12.959  16.543   7.131 -0.2658  0.2798 -0.1681
35205W        W35405   8.751   5.824   7.886 -0.3041 -0.0863  0.1962
35206W        W35406  14.906   1.969   9.758 -0.2520  0.1072 -0.0449
35207W        W35407   2.880   6.699  12.711 -0.3379 -0.3126  0.2545
35208W        W35408   1.982   1.279  12.989  0.2491  0.0949  0.1106
35209W        W35409  10.280   4.759  13.821  0.1658 -0.3327 -0.4245
35210W        W35410  16.149   3.955   6.150  0.1385 -0.2419  0.1963
35211W        W35411  13.207  11.632  13.912  0.1636  0.1818  0.2440
35212W        W35412   7.558   9.557  16.032 -0.1085 -0.1421  0.1745
35213W        W35413   6.257  10.998   5.970  0.0911 -0.1465  0.2072
35214W        W35414   0.244  10.760   1.933  0.1149 -0.1517 -0.3025
35215W        W35415   5.752   6.949  17.244  0.1780  0.1097  0.3209
35216W        W35416  15.207  14.559  16.307 -0.1556 -0.1343  0.0141
35217W        W35417  15.205  12.500  11.753 -0.1056 -0.2900 -0.4668
35218W        W35418  12.113  13.285  12.781  0.0641  0.3026 -0.2399
35219W        W35419   1.292   7.359  12.913 -0.2030 -0.0092 -0.1061
35220W        W35420   9.246   5.505  15.647 -0.1175 -0.0294  0.1175
35221W        W35421   4.512   5.141   1.199 -0.0069  0.1571 -0.1588
35222W        W35422  10.702  12.767  14.480  0.0176 -0.1644 -0.0409
35223W        W35423   5.871   3.181   4.853 -0.1629  0.0910 -0.0286
35224W        W35424   9.892  12.455   3.734 -0.0437 -0.0504  0.1603
35225W        W35425   0.564  10.393  12.898  0.3320  0.3291 -0.0067
35226W        W35426   9.418   7.713  13.709  0.3576 -0.4563  0.2764
35227W        W35427  10.879  10.805  13.489  0.3239 -0.1144 -0.0417
35228W        W35428   5.999  14.203   3.243  0.0506  0.1020  0.2074
35229W        W35429   3.624   1.629  12.587 -0.2694 -0.1006 -0.2412
35230W        W35430  11.250  12.580   6.316  0.0720  0.2411  0.0902
35231W        W35431  11.246   3.330   0.529 -0.0074  0.1613 -0.0631
35232W        W35432  10.921  11.748   2.703 -0.0858 -0.0023  0.0321
35233W        W35433   7.654   6.723  14.270  0.1851  0.1545 -0.0226
35234W        W35434  11.811  15.848  15.325 -0.0723  0.2574  0.0400
35235W        W35435  12.645   4.262  12.886  0.4459  0.2068 -0.0929
35236W        W35436  13.608   1.747   4.630  0.0907 -0.0804  0.5245
35237W        W35437  13.380  12.701   9.224  0.1578 -0.0581  0.1644
35238W        W35438   6.485  10.950   8.749  0.1461  0.1758 -0.0280
35239W        W35439  16.754  11.222  14.878 -0.1981 -0.0038  0.0381
35240W        W35440   3.228   3.199  11.109  0.1459  0.3145  0.0326
35241W        W35441  13.034  13.305  15.641  0.2940 -0.2089 -0.0907
35242W        W35442  11.612   9.298   9.514 -0.0392 -0.0276 -0.0550
35243W        W35443  13.986  10.527  11.205 -0.1572 -0.3956 -0.2765
35244W        W35444  17.226   8.656  13.948 -0.1693  0.1625 -0.2016
35245W        W35445   6.066   1.386  13.610 -0.0191  0.2058 -0.1112
35246W        W35446   3.100  10.183   0.973  0.3163  0.0500  0.0574
35247W        W35447   8.707   9.126   1.765  0.0104 -0.0607 -0.5316
35248W        W35448  11.448  11.630   9.737 -0.0615 -0.0744  0.0139
35249W        W35449   8.223   4.756   8.323 -0.2313  0.2884  0.1466
35250W        W35450  10.451  11.737  13.534  0.2822 -0.1319 -0.0464
35251W        W35451  12.635   8.614   4.703  0.1107 -0.2343 -0.0023
35252W        W35452   9.374   5.574   9.356 -0.0137  0.0168 -0.1493
35253W        W35453   9.117   6.474   6.128  0.1816  0.4181 -0.3685
35254W        W35454   7.040   3.722  10.078  0.1785 -0.1703  0.1020
35255W        W35455   8.512   6.542  13.382  0.2655 -0.1054 -0.2220
35256W        W35456   8.081  10.684   5.590  0.2206  0.0545 -0.2224
35257W        W35457   8.555  10.006  10.209  0.0978  0.0573  0.1519
35258W        W35458  15.114  13.460  13.176  0.2306 -0.3651  0.0446
35259W        W35459  12.948   3.971   8.703  0.0235 -0.0542 -0.0515
35260W        W35460   8.922   5.562  13.739  0.2963  0.3312  0.3839
35261W        W35461  13.171   0.489  16.024 -0.3311 -0.1395 -0.2458
35262W        W35462  15.412   6.636   6.433 -0.0072  0.1278 -0.2303
35263W        W35463   9.485   8.985  14.345  0.0849 -0.0606 -0.0621
35264W        W35464   8.305   8.197  12.351  0.1292  0.3309  0.3915
35265W        W35465   6.277   0.022   0.928  0.1562  0.0641  0.0700
35266W        W35466  10.971  11.501   8.503  0.0047 -0.0556 -0.0561
35267W        W35467   7.607  10.990   4.755  0.3090  0.0217  0.1779
35268W        W35468  12.270  14.361   8.686  0.1100  0.0980  0.0346
35269W        W35469   9.976  14.236   9.613  0.4251  0.1525  0.0461
35270W        W35470  12.396   7.813  11.126  0.4421  0.2515  0.1852
35271W        W35471   1.339   8.773  14.146  0.0028 -0.3859  0.3490
35272W        W35472   5.517  10.050   0.803 -0.2409 -0.1112 -0.0094
35273W        W35473  15.311  18.011  12.434 -0.1597  0.1599 -0.1523
35274W        W35474  10.262  13.187  12.662  0.0561 -0.0124 -0.1080
35275W        W35475   6.851   4.465   5.415  0.0211 -0.2020  0.1658
35276W        W35476   8.318  12.090   0.922  0.0058 -0.3764  0.2927
35277W        W35477  10.163  14.411   4.852  0.0823 -0.0834  0.3397
35278W        W35478   5.797   6.865   9.636 -0.0279 -0.0033  0.0672
35279W        W35479   9.049   7.824   6.680  0.2140  0.1433 -0.2237
35280W        W35480  11.565  12.780   9.835  0.0439 -0.1588 -0.1989
35281W        W35481  11.071  15.012   4.204 -0.1087  0.1248  0.1250
35282W        W35482   8.234  10.165   8.807 -0.1280  0.0014  0.2558
35283W        W35483  16.213   6.611   0.776  0.1677  0.1259  0.3446
35284W        W35484   9.323  10.703   1.650  0.1689  0.1585  0.0592
35285W        W35485  14.310  11.361   8.797 -0.2327  0.0577  0.1274
35286W        W35486  13.349  15.766   1.199  0.0425  0.0554  0.0124
35287W        W35487  11.812   8.028  16.025  0.0143 -0.2180  0.0648
35288W        W35488  14.963   4.842   5.402  0.1138  0.0290 -0.0180
35289W        W35489  11.851   8.514  10.761  0.3051  0.1903  0.1181
35290W        W35490   0.708   4.867  12.935 -0.1673 -0.1827  0.3209
35291W        W35491  13.396   7.153  12.368  0.0794 -0.2474 -0.0921
35292W        W35492  12.628   3.259  17.715 -0.1409 -0.0852 -0.0347
35293W        W35493  15.120  10.323  11.976  0.3129 -0.2684  0.1541
35294W        W35494  13.582  14.831   4.115 -0.0852 -0.2412 -0.0697
35295W        W35495  12.085  18.151  18.132  0.0654  0.1225 -0.0612
35296W        W35496  16.923   6.947  16.428 -0.2626 -0.0139  0.2564
35297W        W35497   7.620  17.837  10.405 -0.0610 -0.2068  0.0826
35298W        W35498  17.489   6.393  11.473  0.0724 -0.1378  0.2911
35299W        W35499  11.992   5.351  15.352  0.0192 -0.2005 -0.0760
35300W        W35500   2.122   5.834   3.439  0.2708 -0.0798  0.2890
35301W        W35501  16.187   9.596  10.432 -0.1408  0.0439 -0.0798
35302W        W35502  15.942   2.838  12.932 -0.0652  0.1861  0.0704
35303W        W35503  10.860  18.100  12.454  0.2260  0.2566 -0.0960
35304W        W35504   0.862  10.716  14.292 -0.0503 -0.1929 -0.1743
35305W        W35505  10.465   7.395  10.932 -0.0875 -0.1381  0.0460
35306W        W35506   1.671  12.649  13.450 -0.1394  0.3295  0.2114
35307W        W35507  15.421  14.645  13.695  0.2405  0.0018 -0.0394
35308W        W35508   0.464  12.311   4.272  0.1689 -0.0530  0.1817
35309W        W35509   5.036  11.447   0.696 -0.0021 -0.0846 -0.1057
35310W        W35510  11.630   8.598   9.053 -0.2363 -0.0451 -0.1746
35311W        W35511  13.228   8.885  10.751  0.1428 -0.1036  0.2345
35312W        W35512   9.600   9.624  15.394  0.0427  0.1528  0.4552
35313W        W35513   8.501  11.811  15.805 -0.0115 -0.2129  0.2566
35314W        W35514  15.000   5.883  14.473  0.1224 -0.1425 -0.2987
35315W        W35515   0.991  12.260   4.119 -0.1839  0.1710  0.1502
35316W        W35516  12.136   1.461  12.446  0.2767 -0.2527 -0.0222
35317W        W35517   7.965   8.734   3.159 -0.0102  0.3022  0.0915
35318W        W35518  14.073   7.450   1.985 -0.3086 -0.0135 -0.1528
35319W        W35519  16.424   5.440  12.531  0.1398 -0.0904  0.2655
35320W        W35520  11.665   1.659  15.206 -0.0768  0.1067 -0.1131
35321W        W35521   0.690   0.149   5.029  0.0406  0.1214  0.1230
35322W        W35522   4.566   8.727  12.930  0.0230  0.0934 -0.1143
35323W        W35523   0.682  13.768  11.659  0.3867  0.3679 -0.1473
35324W        W35524  12.396  11.327  15.553  0.1467 -0.0124 -0.1704
35325W        W35525  15.098  11.605   6.211 -0.1558  0.3286 -0.1978
35326W        W35526   6.265   3.517   1.891 -0.0628 -0.1505 -0.1427
35327W        W35527   8.532  12.149  11.352  0.0207  0.2939  0.2309
35328W        W35528  11.098   5.854  10.253 -0.0391  0.0310 -0.3343
35329W        W35529  16.035   9.324   9.772 -0.1538 -0.0927  0.2127
35330W        W35530  14.779   5.328  13.439 -0.0728  0.1868 -0.1764
35331W        W35531   9.794   2.059   2.377 -0.0865 -0.2837  0.3419
35332W        W35532  12.575  15.217  11.097  0.1664  0.0139  0.0992
35333W        W35533  17.926  16.363   8.839 -0.0759 -0.1642  0.2500
35334W        W35534  10.658   9.542   2.023 -0.1063  0.1567 -0.1910
35335W        W35535   9.934   8.205  14.382  0.2208  0.0559  0.0031
35336W        W35536  13.452  14.775  16.047 -0.0232  0.1097  0.0790
35337W        W35537  10.734  10.569  14.666  0.0352 -0.0157  0.3230
35338W        W35538   7.139   6.889  17.303 -0.0211  0.0015  0.1841
35339W        W35539  11.913  12.701   9.240 -0.3129 -0.0786 -0.0428
35340W        W35540  13.426  11.267  17.776  0.4079 -0.1957  0.1732
35341W        W35541  13.485   0.509  12.722  0.3955 -0.1018 -0.1521
35342W        W35542  13.548  11.844  10.453  0.0642  0.0023  0.3318
35343W        W35543   9.978  14.083   6.424 -0.1278 -0.0294  0.1153
35344W        W35544  12.405   9.741  14.217 -0.1046  0.0772  0.0326
35345W        W35545  11.164   7.209  10.443 -0.0683 -0.1053 -0.1002
35346W        W35546  12.877  11.407  13.644 -0.1042  0.0923 -0.0010
35347W        W35547   7.847   7.363  11.284 -0.5480 -0.2506 -0.2091
35348W        W35548  15.920  15.360   9.557  0.1491  0.2391  0.1780
35349W        W35549   5.840   7.595  13.457  0.1676 -0.0848 -0.1208
35350W        W35550   6.016   6.568   6.871  0.0682 -0.1078 -0.1169
35351W        W35551  13.414  15.501  17.610 -0.1290  0.0509  0.0738
35352W        W35552  17.750   9.241  14.550  0.0382 -0.0551  0.1479
35353W        W35553  13.545  13.381  10.516  0.1499  0.2854  0.1981
35354W        W35554   0.925   1.771   3.972  0.1632  0.0493  0.0558
35355W        W35555  16.860   9.967   9.305 -0.4225 -0.1406  0.1051
35356W        W35556   3.669   3.692  15.152 -0.0702 -0.1240 -0.0297
35357W        W35557  15.951  10.440  10.405  0.4822  0.0006 -0.4441
35358W        W35558   7.747  10.428   8.071  0.0153 -0.2325  0.0604
35359W        W35559   6.721   2.068  11.827 -0.2713  0.0575  0.2191
35360W        W35560   9.692   3.664   1.366 -0.0488  0.0556  0.0687
35361W        W35561   3.181  15.076   2.247  0.1271  0.0097 -0.0190
35362W        W35562  14.944  15.744  10.931 -0.0682  0.3924 -0.1063
35363W        W35563  17.287   6.062  14.143 -0.0839  0.1880  0.3312
35364W        W35564  11.469   3.518  10.310  0.0129  0.0507 -0.2232
35365W        W35565   6.321  12.259   5.331  0.2402  0.1195 -0.0129
35366W        W35566  10.269  15.718  12.841  0.0079  0.0546  0.0592
35367W        W35567   4.732  14.682   8.140  0.0599 -0.3572 -0.1201
35368W        W35568  14.948   2.574  14.586  0.0330 -0.0512  0.0231
35369W        W35569  11.730  16.163  13.662 -0.3903 -0.0318 -0.1888
35370W        W35570   4.403  10.792  10.257  0.2361  0.1927  0.2515
35371W        W35571   6.611   7.095   9.393 -0.2135 -0.1582  0.1981
35372W        W35572  12.270   6.009  14.916 -0.4247 -0.0053  0.0801
35373W        W35573  12.571   8.238   5.715 -0.3158 -0.1252  0.3471
35374W        W35574  17.392  10.027   9.677 -0.0154 -0.0739  0.1227
35375W        W35575   6.732  12.549   5.163  0.1235  0.0763  0.0316
35376W        W35576  16.247   8.604  13.534 -0.1624 -0.1200 -0.1603
35377W        W35577   7.177  13.146  10.777 -0.2271  0.0773 -0.3787
35378W        W35578  13.810  10.938  12.000 -0.0644  0.1037 -0.0235
35379W        W35579  13.897   9.633   1.961 -0.2221 -0.0458 -0.1861
35380W        W35580  17.260  11.676  10.279 -0.0595  0.0814 -0.1505
35381W        W35581  17.789   5.442  14.666  0.0365  0.2447 -0.3761
35382W        W35582  15.825   5.106   5.416  0.0422 -0.0694 -0.1414
35383W        W35583  11.009  13.804   6.030  0.1985  0.1143 -0.1488
35384W        W35584  14.572   8.177   5.284  0.0886  0.1113 -0.0411
35385W        W35585  12.583   2.582  14.390  0.0618 -0.0698 -0.0638
35386W        W35586  13.291   6.249  14.889 -0.2894  0.2823 -0.1223
35387W        W35587   9.396  16.732   8.444  0.2145  0.1080 -0.0793
35388W        W35588  16.793   7.435  16.232 -0.0579 -0.1223 -0.2716
35389W        W35589   4.825  12.592   2.097 -0.1873  0.1320 -0.1376
35390W        W35590   8.297   0.370  11.191 -0.1719 -0.0225 -0.2237
35391W        W35591  14.061   7.976  12.880 -0.0890  0.2053  0.0030
35392W        W35592   6.517   4.308  12.809  0.0775 -0.0497 -0.0984
35393W        W35593  13.898   8.388  13.171 -0.0704 -0.2343 -0.3819
35394W        W35594   9.157   5.866  11.603  0.1357 -0.2232 -0.1674
35395W        W35595   7.974  10.644  14.825 -0.0666  0.1310  0.1428
35396W        W35596  10.587   6.497   2.324  0.3451 -0.0997  0.2083
35397W        W35597  15.819  12.258   0.834 -0.2720  0.2989  0.2501
35398W        W35598   8.077   3.366  14.181 -0.1510  0.1293 -0.1010
35399W        W35599  13.533  13.433  15.598 -0.2508 -0.0850  0.1896
35400W        W35600  10.173   1.417   7.057 -0.2563  0.1766  0.1910
35401W        W35601   6.072   5.498  12.722 -0.1702 -0.1291 -0.1738
35402W        W35602   8.261   2.970   7.859 -0.0275  0.3997 -0.0142
35403W        W35603  15.618   7.291  13.200  0.3472 -0.1944  0.0654
35404W        W35604   0.542   8.506   9.116 -0.0178 -0.0070  0.0672
35405W        W35605   4.260  10.025   7.389  0.2304  0.1050 -0.3372
35406W        W35606   7.805   9.469   0.114  0.1070 -0.2464  0.0667
35407W        W35607  13.320   7.085  13.824  0.2643 -0.1708  0.0382
35408W        W35608  13.905  13.218   3.150  0.0110  0.1151  0.0652
35409W        W35609   2.396  11.792  17.132 -0.2346 -0.0439 -0.0449
35410W        W35610   1.179   7.741   8.491 -0.2711  0.0909 -0.0794
35411W        W35611  10.176   3.928  15.380 -0.2206 -0.2408 -0.2015
35412W        W35612  15.936   8.732  10.690  0.1199  0.0825 -0.1382
35413W        W35613  11.930   0.906  15.264 -0.0373  0.1423  0.1779
35414W        W35614   3.919  13.550  15.312 -0.3707  0.0816 -0.0232
35415W        W35615  12.525  10.246   7.295 -0.2057 -0.0624 -0.3520
35416W        W35616  13.680  10.091  17.806  0.0098  0.2030 -0.2521
35417W        W35617   0.248  13.504   6.458  0.3858  0.0316 -0.0547
35418W        W35618   9.815  12.901  17.433  0.3163 -0.1071 -0.0728
35419W        W35619  11.383  11.243   1.286 -0.0858  0.1662  0.1506
35420W        W35620   1.458   4.693   1.169 -0.0950  0.2282 -0.0563
35421W        W35621   9.886   0.961   5.882  0.5964  0.2791 -0.1609
35422W        W35622  15.093   3.995  15.243  0.0640  0.1751  0.1452
35423W        W35623   8.518   9.009  16.676 -0.0337  0.0588  0.2378
35424W        W35624  17.582  16.214   3.484  0.1161 -0.1071  0.3771
35425W        W35625  10.048  11.579   0.289  0.2346 -0.3536 -0.4354
35426W        W35626  11.429  16.380  14.010 -0.1888 -0.0966  0.0659
35427W        W35627   7.855   6.695  15.104 -0.3236  0.3665 -0.1373
35428W        W35628  12.455  10.199   3.547 -0.2141 -0.2236 -0.0899
35429W        W35629   2.697   1.855   7.369 -0.5172  0.0011 -0.3645
35430W        W35630   9.601  17.238   6.575  0.1346  0.2073 -0.1452
35431W        W35631  14.611  12.698  17.753  0.0899 -0.2089 -0.3643
35432W        W35632   7.741  14.268   8.882  0.2036 -0.0747  0.3345
35433W        W35633  15.081   3.497  17.610  0.0313 -0.7675  0.2972
35434W        W35634  11.775   6.741  14.996 -0.1482  0.1217  0.1382
35435W        W35635  16.476   5.928  15.920 -0.0628 -0.0636  0.5380
35436W        W35636  14.015   6.559   6.327  0.0675  0.1122  0.1793
35437W        W35637  11.037   7.622  11.788  0.1152  0.1136 -0.0109
35438W        W35638   9.300  17.200   5.299 -0.0658 -0.3474 -0.0908
35439W        W35639  12.814  13.586  13.217 -0.0235  0.1535 -0.4119
35440W        W35640   8.459   8.762   3.894  0.0412  0.0948 -0.2467
35441W        W35641  10.387   6.149  11.796 -0.0693 -0.1097  0.0245
35442W        W35642  14.233   6.966  18.094 -0.2958  0.1464 -0.1963
35443W        W35643   8.870  15.458   5.113  0.1218 -0.1583  0.3350
35444W        W35644   3.991   6.563  14.131 -0.0151  0.3530  0.2306
35445W        W35645   5.819   0.044  11.023 -0.0458 -0.0933 -0.3891
35446W        W35646   6.919   6.827  11.006  0.1667  0.1028 -0.1188
35447W        W35647  10.410  10.937  14.460 -0.0589  0.2793  0.1740
35448W        W35648  17.906  13.302   7.933 -0.2973  0.1041  0.0404
35449W        W35649   9.239   8.842  13.903  0.0834 -0.0747  0.0828
35450W        W35650  15.674   8.981  10.363  0.0890  0.3294 -0.0539
35451W        W35651   9.069  10.794  15.692 -0.0448 -0.1154  0.0871
35452W        W35652  13.874  13.611  10.008  0.1698 -0.0359  0.0379
35453W        W35653  15.190   6.623   5.078 -0.0294 -0.4111  0.0499
35454W        W35654   9.345   4.675  11.674  0.2117 -0.0597  0.0137
35455W        W35655   2.512  12.075   8.213 -0.1025  0.1349 -0.0854
35456W        W35656  10.917   5.712  13.064  0.0524 -0.1054  0.1731
35457W        W35657   2.800   4.716  10.260 -0.2682  0.5435 -0.1447
35458W        W35658  16.066  12.573  11.896  0.3567 -0.0238  0.0766
35459W        W35659  16.672  15.641  13.144  0.1337 -0.0499 -0.1771
35460W        W35660   3.506  10.564   8.708  0.0355  0.1146  0.1179
35461W        W35661  11.904   2.760  13.757 -0.0535 -0.3152 -0.1724
35462W        W35662  10.956   9.287  11.402  0.0222 -0.2032  0.1210
35463W        W35663  12.369  12.282   3.519  0.1529 -0.1426 -0.2094
35464W        W35664  14.184   0.962   8.335  0.4746  0.1491 -0.0215
35465W        W35665   9.152  15.388  17.511  0.1751 -0.0627  0.2084
35466W        W35666  14.001   8.752  12.368 -0.2775  0.2002 -0.0269
35467W        W35667   1.476  13.537  13.468 -0.0025 -0.0973 -0.0399
35468W        W35668   5.673   0.690  15.908  0.1437 -0.1331 -0.1087
35469W        W35669  15.421   8.590  10.559 -0.0537 -0.3773  0.2443
35470W        W35670   0.084   7.073   0.045 -0.2122  0.0385  0.0903
35471W        W35671   9.899  11.465  12.699 -0.2121  0.0973 -0.0065
35472W        W35672  18.098   0.727   8.062  0.1421 -0.1986  0.1677
35473W        W35673   6.984  15.700  12.460 -0.0671  0.2013 -0.1214
35474W        W35674  17.297   4.281  15.123 -0.4356 -0.0496  0.0514
35475W        W35675  11.629   9.895   0.353  0.3260 -0.0734  0.1958
35476W        W35676   0.231   2.030  10.614  0.3401 -0.1270  0.1949
35477W        W35677  11.773   3.638  16.181 -0.0788  0.0551  0.2245
35478W        W35678   9.904  13.383   9.741  0.3602 -0.0033 -0.1029
35479W        W35679   7.236   8.272  11.882  0.0713  0.1279  0.0014
35480W        W35680  12.455  16.673  10.689 -0.0253 -0.2315  0.0302
35481W        W35681  13.688  12.942  11.306  0.0112  0.1478  0.0301
35482W        W35682  17.612   7.557  10.263 -0.1681  0.0343 -0.1467
35483W        W35683   0.483   7.943  13.546  0.0526  0.1654 -0.0819
35484W        W35684  17.025   6.323   1.154  0.0233  0.2488 -0.2571
35485W        W35685  10.193  11.546  16.708 -0.1841  0.2672 -0.1874
35486W        W35686   5.682   8.771  14.362 -0.0901  0.0754 -0.2576
35487W        W35687   1.121  12.077   1.817 -0.2749  0.2519  0.1119
35488W        W35688  10.513  14.978  12.564 -0.1153 -0.1962  0.1699
35489W        W35689  14.358   4.886  10.277 -0.0231 -0.1690 -0.2037
35490W        W35690   4.825  16.344  12.536 -0.0209 -0.2252  0.0200
35491W        W35691   7.347  17.254  15.672 -0.0013 -0.1434 -0.2664
35492W        W35692  15.065   4.171  13.479  0.0010 -0.0524  0.2121
35493W        W35693   0.075   4.388   7.678 -0.0749  0.0029 -0.0963
35494W        W35694  15.861  11.300   4.639  0.0342 -0.0956  0.1534
35495W        W35695   6.951  11.740  14.578  0.1509  0.1868 -0.3486
35496W        W35696   2.507  14.039  14.773 -0.2031 -0.1859 -0.0042
35497W        W35697  15.084   4.507   9.957  0.0733  0.3224  0.1129
35498W        W35698   9.556   7.166  14.532  0.1934 -0.1048  0.1655
35499W        W35699  13.376   1.482   6.946 -0.2068 -0.4499 -0.1926
35500W        W35700   6.158   7.867  11.160  0.1752 -0.0017  0.2182
35501W        W35701   8.523   0.222  13.027  0.0631  0.1154  0.0301
35502W        W35702   7.843  12.267   3.352  0.0312  0.0455  0.1436
35503W        W35703  12.011   8.686   4.492 -0.1029 -0.0405 -0.0401
35504W        W35704   2.721  13.013   1.659  0.2202 -0.1439  0.0379
35505W        W35705   3.321   8.247  10.507  0.3324  0.0817 -0.0272
35506W        W35706   8.435   9.361  11.099  0.1198  0.1134  0.1750
35507W        W35707  12.869   5.799  15.081  0.0737  0.0588  0.1335
35508W        W35708   1.631   5.751  14.315  0.1127 -0.0896  0.1690
35509W        W35709   9.118  12.446   7.025 -0.2673 -0.0588  0.0741
35510W        W35710   2.003   2.947  14.807 -0.0609  0.1288 -0.0852
35511W        W35711   0.948   7.254   0.269 -0.1338  0.2027  0.1397
35512W        W35712   9.713   5.720   8.719 -0.1561  0.0407 -0.0653
35513W        W35713  14.733   4.280  14.358 -0.3525 -0.0200  0.0683
35514W        W35714  15.273   8.314  13.029  0.0308  0.0176  0.2612
35515W        W35715   9.115  13.439  11.418  0.0501  0.0642 -0.0799
35516W        W35716  12.730   1.596  11.900  0.1197  0.3820 -0.2072
35517W        W35717  11.059  11.449   9.406 -0.0529 -0.2373 -0.0610
35518W        W35718  15.325   7.539  12.577  0.3161  0.0538 -0.0008
35519W        W35719  16.186   4.900  15.526 -0.2484 -0.1581  0.3119
35520W        W35720  14.495  13.567  11.698 -0.2296 -0.0312 -0.0354
35521W        W35721   1.882   5.037   5.644 -0.0362  0.1272 -0.0951
35522W        W35722  12.771   2.356  11.646 -0.0655 -0.0906 -0.1526
35523W        W35723  12.469   1.885  15.785  0.2639 -0.2472 -0.0297
35524W        W35724   0.162   6.541  14.292  0.0537  0.0231  0.1446
35525W        W35725  14.306   8.464  16.136  0.3149  0.2670  0.0016
35526W        W35726   7.839   9.569   9.229  0.1219 -0.0979 -0.1614
35527W        W35727   7.455  10.937  17.701  0.1187 -0.0566 -0.1857
35528W        W35728   9.488   8.898   8.123  0.1166  0.1820  0.0388
35529W        W35729  10.008  11.043  11.067  0.0696  0.0613  0.2937
35530W        W35730   8.192  11.519  11.873 -0.1822 -0.2117  0.1973
35531W        W35731  12.085  11.643  10.289  0.0254  0.0060  0.0323
35532W        W35732   0.014   1.322   7.448  0.1072  0.0558 -0.1605
35533W        W35733   3.260  10.724  12.381 -0.2157 -0.2269  0.3327
35534W        W35734   0.093  12.702   8.656 -0.1623  0.0569 -0.2801
35535W        W35735   5.799   5.512  15.392  0.3192 -0.1397  0.2468
35536W        W35736  13.672   9.091  14.803 -0.0630 -0.1042 -0.0643
35537W        W35737  13.166   5.755   8.444  0.1819  0.2421  0.1531
35538W        W35738  17.189   9.257   8.824  0.2167  0.1440  0.2310
35539W        W35739  14.481  10.823  16.724  0.0773 -0.0647 -0.0479
35540W        W35740  11.517  17.162  10.557 -0.3199  0.0296  0.0029
35541W        W35741  17.999   9.197   5.015  0.1756  0.1945 -0.0140
35542W        W35742   8.785  13.053  11.321 -0.0580 -0.0631  0.0060
35543W        W35743   5.903  10.808  16.640 -0.0992 -0.2284  0.2645
35544W        W35744  10.851   8.329  14.710  0.4051 -0.0070  0.2577
35545W        W35745   1.586  11.789   2.363 -0.0645 -0.3092  0.0402
35546W        W35746   3.027   3.599   5.868 -0.0284 -0.0020  0.0533
35547W        W35747   7.352   2.296  17.724 -0.0711 -0.2172 -0.2379
35548W        W35748  12.925   9.826   5.230  0.0925 -0.0089 -0.1695
35549W        W35749  14.007   7.245  12.677 -0.4823 -0.3013  0.1992
35550W        W35750  14.875   6.328  14.704 -0.0323 -0.1460 -0.0841
35551W        W35751   0.401   8.664  18.002  0.3853  0.1223 -0.1392
35552W        W35752   3.935   9.575  10.735  0.0536 -0.0500  0.0038
35553W        W35753  15.541   4.659   5.731 -0.2474  0.0099 -0.1395
35554W        W35754   2.933  11.474   7.826 -0.0262  0.0888 -0.0355
35555W        W35755  12.833   4.135  16.874 -0.0470 -0.0787  0.0992
35556W        W35756   1.492  17.229  12.680 -0.0812  0.1913 -0.4155
35557W        W35757   6.283   5.509  15.602 -0.3421  0.2418 -0.2414
35558W        W35758  10.113   9.321   8.529  0.0747  0.0755 -0.1830
35559W        W35759   9.434   7.471   8.201  0.0983 -0.3614  0.1226
35560W        W35760   3.703   8.804  12.540  0.0206 -0.2258 -0.0695
35561W        W35761  15.040  14.771  10.584 -0.0184 -0.2010  0.2389
35562W        W35762  14.271  11.859   7.940 -0.0499  0.0498 -0.2087
35563W        W35763  14.747   7.748  15.789 -0.0877 -0.0153 -0.1706
35564W        W35764  11.455   6.834  10.267  0.0489  0.0139 -0.2056
35565W        W35765   8.462  11.238   0.405  0.0764  0.1461  0.0287
35566W        W35766   7.544   5.602  15.157 -0.1131 -0.0482  0.1265
35567W        W35767  13.515  15.175  10.838 -0.1757  0.2362 -0.0341
35568W        W35768  12.949  17.308  17.148  0.1830 -0.2874  0.1822
35569W        W35769  15.102  17.068  14.408  0.0795 -0.1569 -0.2035
35570W        W35770  13.947   9.594   4.017  0.1216 -0.1489  0.1297
35571W        W35771  13.527  18.072  12.494  0.1270  0.2744 -0.0652
35572W        W35772  12.216  11.166   2.583 -0.1024  0.1710  0.0968
35573W        W35773   8.862  12.215  11.720 -0.1228 -0.2502 -0.0158
35574W        W35774  13.772  12.776   7.838 -0.1582 -0.3507  0.3506
35575W        W35775   7.007   4.020  11.073  0.1253 -0.2522  0.2511
35576W        W35776  15.968  11.156  14.288 -0.0363 -0.2757  0.0958
35577W        W35777  17.352  17.135  11.477 -0.0461  0.1685  0.0111
35578W        W35778  11.818   4.948  14.460 -0.0429  0.0358  0.0904
35579W        W35779  17.377   9.740  17.185  0.1551 -0.0943 -0.1575
35580W        W35780  12.464  11.429  13.963  0.3308 -0.2661 -0.0632
35581W        W35781   4.136  11.232  17.990 -0.3319  0.2462  0.1021
35582W        W35782  13.901   2.336  13.282  0.0022  0.3192 -0.2935
35583W        W35783   9.998   1.580  11.084  0.0484 -0.1095  0.0628
35584W        W35784  11.415   9.094  11.207 -0.0964 -0.5531 -0.0724
35585W        W35785  13.821  12.166  12.695  0.3878 -0.1082 -0.1615
35586W        W35786   3.389  13.596  15.571  0.1129 -0.0178 -0.0030
35587W        W35787  14.392   6.351  17.748 -0.0967  0.0350 -0.1316
35588W        W35788  15.402   7.798  13.034  0.1154  0.3871 -0.4253
35589W        W35789  13.404   3.958  13.623 -0.0204  0.0554 -0.0137
35590W        W35790  12.122  12.980  16.905 -0.1975  0.3140 -0.1315
35591W        W35791  16.044   7.438  17.355  0.0958  0.1667  0.2119
35592W        W35792  16.210  10.898   5.264  0.1761  0.1968 -0.0803
35593W        W35793  14.184  16.364   9.919 -0.1594  0.1725 -0.2482
35594W        W35794  15.104  13.680   2.588  0.0068  0.1296 -0.0453
35595W        W35795  15.321  10.288   1.685  0.1147 -0.0035 -0.1069
35596W        W35796  14.651  14.124   6.838  0.0478  0.2673 -0.0697
35597W        W35797  11.179   5.904  14.088 -0.2235 -0.0539 -0.3203
35598W        W35798   9.399  14.427   7.308 -0.3009  0.1607 -0.0375
35599W        W35799   8.299   9.440   7.816 -0.3288  0.1136 -0.0007
35600W        W35800  11.569   4.738   0.135  0.1529  0.0792 -0.0089
35601W        W35801  10.090   7.391  16.105  0.0083  0.2540  0.1626
35602W        W35802  17.717  10.189   0.393  0.0085  0.0439  0.0507
35603W        W35803   6.552  13.086   6.043 -0.1881  0.0221 -0.0693
35604W        W35804  11.148   4.323   2.361  0.0792 -0.1806  0.1545
35605W        W35805  16.558   8.439   0.871 -0.3629 -0.1176 -0.0729
35606W        W35806  16.382  12.446  16.117  0.1518  0.0476 -0.1398
35607W        W35807  12.256   5.784  16.264 -0.2171  0.2021  0.1679
35608W        W35808   3.793  10.763   2.429 -0.0307 -0.4064 -0.0765
35609W        W35809   0.584   7.678   3.690 -0.0272 -0.0908  0.0031
35610W        W35810  10.227   4.742   4.022  0.1714  0.0615 -0.2039
35611W        W35811  14.898  10.143  10.789 -0.0496  0.1242 -0.0939
35612W        W35812  10.683   7.460  13.082  0.0393 -0.0849  0.1984
35613W        W35813  11.747  16.137   0.343 -0.0083  0.0905 -0.1357
35614W        W35814   8.424  17.064  17.261  0.1055  0.2407  0.0150
35615W        W35815  15.353  16.364   8.266  0.2579 -0.1189  0.1063
35616W        W35816   8.119  17.471  12.693 -0.2320  0.0627  0.3315
35617W        W35817   1.434   3.955   1.697  0.0496  0.1453 -0.1860
35618W        W35818  10.073   8.255  12.852 -0.1372 -0.2100 -0.2017
35619W        W35819   0.285  12.084   0.052  0.3982 -0.0798  0.1571
35620W        W35820  17.256   4.309   3.777 -0.1047 -0.0689  0.2755
35621W        W35821  13.454  12.083   7.709 -0.1287 -0.1444 -0.2202
35622W        W35822  12.734   4.504   3.586 -0.2353 -0.1038 -0.1078
35623W        W35823   6.476   5.193   1.868  0.1115  0.1168 -0.1574
35624W        W35824   6.179  12.519  17.953  0.3980 -0.0240  0.1504
35625W        W35825  15.784   6.297   9.271 -0.2246 -0.1907 -0.0804
35626W        W35826   5.394  13.481   0.231 -0.1198  0.1540 -0.0528
35627W        W35827   6.358   7.233  17.645  0.0697  0.0227  0.0550
35628W        W35828  11.396   5.609  15.401 -0.1017  0.1181 -0.2630
35629W        W35829   5.843   4.803  12.223  0.1375 -0.1949 -0.0513
35630W        W35830  12.595   4.642   5.626  0.2356  0.2506  0.3448
35631W        W35831  11.717   2.765   7.943  0.2327  0.1596 -0.0594
35632W        W35832  13.480  17.448   0.095 -0.3517 -0.0410 -0.1271
35633W        W35833  10.182   8.192   6.356  0.1309  0.0665 -0.0381
35634W        W35834  14.200   9.710  16.671 -0.0664  0.1614 -0.2582
35635W        W35835   4.696   8.063  11.759  0.1915 -0.0998  0.0398
35636W        W35836  11.144   4.214  14.557  0.0386 -0.2774 -0.2666
35637W        W35837   9.007   2.826   5.445 -0.3135  0.0068  0.1502
35638W        W35838  10.711  18.115  12.974 -0.1981 -0.0360  0.2555
35639W        W35839   4.313   6.660  16.126 -0.0947 -0.3385  0.1351
35640W        W35840  17.648   5.645  11.975  0.0693 -0.3033  0.1211
35641W        W35841  14.796  15.629  12.178 -0.0700 -0.1993 -0.2936
35642W        W35842  15.502   6.482  10.588  0.1284 -0.1448  0.0389
35643W        W35843  13.682   9.488  11.372  0.1091  0.0089  0.0182
35644W        W35844   0.467   3.264  15.581 -0.0225 -0.2243  0.0002
35645W        W35845   3.515   3.760   0.260  0.0683  0.5629  0.1129
35646W        W35846   8.986   1.976  16.905  0.0556 -0.0639  0.1452
35647W        W35847  10.189   7.364  10.399  0.1083  0.1746  0.3408
35648W        W35848   3.260  13.960  17.941 -0.0301 -0.2212  0.1816
35649W        W35849  11.538  16.642  10.498  0.2103  0.2029  0.0974
35650W        W35850   5.435  10.542   1.551  0.0874  0.0363 -0.1840
35651W        W35851  16.998   8.050  17.189  0.1953  0.2953  0.0381
35652W        W35852  10.895   9.582  10.977 -0.0809 -0.0402  0.2039
35653W        W35853  12.212  12.222  17.438  0.0168 -0.2381  0.0689
35654W        W35854  16.911  10.399   4.096  0.1890  0.1178 -0.1919
35655W        W35855   0.417  12.855  14.748 -0.5317 -0.2479  0.1913
35656W        W35856  15.413   0.688  16.073 -0.0653  0.2110 -0.1363
35657W        W35857   8.471  10.115   6.222  0.0630 -0.0628  0.4394
35658W        W35858  13.423  11.855  11.959  0.0430  0.2143 -0.0787
35659W        W35859   3.165   5.884  16.273  0.1769  0.0539 -0.2177
35660W        W35860   9.839  13.354  11.316 -0.0479  0.1922 -0.0181
35661W        W35861  13.710   5.769   2.569  0.1084  0.0653  0.1332
35662W        W35862  12.977   6.522   2.490  0.2661 -0.0034 -0.0243
35663W        W35863  10.342  16.480   3.578  0.1929 -0.1558 -0.1082
35664W        W35864  10.443  10.698   2.977  0.0183 -0.1569 -0.1136
35665W        W35865  15.478   3.339  16.348 -0.1578  0.0839 -0.0366
35666W        W35866  13.393   2.175  16.332 -0.2735  0.1372  0.0165
35667W        W35867  11.564   3.999  14.770 -0.3362 -0.0745 -0.0978
35668W        W35868  14.632  13.485  16.741  0.0125 -0.0024 -0.1361
35669W        W35869   8.866   4.810  10.468  0.2353 -0.0523 -0.3972
35670W        W35870   5.382   8.356   9.684 -0.0327  0.0847  0.0705
35671W        W35871  13.737   3.061  16.489  0.1002 -0.0340 -0.0626
35672W        W35872   7.256   3.915  16.362 -0.1235 -0.5494  0.0782
35673W        W35873  11.544   4.786   1.033  0.3136 -0.0727  0.0496
35674W        W35874  17.940   3.335   0.445 -0.0379  0.0806  0.1474
35675W        W35875   3.982   9.642  17.147 -0.0718 -0.2750 -0.3095
35676W        W35876   4.527   9.301   3.517 -0.3349  0.0868  0.1354
35677W        W35877  14.860   0.525  13.983  0.2288 -0.1559  0.0810
35678W        W35878  13.477  16.807   4.872  0.1810 -0.0519  0.0210
35679W        W35879  14.852   1.426  17.093  0.2382  0.0572  0.2266
35680W        W35880   4.989   8.866   5.555 -0.0961  0.0331  0.2442
35681W        W35881  13.173   6.122   0.172  0.0519 -0.0140  0.1267
35682W        W35882   8.531   7.857  13.741  0.3434 -0.0062 -0.0156
35683W        W35883  14.454   6.529  17.279 -0.1172 -0.0218 -0.4805
35684W        W35884  13.127   3.541   1.654  0.0130  0.1466  0.0318
35685W        W35885   3.253   4.628  18.133 -0.0370 -0.2012 -0.0544
35686W        W35886   2.733   3.752   2.747 -0.0796  0.0555  0.1511
35687W        W35887  14.043  12.908   2.842 -0.1878  0.1499  0.1952
35688W        W35888  11.762   8.851   2.706 -0.0775 -0.4118  0.1473
35689W        W35889  14.171  17.332   0.731  0.0151 -0.3515 -0.0209
35690W        W35890   8.171  13.458   0.438 -0.1393 -0.1122  0.0007
35691W        W35891   0.444   7.482  10.976 -0.1862 -0.1407  0.0561
35692W        W35892   6.417  10.074  17.633 -0.0460 -0.2863  0.0873
35693W        W35893  11.958   0.348   1.550 -0.1332  0.1340 -0.1756
35694W        W35894  14.693  17.845   1.216 -0.1671  0.2142 -0.0544
35695W        W35895  11.386   1.803  10.283  0.0619 -0.2142 -0.1896
35696W        W35896  11.148   7.055  14.304 -0.4785  0.0831 -0.1074
35697W        W35897  13.673   2.651   5.032  0.0823  0.1623 -0.0216
35698W        W35898   5.431   5.990  13.024  0.0100  0.0153  0.0659
35699W        W35899  15.650  14.482  16.508  0.1755  0.3936  0.0786
35700W        W35900  17.671  10.970  14.870  0.0457  0.2421  0.0599
35701W        W35901   5.543   2.220  14.168 -0.0884 -0.0046 -0.0480
35702W        W35902  14.607   5.331   2.734  0.1642  0.2167 -0.0655
35703W        W35903   0.054  10.456   4.585  0.0536 -0.0145 -0.0092
35704W        W35904   8.918  10.599  14.608  0.1390 -0.0010 -0.1103
35705W        W35905   6.771   1.953  12.670 -0.2271 -0.2491  0.1412
35706W        W35906   6.441  10.871   1.311  0.3152 -0.2159 -0.2560
35707W        W35907  14.282   3.754  16.171 -0.1398 -0.0858  0.0294
35708W        W35908   4.383   6.348   8.741  0.0427 -0.2793 -0.2571
35709W        W35909  17.868   7.382   4.713 -0.0621  0.0038 -0.0380
35710W        W35910  16.211   8.251  15.704 -0.1421 -0.0797 -0.1292
35711W        W35911  16.001   7.673   3.491  0.0948 -0.0402 -0.0308
35712W        W35912   1.336  11.626   1.366 -0.0579  0.1528  0.1649
35713W        W35913  10.309   9.612   8.188 -0.0784  0.0505 -0.0724
35714W        W35914  17.456  11.414   8.988 -0.1684 -0.2578  0.1237
35715W        W35915   9.609   3.722  13.544 -0.2246  0.0343 -0.0503
35716W        W35916  17.096  11.232  16.540  0.2799 -0.1310 -0.3793
35717W        W35917   9.280  15.261  15.153 -0.3135 -0.0114  0.3962
35718W        W35918  13.542   8.659   1.970 -0.2333  0.1272  0.0114
35719W        W35919   1.353  13.091   7.979 -0.1291 -0.0572  0.1894
35720W        W35920  11.686   3.920  16.612 -0.2427  0.1629 -0.0410
35721W        W35921  10.191   5.680  14.456 -0.2301  0.1249 -0.1849
35722W        W35922  14.546   5.561  16.959 -0.0143 -0.1891 -0.0127
35723W        W35923  18.131   4.085   7.084  0.0321  0.1032 -0.1304
35724W        W35924   9.180  14.589  14.454  0.1874 -0.0114 -0.0079
35725W        W35925  12.947   7.942   2.145  0.0605 -0.0364 -0.2913
35726W        W35926  10.811   6.967  10.931 -0.0836 -0.0225  0.0150
35727W        W35927  12.925   5.909  13.592  0.0603  0.6463 -0.1380
35728W        W35928  11.364  15.116   2.488  0.2170  0.1289  0.0484
35729W        W35929  15.277   3.813  10.474 -0.0566  0.1077  0.1365
35730W        W35930  16.131   4.337   0.581  0.0426 -0.0885 -0.0525
35731W        W35931   9.977  17.154   5.127 -0.1198  0.2349  0.0388
35732W        W35932  13.507   5.406  16.357  0.0678 -0.2514  0.0375
35733W        W35933   9.893   8.344   4.695 -0.2680 -0.0009 -0.1008
35734W        W35934   5.480   6.129  10.284 -0.1003  0.3778 -0.0064
35735W        W35935  15.188   5.998  14.046  0.1757 -0.1720  0.1117
35736W        W35936  10.146  13.677   5.537 -0.1053  0.1054  0.0930
35737W        W35937  10.242   6.891   3.541  0.0240  0.0034 -0.0238
35738W        W35938   7.221  16.401  11.010 -0.0779 -0.2005  0.0547
35739W        W35939  13.080  12.537   0.203 -0.1952 -0.0384  0.0765
35740W        W35940   0.003   2.210   6.848 -0.0586  0.1449  0.0795
35741W        W35941   1.235  11.512  13.079  0.0206 -0.1435  0.2521
35742W        W35942   8.973  13.298  10.904 -0.2068 -0.0998  0.0771
35743W        W35943   9.616   7.258  15.940 -0.1004  0.0180  0.3232
35744W        W35944   3.958   4.006  14.782  0.2802 -0.1113 -0.1354
35745W        W35945   2.029  14.775  11.864  0.0379  0.2303  0.2032
35746W        W35946  12.818  10.375  16.644 -0.1092 -0.0507 -0.0125
35747W        W35947  13.521   9.354  17.137  0.2326 -0.2813  0.2108
35748W        W35948  12.914   7.269  14.070 -0.3014  0.0530  0.3166
35749W        W35949  12.032  12.528   6.809 -0.2038 -0.1225  0.3034
35750W        W35950  10.981  10.956   4.253 -0.0205  0.4044 -0.2480
35751W        W35951   6.175  11.645   6.042  0.0476  0.0507  0.0496
35752W        W35952   7.902  17.974   4.694 -0.2405  0.1954  0.4697
35753W        W35953  12.249   0.163  17.707  0.0465  0.2181 -0.1281
35754W        W35954   3.341   4.672   3.801  0.0812  0.0027 -0.1460
35755W        W35955   0.628   5.477   4.407  0.1733 -0.0739 -0.0627
35756W        W35956  15.173   4.989  14.883 -0.2234  0.2978 -0.3327
35757W        W35957  12.886   4.374  16.150 -0.0249 -0.2098  0.2597
35758W        W35958   3.855  12.122  10.494  0.3662  0.3452 -0.1649
35759W        W35959  17.983   3.110   2.861  0.0354 -0.0708  0.0412
35760W        W35960  11.636   7.750  18.010 -0.2595 -0.0819  0.0293
35761W        W35961  12.501  12.430   1.672  0.5620 -0.0251  0.1752
35762W        W35962   1.174  11.468   4.948 -0.0222 -0.2387 -0.1413
35763W        W35963  14.383   9.056   2.530  0.3259  0.1930 -0.1886
35764W        W35964  16.896   5.627  16.235 -0.1455 -0.0073  0.2588
35765W        W35965  12.486  11.202   1.221  0.3373  0.0060 -0.2105
35766W        W35966   9.821  18.125   3.511 -0.0661 -0.2467  0.1085
35767W        W35967  15.220   3.925   1.735 -0.1810 -0.0027  0.2732
35768W        W35968  13.361   7.061   9.642 -0.0380 -0.2197  0.0980
35769W        W35969   9.748   6.810   0.027 -0.0590 -0.2484  0.1929
35770W        W35970  15.092  11.722  15.218  0.2545  0.0688 -0.1483
35771W        W35971  12.398   6.117   3.050 -0.1919 -0.1456  0.0574
35772W        W35972  17.036   5.919  13.747  0.0847 -0.2623  0.1830
35773W        W35973  10.005   7.617  16.558  0.1679  0.2899  0.1119
35774W        W35974  14.013   0.816  15.226  0.0061 -0.0071 -0.0057
35775W        W35975  13.037   9.034   3.369  0.0560 -0.4442  0.0189
35776W        W35976  10.371   3.954  17.891  0.0352  0.1265  0.2444
35777W        W35977   8.755  14.193  13.712  0.4937  0.1444  0.1451
35778W        W35978   0.950   6.365  16.421 -0.2162 -0.1770 -0.2578
35779W        W35979  15.081  12.313  17.810  0.0416  0.2092 -0.1446
35780W        W35980  10.550  17.702   0.744  0.4677  0.0970  0.0611
35781W        W35981   7.831   4.794  13.028  0.2806  0.2097  0.0181
35782W        W35982  10.750   9.079   4.404  0.1121 -0.1267 -0.2725
35783W        W35983  10.321   3.641  17.529  0.0263 -0.0280  0.0882
35784W        W35984  17.727  15.225  16.676  0.0342  0.2391  0.0279
35785W        W35985  14.229   7.953  14.515  0.2159 -0.1755  0.3728
35786W        W35986   9.403  12.661  16.237 -0.1201 -0.1329  0.1514
35787W        W35987  10.217  17.572   5.322  0.3382 -0.0858  0.1667
35788W        W35988   9.746   6.285   0.058  0.1989 -0.0733 -0.0453
35789W        W35989   8.414   6.567  17.676 -0.1673  0.0778 -0.2055
35790W        W35990  10.162   3.696   0.202 -0.0999  0.2032 -0.1425
35791W        W35991   4.340   9.476   9.904  0.1121 -0.3882 -0.1595
35792W        W35992  16.572   5.059   8.433  0.0072 -0.0937 -0.0087
35793W        W35993   1.011   7.592  15.024 -0.1646 -0.1149 -0.0009
35794W        W35994  17.817   6.808  15.626 -0.1872 -0.1470 -0.0691
35795W        W35995  15.350  16.602   4.325  0.1861 -0.0537  0.0687
35796W        W35996  16.383   4.619  13.020 -0.0225 -0.1057 -0.1947
35797W        W35997  13.026  12.092  15.694  0.0655 -0.0858 -0.1559
35798W        W35998   7.594  12.732  17.581 -0.1486  0.2634 -0.4112
35799W        W35999   9.072  16.588  12.133  0.0307 -0.0028 -0.1123
35800W        W36000   3.911  13.444  15.789 -0.1952  0.2480  0.0521
35801W        W36001   0.976  10.549  12.655 -0.1751  0.1902  0.1777
35802W        W36002   8.875   7.279  18.051  0.0683 -0.0980  0.1893
35803W        W36003   4.948   0.478   9.867 -0.1396  0.1088  0.0001
35804W        W36004   3.216   9.787  16.724  0.2148  0.0479 -0.0098
35805W        W36005   9.466  14.116  11.158 -0.1156 -0.0613 -0.0817
35806W        W36006  12.792   5.636   0.263 -0.0480  0.1553 -0.2069
35807W        W36007  15.195   8.002  17.211  0.1758 -0.4382 -0.0966
35808W        W36008  14.411  12.998  15.958 -0.1087  0.1347  0.2125
35809W        W36009  12.889  10.202   6.204  0.3217 -0.0812 -0.0930
35810W        W36010   8.389   5.963   1.455 -0.1674  0.0909  0.1964
35811W        W36011  17.179   5.741   1.276  0.1487 -0.1030 -0.4611
35812W        W36012  17.083  10.624   3.186  0.1005  0.2500  0.0817
35813W        W36013   7.908   3.502   7.868  0.1183 -0.0786  0.1454
35814W        W36014   1.295  11.382   2.427  0.1299 -0.0758 -0.0794
35815W        W36015  12.563   7.175  15.198  0.0227  0.0095  0.1055
35816W        W36016   2.156   7.445   7.580 -0.0040  0.0448 -0.0467
35817W        W36017  12.296  10.319  14.878 -0.0342  0.1802 -0.1436
35818W        W36018   8.029   9.721  15.768  0.1941 -0.0342 -0.2276
35819W        W36019   0.472   0.963   8.939  0.0115  0.1047 -0.4331
35820W        W36020  18.077   2.111  16.572  0.1808 -0.1368  0.0074
35821W        W36021  10.644  17.128  15.979  0.2828  0.0420 -0.2931
35822W        W36022  13.970   5.725  17.634  0.1189  0.2265 -0.2257
35823W        W36023  16.533   4.309   0.230 -0.1787 -0.0274 -0.0262
35824W        W36024   4.101   7.732  15.403  0.1541  0.0152 -0.2156
35825W        W36025  17.326  12.863  15.238  0.0275  0.1475 -0.0547
35826W        W36026  16.972   2.901   5.594  0.3770 -0.0903  0.3052
35827W        W36027  14.358  12.171  16.515  0.2033 -0.0854  0.0951
35828W        W36028  11.297   0.906  15.995 -0.0567  0.0144  0.1303
35829W        W36029  11.282  13.354   2.136  0.1218 -0.1003 -0.1525
35830W        W36030  12.649   4.546   0.330 -0.1806 -0.1008  0.3093
35831W        W36031  16.006   7.316  15.432 -0.2923  0.0620  0.0158
35832W        W36032  14.116   7.186  16.109 -0.2203  0.1779 -0.0475
35833W        W36033  13.288   4.939   0.652 -0.2780  0.0856 -0.0894
35834W        W36034  11.952   9.360   8.004  0.2630 -0.0692  0.0735
35835W        W36035   0.088   6.237  12.816 -0.1521  0.1894  0.0821
35836W        W36036  16.119  10.376   2.677  0.0430  0.0176 -0.0313
35837W        W36037  15.544   2.642   2.743 -0.0132  0.0302  0.0934
35838W        W36038   6.068  11.853  11.980  0.0228  0.0768  0.3116
35839W        W36039  13.111  11.926   4.017  0.0546 -0.0741  0.2872
35840W        W36040   7.578   7.014  11.504 -0.1073 -0.1197 -0.0186
35841W        W36041  11.021   7.156   6.284 -0.3830  0.2596  0.2467
35842W        W36042  10.533   9.806  17.117  0.0868 -0.3005  0.2886
35843W        W36043  16.670   5.334  17.274 -0.4313  0.1051 -0.2298
35844W        W36044  14.670   6.222  15.166 -0.0123  0.0362 -0.2447
35845W        W36045   8.455   9.493   1.438  0.1299  0.0268  0.0538
35846W        W36046   6.422  10.620   0.765 -0.0925 -0.0625  0.1132
35847W        W36047   1.172   1.861  12.595 -0.0030  0.0511  0.0936
35848W        W36048  10.383  10.517   3.622  0.2200 -0.2700 -0.2871
35849W        W36049  11.895   4.200  17.720 -0.0003  0.0703 -0.0463
35850W        W36050   8.039   6.777  17.178  0.0628 -0.1103  0.0096
35851W        W36051  12.527  13.470   1.279  0.0507  0.0238  0.6271
35852W        W36052   4.579   5.525  11.690 -0.0708  0.1147 -0.2173
35853W        W36053   6.203   5.184  14.702  0.1341  0.0983  0.2600
35854W        W36054   9.361  10.569  18.002 -0.1719 -0.2204  0.1828
35855W        W36055   4.980   5.924   0.233  0.0113 -0.1450  0.0143
35856W        W36056   7.628   9.091   3.316  0.3344 -0.4245  0.5267
35857W        W36057  11.325   9.949   0.966  0.0063  0.0139 -0.1909
35858W        W36058  16.439   9.166  15.925  0.0423  0.2039  0.1924
35859W        W36059   9.426  11.791   9.789  0.0268  0.1794  0.0278
35860W        W36060   0.819  16.991  14.067 -0.2756 -0.2355 -0.0414
35861W        W36061   7.483  14.892  16.713  0.3916 -0.1484  0.2215
35862W        W36062   8.470   7.500  16.846  0.0558 -0.0330 -0.0782
35863W        W36063  13.561  14.131   1.853 -0.1262 -0.1873  0.1170
35864W        W36064  10.327   5.924  16.107 -0.1670 -0.0125 -0.1931
35865W        W36065  16.274   6.990   8.645  0.1209  0.0619  0.0410
35866W        W36066   2.323  13.336  14.120 -0.1199 -0.1282  0.1788
35867W        W36067  13.623   7.604  12.602  0.0277 -0.3130 -0.1481
35868W        W36068   9.539   1.846  14.234  0.0757  0.1508  0.2801
35869W        W36069   5.190  13.601   6.774 -0.1206  0.4674  0.2312
35870W        W36070  13.417   3.194  12.231 -0.2681 -0.0360 -0.1804
35871W        W36071  11.808   8.349   4.096  0.4273  0.0262 -0.1353
35872W        W36072  13.862   8.468   4.332 -0.1279  0.0758  0.2520
35873W        W36073   1.338  17.737   9.020  0.0527  0.1955 -0.2038
35874W        W36074  10.300   8.894   1.006 -0.2285 -0.1094 -0.0423
35875W        W36075  14.784  14.066   2.640 -0.2161  0.2681 -0.3736
35876W        W36076  10.298   5.282  14.130  0.1328  0.1008 -0.0750
35877W        W36077  11.240  17.591   4.020  0.0256 -0.1874  0.0573
35878W        W36078   0.961  17.761   6.871  0.3517  0.0495  0.1425
35879W        W36079  11.101  15.786   4.143  0.2137  0.1146 -0.1885
35880W        W36080  10.106  11.658  16.133  0.1130 -0.2645 -0.3195
35881W        W36081  18.204   9.651  12.561  0.1614  0.0597  0.0723
35882W        W36082   8.059  11.367  17.206  0.0484  0.5444  0.3850
35883W        W36083  16.235   5.965   8.552  0.0570 -0.3718  0.1307
35884W        W36084  13.250  15.959  17.793  0.3562 -0.0942 -0.1180
35885W        W36085   7.345  10.574   3.340  0.3140  0.1443  0.1216
35886W        W36086  13.831   6.991  11.072 -0.0433 -0.1175 -0.1445
35887W        W36087   4.437  10.629   3.320 -0.3460 -0.0013  0.3366
35888W        W36088  15.139   7.715   2.692 -0.0110 -0.1453  0.1055
35889W        W36089  10.506  11.957  11.170 -0.0788 -0.1895  0.0331
35890W        W36090  14.867   5.796   1.896 -0.1918 -0.1698 -0.0870
35891W        W36091  11.469  12.139   3.513  0.1968 -0.3943 -0.2511
35892W        W36092   9.793  11.880   4.739  0.1264  0.1725  0.3515
35893W        W36093  17.813   6.542   6.097 -0.3419  0.1764  0.2845
35894W        W36094   9.641   2.147   4.159  0.0534 -0.0460 -0.0615
35895W        W36095   1.635  13.307   5.287  0.2465 -0.3107  0.1949
35896W        W36096  15.561  14.533   0.120 -0.1626 -0.1637  0.0686
35897W        W36097   9.607   6.899  17.696  0.0111 -0.1542  0.2031
35898W        W36098   9.552  15.156  17.313 -0.1924 -0.1606 -0.3415
35899W        W36099   8.078  16.302   5.535 -0.2013  0.1573  0.0347
35900W        W36100  12.308   7.678   5.739  0.2658 -0.3547 -0.1852
35901W        W36101  18.015  14.676  18.142  0.2872  0.0113  0.2145
35902W        W36102   0.289  15.501  15.517 -0.0042  0.1169  0.1167
35903W        W36103  12.306  10.988   1.909 -0.1378 -0.1578 -0.1004
35904W        W36104  11.814  10.731   0.589  0.0328 -0.0259 -0.1413
35905W        W36105  15.454   6.729  12.409  0.0492  0.1629 -0.0869
35906W        W36106  12.769   9.447   6.909 -0.0346  0.0555  0.2317
35907W        W36107  13.223  10.696   3.867  0.0962 -0.0504  0.0408
35908W        W36108  11.208  15.023   8.438 -0.3774  0.1467  0.0043
35909W        W36109  18.136   6.663  12.352  0.0469  0.2467 -0.1042
35910W        W36110   9.627   5.756  11.346  0.0614 -0.0019  0.0029
35911W        W36111  15.588  11.464   1.013 -0.0941 -0.2170  0.3375
35912W        W36112  16.002   2.177   4.791 -0.1069  0.0009  0.0119
35913W        W36113  16.496   4.917   4.254 -0.0531 -0.0341  0.1394
35914W        W36114   8.080   8.004   0.802  0.2929 -0.0168 -0.0702
35915W        W36115   9.481  13.504  10.147  0.0786 -0.1827 -0.3117
35916W        W36116  16.237   8.310  10.677 -0.1095 -0.2899 -0.1013
35917W        W36117   9.550  10.111   4.844 -0.0393 -0.0974 -0.0991
35918W        W36118  12.371  16.238   3.468  0.0373  0.0486  0.0658
35919W        W36119  14.986   6.789  15.980  0.2014  0.0683 -0.0300
35920W        W36120  13.226  16.497   0.288 -0.1599  0.4115 -0.0699
35921W        W36121  13.306   2.501   2.434 -0.1376 -0.1814 -0.3151
35922W        W36122  15.040   6.128   7.043 -0.1440 -0.0864  0.3373
35923W        W36123  12.260  11.953  14.114 -0.1223 -0.3922 -0.1435
35924W        W36124  11.145   2.638   1.676  0.1800 -0.1881  0.0645
35925W        W36125  17.436   0.358  13.569 -0.2051  0.0104  0.1126
35926W        W36126   0.737   6.280   9.202 -0.1592  0.2084  0.1241
35927W        W36127  13.810   3.961   1.093  0.1326  0.0952 -0.0967
35928W        W36128   5.736   6.716  12.144 -0.0560  0.1014 -0.1809
35929W        W36129  14.967   3.816  16.112 -0.1105  0.4983 -0.0376
35930W        W36130  17.430  10.804  13.354 -0.0780 -0.1347  0.0993
35931W        W36131  16.332   4.408   4.783 -0.1599 -0.1478 -0.1454
35932W        W36132  14.517   8.847  14.364 -0.2313 -0.5385  0.0657
35933W        W36133   9.758   7.388  10.099 -0.1219  0.0244  0.2819
35934W        W36134  11.379  15.040  14.706  0.1168 -0.1590 -0.0147
35935W        W36135  11.434  14.181  12.650 -0.0310  0.2465  0.1993
35936W        W36136  16.859   4.204  17.626 -0.0742  0.1606  0.1942
35937W        W36137  10.085   6.005  18.017  0.2941 -0.0335 -0.0501
35938W        W36138   0.096   9.623   1.739  0.4890 -0.0186 -0.2198
35939W        W36139   2.438  11.197  16.310  0.1294 -0.2637  0.0963
35940W        W36140  13.988  12.843  14.801  0.2109  0.1654 -0.2580
35941W        W36141   9.292   6.947   5.837  0.1825  0.0202  0.0462
35942W        W36142  11.150   9.820   0.558  0.0534  0.3420 -0.1448
35943W        W36143   1.490  12.500   7.729 -0.1739  0.1411 -0.0901
35944W        W36144   7.279   5.104  12.107 -0.4706 -0.0759  0.0160
35945W        W36145  12.631   9.460  14.547 -0.0005  0.2944  0.0489
35946W        W36146  14.230   5.461   3.685  0.0211 -0.0780  0.0934
35947W        W36147   9.062   7.937  17.422  0.0238 -0.5659  0.2498
35948W        W36148   5.855   7.098  16.212 -0.1785 -0.2120  0.1458
35949W        W36149  17.367   4.439  16.499 -0.0064 -0.1446  0.3570
35950W        W36150   8.848   2.366  17.239  0.1043 -0.0858 -0.1027
35951W        W36151   7.614  11.176   9.283  0.0658 -0.1472  0.3344
35952W        W36152  10.889  12.907  12.087  0.0769  0.0910 -0.3151
35953W        W36153  12.976   9.721  14.340  0.1857 -0.0173  0.1281
35954W        W36154   0.692  14.584  16.314  0.1361  0.1895  0.1927
35955W        W36155  17.644   0.907  16.800 -0.0958 -0.0591  0.0550
35956W        W36156   8.231  17.779  16.121  0.1034 -0.0840  0.3219
35957W        W36157   1.866   5.831   6.523  0.0876  0.1328 -0.0068
35958W        W36158  15.766   6.406  14.658  0.0640  0.2409  0.3168
35959W        W36159   0.355  13.463   0.280  0.2163  0.0587  0.0446
35960W        W36160  17.558   5.684  13.819  0.1723 -0.4693 -0.5938
35961W        W36161  16.806   7.448  16.751 -0.2370  0.2194 -0.0098
35962W        W36162  12.316  16.097   9.029  0.2649  0.2132  0.1799
35963W        W36163  11.545  17.849  16.629 -0.3683 -0.0166  0.0226
35964W        W36164  12.977   7.859   2.862  0.0740 -0.2462  0.1573
35965W        W36165   9.602   7.207  16.434 -0.2002 -0.1255 -0.1147
35966W        W36166   1.485  14.687  10.903  0.0564 -0.1489  0.4561
35967W        W36167   8.335   4.780   3.133  0.1025  0.0004 -0.0314
35968W        W36168   1.791   8.928  17.961  0.0987  0.1075 -0.1088
35969W        W36169  12.298  12.739  15.413 -0.0838 -0.2391  0.1702
35970W        W36170   9.382   4.829  10.631  0.1968  0.1692  0.0760
35971W        W36171  12.525   2.931   3.624 -0.3023 -0.0073 -0.1756
35972W        W36172  11.247  12.056   2.364  0.1826 -0.1726  0.1781
35973W        W36173  17.986   8.294  14.558  0.3872  0.3060  0.0359
35974W        W36174   6.850  14.980  17.491  0.0944 -0.3939 -0.0372
35975W        W36175  10.820  10.187   0.322  0.2530  0.1935  0.1508
35976W        W36176  10.128   3.497  11.014  0.1511  0.0703  0.1062
35977W        W36177  12.863  17.233   5.309  0.2803 -0.0652 -0.0080
35978W        W36178   1.538   2.618  16.043 -0.1657 -0.1192  0.3146
35979W        W36179   8.679   5.440   8.644 -0.2874 -0.0862 -0.2016
35980W        W36180  11.135   2.532  16.823  0.1894  0.1084  0.1897
35981W        W36181   7.303   9.613  12.079 -0.1907 -0.1662  0.1583
35982W        W36182  11.977  10.450  13.014  0.1786  0.2165  0.0167
35983W        W36183  14.562  11.115   5.168 -0.1173  0.0496 -0.0703
35984W        W36184  12.226  15.862  12.936 -0.0206 -0.1752 -0.0426
35985W        W36185  12.749  10.432   2.771 -0.0662 -0.2699  0.1557
35986W        W36186  16.042   9.854   8.849 -0.1403  0.3314 -0.0265
35987W        W36187  11.242   3.809   0.685 -0.3011  0.0944 -0.3727
35988W        W36188  10.722   2.226  17.052  0.1631 -0.3522 -0.1719
35989W        W36189  11.281  17.187   8.372 -0.0525  0.0360 -0.1333
35990W        W36190   4.998   3.562  12.525  0.3128  0.0981  0.1562
35991W        W36191   3.811   7.471   4.192 -0.2441  0.1469  0.0951
35992W        W36192  13.315   8.505   6.722  0.2005 -0.1781  0.0278
35993W        W36193   6.872   3.496  15.662 -0.0117  0.1633 -0.0185
35994W        W36194  13.600   8.567   3.047  0.2426 -0.2419  0.2360
35995W        W36195  17.584   7.929   0.628 -0.1563  0.1664 -0.4716
35996W        W36196  12.786   8.935  17.814  0.0559  0.1047  0.0496
35997W        W36197  11.385   2.174   5.591 -0.1973 -0.1343  0.3289
35998W        W36198  12.598  14.163   2.497  0.1510 -0.0765  0.1168
35999W        W36199   9.118  16.721   6.941  0.1101  0.1668 -0.1617
36000W        W36200   1.055   5.334   2.682  0.0011 -0.2884 -0.0627
36001W        W36201  13.069  14.637   5.087 -0.1090 -0.2058  0.0333
36002W        W36202  11.997  14.565   1.892  0.0555  0.0208  0.1690
36003W        W36203  17.318  11.509   5.576 -0.1109 -0.2017 -0.0025
36004W        W36204   9.209  11.328   3.199  0.0766  0.3742  0.3862
36005W        W36205  12.167  16.369   6.024  0.1782  0.0155 -0.1025
36006W        W36206  14.551   1.994  17.311  0.1805 -0.2243  0.1219
36007W        W36207   3.033  14.627   9.406 -0.1291 -0.2698 -0.3488
36008W        W36208  10.317   7.302   0.844  0.0913  0.1773 -0.0760
36009W        W36209   9.964   0.646  17.153 -0.0481 -0.1656 -0.2885
36010W        W36210   8.943   7.440   0.704  0.0833  0.1111 -0.0954
36011W        W36211  15.698   9.060   6.890 -0.1013  0.2152 -0.1875
36012W        W36212  14.386  12.937   7.351  0.2862 -0.0299  0.2386
36013W        W36213  12.622   3.065   2.131 -0.1010  0.0540  0.0573
36014W        W36214  16.899  14.351  13.314 -0.0491 -0.0225  0.2428
36015W        W36215  10.966  13.336   3.787 -0.0070 -0.3442 -0.0150
36016W        W36216  12.673   0.557  16.007 -0.2006  0.1530 -0.1842
36017W        W36217  16.434  10.794   0.300 -0.1969 -0.0405  0.2678
36018W        W36218  14.779  17.318   1.670 -0.2196 -0.2991  0.1227
36019W        W36219   6.245  17.638   9.956 -0.0747  0.1090 -0.1555
36020W        W36220  10.180   6.377   2.564  0.0890  0.0246  0.1596
36021W        W36221   5.839  15.626  13.389  0.0759  0.2285  0.2145
36022W        W36222  15.421   1.361  11.356  0.1238 -0.3303  0.0088
36023W        W36223  10.214  15.266   0.062  0.0039  0.1029  0.3121
36024W        W36224  16.453  13.671   6.813  0.1033 -0.1760 -0.1532
36025W        W36225   7.327   4.191   5.619  0.3397  0.0481 -0.0282
36026W        W36226  13.762   5.599   2.079 -0.1444  0.0711 -0.1209
36027W        W36227  11.779   8.494  16.877  0.0891  0.0894  0.0040
36028W        W36228   4.556  11.439   3.845  0.2076 -0.2424  0.0479
36029W        W36229  11.670  11.317   1.681 -0.0646 -0.0456  0.0117
36030W        W36230   8.592  16.350  10.428 -0.0643  0.0617 -0.1205
36031W        W36231  14.436   7.849   7.770 -0.1291  0.2896 -0.1002
36032W        W36232  11.545   9.388  16.272  0.0720 -0.0544  0.0407
36033W        W36233   1.198   9.044  16.256  0.0955 -0.0294  0.1086
36034W        W36234   8.079   9.922  10.532  0.3140 -0.1464  0.1799
36035W        W36235   1.431  16.168   6.156 -0.0104  0.0979 -0.0200
36036W        W36236  11.541   6.729   8.410  0.0906  0.0170 -0.0812
36037W        W36237  10.620  15.696   2.475 -0.1178 -0.1502 -0.0256
36038W        W36238  12.254   8.409   2.734  0.0228  0.0446  0.1704
36039W        W36239  17.782  17.826   3.369  0.0330 -0.1630 -0.2244
36040W        W36240   2.233   5.809  15.131 -0.0960  0.2991 -0.0220
36041W        W36241   8.129  17.899   3.840 -0.1456  0.0347  0.2169
36042W        W36242  13.593  12.764   2.998  0.1713 -0.1058  0.3422
36043W        W36243   8.644  10.220   1.825 -0.1909  0.0825 -0.1796
36044W        W36244  15.524  11.555   9.619  0.2022  0.0845 -0.1921
36045W        W36245  15.086  14.574   1.827  0.1094 -0.0221 -0.4277
36046W        W36246   0.360  12.211   0.764  0.1569 -0.1545 -0.0243
36047W        W36247  14.081  13.643   9.362 -0.0193 -0.0719 -0.2043
36048W        W36248  14.674   7.681   0.220 -0.0522 -0.0961 -0.0115
36049W        W36249  12.788  13.321   6.940  0.0352 -0.1276 -0.0425
36050W        W36250  12.873  13.297  16.593  0.0133  0.4194  0.0555
36051W        W36251  12.580  11.841  15.203  0.1936  0.3548  0.3010
36052W        W36252  17.871   4.597   1.916  0.3040 -0.4622  0.1536
36053W        W36253   4.460  12.021   9.126  0.0682 -0.0457  0.0671
36054W        W36254  11.286  10.681  13.199  0.0906  0.1006  0.0151
36055W        W36255  16.701   7.220  15.507 -0.3885  0.1718 -0.2606
36056W        W36256   7.661  10.091   6.134 -0.2669  0.1316 -0.1740
36057W        W36257  10.599  11.662   7.233 -0.0668  0.2605 -0.0467
36058W        W36258   9.780  17.119   6.109  0.0881  0.3122 -0.0595
36059W        W36259   9.880   9.186   2.621  0.0886 -0.0291  0.0468
36060W        W36260   5.637  14.364   3.546 -0.0774  0.2463  0.2390
36061W        W36261  10.764   7.817   5.573  0.0909 -0.3533  0.0495
36062W        W36262  17.383  12.069   2.497 -0.0058 -0.2775 -0.1412
36063W        W36263  14.585  16.174   3.195 -0.2069 -0.0604 -0.0348
36064W        W36264   9.287  11.706   0.082  0.1383  0.1413 -0.4049
36065W        W36265   9.503  15.612   8.602 -0.0699 -0.1762  0.0755
36066W        W36266  12.404  12.269   1.198 -0.1615  0.0786  0.3311
36067W        W36267  15.730  13.154   0.553 -0.1354 -0.0506  0.1961
36068W        W36268  11.048  10.822  11.564  0.0204  0.0059 -0.0424
36069W        W36269  12.147   9.978  13.155  0.1181 -0.1152 -0.0304
36070W        W36270   9.016   0.042   5.645 -0.2517 -0.0206  0.2411
36071W        W36271  11.183  15.234   3.138 -0.1347  0.3934  0.1276
36072W        W36272  16.958  16.254   1.083  0.0397 -0.1399 -0.0576
36073W        W36273   0.049  14.857  14.737 -0.1420 -0.1547  0.1727
36074W        W36274   3.481   0.301   2.751  0.0230  0.1382  0.0088
36075W        W36275   3.861   9.268  12.449  0.1399 -0.1124  0.0528
36076W        W36276   0.952   9.748   3.124  0.1388  0.0802 -0.0612
36077W        W36277  17.941  10.233   3.287  0.2069 -0.1980  0.0289
36078W        W36278   8.371  13.256  15.143 -0.2414 -0.0200 -0.0801
36079W        W36279   0.463  11.785   4.337  0.0923  0.0007 -0.2889
36080W        W36280  11.112  13.584  16.639 -0.0652 -0.1574  0.0186
36081W        W36281  17.586  12.498   0.469  0.0481 -0.2733  0.1236
36082W        W36282   0.410   7.104   1.104 -0.0258  0.0120 -0.2798
36083W        W36283  12.899  10.924  13.002  0.1690  0.2344  0.1728
36084W        W36284  12.045   8.534   8.725  0.2371 -0.3114 -0.1738
36085W        W36285   6.385  11.417   6.880  0.0701 -0.2674 -0.0984
36086W        W36286  14.108  11.813   1.817 -0.0530 -0.1694 -0.1516
36087W        W36287   0.486  12.278   5.809  0.1815  0.0100 -0.0904
36088W        W36288  11.501  14.365  16.594  0.0662 -0.2290 -0.1038
36089W        W36289   4.107   8.693  15.757 -0.2202  0.2198 -0.0952
36090W        W36290   8.179  17.961   0.057 -0.1157  0.2713  0.0162
36091W        W36291  12.635  17.271   5.889  0.4150 -0.2854  0.0252
36092W        W36292   0.912   1.089  17.340 -0.1262  0.0003  0.0972
36093W        W36293  12.472   9.903  16.592  0.0203 -0.1057 -0.1190
36094W        W36294  11.206  14.386  10.977 -0.1177 -0.1550  0.1122
36095W        W36295  14.152  15.016   9.755 -0.1374  0.4238 -0.1859
36096W        W36296  11.175   7.752  17.401 -0.2536 -0.1517 -0.0719
36097W        W36297  13.234  13.311   2.401  0.0443  0.0538  0.1068
36098W        W36298   1.431  14.667   3.178  0.0858  0.0258  0.1415
36099W        W36299  12.181  16.972   6.561 -0.2460  0.1317  0.1138
36100W        W36300  17.821  10.946   3.239 -0.0332 -0.1824 -0.0292
36101W        W36301   9.399  12.023   2.526 -0.1839  0.1328 -0.3102
36102W        W36302  12.935  12.519   2.163 -0.0799 -0.0679 -0.1010
36103W        W36303   7.879  10.320   1.710  0.0426 -0.0400 -0.1581
36104W        W36304  14.588   2.383   4.383 -0.0366 -0.0290  0.0522
36105W        W36305   7.072  11.054   7.523 -0.0325  0.0246 -0.0329
36106W        W36306  13.859  11.940  15.699 -0.1703 -0.0293 -0.3845
36107W        W36307   6.037  11.582   4.261 -0.1574  0.0069  0.0510
36108W        W36308  16.805   1.981   4.494  0.0401 -0.2674 -0.0219
36109W        W36309   3.401  16.010  16.818 -0.0463 -0.2045  0.0125
36110W        W36310  13.590   0.234  10.469 -0.1978 -0.2315  0.2004
36111W        W36311  16.200  17.044   2.915 -0.3004 -0.1170  0.0866
36112W        W36312   6.172   5.656  16.071 -0.1330 -0.1758  0.1008
36113W        W36313   0.183  14.348  17.656  0.3323 -0.0143  0.2845
36114W        W36314   4.635  13.068   1.216 -0.1612 -0.1157  0.1724
36115W        W36315  12.375   7.400  17.771  0.5023  0.0029 -0.1216
36116W        W36316   1.659  10.577   0.055  0.1069  0.3217  0.1460
36117W        W36317   6.220   3.309  12.909 -0.0732 -0.1620 -0.1358
36118W        W36318  16.337   8.858  17.939  0.2999  0.1376 -0.0974
36119W        W36319  13.087  11.869  10.200 -0.2712 -0.0215 -0.1849
36120W        W36320  12.380  15.497  17.098  0.1209 -0.2598  0.1286
36121W        W36321   0.992  13.644  14.181 -0.0472  0.0991 -0.1522
36122W        W36322  11.805  13.723   6.435 -0.0472 -0.1363  0.0514
36123W        W36323  10.170   0.365   1.350 -0.3409  0.2204  0.2679
36124W        W36324   7.041   6.711   6.766 -0.2518  0.0530 -0.0367
36125W        W36325   6.800   9.632   0.744 -0.3809 -0.0981  0.0014
36126W        W36326  15.396   9.426  17.185  0.0848 -0.0914  0.4578
36127W        W36327  17.630  11.968  13.976  0.1033  0.0049 -0.0015
36128W        W36328   9.268  17.921   4.440  0.0385  0.1200 -0.0801
36129W        W36329   5.917  11.920   1.514 -0.0100  0.0044 -0.0555
36130W        W36330   2.648   3.217   5.794  0.0409  0.1316 -0.3996
36131W        W36331  14.212   9.790  14.042 -0.1899  0.0215  0.0839
36132W        W36332   4.612   3.782   5.478  0.2831  0.2535 -0.0796
36133W        W36333  14.232  13.528  15.878  0.1243 -0.0114  0.0084
36134W        W36334   9.047  11.780   6.748 -0.1071 -0.0932 -0.1582
36135W        W36335  18.083  12.996  16.457 -0.0864 -0.1163 -0.0228
36136W        W36336  13.289   8.919   4.657 -0.1238  0.1443 -0.2071
36137W        W36337  12.535  14.010   0.252  0.0780 -0.1909 -0.1537
36138W        W36338  12.861  10.121   3.148  0.1063 -0.0656 -0.1342
36139W        W36339   4.219  14.013   1.234  0.0153 -0.1248 -0.2174
36140W        W36340  14.761  15.348   5.301  0.1946  0.0429  0.2387
36141W        W36341  10.943  14.351  16.122  0.1647  0.3625  0.1024
36142W        W36342   3.786   1.354   4.325  0.0088  0.0577  0.1006
36143W        W36343  10.793  13.741   4.151  0.0371 -0.2467  0.5423
36144W        W36344  17.402  14.381   2.917  0.0323 -0.2792  0.0901
36145W        W36345  16.234   8.495   2.528  0.2797  0.0038 -0.1412
36146W        W36346  11.148  10.234   6.206  0.2707  0.0639  0.0538
36147W        W36347  16.103  10.523   7.348  0.0327 -0.0449  0.0314
36148W        W36348   5.047  15.923   0.461 -0.0187  0.1096 -0.2641
36149W        W36349  10.919  11.464   5.374  0.1659  0.0054  0.0418
36150W        W36350   8.426  15.833  12.195  0.1217 -0.0495  0.1959
36151W        W36351   1.345  14.304  17.089 -0.3445 -0.0185 -0.0479
36152W        W36352   1.909  15.064  15.666 -0.1686 -0.1479  0.0864
36153W        W36353  17.494  15.264   3.925 -0.2168 -0.0605  0.0336
36154W        W36354   7.920  15.371  15.674  0.0402 -0.1035  0.4898
36155W        W36355   9.392  13.360   0.055 -0.1907  0.1966  0.3648
36156W        W36356   6.555  11.905  12.180  0.0171 -0.0616  0.2646
36157W        W36357   5.827   5.769   1.553  0.1306  0.1464  0.1913
36158W        W36358  15.004  11.034  16.381 -0.0287  0.0905 -0.2308
36159W        W36359  16.335   1.244   3.455  0.0888  0.1095  0.1357
36160W        W36360  16.342  12.936   5.893  0.0347  0.3705 -0.0804
36161W        W36361  10.355   0.013   4.099  0.0945  0.2441  0.0006
36162W        W36362   9.376   5.187  17.441  0.3277  0.3151 -0.1661
36163W        W36363  10.404  10.931  17.320 -0.0428  0.0077  0.1960
36164W        W36364  13.650  12.117   4.660 -0.1121  0.2315  0.2389
36165W        W36365   3.158   9.825   7.228  0.0752  0.0715 -0.0622
36166W        W36366  10.373  13.536   1.390 -0.0235 -0.0711 -0.3387
36167W        W36367  11.081   0.822  18.164  0.0173  0.2328  0.0022
36168W        W36368   7.382   1.476   0.157  0.1309  0.1934  0.1967
36169W        W36369  13.387   7.005   0.431 -0.1032  0.2045 -0.1303
36170W        W36370  16.361  11.496   2.164  0.2724  0.0405  0.1647
36171W        W36371   9.344  11.055   9.131  0.0517 -0.0213  0.0568
36172W        W36372  15.460  15.526   1.864  0.3513 -0.2071  0.0355
36173W        W36373  14.968   0.466   8.991 -0.0810 -0.0385 -0.0876
36174W        W36374  15.407  12.988  12.407  0.2305 -0.1534  0.1505
36175W        W36375  16.450  12.565  11.563 -0.0624  0.0161 -0.2804
36176W        W36376   8.521   6.863   1.242 -0.1032  0.1732 -0.1821
36177W        W36377  17.120  14.927   6.723  0.3593  0.1546 -0.1543
36178W        W36378  10.698  12.470  15.948  0.0627  0.2533 -0.0722
36179W        W36379   0.298  13.959   2.967 -0.4217  0.0366 -0.0148
36180W        W36380  16.629   8.852   2.601  0.1493 -0.1272 -0.1103
36181W        W36381  13.680  13.358   0.626  0.3341 -0.1244 -0.0405
36182W        W36382  14.081   5.333  17.956 -0.1338 -0.0615  0.1196
36183W        W36383   0.845  17.769   3.403  0.3537  0.2213 -0.4277
36184W        W36384  13.024  13.478   3.175  0.0394 -0.4543 -0.1116
36185W        W36385  17.437  10.933  13.816  0.0539 -0.3253 -0.2485
36186W        W36386  10.254  10.120  11.196  0.1420 -0.1175 -0.4951
36187W        W36387   8.215   7.563  13.522  0.3605 -0.0993  0.2937
36188W        W36388  17.166   8.818   9.699  0.0289 -0.0255  0.0734
36189W        W36389   6.947  12.942  17.529  0.0322 -0.2971  0.0202
36190W        W36390  10.069   9.099  17.796 -0.0209 -0.2625 -0.1407
36191W        W36391   6.404  11.399   3.134  0.0167 -0.2556 -0.1092
36192W        W36392  13.512   2.003  17.103  0.4226 -0.0299 -0.0819
36193W        W36393  16.448   6.096  13.997 -0.1505  0.0349 -0.3072
36194W        W36394  16.397  11.894   5.696 -0.0645  0.1895 -0.0047
36195W        W36395  12.587  15.091   2.781  0.0794  0.2130 -0.1102
36196W        W36396  10.220   6.176   4.750  0.1508  0.2113  0.3422
36197W        W36397  14.470  13.345   4.597  0.3228  0.1900 -0.1048
36198W        W36398   8.380   5.480  15.569 -0.0854 -0.1238 -0.2521
36199W        W36399  14.094  12.974   6.942  0.0652  0.0146 -0.2071
36200W        W36400  16.269   3.223   0.801  0.1779  0.1840  0.1153
36201W        W36401  13.173   1.849   4.801  0.1556 -0.1850 -0.3615
36202W        W36402  12.761  10.887  12.475 -0.0327  0.0788 -0.0540
36203W        W36403  14.368   8.720   2.886  0.1473 -0.0171 -0.2620
36204W        W36404   0.393   2.168  15.799  0.1320  0.3374 -0.1399
36205W        W36405  13.682   7.448   1.626 -0.0972  0.0516  0.1116
36206W        W36406  10.378  17.030   4.664 -0.1245  0.0124  0.0375
36207W        W36407   5.043  15.159   0.226 -0.0543 -0.4680 -0.2652
36208W        W36408   5.441   8.540  10.691  0.0343 -0.0877  0.1672
36209W        W36409   8.273   9.429   0.861  0.2524 -0.2404 -0.0662
36210W        W36410  11.271  13.586   0.705 -0.1319  0.2482 -0.1198
36211W        W36411   7.590  13.392   0.177  0.1706  0.2230 -0.0205
36212W        W36412  14.658   8.660  16.964 -0.0467  0.1563 -0.1758
36213W        W36413  14.634  16.754  13.671  0.0112 -0.2553  0.0453
36214W        W36414  13.663   0.963   1.028  0.0395 -0.2384  0.3823
36215W        W36415   5.069  15.942  14.597 -0.0937 -0.0667 -0.1247
36216W        W36416   2.303  18.176   2.180  0.0372 -0.1508  0.1702
36217W        W36417  11.482   9.478   1.408 -0.3603 -0.0231  0.1894
36218W        W36418  17.871  15.375   1.842  0.3996 -0.0675 -0.1557
36219W        W36419  12.213  14.963   2.153 -0.0538 -0.0250 -0.0911
36220W        W36420   5.497  16.360  13.308 -0.0572 -0.2916 -0.1101
36221W        W36421  16.584  11.694   3.391  0.0516 -0.1550 -0.0508
36222W        W36422   6.969   9.619  15.110  0.1667 -0.1781 -0.0515
36223W        W36423  11.781  10.291   1.937 -0.0859 -0.3442  0.0327
36224W        W36424   7.769  15.002   6.822 -0.1330 -0.0223  0.0136
36225W        W36425   1.995  14.371   0.500 -0.2884  0.0885 -0.0171
36226W        W36426  17.455  13.556   1.280 -0.0519  0.0159  0.1598
36227W        W36427  10.004  14.624   2.557  0.1016  0.3558  0.0065
36228W        W36428   7.696  10.836   1.945  0.1439 -0.0305  0.1391
36229W        W36429  13.412  10.031   9.040  0.2175 -0.1811  0.3183
36230W        W36430  10.314   5.564  17.529  0.2507  0.0249 -0.0323
36231W        W36431  14.402   6.321  16.355  0.2761 -0.2902  0.2523
36232W        W36432  17.637   9.204   3.404 -0.2228 -0.0180 -0.0038
36233W        W36433  16.651  15.804  17.349 -0.1421  0.2844 -0.1427
36234W        W36434  18.026  14.084   7.347 -0.1085 -0.3420 -0.0492
36235W        W36435  11.763  12.827   4.324 -0.2333 -0.0154  0.0050
36236W        W36436  16.261  15.144   2.443  0.1432  0.4226  0.1050
36237W        W36437  15.472   5.465  16.674  0.1684  0.1613 -0.0478
36238W        W36438  16.320  12.289  14.687 -0.0576 -0.2976 -0.1942
36239W        W36439   8.689  10.696   5.625 -0.2239  0.2279  0.4010
36240W        W36440  16.740  11.550  10.684 -0.0262  0.1611  0.1610
36241W        W36441   6.678   5.703   2.177 -0.1160 -0.0915  0.0910
36242W        W36442   4.571  11.659   0.806  0.0103  0.0071  0.1999
36243W        W36443  12.220   0.168   6.207  0.1185  0.0665  0.2424
36244W        W36444  13.945  12.412   2.719  0.0483  0.0064  0.2031
36245W        W36445  10.259  15.845   6.188 -0.0786  0.2198 -0.1745
36246W        W36446   8.116  15.379   4.461 -0.0728 -0.0819  0.0690
36247W        W36447  14.139   7.184   3.761  0.2333  0.2631  0.1968
36248W        W36448  12.724  13.993   3.396 -0.2090  0.1933  0.0294
36249W        W36449   8.198   7.145   1.057 -0.0905 -0.2303 -0.2436
36250W        W36450   5.933   6.937   3.170  0.0158 -0.2337 -0.0329
36251W        W36451  13.492   5.529   3.824 -0.3314 -0.2157 -0.1127
36252W        W36452  16.586  17.136  17.585  0.1202 -0.1216 -0.0326
36253W        W36453  12.414  15.077  14.016  0.2090  0.1265 -0.2294
36254W        W36454   6.040  10.884  18.156 -0.0141  0.0863 -0.0408
36255W        W36455  13.883   8.538   3.579  0.0309  0.1007 -0.0375
36256W        W36456  13.149   3.539   6.483  0.0886  0.0992  0.1705
36257W        W36457  11.640   9.949  12.953  0.0961  0.2296  0.2566
36258W        W36458  15.942   9.377   8.863 -0.0748 -0.0346 -0.1945
36259W        W36459  13.292  16.131  14.102 -0.0977  0.0226  0.1412
36260W        W36460  14.902  13.447   1.908 -0.2256 -0.2313 -0.1647
36261W        W36461   9.620   8.483   1.372  0.1656 -0.0395 -0.0807
36262W        W36462  11.029  10.814   2.913  0.0345  0.0583  0.0272
36263W        W36463  15.031  17.897   0.787 -0.2961 -0.1204  0.1403
36264W        W36464  15.888  15.543  13.922  0.2535 -0.0280 -0.0547
36265W        W36465   9.728  13.999  15.821  0.1592  0.0348 -0.0969
36266W        W36466  13.430  13.134   3.298  0.0008  0.2255 -0.1824
36267W        W36467   1.202  12.464  17.729 -0.2108  0.2109  0.2562
36268W        W36468  14.251  13.057  11.507  0.2238  0.2722 -0.1621
36269W        W36469  13.621   9.611   0.503 -0.0730 -0.2228 -0.4138
36270W        W36470   5.809  14.843  12.860  0.3254  0.1608 -0.2685
36271W        W36471  11.740  10.737  17.794 -0.1592  0.1281  0.0564
36272W        W36472   1.488   9.184  13.340  0.0084  0.0256 -0.2419
36273W        W36473   2.161   9.741   2.495  0.1650 -0.0035 -0.0610
36274W        W36474   8.478  10.761   4.724  0.0847  0.1138 -0.2660
36275W        W36475  16.437  16.635  17.495  0.0584 -0.0003 -0.0996
36276W        W36476   7.161   1.894   7.781  0.3338  0.1353  0.3518
36277W        W36477  13.380  13.446  16.553  0.4748 -0.1103 -0.0952
36278W        W36478   7.452  11.665   2.131 -0.0289  0.0380 -0.0686
36279W        W36479   4.724  15.605  16.778 -0.0887  0.0165 -0.3877
36280W        W36480  15.228  13.340   0.727 -0.1163 -0.0177 -0.1183
36281W        W36481   2.091  17.820  14.606 -0.0325 -0.0740 -0.0226
36282W        W36482  12.038   0.714  14.047  0.0460  0.0679 -0.0037
36283W        W36483  16.924  10.475   0.142  0.0066 -0.0424  0.1486
36284W        W36484   8.701   9.138  17.901 -0.1024  0.0413  0.4222
36285W        W36485   1.593  16.328   9.621 -0.1449 -0.0906 -0.0099
36286W        W36486  18.057  13.984   5.608  0.1014  0.3485 -0.1409
36287W        W36487  12.853  13.402  11.253 -0.1354  0.3574 -0.1888
36288W        W36488  13.391   6.642   2.259  0.0857  0.1736 -0.0175
36289W        W36489  15.510   0.065   0.665 -0.0292  0.2073 -0.2821
36290W        W36490  14.304   4.904  16.371  0.1856  0.0520 -0.1421
36291W        W36491   8.499   6.525  16.726 -0.0739 -0.1831  0.0684
36292W        W36492   5.802  15.788  14.802  0.0806  0.3487  0.1775
36293W        W36493  12.684  11.560   1.733  0.1979 -0.3830  0.1891
36294W        W36494   5.279   4.379   9.285  0.2941  0.2391  0.1669
36295W        W36495   0.903  12.973   4.083  0.1738 -0.0670  0.0158
36296W        W36496  15.193  11.133   5.986 -0.2717 -0.1764  0.1165
36297W        W36497  15.479  17.645   5.547 -0.0321  0.1413 -0.2615
36298W        W36498  17.728  11.984  15.834 -0.2949 -0.0515 -0.1791
36299W        W36499   9.551  14.921   7.170 -0.1928 -0.0165  0.1672
36300W        W36500  10.519  14.194  16.355  0.2409  0.0581  0.1265
36301W        W36501  12.275  10.312  17.009  0.1284  0.4101 -0.1641
36302W        W36502   6.753  10.512   4.722 -0.2080  0.2475 -0.1341
36303W        W36503  12.638  10.953   2.285  0.0338  0.0519  0.0081
36304W        W36504   9.048  15.762   3.448 -0.0752  0.1877  0.0005
36305W        W36505  15.783  11.607  16.119  0.1409 -0.4069 -0.0716
36306W        W36506  11.950  12.492  11.409  0.1411  0.1666 -0.1588
36307W        W36507   5.231  16.071   4.108 -0.3100  0.1465  0.0704
36308W        W36508   7.135  10.930  14.774  0.0852  0.2422 -0.1797
36309W        W36509  13.556   8.902   3.423  0.1312 -0.2860 -0.0586
36310W        W36510  16.697   2.429  14.627  0.0060  0.2372 -0.0153
36311W        W36511  13.213  16.981  17.446  0.1492  0.0512 -0.0919
36312W        W36512  10.831   4.103  17.129  0.0654 -0.2347  0.0927
36313W        W36513  15.755  10.764   3.537  0.1783  0.0648 -0.1425
36314W        W36514  17.613   1.183   0.536  0.1234 -0.0018  0.0023
36315W        W36515  17.029  11.442   0.955 -0.0820 -0.5097  0.2277
36316W        W36516  14.405  14.260   4.149  0.2216  0.1252  0.0253
36317W        W36517   9.480  10.258  13.768 -0.2696 -0.1866  0.2065
36318W        W36518   6.636  17.555   4.307  0.0558  0.1019 -0.0693
36319W        W36519  10.925   8.757   3.755  0.0542 -0.4599  0.1475
36320W        W36520  15.481   1.840   9.262 -0.0046  0.2520  0.1825
36321W        W36521   8.551  12.551   2.801  0.1634  0.1295  0.0331
36322W        W36522  11.333   9.541   0.181  0.1457  0.0775 -0.0171
36323W        W36523   3.593  10.808   5.585  0.1016 -0.0815 -0.1343
36324W        W36524   9.995   3.632  15.894 -0.0104 -0.0720 -0.3437
36325W        W36525  10.325  15.036  13.805  0.1258  0.0606 -0.0529
36326W        W36526  13.814  13.289   0.138  0.3683 -0.4640  0.0286
36327W        W36527  15.391  17.654   5.034 -0.1182 -0.1569  0.2266
36328W        W36528   3.921  16.421   7.495  0.1949 -0.0703  0.2257
36329W        W36529  14.418  12.385   4.175  0.4249 -0.4834  0.1694
36330W        W36530   7.562   3.600   6.534  0.1683  0.1959 -0.5906
36331W        W36531   7.433  17.986   3.678  0.0902  0.0360  0.2793
36332W        W36532   2.326   5.613   7.409 -0.1937  0.1061  0.1533
36333W        W36533   3.337   1.557   0.884 -0.0407 -0.0336  0.2103
36334W        W36534  11.450  15.674  11.625 -0.2685 -0.0337 -0.2734
36335W        W36535   9.587  13.450  14.115  0.0375 -0.0477 -0.2976
36336W        W36536  15.779  10.938   7.429 -0.0507  0.1607  0.3763
36337W        W36537  16.233   9.807   1.754  0.1397  0.2747  0.4537
36338W        W36538  13.831  16.285   1.967  0.1676  0.0366  0.1672
36339W        W36539   5.915   6.922  12.546  0.1530  0.3442 -0.2582
36340W        W36540  12.388  16.511   1.682  0.1673  0.1942 -0.0143
36341W        W36541   7.507  10.848  13.459 -0.2528 -0.2472  0.0616
36342W        W36542  17.158  13.974   0.536  0.3278  0.0101 -0.1766
36343W        W36543  10.711   8.692  13.918 -0.0816  0.2400  0.1005
36344W        W36544   6.013  10.800   6.386 -0.1180  0.0189  0.0809
36345W        W36545  10.740   7.006   2.109  0.1176  0.0165  0.0912
36346W        W36546  10.928   3.738  11.441 -0.0872 -0.0666  0.0846
36347W        W36547  10.614  12.484   2.057 -0.3060  0.0477 -0.2638
36348W        W36548  17.833  11.669   5.598 -0.4346 -0.0415  0.0781
36349W        W36549  15.987   6.376   0.423  0.2278 -0.0042 -0.0944
36350W        W36550  11.339  10.505  16.895  0.1389 -0.3146  0.3807
36351W        W36551   6.344  13.862   3.387  0.0574  0.1162  0.1693
36352W        W36552   5.893   4.332  16.440 -0.4701  0.0548  0.1565
36353W        W36553   4.838   4.244  17.458 -0.0807  0.0284  0.1140
36354W        W36554  11.595  10.299   3.719 -0.0063  0.0632  0.0174
36355W        W36555  12.946  14.438   6.686  0.0076 -0.4099  0.0594
36356W        W36556  10.418   4.527   2.622 -0.0811 -0.2883 -0.0666
36357W        W36557   9.779  12.379  13.188  0.2377 -0.1401 -0.1151
36358W        W36558  10.769  11.825  17.006  0.3627 -0.0376  0.0640
36359W        W36559   1.989   4.062  16.212  0.1849 -0.2334  0.2538
36360W        W36560  16.248   9.781   1.173  0.0759  0.1036 -0.1092
36361W        W36561  14.678  17.361  12.746 -0.0645 -0.2839  0.0117
36362W        W36562  16.092   4.603   1.513 -0.0315 -0.2949  0.0141
36363W        W36563  16.067  14.842   8.003  0.0773 -0.0413  0.0339
36364W        W36564   3.762  17.053   1.812 -0.0440 -0.0328 -0.1113
36365W        W36565  16.582  16.608   9.406 -0.1652 -0.2491  0.0096
36366W        W36566  13.215  16.319   4.354 -0.2057  0.0348 -0.0465
36367W        W36567   4.369  14.968   3.188  0.1557 -0.0582  0.0978
36368W        W36568  13.155  10.124  17.419 -0.1473  0.0631 -0.0469
36369W        W36569   8.797  16.182   8.956 -0.0466  0.0584 -0.2357
36370W        W36570  11.662   7.420  17.223 -0.1333 -0.1189 -0.2235
36371W        W36571  12.280  12.532   5.711  0.0538 -0.2019  0.0932
36372W        W36572  16.634  13.045   1.829  0.3681  0.0682  0.2764
36373W        W36573  10.921  11.383   3.685  0.2614  0.0070 -0.1075
36374W        W36574  13.301  11.839  14.860 -0.1243  0.0366  0.0364
36375W        W36575  16.925  14.814  16.330  0.1220 -0.1973  0.2626
36376W        W36576   1.480  17.639   4.880 -0.0191  0.0100 -0.0872
36377W        W36577  10.369  14.036   8.686  0.1522 -0.2728  0.0356
36378W        W36578   3.139   9.292   8.419 -0.1379  0.0754 -0.0693
36379W        W36579   0.783  14.713   5.011  0.0416 -0.1608 -0.1790
36380W        W36580   7.275  12.460   2.461 -0.1614 -0.1457 -0.0219
36381W        W36581   4.608  11.628  15.235 -0.3275  0.3228  0.2399
36382W        W36582  16.040   0.006   5.915  0.0565 -0.0779  0.1840
36383W        W36583   3.658   0.514   8.075  0.0806  0.1264  0.1267
36384W        W36584  14.258  14.818   4.692 -0.0155  0.1792 -0.0849
36385W        W36585  13.110   3.385   4.136  0.0829 -0.3654 -0.0921
36386W        W36586   9.864  17.529   3.471 -0.2065 -0.0312 -0.1531
36387W        W36587   1.108  10.438   9.666  0.0137  0.0104 -0.3154
36388W        W36588   2.804  11.829   4.018  0.0083 -0.0675 -0.1111
36389W        W36589  10.824  11.786   1.727 -0.1823 -0.1475 -0.1427
36390W        W36590  14.611   2.858   4.150 -0.1034 -0.0067 -0.2254
36391W        W36591   1.662  12.426  17.456 -0.2314  0.2881 -0.2038
36392W        W36592   8.392  11.508  16.273 -0.2751 -0.1570  0.0062
36393W        W36593   2.266  15.122   1.779 -0.2231 -0.1845  0.1360
36394W        W36594   9.179  15.468   5.886  0.0666 -0.3150  0.2458
36395W        W36595  13.164  12.291   6.005  0.0628 -0.1760 -0.3176
36396W        W36596   8.314   6.037  16.620 -0.1586 -0.0815 -0.2107
36397W        W36597   1.186   9.361  14.298  0.2256 -0.2253  0.3015
36398W        W36598  14.149   5.020   3.510  0.1866 -0.0499 -0.2230
36399W        W36599  15.434  13.448   5.934 -0.0662  0.0724 -0.0698
36400W        W36600   7.803   1.879  10.544 -0.1623  0.2215  0.0631
36401W        W36601   1.287  17.315   9.982  0.1604 -0.2343 -0.0006
36402W        W36602   0.544  11.149   5.689 -0.0243 -0.2158  0.0913
36403W        W36603  16.697   1.186  17.179 -0.1931 -0.0835  0.2759
36404W        W36604   9.933  16.047   8.621 -0.0661  0.0099 -0.1556
36405W        W36605  16.008   0.899   2.706  0.0531 -0.3758 -0.0476
36406W        W36606   5.475  15.467   6.910  0.0773 -0.0308 -0.2846
36407W        W36607  10.420  16.089   2.007 -0.0536 -0.0097  0.2948
36408W        W36608   6.059  12.542   2.154 -0.4298 -0.4379  0.1657
36409W        W36609  15.250  11.351   8.795  0.0459  0.1151 -0.1074
36410W        W36610   2.178   7.928   4.525 -0.0525 -0.0661  0.1212
36411W        W36611  10.840  13.474   3.242  0.1052  0.0673 -0.1055
36412W        W36612   5.960  15.599  15.978  0.2011 -0.0325  0.0080
36413W        W36613   9.274  17.015  11.021 -0.1085 -0.2144  0.1140
36414W        W36614  18.123  13.658  17.496  0.1398 -0.0320  0.0397
36415W        W36615  11.402   8.442   4.416  0.0453 -0.1702  0.2459
36416W        W36616   7.648   7.269  10.480 -0.0413  0.1795  0.1521
36417W        W36617  12.777   5.203  15.709 -0.2401 -0.1527 -0.1664
36418W        W36618   9.557   8.648   3.617 -0.3872 -0.0682 -0.2384
36419W        W36619  12.096  12.441  14.268 -0.0504 -0.0487 -0.1511
36420W        W36620   7.349  15.688  10.408  0.1803  0.1304  0.5013
36421W        W36621   4.696  10.991   8.576  0.0568 -0.2593 -0.3030
36422W        W36622  15.116   2.082   0.036 -0.3227 -0.1448  0.2509
36423W        W36623  12.060   8.796   6.724 -0.2174 -0.2368 -0.0593
36424W        W36624  11.724  16.861   9.608 -0.1269  0.1672 -0.1069
36425W        W36625  12.730   7.069   5.118 -0.1783 -0.0957 -0.0062
36426W        W36626  11.406  10.622   4.624 -0.0220  0.1258 -0.1115
36427W        W36627   9.442   9.339  17.191  0.2065  0.0256  0.0462
36428W        W36628  15.677   7.345   8.725  0.0744  0.1100  0.0383
36429W        W36629  12.596  14.963   5.799 -0.2892 -0.0750 -0.1200
36430W        W36630   8.498  12.859   3.629  0.0942 -0.1633  0.0221
36431W        W36631  10.112  16.927   6.688 -0.4039 -0.1953 -0.3741
36432W        W36632   8.841  12.951  17.752  0.3329  0.0060  0.1007
36433W        W36633   9.147  15.882  10.919  0.1795 -0.2995 -0.2124
36434W        W36634   8.420  10.459  17.150 -0.0790 -0.2349 -0.1476
36435W        W36635   8.431   7.076   4.309 -0.1775 -0.1330  0.1374
36436W        W36636  15.065  10.501   7.072 -0.0371  0.4961  0.0708
36437W        W36637   0.330  15.440  12.531 -0.0603  0.2299  0.1278
36438W        W36638  15.945  16.277  12.297 -0.3298  0.2648  0.1834
36439W        W36639   2.482  15.938   7.536 -0.0745 -0.0026  0.0002
36440W        W36640  10.972  13.040   5.090  0.1238  0.1406  0.2183
36441W        W36641   8.853  15.312  17.897  0.0963  0.1535  0.1210
36442W        W36642  13.325  12.921   3.790  0.0284 -0.0970 -0.0462
36443W        W36643   0.042   4.595   2.738 -0.0412  0.2108  0.0681
36444W        W36644   2.232   7.091   8.551 -0.0112 -0.2266 -0.1500
36445W        W36645   8.648  17.173   7.807  0.0945 -0.2544 -0.0491
36446W        W36646  16.158   7.371   9.511 -0.0248 -0.2372 -0.0711
36447W        W36647  16.528  14.026   1.802 -0.0227 -0.1398  0.5033
36448W        W36648   5.979  13.790   7.228  0.1954 -0.0026  0.3691
36449W        W36649   8.932  13.119  14.676  0.1902  0.2927 -0.1674
36450W        W36650  16.547   7.717  17.107  0.1826 -0.1257 -0.1210
36451W        W36651  14.827   6.577  17.667  0.0652  0.1027  0.2471
36452W        W36652  12.826  14.143   1.009  0.0389  0.1990  0.1011
36453W        W36653  12.186   5.311   7.701  0.0515 -0.1311 -0.4119
36454W        W36654   8.267  13.839   6.158 -0.2902  0.2028 -0.2304
36455W        W36655  15.994   1.227   4.457  0.0284 -0.1012 -0.1383
36456W        W36656  11.155   3.767  17.290 -0.0030 -0.2171  0.0595
36457W        W36657   9.053   2.770  16.201 -0.2528  0.1305  0.1450
36458W        W36658  13.358  11.617   9.275  0.2144  0.2881 -0.0430
36459W        W36659  11.894   7.464   6.152  0.1331 -0.0012  0.2428
36460W        W36660  10.950   5.562   5.510  0.0748  0.1028  0.1455
36461W        W36661   9.458  12.918   5.198 -0.2219  0.0951  0.0470
36462W        W36662   0.758   5.898   5.340  0.0753  0.0853 -0.0143
36463W        W36663  16.406   6.685  10.473 -0.0409 -0.2102  0.2078
36464W        W36664   6.876   7.436   0.803 -0.0824  0.2845  0.0302
36465W        W36665   8.622  12.180   7.033 -0.3591  0.2826  0.2657
36466W        W36666   6.375  16.471  11.035 -0.1665  0.2738  0.1236
36467W        W36667   2.375   7.544   4.238  0.2295  0.0880  0.1856
36468W        W36668  11.142   7.892   6.761  0.0814 -0.1355  0.0217
36469W        W36669   0.840  14.133   4.974 -0.1884 -0.1128  0.2622
36470W        W36670   4.995   9.072   0.579 -0.1260  0.0468 -0.0740
36471W        W36671  13.610  10.006  15.388  0.0273  0.0689  0.3192
36472W        W36672  15.309  14.251   4.980  0.1438  0.1813  0.4413
36473W        W36673  12.704   9.155  16.019 -0.2261  0.0958  0.0074
36474W        W36674   8.217  11.176   2.291  0.0228 -0.1692  0.0505
36475W        W36675  16.905  10.750  17.869  0.3640  0.0512 -0.2030
36476W        W36676  11.691  12.478  18.111  0.3719  0.1700  0.3318
36477W        W36677   7.364  12.805   8.520  0.0698  0.2567 -0.0210
36478W        W36678   5.533  12.180   8.860  0.0223 -0.1788  0.2431
36479W        W36679  10.994  10.872   3.737  0.3297  0.3266 -0.1593
36480W        W36680   5.421  11.228  17.979 -0.1579  0.2833 -0.0980
36481W        W36681  11.288  14.031  10.577  0.2090 -0.2636 -0.3494
36482W        W36682  10.130  12.737   5.228  0.2471  0.0245 -0.1652
36483W        W36683   9.456   8.518  10.358 -0.2094  0.0810  0.0108
36484W        W36684   8.544  13.605   9.639  0.1220 -0.1351 -0.1177
36485W        W36685  12.016  11.123   6.343 -0.2059  0.0793 -0.1063
36486W        W36686   1.748  14.857   5.662  0.0326 -0.1773  0.0227
36487W        W36687  10.341   4.485   9.031  0.1587 -0.2016  0.0031
36488W        W36688  13.834   1.862  13.292 -0.0737 -0.1912  0.0044
36489W        W36689   8.671   8.244   3.805 -0.0901 -0.1748 -0.1435
36490W        W36690   6.811  10.147  17.035 -0.1373 -0.0613 -0.0518
36491W        W36691  11.198   6.762   9.193 -0.2532  0.1958  0.3130
36492W        W36692   7.415  11.985  10.273 -0.0824  0.2013 -0.1182
36493W        W36693  13.603   1.265   4.435 -0.2094 -0.0958  0.0478
36494W        W36694  12.732  13.771   7.750 -0.1813 -0.0690  0.0770
36495W        W36695   4.239   9.839  18.069  0.2132 -0.1669 -0.0050
36496W        W36696   2.723  12.340  11.018 -0.1428 -0.0834  0.0197
36497W        W36697  15.201  10.728  17.951  0.0419 -0.0716 -0.0615
36498W        W36698  12.587   9.402   3.354 -0.1220  0.2941  0.2534
36499W        W36699  11.251   2.618  10.050 -0.0814 -0.1675 -0.1263
36500W        W36700   1.036  16.767  15.428  0.1100 -0.0207 -0.0402
36501W        W36701  12.322   1.690   2.784 -0.1573 -0.0003 -0.0192
36502W        W36702   5.999  16.840   7.286 -0.0520  0.3680  0.5080
36503W        W36703  16.254  16.067  12.702  0.1917 -0.0713  0.1851
36504W        W36704  17.897  17.149   9.529 -0.1537  0.3516 -0.2104
36505W        W36705   7.728  10.389  11.342 -0.1666  0.0324  0.0466
36506W        W36706   0.464  17.635  10.974  0.0401 -0.1719 -0.2964
36507W        W36707   7.885  14.242   5.363  0.2053  0.1991  0.1073
36508W        W36708  15.699  16.637  17.663  0.3686 -0.2409  0.0254
36509W        W36709   7.915  11.232   8.675 -0.1335 -0.1133  0.2932
36510W        W36710  14.194  16.628   1.888 -0.1666  0.0683 -0.1227
36511W        W36711  16.016  13.158  17.069 -0.0814  0.0123 -0.0714
36512W        W36712  15.868   1.753   9.551 -0.1978 -0.0792  0.0589
36513W        W36713  12.722  14.652  10.727  0.0162  0.2624 -0.3010
36514W        W36714   5.971   5.214  17.619  0.1650  0.1234  0.1950
36515W        W36715   3.012  12.585   7.343 -0.1082  0.0141  0.0098
36516W        W36716  11.099  15.950   6.148  0.1614 -0.1174 -0.4064
36517W        W36717  14.387  15.636  10.830  0.0496 -0.0888  0.0364
36518W        W36718  16.663   9.414   8.685 -0.0312  0.2267 -0.1538
36519W        W36719  11.731   4.724   8.491 -0.1102  0.1434 -0.3729
36520W        W36720   8.441   2.023   5.110  0.2883 -0.1407  0.2912
36521W        W36721   0.936  15.286  13.496 -0.1274  0.0951  0.0011
36522W        W36722  14.564  15.644  14.532 -0.0468 -0.0317  0.3714
36523W        W36723   9.374  12.799   0.869  0.1053  0.0472 -0.0419
36524W        W36724   4.867  11.505   8.522 -0.1341 -0.0298 -0.1495
36525W        W36725   8.784  14.951   9.259 -0.1583  0.1195 -0.4466
36526W        W36726  17.354   1.089   3.615 -0.1506  0.0570 -0.1107
36527W        W36727  10.838  11.517  12.469 -0.1836  0.0163 -0.2443
36528W        W36728  15.083  14.915   6.534 -0.0189 -0.0815  0.4747
36529W        W36729   8.398  15.047  17.917  0.0286 -0.0851 -0.0355
36530W        W36730   4.413  13.767   7.189  0.3867 -0.0764 -0.1161
36531W        W36731   8.876  11.490   4.120  0.0696  0.1086  0.5567
36532W        W36732  10.811  15.361   6.718 -0.0394  0.1228 -0.1007
36533W        W36733  17.058   4.653   2.960 -0.2231  0.2282 -0.3838
36534W        W36734  10.518  17.394   1.401 -0.1901 -0.3153  0.0750
36535W        W36735   9.395   1.738   4.060  0.1454  0.0470 -0.1757
36536W        W36736  11.730   9.172   5.410  0.1118 -0.0619  0.0316
36537W        W36737   8.639  12.138   0.487  0.3041  0.1850 -0.1109
36538W        W36738   8.854   6.913  12.360  0.1263  0.0928  0.2453
36539W        W36739   9.875  15.313   4.046  0.0530  0.4179 -0.1189
36540W        W36740   1.348   1.688  15.034  0.1860  0.1693 -0.0747
36541W        W36741   8.782   2.928   6.916  0.2778 -0.1063 -0.0834
36542W        W36742   9.370   2.235   2.068 -0.0861  0.0891  0.0495
36543W        W36743   4.329   4.970   4.615  0.0703  0.0115  0.1596
36544W        W36744  10.417  13.752   9.102 -0.1804  0.0788 -0.0416
36545W        W36745  15.511   7.131   4.501  0.0272 -0.1843  0.0399
36546W        W36746   8.895  16.742   6.404 -0.0267  0.0089 -0.0634
36547W        W36747  11.861   0.650   2.151 -0.1429 -0.1420  0.0246
36548W        W36748  11.641  11.729   2.180 -0.0350  0.0272  0.0988
36549W        W36749  14.728  17.351  12.214  0.0844  0.2934 -0.0610
36550W        W36750   4.010  10.897   0.889  0.1794  0.1111  0.0881
36551W        W36751  17.395  11.286   2.667  0.2121  0.1823 -0.2504
36552W        W36752  17.956   8.195  11.541  0.2583 -0.0172  0.0054
36553W        W36753   6.357   6.927  10.860  0.0685 -0.0086 -0.1719
36554W        W36754  12.933  13.611   8.852 -0.3217 -0.1030  0.1398
36555W        W36755   2.960   3.190  10.681 -0.1260 -0.2208 -0.3568
36556W        W36756   0.698  13.137   9.464 -0.1802  0.0858 -0.0697
36557W        W36757  10.431   7.418   9.400  0.2285 -0.3535 -0.0346
36558W        W36758  14.309  17.067  10.585  0.0853  0.1124  0.2581
36559W        W36759   3.296   1.212  16.321  0.1236 -0.0830  0.1042
36560W        W36760  14.172  11.451   8.200 -0.0277 -0.0569 -0.2691
36561W        W36761   5.603   7.349   4.779 -0.2014  0.2259 -0.1587
36562W        W36762  13.522   1.084   7.269 -0.0362  0.2436  0.0467
36563W        W36763  17.370   3.408   5.032  0.0221 -0.5009 -0.0739
36564W        W36764  13.746  13.938  10.791 -0.1695  0.0178 -0.1621
36565W        W36765  14.697  10.491  10.060 -0.0571  0.0140  0.1186
36566W        W36766   1.548   0.401  14.253 -0.2259 -0.1812  0.0747
36567W        W36767   9.761  13.996   4.727 -0.0842 -0.2330  0.0424
36568W        W36768  14.860  11.863  10.763 -0.0098 -0.1945 -0.0248
36569W        W36769   4.908   9.406   3.027 -0.0880  0.3846 -0.1274
36570W        W36770  11.489  11.477  10.348 -0.0247  0.2418 -0.0025
36571W        W36771   2.676   3.433  14.673 -0.0205 -0.1013 -0.1079
36572W        W36772  11.390   9.815   1.839 -0.1075 -0.4195 -0.0537
36573W        W36773   7.370  15.104  17.268  0.1316  0.0282 -0.0071
36574W        W36774   5.325  16.745  16.593  0.0421 -0.1171 -0.1561
36575W        W36775   9.656   6.808   0.758 -0.2367  0.0042 -0.4108
36576W        W36776  10.263  13.823  14.617  0.0910  0.3652  0.1961
36577W        W36777   5.127  13.640   1.690  0.0849  0.1958  0.1398
36578W        W36778   0.888  11.298   3.513 -0.4162 -0.1440 -0.2990
36579W        W36779  11.874  11.852  15.990  0.0573  0.2085  0.1621
36580W        W36780  12.741   9.594  15.803  0.1115 -0.0439 -0.1024
36581W        W36781  10.203   5.369  13.664  0.0107  0.0055  0.0295
36582W        W36782  12.020  11.629   6.268 -0.1715 -0.2045 -0.1711
36583W        W36783  17.952  14.347   5.220 -0.0011  0.2483 -0.2237
36584W        W36784  13.843   3.292  10.429  0.1592 -0.1509 -0.1942
36585W        W36785   7.135  13.654   5.346 -0.2296  0.2434 -0.0099
36586W        W36786  15.531  14.248   6.112  0.0293  0.2816  0.1313
36587W        W36787   8.171   9.012   4.834 -0.0349 -0.1260  0.1819
36588W        W36788  13.132  16.138   9.289 -0.1906 -0.1309 -0.0882
36589W        W36789  12.774   0.842   5.479  0.0001 -0.2360  0.1318
36590W        W36790  14.358  16.050  14.310 -0.0474 -0.3614  0.0059
36591W        W36791   7.372  14.344   6.114  0.0376  0.0780  0.1179
36592W        W36792  15.523  14.182   2.155 -0.0992  0.0282 -0.1792
36593W        W36793  12.641  15.977  15.616 -0.1278 -0.2285 -0.0673
36594W        W36794  12.527  16.539   7.393 -0.0146  0.0212 -0.0116
36595W        W36795   4.320   8.378   7.664  0.1314  0.2339 -0.0702
36596W        W36796  13.260   9.998   9.779  0.0688  0.2632  0.0480
36597W        W36797  13.656   6.380   8.207  0.0733  0.3532 -0.4999
36598W        W36798  15.405  16.564   5.863  0.1744  0.1652 -0.0323
36599W        W36799  11.727   4.976   7.566 -0.0293 -0.2609  0.1500
36600W        W36800   9.706   2.920   1.911  0.0376 -0.1256  0.1320
36601W        W36801  11.945  10.715  11.230 -0.1564  0.0619 -0.0478
36602W        W36802  10.053  12.768   1.707 -0.3525 -0.1746  0.2347
36603W        W36803  11.987  12.364   1.582  0.0574  0.1983  0.1726
36604W        W36804   4.451   0.112   7.465  0.1619 -0.0882 -0.0808
36605W        W36805  10.840  17.123   4.839 -0.0722 -0.2144  0.3109
36606W        W36806   4.049  17.831   5.823 -0.0498  0.0237  0.0469
36607W        W36807   7.702   2.969  15.764 -0.3691  0.0120 -0.0162
36608W        W36808   7.057  18.102   2.218  0.0286 -0.3242  0.1663
36609W        W36809  15.532   0.580   8.323 -0.2714 -0.0740  0.1771
36610W        W36810  12.826   0.710   4.147 -0.0832  0.0335 -0.1977
36611W        W36811   1.838  11.154   7.058 -0.2282 -0.0505 -0.0670
36612W        W36812  13.854  12.766   3.420 -0.1007  0.1637 -0.1310
36613W        W36813  17.899   8.454   0.439  0.0929 -0.0993  0.1030
36614W        W36814   8.583  16.004   6.605 -0.2054 -0.2062 -0.1246
36615W        W36815   0.376   5.905   8.524 -0.1144  0.1609 -0.0653
36616W        W36816   7.058  13.034   1.695 -0.2957 -0.1923 -0.2032
36617W        W36817  16.895  11.806   5.788 -0.1997 -0.1929 -0.0561
36618W        W36818   7.342  12.901  16.770 -0.2594  0.2799 -0.0093
36619W        W36819   9.185   8.274   6.391 -0.3473  0.4206 -0.0023
36620W        W36820   9.858   1.375  12.571 -0.0646 -0.1497  0.0145
36621W        W36821  17.647  16.925   0.090 -0.0148 -0.1062  0.0340
36622W        W36822  12.473  15.691   3.413 -0.1879 -0.0065 -0.1014
36623W        W36823  11.437   3.743   6.309  0.1779 -0.1614 -0.0578
36624W        W36824   8.023   6.822  13.374 -0.0695 -0.0626 -0.3440
36625W        W36825  14.067  13.917   1.741  0.1625  0.0999 -0.0380
36626W        W36826  10.954  11.086   0.842  0.2709 -0.0231 -0.2081
36627W        W36827   5.183  13.328  11.168 -0.3118  0.0117  0.1316
36628W        W36828   8.623   8.651   2.575  0.1345  0.1324  0.1252
36629W        W36829  16.876   2.119   1.094 -0.4449 -0.0759 -0.3035
36630W        W36830  10.962  12.269   6.620  0.0962  0.1136 -0.1640
36631W        W36831   8.617  17.276   2.333 -0.0447  0.0138 -0.1328
36632W        W36832  11.650  10.050   4.707 -0.0383  0.0312  0.2685
36633W        W36833  10.738   4.703   3.371 -0.0634  0.1919 -0.0821
36634W        W36834   1.015  13.545   7.469 -0.0924  0.1167  0.0243
36635W        W36835   6.014   9.404   1.015  0.3437 -0.0971 -0.1326
36636W        W36836   9.752  16.944  16.741  0.1330  0.0807 -0.0573
36637W        W36837  15.000   5.168   3.236 -0.0768 -0.0080 -0.2008
36638W        W36838   5.310   5.533   3.073  0.2235  0.1078  0.1581
36639W        W36839  14.903  18.064   8.406 -0.3650  0.1277  0.1696
36640W        W36840  10.762  15.848   6.492  0.0871  0.0109 -0.2314
36641W        W36841  16.890  10.146   7.667  0.1288 -0.2644 -0.2652
36642W        W36842  11.492   7.692   8.802 -0.1619 -0.3896 -0.1878
36643W        W36843  13.620   8.892   0.895 -0.1405  0.0086 -0.2517
36644W        W36844  11.370  16.939  14.875 -0.0322 -0.3735  0.3062
36645W        W36845   7.372   0.104  14.452  0.3858 -0.0790 -0.0229
36646W        W36846   2.926  15.717  14.461 -0.2597  0.1581  0.3776
36647W        W36847   4.275  16.831   5.564 -0.2724 -0.0672 -0.1538
36648W        W36848  13.114  12.145  11.186  0.2258  0.0654 -0.0972
36649W        W36849   1.392  14.271   9.446  0.2568  0.1583 -0.0610
36650W        W36850  14.074  10.151   7.126 -0.2693  0.2768  0.0050
36651W        W36851  16.826   9.207   0.279 -0.0188 -0.5666  0.0695
36652W        W36852   9.030   0.537   0.198  0.1107 -0.0093 -0.1483
36653W        W36853  16.166  13.472  14.745 -0.1709  0.1147  0.0585
36654W        W36854   8.899   9.973   7.635 -0.0339 -0.0357  0.0452
36655W        W36855   5.817   1.944  17.266 -0.0011 -0.0441  0.1642
36656W        W36856  15.536   4.951   1.300 -0.0122  0.4885  0.2806
36657W        W36857   6.515  10.601   4.263  0.1100  0.1309  0.2788
36658W        W36858  14.108   7.408   4.559  0.0850 -0.2492  0.0471
36659W        W36859   8.419   0.508  10.014  0.2250  0.3169  0.1085
36660W        W36860   6.261  15.156   8.594 -0.2316 -0.0347 -0.2703
36661W        W36861  15.384   5.380  15.315 -0.0168  0.3683 -0.2371
36662W        W36862  13.855   5.895   4.746 -0.1980 -0.0476  0.2239
36663W        W36863   0.898  10.907   3.232 -0.0065  0.2040  0.0029
36664W        W36864  15.523  16.337  15.532  0.2576  0.3813 -0.0975
36665W        W36865  12.678   0.168   6.906 -0.0333  0.1430  0.0159
36666W        W36866  16.192  14.368   7.180  0.0938 -0.0800 -0.0461
36667W        W36867  13.662   0.166  13.314  0.1021 -0.4716  0.2523
36668W        W36868  13.645  14.828   5.085 -0.0814  0.1329 -0.1417
36669W        W36869  11.920   5.399   3.761 -0.4912 -0.4109  0.1378
36670W        W36870  14.612   6.351   7.177 -0.0438  0.2550 -0.1737
36671W        W36871  18.176  16.384   6.042  0.0054 -0.2075  0.1221
36672W        W36872   2.980   2.489   2.773 -0.0192 -0.0335  0.2593
36673W        W36873  16.204  12.533   3.020  0.1965 -0.1783  0.0435
36674W        W36874   8.043   8.848  14.593 -0.1112 -0.1203 -0.0232
36675W        W36875   4.919   0.053  12.081  0.0944 -0.1810  0.1950
36676W        W36876  13.721  15.536  14.592 -0.1759  0.0575 -0.0991
36677W        W36877   6.879  10.707   9.520 -0.2260  0.0694 -0.2867
36678W        W36878  10.206  12.391   4.158 -0.1910 -0.0142 -0.0851
36679W        W36879  10.150   6.497   9.768  0.0633  0.1897  0.3847
36680W        W36880   5.344   1.110   3.325 -0.0692  0.2120 -0.0537
36681W        W36881  14.250  13.449   1.202  0.1271 -0.4233 -0.0164
36682W        W36882  16.792  11.293   6.533  0.0038  0.0495  0.1374
36683W        W36883  11.553  13.864  12.285  0.0922 -0.0558 -0.0546
36684W        W36884   8.899  11.244   2.845  0.1130  0.1337  0.1723
36685W        W36885  16.338  12.286  13.422 -0.2669 -0.0666 -0.1696
36686W        W36886   9.779   6.962   5.142  0.1500  0.1126 -0.1153
36687W        W36887  11.331  11.053   3.415 -0.0175 -0.0926 -0.0374
36688W        W36888  13.316  10.369   6.007 -0.0652  0.2718  0.1869
36689W        W36889   8.889  14.978   4.890  0.1166  0.1165  0.1041
36690W        W36890   5.918  13.392   4.408 -0.2616  0.1775  0.1869
36691W        W36891  10.284  14.167   1.487 -0.1143 -0.0440 -0.2801
36692W        W36892  13.255   5.931   6.332  0.0311 -0.0334 -0.2148
36693W        W36893   4.482   6.922  10.048 -0.0794  0.0119 -0.1117
36694W        W36894  17.158   2.367  14.355  0.0423  0.1234 -0.3239
36695W        W36895  14.875  12.210   4.791 -0.0082  0.2603  0.1704
36696W        W36896  13.802  13.695   7.477 -0.0433 -0.1197 -0.1220
36697W        W36897   0.124  15.370   7.548  0.1646  0.3685 -0.0490
36698W        W36898   5.296  11.614   2.262 -0.1121 -0.2066  0.0598
36699W        W36899  13.231   2.409  11.983 -0.0903 -0.0915  0.0501
36700W        W36900   5.487  14.099   4.710  0.1311  0.1386  0.0795
36701W        W36901  15.079  18.002  17.691  0.3828 -0.0676 -0.0417
36702W        W36902  14.813  12.543  14.965 -0.0426 -0.1351 -0.0032
36703W        W36903  14.173  11.718   4.977 -0.0750  0.0223  0.2395
36704W        W36904   9.711  10.572  10.044  0.1088 -0.2549 -0.0645
36705W        W36905  13.208  11.846   4.913  0.0505  0.3238  0.3114
36706W        W36906  10.520   3.832   5.894 -0.0855 -0.3477  0.0546
36707W        W36907   2.873  16.839   4.189  0.0941 -0.2801  0.1336
36708W        W36908   9.056  12.057  11.244  0.2319 -0.0216 -0.3225
36709W        W36909   3.859   6.773  11.262  0.0717  0.3499  0.1841
36710W        W36910   4.677   4.468  12.882  0.0247  0.1962  0.2045
36711W        W36911  16.285  13.763   5.956 -0.1755 -0.0936 -0.0532
36712W        W36912  12.522  12.629   4.682  0.2124  0.0863  0.1076
36713W        W36913   9.523   7.784   2.092  0.1076 -0.1153 -0.3682
36714W        W36914  11.128  10.383   9.561  0.1883  0.1138  0.3699
36715W        W36915   0.239  14.018   1.701  0.5128 -0.2698 -0.0079
36716W        W36916   5.783  10.510  13.804  0.0363 -0.1545 -0.2436
36717W        W36917   2.018  15.451   9.018  0.0711  0.1064 -0.0344
36718W        W36918  12.063   9.623   4.114 -0.0919  0.0031 -0.0554
36719W        W36919  13.471  13.847   8.766 -0.0433  0.0051  0.1015
36720W        W36920  12.920  17.675   5.968 -0.1252 -0.1091 -0.1540
36721W        W36921  10.898   9.351   7.270  0.1433  0.0173  0.0229
36722W        W36922   7.176  15.841  17.991 -0.1533 -0.0376  0.0432
36723W        W36923   9.360  12.386   9.619 -0.3057  0.0340  0.1227
36724W        W36924  15.105  17.239   4.934 -0.1805  0.2523 -0.0371
36725W        W36925  14.647  11.764  13.819 -0.2670 -0.0832  0.2144
36726W        W36926   8.587  13.965   4.789  0.0770  0.0002 -0.1124
36727W        W36927   3.206  10.647  11.861 -0.4397 -0.0776  0.2062
36728W        W36928   9.513   1.762   7.938 -0.0004 -0.0071  0.1571
36729W        W36929  11.058  11.505  12.019 -0.0665  0.0560 -0.1125
36730W        W36930  12.865  14.074  13.228  0.2961 -0.0189 -0.1653
36731W        W36931   7.119  16.570   2.916 -0.2268 -0.1994 -0.0474
36732W        W36932  10.278   1.256   5.718 -0.0326  0.1332  0.0544
36733W        W36933  12.574   8.641  14.213  0.0031 -0.2244  0.1750
36734W        W36934  10.329   9.602   6.320  0.0605  0.0438  0.4609
36735W        W36935   6.876   8.427   3.048 -0.0284  0.0806  0.0554
36736W        W36936   7.299  16.970   4.348 -0.1691 -0.1559 -0.1167
36737W        W36937   8.858  12.083  18.163 -0.0773  0.0208 -0.2169
36738W        W36938  16.783   8.068   3.149  0.3577  0.1665 -0.0059
36739W        W36939  10.970   5.778   3.232 -0.0421  0.1744 -0.3757
36740W        W36940   2.676   7.523  17.725  0.1087 -0.2986 -0.0457
36741W        W36941  11.843   7.519   8.389 -0.1230  0.2048 -0.0046
36742W        W36942   9.118   9.850   8.095 -0.0703  0.3402  0.1556
36743W        W36943   6.024  17.734   8.553 -0.0110  0.2863 -0.2815
36744W        W36944   3.489  11.758   4.401  0.0511 -0.0056 -0.1797
36745W        W36945   5.301   7.873   5.077  0.3040  0.0066  0.0745
36746W        W36946  12.841  12.887   5.051  0.2354  0.0091 -0.1600
36747W        W36947  14.055  15.753   6.785 -0.1034  0.2735  0.1197
36748W        W36948  10.518  16.128   5.344  0.5178  0.0132 -0.2430
36749W        W36949   1.499   1.213   4.051 -0.0602  0.3138 -0.0697
36750W        W36950  15.532  13.661   2.915  0.1345  0.0764  0.1471
36751W        W36951  10.868   7.604  15.469  0.0319  0.0152 -0.1715
36752W        W36952  10.907  12.003   8.705  0.0036  0.0416 -0.0544
36753W        W36953   7.215  12.830  17.977  0.0817 -0.1735  0.0179
36754W        W36954  14.696   8.910  13.017  0.0984 -0.0341  0.2906
36755W        W36955  11.355   8.161   9.027  0.1040  0.2045 -0.0742
36756W        W36956  17.217  16.701  11.980  0.3391  0.1961  0.0407
36757W        W36957   8.386  10.940   5.958  0.3568 -0.0980  0.0032
36758W        W36958   9.739  12.111   7.306 -0.2859  0.3412 -0.1389
36759W        W36959  12.029   2.514   9.543  0.0122  0.0105  0.0124
36760W        W36960  15.959  13.064  11.269 -0.0557  0.1276  0.0767
36761W        W36961  14.405  14.178   2.017  0.0694  0.1749 -0.1017
36762W        W36962  15.299  13.734   4.999  0.1858 -0.1949 -0.0746
36763W        W36963  12.286   9.834   7.668  0.0055  0.2032  0.0992
36764W        W36964  16.627   6.671  11.885  0.1354  0.2302  0.2615
36765W        W36965  17.695   8.601   4.825  0.1078 -0.3396 -0.2214
36766W        W36966  17.554   8.913  17.955  0.0734 -0.0300  0.3696
36767W        W36967  11.994  14.411   5.335 -0.1359  0.1257  0.0164
36768W        W36968  14.356  12.985  18.097 -0.1447  0.1202 -0.1777
36769W        W36969  11.664   7.907   2.233 -0.2702 -0.3396 -0.1066
36770W        W36970   0.498  18.026   2.592 -0.0952  0.1971  0.0252
36771W        W36971   9.753  13.362  16.922 -0.0156 -0.0629  0.0649
36772W        W36972  17.577   9.948  18.136  0.2083 -0.0358  0.3675
36773W        W36973   5.554  15.815   7.830 -0.1492  0.1358 -0.0496
36774W        W36974  17.799   0.109  12.510  0.1921  0.1866 -0.0322
36775W        W36975  11.554   6.617   3.768 -0.1734 -0.2919 -0.4326
36776W        W36976   9.884  14.675   9.303 -0.2321 -0.0099 -0.1654
36777W        W36977  17.319   1.781  13.489 -0.0068  0.5780 -0.1215
36778W        W36978  11.278  12.746  17.811 -0.2287  0.1113  0.0563
36779W        W36979   5.029   9.962   2.140  0.0585 -0.1362  0.1422
36780W        W36980   8.262  14.443  15.654  0.0519 -0.2153 -0.2102
36781W        W36981   7.039   4.804  11.684 -0.0759 -0.2450  0.4282
36782W        W36982  13.320  15.321  12.688  0.2016 -0.1392  0.0873
36783W        W36983  14.195  12.553   7.643 -0.1335 -0.2150  0.1890
36784W        W36984   8.133  10.836  16.914 -0.5492 -0.0989 -0.0257
36785W        W36985   9.931  17.120   7.463  0.0899  0.2360 -0.0003
36786W        W36986  13.580  14.275   6.162 -0.0126 -0.1426 -0.0604
36787W        W36987   7.773  14.761  15.162  0.2011 -0.1667  0.1686
36788W        W36988   6.359  11.766   1.229  0.0272 -0.0278  0.2965
36789W        W36989   3.188   6.815   4.066 -0.2221 -0.0120  0.1561
36790W        W36990  15.068   2.225  11.176 -0.1495  0.1062  0.0193
36791W        W36991  12.348  10.041   6.281 -0.0505 -0.2207 -0.0410
36792W        W36992   5.862  14.817  10.233 -0.1856 -0.2846 -0.2631
36793W        W36993  10.936  13.125   0.663  0.1557 -0.1516  0.1669
36794W        W36994   6.755  16.927   5.667  0.0428  0.0945 -0.0012
36795W        W36995  14.895  11.251   5.551  0.2721  0.1471  0.1870
36796W        W36996  10.353   2.156   6.675  0.2687 -0.1742 -0.1060
36797W        W36997  10.328  11.148   8.968  0.0451  0.0988 -0.0429
36798W        W36998   4.042  12.777   1.489 -0.3637 -0.0939  0.0522
36799W        W36999  14.321  16.612  15.065  0.0426  0.1247  0.2582
36800W        W37000  12.724   9.786   3.593 -0.0101  0.1447  0.0403
36801W        W37001   7.266   5.983  11.982  0.0163 -0.1618  0.0148
36802W        W37002  14.063   9.205   2.224  0.1506  0.1398 -0.2121
36803W        W37003   2.883   5.709  11.051  0.2912 -0.2105  0.1696
36804W        W37004  15.000  16.491   6.982  0.3561  0.3213 -0.1415
36805W        W37005  14.087  10.285  13.149  0.0669  0.0338 -0.0564
36806W        W37006  13.667   8.869  17.959 -0.0190  0.2493  0.0259
36807W        W37007   7.444  11.124   0.753 -0.2094  0.1669  0.3128
36808W        W37008  12.811   4.752   9.978  0.3275  0.0226  0.0336
36809W        W37009  11.702   8.662   5.277 -0.1021  0.2710 -0.3730
36810W        W37010  15.414  11.345   7.572 -0.0038 -0.0033 -0.0614
36811W        W37011   1.657  13.282  15.301  0.1244 -0.1241 -0.1518
36812W        W37012   1.349  13.374   8.864  0.3319 -0.0160  0.0186
36813W        W37013  18.136  15.655  12.941 -0.1263 -0.2423  0.0316
36814W        W37014  12.318  11.981  12.206  0.1575 -0.1793  0.1356
36815W        W37015   0.825  11.241   2.764 -0.1213  0.0903  0.1767
36816W        W37016   7.485  11.794   8.090  0.1403  0.1342  0.0545
36817W        W37017  12.467   0.716  13.692  0.1621  0.0274  0.0141
36818W        W37018   0.398   0.086  12.010  0.0463  0.0842 -0.1068
36819W        W37019  12.652   8.854  16.939  0.1412  0.1606  0.0630
36820W        W37020  12.285   2.641   3.213 -0.0369 -0.1876  0.0847
36821W        W37021   7.202   0.406   6.249  0.3136  0.1390  0.1538
36822W        W37022   8.882  12.513  11.195  0.2334 -0.1635 -0.0046
36823W        W37023  16.625  11.236   1.493  0.2028  0.0720 -0.0963
36824W        W37024  16.954  10.597   9.914  0.0294  0.2852  0.1484
36825W        W37025   6.286  13.372   9.978  0.0444  0.0175  0.1016
36826W        W37026  11.974   9.354   1.585 -0.0191 -0.1142  0.2203
36827W        W37027  11.271  17.350   6.316  0.1179 -0.0168  0.2375
36828W        W37028   3.187   7.797  13.469  0.0002  0.1682 -0.0871
36829W        W37029  11.897  11.704   9.388  0.0873  0.0219 -0.1417
36830W        W37030   4.347   7.670   9.238 -0.2349  0.2677  0.1313
36831W        W37031   6.872  15.609  11.934  0.2900  0.3288  0.0624
36832W        W37032   8.263  13.293  17.915 -0.1801 -0.0386  0.0215
36833W        W37033   8.423   5.825   8.933  0.0305 -0.0404 -0.0169
36834W        W37034   0.718  12.379  10.832 -0.2266  0.2387  0.1610
36835W        W37035  15.635  15.607   9.257  0.1258 -0.2088  0.3932
36836W        W37036  13.668   6.393  17.060  0.3951  0.1493  0.2142
36837W        W37037   0.792  11.009   0.956 -0.0394  0.1462 -0.1402
36838W        W37038   1.438   7.320  12.366 -0.0751  0.0223  0.1827
36839W        W37039  12.606   3.274  12.761  0.0151  0.3219 -0.2843
36840W        W37040  16.976  13.672   5.520  0.2133 -0.1740  0.1277
36841W        W37041   4.874  12.283  13.479  0.0401 -0.2324  0.2038
36842W        W37042  10.318  17.405   9.560  0.0472 -0.2076 -0.4275
36843W        W37043  17.556   5.297   6.417  0.1393  0.0712 -0.0517
36844W        W37044   5.584  14.244   8.138 -0.0657  0.1648  0.1771
36845W        W37045   7.766   6.807  10.392 -0.0677 -0.1325  0.1462
36846W        W37046  15.490  12.751   8.477  0.0089  0.1807  0.1528
36847W        W37047  13.117  11.551  10.633  0.0191 -0.0834 -0.0951
36848W        W37048  16.011  12.591   9.568 -0.0822 -0.2250 -0.0194
36849W        W37049   0.433  10.555   9.025  0.1855  0.1698  0.3525
36850W        W37050  17.420  15.350   6.656 -0.0856 -0.0141  0.1890
36851W        W37051   1.258   6.302   1.007  0.2921 -0.0273  0.0679
36852W        W37052  12.752   2.495   9.510 -0.0359  0.0170  0.3589
36853W        W37053   4.926   6.683   9.191 -0.1526  0.1085  0.1824
36854W        W37054  13.383  12.439  12.780 -0.0062 -0.2060  0.0648
36855W        W37055   0.972   0.684   4.862 -0.2607 -0.1201  0.2954
36856W        W37056   8.518   1.614   2.574 -0.0253 -0.1448 -0.1047
36857W        W37057  17.968   2.657   9.842 -0.2142  0.4562 -0.0536
36858W        W37058   2.008  15.036  14.892 -0.2479 -0.0866 -0.1960
36859W        W37059  14.840  11.461   3.498  0.0239  0.0469  0.0275
36860W        W37060  10.892  18.185   2.222  0.1905  0.2493  0.1130
36861W        W37061   9.177   6.972   3.361  0.3237  0.0921  0.0619
36862W        W37062  17.656   0.421   2.167  0.0410  0.0071 -0.0951
36863W        W37063   4.212   9.516  17.631 -0.0394  0.1038 -0.3148
36864W        W37064  12.960   8.504   2.153 -0.0098  0.0652  0.0167
36865W        W37065   5.526  13.790   9.303  0.0851  0.0620 -0.0926
36866W        W37066  10.417  14.125   7.236 -0.2829  0.0670  0.1570
36867W        W37067  11.220  16.315   7.307  0.1924  0.0219  0.0949
36868W        W37068  14.013   1.484  10.798 -0.3587  0.0178 -0.1219
36869W        W37069   2.490  15.849  14.234  0.0734 -0.0941 -0.1752
36870W        W37070  16.017   8.282   7.585  0.0483  0.0884 -0.2739
36871W        W37071  16.875  13.792   8.433  0.1797  0.0602 -0.1787
36872W        W37072   8.954  12.431  10.154 -0.0579  0.1339  0.2792
36873W        W37073   7.630   0.849   3.625 -0.0765 -0.0259  0.0119
36874W        W37074   8.641  11.648  13.200  0.0412  0.1378 -0.0044
36875W        W37075  16.417   7.423   7.910 -0.1807  0.0362  0.0924
36876W        W37076  15.686  12.495  10.918  0.1331  0.0139 -0.0666
36877W        W37077  14.191  15.452   5.627  0.0415  0.0749 -0.1223
36878W        W37078  14.880   9.682  10.317 -0.0476 -0.0322  0.2378
36879W        W37079   6.741  13.528   6.775 -0.3563 -0.0179 -0.0799
36880W        W37080  15.056  17.082  13.661 -0.0422  0.1747  0.1782
36881W        W37081   4.419  11.280  17.334 -0.0277  0.2187 -0.1076
36882W        W37082   9.243  12.674   6.600  0.0317 -0.0321 -0.2465
36883W        W37083   0.282   9.741  14.524 -0.3604  0.0373  0.1565
36884W        W37084  14.176   5.413   7.288  0.0147  0.2583  0.0065
36885W        W37085  17.872  10.294  12.941 -0.2781 -0.0032  0.0034
36886W        W37086   8.155   4.171  14.357 -0.2209  0.0899 -0.1516
36887W        W37087  16.071  16.460   9.910  0.0110  0.2658 -0.2620
36888W        W37088  11.247  12.271   7.107  0.0980 -0.2682  0.0016
36889W        W37089   9.810  16.812   2.082  0.0571 -0.0318  0.0424
36890W        W37090   4.650  16.074   9.142 -0.4268  0.0129  0.1112
36891W        W37091  14.510   7.650  12.945 -0.2311 -0.2473 -0.1223
36892W        W37092   9.787  10.893   6.109 -0.1033 -0.3210 -0.2704
36893W        W37093  18.030  16.687   5.139  0.0584  0.0468  0.1536
36894W        W37094  14.504  14.362  13.712 -0.0216 -0.0270 -0.1238
36895W        W37095  18.011   5.310   6.770  0.0236 -0.2862  0.1802
36896W        W37096  12.415  13.127  11.914  0.0307 -0.0804  0.1317
36897W        W37097  16.760  16.141  12.872  0.0461 -0.0099  0.0958
36898W        W37098  12.242  17.139  17.683 -0.0989 -0.1342 -0.0873
36899W        W37099  13.604  15.634   0.689 -0.2096  0.0330 -0.0263
36900W        W37100   1.373  16.763   8.028 -0.0030 -0.1710  0.2890
36901W        W37101   0.318  13.578   2.505 -0.0832 -0.0133  0.1186
36902W        W37102  12.402  14.111  13.382  0.1004  0.1631  0.0449
36903W        W37103   6.985   4.900   3.738 -0.0705 -0.4036 -0.0303
36904W        W37104  10.873   9.215  12.423  0.2219  0.0584 -0.1583
36905W        W37105   4.879   3.014   8.682 -0.0727 -0.0127 -0.0279
36906W        W37106   0.205   0.717   9.891  0.3287 -0.0610 -0.2210
36907W        W37107   6.770  16.554   7.156 -0.4772 -0.1685  0.0598
36908W        W37108  12.279   7.721   8.638  0.1634  0.3382 -0.3154
36909W        W37109  10.417  15.390  12.157  0.3592  0.0293 -0.1073
36910W        W37110   8.523  17.013   3.845  0.1214  0.3053  0.1316
36911W        W37111  12.337   2.404  13.898  0.0710 -0.2788 -0.1205
36912W        W37112   4.042  12.109   0.134 -0.0667  0.3269 -0.4438
36913W        W37113   0.453   7.107  13.211 -0.0746  0.2025 -0.2275
36914W        W37114  12.513  14.623  17.479  0.0421 -0.2623 -0.0051
36915W        W37115   6.998   7.562   6.502  0.1939 -0.1524 -0.3246
36916W        W37116   0.471  10.522   6.041 -0.1766  0.1768  0.0635
36917W        W37117   8.004   7.272   5.173  0.0125  0.2484 -0.1082
36918W        W37118   0.551  16.264   1.940  0.0677  0.1665 -0.0081
36919W        W37119  12.342  12.479  10.636 -0.0164  0.2425  0.0064
36920W        W37120  14.965   7.782  13.801 -0.0355  0.0196 -0.3552
36921W        W37121  12.765   6.053   4.113 -0.3404  0.2676  0.3510
36922W        W37122  10.078   4.886   2.532 -0.0297  0.2140  0.3233
36923W        W37123   7.010  12.179   9.340 -0.0947  0.0003 -0.0939
36924W        W37124  10.199  10.417  11.817 -0.3040  0.1287 -0.2525
36925W        W37125   1.334   0.037  12.285  0.0529  0.0013 -0.1292
36926W        W37126  16.843  17.040  15.469 -0.3076 -0.1134 -0.0118
36927W        W37127   3.103  17.874   9.761  0.4779 -0.2070  0.2841
36928W        W37128   7.454  17.861  15.631 -0.1587 -0.1654 -0.1331
36929W        W37129   0.703  13.446   4.733 -0.2079  0.1197 -0.0934
36930W        W37130   8.143   3.429   7.353 -0.1337  0.1052 -0.1067
36931W        W37131   7.843   8.080  12.596 -0.1502 -0.1206 -0.1889
36932W        W37132   9.558   6.149   4.218  0.2486  0.1825 -0.4038
36933W        W37133   2.442   5.368   9.546 -0.2112  0.0295 -0.0678
36934W        W37134   9.490  12.489  17.572 -0.2131 -0.0431 -0.1328
36935W        W37135  10.615  13.024   2.939  0.1973  0.1184  0.0313
36936W        W37136  17.662   2.373  10.233 -0.0899  0.0367  0.3340
36937W        W37137  16.622   2.865   5.930 -0.1501 -0.2225 -0.1164
36938W        W37138   4.832  12.767   3.901  0.0884  0.4379  0.2885
36939W        W37139   1.382  16.496  10.254  0.0495 -0.0051  0.2253
36940W        W37140  11.534  10.182  17.277 -0.0180  0.0795  0.0692
36941W        W37141  10.435  11.355   5.431  0.0605  0.1275  0.0318
36942W        W37142  12.304   4.850   8.950  0.2124 -0.1782 -0.4453
36943W        W37143   3.079   9.530   5.820 -0.0012  0.3364  0.0525
36944W        W37144   2.118  10.099   9.204 -0.0242 -0.0020 -0.1666
36945W        W37145  12.218   1.765   4.741 -0.0639 -0.0553 -0.2897
36946W        W37146   3.314  14.215   2.651 -0.2169 -0.2877 -0.2510
36947W        W37147  12.243  12.403  13.417  0.1271 -0.2156  0.0648
36948W        W37148  11.698   2.386  10.153 -0.0503  0.3427  0.1084
36949W        W37149   0.434  10.911   9.344  0.1112  0.3286 -0.0314
36950W        W37150   6.580   2.144   3.174  0.0501  0.3743  0.3536
36951W        W37151   1.597  15.850   2.986 -0.1882  0.1916  0.2293
36952W        W37152  14.376  13.316  14.480 -0.1151  0.0180  0.2639
36953W        W37153   9.068   8.547   9.662 -0.1628  0.0504 -0.1052
36954W        W37154   9.893  10.551   4.304  0.1296  0.0661  0.2424
36955W        W37155   8.779   3.867   7.116  0.3355  0.4305 -0.0119
36956W        W37156   0.125   5.594  15.526  0.0623  0.3128 -0.2677
36957W        W37157  13.105  12.963   6.712  0.0841  0.0918  0.0147
36958W        W37158   7.712  13.831  17.093  0.0815  0.0547  0.1941
36959W        W37159   9.263   0.512  16.664 -0.0598 -0.1366  0.3028
36960W        W37160   8.645  14.635   6.007  0.2302 -0.1890 -0.3392
36961W        W37161   9.435   2.240  12.498 -0.0627  0.0182 -0.1141
36962W        W37162  13.651   9.640   9.210 -0.0796 -0.0559 -0.0013
36963W        W37163   9.309   8.860  17.627 -0.2465 -0.0606  0.1017
36964W        W37164   5.838  12.267   9.274 -0.4245  0.2140  0.1852
36965W        W37165   8.075  11.471  12.454  0.3004 -0.0722  0.1370
36966W        W37166  11.266  10.870  13.897  0.2265  0.1110 -0.1964
36967W        W37167  17.731  17.356  12.749  0.0659  0.1143 -0.1457
36968W        W37168  10.986  14.933  14.962 -0.0022 -0.1033  0.0866
36969W        W37169  15.106   3.389   8.449  0.1000 -0.3183 -0.0459
36970W        W37170  13.098  16.607   0.772  0.3298  0.1295  0.0306
36971W        W37171   7.864   7.808  10.223  0.1722  0.1541  0.3579
36972W        W37172  13.476   4.722   8.901 -0.0103 -0.3016  0.0503
36973W        W37173   7.447  13.399   7.958  0.2059  0.0223 -0.3661
36974W        W37174  16.340  17.373  16.217  0.2645  0.2477 -0.0681
36975W        W37175  13.000  17.079   6.155  0.1321 -0.0986 -0.0144
36976W        W37176  10.163  10.953   4.919 -0.1026  0.2004  0.4378
36977W        W37177  17.232  18.189   9.385  0.0495 -0.1993 -0.3813
36978W        W37178   2.501  13.057   8.195 -0.0441  0.0682 -0.0022
36979W        W37179   7.906   7.008  12.762 -0.2425  0.1140 -0.2878
36980W        W37180   7.637  12.183   4.417 -0.0810 -0.1900  0.0228
36981W        W37181  13.364   6.507   5.250 -0.0409 -0.2137 -0.2246
36982W        W37182  13.919  17.018   0.453 -0.1420  0.0634  0.1115
36983W        W37183   9.167   9.328  14.969 -0.1023  0.0030  0.0637
36984W        W37184  12.833   7.230  15.698  0.2803 -0.3025  0.1194
36985W        W37185   2.472  10.474  11.814 -0.1302  0.1276 -0.2458
36986W        W37186   7.834  17.904  11.580  0.2763  0.3089  0.2987
36987W        W37187   6.581  16.089  13.307  0.0586 -0.4170 -0.0931
36988W        W37188   1.047   8.957   5.490 -0.3375 -0.1564  0.1046
36989W        W37189   1.678  15.974  15.518  0.0744 -0.1745 -0.0848
36990W        W37190   8.127   0.764  12.637  0.1759  0.2209 -0.3084
36991W        W37191  15.252   6.996  14.210 -0.1039  0.0679  0.0687
36992W        W37192   9.515   9.412   7.628 -0.0005  0.1676 -0.3318
36993W        W37193   1.198  12.039  13.722  0.3325 -0.0894 -0.0059
36994W        W37194  12.821  16.802   1.142 -0.0608 -0.0007  0.3985
36995W        W37195  10.746  17.229   7.184  0.1891 -0.0921 -0.0095
36996W        W37196   7.423  10.900  15.678 -0.0133 -0.0625 -0.2060
36997W        W37197   6.899   8.846   2.287 -0.0978  0.0218 -0.1671
36998W        W37198  14.703   0.530   9.507 -0.0829  0.0386  0.0109
36999W        W37199  12.256  13.217   3.728  0.0821 -0.1751 -0.0870
37000W        W37200   4.736   1.859  13.859  0.0088  0.1646  0.1328
37001W        W37201   5.351   2.176  11.830 -0.2623  0.0309  0.0624
37002W        W37202   4.670  12.883   6.938  0.2731  0.0013 -0.1133
37003W        W37203  11.330  17.198  11.655  0.1507  0.2156  0.1163
37004W        W37204   9.670  16.895   6.941 -0.0595  0.0814  0.2071
37005W        W37205   6.710  17.901   2.596 -0.0210 -0.1116 -0.1110
37006W        W37206   7.711  15.660   8.410  0.1629  0.0138 -0.0030
37007W        W37207   6.134  17.058   7.670 -0.1864  0.1217  0.0183
37008W        W37208   3.905   8.763  14.008 -0.0772 -0.0060  0.2559
37009W        W37209  16.296  10.449  11.196 -0.1469 -0.1251 -0.2243
37010W        W37210   3.877  16.040   5.634  0.2561 -0.0574 -0.1592
37011W        W37211   3.018  14.426  11.992 -0.1735 -0.3079 -0.2932
37012W        W37212  14.456   6.824   8.871 -0.1467  0.2803 -0.1296
37013W        W37213  14.618  11.352  15.964  0.3012 -0.0710 -0.2653
37014W        W37214   0.402  16.351  11.223  0.3779 -0.1101  0.0639
37015W        W37215   9.911   9.021  12.607  0.0232 -0.2491  0.2079
37016W        W37216   6.344  14.328   0.753  0.2197 -0.0432 -0.1500
37017W        W37217  17.543   6.095   9.508  0.0290 -0.1856 -0.1940
37018W        W37218  13.050  12.292   7.874 -0.1757  0.0633  0.0044
37019W        W37219   5.140  11.293  13.789 -0.1106 -0.2071  0.0980
37020W        W37220   7.505  11.251  13.729  0.0816 -0.2297  0.1178
37021W        W37221   8.842  12.631   9.687 -0.0024  0.1739 -0.0589
37022W        W37222  12.292  16.648  16.093  0.0060  0.1305  0.1624
37023W        W37223  16.196  10.903  10.252 -0.1679 -0.0144  0.0838
37024W        W37224  14.807  16.979  11.472 -0.1183  0.1659 -0.0485
37025W        W37225  11.344  14.607   7.666  0.0443 -0.0455  0.1218
37026W        W37226  16.400  10.496  14.479  0.0524  0.2343 -0.2710
37027W        W37227  11.456  11.949   9.377 -0.3432  0.2261  0.1130
37028W        W37228  15.005   8.812  10.687 -0.0755  0.0523 -0.0156
37029W        W37229   7.463   9.391   1.657  0.1209 -0.0674  0.1158
37030W        W37230  15.558  17.302  13.562  0.1876 -0.0117 -0.0714
37031W        W37231  12.360  12.657  11.649 -0.1343 -0.2186 -0.0584
37032W        W37232  11.411  11.298   3.861  0.0085 -0.1639 -0.0227
37033W        W37233  12.131   5.360  14.460 -0.2018  0.0871 -0.1167
37034W        W37234  17.035   5.476  17.714 -0.0712 -0.0211  0.3048
37035W        W37235   4.814  14.092   2.987 -0.0891  0.1936 -0.3220
37036W        W37236  14.828  12.029  17.460  0.0022 -0.4388  0.1517
37037W        W37237  15.054  16.293  13.625 -0.0401  0.2386 -0.0316
37038W        W37238   8.133  15.230   6.480  0.0511 -0.1363  0.1925
37039W        W37239   9.849   8.809   7.727  0.2341 -0.0268  0.1708
37040W        W37240   6.177   8.915   4.076  0.4119  0.0537 -0.1163
37041W        W37241   6.299  13.414   7.019 -0.0307  0.0039  0.1379
37042W        W37242   8.902   2.022   3.876  0.0861 -0.0768  0.0847
37043W        W37243  15.060   5.938  13.492 -0.0130 -0.3693 -0.1458
37044W        W37244  14.126  13.975   9.765  0.1322  0.2372  0.0028
37045W        W37245  13.089  16.762   9.955  0.1894  0.1120 -0.0816
37046W        W37246  10.211  10.881   8.505  0.0853  0.0203 -0.0723
37047W        W37247   0.321   4.243  10.812  0.1378 -0.1856  0.2903
37048W        W37248  14.710   0.784   4.690  0.2386 -0.2710 -0.3878
37049W        W37249  11.454  15.902  12.500 -0.0928 -0.0514  0.2309
37050W        W37250  13.118   8.037   6.923  0.0084 -0.1537  0.1459
37051W        W37251  13.473  12.751   5.764  0.0061  0.1160 -0.2505
37052W        W37252  16.752  15.970   2.910 -0.1207 -0.1057  0.0103
37053W        W37253   0.535  11.458   3.104 -0.0246  0.2036 -0.1500
37054W        W37254  12.123  10.623   2.242  0.0793  0.1799 -0.1105
37055W        W37255  17.416  14.917   7.695  0.0004 -0.3167 -0.1085
37056W        W37256  12.825  13.141   9.841 -0.1906 -0.0080  0.3741
37057W        W37257   6.888  15.175   9.208  0.1171  0.2245  0.2588
37058W        W37258   8.228  11.080  13.924 -0.0217  0.0862 -0.0611
37059W        W37259  17.337  18.087  13.836 -0.0814 -0.1865  0.0394
37060W        W37260  11.121   6.593   3.464 -0.0629 -0.0300  0.0385
37061W        W37261  16.516  17.648  13.428 -0.1232 -0.1975 -0.0130
37062W        W37262   7.667  16.621   6.969  0.0359  0.0942 -0.1888
37063W        W37263  16.057   1.269   8.565  0.2913  0.2117 -0.0932
37064W        W37264  15.963  16.435   9.025  0.2165 -0.4251 -0.0837
37065W        W37265  14.162   8.694   1.840 -0.1936 -0.1212  0.0306
37066W        W37266   1.488  13.326  13.014  0.0513 -0.0256  0.1356
37067W        W37267  11.992   9.401  13.934  0.0180  0.0312  0.2946
37068W        W37268  11.976  14.410  11.859 -0.0086 -0.2120 -0.0069
37069W        W37269  12.946  14.223  12.698 -0.0703  0.0719  0.3326
37070W        W37270  11.921   9.167   4.357  0.1326 -0.1210  0.0084
37071W        W37271  17.127   1.129   3.096  0.1374  0.2699 -0.0536
37072W        W37272  12.986   1.493  10.920 -0.0698  0.3392  0.0199
37073W        W37273  15.677  12.492   5.184  0.2146  0.0659  0.1042
37074W        W37274  10.851  10.357  10.193 -0.2542 -0.3970 -0.1021
37075W        W37275  11.312   5.325  12.008 -0.1828  0.1934  0.1274
37076W        W37276   6.605  14.435  12.193  0.1047 -0.1083 -0.1459
37077W        W37277  11.928  11.101   6.883 -0.3528 -0.0378 -0.0162
37078W        W37278  10.605  12.976   5.994  0.1861 -0.0313  0.0942
37079W        W37279   8.105  15.705   5.562  0.1864  0.1581 -0.3312
37080W        W37280  16.101   0.386  10.526  0.3604  0.2802 -0.1909
37081W        W37281   6.527  13.260   8.669  0.0124 -0.3066 -0.2705
37082W        W37282   5.371  18.119  10.682 -0.0093 -0.0842 -0.1231
37083W        W37283  10.838  16.799   7.484 -0.1410  0.0813 -0.2480
37084W        W37284  16.482  11.057   1.023  0.0407 -0.0933  0.0176
37085W        W37285   8.642  13.106   7.944  0.2515 -0.1857  0.3861
37086W        W37286   8.462  15.849   8.736  0.0311 -0.0772  0.1306
37087W        W37287   9.803   3.499   9.954 -0.0354 -0.1772  0.0573
37088W        W37288  15.595   5.040   0.374  0.2278  0.1730 -0.0774
37089W        W37289  17.272  12.157   2.032 -0.1064 -0.0797  0.0478
37090W        W37290  10.940  12.968   6.383  0.2033  0.1379  0.0315
37091W        W37291  17.410   4.722   6.945  0.2154  0.1460  0.1545
37092W        W37292  12.042  14.685  10.236  0.0258  0.0783 -0.1027
37093W        W37293   9.919   4.010  10.224 -0.0653  0.2728 -0.0258
37094W        W37294   1.086  15.876   6.378 -0.0036 -0.0027 -0.0722
37095W        W37295  18.015   3.445   9.726  0.3999  0.1389  0.0043
37096W        W37296   8.062   4.664   0.798 -0.0973  0.0039 -0.1730
37097W        W37297  10.623   0.343  17.096 -0.0756 -0.2836  0.0526
37098W        W37298   1.589  10.293   3.305  0.0916 -0.0983 -0.0022
37099W        W37299  10.202   0.970  11.654  0.0040  0.0538 -0.0241
37100W        W37300  13.169  11.020  16.011 -0.1692  0.0271  0.0672
37101W        W37301  13.113  16.687   2.509 -0.0917 -0.2435  0.2363
37102W        W37302  16.607   9.816  17.666  0.0095 -0.0471  0.0894
37103W        W37303  17.426  15.955   8.748 -0.4315 -0.3824  0.1280
37104W        W37304   7.818  16.501   4.988 -0.2170 -0.0605  0.1747
37105W        W37305  12.605  10.478   8.801  0.0939  0.0234 -0.2962
37106W        W37306   8.094   0.444   0.715 -0.1142 -0.2365 -0.1214
37107W        W37307  14.088   8.942  11.267  0.1737 -0.0141 -0.0118
37108W        W37308  10.198   9.953   7.569 -0.0072 -0.0054 -0.0373
37109W        W37309  11.691   4.208   7.683 -0.1976 -0.0076  0.2202
37110W        W37310  13.529   6.029  10.320  0.0781  0.2718  0.1262
37111W        W37311   8.013  13.259   5.229  0.0148 -0.0437 -0.2149
37112W        W37312  17.493  17.130   0.581 -0.0799  0.0020 -0.1455
37113W        W37313  15.122  16.029   3.997 -0.3159  0.1595  0.1034
37114W        W37314  11.286   9.654   6.130  0.0120  0.0207 -0.0414
37115W        W37315  16.540   8.234  11.579 -0.0910  0.3455 -0.0999
37116W        W37316   2.121   9.335   1.890  0.1586 -0.1166  0.4890
37117W        W37317   6.942   7.606   7.539  0.3253  0.4616 -0.0874
37118W        W37318  11.597  16.137   9.721  0.1147 -0.1699  0.0879
37119W        W37319   4.017  14.078   3.885 -0.1515 -0.1082 -0.2276
37120W        W37320  13.696   2.540   4.503  0.5239 -0.1893  0.0394
37121W        W37321   8.854   9.602   4.012 -0.0762 -0.1435 -0.2181
37122W        W37322  13.311  16.718   1.265  0.2584 -0.4257 -0.1324
37123W        W37323   7.023  10.156  13.093 -0.5278  0.3428 -0.0697
37124W        W37324  10.925  13.021   1.939 -0.0024  0.1310  0.0345
37125W        W37325   0.398  11.921   1.513 -0.1487  0.1369 -0.1606
37126W        W37326   4.349  15.936   5.942  0.1346 -0.1191  0.0956
37127W        W37327  13.251  10.524   6.509  0.2064 -0.4842  0.1667
37128W        W37328   8.903   1.429   2.242  0.1978 -0.2106  0.2200
37129W        W37329   0.513   9.451   8.968 -0.2297 -0.0505 -0.1167
37130W        W37330  16.456   3.810  12.566  0.0928  0.0432  0.0637
37131W        W37331   9.763  17.809   7.560 -0.2199  0.1701 -0.2181
37132W        W37332  12.589  13.448   0.426  0.0083  0.1580 -0.0282
37133W        W37333   3.719   1.288   9.645 -0.2428  0.0736  0.1206
37134W        W37334   9.094   1.393  14.593 -0.1127  0.1749 -0.0781
37135W        W37335  10.901  16.766  13.697  0.3045 -0.1358 -0.0854
37136W        W37336  10.617   6.541  10.658 -0.0082 -0.0818  0.1318
37137W        W37337  10.629   1.071   7.679  0.2772  0.0270 -0.2028
37138W        W37338   1.382   8.666  15.498 -0.1753 -0.2875 -0.1955
37139W        W37339   7.632   4.915  13.561  0.1179  0.0939 -0.2256
37140W        W37340   1.086  16.568  14.047  0.2090 -0.0839 -0.0349
37141W        W37341  13.930  14.511  15.796  0.0274  0.0805  0.0494
37142W        W37342   9.288  15.667  11.709  0.1570  0.0065 -0.0316
37143W        W37343  16.692  12.667  14.223 -0.0098 -0.2800  0.2842
37144W        W37344   8.487  10.375  13.658  0.0484  0.0453  0.1718
37145W        W37345   7.199   9.958  17.359 -0.1686 -0.1464  0.5259
37146W        W37346   8.906   7.182  17.087  0.0106 -0.0030 -0.2305
37147W        W37347  10.465   8.442  16.461  0.1178  0.0616 -0.1253
37148W        W37348  11.779  11.004   9.592 -0.0463  0.1505 -0.1277
37149W        W37349  15.807  13.953   3.602  0.1504  0.0418 -0.0970
37150W        W37350  14.365  11.740  13.359  0.1091 -0.0095 -0.1442
37151W        W37351   7.799  17.062   9.043  0.0921 -0.0227  0.0663
37152W        W37352  10.299  11.495  12.453 -0.1602 -0.3473 -0.1059
37153W        W37353  15.250  17.616   4.588 -0.2395  0.0060 -0.2096
37154W        W37354   9.005  10.628  11.020  0.1465 -0.0645  0.2177
37155W        W37355   7.380  12.869   7.855  0.1391  0.1001 -0.0322
37156W        W37356   0.043  11.524   6.576 -0.0528  0.1626  0.1324
37157W        W37357   4.636  10.794   9.740  0.3096 -0.0175 -0.0050
37158W        W37358   4.603   4.722   8.346 -0.0440 -0.1211  0.2733
37159W        W37359  11.655   9.886  14.462  0.0173 -0.0067 -0.0230
37160W        W37360   4.631  10.846  11.044 -0.3283 -0.3554  0.1167
37161W        W37361  11.754  11.431   4.197 -0.0073  0.0521  0.1100
37162W        W37362  14.959  11.199  13.055 -0.1074 -0.0608 -0.1930
37163W        W37363  12.006  14.526  17.428 -0.2404 -0.0296  0.4650
37164W        W37364  16.234  13.792  10.968  0.0261  0.1125  0.0383
37165W        W37365   5.044   5.130  12.532 -0.1514  0.1348 -0.1392
37166W        W37366   5.928   9.404  11.697 -0.1230 -0.1040 -0.0566
37167W        W37367  12.612  16.617   2.096 -0.0521  0.1098 -0.0659
37168W        W37368  18.077   3.476  10.882 -0.0773 -0.1299 -0.4865
37169W        W37369   1.524  13.634   7.785  0.2215 -0.3081  0.4201
37170W        W37370  16.431  11.895   8.312 -0.1693  0.0447  0.3581
37171W        W37371  17.446   2.298   2.669 -0.0403  0.2471 -0.1044
37172W        W37372   8.847   0.709  14.190  0.0084 -0.0280  0.1076
37173W        W37373  14.562  15.667  13.511  0.1176 -0.0000  0.1087
37174W        W37374  16.298  12.603  15.257  0.0595 -0.1529 -0.1870
37175W        W37375   5.906  17.533  13.332 -0.0650 -0.3584 -0.3547
37176W        W37376  15.771  16.899  10.714  0.2930  0.1272  0.0332
37177W        W37377   2.702  15.466  14.057  0.1351 -0.0137  0.0030
37178W        W37378   9.185   0.321   8.703 -0.1032 -0.0011 -0.0298
37179W        W37379  13.802  12.028  14.717 -0.2957  0.4753 -0.0282
37180W        W37380   3.843  16.877   5.911 -0.3994 -0.0920  0.0496
37181W        W37381  16.091  16.974  17.606  0.1012 -0.4898 -0.1088
37182W        W37382   5.026  11.565   9.969 -0.2003  0.0292 -0.0714
37183W        W37383   0.051  18.041   5.343 -0.0975 -0.0319 -0.0952
37184W        W37384  14.243  14.086   5.213 -0.0873 -0.1918  0.0781
37185W        W37385  14.044  11.796  17.345 -0.1221 -0.0860 -0.0781
37186W        W37386  17.840  11.803  12.184  0.1582 -0.5543 -0.1195
37187W        W37387   6.570  11.883   0.010  0.0616  0.1921  0.1154
37188W        W37388   2.160  11.372   6.287  0.2139 -0.2118  0.1284
37189W        W37389  14.544  14.118  10.206  0.2309 -0.0522  0.1578
37190W        W37390  13.110  12.566  17.831  0.1678  0.0924  0.0490
37191W        W37391   8.405  12.666   6.292 -0.0811  0.0902  0.0496
37192W        W37392   0.419  14.851   8.718  0.2587 -0.1385 -0.1143
37193W        W37393  14.525  10.196   9.154 -0.0710 -0.1892 -0.0820
37194W        W37394  11.600   9.284   2.887 -0.2470 -0.3436 -0.2542
37195W        W37395   6.672  12.234   7.938 -0.2538  0.1513  0.4575
37196W        W37396   5.702  16.485   7.005 -0.1293 -0.1918 -0.1009
37197W        W37397  15.295   8.383   1.313  0.3942  0.2097  0.0892
37198W        W37398   9.307  11.326   9.961  0.0285 -0.2337  0.1046
37199W        W37399  12.449  17.493  14.327  0.1925  0.1024  0.1486
37200W        W37400   9.689   9.992  16.591 -0.1434 -0.2057 -0.3004
37201W        W37401   5.084  11.110   2.357 -0.1086 -0.0833 -0.0468
37202W        W37402  10.391  13.981   4.069  0.1629  0.1541 -0.0136
37203W        W37403   8.199  12.086  13.794  0.0119  0.0995 -0.3513
37204W        W37404  12.726  12.277   4.357 -0.0158  0.4346 -0.1658
37205W        W37405  11.023  14.384   1.174  0.3127 -0.0943  0.0340
37206W        W37406   1.175   3.938  12.535 -0.0956 -0.0411  0.1238
37207W        W37407  17.437  14.717   9.093 -0.0346 -0.0258 -0.0784
37208W        W37408  12.332   8.343  16.099 -0.4160 -0.1067 -0.0013
37209W        W37409   3.221   9.346  14.102  0.2175 -0.2278  0.1583
37210W        W37410  11.041   6.820  11.381  0.1595  0.1307  0.2011
37211W        W37411   8.216   5.121  18.104 -0.0506 -0.1083  0.1149
37212W        W37412  16.863  11.419  17.781 -0.2596  0.0894 -0.0018
37213W        W37413  12.347  13.799  10.723  0.0961 -0.1889  0.3999
37214W        W37414  13.154   9.755   6.169 -0.1318 -0.1490 -0.1237
37215W        W37415  10.596   8.238  13.681  0.0955 -0.1473  0.1374
37216W        W37416  15.505  13.805  15.256  0.4554 -0.0492 -0.2803
37217W        W37417  13.919   6.788  14.155 -0.2371  0.2336 -0.0023
37218W        W37418   5.307  13.539  12.054  0.2160  0.4609  0.0124
37219W        W37419  12.585  10.863  16.354  0.0817 -0.2108  0.0309
37220W        W37420  10.625  14.491  12.788  0.0924  0.0933 -0.1937
37221W        W37421  15.764  16.288   5.371 -0.0578 -0.1531  0.1195
37222W        W37422  13.401  10.539  11.139  0.0631 -0.1656  0.0793
37223W        W37423  13.309  12.939   4.902  0.0124  0.1129  0.1521
37224W        W37424  11.718  15.295  15.673  0.0359 -0.1977 -0.0092
37225W        W37425  12.961  11.332  11.071 -0.0764  0.0018  0.1545
37226W        W37426   5.631   9.089   4.771 -0.1021  0.1173  0.0180
37227W        W37427  14.425  11.654  11.941  0.2672 -0.1758 -0.1980
37228W        W37428   2.970  12.172  13.587  0.0408  0.1185  0.0746
37229W        W37429  12.692  15.952   3.053  0.0493 -0.0369 -0.2689
37230W        W37430   7.289  14.461  15.439 -0.3687 -0.1968  0.1635
37231W        W37431   8.904   5.191  14.132 -0.3385  0.2939  0.1477
37232W        W37432   3.567   8.862   2.104 -0.0115 -0.1727  0.0752
37233W        W37433  12.058   9.666   9.781 -0.0712  0.2592 -0.2059
37234W        W37434   8.374   8.727  13.196 -0.0464  0.2177 -0.1908
37235W        W37435  16.762  12.389   8.262  0.2084 -0.1036 -0.1948
37236W        W37436   6.094   5.724  11.907 -0.2176 -0.0616  0.0325
37237W        W37437   9.815   9.705   8.361 -0.0993 -0.0042  0.1343
37238W        W37438  18.019  16.491   3.347 -0.0069  0.0151 -0.2475
37239W        W37439   1.545  15.878   8.405 -0.1822  0.0530 -0.5276
37240W        W37440   4.028   8.228   4.795 -0.2296  0.0812  0.4958
37241W        W37441  10.886  10.986   5.266  0.1435 -0.1037 -0.0134
37242W        W37442  15.819   4.897  10.171  0.0664  0.1087  0.2065
37243W        W37443  17.968  11.054  15.251  0.1230  0.1033 -0.1199
37244W        W37444   5.412  15.075  12.648 -0.1794  0.1936  0.0466
37245W        W37445   5.630  11.805   8.062 -0.0907  0.1318 -0.0516
37246W        W37446   8.144  10.821   9.577 -0.2536 -0.2187 -0.0090
37247W        W37447   1.788   8.443  16.794  0.0898 -0.1578 -0.0407
37248W        W37448  13.349   8.805   1.360 -0.1379 -0.3914 -0.0022
37249W        W37449  14.996   7.963  11.733 -0.3382  0.0782  0.1327
37250W        W37450   3.896   8.913   8.921 -0.3745  0.1031 -0.0671
37251W        W37451  12.698  17.986  10.427 -0.0882 -0.0810 -0.0065
37252W        W37452   7.974  14.786  17.995  0.2276 -0.0352 -0.0773
37253W        W37453  10.766   0.326  13.340  0.3624 -0.1460 -0.3642
37254W        W37454   2.943   5.902  12.543  0.4932  0.1227  0.1277
37255W        W37455  11.405   8.505   1.275  0.3046 -0.1119  0.2316
37256W        W37456  16.558   1.173  10.733  0.1672 -0.2053  0.1437
37257W        W37457   4.494  10.283  13.255  0.0321  0.0172  0.1994
37258W        W37458  12.313  14.677   7.888 -0.2305  0.3642 -0.0633
37259W        W37459   8.247  16.128   1.436  0.2591  0.0906  0.0264
37260W        W37460  10.911   3.123  12.698  0.2574 -0.0902  0.0439
37261W        W37461   9.700   8.534  12.661 -0.2360 -0.1873 -0.0980
37262W        W37462  16.487   0.065  13.540 -0.1778  0.0362  0.0265
37263W        W37463  15.058  11.952   6.652 -0.0900  0.4485  0.0538
37264W        W37464   9.348   8.734   8.662 -0.1920  0.3811  0.0685
37265W        W37465  12.270   9.435   2.894  0.0294 -0.3154  0.1832
37266W        W37466   9.139  17.200   7.873  0.3025  0.0104 -0.0677
37267W        W37467  18.149  12.830  11.012  0.0499 -0.0010  0.0964
37268W        W37468   8.712  11.281   6.089  0.0458 -0.1616  0.0788
37269W        W37469  12.373   1.854  16.340  0.0081 -0.2214 -0.0669
37270W        W37470  17.752   8.395   1.386 -0.0932  0.0191 -0.2261
37271W        W37471  13.969   5.738   6.900  0.1766  0.0710  0.0632
37272W        W37472   0.763   8.328  17.928  0.1228  0.0767 -0.2004
37273W        W37473  10.199   0.498   0.317  0.1711  0.0843 -0.1082
37274W        W37474   9.871   1.161   6.337  0.1263  0.0490 -0.0855
37275W        W37475  10.546   9.017  11.588  0.1699 -0.1133 -0.2994
37276W        W37476   8.156  12.992  10.761 -0.3068  0.0974  0.0050
37277W        W37477  11.430  15.204   9.647 -0.2629 -0.0241 -0.2524
37278W        W37478   9.364   4.835  16.415 -0.1066  0.1094  0.1965
37279W        W37479   5.071   3.022  14.059 -0.1630  0.1612  0.2381
37280W        W37480  12.132  15.108  14.425 -0.0674  0.3383  0.0171
37281W        W37481  11.458   8.772   6.207 -0.0679 -0.0549 -0.1427
37282W        W37482  12.429  11.784   9.445 -0.2556 -0.1399  0.1762
37283W        W37483  13.271   1.426  11.846  0.0816 -0.1752  0.1337
37284W        W37484   8.305  12.513   8.292 -0.0546  0.0021  0.0266
37285W        W37485  14.004  15.598   9.180  0.0075  0.0855  0.0625
37286W        W37486  13.587   9.454  18.009  0.0742  0.1903  0.2649
37287W        W37487  12.879   4.654   0.732  0.2219 -0.1349  0.1657
37288W        W37488  13.556  16.534   3.517  0.0076 -0.1798 -0.0561
37289W        W37489   8.832  13.899  13.273  0.3049 -0.2563 -0.1127
37290W        W37490  10.397  12.908  12.016 -0.1838 -0.1847  0.0483
37291W        W37491   6.200  10.803  14.043  0.0788 -0.1441  0.0005
37292W        W37492  10.942  10.836   9.927  0.0602 -0.1999  0.0988
37293W        W37493  10.791   0.729   8.049  0.0937 -0.2634 -0.0344
37294W        W37494  11.474  14.308  12.048  0.0058 -0.0967 -0.3025
37295W        W37495  12.190  16.472   7.827 -0.0173 -0.0466  0.1243
37296W        W37496  10.879   2.334  16.010  0.0502  0.1814  0.3145
37297W        W37497  14.483   8.789   1.412 -0.4136 -0.2055  0.1055
37298W        W37498   8.011  13.041  14.627 -0.1075  0.2683 -0.1277
37299W        W37499  15.451   6.415  15.353 -0.2586  0.3408 -0.0211
37300W        W37500   4.588  11.481  17.844  0.2361  0.0694  0.1581
37301W        W37501  13.432   7.551  16.689  0.1569  0.0138 -0.1198
37302W        W37502  14.230  17.058  11.577 -0.3153  0.1479  0.0132
37303W        W37503  16.180   9.728   7.437  0.1577 -0.2606 -0.1481
37304W        W37504  17.346   2.272  18.034 -0.1743  0.4129  0.2791
37305W        W37505   9.942   3.442  12.798  0.3051 -0.1114 -0.0597
37306W        W37506   2.697  11.805  12.359 -0.1213 -0.1282  0.0455
37307W        W37507   6.594   1.076  15.103 -0.0549  0.5315  0.0156
37308W        W37508  13.733  12.503  15.583  0.2291  0.4843  0.1696
37309W        W37509   3.754   9.195   4.583 -0.1316 -0.0165 -0.0512
37310W        W37510  15.584  14.999  17.215 -0.0043 -0.2295 -0.1127
37311W        W37511  14.098   8.488  10.249  0.1310 -0.1496 -0.1239
37312W        W37512   6.879   3.834   7.065 -0.2858  0.0503 -0.0353
37313W        W37513  11.905  12.215  11.934  0.0529 -0.1550 -0.2198
37314W        W37514  14.050  13.337  12.796 -0.2156  0.2554  0.0680
37315W        W37515  13.736  12.392  11.226  0.0718 -0.3198  0.0071
37316W        W37516  12.906  17.820  13.977  0.3223  0.1711 -0.3554
37317W        W37517   0.103  14.647   0.816  0.1553  0.0526 -0.1608
37318W        W37518   9.930   1.628   8.140  0.1347  0.1553  0.2966
37319W        W37519  13.812   7.729   9.924  0.1594  0.3097  0.0616
37320W        W37520   2.278  14.343   9.024 -0.2621 -0.1083 -0.0767
37321W        W37521  11.610  11.492  11.664  0.0600  0.3205  0.3347
37322W        W37522  17.339  11.292  11.682  0.2657  0.0661 -0.0232
37323W        W37523   8.737  11.708  17.909  0.1293  0.2004  0.2535
37324W        W37524   3.008   6.959   3.152 -0.0984 -0.0040 -0.2565
37325W        W37525   8.689   2.827  15.778 -0.0302 -0.0186 -0.0907
37326W        W37526  13.302  12.387   0.694 -0.3236  0.1520 -0.0931
37327W        W37527  10.336  14.894   0.952 -0.0614 -0.1588 -0.1273
37328W        W37528  11.798  14.600  14.983  0.0243  0.0733  0.0105
37329W        W37529  10.764   3.856  17.617 -0.0447  0.0835 -0.0817
37330W        W37530  17.564  13.503  11.802 -0.1699 -0.1399 -0.1464
37331W        W37531   6.197   1.699   1.759  0.1426 -0.2559 -0.0677
37332W        W37532   7.514  16.894   1.953 -0.5380  0.1277 -0.2986
37333W        W37533   9.602  11.678   7.453  0.2301 -0.0584 -0.0613
37334W        W37534  15.826  14.295   1.276 -0.1359  0.0946  0.1893
37335W        W37535  10.879   9.270  15.085  0.0590 -0.0347  0.0931
37336W        W37536  10.689  15.436  15.853  0.4848 -0.0837 -0.2507
37337W        W37537   4.709  15.196  12.585 -0.2514 -0.3015 -0.2734
37338W        W37538  10.566   0.638   4.532  0.2027  0.4678  0.2400
37339W        W37539  14.224   0.522  12.420 -0.0420  0.0562  0.2148
37340W        W37540   3.363   2.803   6.640 -0.1168  0.1622 -0.0008
37341W        W37541  13.989  14.424  13.061 -0.0660  0.1694 -0.1260
37342W        W37542   4.742  13.024  15.163 -0.0594 -0.5644  0.0377
37343W        W37543  15.913  11.079  14.811 -0.1350  0.1039 -0.0986
37344W        W37544  12.568   4.892  13.658  0.0379 -0.0561 -0.3294
37345W        W37545   8.958  16.034  14.449 -0.4353 -0.2414 -0.0762
37346W        W37546  14.813   9.674   1.254  0.3957  0.0616  0.2855
37347W        W37547  15.054   7.241   4.229 -0.0710 -0.0205  0.1414
37348W        W37548   9.586  14.322   9.160 -0.1306 -0.0849  0.1307
37349W        W37549   7.650  17.648  17.014 -0.1913  0.1744 -0.2190
37350W        W37550   6.593   4.522  17.219 -0.0055  0.0856  0.0161
37351W        W37551   3.635   9.218  17.085 -0.2210 -0.1237 -0.2333
37352W        W37552  12.454   4.696   3.157  0.0606 -0.1472  0.3179
37353W        W37553  13.030  11.324  18.125 -0.3725 -0.1879  0.1881
37354W        W37554  12.184  10.890  14.375  0.1580 -0.0326  0.0173
37355W        W37555   5.250  11.405  13.230  0.0536 -0.1766  0.1201
37356W        W37556  17.235   8.910  13.098 -0.1208  0.2659 -0.1155
37357W        W37557   9.433  10.718   7.001  0.1637 -0.1101  0.1390
37358W        W37558  14.114  17.131  10.053  0.0656 -0.0141 -0.3919
37359W        W37559  14.544  12.250   0.476  0.1854  0.0044  0.0469
37360W        W37560  17.713   4.493  12.756 -0.2394  0.2929  0.0523
37361W        W37561   0.776  11.826   7.049  0.0548  0.3319 -0.5220
37362W        W37562   1.265  12.092  11.326 -0.0985  0.0525  0.1268
37363W        W37563   9.553   8.518   6.159  0.1998 -0.0111 -0.2540
37364W        W37564  13.095  15.742  16.548 -0.2492  0.3308  0.1191
37365W        W37565  16.635   9.781  12.716  0.0066 -0.1695 -0.0399
37366W        W37566  17.791  17.705   4.355  0.3478  0.0013  0.2682
37367W        W37567   9.095   9.024  13.119 -0.0618  0.0374  0.1209
37368W        W37568   8.159  13.897  10.290 -0.3719  0.0624 -0.0666
37369W        W37569  14.288   6.791  12.975  0.0104 -0.1826 -0.1894
37370W        W37570  17.765  11.555  11.725 -0.1362 -0.0923  0.0019
37371W        W37571   0.897   6.584   1.928  0.1540  0.1157 -0.0407
37372W        W37572  17.649  13.388   4.978  0.1178  0.1782 -0.0091
37373W        W37573   7.368   0.151   7.631  0.0470 -0.0544 -0.0237
37374W        W37574  12.593  11.496   0.071  0.1766  0.1240 -0.1560
37375W        W37575   8.297   0.722  14.181 -0.1832  0.4222  0.2994
37376W        W37576  12.047   4.016   8.374 -0.1462  0.3386 -0.0610
37377W        W37577  10.563  13.435   6.998  0.3071  0.0217 -0.2780
37378W        W37578   7.923  13.213  16.994  0.0486 -0.2027 -0.1548
37379W        W37579  11.321   7.144  11.074 -0.0968 -0.0763 -0.4366
37380W        W37580  14.445   9.665  13.271 -0.2588  0.1171 -0.5354
37381W        W37581  14.241  13.888  17.331  0.1705  0.0684  0.3815
37382W        W37582  12.888   4.045  12.339 -0.2358  0.3364  0.3360
37383W        W37583  13.973  11.503  11.095 -0.3271  0.0834 -0.0717
37384W        W37584  13.740   9.005   6.689  0.4686 -0.0868  0.2134
37385W        W37585   0.894   5.398   9.742 -0.0118  0.2788  0.1540
37386W        W37586  11.509   4.560  14.597  0.2149 -0.0919  0.2267
37387W        W37587  11.497   9.936   8.516 -0.1421 -0.0644 -0.1168
37388W        W37588   9.236   9.720   9.399  0.2968 -0.0102 -0.1026
37389W        W37589   5.747  14.259  17.742 -0.2206  0.1460  0.4012
37390W        W37590   8.251   8.091   5.508  0.1046 -0.1809  0.0061
37391W        W37591   1.096  10.948  16.497 -0.1952  0.0537 -0.1663
37392W        W37592  17.199   1.028   7.097  0.0919  0.1089  0.3248
37393W        W37593  15.287   8.444  12.495 -0.2223  0.1657  0.0372
37394W        W37594   2.049   8.398  14.807 -0.0155  0.2510 -0.1111
37395W        W37595  14.164  12.742   2.208 -0.1821  0.1865 -0.0648
37396W        W37596   2.482  13.450  10.377 -0.2603  0.3447 -0.2741
37397W        W37597  12.234  14.255   6.168 -0.0312  0.0485  0.1375
37398W        W37598   4.261  14.017   2.158 -0.0273 -0.0082 -0.2117
37399W        W37599  12.033  13.937   9.075  0.1451 -0.1039 -0.0393
37400W        W37600  12.435  17.366  12.994 -0.1543 -0.3640  0.0251
37401W        W37601   8.842   8.396  12.668  0.0089  0.1845 -0.2562
37402W        W37602  12.629   9.753   0.646  0.3432  0.1667 -0.1152
37403W        W37603   7.812   6.462  15.596  0.1983 -0.1666  0.2042
37404W        W37604  17.681  12.192  15.008  0.2518  0.1417 -0.2568
37405W        W37605   0.328  11.208  12.478 -0.0523  0.0680 -0.1674
37406W        W37606  15.186  11.082  14.006  0.0840  0.2571 -0.0088
37407W        W37607  17.888  15.533  12.499  0.0156 -0.2191 -0.2795
37408W        W37608   1.584  13.899  15.172 -0.2789  0.4278  0.1176
37409W        W37609  13.222   5.659  10.545 -0.1576 -0.2107  0.1495
37410W        W37610  13.998  10.978   1.721  0.1812  0.2248  0.1699
37411W        W37611  16.026   6.802   2.307 -0.2477  0.1719  0.2215
37412W        W37612  18.088   8.783  15.277 -0.0664  0.1976 -0.0140
37413W        W37613  14.813  11.892   7.999 -0.0401 -0.1725 -0.1397
37414W        W37614  11.508  10.703  10.746 -0.1315 -0.1501 -0.2268
37415W        W37615  15.684   8.495   8.342  0.0122  0.0802  0.3008
37416W        W37616  10.447  10.816  11.693  0.2628  0.1182  0.0064
37417W        W37617  11.862  12.514  10.190  0.0070 -0.0459 -0.2204
37418W        W37618   6.197  13.694  10.419 -0.1641 -0.1518 -0.0072
37419W        W37619   5.841  11.558  17.125  0.1920  0.1267  0.0097
37420W        W37620  14.481  15.272  11.647 -0.0251  0.3237  0.0589
37421W        W37621   6.448   9.919  12.353  0.0033  0.2451 -0.3079
37422W        W37622   3.298   9.328  12.015 -0.0188  0.2975 -0.1257
37423W        W37623  17.206   1.548   5.756  0.3305 -0.1890 -0.0837
37424W        W37624   8.184  13.912   8.301 -0.2829 -0.0062 -0.1264
37425W        W37625  16.203  15.592   6.792  0.4461 -0.0944 -0.1332
37426W        W37626  14.245   9.299  14.514 -0.2561  0.0019  0.0208
37427W        W37627   9.903  10.171   2.242 -0.0216  0.4194 -0.0145
37428W        W37628   2.515  12.030  12.796 -0.1657 -0.0527  0.0728
37429W        W37629   7.385   0.615  10.174  0.0126 -0.0571 -0.2829
37430W        W37630   8.904   6.961  13.945 -0.2951 -0.0345 -0.0527
37431W        W37631  11.292   6.037   1.842  0.0619  0.1864  0.2607
37432W        W37632  16.494  16.032  12.207  0.0514  0.2424  0.1294
37433W        W37633  11.927   0.152  11.606 -0.0390  0.0500 -0.1575
37434W        W37634  13.210  13.447   0.796 -0.2240  0.1188 -0.1855
37435W        W37635  10.558  12.810  12.467  0.1941 -0.2746 -0.0928
37436W        W37636  17.532  14.343  11.753 -0.1312 -0.1985  0.1256
37437W        W37637  14.225  16.164  13.824  0.0242  0.1867 -0.1875
37438W        W37638   1.721   7.806   2.455 -0.1344  0.2306 -0.5445
37439W        W37639   9.185  12.994  14.203 -0.0229  0.4503 -0.0758
37440W        W37640  14.830  15.498   4.820  0.3371  0.0480 -0.1848
37441W        W37641   0.128  14.764  16.778 -0.1957 -0.0440 -0.0076
37442W        W37642   1.366  16.541  13.639  0.0252  0.0433 -0.0592
37443W        W37643  16.097  12.044  14.292  0.0287 -0.4139 -0.0193
37444W        W37644  14.255  13.680  13.094 -0.2190 -0.1671  0.0310
37445W        W37645  10.659  15.592  10.857  0.2707 -0.3035 -0.0267
37446W        W37646  15.308  10.321  14.082 -0.3507  0.2046 -0.0517
37447W        W37647  13.924  15.555  16.912 -0.1437 -0.0210  0.0131
37448W        W37648  11.298  11.902  14.770 -0.0541  0.0003 -0.0857
37449W        W37649  16.250   9.996   4.370  0.1275 -0.3966  0.0620
37450W        W37650  13.001  12.091  10.701 -0.1053 -0.0009 -0.0784
37451W        W37651   9.047   1.077  11.412 -0.0635 -0.2442  0.2925
37452W        W37652  13.226  11.136  17.284  0.3873 -0.0822 -0.3364
37453W        W37653  14.951   6.236   4.889 -0.1593 -0.0232  0.4545
37454W        W37654   2.280  14.911  10.540 -0.4062  0.4564 -0.3864
37455W        W37655   1.849   9.499   2.875 -0.0037 -0.0145 -0.0805
37456W        W37656  16.900   9.034  14.219  0.0771  0.3079  0.1513
37457W        W37657   1.268  13.104  11.989  0.0267  0.1330  0.1254
37458W        W37658  11.927   7.387  17.631  0.0484 -0.1537  0.1874
37459W        W37659  17.922   8.689   4.063  0.0896  0.4767 -0.0828
37460W        W37660   1.201  14.754   9.286  0.3488  0.3376 -0.4265
37461W        W37661  11.584   5.849   2.419 -0.1751 -0.3289  0.0763
37462W        W37662  13.631  14.346   0.250  0.2561  0.2657 -0.1481
37463W        W37663   1.576  15.637  11.949 -0.3358 -0.0957 -0.3296
37464W        W37664  16.348  17.033  12.492 -0.2673  0.1724  0.2467
37465W        W37665  15.483   8.347   2.196 -0.2611  0.2479 -0.0251
37466W        W37666   1.306  14.153  14.817 -0.1189  0.0399  0.0208
37467W        W37667  10.693   9.224   0.297 -0.2956  0.2501  0.2240
37468W        W37668  16.161   8.340  17.530  0.2351 -0.2807 -0.1503
37469W        W37669  10.073   8.139  16.680  0.2148 -0.2291 -0.0047
37470W        W37670  10.204   5.055   6.446 -0.0399 -0.0850  0.3157
37471W        W37671  17.929   6.960  12.048  0.2019 -0.0929  0.0279
37472W        W37672  11.381  11.747   1.712 -0.1309 -0.0383 -0.2948
37473W        W37673  15.515   3.185  12.438 -0.1548 -0.1348  0.0422
37474W        W37674   7.074  12.539  13.241  0.1825 -0.3050  0.2281
37475W        W37675   1.639   1.363  16.293  0.2667  0.1191 -0.0342
37476W        W37676  14.182  15.742   7.722 -0.1349 -0.0408 -0.0412
37477W        W37677   1.674   6.999  12.778  0.2894  0.1841 -0.0916
37478W        W37678   5.401  14.219   8.646  0.0987  0.2839  0.2623
37479W        W37679  10.224  11.967   3.890  0.2350  0.2578 -0.1403
37480W        W37680   3.684  15.933  10.851  0.0833  0.0810 -0.1654
37481W        W37681  18.094   1.442  12.510 -0.2533 -0.1148  0.2651
37482W        W37682  12.830   9.404   7.827  0.3184  0.2836 -0.3870
37483W        W37683  12.968  11.173  16.463  0.2843 -0.3102 -0.3094
37484W        W37684  12.513   8.103  11.523  0.0913 -0.2107  0.0438
37485W        W37685  15.477  11.112   9.784 -0.1209  0.3593  0.0014
37486W        W37686   2.791  13.298  14.368  0.1548  0.2024 -0.0866
37487W        W37687   3.719  16.408  10.941 -0.0846  0.0179 -0.0374
37488W        W37688   1.859  16.310   6.448  0.0543 -0.1918 -0.0742
37489W        W37689  17.877  15.705  15.670 -0.3295  0.0965 -0.4453
37490W        W37690   7.912  10.456  15.395 -0.2211 -0.0755  0.0846
37491W        W37691   7.932  13.522  15.938 -0.0433 -0.2670 -0.2651
37492W        W37692  13.307   7.815   1.735 -0.2030 -0.1772  0.2937
37493W        W37693  11.318   5.800   9.230  0.1212 -0.0202 -0.3393
37494W        W37694  14.428  11.142   9.368 -0.0522  0.1010  0.0416
37495W        W37695  13.004   8.932   7.710 -0.1407  0.3023 -0.1394
37496W        W37696  15.069   3.569   8.953 -0.1500  0.3561 -0.0167
37497W        W37697   7.012  13.749   8.843 -0.2212 -0.0844  0.0166
37498W        W37698  11.163  10.812  12.294  0.2295  0.2618  0.2678
37499W        W37699  10.165  17.846   3.170 -0.0384  0.1169 -0.1504
37500W        W37700   7.168  17.998  13.985 -0.1000 -0.1253 -0.1035
37501W        W37701  17.944  14.716  12.166  0.1346  0.1259  0.2767
37502W        W37702   0.591  12.334   1.741 -0.2159  0.1582  0.2793
37503W        W37703  14.571   7.134   9.359 -0.1894 -0.0122  0.3650
37504W        W37704  17.203  16.322   9.308  0.4895 -0.1802 -0.1170
37505W        W37705  12.855  15.867  16.066  0.0623 -0.1706  0.3372
37506W        W37706   5.482   7.755  15.555 -0.2226 -0.1572 -0.0755
37507W        W37707   8.524   2.149  13.389  0.0867 -0.2119  0.0354
37508W        W37708  16.103  17.706   1.672  0.2787  0.1067 -0.0428
37509W        W37709  16.414   3.930  13.555  0.0690  0.1638  0.0432
37510W        W37710  16.174   9.245   8.470  0.1928 -0.0089  0.0657
37511W        W37711  13.867   4.191  17.128  0.1947  0.0727 -0.3442
37512W        W37712   6.121  12.590  17.478  0.4153  0.2054  0.0665
37513W        W37713   0.819  11.940   0.733  0.4209 -0.1168 -0.2099
37514W        W37714   8.866   9.659  14.105 -0.0949 -0.2624 -0.0058
37515W        W37715   7.339  17.657   0.577 -0.1496  0.2922  0.0322
37516W        W37716  14.405  11.498  14.346  0.3051 -0.2007  0.0807
37517W        W37717  14.967  15.370  13.418 -0.4014  0.1519  0.4129
37518W        W37718  13.035  12.700  13.770  0.1765  0.0551 -0.0377
37519W        W37719   9.878   9.620  17.800 -0.0304 -0.1958  0.0774
37520W        W37720  17.255  14.350   7.577 -0.0798  0.2235 -0.1227
37521W        W37721  12.664  15.247   0.907 -0.1984  0.1161 -0.0092
37522W        W37722   6.885   9.945   1.257  0.3133 -0.2012 -0.2216
37523W        W37723   8.741  17.990  17.146  0.0106 -0.0796 -0.1379
37524W        W37724  15.196  10.617  11.483 -0.1573  0.1608 -0.0939
37525W        W37725   9.660  12.694   8.619 -0.0993 -0.3984  0.0230
37526W        W37726   1.954  12.479  15.190  0.1929  0.0736 -0.1511
37527W        W37727   5.971  13.952  10.856  0.0058  0.1736  0.2929
37528W        W37728   8.281   7.647  14.945 -0.3801 -0.2711 -0.3549
37529W        W37729  10.132   8.448   9.589 -0.1050  0.0318  0.1298
37530W        W37730  12.032  11.023  13.785  0.0576 -0.0767 -0.4104
37531W        W37731   9.377  12.597  10.270  0.0253 -0.0895  0.1844
37532W        W37732  14.402   4.854  17.473 -0.1277  0.0919  0.3114
37533W        W37733   5.805  11.110  14.169 -0.0152  0.1504  0.1271
37534W        W37734  13.959  15.398  11.558 -0.0409 -0.1100 -0.2221
37535W        W37735   4.504  10.502   6.732 -0.3241 -0.0190  0.0594
37536W        W37736  17.195  15.514  14.275  0.0438 -0.3486 -0.2096
37537W        W37737  14.330   2.409  13.015  0.1853 -0.0996 -0.0044
37538W        W37738   7.643  15.450   5.373  0.1424 -0.0832 -0.0311
37539W        W37739   8.756  17.906  12.127  0.0689 -0.0355 -0.2650
37540W        W37740   8.524  14.164  10.519 -0.0850 -0.3009 -0.3719
37541W        W37741   2.415  13.876  10.770  0.0256 -0.1321 -0.0021
37542W        W37742  13.862  17.560  16.376  0.0521 -0.1942  0.0039
37543W        W37743   0.293  10.646   5.575  0.0188 -0.1564 -0.2481
37544W        W37744  13.808  14.338  11.384  0.0533  0.0110  0.2533
37545W        W37745  11.836  16.259  16.763  0.1017 -0.0998 -0.2183
37546W        W37746   4.509   8.922  11.557  0.1231 -0.0786 -0.0083
37547W        W37747   0.157   6.406   7.677 -0.0041 -0.0238 -0.0737
37548W        W37748   2.489   3.774   6.893  0.0128  0.0282  0.2662
37549W        W37749   3.355   4.111  11.996 -0.2168 -0.2596 -0.1073
37550W        W37750   7.443   7.665   8.325 -0.0103  0.0408 -0.2405
37551W        W37751   9.974   9.661   9.747 -0.1441 -0.2891 -0.1071
37552W        W37752   4.513   2.809  11.277 -0.0648 -0.0653 -0.3537
37553W        W37753  14.083  12.844  10.967  0.1099  0.3930 -0.0638
37554W        W37754   8.055   6.357  13.608  0.2931  0.0316  0.1301
37555W        W37755   6.220   8.114  16.481  0.0483  0.2690  0.3253
37556W        W37756  10.945  11.405   7.531 -0.1592  0.4009 -0.0879
37557W        W37757   1.801  13.264   1.372  0.3571  0.0910 -0.1763
37558W        W37758   8.609   6.833  10.753  0.0920  0.1835 -0.0344
37559W        W37759  12.002  10.373  15.360  0.0599  0.3703 -0.1153
37560W        W37760  16.703   8.159  16.778 -0.2909 -0.3519 -0.0043
37561W        W37761   4.676  17.581   0.159  0.2435  0.0188  0.2191
37562W        W37762  16.748  12.436   3.473  0.1182 -0.0928  0.2656
37563W        W37763  15.812  15.487  14.509  0.2527 -0.2119  0.0674
37564W        W37764  10.868  17.930  11.509 -0.2031 -0.1889  0.0523
37565W        W37765   6.735   9.434   8.794 -0.1158  0.1949 -0.1753
37566W        W37766  15.183  15.821   9.061 -0.1076 -0.1121 -0.1104
37567W        W37767   5.448  13.811   2.037  0.1576  0.0658  0.0146
37568W        W37768   9.422  17.359  13.148  0.1252 -0.1146 -0.1842
37569W        W37769   0.884  12.402  13.455 -0.3814 -0.0072  0.0004
37570W        W37770  12.145  15.621  15.700  0.1949 -0.1577  0.2828
37571W        W37771   5.090   9.042   8.209  0.0215  0.1769  0.0595
37572W        W37772  15.673   9.880  17.547 -0.1538  0.2425 -0.0725
37573W        W37773  12.901  11.873  13.304  0.0404  0.2229  0.2547
37574W        W37774  15.249  12.791   3.265  0.1030 -0.3236  0.0275
37575W        W37775  11.665  15.708   8.329  0.4252  0.0493  0.1329
37576W        W37776   7.808  12.663  14.929 -0.1911  0.4240 -0.0670
37577W        W37777  13.790   5.571  13.190 -0.1070 -0.2401  0.1016
37578W        W37778  16.670   4.735   8.999 -0.0234  0.1319  0.4050
37579W        W37779  11.355  12.030  15.527 -0.0501 -0.0161  0.1917
37580W        W37780  11.274   5.664  12.639 -0.0171 -0.0449  0.1697
37581W        W37781   9.522   0.426  17.592 -0.4682 -0.1624  0.0532
37582W        W37782   5.128   2.864  17.087  0.1200 -0.1269 -0.1444
37583W        W37783  16.196  10.918   4.483  0.4885  0.2973 -0.1602
37584W        W37784  15.506   7.850   2.120 -0.1121 -0.0438 -0.1948
37585W        W37785   4.797   0.472  14.885  0.0085 -0.3038  0.3107
37586W        W37786  13.686   5.614  15.885  0.0023 -0.2763  0.0600
37587W        W37787  14.016  17.688   6.133 -0.2759 -0.2912  0.0217
37588W        W37788  11.644  13.262   3.029 -0.0018 -0.0942 -0.0419
37589W        W37789  12.441   4.965  17.819  0.0206  0.4894  0.1831
37590W        W37790  10.567  11.684  17.767  0.1626 -0.4003  0.2486
37591W        W37791   9.460  14.102   8.708  0.0769  0.2332 -0.1679
37592W        W37792  12.080   7.899   1.357  0.1758 -0.0946 -0.0956
37593W        W37793  16.573   7.612  12.304  0.0261 -0.0183  0.1207
37594W        W37794  13.020   3.863   8.176 -0.1322 -0.2350 -0.0495
37595W        W37795  15.880  14.502  14.724 -0.2896  0.2273  0.1491
37596W        W37796   4.848  10.846   4.753 -0.1997 -0.0973  0.1547
37597W        W37797  11.015  17.099   1.613 -0.0448  0.1064  0.1576
37598W        W37798   8.629  18.054   3.985  0.3902  0.2780  0.2741
37599W        W37799  14.533   5.418   1.007 -0.1343  0.1600 -0.2365
37600W        W37800   1.241  18.072   2.668  0.1685 -0.0929  0.1169
37601W        W37801   5.554  15.822   1.527 -0.0294  0.1462  0.1688
37602W        W37802   9.598   8.304   4.083 -0.0534 -0.5245  0.1365
37603W        W37803  11.214   7.804  11.107 -0.0709  0.0599  0.0868
37604W        W37804   0.272   4.507  16.300  0.0322 -0.0403  0.0189
37605W        W37805  16.320  15.089   1.587  0.0918 -0.1030 -0.4348
37606W        W37806   9.927   9.187   5.589  0.0876  0.1551  0.0850
37607W        W37807   0.326  17.426   9.009  0.3385  0.2416  0.3972
37608W        W37808  11.454  11.940  11.957  0.3222 -0.0866 -0.0931
37609W        W37809  16.003   4.977   7.688  0.0723  0.2750  0.0070
37610W        W37810  17.027  15.288   7.053 -0.1441 -0.3773  0.1986
37611W        W37811  12.106   4.445   1.548 -0.1390  0.0642  0.0484
37612W        W37812   3.685   0.212   1.334  0.3769 -0.0712  0.0743
37613W        W37813   4.024  13.093   4.162  0.1921  0.0091  0.0543
37614W        W37814  14.561  10.634   5.085 -0.0029  0.1840 -0.1092
37615W        W37815   4.482   8.508  16.644  0.3083  0.0695 -0.3522
37616W        W37816  14.634   7.697   2.999 -0.1571  0.0238  0.0211
37617W        W37817  17.014  16.587  12.605 -0.1422 -0.0858 -0.0826
37618W        W37818   5.171  17.353  14.480  0.1131 -0.3656  0.2099
37619W        W37819  12.829   6.472  16.662 -0.1794 -0.3064  0.0139
37620W        W37820  16.660   3.330  17.747  0.0360 -0.1353 -0.2669
37621W        W37821  15.711   9.139   1.783  0.1268  0.2519 -0.0216
37622W        W37822  16.785   8.612   0.452 -0.2774  0.2248 -0.0003
37623W        W37823  15.548  13.927   7.222  0.1279 -0.0094 -0.0198
37624W        W37824   8.116   9.582   6.730 -0.0119 -0.3309  0.2282
37625W        W37825  14.537  17.588   3.434  0.2494 -0.0410 -0.1697
37626W        W37826   9.590  10.208  16.156 -0.1114  0.2890 -0.3362
37627W        W37827   7.506  15.158  11.232  0.0744 -0.1568 -0.0607
37628W        W37828  12.787  13.463   3.592  0.1415  0.0088 -0.2531
37629W        W37829  12.990  10.044   2.566  0.1836 -0.4404 -0.0711
37630W        W37830   7.203   1.493   4.202  0.1903  0.1758  0.1039
37631W        W37831  10.314  12.021  17.066  0.1038  0.1369 -0.2091
37632W        W37832   2.066   4.236   6.198  0.1159  0.2426  0.2588
37633W        W37833  13.759  16.612  15.119  0.0549 -0.1813 -0.1529
37634W        W37834  15.610  15.058   7.967  0.0478 -0.2481 -0.0608
37635W        W37835  17.768   9.818  12.807  0.0590  0.1608  0.1779
37636W        W37836  13.669   6.666   2.751  0.1624  0.0949  0.1825
37637W        W37837  12.367  12.005   8.443 -0.2592 -0.1942 -0.0684
37638W        W37838   6.689   5.603   6.297 -0.0050 -0.1077 -0.1024
37639W        W37839  14.522   8.881  10.000  0.3180  0.0173  0.0138
37640W        W37840  10.859  13.805  16.255  0.0645 -0.1507 -0.1382
37641W        W37841  16.443   6.067  17.732  0.0602 -0.0157  0.1527
37642W        W37842  13.842   1.689   7.051  0.0520 -0.2302  0.0420
37643W        W37843  17.701  11.725   7.814 -0.2450  0.0252  0.0684
37644W        W37844   8.932  17.091   7.303  0.1627  0.0699  0.2454
37645W        W37845  11.040  14.153  16.607  0.0059  0.3611  0.3988
37646W        W37846  14.490  13.887  10.767 -0.1726  0.1896  0.2187
37647W        W37847  13.255   5.775  17.073 -0.0517 -0.0590 -0.0070
37648W        W37848  11.159   7.369   0.021  0.1305 -0.1088  0.2135
37649W        W37849   8.145  13.503  13.757  0.0644  0.0863 -0.0696
37650W        W37850   6.829   7.029   1.405  0.2243 -0.0866  0.0960
37651W        W37851  15.927   7.345   3.820 -0.1701  0.2745 -0.3556
37652W        W37852   4.041  10.686  13.836  0.0164 -0.0201 -0.0579
37653W        W37853  17.589  16.517   5.298 -0.1058 -0.1684 -0.3079
37654W        W37854  15.565  13.729   1.407  0.0542 -0.0188  0.3648
37655W        W37855   9.072   9.344   2.092  0.1031 -0.0459 -0.1239
37656W        W37856  15.757  13.206  14.799  0.2276  0.0044 -0.2761
37657W        W37857   7.103  11.931   0.476 -0.1727  0.1082 -0.1254
37658W        W37858   8.375  14.086   5.284  0.2519  0.0417 -0.0378
37659W        W37859  14.517  14.509   2.430  0.2953 -0.0942 -0.0581
37660W        W37860  13.472   5.574  12.177  0.3521  0.0282 -0.1195
37661W        W37861   3.585   4.723  13.693  0.0044 -0.2650 -0.2279
37662W        W37862  17.730   6.073  13.468  0.2677  0.1437 -0.1968
37663W        W37863   5.208   3.147  17.608  0.1374  0.5545  0.1318
37664W        W37864   3.896   8.909  13.072  0.0575 -0.1790 -0.3285
37665W        W37865   8.345   6.901   5.002  0.1980  0.0458 -0.1562
37666W        W37866  17.613   8.335   2.786  0.1677  0.1155 -0.0867
37667W        W37867  11.708   4.721   1.563  0.1517 -0.0158  0.1299
37668W        W37868   7.816  13.113  15.199  0.0990  0.4236  0.2149
37669W        W37869  17.303  13.125  11.536  0.0374 -0.1552  0.0066
37670W        W37870  11.588   9.289   3.421 -0.1779  0.0430 -0.1840
37671W        W37871  16.323   6.224  10.266  0.2299  0.0143  0.0121
37672W        W37872   6.676   0.668   4.517  0.1408  0.1128  0.3628
37673W        W37873   4.341  14.727   8.838 -0.2914 -0.0793  0.1115
37674W        W37874  14.290  17.974  11.731  0.0122 -0.1061 -0.0468
37675W        W37875   5.513   9.983   9.384  0.1109 -0.1665  0.0682
37676W        W37876  11.392   6.254  16.541  0.2451 -0.1676  0.0192
37677W        W37877  11.600   5.640   1.699 -0.2987 -0.2552 -0.1129
37678W        W37878   8.178  12.948  13.087 -0.1627 -0.0723 -0.1623
37679W        W37879  15.889   5.904  18.012 -0.1701 -0.2062  0.0598
37680W        W37880   2.765   4.472  11.933  0.1695  0.0328  0.0970
37681W        W37881   2.509   9.355  15.839  0.2291  0.0534 -0.0334
37682W        W37882  12.179   1.660   8.382  0.3390 -0.0187 -0.1469
37683W        W37883  12.526   3.210  16.692  0.2349  0.0353  0.3064
37684W        W37884  16.599   7.113  10.109 -0.0999  0.0933 -0.0802
37685W        W37885  10.253  11.319   9.524  0.0654 -0.1747  0.1292
37686W        W37886  12.198  10.598  16.588  0.1252 -0.0805  0.5901
37687W        W37887   5.276  10.840  11.958  0.0571  0.1223 -0.1651
37688W        W37888  15.721   8.577  16.726 -0.3947 -0.0095  0.0710
37689W        W37889  16.715  10.428  12.746  0.0763  0.0325 -0.5102
37690W        W37890  14.231   7.393   8.971  0.0487 -0.1749  0.1115
37691W        W37891  15.610   7.968  16.357  0.0960  0.1334  0.1947
37692W        W37892   0.352  16.875   5.104  0.1680  0.1752 -0.1096
37693W        W37893  12.756  16.083  12.349 -0.0916  0.1040  0.2292
37694W        W37894  12.171  14.058   2.211 -0.1692 -0.2492 -0.0299
37695W        W37895   9.845  14.864   4.341  0.0884  0.0958 -0.3623
37696W        W37896  15.990   8.251  13.992 -0.0194 -0.0598  0.2293
37697W        W37897   4.407   8.738  10.721 -0.1736  0.2246 -0.1921
37698W        W37898   7.701  12.964   0.446 -0.3310 -0.1962 -0.1301
37699W        W37899  12.621  10.985  18.199 -0.0095 -0.1467  0.1708
37700W        W37900  12.813  15.389  13.959 -0.1485  0.0161  0.0549
37701W        W37901  16.357   3.250   1.896 -0.1797 -0.0897 -0.2161
37702W        W37902  16.461  11.992   5.124  0.1008 -0.0674 -0.0163
37703W        W37903  12.790   6.756  10.355 -0.0833 -0.0463 -0.2473
37704W        W37904  11.374   7.727   7.560  0.1988 -0.4149  0.1428
37705W        W37905   9.624   5.798   0.053 -0.1161  0.0094 -0.2216
37706W        W37906   5.885   4.698  17.729  0.2940  0.0411 -0.0244
37707W        W37907   6.116   9.762   4.419 -0.2606 -0.0731 -0.0889
37708W        W37908  17.075  15.981  15.077 -0.3184  0.1102 -0.1665
37709W        W37909   6.528   6.498  10.904 -0.0472 -0.1009  0.2058
37710W        W37910  18.155   9.819   1.281 -0.0370 -0.2626  0.0461
37711W        W37911  13.591  13.864  11.311 -0.0192  0.2073 -0.3338
37712W        W37912  13.545  12.030  17.310 -0.1409 -0.0042  0.1201
37713W        W37913  15.856  11.268  11.774 -0.0645  0.0704 -0.0536
37714W        W37914  16.794  13.581  15.543  0.1824 -0.3147  0.0017
37715W        W37915   8.204   7.343  10.873  0.0977 -0.1387 -0.0650
37716W        W37916  14.376  11.459   0.058 -0.1712 -0.2350 -0.1241
37717W        W37917  14.607  10.256  13.987 -0.3606  0.1012 -0.2931
37718W        W37918  15.471  10.169   6.705  0.2268 -0.0663 -0.1506
37719W        W37919  10.142  10.868  14.087 -0.0584  0.0831 -0.2527
37720W        W37920  13.624  17.704   3.787  0.2690 -0.1204 -0.3793
37721W        W37921  14.429  17.012   3.824  0.0173  0.0358  0.2470
37722W        W37922  15.422   7.985   6.930 -0.1969  0.2150  0.0029
37723W        W37923   6.158   7.809  12.944  0.1478 -0.1341  0.1251
37724W        W37924  10.619  12.514   8.160 -0.0009  0.0408 -0.0218
37725W        W37925  13.254  12.955  15.295 -0.1179  0.0104 -0.2210
37726W        W37926  15.352   9.451  10.481 -0.1004 -0.1873 -0.0225
37727W        W37927  11.469   9.938  14.986 -0.1098  0.1232 -0.2160
37728W        W37928  11.777  13.826   2.472  0.1426  0.0829  0.1291
37729W        W37929  14.847   8.993   4.870 -0.1071 -0.0287  0.0527
37730W        W37930  16.763   4.730  13.360 -0.0138 -0.1043 -0.0274
37731W        W37931  15.684   1.592   5.448  0.2840 -0.2468 -0.3075
37732W        W37932   9.741  15.203   9.190  0.1518  0.1762  0.1310
37733W        W37933   1.754  10.474   5.716  0.1091 -0.0531 -0.0860
37734W        W37934  11.264   8.599  14.051  0.0425  0.2348  0.2393
37735W        W37935   4.155  15.432  18.067  0.1944  0.1311  0.0438
37736W        W37936  13.079  15.625  14.295 -0.0838 -0.1473  0.1511
37737W        W37937  14.336  12.024   1.366  0.1064  0.3002  0.2657
37738W        W37938  11.462   6.186   2.823  0.0519 -0.0704 -0.0545
37739W        W37939  11.644  15.965  16.449  0.1100 -0.0090  0.1330
37740W        W37940  13.950  13.850  12.713 -0.1793  0.1531 -0.0071
37741W        W37941  16.780   8.974   2.070  0.1736  0.3969  0.0628
37742W        W37942  11.473   9.263   2.427  0.3653 -0.0563  0.0872
37743W        W37943   7.919  10.179  11.770 -0.3047  0.0736  0.1521
37744W        W37944   0.976  15.593   9.612 -0.2050  0.0760  0.0300
37745W        W37945  12.131  12.598   0.136  0.1511 -0.1301 -0.1112
37746W        W37946  16.024  14.741   9.611  0.4942 -0.1546 -0.2799
37747W        W37947  17.537  14.453  13.342 -0.2498  0.2121 -0.3563
37748W        W37948   5.704   3.748   2.517  0.0147  0.2307 -0.0013
37749W        W37949  12.085  12.238  17.933  0.2627 -0.1584 -0.0639
37750W        W37950  11.048  15.705   3.296  0.0354  0.1645  0.0739
37751W        W37951   1.411  12.335   8.535 -0.0219 -0.0209 -0.1308
37752W        W37952  12.350  17.058   5.383 -0.0932  0.0293  0.0662
37753W        W37953   6.958   3.196  14.495  0.0078  0.0908  0.0902
37754W        W37954   6.770  13.048  12.727  0.3492  0.2223  0.0188
37755W        W37955   6.908   3.914  17.292  0.1994  0.0055  0.1297
37756W        W37956  12.516  14.420   4.663 -0.0170 -0.0705  0.0486
37757W        W37957   8.648   5.727  12.897  0.1115  0.4876 -0.0723
37758W        W37958   6.226  15.240   1.287 -0.2686 -0.0570  0.3623
37759W        W37959   5.069  14.898  17.481  0.1419  0.2320  0.1716
37760W        W37960  13.759  12.620   3.870  0.1667  0.0254  0.0451
37761W        W37961   1.499   0.078  11.760  0.1968  0.2493  0.2349
37762W        W37962   0.368   6.815   8.167 -0.1513  0.4441 -0.1289
37763W        W37963   8.912  13.522   7.871 -0.2169  0.0406 -0.0596
37764W        W37964  17.511  14.800   0.129 -0.0513  0.0014 -0.1204
37765W        W37965  15.332   8.343  16.601  0.0451  0.1536  0.2019
37766W        W37966  14.262  14.456   0.724  0.0046  0.3148  0.1321
37767W        W37967   9.460  12.425   0.381 -0.1837  0.3965  0.0701
37768W        W37968   1.076   9.782   0.470 -0.1503  0.1095 -0.0370
37769W        W37969   5.413  10.543   1.007  0.2907  0.1071  0.0915
37770W        W37970   3.480   9.013   9.265 -0.3070 -0.0678  0.2162
37771W        W37971  11.484   7.484  13.024  0.1813  0.0715  0.0815
37772W        W37972   1.996  16.825   0.668  0.1204  0.0555  0.4401
37773W        W37973   1.774   9.250  10.352  0.1654  0.1257 -0.0651
37774W        W37974   5.348  13.791  17.014 -0.2942 -0.0184  0.0541
37775W        W37975   3.541  11.273  11.097 -0.0734 -0.0275 -0.2206
37776W        W37976   4.498   9.961  12.865 -0.4410  0.2395 -0.0298
37777W        W37977  12.433  10.123   0.328 -0.2001 -0.0596 -0.0585
37778W        W37978   7.744   9.183  12.138  0.0113  0.4288 -0.1178
37779W        W37979   9.960   5.982   0.396 -0.2642 -0.1372 -0.2093
37780W        W37980   5.776  12.130  12.762  0.1058 -0.1217  0.2708
37781W        W37981  15.567  15.363  18.131  0.1473 -0.1624  0.2951
37782W        W37982   8.033  10.934   2.681  0.3919  0.1994  0.5748
37783W        W37983  11.153  10.749  16.144  0.0451 -0.0352 -0.2779
37784W        W37984   7.364  17.668  11.668  0.0952 -0.0078 -0.0687
37785W        W37985  13.383   3.902   0.327  0.4348 -0.0555  0.0212
37786W        W37986   8.678  10.572  17.903  0.0295 -0.0889  0.2712
37787W        W37987   6.439  17.038   6.478  0.0494  0.2704 -0.1463
37788W        W37988  10.144   9.613  14.638 -0.1837 -0.0767 -0.1762
37789W        W37989   2.239   8.386  17.754  0.0662  0.0291  0.0270
37790W        W37990  14.394  11.212  16.421 -0.1138 -0.0853 -0.1099
37791W        W37991  14.073   4.021   4.767 -0.0483  0.2083  0.0777
37792W        W37992  12.206   0.708   1.812 -0.1276  0.0070  0.0086
37793W        W37993  10.951  10.925  17.492 -0.2178 -0.2150  0.0545
37794W        W37994   9.541   1.751  11.273  0.1196  0.1308 -0.0048
37795W        W37995   8.849   4.342  14.723  0.0565 -0.0712 -0.1041
37796W        W37996   7.680  16.660  15.818 -0.0112 -0.1109 -0.2439
37797W        W37997   3.721  10.888   9.149  0.4677 -0.1128  0.1289
37798W        W37998  18.096  17.036  14.100  0.2201  0.1614 -0.0454
37799W        W37999   1.942   0.997   8.856  0.2056 -0.0654 -0.1275
37800W        W38000  14.827  10.651   1.692 -0.0875 -0.3131 -0.1229
37801W        W38001  13.131  11.727   2.713  0.0638  0.1440  0.1483
37802W        W38002   9.475  10.316   0.220  0.4995 -0.2404  0.3045
37803W        W38003  14.565   5.104   1.451  0.0546 -0.0540 -0.0699
37804W        W38004  13.805  16.686   2.727 -0.3625  0.1737 -0.0974
37805W        W38005  11.870  16.752   6.065  0.0211 -0.1295 -0.0965
37806W        W38006   7.770   3.785  16.508 -0.1996  0.0643  0.0347
37807W        W38007   7.292  17.391   8.156  0.1768  0.0369 -0.0314
37808W        W38008   8.794   0.492   4.954  0.1118 -0.0602 -0.4544
37809W        W38009   9.843   0.139   5.937 -0.1192 -0.0865  0.2220
37810W        W38010  16.429  14.759  14.012  0.1643  0.2190  0.0061
37811W        W38011  17.989  16.973   4.286  0.1038  0.0689 -0.2104
37812W        W38012  10.078   6.371   2.008 -0.1908  0.0476  0.0992
37813W        W38013   8.928  11.051   8.685 -0.1931  0.1067  0.0175
37814W        W38014  15.378  11.934  12.274  0.2422  0.2262  0.2409
37815W        W38015  16.650  11.837  14.598 -0.1524  0.0190 -0.0662
37816W        W38016  16.024  11.635  14.028  0.0344  0.0614  0.0158
37817W        W38017  17.355  10.469  18.145  0.0082 -0.0452 -0.0905
37818W        W38018  15.462  14.554  17.786 -0.0530 -0.0434  0.1380
37819W        W38019  14.395  11.102   0.929  0.1380 -0.1880 -0.1824
37820W        W38020   5.438  12.473  17.082  0.1512  0.1290  0.2693
37821W        W38021  16.450   9.092   3.901  0.0224  0.0974 -0.1728
37822W        W38022   3.603   9.588  12.887  0.0359 -0.2665  0.1180
37823W        W38023   0.765   0.607   3.245  0.0429  0.1542 -0.2031
37824W        W38024   2.521  12.517   1.898 -0.1062  0.0171 -0.1904
37825W        W38025  10.293  16.232  13.151 -0.2908 -0.3580 -0.3056
37826W        W38026  14.519  14.169  15.218  0.0794 -0.0001  0.0652
37827W        W38027  14.994   8.752   5.998 -0.2294  0.0320  0.0662
37828W        W38028  12.633  11.290   3.551  0.0146  0.2966  0.0346
37829W        W38029   6.738  15.298   8.777 -0.0637 -0.0372  0.0810
37830W        W38030   5.969  12.300  16.336  0.2425  0.3714  0.2730
37831W        W38031   4.873   6.826  14.914  0.1487  0.1116  0.0204
37832W        W38032  11.346  16.539  12.183  0.0420  0.2276  0.0378
37833W        W38033  17.241   7.563  17.844 -0.3263  0.1332 -0.0188
37834W        W38034  16.716  11.749   1.305  0.0774 -0.0851  0.3531
37835W        W38035  11.282  13.319  17.024 -0.1897 -0.1042  0.0210
37836W        W38036  11.813  15.042  17.378  0.2827  0.2374 -0.2319
37837W        W38037  12.639  15.020   0.345 -0.1801 -0.1870  0.1525
37838W        W38038   8.249  15.201   3.212  0.2733  0.0790 -0.0136
37839W        W38039   1.110   8.779   1.557  0.1004  0.0495  0.0640
37840W        W38040  13.540  14.724  14.379 -0.2310 -0.1616  0.1482
37841W        W38041   6.384  16.908  14.666 -0.0212  0.1997 -0.1062
37842W        W38042  14.227   7.853   5.394 -0.1005  0.1696  0.3094
37843W        W38043   9.328   0.473   1.300 -0.2040  0.4016  0.0928
37844W        W38044   8.567   9.775  13.597 -0.1337  0.2449 -0.0572
37845W        W38045  16.253  15.660  15.359 -0.2064 -0.0886  0.0960
37846W        W38046   9.060  10.968  14.073  0.1607 -0.1838 -0.1019
37847W        W38047  10.313  13.974  13.856  0.1894  0.1273  0.1810
37848W        W38048   1.731  12.631   2.290 -0.2387  0.1819  0.0925
37849W        W38049   5.284  17.555  17.408  0.3452  0.1407 -0.0985
37850W        W38050  10.203  12.824   3.289 -0.0105 -0.2462 -0.0751
37851W        W38051  17.535  14.398  15.185  0.3667 -0.2527  0.1550
37852W        W38052  15.796   2.745  10.519  0.1723 -0.2399  0.1141
37853W        W38053   6.988   8.392  13.091 -0.0022  0.2593  0.0746
37854W        W38054  10.850  16.079   5.688 -0.0069 -0.1515  0.1949
37855W        W38055   7.551   5.864   0.687 -0.4016  0.1797  0.0915
37856W        W38056  16.556   3.556   9.621  0.5204  0.1615  0.1288
37857W        W38057  16.572  12.188  14.218  0.0621  0.0757 -0.1331
37858W        W38058   8.644  15.685  17.126  0.0934  0.1124  0.0364
37859W        W38059   8.399  16.503  16.124 -0.1444  0.0546 -0.0507
37860W        W38060  12.549   6.932   4.695 -0.1022  0.0834 -0.1764
37861W        W38061  14.498  15.959  17.180  0.0789 -0.2835  0.0002
37862W        W38062   7.338  13.186   0.742 -0.0472 -0.1526  0.1211
37863W        W38063  11.313  10.102  10.249  0.1806  0.2034  0.1759
37864W        W38064   8.831  11.600   2.045  0.0788  0.0114 -0.1991
37865W        W38065   4.804   7.727   1.896 -0.0372  0.2871  0.1595
37866W        W38066  14.170   7.343   1.495  0.2507  0.2255  0.0258
37867W        W38067   8.859  17.280   4.127  0.4590 -0.1333 -0.0566
37868W        W38068  13.180   0.398   6.959 -0.3931 -0.2860  0.2578
37869W        W38069  13.460  14.516   2.193  0.0867  0.0588 -0.0092
37870W        W38070  14.024  12.344  12.257  0.0880  0.1436  0.1854
37871W        W38071  13.292  14.998   5.383  0.1633 -0.0513 -0.2794
37872W        W38072   9.178  11.918   7.265  0.2433  0.0076 -0.3824
37873W        W38073  15.053   8.087   3.061  0.2523  0.0125  0.2268
37874W        W38074   8.994   6.384  10.881  0.3035  0.0201  0.0621
37875W        W38075  15.475   3.707   5.448  0.0926  0.1819 -0.3560
37876W        W38076  14.489   7.551  15.281  0.4480  0.1828 -0.0618
37877W        W38077   9.788  12.537  14.649 -0.1858  0.1456  0.1085
37878W        W38078  12.817  10.118  13.584 -0.1737  0.0502 -0.0561
37879W        W38079  15.306  12.367  11.277  0.1310 -0.1642  0.0254
37880W        W38080   1.061   1.119   0.807 -0.3379  0.2271 -0.1415
37881W        W38081   3.735  17.658  18.142 -0.0271  0.1751  0.0381
37882W        W38082  11.193   7.686   3.012  0.0063 -0.0266  0.4224
37883W        W38083  11.348  12.801   0.705 -0.0108  0.1248  0.1201
37884W        W38084  11.045   9.703  15.479  0.3054 -0.0537 -0.0016
37885W        W38085   2.421   9.897  14.704  0.0633 -0.0443 -0.0695
37886W        W38086  13.255   7.131  16.399  0.0757 -0.1031  0.1439
37887W        W38087  11.237   8.657  12.943  0.1036 -0.1911 -0.0536
37888W        W38088   7.945   0.163  13.754 -0.0206  0.6112  0.1332
37889W        W38089  18.091   9.316  15.473 -0.0791 -0.0852  0.2656
37890W        W38090   7.537   9.972   2.612  0.1166 -0.0045 -0.1062
37891W        W38091   7.304  16.366   0.470  0.4937 -0.0186  0.0213
37892W        W38092  17.178  11.256   8.506 -0.1223  0.0854  0.1550
37893W        W38093  10.155  13.103   0.526 -0.1370  0.2128  0.2897
37894W        W38094  16.984  17.487   4.677  0.0609 -0.1088 -0.1038
37895W        W38095  16.992   8.060   3.651 -0.0957 -0.1562 -0.0274
37896W        W38096   8.720  10.782   1.140 -0.2284 -0.2268 -0.0131
37897W        W38097  13.652  10.609  12.312 -0.1371  0.1188 -0.1127
37898W        W38098  14.538   2.966   8.316  0.0265  0.1867  0.2019
37899W        W38099  17.835   9.594  14.196  0.1208 -0.2939 -0.0623
37900W        W38100  13.861  13.171  15.856 -0.0563  0.0027  0.0391
37901W        W38101   5.781  12.725  10.628 -0.2779 -0.2465  0.0775
37902W        W38102   9.439   7.601   3.444 -0.4120  0.1417  0.4268
37903W        W38103  16.347   3.763   3.038  0.1120  0.1625  0.1924
37904W        W38104   6.244   7.688  12.068  0.0475  0.3799  0.2975
37905W        W38105   7.613   0.664   1.182 -0.0035 -0.2713 -0.0893
37906W        W38106   4.236  13.817   8.248 -0.1352  0.0893  0.1197
37907W        W38107  11.765   4.503  11.700  0.0646 -0.0040  0.1440
37908W        W38108  14.616  10.950  12.635  0.3493 -0.0466 -0.2232
37909W        W38109  10.576  11.227  17.784 -0.2758  0.0264 -0.0620
37910W        W38110  18.203  15.397  15.977 -0.0202 -0.1049 -0.1929
37911W        W38111  12.591   8.026  14.775  0.0979 -0.0587  0.2032
37912W        W38112   8.993   1.739   0.987  0.0507 -0.2373  0.0338
37913W        W38113  17.397  16.895  12.463 -0.0054  0.3187 -0.0483
37914W        W38114  17.221  17.205  13.106 -0.0655  0.2235  0.0617
37915W        W38115  14.783  13.041   0.720  0.1595 -0.3361  0.0074
37916W        W38116  13.500  10.733   0.242 -0.1702  0.4041 -0.0350
37917W        W38117   5.627  17.951  15.710  0.2589  0.0607 -0.3317
37918W        W38118   9.640   5.102  14.874 -0.1935 -0.0014 -0.0509
37919W        W38119  14.823   1.840  15.734  0.0377 -0.2415  0.5084
37920W        W38120  14.747   2.008   1.098 -0.0988  0.0396 -0.0467
37921W        W38121   3.524  12.081   0.018 -0.4219  0.2924  0.0046
37922W        W38122  12.496  15.962   3.873  0.0002  0.2821  0.1634
37923W        W38123  16.235   5.093   3.553 -0.0541 -0.1110  0.1740
37924W        W38124  17.299   6.198  15.944  0.0928  0.0239 -0.4161
37925W        W38125   0.306   1.354  17.240  0.2225  0.3279  0.1573
37926W        W38126  17.297   7.139  15.974 -0.1599  0.2171  0.2531
37927W        W38127   6.299   1.915  14.317  0.1190 -0.3008 -0.1089
37928W        W38128   2.209   5.337  15.783 -0.0622  0.0885 -0.4726
37929W        W38129  17.159  14.730  11.685  0.1743 -0.0994  0.1934
37930W        W38130  13.133  17.231   4.775 -0.1402  0.0250  0.0751
37931W        W38131  16.248   9.190  15.001  0.0363  0.0979 -0.1746
37932W        W38132  17.009  15.226   3.845  0.2209 -0.0574 -0.2940
37933W        W38133   6.705  16.242  15.376 -0.0415 -0.1422 -0.0913
37934W        W38134  12.918   1.525   1.599  0.1520  0.2866 -0.1163
37935W        W38135  11.586   4.596  16.842  0.1287 -0.1563 -0.1231
37936W        W38136  10.081  10.997   0.958  0.0440 -0.2491  0.0213
37937W        W38137  11.961  10.118  15.837  0.2916  0.4402 -0.0505
37938W        W38138   1.449  11.735  11.632 -0.3237  0.1834  0.2206
37939W        W38139   5.986  13.694  17.912 -0.1935 -0.0619  0.1828
37940W        W38140   7.753  13.777  16.304 -0.0589  0.0175 -0.2297
37941W        W38141  13.776  17.534   3.323 -0.1458  0.0456 -0.1208
37942W        W38142   5.891  12.481   4.624  0.1746  0.1297  0.1098
37943W        W38143   7.739  14.781  17.183 -0.4886 -0.4195 -0.0086
37944W        W38144  14.572   9.823  11.448  0.2722 -0.4304  0.0112
37945W        W38145  13.080   3.272  13.060  0.4762 -0.3142 -0.1977
37946W        W38146  14.167   3.401   0.562  0.0359 -0.1364 -0.3171
37947W        W38147  17.314   8.297   2.370  0.0781  0.0768  0.3074
37948W        W38148  16.280  16.134   6.336 -0.1862 -0.0298 -0.1272
37949W        W38149  12.630  15.117   3.986 -0.0588 -0.0772 -0.2016
37950W        W38150  13.407  17.725  12.888  0.1245  0.2010  0.1052
37951W        W38151   7.105  10.329   0.990  0.1038 -0.2140 -0.2662
37952W        W38152  12.611  15.189  10.380  0.1637  0.0189 -0.3720
37953W        W38153  14.062   8.647  16.949  0.1139  0.0751 -0.2902
37954W        W38154   2.184  16.008  18.116 -0.1794  0.1648  0.0947
37955W        W38155   6.786   5.712   0.785  0.0071  0.2015 -0.0680
37956W        W38156   7.757  11.758  11.684 -0.1510 -0.1277 -0.0509
37957W        W38157  17.724   1.569   7.767  0.2698 -0.1264 -0.0451
37958W        W38158  11.677   6.897  17.756 -0.0103  0.1467 -0.0707
37959W        W38159  14.227   9.690   1.278  0.0113 -0.1620  0.2444
37960W        W38160   8.447  10.390  12.988 -0.0863 -0.2158  0.2500
37961W        W38161  11.944  16.878  15.667  0.1507  0.4010 -0.1101
37962W        W38162  11.546  12.330   1.333  0.0430  0.0098  0.1782
37963W        W38163   7.364  11.428  16.547  0.0661 -0.1521  0.1034
37964W        W38164  14.192  17.027  17.552 -0.1790 -0.0719 -0.0099
37965W        W38165   3.859   9.799  12.336  0.0830 -0.3950 -0.0093
37966W        W38166   3.188  12.052  12.574  0.1607  0.1861 -0.1100
37967W        W38167  13.369  15.228   8.556  0.0062  0.1405  0.1971
37968W        W38168  12.639  13.005  16.925  0.5438 -0.1403  0.2082
37969W        W38169   4.639  13.095  16.914 -0.1247 -0.0940  0.1982
37970W        W38170  12.694  16.876  16.930 -0.0728  0.1935  0.1872
37971W        W38171  13.833  11.133   9.072  0.4002 -0.1416  0.0805
37972W        W38172  10.905  11.057   1.339  0.0623 -0.2426  0.2635
37973W        W38173   3.737   0.107   3.794 -0.0974  0.1375  0.2900
37974W        W38174   8.348  16.390  17.761 -0.0508 -0.0300  0.0030
37975W        W38175  11.089   9.334   9.987 -0.0505 -0.0375  0.0217
37976W        W38176  11.893  11.261  12.010  0.0549 -0.0606 -0.2869
37977W        W38177   0.207   2.781  17.172  0.3136 -0.3125 -0.0140
37978W        W38178   2.726  16.587   3.432 -0.0565 -0.2521  0.1042
37979W        W38179  10.968  15.987  11.258 -0.1197  0.2078  0.1706
37980W        W38180  15.962  10.264  18.103 -0.4136  0.1556  0.2135
37981W        W38181  17.513   5.163  18.121  0.1160  0.3944 -0.2738
37982W        W38182  13.885  14.350  17.370 -0.1438  0.1893  0.0924
37983W        W38183  14.393   8.693   4.932  0.2530 -0.1551  0.1774
37984W        W38184  12.448   2.218   5.571  0.0817 -0.1524 -0.0696
37985W        W38185  16.785  11.916  11.085  0.1501 -0.0820  0.0886
37986W        W38186   7.350   1.762   2.957  0.1661  0.0767 -0.0566
37987W        W38187   3.456   3.059   2.386 -0.1276  0.2772  0.1042
37988W        W38188  14.451   1.231  12.738 -0.1362  0.0147 -0.1422
37989W        W38189  16.395  10.981  14.555 -0.1066  0.0797  0.4359
37990W        W38190  15.547  17.693   3.430 -0.1254  0.1144  0.2118
37991W        W38191   6.763  10.606  17.965 -0.2408  0.0770 -0.1394
37992W        W38192   6.084  17.982  15.562 -0.2473  0.3590  0.1001
37993W        W38193   1.264  14.792  17.909  0.3754  0.1192  0.1101
37994W        W38194  11.799   5.159   1.792  0.2143  0.1209  0.1499
37995W        W38195   7.156  11.569  11.883 -0.1310  0.4106  0.1692
37996W        W38196  11.909   8.273   1.975 -0.4377  0.0435  0.1629
37997W        W38197   1.144   1.921   5.399  0.0860 -0.0178  0.0607
37998W        W38198  12.058   1.652   6.650 -0.0653  0.4539 -0.1898
37999W        W38199  12.174  14.821  11.698  0.3059 -0.2343  0.0623
38000W        W38200   8.119  11.043  16.223 -0.1407  0.0746  0.0282
38001W        W38201  11.584  18.100  16.016 -0.0961 -0.0197 -0.0804
38002W        W38202  16.488  17.890   0.500 -0.2366 -0.0961  0.0621
38003W        W38203  10.202  13.172   5.725 -0.0685  0.1267  0.0376
38004W        W38204   9.349   5.086   5.400 -0.4268 -0.3790  0.2176
38005W        W38205  13.590  16.669  11.438 -0.0318  0.0289  0.0985
38006W        W38206  17.347  10.849  12.294  0.0326  0.2499  0.0030
38007W        W38207   6.595  11.717   2.701  0.4542 -0.0595 -0.0460
38008W        W38208  15.917   0.459  18.046 -0.0748 -0.0220  0.0031
38009W        W38209  15.372   5.127  18.171  0.1045  0.1845 -0.0572
38010W        W38210  14.887  16.997  16.133  0.2525  0.1413 -0.2115
38011W        W38211   3.523   8.091   7.187 -0.1950 -0.1950 -0.2389
38012W        W38212  12.713  13.484   5.743 -0.2306 -0.4426  0.0393
38013W        W38213  14.774  15.962  12.548  0.1119 -0.3423  0.2484
38014W        W38214  16.358   2.148   2.513 -0.1055 -0.1194  0.0104
38015W        W38215   8.955  17.498   4.572 -0.1122  0.0440  0.1210
38016W        W38216  15.900   5.250   4.823  0.2869  0.1698 -0.0530
38017W        W38217   3.401  13.679   3.162 -0.2297  0.1549  0.1137
38018W        W38218  18.147  13.320   2.423 -0.0687 -0.1091 -0.0417
38019W        W38219  17.067   7.331  10.548  0.2738  0.1966  0.2678
38020W        W38220   4.051  16.995   9.672 -0.0589  0.0324 -0.0441
38021W        W38221  11.405   4.502   9.982  0.2029  0.2309  0.0414
38022W        W38222   9.934  13.236   4.303  0.2291  0.2116  0.1130
38023W        W38223   9.788  12.359   4.455  0.2900 -0.1177  0.0316
38024W        W38224  13.014  16.924  18.116 -0.0462 -0.1390 -0.2927
38025W        W38225  16.974   9.235   5.187 -0.0510  0.2085  0.3674
38026W        W38226  13.449  12.457   1.632 -0.0402  0.0530 -0.4919
38027W        W38227  16.039  10.832   6.885  0.1522 -0.0472 -0.0547
38028W        W38228   1.064  17.394   2.097  0.1460  0.0854  0.1016
38029W        W38229   1.165  10.623   0.055 -0.0590  0.0061  0.1263
38030W        W38230   3.547  11.115  16.863 -0.0256 -0.1079 -0.0901
38031W        W38231   9.111  12.251   7.938 -0.1386  0.1604  0.1059
38032W        W38232  17.782  13.041   5.345  0.2269 -0.1939 -0.0388
38033W        W38233   9.771  17.133   4.257  0.0507 -0.2547 -0.0597
38034W        W38234  15.117  12.041   5.161 -0.1486  0.1413  0.1222
38035W        W38235   2.752   9.727  17.944  0.1161  0.0968  0.0748
38036W        W38236  13.601  13.812  13.798 -0.0977  0.0635  0.1298
38037W        W38237   3.898   8.594   6.594  0.0850 -0.0462  0.1239
38038W        W38238  16.541  10.632   1.241  0.2194  0.1694  0.1006
38039W        W38239  12.075  12.942   6.613 -0.1391 -0.3665  0.1604
38040W        W38240   8.212   3.002   1.965  0.5089 -0.0757 -0.1892
38041W        W38241  14.958  17.474   0.242 -0.0235  0.0990  0.1396
38042W        W38242  15.368  16.613   5.336  0.4216  0.2060  0.0149
38043W        W38243  11.281  13.442  14.560  0.2955 -0.1972 -0.3850
38044W        W38244  12.183  11.438   3.336  0.0880 -0.2135  0.3171
38045W        W38245  11.615   1.206  15.495  0.0855 -0.2187  0.0572
38046W        W38246   4.225  12.909  13.236  0.2260 -0.2297  0.0547
38047W        W38247  10.898  14.552  14.569  0.1278 -0.3258 -0.3175
38048W        W38248  13.892   0.380   4.693 -0.1127  0.1783  0.1865
38049W        W38249  11.810   2.824  18.069  0.1054 -0.0313 -0.0246
38050W        W38250  16.754   0.617   4.305 -0.3292  0.0581 -0.1080
38051W        W38251   4.172   3.512   1.102  0.2246 -0.2601  0.2618
38052W        W38252  12.272   8.673  17.597 -0.1137  0.1937 -0.3110
38053W        W38253   6.787  13.119  13.490 -0.2307  0.0335 -0.0254
38054W        W38254   2.384  14.507   7.964  0.0493  0.0563  0.0568
38055W        W38255  15.758  13.811   6.187 -0.2841 -0.3244  0.1628
38056W        W38256  16.470   2.590   2.396 -0.0272 -0.1547  0.1238
38057W        W38257  17.183  17.880   3.109 -0.0740 -0.1453 -0.0260
38058W        W38258  15.865   4.391   8.662  0.4018 -0.3454  0.1112
38059W        W38259   0.760   6.028  12.077 -0.2179  0.1525 -0.0649
38060W        W38260  16.457   8.997   1.635 -0.1611  0.2034  0.0260
38061W        W38261   6.567  16.766   4.869 -0.1565  0.2571  0.2286
38062W        W38262  12.210   7.436   4.398 -0.0250 -0.2595 -0.0535
38063W        W38263  18.060  17.459  12.026 -0.0102 -0.0494  0.2211
38064W        W38264   7.774  11.455  17.678  0.0756  0.4183  0.0058
38065W        W38265  13.898  17.853  12.161  0.1580 -0.0923  0.1400
38066W        W38266  16.702   0.689   8.074 -0.3698  0.0506  0.0929
38067W        W38267   3.661   1.811   2.603 -0.2071 -0.1670 -0.1031
38068W        W38268   4.119  15.473   6.024  0.0930  0.2061 -0.3300
38069W        W38269  17.120  13.591   2.351 -0.0075  0.0196 -0.3770
38070W        W38270   0.953   1.196   2.654 -0.0712  0.0517 -0.1828
38071W        W38271  16.856  13.441  13.461 -0.1305  0.1919 -0.1798
38072W        W38272  13.459  13.344   5.134  0.1533 -0.1850  0.2012
38073W        W38273  10.487   4.243   3.091 -0.0754  0.3447 -0.1962
38074W        W38274   6.510  17.600   8.463 -0.0063 -0.0610  0.1471
38075W        W38275  16.759   1.054   8.811  0.2754 -0.0222 -0.0015
38076W        W38276  12.624  17.525  10.568 -0.1780 -0.0003 -0.0170
38077W        W38277   8.111  14.552   3.157 -0.3959  0.1161  0.4448
38078W        W38278  12.289   2.297  17.513  0.5110  0.1321  0.3059
38079W        W38279  11.363   6.225   4.499 -0.0179 -0.6579 -0.2006
38080W        W38280  11.013  12.484  17.342  0.0984  0.1311 -0.0309
38081W        W38281  11.470  17.395   5.842 -0.2889  0.1385  0.1666
38082W        W38282  14.589  13.818   1.673 -0.0719 -0.1253  0.1941
38083W        W38283   4.285   0.759   5.956  0.1686  0.0300  0.1792
38084W        W38284  16.591   9.604   2.781 -0.0390  0.2104  0.1465
38085W        W38285  11.997   2.449   2.260  0.0064 -0.1471  0.1281
38086W        W38286   8.917   7.705   2.628 -0.1724 -0.0113 -0.1190
38087W        W38287  13.326   0.326   8.337 -0.1587 -0.3361  0.1443
38088W        W38288   4.386  13.369   4.334  0.0416 -0.2606  0.0448
38089W        W38289  10.724   1.613   7.736  0.2076 -0.3301 -0.1859
38090W        W38290   1.914  13.148   6.121  0.1095 -0.1631 -0.4732
38091W        W38291  11.516   2.830   6.340 -0.0351 -0.0324 -0.0220
38092W        W38292  16.678   8.166  15.463 -0.3828 -0.0053 -0.2644
38093W        W38293  14.529   2.474  10.720 -0.1086 -0.0715  0.1075
38094W        W38294  13.025  13.962   2.925  0.1476  0.1516 -0.3095
38095W        W38295   4.109   5.810   9.321  0.2980  0.0353 -0.1038
38096W        W38296  14.700  17.406   2.965 -0.0188  0.1986  0.1283
38097W        W38297  15.008   8.464   2.020  0.2343 -0.2140  0.4203
38098W        W38298  15.059  16.119  14.109 -0.1497  0.1087  0.4058
38099W        W38299  10.692  16.431   2.403  0.1046 -0.2910  0.2166
38100W        W38300   0.784  16.914   1.158  0.0727  0.0439 -0.2847
38101W        W38301  16.387   8.293   6.254 -0.0318 -0.0989 -0.3857
38102W        W38302  18.129  17.132   0.106  0.3972 -0.2340  0.1884
38103W        W38303   2.652  15.109  16.265  0.4263 -0.0582  0.2812
38104W        W38304  15.913  17.839  17.336 -0.0463 -0.3541  0.1472
38105W        W38305  16.987   0.441   9.285  0.1202 -0.2208 -0.4107
38106W        W38306   8.905  12.861   0.925 -0.0645  0.2205  0.0633
38107W        W38307  11.368   9.963   5.330  0.0786  0.0080  0.0169
38108W        W38308  11.817  15.392  17.883  0.1669  0.0076  0.2739
38109W        W38309   6.835  13.427  17.553  0.2541  0.1916 -0.0986
38110W        W38310  16.052  17.449   8.821  0.3371 -0.0899 -0.0851
38111W        W38311  13.801  15.781   5.688 -0.0047 -0.0845  0.1906
38112W        W38312   2.284   5.651  16.145 -0.2246  0.1206 -0.1842
38113W        W38313  15.760  15.728   5.945  0.2123  0.1313 -0.1002
38114W        W38314   9.307  16.285   8.266  0.1291  0.1831  0.0635
38115W        W38315  16.067  16.220   1.600  0.1044 -0.2925 -0.2479
38116W        W38316   3.582  16.073  16.135 -0.1943  0.0002  0.0524
38117W        W38317  11.496   7.125  14.921 -0.0273 -0.1731  0.0523
38118W        W38318   1.692   0.491   2.919 -0.0415 -0.1164  0.2615
38119W        W38319  10.651  12.843   5.448  0.3036  0.1747 -0.3685
38120W        W38320   9.400   6.823   2.752 -0.1359  0.0409 -0.0349
38121W        W38321  10.323  12.003   0.174  0.1771 -0.2008 -0.1612
38122W        W38322  13.319  16.090   3.298  0.0162 -0.1193 -0.0246
38123W        W38323  10.977  17.981  15.506 -0.0718  0.2323  0.0450
38124W        W38324  17.179  17.802   8.809  0.1764 -0.1397 -0.0302
38125W        W38325  17.140  16.645   5.159 -0.2571  0.0740  0.2397
38126W        W38326  15.595  14.847   4.037 -0.2142 -0.0254 -0.1750
38127W        W38327  10.329  17.549  14.423  0.3350 -0.0770  0.1145
38128W        W38328  17.930  12.543   2.013 -0.0643  0.1171 -0.2599
38129W        W38329  10.814   0.291  11.471  0.0925 -0.0429  0.0282
38130W        W38330   0.737  16.910   5.989  0.1207 -0.0291 -0.0799
38131W        W38331   0.785  11.783   0.150  0.1297 -0.2999 -0.0771
38132W        W38332   9.127  15.595  14.821 -0.1383 -0.1452  0.1118
38133W        W38333  15.759   0.640  15.712  0.2523 -0.0508  0.0059
38134W        W38334   9.512  11.194   1.480  0.0463 -0.2350 -0.0875
38135W        W38335  15.444  16.852   4.794  0.1162 -0.1071  0.0001
38136W        W38336  17.878   7.287   7.641  0.1053  0.4179 -0.0123
38137W        W38337  10.337  13.400  14.921  0.0205  0.0506 -0.1533
38138W        W38338  14.084   8.973   8.529  0.2828  0.1350  0.1788
38139W        W38339   5.411   2.905   3.071 -0.0877 -0.0360 -0.1850
38140W        W38340  11.876   7.730  14.388  0.1892  0.1555  0.0732
38141W        W38341  14.819  16.209  10.649 -0.0501 -0.0715 -0.0083
38142W        W38342  10.085   1.584  16.191  0.2377 -0.0188 -0.1622
38143W        W38343  15.258  14.818   8.877 -0.2304 -0.3260  0.1292
38144W        W38344   2.147  16.492  17.297  0.1411 -0.2693  0.2153
38145W        W38345  12.126   3.928  16.414  0.0258  0.3356  0.1229
38146W        W38346   3.212   0.198   3.778  0.3071 -0.0472 -0.0760
38147W        W38347   9.287  16.246   8.745 -0.2058  0.1755  0.1602
38148W        W38348  10.222   7.116  15.236 -0.1538 -0.0994 -0.2687
38149W        W38349  16.568  12.715   1.418 -0.5196  0.2342  0.0965
38150W        W38350   5.643  14.442   0.051  0.1125 -0.0602  0.1594
38151W        W38351   7.793   6.310  17.218 -0.1229  0.1183  0.0651
38152W        W38352  16.252  16.724   3.498  0.0820 -0.1233  0.0727
38153W        W38353   0.564   5.289   2.553 -0.1495  0.0054  0.2111
38154W        W38354   8.343   0.670   1.205  0.0398 -0.3273  0.2138
38155W        W38355  16.416   3.506  17.052 -0.6000 -0.0981 -0.0848
38156W        W38356   9.918   8.173  12.351 -0.2816 -0.3556  0.0053
38157W        W38357  14.477  15.684   8.323 -0.1046 -0.0712  0.1460
38158W        W38358  13.571   4.319  15.011 -0.0921 -0.1850  0.0511
38159W        W38359   0.549   1.414   6.457 -0.0007  0.1959 -0.0318
38160W        W38360  12.237  13.930   1.747  0.0616 -0.1965  0.0700
38161W        W38361   1.276  15.076  10.652  0.3032 -0.1089 -0.2567
38162W        W38362  13.388  14.579  18.081 -0.1484  0.0831 -0.0935
38163W        W38363  13.740  12.793   2.449  0.3145  0.0904 -0.1550
38164W        W38364  16.730  14.949   1.282 -0.1167  0.0211 -0.2081
38165W        W38365   3.245   8.524  15.300 -0.1409 -0.0236  0.0427
38166W        W38366   6.042  17.511   4.822  0.1517 -0.0377  0.0574
38167W        W38367   2.980   0.828   4.715 -0.0988 -0.1161  0.2071
38168W        W38368   4.877   2.101  11.307  0.1620 -0.1208 -0.1390
38169W        W38369  11.759  10.741  16.804 -0.3621  0.2134  0.1593
38170W        W38370  15.223   0.116   3.846 -0.2549 -0.0429 -0.0967
38171W        W38371  13.214  16.278   1.163 -0.0644  0.0622  0.1098
38172W        W38372   5.428  12.996  12.121  0.0405 -0.0561 -0.3165
38173W        W38373  13.365  11.915   6.283 -0.2613  0.1425  0.0896
38174W        W38374  14.282  15.693  11.791  0.1433  0.0780 -0.1397
38175W        W38375  17.617  14.531   4.678 -0.1627 -0.0804  0.0249
38176W        W38376  14.722   0.743   1.475  0.1376 -0.2255  0.2029
38177W        W38377   4.667  12.711  16.575  0.0107  0.2351 -0.2318
38178W        W38378   8.167   2.495  13.715 -0.0164 -0.0466  0.0183
38179W        W38379   0.040  17.287   1.874 -0.2599 -0.1822  0.1508
38180W        W38380  17.651  12.005  16.382  0.0817 -0.1088 -0.0598
38181W        W38381   6.204   0.570  13.576 -0.2077  0.1201 -0.2005
38182W        W38382   6.274   4.405   9.038 -0.1135  0.4350  0.0563
38183W        W38383  11.184   5.386  16.421 -0.0153 -0.0120 -0.1228
38184W        W38384  16.289  12.358   0.978  0.0904 -0.0482 -0.0958
38185W        W38385  12.978  17.008  16.510  0.1377  0.0106  0.0113
38186W        W38386   5.941   8.480  12.138 -0.2293  0.1819  0.0148
38187W        W38387  11.099  17.632   4.479 -0.1820  0.3362  0.0811
38188W        W38388   8.596  17.560   3.761  0.2715 -0.1656  0.4782
38189W        W38389   3.074  17.652   6.269 -0.0381  0.2108  0.0341
38190W        W38390   7.605  15.753   3.460  0.0741  0.0684 -0.0505
38191W        W38391   1.704  12.104   6.725 -0.0469 -0.2022  0.1044
38192W        W38392  16.915   4.218   7.092 -0.1703 -0.2584  0.1333
38193W        W38393   9.765  15.737  18.183 -0.4738  0.1370  0.2604
38194W        W38394  16.107  17.205   1.854  0.0359  0.1118 -0.1850
38195W        W38395   0.173  14.309   5.778 -0.0990 -0.0759  0.0226
38196W        W38396   0.709   2.826   0.901 -0.0672 -0.2322 -0.0787
38197W        W38397  17.868   0.039   2.978 -0.0850  0.0521  0.0619
38198W        W38398  10.418   8.770   6.781 -0.1680  0.1186 -0.1716
38199W        W38399  13.684  16.284   1.001  0.0900 -0.0444  0.1352
38200W        W38400  14.217   2.786   5.236  0.2706 -0.1262  0.0022
38201W        W38401   6.847   6.532   2.853  0.0471 -0.0248  0.2692
38202W        W38402   7.898  17.868  12.461 -0.1790 -0.3859  0.1851
38203W        W38403  11.926  12.747  11.981  0.1781  0.0320  0.0147
38204W        W38404  16.939  18.126  16.008  0.1010 -0.0283  0.0300
38205W        W38405  10.986   9.590   1.628 -0.1897 -0.1157 -0.1613
38206W        W38406  10.825   1.441   5.889  0.1431  0.1930 -0.3726
38207W        W38407   2.383   0.197   4.861 -0.0073  0.2484 -0.2258
38208W        W38408   7.248  13.586  14.245  0.0002 -0.0804  0.1863
38209W        W38409  16.845  10.367  16.455 -0.1978  0.1186 -0.0373
38210W        W38410  15.370  13.969  16.166  0.3169  0.0610  0.2916
38211W        W38411   9.196   1.572  15.668 -0.0647 -0.0570  0.0768
38212W        W38412  10.044   2.848   3.773 -0.0304  0.0563 -0.2358
38213W        W38413   3.681  15.802  14.032  0.2625 -0.1294  0.1920
38214W        W38414   0.355   0.361   3.396  0.4172 -0.2061 -0.0214
38215W        W38415  12.215  16.547   4.536  0.1015 -0.3495 -0.0591
38216W        W38416  17.948  15.847   4.365 -0.0026  0.2455 -0.2137
38217W        W38417  11.355   1.564  13.419  0.0729  0.3834  0.2418
38218W        W38418  15.431  16.664  13.512  0.1960  0.0010 -0.1495
38219W        W38419  11.752  13.330   5.633 -0.2744  0.1468 -0.1965
38220W        W38420   7.632  14.757   2.036 -0.0838 -0.0184 -0.2132
38221W        W38421   7.769   3.424   4.423  0.2196  0.0754  0.0273
38222W        W38422  17.420   8.326   3.755  0.0174  0.1511  0.1383
38223W        W38423   1.321  10.012   2.857 -0.0690 -0.1861 -0.0433
38224W        W38424  15.744  10.636   8.117  0.0405  0.1110 -0.2960
38225W        W38425  17.408   1.373  17.702  0.0150 -0.0410 -0.0537
38226W        W38426  14.763  16.062   0.020  0.0831  0.0112 -0.3063
38227W        W38427  11.059   0.466   4.757  0.2498 -0.1355 -0.2990
38228W        W38428  17.824  16.928  16.722 -0.1349 -0.2917  0.3339
38229W        W38429  16.597  18.114  15.647 -0.2206 -0.1414  0.4914
38230W        W38430   5.545  14.462   1.319 -0.1524 -0.0460 -0.4292
38231W        W38431  13.198  16.001   0.684 -0.1128  0.0321  0.3276
38232W        W38432   1.648  10.507   0.986  0.0900  0.1461  0.0330
38233W        W38433  15.495  13.918   5.400  0.1197  0.0171  0.0213
38234W        W38434  16.157  16.578  10.672 -0.0637 -0.2008  0.0327
38235W        W38435  14.953   0.407   7.235 -0.1372 -0.0584  0.2607
38236W        W38436  13.667  13.156   4.614  0.0335  0.0720 -0.2847
38237W        W38437  10.716   0.132  17.696 -0.3148  0.0133 -0.1978
38238W        W38438   6.064  17.510  12.819  0.2098  0.0218  0.2637
38239W        W38439  13.437   6.763   3.433 -0.0863 -0.1314 -0.3477
38240W        W38440   6.574   8.689   0.734  0.4411 -0.2322 -0.1569
38241W        W38441  14.520  13.433   7.566 -0.2151 -0.1798 -0.1472
38242W        W38442   5.285  16.012  13.623 -0.2304  0.3277 -0.1073
38243W        W38443  14.355   1.388  11.143 -0.2034 -0.0451  0.2690
38244W        W38444  10.090  14.811   3.011  0.0092 -0.0711 -0.0225
38245W        W38445  10.296   2.834  15.385  0.1442 -0.2309  0.1719
38246W        W38446   9.500   5.910   7.896 -0.0056  0.1885  0.2947
38247W        W38447   8.357   0.031   5.763  0.1479 -0.2259 -0.1335
38248W        W38448  15.362   5.925  16.663  0.0455 -0.6450  0.1109
38249W        W38449  10.288   1.620   0.866 -0.3080  0.0446 -0.0170
38250W        W38450   8.490   1.144   3.825 -0.1131  0.0358 -0.1614
38251W        W38451  17.987   5.479  15.991  0.1385 -0.2573 -0.4775
38252W        W38452  11.183  13.725  13.485 -0.1614 -0.0128  0.3169
38253W        W38453  12.096   1.194  13.076  0.1239  0.0279  0.0710
38254W        W38454  16.446   4.253   1.766 -0.2561 -0.0741  0.2729
38255W        W38455   7.306   3.391   9.087  0.3797  0.0076 -0.1417
38256W        W38456  10.490   2.269   4.888  0.2669 -0.0399 -0.1087
38257W        W38457  15.981  16.303   2.077  0.2767  0.0229 -0.1207
38258W        W38458   0.770  11.431   2.252  0.1535  0.2884  0.0780
38259W        W38459  14.780   2.278   3.764  0.1185  0.2490 -0.2105
38260W        W38460  11.537   2.051  11.093  0.1505  0.1239 -0.1345
38261W        W38461  12.818  10.039   6.820 -0.2149 -0.0393  0.0783
38262W        W38462   8.870   3.098  17.750 -0.1354  0.3243 -0.1039
38263W        W38463   0.874  16.936   0.018 -0.0383  0.0233 -0.0613
38264W        W38464   9.852  13.298   7.357 -0.0762  0.1457  0.0442
38265W        W38465  17.998   6.697   1.473 -0.0853  0.0222  0.0156
38266W        W38466   0.254   4.123   5.597 -0.0107  0.1354 -0.2772
38267W        W38467  16.215  14.836  12.904 -0.0349  0.2011 -0.3146
38268W        W38468   4.784  11.228  14.786 -0.1441 -0.1195  0.1959
38269W        W38469   8.331  12.862   7.576  0.0235  0.1988  0.0156
38270W        W38470  10.018   3.824  16.374  0.1979 -0.1210  0.1065
38271W        W38471  12.733  15.247   2.309 -0.2933 -0.1788  0.4410
38272W        W38472   8.262  12.998  16.591 -0.1374 -0.0164  0.0546
38273W        W38473  13.290  13.727   7.704  0.1659 -0.1966 -0.2735
38274W        W38474  14.861  17.405  14.738  0.0966  0.2293 -0.1374
38275W        W38475   7.937  13.981   2.137  0.0307  0.1576  0.3548
38276W        W38476   4.315   4.146  17.553 -0.1309 -0.0511 -0.0649
38277W        W38477   6.008   1.759  13.997  0.0951  0.2664 -0.2666
38278W        W38478  13.670   0.303   6.567  0.0343  0.0304 -0.0056
38279W        W38479   4.536   1.593  16.915  0.1553 -0.4252  0.2550
38280W        W38480  16.330  17.331  14.327  0.0894  0.1415  0.1093
38281W        W38481   4.714  16.858   2.769  0.2236 -0.0338 -0.1867
38282W        W38482  14.254   5.384  17.403  0.4548 -0.0029 -0.0919
38283W        W38483   7.375   6.709  15.324 -0.0476 -0.2230  0.4715
38284W        W38484  15.594   1.566  15.462 -0.0938 -0.1090 -0.2858
38285W        W38485  16.193  15.421   0.793 -0.2229 -0.0721 -0.1442
38286W        W38486  11.474  11.911  16.304 -0.3681 -0.3139  0.2809
38287W        W38487  18.028  11.682  15.365  0.1530  0.0487  0.0853
38288W        W38488   1.717   0.602  13.806  0.0546  0.0096 -0.3026
38289W        W38489  12.606  16.936   9.788 -0.1485  0.0447 -0.0449
38290W        W38490  12.507   2.022   4.249  0.1960  0.0153 -0.0752
38291W        W38491  15.795  11.633   5.086 -0.0463 -0.1190 -0.1098
38292W        W38492  17.996   6.436  13.205 -0.0352 -0.0080  0.1081
38293W        W38493  13.387   3.995   0.792 -0.2569 -0.1037  0.1155
38294W        W38494   7.825   7.592  15.203  0.2718 -0.0401  0.2768
38295W        W38495  17.377   8.345   0.330  0.1933 -0.0691 -0.0604
38296W        W38496   5.414  11.466  16.379  0.1910 -0.0461  0.0963
38297W        W38497   0.908   9.137   2.353  0.1180 -0.0245  0.3083
38298W        W38498  13.325  13.455   3.657 -0.1076  0.1932  0.1896
38299W        W38499  14.829   6.431   0.796  0.1809 -0.0908  0.1682
38300W        W38500  16.279   2.257  17.868  0.0185 -0.1020  0.1887
38301W        W38501   1.440   0.307   2.443 -0.0136  0.1294  0.0150
38302W        W38502  12.540  16.587   5.365  0.1614 -0.1072 -0.0644
38303W        W38503  14.033  16.758   3.459 -0.1157  0.1210 -0.0611
38304W        W38504  10.035   2.222   5.109  0.0344 -0.0402 -0.0843
38305W        W38505  16.332   2.798   8.718 -0.0606  0.0990 -0.2841
38306W        W38506  15.144  13.732   3.887 -0.1756 -0.0000 -0.3252
38307W        W38507   8.901  13.446   7.100  0.1778 -0.1102  0.4117
38308W        W38508  12.740  13.356   2.198 -0.1778 -0.1413 -0.0030
38309W        W38509   0.901  18.058   3.886  0.1256 -0.1883 -0.0251
38310W        W38510  13.072   6.382   0.949 -0.0007  0.0014 -0.4222
38311W        W38511   4.732  13.536   1.990 -0.3763 -0.3205 -0.4068
38312W        W38512  11.380   2.514  17.862 -0.0504 -0.0322 -0.0342
38313W        W38513  16.077   0.373   2.949 -0.0428 -0.0650 -0.0863
38314W        W38514   5.848   5.014   9.731 -0.0850  0.3783 -0.1557
38315W        W38515   3.739  11.370   5.265  0.1011 -0.1102 -0.1099
38316W        W38516  16.188   3.763   6.670 -0.0383 -0.0470 -0.1184
38317W        W38517   4.249  18.132   0.334 -0.1398 -0.0457 -0.2547
38318W        W38518  17.173  12.114   6.451 -0.4191 -0.1155  0.2642
38319W        W38519  14.934  16.191   7.570 -0.0838  0.0812  0.3359
38320W        W38520  10.374  14.324   2.434  0.1767  0.0724  0.0113
38321W        W38521  13.226   3.884   1.235 -0.4309  0.0115 -0.1070
38322W        W38522  13.846  10.608   0.585  0.1939  0.2059 -0.1627
38323W        W38523  15.644   3.648   2.438  0.0275 -0.0055  0.2323
38324W        W38524   5.810  17.207  15.206  0.0187  0.1297  0.2058
38325W        W38525  15.040   4.717   5.938  0.1673 -0.0437 -0.2625
38326W        W38526   0.710  10.871   6.772  0.2421 -0.0470  0.1035
38327W        W38527   3.378   4.415   2.447 -0.1383 -0.0245 -0.1652
38328W        W38528  12.075   8.100   2.399 -0.2171  0.0462 -0.1922
38329W        W38529   0.273   0.858   9.435  0.2049 -0.1361 -0.0307
38330W        W38530  11.202  16.674   4.157 -0.0996  0.0769 -0.1708
38331W        W38531  13.912   7.061   2.744 -0.0190  0.2804  0.5401
38332W        W38532   7.773   3.793   3.092  0.0127 -0.0621  0.1735
38333W        W38533   8.106   3.863  14.877  0.2071  0.1279  0.4709
38334W        W38534   9.004  17.304   3.665 -0.3462  0.2646  0.2982
38335W        W38535   8.527  12.673   9.339 -0.0862  0.2671  0.0811
38336W        W38536  13.149   4.681   3.703 -0.1007  0.0139 -0.4284
38337W        W38537  10.286  15.380  14.218  0.2019  0.0118 -0.2171
38338W        W38538  12.891   1.760   2.521 -0.2980  0.1817 -0.1431
38339W        W38539   8.047  17.426   8.663 -0.0604  0.1783  0.0608
38340W        W38540   2.418   3.281   6.719 -0.3138 -0.1875  0.1403
38341W        W38541   1.116  15.839   2.714  0.0396  0.2044  0.1638
38342W        W38542   8.736  16.801  17.618  0.0504 -0.2168 -0.0606
38343W        W38543  11.554  13.344   5.154  0.2112 -0.0130  0.0367
38344W        W38544  17.583  16.901   4.961 -0.0549 -0.0655 -0.1032
38345W        W38545   7.736  14.953  14.373 -0.2693  0.1882  0.0848
38346W        W38546  12.483  14.446   1.993  0.1268  0.1642 -0.2097
38347W        W38547  14.826  17.151   3.550  0.0966  0.0590  0.2131
38348W        W38548   1.879   0.643  11.644  0.0307  0.3429 -0.2028
38349W        W38549   7.653  16.956  11.438  0.0449  0.1574  0.1182
38350W        W38550  12.126  16.615   2.321  0.1067  0.1822 -0.0588
38351W        W38551   0.277  14.971  17.218  0.1937  0.2893  0.0854
38352W        W38552  13.527  16.377  17.257  0.0710 -0.0776  0.1281
38353W        W38553   9.419   8.349   5.473 -0.2305 -0.2119  0.0510
38354W        W38554   7.818  11.136   9.757 -0.0518  0.2756  0.1692
38355W        W38555  15.281  12.862   7.113 -0.1556 -0.0980  0.0970
38356W        W38556   6.240   2.299  17.326 -0.0654  0.0655  0.1680
38357W        W38557  12.009  10.763  14.881  0.2215 -0.0740 -0.0485
38358W        W38558   8.867   0.105   1.330 -0.1981  0.2034  0.1358
38359W        W38559  15.705   4.003   7.860  0.0417  0.3192 -0.2991
38360W        W38560   3.176  15.559   9.828 -0.1303  0.0158  0.0211
38361W        W38561  11.932   3.262   5.012  0.0334  0.0485  0.1991
38362W        W38562   5.818  14.918  17.584 -0.0476  0.2038 -0.0860
38363W        W38563   8.765  11.075  15.381 -0.2451  0.1886 -0.2037
38364W        W38564  17.263  16.163  12.666 -0.1010 -0.1404 -0.3205
38365W        W38565  15.109   1.944  15.243  0.0128  0.0950 -0.0619
38366W        W38566  12.760   6.876   0.816 -0.0119  0.3221  0.1174
38367W        W38567  15.480  14.384   4.471 -0.1019  0.0588 -0.1101
38368W        W38568   3.535  12.937  11.416 -0.0378 -0.1166 -0.0617
38369W        W38569   0.726  15.363   9.950 -0.2232 -0.4370 -0.0457
38370W        W38570   0.383  13.940   4.945 -0.0610 -0.2889 -0.1270
38371W        W38571  16.452  13.429   5.120  0.2129  0.3237 -0.2023
38372W        W38572  12.036  12.904  15.019 -0.1638 -0.1148  0.1627
38373W        W38573  12.639  10.777   3.719 -0.1308  0.1212 -0.0694
38374W        W38574   3.186   1.677   1.916  0.3088  0.2040  0.0518
38375W        W38575   5.975   0.359  13.992  0.0827  0.1856 -0.1762
38376W        W38576  10.857   0.157   4.323  0.0267 -0.2497  0.2813
38377W        W38577  10.497  16.355  16.976  0.2551  0.0911  0.0954
38378W        W38578   7.213  14.909   1.595 -0.1343  0.0652 -0.0878
38379W        W38579  11.673  15.519   2.488 -0.0447  0.1932  0.2598
38380W        W38580  10.493  13.500   5.987 -0.0591 -0.0206 -0.2862
38381W        W38581  14.681  17.574   0.726  0.0996  0.4937 -0.1932
38382W        W38582   7.356   4.728   1.098 -0.4139 -0.1853  0.1905
38383W        W38583   1.368   4.480  12.300 -0.0261 -0.2260 -0.2201
38384W        W38584  10.118   2.920   2.180  0.1349 -0.1992 -0.1911
38385W        W38585  17.348  17.453   9.754 -0.0764  0.1115 -0.1139
38386W        W38586  17.969  16.837   9.070  0.0492  0.0806 -0.0315
38387W        W38587  12.944  12.074  17.716  0.2911  0.0721  0.1291
38388W        W38588   0.543   0.789  10.317 -0.2646 -0.2640 -0.0571
38389W        W38589   3.705   2.880   0.736  0.0469 -0.0284 -0.0433
38390W        W38590  12.709  12.237  14.279 -0.3339 -0.0931  0.5131
38391W        W38591   2.605  13.502   6.262 -0.1633  0.1108 -0.0938
38392W        W38592  11.256   5.626  17.284 -0.0090 -0.2051  0.0286
38393W        W38593  16.424  14.588   8.661 -0.1523  0.1967  0.1183
38394W        W38594  11.817  10.323  14.935  0.0492  0.2657  0.2439
38395W        W38595   2.938   7.435  17.304  0.0918 -0.0546  0.0722
38396W        W38596  15.884  16.755   3.171  0.0342 -0.0958  0.1547
38397W        W38597  13.555   0.581   0.738 -0.1137  0.0644 -0.2051
38398W        W38598  15.224  14.863  11.865 -0.0138 -0.3610 -0.1411
38399W        W38599  14.983   1.226   3.850  0.0527  0.2184 -0.1102
38400W        W38600  17.736  18.002   5.213  0.1157  0.0386  0.1344
38401W        W38601  11.323   9.274  16.974 -0.1412 -0.3760 -0.1561
38402W        W38602  11.820   3.712  17.922  0.0404 -0.0108 -0.2765
38403W        W38603  11.120   0.508   1.434 -0.0653 -0.1816  0.2745
38404W        W38604   8.188  16.661   4.671 -0.0419 -0.5949 -0.2668
38405W        W38605  11.501  16.877  14.363 -0.2883  0.2151  0.1066
38406W        W38606  17.439  14.895  15.435 -0.1333 -0.0060  0.0031
38407W        W38607   9.894  14.541  11.590 -0.0757  0.0754 -0.1060
38408W        W38608  15.572  12.040   3.469  0.1093  0.1882 -0.4200
38409W        W38609  16.560  13.268   0.116  0.0679 -0.0358 -0.0025
38410W        W38610  14.631   0.981  14.075 -0.2353  0.2374 -0.1126
38411W        W38611  16.808  16.272   6.153  0.3620  0.1824 -0.4446
38412W        W38612   9.736   9.281  14.711 -0.0399  0.0242 -0.2360
38413W        W38613  10.119  16.482   6.951 -0.1025  0.3822 -0.4064
38414W        W38614   8.617  13.117   3.134  0.1123  0.0058  0.0684
38415W        W38615  16.918  11.637  13.553 -0.0725 -0.1310  0.0266
38416W        W38616   2.063   3.058   7.618 -0.0368 -0.2651 -0.0928
38417W        W38617   7.824  13.023   8.727 -0.0144  0.0779  0.1805
38418W        W38618   2.809   9.140   3.057  0.2934  0.1178 -0.1256
38419W        W38619  15.338   2.423   7.197  0.1262  0.0571  0.1292
38420W        W38620   7.137   7.350  10.612 -0.1834  0.2098 -0.1841
38421W        W38621   5.794   0.528   7.097 -0.1619  0.0276  0.0412
38422W        W38622  10.959  17.119   6.002 -0.0813 -0.4139  0.0219
38423W        W38623  10.392  15.485  14.749  0.0175  0.0892  0.1034
38424W        W38624  13.801  15.782   2.087  0.3757  0.2835 -0.2147
38425W        W38625   6.355  12.224   0.803  0.3019 -0.3501 -0.2021
38426W        W38626   0.003   4.846   7.581  0.3107  0.0794 -0.2431
38427W        W38627  16.566  16.465   7.690 -0.1445  0.0601 -0.3278
38428W        W38628  13.413   9.106   2.944  0.1216 -0.0884 -0.0251
38429W        W38629  11.803   5.930  16.448 -0.2034 -0.2144  0.1028
38430W        W38630  11.486  10.519   7.975  0.0120 -0.1650 -0.1540
38431W        W38631  12.840   0.417  11.804  0.2179 -0.1674 -0.1341
38432W        W38632  15.502  14.622   0.935  0.0503 -0.3547  0.0981
38433W        W38633  12.719  14.044   6.881 -0.1102  0.0801 -0.5442
38434W        W38634   0.854   2.679  12.279 -0.0274 -0.3684  0.2078
38435W        W38635   8.410  11.295  13.462 -0.0234  0.2933  0.1211
38436W        W38636   8.346  14.925   5.092 -0.0099  0.1311  0.0707
38437W        W38637   6.724  15.228   7.373 -0.1415  0.0498 -0.0641
38438W        W38638  12.768  15.143  12.764  0.1607 -0.1006 -0.0470
38439W        W38639  15.734   2.092   8.683 -0.0736 -0.0264 -0.0887
38440W        W38640   4.177  15.644   5.548  0.4481 -0.1741 -0.1154
38441W        W38641   5.947  15.057   5.924  0.1139 -0.0340 -0.1922
38442W        W38642   9.915   5.456  15.389  0.1501 -0.0878  0.3143
38443W        W38643  13.709  18.201   4.886  0.2832 -0.2406  0.0669
38444W        W38644  12.884  14.593   6.194  0.1271 -0.1847 -0.0928
38445W        W38645   3.351   8.400   6.791  0.0364  0.2308  0.2625
38446W        W38646  14.781   0.882  13.533  0.1784  0.0960 -0.2337
38447W        W38647   8.916  14.695  13.730  0.1042  0.1610  0.1187
38448W        W38648  13.001   9.775   1.849  0.6781 -0.3790  0.0668
38449W        W38649  12.251  14.634   2.873 -0.0253 -0.4052  0.1196
38450W        W38650   0.585   1.397   8.762 -0.0464 -0.0514  0.2735
38451W        W38651  17.480   0.803  17.638  0.3330 -0.1461 -0.1440
38452W        W38652  10.325   7.657  11.298  0.2667  0.0296 -0.2656
38453W        W38653  15.066  17.628   3.587 -0.1930 -0.2315  0.1097
38454W        W38654   7.612   1.260   4.662  0.0295  0.1716 -0.1316
38455W        W38655  10.318  15.538   6.740  0.2151 -0.2375  0.1681
38456W        W38656   7.823  16.474   2.424 -0.3918  0.0145  0.1473
38457W        W38657  11.568   6.232   7.549  0.2934  0.0715 -0.4264
38458W        W38658  10.226   1.954  13.368 -0.0144 -0.1645 -0.5368
38459W        W38659   4.387  13.773   9.118 -0.2500 -0.3908 -0.4417
38460W        W38660  12.489   0.872   8.285 -0.1053  0.0820  0.2066
38461W        W38661   0.441  17.726  10.386 -0.1887  0.0538  0.2011
38462W        W38662   4.546   1.558   4.702 -0.0765 -0.0756  0.1451
38463W        W38663   6.859  17.453   3.929 -0.3465  0.0044  0.2119
38464W        W38664  13.347   6.472   5.784  0.5825 -0.2655 -0.0074
38465W        W38665   5.529  15.720   1.010 -0.0495 -0.4093 -0.1597
38466W        W38666  16.921   0.682  11.843  0.3638  0.1094 -0.0251
38467W        W38667   7.639  12.818   3.972  0.2276 -0.2142  0.5011
38468W        W38668   9.385   4.578   2.715 -0.3975 -0.0039 -0.4300
38469W        W38669  14.771   2.180  14.312  0.0770 -0.1273 -0.1581
38470W        W38670  17.552   1.027   5.771 -0.0342 -0.1556 -0.2478
38471W        W38671  15.532   5.416  10.776  0.0404 -0.0599  0.0872
38472W        W38672  10.074   5.148  17.343 -0.1301 -0.1164  0.0858
38473W        W38673  11.185   1.695   5.577 -0.0955  0.0625 -0.0828
38474W        W38674  17.038   1.810   8.671 -0.1463  0.0402  0.0314
38475W        W38675  16.613  17.824   4.677  0.0143 -0.1418  0.0040
38476W        W38676  11.117  18.093   5.827 -0.0514  0.0849 -0.0761
38477W        W38677   8.421  15.515   2.822 -0.2283  0.3651  0.0996
38478W        W38678   5.480  10.890   6.523  0.1942 -0.0039  0.2494
38479W        W38679  14.388   1.899  14.511  0.0526  0.0215  0.1424
38480W        W38680  14.928   9.153   0.112  0.2621 -0.1002 -0.0740
38481W        W38681   8.385   9.494  16.683  0.1391  0.2002 -0.1059
38482W        W38682  17.383   0.574   0.423 -0.0147  0.1704 -0.2355
38483W        W38683  10.457   1.870   9.390 -0.0920 -0.0347 -0.1833
38484W        W38684  16.429  16.571   6.551 -0.0169  0.0549 -0.1820
38485W        W38685  15.207  17.443  10.072 -0.1557 -0.0195 -0.2808
38486W        W38686   4.109   2.187   9.884 -0.1261 -0.1446  0.2329
38487W        W38687   9.581  17.623   6.142 -0.1087 -0.0712 -0.1345
38488W        W38688  14.731  14.575   6.597  0.2273  0.0412  0.3030
38489W        W38689   7.764  10.297   8.604  0.0884  0.1420  0.1779
38490W        W38690  12.310  13.403  14.199  0.0716 -0.0687  0.0469
38491W        W38691   5.429   0.938   4.719 -0.2599  0.4068  0.2819
38492W        W38692   6.967   2.451   1.769 -0.1936  0.0567 -0.3475
38493W        W38693  16.994  11.818   2.809 -0.1799 -0.0859  0.2373
38494W        W38694  10.646   0.803  13.431  0.0523 -0.0985 -0.2351
38495W        W38695   9.726   2.112   5.491  0.1339  0.2286 -0.1221
38496W        W38696  17.676   9.644   1.311 -0.3481  0.1484  0.1262
38497W        W38697  16.126  15.775   8.373 -0.3103 -0.0699  0.0971
38498W        W38698  14.411   2.128   4.904  0.1820 -0.2976  0.1465
38499W        W38699  12.232  15.305  11.495  0.2044  0.0107  0.2062
38500W        W38700   3.245  12.481   2.419  0.2766 -0.2482  0.1347
38501W        W38701   9.061   1.867  11.980 -0.0087 -0.0130  0.2166
38502W        W38702   8.384   0.089   7.530  0.0339  0.2370  0.1228
38503W        W38703   8.644   9.281   6.974 -0.0486  0.1664  0.0507
38504W        W38704   0.774  11.949  17.454  0.3401  0.1057 -0.1903
38505W        W38705  12.046   0.315   3.766  0.1833 -0.1446 -0.4094
38506W        W38706   7.784  11.969   6.114  0.0078  0.0373  0.1844
38507W        W38707   2.123  14.492   8.428 -0.0370  0.3163  0.1386
38508W        W38708  12.332   9.339  10.576  0.2585  0.2044  0.2948
38509W        W38709  10.059   1.029   2.196 -0.4775  0.3037 -0.1262
38510W        W38710   2.714  11.116   1.566 -0.0030  0.2974 -0.1059
38511W        W38711  11.471  12.313  15.172  0.2496 -0.0209 -0.0672
38512W        W38712  16.762  17.594   8.671 -0.1038  0.0991  0.0140
38513W        W38713  14.139  10.293  13.975  0.1690 -0.2493  0.0955
38514W        W38714  17.746  11.159   7.622 -0.0352 -0.0396 -0.1019
38515W        W38715   6.941   2.863  16.366 -0.1824  0.2013 -0.2478
38516W        W38716   2.169  10.650   0.853  0.0805  0.0525 -0.0542
38517W        W38717   2.416  11.846   6.222 -0.3503 -0.2336  0.0697
38518W        W38718  11.654  16.079  17.900  0.0400  0.0084  0.0305
38519W        W38719  12.553  13.551   4.803 -0.3792 -0.1083  0.2429
38520W        W38720  18.129  18.089   7.750 -0.1625 -0.1111  0.0708
38521W        W38721  14.732  13.546   0.656 -0.0947  0.1301 -0.1939
38522W        W38722  14.926   5.709  14.961  0.0239 -0.1772 -0.1723
38523W        W38723   0.295  18.019   7.407  0.2248  0.1520  0.1892
38524W        W38724  16.113  13.080   5.386  0.2660  0.0233 -0.2853
38525W        W38725  12.787  16.396   9.669 -0.0211  0.0244  0.2145
38526W        W38726   0.161  16.576  12.823 -0.2377 -0.2650 -0.2101
38527W        W38727  12.932  13.706   2.508  0.1688  0.1128 -0.2638
38528W        W38728  15.228   9.799  11.021  0.1685 -0.3438 -0.2455
38529W        W38729  13.009  13.988   9.660  0.2013 -0.1163  0.1353
38530W        W38730   6.127  11.899   6.900  0.0245  0.0021 -0.1861
38531W        W38731  12.530   3.204   9.045 -0.1105  0.0112  0.0979
38532W        W38732   4.784   2.991   6.598  0.3113  0.5408 -0.1343
38533W        W38733   6.524   0.460   9.328 -0.0024  0.1881  0.1210
38534W        W38734   1.972   4.987   7.961 -0.1135 -0.4315  0.1056
38535W        W38735   8.918  14.928  11.765 -0.2163 -0.0844  0.0151
38536W        W38736  15.907  12.882   1.789  0.1109 -0.0163  0.1407
38537W        W38737   7.790  10.688   1.364 -0.1019  0.0881  0.0832
38538W        W38738   2.602  15.498   1.650  0.1476  0.0431  0.2589
38539W        W38739   7.107  15.993   6.526  0.2393  0.0511  0.2147
38540W        W38740  15.283  10.854   1.822  0.3904 -0.4864  0.0902
38541W        W38741  13.086  12.517   4.078 -0.0332  0.1558 -0.0937
38542W        W38742  12.819  14.503   3.473  0.1541 -0.0090  0.0283
38543W        W38743  17.075   9.759   4.804  0.1402  0.0392  0.0791
38544W        W38744   3.092  17.637   2.836 -0.3082 -0.1392 -0.1751
38545W        W38745  13.809   1.332   4.948  0.0817 -0.0415 -0.4430
38546W        W38746   7.043   5.436   4.855  0.1304 -0.0395 -0.0337
38547W        W38747  10.207   9.084   4.260 -0.0312  0.0253 -0.0180
38548W        W38748   4.054  14.244   5.583  0.0308  0.1529 -0.3545
38549W        W38749  13.869   3.460   7.294  0.0285  0.2303  0.0496
38550W        W38750   3.822   3.502   9.690  0.0138 -0.2011 -0.3197
38551W        W38751   2.214  18.117  13.181  0.2004 -0.1714 -0.1610
38552W        W38752  10.420   8.255   0.363 -0.3771  0.0240 -0.2383
38553W        W38753  11.053  16.161  12.348 -0.0380  0.0010 -0.0914
38554W        W38754  12.557  11.719   1.099  0.2281 -0.0554 -0.1589
38555W        W38755  13.749  13.648   6.754  0.1674  0.0930 -0.1347
38556W        W38756  13.166   3.245   9.701  0.2527  0.0249 -0.2193
38557W        W38757  16.566   1.767  17.892  0.4516  0.2850 -0.3323
38558W        W38758  11.868   1.589  14.724  0.0911 -0.2737 -0.0089
38559W        W38759   1.769   9.695  12.990  0.1241  0.2753  0.2461
38560W        W38760   9.760  16.821   9.852 -0.1720 -0.0286  0.3236
38561W        W38761  13.274  16.207  10.616  0.0495  0.1467 -0.0946
38562W        W38762  13.520  14.882  10.469  0.2458 -0.2160 -0.0043
38563W        W38763   3.883   2.681   9.859 -0.1591  0.0316  0.1108
38564W        W38764  11.340   6.501  11.619 -0.1242 -0.4414  0.0914
38565W        W38765   0.949  16.562   7.812  0.2161 -0.1070  0.1884
38566W        W38766  11.551   0.238   5.990  0.0934 -0.0802  0.0161
38567W        W38767   1.998   1.290   9.250  0.0596 -0.0470 -0.1846
38568W        W38768  12.171  17.383   8.260 -0.0854 -0.0797 -0.2352
38569W        W38769  15.096   0.753   8.574  0.3317  0.1926  0.0463
38570W        W38770   9.204   1.132  15.012 -0.1654  0.0973  0.2058
38571W        W38771  13.563   9.025   7.634 -0.0448  0.4646 -0.2344
38572W        W38772  15.386   3.641   7.071 -0.1411  0.0541  0.1430
38573W        W38773   7.436   4.674  13.946 -0.2647  0.4321 -0.1857
38574W        W38774  14.976  14.356   5.929 -0.1029  0.1226 -0.2380
38575W        W38775  11.186   0.173  17.233  0.1130 -0.1441  0.2154
38576W        W38776  13.320  16.861   3.187 -0.2235  0.0438  0.0764
38577W        W38777   1.881  14.205   6.379  0.0174 -0.5235 -0.2550
38578W        W38778  17.270  17.035   6.173 -0.2837 -0.0974  0.0639
38579W        W38779  14.856  13.231  17.855 -0.0926 -0.0581 -0.2093
38580W        W38780  15.003   3.288   1.207 -0.1922  0.0097  0.2005
38581W        W38781   9.718  13.220   8.883  0.2283 -0.1055  0.2925
38582W        W38782   0.798   1.614   0.830  0.0035  0.2723  0.1952
38583W        W38783   8.350   9.949   7.625  0.0048 -0.0856 -0.1331
38584W        W38784  17.024   5.137   4.828  0.0483  0.1449 -0.2319
38585W        W38785  10.192   2.988   1.672  0.3984  0.2163  0.0798
38586W        W38786   6.993  17.714   1.891  0.4249 -0.1667  0.2017
38587W        W38787  16.841   4.335  15.781  0.1846  0.0855  0.0350
38588W        W38788  12.892  16.663   1.633 -0.0531  0.1308  0.2094
38589W        W38789  11.548  13.814  14.343 -0.0987 -0.1853  0.0112
38590W        W38790  17.418   9.978   7.187 -0.3422 -0.2968  0.2993
38591W        W38791   8.592  13.694   7.459  0.0772 -0.1874  0.0632
38592W        W38792  11.738   6.822  15.511  0.2767  0.1755 -0.0076
38593W        W38793   5.125  15.518   4.271 -0.1387  0.0273  0.2394
38594W        W38794  17.231   0.985   5.376 -0.1328  0.2231  0.1075
38595W        W38795  11.399  13.305   9.493  0.2395  0.0655  0.2148
38596W        W38796  12.435   4.034  17.589 -0.1635 -0.2717 -0.0923
38597W        W38797  12.848   9.853  10.224  0.1045 -0.0313  0.0490
38598W        W38798   2.551  12.963   2.609 -0.0633  0.1061  0.3257
38599W        W38799   9.364  11.564   4.439 -0.3215  0.0504 -0.0030
38600W        W38800   8.314  12.700   4.528  0.0184 -0.2454  0.0495
38601W        W38801  11.305  17.692   9.782 -0.1390 -0.3633 -0.2193
38602W        W38802  14.449  10.336   4.689  0.4302 -0.1703 -0.0785
38603W        W38803   7.439  10.489  15.452  0.1504 -0.1697 -0.2115
38604W        W38804  17.431   1.695  17.327  0.1629 -0.5067 -0.0343
38605W        W38805  17.352   7.856   6.282  0.1694  0.0584  0.1964
38606W        W38806  14.347  15.054   2.458  0.0941 -0.2845 -0.1188
38607W        W38807  14.206   3.461  16.736  0.1591  0.1495  0.3454
38608W        W38808  11.535   5.010   2.213  0.0475  0.0442 -0.0296
38609W        W38809  10.774  16.118   1.505 -0.0125  0.1762  0.0528
38610W        W38810  13.970   7.401   5.191 -0.0392 -0.1349  0.1391
38611W        W38811  11.349  12.266   3.995  0.2365 -0.4590 -0.1252
38612W        W38812  10.213  13.216  15.983  0.3604  0.4421 -0.0409
38613W        W38813  16.756  17.261   2.510 -0.1008  0.3502 -0.1875
38614W        W38814   7.190  10.754  13.068 -0.1891  0.0143 -0.2275
38615W        W38815   8.583  14.128   8.575  0.0188 -0.1146  0.1149
38616W        W38816  15.402   1.237   2.206 -0.1739 -0.1148  0.0503
38617W        W38817  10.019   2.000   6.347  0.0058  0.0928  0.0618
38618W        W38818  15.103   4.988   1.817  0.1842 -0.2125 -0.2740
38619W        W38819   3.282  13.299   8.201  0.0155 -0.2368 -0.0010
38620W        W38820   7.555   2.205   9.209  0.2186  0.0869 -0.0444
38621W        W38821   7.264  11.281  12.260 -0.0852  0.1081 -0.1087
38622W        W38822  12.802  17.887  11.038  0.1502 -0.0994 -0.0606
38623W        W38823  10.367  15.613   9.715  0.0165  0.1656  0.0544
38624W        W38824  13.031  16.212  11.602  0.0014 -0.2995 -0.1797
38625W        W38825   0.835   0.547   1.987  0.1851  0.3029  0.0501
38626W        W38826   2.593  16.872   3.764 -0.1611  0.1503  0.3484
38627W        W38827   3.560   0.231   2.266 -0.1620  0.2995 -0.1733
38628W        W38828  17.949   4.495   7.353  0.0915  0.2423  0.1446
38629W        W38829   8.873  14.594   9.549  0.3385 -0.0458  0.1092
38630W        W38830  14.697   0.598  10.101  0.1756 -0.2841  0.0203
38631W        W38831  15.262  15.619  10.435 -0.3907  0.3713  0.3718
38632W        W38832  12.570   5.699   0.772  0.1135 -0.1728  0.1138
38633W        W38833  14.022   7.806  16.792 -0.0197 -0.0468 -0.0310
38634W        W38834  13.731  16.970  17.166  0.2818  0.0850  0.0822
38635W        W38835   1.667   1.266   5.511  0.2164 -0.0888  0.1349
38636W        W38836  17.080  10.291   2.183 -0.1446  0.3045 -0.2375
38637W        W38837   2.511  17.504   6.584  0.0001 -0.2217 -0.1762
38638W        W38838  14.346   2.328  13.547 -0.0453 -0.2597 -0.1248
38639W        W38839  17.651   4.827  16.700 -0.0482 -0.1285 -0.0008
38640W        W38840  11.775  14.637   7.896 -0.2137  0.2144  0.0231
38641W        W38841  12.135   1.058  17.570  0.0456 -0.0187  0.1960
38642W        W38842  13.064   4.260  10.733  0.0262  0.0733  0.3669
38643W        W38843  10.549  11.609  11.558 -0.1858 -0.1470 -0.2508
38644W        W38844   5.635  16.895   9.047  0.0713 -0.1556  0.2412
38645W        W38845   1.652  15.166   9.216  0.0934 -0.0388 -0.0175
38646W        W38846   1.032  14.239   2.392  0.0157 -0.1601  0.2289
38647W        W38847   1.010  14.001  17.495 -0.3520  0.2273  0.0793
38648W        W38848  14.280  17.567  14.056 -0.1185 -0.0766  0.1297
38649W        W38849  16.305   0.475   4.053  0.1197  0.3032  0.1277
38650W        W38850   2.526   2.524   3.121 -0.1905 -0.2920  0.0956
38651W        W38851  10.978  16.023   6.956  0.0370  0.0748 -0.2528
38652W        W38852   2.345  15.231   4.760 -0.1335  0.2080 -0.2739
38653W        W38853  14.094  12.187  10.162 -0.1804 -0.0279 -0.2006
38654W        W38854  17.649  12.602   9.370 -0.0993 -0.1754 -0.0876
38655W        W38855  13.798   5.002   3.090 -0.2155 -0.0846  0.3663
38656W        W38856  11.635  13.240   8.245  0.0405  0.1150 -0.2127
38657W        W38857   7.154  14.877   3.186  0.3517 -0.1041 -0.1805
38658W        W38858   9.442  14.221  15.429  0.2768  0.0499 -0.0545
38659W        W38859  18.023  13.689   4.640 -0.0636  0.1606  0.2962
38660W        W38860  14.241   9.904  16.202  0.1912  0.0577  0.0811
38661W        W38861  16.622  14.515   1.092  0.1529  0.0122  0.6566
38662W        W38862  12.147   1.565   2.201 -0.1897  0.0794  0.0572
38663W        W38863  13.909  10.515   1.486  0.0141  0.1637  0.1006
38664W        W38864  11.573  14.301   4.590 -0.1354 -0.0945  0.0427
38665W        W38865  13.192   4.864   6.148 -0.0338  0.1653  0.2918
38666W        W38866  17.965   3.312   7.440 -0.2379  0.1098  0.0707
38667W        W38867  15.114  12.908   9.148 -0.5339  0.0277 -0.3935
38668W        W38868  16.480  13.350   3.351  0.1761 -0.2592  0.0029
38669W        W38869   9.554   0.809   7.101 -0.0939 -0.2025  0.1997
38670W        W38870  13.082  18.130   7.988  0.2168 -0.4261 -0.3665
38671W        W38871   8.866  12.641   2.028  0.0301  0.2708 -0.1296
38672W        W38872  18.200  11.228  11.708 -0.1466  0.2024 -0.0349
38673W        W38873   1.106  11.813   8.592  0.1255 -0.0699  0.1601
38674W        W38874   7.066   5.573  10.782  0.0188 -0.0030  0.1839
38675W        W38875   8.161   3.447   8.529 -0.1371 -0.3473 -0.0544
38676W        W38876  14.434   0.353  14.131 -0.1129 -0.0959 -0.0345
38677W        W38877  14.447  13.430  13.900 -0.0628 -0.2854  0.0071
38678W        W38878   5.881   1.882   3.574 -0.0242  0.2304  0.2439
38679W        W38879  12.830  18.131   3.642  0.0292 -0.0011  0.0932
38680W        W38880   0.177  16.175  12.061  0.1039 -0.0195 -0.0266
38681W        W38881  15.780  15.366  10.156  0.1050  0.1364 -0.0679
38682W        W38882  17.704  16.474  10.368  0.1306  0.0528 -0.1272
38683W        W38883   0.661  10.481   4.931  0.0160 -0.0256 -0.3465
38684W        W38884   0.872  15.138  13.015  0.1120  0.4267 -0.0514
38685W        W38885  15.809   0.667  13.041 -0.1097  0.1351 -0.2750
38686W        W38886  10.555  17.233  11.321 -0.0469  0.0454  0.1520
38687W        W38887  16.114  15.621   3.649  0.0046  0.1807  0.0252
38688W        W38888   0.300  15.762   4.803 -0.0984 -0.1427  0.1600
38689W        W38889  14.682  17.923   9.853  0.0333 -0.0946 -0.2182
38690W        W38890  15.675   1.331   2.610 -0.1943 -0.0543 -0.1631
38691W        W38891   1.525  11.874  12.841 -0.0057  0.3168 -0.1475
38692W        W38892   6.754  14.858  13.958  0.1705  0.1661 -0.0427
38693W        W38893  11.589  17.001   8.699  0.2458 -0.1341 -0.0879
38694W        W38894   3.043   0.235   8.139 -0.0046  0.1921 -0.1934
38695W        W38895  17.915  17.310   3.686  0.1387  0.1973 -0.1366
38696W        W38896  10.463   3.960   4.452  0.1311 -0.1707  0.1466
38697W        W38897   6.808   1.326   9.939  0.0179  0.1168  0.2685
38698W        W38898   4.716   0.620  15.365 -0.3131 -0.0550 -0.1612
38699W        W38899  11.436  11.267   4.594  0.1810  0.1179  0.0025
38700W        W38900   8.081  17.428  17.318  0.1694  0.1236 -0.4072
38701W        W38901  17.947  18.204   2.042  0.1503 -0.2891  0.1750
38702W        W38902   4.110  14.762  11.080 -0.0438 -0.3107  0.1599
38703W        W38903   0.460  13.025   3.814 -0.2057  0.0579  0.1068
38704W        W38904  13.992  14.058   6.064  0.0596  0.0457  0.3772
38705W        W38905  10.818   4.094   8.254 -0.2910 -0.0785 -0.2498
38706W        W38906   8.077   6.050   4.706  0.1331 -0.1054 -0.3301
38707W        W38907   5.632  17.210  16.569  0.0619 -0.1519 -0.1865
38708W        W38908  15.662  10.748  17.812  0.1056  0.0114  0.1602
38709W        W38909  12.747  15.441  11.607 -0.1235 -0.2240  0.0340
38710W        W38910  15.036   3.126   4.285  0.0281 -0.1660 -0.0096
38711W        W38911  12.395   2.095   9.766 -0.2191 -0.1763 -0.0419
38712W        W38912  11.939  10.542   2.922 -0.0680 -0.0154 -0.2414
38713W        W38913   3.367  13.862   9.441  0.1854 -0.1468  0.0694
38714W        W38914  11.224   7.456   8.451  0.2024  0.2182  0.0020
38715W        W38915  16.682  10.200   4.525 -0.1628  0.0227  0.2224
38716W        W38916  10.292  13.201   5.243  0.1659 -0.0420  0.2943
38717W        W38917  17.004  10.129  17.958 -0.0067  0.0969  0.0743
38718W        W38918  15.351   8.864   8.079 -0.3861 -0.0155  0.0663
38719W        W38919   0.981  17.555   8.589  0.2381 -0.1820  0.2055
38720W        W38920  15.488   4.358  10.819 -0.3283 -0.0474  0.0617
38721W        W38921  11.575   7.027   7.161  0.0806 -0.1966  0.1104
38722W        W38922   6.045  10.126   7.012  0.0434 -0.2091 -0.2507
38723W        W38923  11.953   3.984   4.369  0.1791 -0.4727  0.0859
38724W        W38924  13.869  14.080   0.816  0.0232 -0.1626 -0.1873
38725W        W38925  11.339  13.588  10.307 -0.2132  0.3181  0.2227
38726W        W38926  15.239   2.427  10.761 -0.1525  0.0984 -0.0488
38727W        W38927   1.535   6.770  12.327 -0.4099  0.0082  0.0357
38728W        W38928  16.703  14.768  10.830  0.2611 -0.2500  0.0493
38729W        W38929   7.713  12.783  11.152 -0.0845 -0.0688 -0.0456
38730W        W38930  17.232   8.258   7.603  0.0991 -0.1004  0.1571
38731W        W38931   5.767  14.581   5.988  0.5674  0.0726  0.0952
38732W        W38932  13.920   6.708   9.739  0.2648 -0.1328  0.1476
38733W        W38933  12.918   2.404  10.966  0.4469 -0.2055 -0.0449
38734W        W38934   1.185   2.216   6.738 -0.0979  0.3200 -0.0526
38735W        W38935  16.773  10.881   5.329 -0.2549 -0.3288 -0.0265
38736W        W38936  11.451  15.800   2.965  0.0281  0.2239 -0.1359
38737W        W38937  11.984  12.896   7.561 -0.1372  0.2427  0.2835
38738W        W38938  14.123  14.375   1.319  0.1635  0.0825  0.1805
38739W        W38939   1.388  11.939   3.970 -0.0828 -0.3093 -0.0720
38740W        W38940  16.888  15.857  14.069  0.0198  0.1118  0.0081
38741W        W38941  13.685   6.399  11.316 -0.0844 -0.1137 -0.2901
38742W        W38942  13.005  17.674  17.539 -0.0925  0.0372 -0.1680
38743W        W38943   7.609  10.798   0.156 -0.2381 -0.1723  0.1478
38744W        W38944  12.395   2.330   7.305 -0.1820  0.3695  0.0779
38745W        W38945   7.235  11.848  14.036 -0.0187  0.0694  0.0934
38746W        W38946  16.288  10.455   4.706 -0.3055 -0.1250 -0.1678
38747W        W38947  15.204  10.938   8.356 -0.2394  0.0058  0.0640
38748W        W38948   0.648   2.019   5.636 -0.3839 -0.2418 -0.0129
38749W        W38949  13.236   6.457  10.585 -0.0334  0.3535 -0.2630
38750W        W38950   2.457  17.960   7.318  0.2175 -0.3174 -0.0792
38751W        W38951   1.116   4.950   9.017 -0.0018 -0.1765  0.1737
38752W        W38952   6.087  15.038   3.956  0.0404 -0.2691 -0.0404
38753W        W38953   8.103   2.491   7.870 -0.0901 -0.1716  0.0259
38754W        W38954   8.739   1.913   6.764  0.1296 -0.0176  0.0327
38755W        W38955   8.943   0.390   2.220 -0.0423 -0.1363 -0.0131
38756W        W38956   8.713  17.435   0.936  0.0738 -0.2731  0.1453
38757W        W38957   1.041  14.073   9.746 -0.3049 -0.2578  0.1658
38758W        W38958   6.939  14.738  18.062 -0.1797  0.2294 -0.0705
38759W        W38959  16.499   9.296   1.154  0.2804  0.0199 -0.0155
38760W        W38960  13.657  17.314   7.864  0.0299 -0.2412 -0.2073
38761W        W38961   8.683   7.413  12.415 -0.1587 -0.1338 -0.1005
38762W        W38962   0.291  14.870   5.787 -0.0668  0.1817  0.2261
38763W        W38963  17.437  15.396   2.109 -0.1880  0.2808 -0.1708
38764W        W38964  15.347  14.962   3.612  0.0721 -0.0510 -0.0745
38765W        W38965   2.167  15.768   6.194  0.0881 -0.0590 -0.2140
38766W        W38966  12.113   1.174   6.506 -0.1275 -0.0750  0.2469
38767W        W38967   3.918  17.203   2.937 -0.0872 -0.0989  0.2705
38768W        W38968   2.618   0.936   9.970 -0.2083  0.0768 -0.2487
38769W        W38969   9.293  13.255   9.149 -0.1809  0.2752 -0.0030
38770W        W38970   7.304  16.553   4.728  0.0735  0.2635  0.1797
38771W        W38971  13.670  15.387   9.638  0.1021  0.1991  0.0417
38772W        W38972  16.797   3.096   4.933  0.1763  0.1422 -0.2181
38773W        W38973  11.302  16.721   7.603 -0.2115 -0.1363 -0.1348
38774W        W38974   7.252  14.095   8.646  0.0794 -0.2565 -0.2620
38775W        W38975   0.191  12.022   9.114  0.1704  0.1107  0.1060
38776W        W38976  17.068  15.689   7.951 -0.1181 -0.2371  0.0617
38777W        W38977  12.436   1.653  12.841 -0.2030  0.0590  0.0666
38778W        W38978   8.937   2.230  11.584  0.0862  0.1143  0.1310
38779W        W38979  16.553  13.474   0.849 -0.2866 -0.2399  0.3136
38780W        W38980   0.625  17.266   1.993  0.0015  0.0573  0.1946
38781W        W38981  11.072  14.017   8.472 -0.2546 -0.0363  0.0309
38782W        W38982   9.706  14.549   0.714  0.0277 -0.3461  0.0446
38783W        W38983   2.957   5.205   6.089 -0.0236  0.1101 -0.2348
38784W        W38984  13.762  15.349   4.239 -0.0267 -0.0313 -0.1268
38785W        W38985   2.700   7.925   4.168  0.1847 -0.0914  0.0164
38786W        W38986  16.173  17.137   5.129  0.2086 -0.1554  0.2195
38787W        W38987   8.223  15.021  16.447 -0.0142  0.0131 -0.1753
38788W        W38988   0.144  14.003  12.875  0.0831 -0.0647 -0.0372
38789W        W38989  15.109   4.307  14.826 -0.4313  0.0677  0.0307
38790W        W38990  16.749   7.000   8.806  0.3240  0.3959 -0.1264
38791W        W38991   3.286  17.065  13.750  0.1646 -0.1040  0.1674
38792W        W38992  14.897  13.908   9.155 -0.0902  0.1427 -0.1260
38793W        W38993   4.521   7.340   1.679 -0.2763 -0.3153  0.0662
38794W        W38994   7.244  15.464   1.784 -0.1884 -0.1425 -0.0016
38795W        W38995  14.537  16.523   0.194 -0.0548 -0.1571  0.2369
38796W        W38996   6.374  17.917  12.860  0.0389 -0.1014  0.1013
38797W        W38997   9.050   4.748   6.256  0.2058 -0.0429 -0.1551
38798W        W38998  13.186   6.260   7.555 -0.4302 -0.1138  0.0318
38799W        W38999  15.041   3.859  12.245 -0.0242 -0.1688  0.1493
38800W        W39000  10.329  15.210   2.090 -0.0858  0.2208 -0.3028
38801W        W39001  10.058  14.508   5.999 -0.0865  0.0163  0.1368
38802W        W39002   7.458   6.413  16.698 -0.2273 -0.1641  0.0566
38803W        W39003   4.326   1.697  14.199  0.1540  0.0690  0.3282
38804W        W39004  15.630  16.652   7.060 -0.0175 -0.2701  0.0310
38805W        W39005   5.557   9.375  10.861 -0.0480 -0.3184 -0.2781
38806W        W39006  11.582  14.755  11.771 -0.2838  0.2958 -0.1518
38807W        W39007  14.972  13.085  14.837  0.1313  0.2739  0.0613
38808W        W39008  11.103  11.414  11.530 -0.2788  0.0133  0.0624
38809W        W39009  11.943   0.823  11.059 -0.0270  0.0233 -0.0959
38810W        W39010   9.300   1.499   7.537 -0.0896 -0.0747  0.0718
38811W        W39011  15.588   4.179   9.185 -0.1294  0.2076 -0.0657
38812W        W39012  11.120  18.181   6.994 -0.1066  0.0915  0.2393
38813W        W39013  10.565   7.148   6.453  0.0730  0.0984 -0.2121
38814W        W39014   9.878  12.076   9.900  0.0031  0.0705 -0.1453
38815W        W39015   9.092  17.625  11.878 -0.1127 -0.4197  0.1250
38816W        W39016  12.440  10.375   4.567  0.1861 -0.0597  0.0429
38817W        W39017  10.731   0.871   7.231  0.0162 -0.0535 -0.2996
38818W        W39018  17.694  16.796   8.665  0.0767 -0.3385  0.3139
38819W        W39019  12.809  11.704  12.622 -0.1907  0.2338  0.0696
38820W        W39020   8.864  17.536   8.120 -0.1791  0.2744 -0.4561
38821W        W39021  11.334   2.091  15.013 -0.2717  0.2532  0.2807
38822W        W39022  14.689  13.858  13.867  0.1313  0.0932  0.0157
38823W        W39023  16.065  12.878   2.647  0.0504 -0.1360  0.0157
38824W        W39024   0.649  11.656   6.520 -0.0487 -0.0886 -0.0098
38825W        W39025   8.665  13.191  10.436 -0.3650  0.0268 -0.0871
38826W        W39026   0.001   7.360   4.358  0.1694 -0.0449 -0.0147
38827W        W39027   8.037  14.285  12.586 -0.0802  0.0931  0.1345
38828W        W39028  13.775  12.342   3.192  0.2133 -0.2749  0.3268
38829W        W39029   6.696  15.469  14.932  0.1942  0.0389 -0.1678
38830W        W39030   6.497   2.006  15.434  0.0701  0.1066  0.0409
38831W        W39031  14.818  14.944  13.007 -0.2029 -0.0078  0.2253
38832W        W39032  10.212  13.942  10.513  0.1371 -0.3137 -0.1249
38833W        W39033  16.961   1.847   8.143  0.1990 -0.2509  0.0411
38834W        W39034  17.242  11.838  11.350  0.3841 -0.0025  0.0876
38835W        W39035   2.511   0.676   4.763 -0.0159  0.1365 -0.1896
38836W        W39036  12.865  15.005   4.487  0.2676  0.2093  0.2183
38837W        W39037  11.108  10.709  12.744 -0.0458 -0.0393  0.1564
38838W        W39038   2.415   9.143  15.357  0.0463  0.1366 -0.3776
38839W        W39039   0.579  11.137  11.364  0.2706  0.0709  0.2247
38840W        W39040  16.032   3.321   2.364  0.0597 -0.0666 -0.1412
38841W        W39041  15.745   3.767   6.347  0.2081 -0.0036  0.0938
38842W        W39042  12.536  14.697   9.173 -0.0111 -0.0584 -0.0084
38843W        W39043   9.308  18.057   6.396  0.1070  0.1365  0.0445
38844W        W39044  14.840   4.074  18.029  0.0299 -0.0642  0.1977
38845W        W39045  16.636   5.886   4.620  0.0127  0.2096  0.2821
38846W        W39046   0.650  11.921   8.157 -0.1824 -0.1364 -0.1550
38847W        W39047  11.391  17.203   4.888 -0.2174  0.0272  0.1724
38848W        W39048  11.753   8.364   3.504  0.2880  0.0845  0.0788
38849W        W39049  17.554  11.482   7.290 -0.1591  0.1977 -0.0200
38850W        W39050  12.164  14.236  13.880  0.1400 -0.1279 -0.1125
38851W        W39051  10.612   8.857   7.283 -0.3066 -0.1708  0.1906
38852W        W39052  10.685  10.595   4.056 -0.1038  0.1517 -0.0259
38853W        W39053  12.177   4.795  12.494  0.0603 -0.1861  0.1800
38854W        W39054   6.642  14.150  18.104  0.0942 -0.1199  0.4503
38855W        W39055  16.011   4.388   1.947  0.0692 -0.3367 -0.1068
38856W        W39056   5.949   4.785  16.609 -0.0456  0.0521  0.0898
38857W        W39057  14.401  18.060  14.268  0.1313  0.4428 -0.3205
38858W        W39058   5.099   4.318  11.882 -0.2238  0.2996 -0.0864
38859W        W39059  17.818   5.657   7.113  0.2007 -0.0807 -0.1877
38860W        W39060   4.183  12.780   0.232 -0.1256 -0.0136 -0.1777
38861W        W39061  15.615   3.916   8.655  0.1240 -0.0418  0.0041
38862W        W39062  11.869  17.270   6.853  0.1297  0.2684  0.0521
38863W        W39063  15.141   2.042  10.176 -0.0005 -0.0553  0.0266
38864W        W39064   5.964  14.168   6.879  0.2103 -0.0543 -0.0852
38865W        W39065   0.579  10.259   5.333 -0.2923 -0.2598 -0.2966
38866W        W39066  10.502   6.837   6.914 -0.0690 -0.0020 -0.4405
38867W        W39067  15.264  11.228   3.212  0.2627 -0.2740  0.0756
38868W        W39068  12.683   0.430  11.290  0.2185 -0.1628 -0.0721
38869W        W39069  16.090  13.568  12.383 -0.0747 -0.0889  0.3595
38870W        W39070  18.163  16.687   8.515 -0.0168 -0.1747  0.2147
38871W        W39071  13.471  15.611   8.105 -0.0147  0.2491 -0.1586
38872W        W39072   4.103   5.955   5.780 -0.0827 -0.1027  0.2455
38873W        W39073  11.964  10.585  12.263 -0.3968 -0.0162  0.1577
38874W        W39074  13.666   1.806  11.688 -0.0589 -0.0206 -0.0390
38875W        W39075  10.722   5.360  12.102  0.2880  0.1893 -0.2704
38876W        W39076   7.339   2.269  13.851 -0.3905  0.2429  0.1233
38877W        W39077   7.919  11.907   5.555 -0.1336  0.1819  0.1195
38878W        W39078  13.157  16.410   8.042 -0.2120  0.2045  0.2867
38879W        W39079   8.645  14.186  14.724 -0.2255 -0.0697  0.1504
38880W        W39080  13.899   1.395   1.667  0.1802  0.1581 -0.1423
38881W        W39081   3.157   3.571  14.659  0.1192 -0.1597  0.0187
38882W        W39082  17.020  14.788  14.085  0.3784  0.0709  0.0287
38883W        W39083  11.683  11.130  10.928  0.0948  0.2328 -0.0130
38884W        W39084  13.389   2.955  13.911 -0.2192 -0.0021 -0.3646
38885W        W39085  14.642   8.344   7.455 -0.2671 -0.5746  0.2069
38886W        W39086  11.935  14.499   4.356  0.0682 -0.2685  0.0420
38887W        W39087   3.023   2.064   7.030 -0.2480  0.0120  0.1811
38888W        W39088  14.181  11.732  17.871  0.4105 -0.1230 -0.1957
38889W        W39089  13.998  15.729  10.509  0.0708  0.2494 -0.1129
38890W        W39090  13.532  16.385   9.100  0.0047  0.2249 -0.0550
38891W        W39091  12.893   2.049  15.561 -0.1267  0.1996  0.0201
38892W        W39092   8.561  12.254  12.888  0.0523 -0.3018  0.0326
38893W        W39093  12.206   7.478   7.626  0.0460  0.0740 -0.0286
38894W        W39094   8.438   3.890  13.536 -0.2065 -0.2849  0.1411
38895W        W39095   8.676   9.637  15.226 -0.1830 -0.1329  0.0593
38896W        W39096  17.210  17.173   5.117 -0.0885  0.0313  0.2224
38897W        W39097  16.868  13.546   7.586 -0.1422 -0.1281  0.0561
38898W        W39098   3.018  17.485   9.064 -0.0210 -0.1688 -0.1682
38899W        W39099   9.379   4.153  11.647 -0.4418  0.0996 -0.0592
38900W        W39100  12.300  14.897  10.645 -0.1560  0.1353 -0.0026
38901W        W39101   9.298  13.369   4.227  0.0828  0.2309  0.2088
38902W        W39102  13.834   2.849  10.896  0.0035  0.6443 -0.3857
38903W        W39103  16.567   0.225   9.061  0.0727 -0.1889 -0.1170
38904W        W39104  11.030   4.541   8.401  0.0448  0.0377  0.2557
38905W        W39105  14.643   3.463   5.814  0.1260 -0.1296  0.0726
38906W        W39106   8.104  13.836   3.655 -0.1280  0.3056  0.0074
38907W        W39107  15.885  12.049   7.232  0.7139  0.2805 -0.2184
38908W        W39108   2.060  10.135   4.054 -0.0566  0.2373  0.1272
38909W        W39109   0.669   0.062  16.951  0.1230  0.2279  0.0959
38910W        W39110  17.086  14.720   6.178  0.2654  0.0404 -0.5096
38911W        W39111   7.789  14.697   8.136  0.0005  0.0165  0.0030
38912W        W39112   9.894  15.458  16.315  0.0200 -0.1666 -0.2551
38913W        W39113  11.112   0.867   7.704 -0.0006  0.1918 -0.0432
38914W        W39114   6.419  13.521   0.666  0.2644  0.0040 -0.1701
38915W        W39115   4.636   3.261  17.812  0.2609  0.3339 -0.0773
38916W        W39116  12.462   4.761   4.347  0.1452  0.2927  0.0363
38917W        W39117   9.561  13.855   9.487  0.0291  0.0862  0.1047
38918W        W39118  12.854  16.714  13.745 -0.2594  0.1288  0.2802
38919W        W39119   9.452   7.850   7.279  0.1960 -0.1238  0.0125
38920W        W39120   6.939   4.117   4.478  0.2311  0.2977  0.0656
38921W        W39121   0.453  13.186  10.274  0.1819 -0.1623  0.2667
38922W        W39122  11.906  13.043  15.523 -0.2826  0.2510  0.0139
38923W        W39123  16.506  12.336  11.143 -0.0222 -0.5839  0.0570
38924W        W39124  16.610   1.614   5.167 -0.1744 -0.0079 -0.0853
38925W        W39125  15.101   3.872   3.673  0.5263  0.1764  0.2556
38926W        W39126  11.757  13.522   9.887 -0.1652  0.0093  0.0097
38927W        W39127  15.165  11.719   1.031 -0.0645  0.1820  0.0565
38928W        W39128  11.953  14.122  16.833 -0.2029  0.1433 -0.0398
38929W        W39129  16.873  12.535  10.290  0.0459  0.0190  0.0855
38930W        W39130   0.829   7.704   5.604 -0.0813 -0.0338  0.2802
38931W        W39131  11.459   1.149   9.763 -0.1752 -0.1335 -0.1958
38932W        W39132  17.682   1.339  13.473  0.0494 -0.1136  0.2404
38933W        W39133  10.155  17.647   1.165 -0.1607  0.0457  0.1514
38934W        W39134   9.878   1.387  10.645 -0.2537 -0.0573  0.2224
38935W        W39135   0.942   0.999   8.805  0.1268  0.2191 -0.0795
38936W        W39136  15.628  14.609   9.360  0.1554 -0.0712  0.0886
38937W        W39137  13.394   4.509  14.441  0.0278  0.0554  0.3240
38938W        W39138   6.039  15.937   4.850 -0.1020 -0.1651  0.5105
38939W        W39139  12.442   1.634   9.175 -0.0320 -0.2131 -0.1362
38940W        W39140  16.352   7.618   3.125  0.3499  0.1236  0.3270
38941W        W39141  10.606  16.875   8.052 -0.0387  0.0942  0.1989
38942W        W39142   9.978   1.666  12.123  0.1692 -0.0763 -0.1423
38943W        W39143   4.148   0.343   6.649  0.4272 -0.0624  0.0976
38944W        W39144   9.796  16.919  12.067  0.0039 -0.1090  0.2008
38945W        W39145   8.634  11.813  11.780  0.0672  0.1779 -0.1720
38946W        W39146  16.049   4.271  10.034  0.0519  0.0056 -0.0834
38947W        W39147   8.483  15.951   3.857  0.0229  0.3564 -0.2631
38948W        W39148  16.822  16.048  13.418  0.2220  0.0168  0.1905
38949W        W39149  10.358  17.345  10.832  0.1851 -0.3082 -0.2469
38950W        W39150  11.576   4.686   5.585 -0.1031  0.0048  0.2622
38951W        W39151  17.460   6.158   1.239 -0.5164  0.2683  0.0454
38952W        W39152  10.886  14.428   9.448 -0.1338 -0.1586 -0.2912
38953W        W39153   2.062   1.534   6.317 -0.0484 -0.2128 -0.0640
38954W        W39154  12.269  10.617   0.764 -0.1315  0.3081  0.1120
38955W        W39155  11.289   9.411  12.257  0.2900 -0.0338 -0.2351
38956W        W39156  11.778  16.542  10.044 -0.1301  0.2580  0.1522
38957W        W39157   8.952  15.671   9.736 -0.1488 -0.0030  0.0632
38958W        W39158   3.079  16.701   5.357  0.0898  0.1649 -0.1309
38959W        W39159   9.946   3.610  14.384  0.0322 -0.1716 -0.3788
38960W        W39160  10.980   9.257   8.086 -0.1708 -0.1681  0.0439
38961W        W39161   5.459  10.677  16.456 -0.0073 -0.1746  0.2666
38962W        W39162  16.745  15.022  13.687 -0.2525  0.0476  0.1887
38963W        W39163  16.903  14.927   5.746  0.1364 -0.3232 -0.0801
38964W        W39164   8.157   3.254  15.211  0.1329  0.2591  0.1515
38965W        W39165  16.820  11.088  11.472  0.0926 -0.0080 -0.1744
38966W        W39166  16.261   0.143   9.572  0.0210 -0.0533 -0.3917
38967W        W39167  12.147  13.855  17.940 -0.1378 -0.1655  0.2113
38968W        W39168   9.675  14.194  16.951 -0.0021 -0.0822  0.2261
38969W        W39169   4.420  14.248   9.496  0.0314  0.1201  0.1652
38970W        W39170  10.613  14.496  13.267  0.0257  0.0648 -0.0459
38971W        W39171   6.698  15.424  16.711  0.0598  0.3754 -0.1442
38972W        W39172   7.096   0.776   8.097 -0.3288 -0.0236 -0.1146
38973W        W39173   8.723  11.500   3.254  0.0429  0.0312  0.6842
38974W        W39174   5.537  14.816   6.454  0.3327  0.3266  0.0108
38975W        W39175  15.889   3.496   7.844 -0.0752  0.2682  0.1700
38976W        W39176  11.618   1.601   7.335 -0.0338  0.0463  0.3799
38977W        W39177  17.488   2.883   6.483  0.2169 -0.1600  0.0882
38978W        W39178   0.596   4.146   5.957  0.2043  0.0438  0.2306
38979W        W39179  14.857  17.766   6.791  0.1977  0.0620  0.1667
38980W        W39180  11.111  17.282   7.507  0.1195 -0.2179  0.1394
38981W        W39181  10.202  18.148  13.898 -0.2991 -0.1161  0.0793
38982W        W39182  15.813   2.332   1.625 -0.1971 -0.0158  0.1157
38983W        W39183  11.935  11.802   8.453 -0.1758 -0.2767  0.1091
38984W        W39184   9.916  14.964   3.606 -0.0540  0.0825 -0.0069
38985W        W39185  13.290   8.423  10.365 -0.1757  0.0023 -0.0516
38986W        W39186  13.282  13.856  16.307 -0.4834 -0.1600  0.1853
38987W        W39187  10.890  17.629   5.944  0.2033  0.2110  0.2294
38988W        W39188  14.236  14.752  13.546  0.0921 -0.0047 -0.0829
38989W        W39189   8.717  14.100  15.666  0.0541  0.2341 -0.1588
38990W        W39190   2.496  13.164  16.357 -0.1109  0.0609  0.1308
38991W        W39191  17.704   9.976  12.263  0.1057 -0.0130  0.0245
38992W        W39192  13.393   9.743  10.211  0.0098 -0.2214 -0.0903
38993W        W39193   1.644  10.074  10.172  0.0070 -0.2471 -0.0172
38994W        W39194   0.292  13.499   9.224 -0.0713  0.0444  0.3485
38995W        W39195   1.377  16.211   8.090  0.2144 -0.1364 -0.1359
38996W        W39196  10.228  14.488   0.564  0.0375 -0.1148 -0.1917
38997W        W39197  12.884  14.534  17.878 -0.1850 -0.0108  0.1072
38998W        W39198  17.190   2.668   3.428 -0.2183 -0.1197  0.0246
38999W        W39199  10.617  15.320  13.399 -0.2220  0.3976  0.0238
39000W        W39200  11.504   1.068  13.385  0.1440  0.4064 -0.1886
39001W        W39201  13.514  14.603   5.776  0.0678 -0.3162  0.0181
39002W        W39202  10.133  12.301  12.172 -0.0100 -0.0283 -0.0299
39003W        W39203  15.047   0.941  11.488 -0.1064  0.1407  0.0475
39004W        W39204  12.420   2.442   5.004  0.0255 -0.2221 -0.0221
39005W        W39205  14.622   3.999   2.604 -0.2251  0.0778 -0.4718
39006W        W39206   8.041   3.768  10.439 -0.0404 -0.0353  0.0595
39007W        W39207   6.877  14.614   2.816  0.1040 -0.1221 -0.0952
39008W        W39208   7.718  11.250   3.484  0.0965  0.0863 -0.3438
39009W        W39209  10.264  14.520   3.785  0.1661 -0.0370  0.2212
39010W        W39210  16.919   9.927  12.273 -0.1817 -0.2635  0.1550
39011W        W39211  11.010  15.496   6.266  0.2241  0.0157  0.0296
39012W        W39212  16.193  12.041  17.875  0.1899  0.0365 -0.0346
39013W        W39213  11.264   4.393  18.103  0.2462 -0.0666 -0.0492
39014W        W39214  16.771  14.103   2.831 -0.2002  0.1074 -0.4561
39015W        W39215  18.082  11.394  12.192  0.1958 -0.2610 -0.3370
39016W        W39216  17.892  16.736  12.771 -0.4016 -0.4978 -0.1517
39017W        W39217   7.773   6.163  10.315 -0.2067  0.0977 -0.1369
39018W        W39218  16.140  17.410  13.829  0.2070  0.0862  0.1810
39019W        W39219   4.750   2.746   9.178 -0.0405 -0.4108 -0.1631
39020W        W39220  10.203  15.934   8.099  0.3021  0.0424 -0.0639
39021W        W39221  12.057   5.265  10.046  0.1675 -0.1412 -0.1859
39022W        W39222  12.998  17.096  15.050 -0.0288  0.1177 -0.4813
39023W        W39223  12.997  15.090   8.847  0.0971 -0.1602 -0.1613
39024W        W39224  13.936  16.127   7.371 -0.0382  0.0166  0.0867
39025W        W39225  16.305   3.347   4.313  0.0113  0.0178 -0.2089
39026W        W39226   6.458   0.702  12.590 -0.0382  0.1876  0.1915
39027W        W39227   1.082   0.673   6.041  0.1901 -0.2475  0.0630
39028W        W39228  16.233   9.459  12.588 -0.1877  0.0229 -0.5174
39029W        W39229   4.168  15.153  11.380  0.3680 -0.0098 -0.0051
39030W        W39230   9.580  13.065  13.801 -0.0138  0.1017 -0.2846
39031W        W39231   7.979  16.973  12.842 -0.0802  0.1294  0.1590
39032W        W39232  14.921  11.285   1.796  0.1188  0.2985 -0.3489
39033W        W39233  14.034   9.257  12.121 -0.0151  0.1755 -0.1901
39034W        W39234   8.046  12.246   2.190  0.0648  0.3433  0.0118
39035W        W39235  11.491  18.057   2.807  0.0912  0.2149  0.1618
39036W        W39236   9.761  17.362   9.665  0.0856  0.0040 -0.0150
39037W        W39237   6.898  10.844   0.249  0.0111  0.0753  0.0191
39038W        W39238  13.859  11.809   7.512  0.1068 -0.4465  0.5716
39039W        W39239  12.493   1.543   7.985 -0.0319 -0.0574  0.2954
39040W        W39240  15.398   0.053   9.766 -0.1096 -0.0945  0.5344
39041W        W39241  12.035   3.316   9.038 -0.3209 -0.2391  0.2212
39042W        W39242   1.695   0.641   8.638 -0.1968  0.0588 -0.1650
39043W        W39243  14.389  16.941   9.208  0.3618  0.0052 -0.1711
39044W        W39244  13.071   0.148  11.119  0.1396  0.0676  0.1309
39045W        W39245   5.733  15.233  16.403 -0.0231 -0.1364  0.0406
39046W        W39246   0.851   0.809  11.488 -0.1433  0.0125  0.0469
39047W        W39247  17.146  10.064   1.132  0.1367 -0.1058 -0.0733
39048W        W39248   9.901   4.217   6.238 -0.2384 -0.2017 -0.1811
39049W        W39249   8.089  14.365   8.474  0.0489 -0.0954 -0.3501
39050W        W39250  17.705  11.108   5.630  0.2071  0.0251  0.1070
39051W        W39251  16.410   0.006   2.697 -0.0417 -0.1866 -0.0822
39052W        W39252   4.517  11.847   6.838  0.2466 -0.0165  0.1224
39053W        W39253   8.761  11.862   8.649 -0.0979  0.3142  0.2334
39054W        W39254  13.308  12.187  13.320 -0.3820 -0.1049  0.1907
39055W        W39255   8.704  11.619   7.151  0.0938 -0.0863 -0.0428
39056W        W39256  13.216  15.673   6.206 -0.0855  0.1786  0.1626
39057W        W39257  11.708  15.341   6.802  0.0519  0.2539  0.0999
39058W        W39258  17.295   4.572  11.809 -0.1595 -0.1471  0.2262
39059W        W39259  10.525   1.972  14.421 -0.0163 -0.1774  0.0015
39060W        W39260   6.426   0.211  12.730 -0.0500  0.0739 -0.4915
39061W        W39261   6.784  14.160   7.431 -0.1482  0.1650  0.0576
39062W        W39262  11.951   2.165   5.620 -0.0057 -0.1179 -0.3140
39063W        W39263   0.688  14.681   5.614 -0.1387 -0.1489  0.1178
39064W        W39264  17.795  11.641  10.233 -0.3120 -0.0136  0.1683
39065W        W39265   9.942  13.867  12.696 -0.1556  0.4592 -0.0964
39066W        W39266  11.534   9.585   6.620  0.0482 -0.2011 -0.2221
39067W        W39267  14.914   2.209   5.799 -0.1763 -0.1160 -0.1671
39068W        W39268  16.751   0.573   9.917  0.1627  0.3813 -0.0244
39069W        W39269   5.229  15.396  10.556  0.2096  0.0790  0.0441
39070W        W39270   3.131   2.637   9.639  0.0943  0.1493  0.0885
39071W        W39271  16.030  10.037  16.037 -0.1617 -0.1512  0.1555
39072W        W39272  10.056   7.380  14.776  0.3942  0.1607 -0.1874
39073W        W39273   1.511  14.266   5.470 -0.0310 -0.1962 -0.0615
39074W        W39274  14.901  17.914   6.269  0.0586 -0.0792  0.1307
39075W        W39275  17.269  18.085   6.404 -0.3179  0.1892 -0.0402
39076W        W39276  10.190  13.712  15.362 -0.1459 -0.0699  0.2236
39077W        W39277  12.719  15.105   8.415  0.1864 -0.0953 -0.2751
39078W        W39278  13.586  13.203   7.038  0.3303 -0.1191 -0.0877
39079W        W39279  11.356   4.939   8.203  0.1050 -0.1972 -0.0141
39080W        W39280   9.556  11.390  17.983  0.1972 -0.2847  0.1772
39081W        W39281  15.503  12.950   5.751 -0.0217  0.0506 -0.1009
39082W        W39282   1.681   4.220  13.993  0.2423 -0.1924 -0.3044
39083W        W39283  11.264   0.096   0.972  0.0748 -0.2828  0.1931
39084W        W39284  15.420   1.117  15.626 -0.0714 -0.0000 -0.5404
39085W        W39285   1.283   4.875  11.078  0.1314 -0.1949 -0.1860
39086W        W39286  12.083   3.069   3.404 -0.6159  0.0615  0.3691
39087W        W39287   7.772   0.005  12.885 -0.0079  0.0171  0.2970
39088W        W39288  16.138   8.861   7.604 -0.0553 -0.2095 -0.1732
39089W        W39289  15.931   6.456  12.834 -0.3724  0.0511  0.0052
39090W        W39290   4.561  12.780   8.347  0.0139 -0.1014 -0.0196
39091W        W39291   0.856  12.618   9.784 -0.1779  0.1917 -0.0261
39092W        W39292   7.406   1.665   1.266  0.1539 -0.1132 -0.4323
39093W        W39293  14.719  17.314   8.096  0.0748 -0.2927  0.0059
39094W        W39294  14.422  16.139  15.274 -0.0658  0.3318 -0.1344
39095W        W39295  15.124  11.272  12.442  0.2241 -0.1417 -0.0086
39096W        W39296   9.112  17.332  10.137  0.1288 -0.0119  0.2460
39097W        W39297   8.145  16.918  15.127 -0.0237  0.0042 -0.1642
39098W        W39298  13.075   9.042   2.313 -0.0906  0.0122 -0.1785
39099W        W39299   7.221   1.970   8.270  0.0714 -0.2566  0.0422
39100W        W39300  14.505   8.721  11.486 -0.1505 -0.0945  0.3177
39101W        W39301  14.252   9.900   6.692 -0.0765  0.0918  0.1409
39102W        W39302   3.185  11.765   9.920  0.1105  0.1138  0.0277
39103W        W39303  13.821  13.498   8.915 -0.0120  0.2995  0.0072
39104W        W39304  15.087  14.252   9.996  0.1728  0.3885 -0.0198
39105W        W39305  13.760  17.063   7.448  0.0512 -0.0525 -0.0419
39106W        W39306  11.048   9.032   3.236  0.1304  0.2647 -0.0027
39107W        W39307   5.673  11.774  10.724 -0.2317 -0.1042 -0.1338
39108W        W39308  11.730  16.270  12.285 -0.1793  0.2637 -0.0937
39109W        W39309  10.506   0.090   9.441  0.2131  0.0604 -0.2351
39110W        W39310  14.446   1.781   6.633  0.0189 -0.0950  0.1092
39111W        W39311  10.986   2.856  14.048 -0.2604 -0.2610  0.0579
39112W        W39312  11.784  15.436  11.289 -0.1483 -0.0429 -0.0269
39113W        W39313   4.450   8.247  17.729  0.0008 -0.1372  0.1941
39114W        W39314  13.179  11.999   9.587 -0.2579 -0.3384  0.0552
39115W        W39315   8.220   0.319  12.257 -0.0254 -0.2394 -0.2324
39116W        W39316   1.849  14.884  11.310 -0.2047 -0.0110  0.3082
39117W        W39317  10.507  17.210  14.868  0.1200 -0.1191  0.0305
39118W        W39318   4.017  14.481  11.438 -0.0077  0.0341 -0.0859
39119W        W39319  14.964   9.253  12.102 -0.1110 -0.0886 -0.0005
39120W        W39320  17.079   0.917   1.536 -0.0921 -0.1313 -0.0488
39121W        W39321  17.908  17.386   9.053  0.1783 -0.2997  0.0539
39122W        W39322   9.889   3.542  12.269  0.0391  0.2847  0.0649
39123W        W39323  17.684   3.308   6.051 -0.0935  0.0182 -0.1665
39124W        W39324  12.619  13.923   2.019  0.1947  0.0515  0.0641
39125W        W39325  11.824   2.459  11.271 -0.2248 -0.3075 -0.2541
39126W        W39326   8.744  14.989  16.682  0.2513  0.1455  0.0146
39127W        W39327  11.488  17.967   3.643  0.0242  0.0639 -0.0526
39128W        W39328  14.478  15.731   4.523  0.0085  0.0615  0.3194
39129W        W39329   9.093   7.074  15.207 -0.0134 -0.4494 -0.3659
39130W        W39330  17.084  15.128   2.979 -0.0103  0.0766 -0.1100
39131W        W39331   9.446   3.142   2.323  0.1866 -0.0259  0.0786
39132W        W39332  10.310   0.965   8.452 -0.0300  0.1342 -0.2401
39133W        W39333   8.322  13.873  10.829 -0.1068 -0.0396  0.0618
39134W        W39334  13.479   0.152   5.517  0.3977 -0.2018  0.0471
39135W        W39335  13.777  10.474   9.029  0.0277 -0.1643 -0.0709
39136W        W39336  15.448   1.682   9.766  0.0335  0.0447 -0.3019
39137W        W39337  10.212   0.780   6.330  0.0166 -0.0371  0.0224
39138W        W39338  15.365   8.160   8.430 -0.0765 -0.1726  0.0435
39139W        W39339   2.510  16.260   9.408 -0.1482  0.2549  0.1607
39140W        W39340  17.056  13.560  12.416  0.0883  0.0721  0.0718
39141W        W39341  13.484  11.289  14.056 -0.1432  0.2109 -0.4236
39142W        W39342   7.821   4.291   5.322 -0.2059  0.2029  0.2938
39143W        W39343  12.722   0.962   9.706  0.0546  0.1452 -0.2113
39144W        W39344  10.737  15.474  16.902 -0.0246  0.0205  0.1561
39145W        W39345   1.966  11.502   5.189 -0.2496  0.0547 -0.2329
39146W        W39346  12.955   8.481   7.102  0.0224  0.3522  0.1466
39147W        W39347   7.763   8.581   1.655  0.1307  0.3261  0.0616
39148W        W39348  17.004  12.788   4.984  0.1557  0.0656  0.2897
39149W        W39349  11.378   8.162  15.820  0.0808  0.0988  0.1031
39150W        W39350  11.419  13.601   3.722  0.0877 -0.4448  0.0723
39151W        W39351   6.575  11.070   9.253 -0.0197  0.0815  0.1555
39152W        W39352  11.679   3.518   3.427  0.0940  0.1011  0.1198
39153W        W39353  16.682   5.304  11.619 -0.2455 -0.0506 -0.0660
39154W        W39354   2.288  14.943   6.188 -0.1027  0.1424  0.0676
39155W        W39355  14.397  12.790   5.235 -0.1397 -0.0412 -0.0145
39156W        W39356  12.711  16.529  12.458 -0.2506 -0.2645  0.0127
39157W        W39357  10.581  16.930   9.484 -0.0384 -0.1899 -0.3016
39158W        W39358   7.340   7.575  12.390  0.1882  0.6953 -0.1363
39159W        W39359   3.224   2.026  10.540  0.0320 -0.3090 -0.2359
39160W        W39360  13.642  17.935  10.524 -0.2928 -0.1774 -0.0294
39161W        W39361  17.967   3.675  17.595 -0.1675 -0.2324  0.3353
39162W        W39362   4.545   7.042  11.050  0.2408 -0.0796 -0.1328
39163W        W39363   2.068   0.091  11.689 -0.1179  0.1285 -0.0759
39164W        W39364  14.395   7.400   7.940 -0.0748 -0.4627 -0.1886
39165W        W39365  16.155  14.096   8.609 -0.0797  0.0936 -0.0653
39166W        W39366   7.517   2.740   7.120  0.0348 -0.2914  0.1287
39167W        W39367   0.148  17.105   3.969  0.2594  0.1138 -0.1635
39168W        W39368  15.296   1.673   7.190  0.0792 -0.1725 -0.1485
39169W        W39369   2.107  16.835   4.770  0.0629  0.0171  0.1959
39170W        W39370  13.308   5.579   5.606  0.3624  0.2099  0.3167
39171W        W39371  15.028  15.244  15.769 -0.1993 -0.1328 -0.0428
39172W        W39372   0.125   4.406   1.696  0.0064  0.0007  0.0326
39173W        W39373  13.677  15.974   9.352 -0.2414 -0.0327  0.0118
39174W        W39374   9.483  13.842   5.131 -0.1246 -0.1666 -0.0929
39175W        W39375   8.885  17.898   0.808  0.0154 -0.3297  0.1053
39176W        W39376  16.527   0.368   2.253 -0.1096  0.2456  0.0833
39177W        W39377   6.049  18.054   3.876 -0.2593  0.1106  0.1290
39178W        W39378  11.175  13.223  15.057  0.3758  0.0684  0.1460
39179W        W39379  13.842   6.858  12.039  0.1148  0.1264  0.0441
39180W        W39380   8.896  13.294   8.859  0.0180 -0.1832  0.2283
39181W        W39381   5.653   3.283   9.183  0.0616  0.0358 -0.0608
39182W        W39382   6.301  12.876  13.549  0.1067  0.0964  0.1271
39183W        W39383   6.506   2.569  14.061  0.0737  0.1470 -0.0015
39184W        W39384  17.302   0.787   2.050 -0.2083  0.3329  0.3472
39185W        W39385   8.039  14.802  11.353 -0.3581 -0.1234  0.0359
39186W        W39386  15.725  12.819   2.330 -0.0296  0.1764 -0.0277
39187W        W39387  11.544  17.424  12.665  0.4335 -0.2474 -0.3242
39188W        W39388  14.281   1.000   1.735 -0.1280  0.1593 -0.0220
39189W        W39389   0.756   2.569   8.398 -0.0862  0.3890 -0.1122
39190W        W39390   7.963   9.031   9.217  0.1315 -0.3049 -0.5219
39191W        W39391   8.222  14.681  16.090 -0.1598  0.2090 -0.0760
39192W        W39392  15.151  15.271   5.540 -0.0119  0.2030 -0.0696
39193W        W39393  13.211  17.499  10.438  0.0269 -0.4209  0.2223
39194W        W39394   5.852   4.845   8.784 -0.1798 -0.1353  0.0062
39195W        W39395  13.560  11.909  10.970 -0.0067  0.1055  0.1124
39196W        W39396  10.397  10.247   8.086 -0.0874 -0.0240  0.0927
39197W        W39397  12.545   8.995  10.297  0.6002 -0.1078  0.2218
39198W        W39398   1.747   5.831  12.473 -0.0073  0.0954  0.1408
39199W        W39399  12.737  18.077  16.147 -0.0034 -0.2459 -0.1291
39200W        W39400   6.734   3.118   8.314 -0.0386 -0.1224 -0.1145
39201W        W39401  17.602  15.600  10.478  0.1098  0.1465  0.0128
39202W        W39402  13.095  15.764  12.578  0.2761 -0.0153 -0.4945
39203W        W39403  12.158  17.971   7.941  0.3061  0.0179 -0.1457
39204W        W39404  15.164   2.228   5.379  0.2926 -0.3512  0.0796
39205W        W39405  16.181  13.331  17.928 -0.0661  0.1987 -0.0489
39206W        W39406   0.578  14.928  11.740  0.3928 -0.0671 -0.0340
39207W        W39407   5.764  11.465   9.093 -0.1801  0.2977  0.0852
39208W        W39408   4.942  15.805  10.467  0.1425 -0.1789 -0.2217
39209W        W39409  13.941   7.041  10.144 -0.0113  0.1362 -0.0169
39210W        W39410   8.769  11.194  13.102 -0.1666 -0.0643 -0.1997
39211W        W39411   9.806  13.796  17.805  0.1834 -0.1940  0.0472
39212W        W39412  10.731  15.000   8.417 -0.0663  0.1752  0.0639
39213W        W39413   7.149  16.744   6.923  0.0568  0.1437 -0.1520
39214W        W39414  10.327   0.656  10.825 -0.1836 -0.1738 -0.1671
39215W        W39415  16.319   1.289  15.534 -0.2736  0.1594 -0.1323
39216W        W39416   8.824  11.721  12.602  0.2566  0.3759  0.1835
39217W        W39417   9.381  17.780  11.510  0.0886 -0.0582  0.1040
39218W        W39418   1.888   9.650   8.980 -0.0403  0.1450  0.3112
39219W        W39419   9.753   0.723   1.349 -0.0541 -0.1089 -0.2032
39220W        W39420  10.188  17.975  11.052 -0.2609 -0.0478  0.0401
39221W        W39421   1.883  16.147   2.150 -0.0854 -0.1702 -0.2132
39222W        W39422   2.890   0.155  14.424  0.2197 -0.1247 -0.0358
39223W        W39423   9.979  15.906  11.356 -0.2757 -0.0349 -0.1373
39224W        W39424  13.505  16.108   8.291 -0.0343 -0.2253  0.0086
39225W        W39425  14.476   9.259  15.870  0.1081  0.0607 -0.1252
39226W        W39426   9.784  16.279   9.952  0.2233 -0.0097 -0.1524
39227W        W39427  12.337   5.942   8.956 -0.3266 -0.1882 -0.0202
39228W        W39428   8.448  14.724  10.543 -0.0462  0.1757 -0.1098
39229W        W39429   7.291  13.386   9.962 -0.0072  0.1351 -0.2362
39230W        W39430   8.159   1.155   1.265 -0.2767  0.1020 -0.1379
39231W        W39431   8.508  14.989   5.658  0.2367 -0.3048  0.1881
39232W        W39432  10.530  11.551  14.598  0.0318  0.0441  0.1670
39233W        W39433  14.171  17.865   0.015 -0.1995 -0.3355 -0.0373
39234W        W39434  16.039   5.452   8.548  0.2221 -0.0610 -0.2201
39235W        W39435   0.454  11.573   7.896 -0.1764  0.1186 -0.0466
39236W        W39436  16.208   9.782   6.685  0.1364  0.1656  0.1139
39237W        W39437  13.007   3.701   7.632  0.0016  0.0439  0.0451
39238W        W39438  13.253   2.364  15.781  0.0924  0.0480 -0.0864
39239W        W39439  14.559  11.113  15.412  0.0451  0.0796  0.0761
39240W        W39440   4.758  17.761  15.136 -0.2878  0.0557  0.1114
39241W        W39441   6.367   0.423  17.887 -0.1479 -0.0005  0.0173
39242W        W39442   4.074  15.885  15.017  0.1419 -0.2495  0.3699
39243W        W39443  18.171  15.167  12.239 -0.1246  0.3054 -0.1663
39244W        W39444   9.473  15.556   9.375 -0.2192 -0.0631 -0.2803
39245W        W39445   4.354   0.626   9.105  0.0021 -0.0097  0.0102
39246W        W39446   8.965  17.334  17.344  0.0155 -0.3098  0.0800
39247W        W39447  13.209  15.614   4.478 -0.2138 -0.1061 -0.0225
39248W        W39448  13.855  13.012  17.769  0.0322 -0.2804  0.1739
39249W        W39449   1.111  12.398  10.326  0.1850 -0.2855  0.1341
39250W        W39450   0.497  15.161   4.185  0.0980 -0.0420 -0.0779
39251W        W39451   6.269   0.274   8.931 -0.0521  0.2204  0.2794
39252W        W39452  12.232  10.126  12.306 -0.1407  0.0598  0.1726
39253W        W39453  12.756  16.990   2.407  0.2416  0.3967 -0.1606
39254W        W39454   0.046  13.506   3.602 -0.2167  0.1168  0.1149
39255W        W39455  14.073  15.688  13.667  0.2615  0.5064  0.1640
39256W        W39456   0.026  14.720   4.902 -0.4195 -0.3645 -0.4268
39257W        W39457  10.234  14.168  14.961  0.5592  0.0066 -0.1777
39258W        W39458  12.439   1.447  14.375 -0.0690  0.1480  0.1427
39259W        W39459   5.883  13.255   1.399  0.2243  0.1402 -0.0449
39260W        W39460  12.364  12.934   0.919  0.0999  0.3867 -0.0934
39261W        W39461  12.142  15.690   6.555  0.5424 -0.1273 -0.2013
39262W        W39462  15.217  10.474   2.450  0.1887  0.1682  0.1069
39263W        W39463  15.418  17.945   6.088  0.0698  0.2655 -0.1630
39264W        W39464  17.213  15.487  13.359  0.0546 -0.1566  0.1628
39265W        W39465  15.199  14.982   8.378  0.0040 -0.0035 -0.0095
39266W        W39466  13.753  10.820   6.554  0.1299 -0.2922  0.2479
39267W        W39467   1.784  16.755   4.368  0.1634  0.0431  0.1868
39268W        W39468  17.763   3.272  12.368 -0.2135 -0.0696 -0.2056
39269W        W39469   8.444  17.838   8.305 -0.0708  0.1214  0.0741
39270W        W39470   0.293   3.965   4.507 -0.0391 -0.1383 -0.3310
39271W        W39471  14.012   4.775  11.045  0.1630 -0.0104  0.1813
39272W        W39472   1.445   3.132  15.426  0.1178  0.0871 -0.1473
39273W        W39473   5.943   4.481  10.942 -0.1502  0.1715  0.0317
39274W        W39474   9.373  11.786  15.916  0.2805 -0.1630 -0.1625
39275W        W39475   0.189  15.360   9.892 -0.0713 -0.3036 -0.0493
39276W        W39476   4.835  11.231  11.913  0.0392  0.2644  0.1581
39277W        W39477  11.163   8.478  10.462  0.0604 -0.1315 -0.0027
39278W        W39478  11.788   0.686   3.560 -0.2813  0.1352  0.0488
39279W        W39479   3.499   1.485   8.393  0.0935 -0.1797 -0.1334
39280W        W39480  13.388  14.344  14.000  0.1204 -0.4229 -0.0979
39281W        W39481  15.157  15.184  10.847 -0.2040 -0.0709  0.3700
39282W        W39482   1.081  12.383   9.426  0.2238 -0.3317  0.0733
39283W        W39483  12.222  10.121   8.062 -0.0495  0.1518  0.1735
39284W        W39484  13.008   0.516  13.946  0.1382 -0.1827  0.1698
39285W        W39485  15.042  17.146   7.531 -0.0559  0.1999  0.1346
39286W        W39486  11.741   2.887   6.842  0.1054 -0.0059  0.0665
39287W        W39487  12.211   4.335  10.433 -0.3324  0.2589  0.0828
39288W        W39488  10.603   0.242   8.090  0.0834  0.1610  0.1093
39289W        W39489  13.680   0.828  13.054  0.2548  0.3781 -0.0811
39290W        W39490  11.817  14.942  13.306 -0.1407  0.2031 -0.1913
39291W        W39491  12.067   2.041  13.610 -0.0703  0.1110  0.1565
39292W        W39492   9.555  13.309  16.429 -0.2718 -0.0586 -0.0893
39293W        W39493  10.759  15.619   9.124 -0.0842 -0.0572  0.0821
39294W        W39494   2.304  15.326  15.879  0.1736 -0.2949 -0.3957
39295W        W39495  10.005  12.470  17.718  0.1512  0.1412 -0.1702
39296W        W39496  15.248   0.174   7.593  0.1607 -0.1145 -0.1221
39297W        W39497  16.633   2.094  10.268  0.1972  0.3179 -0.0826
39298W        W39498   6.812   6.433  14.241  0.0845  0.2097  0.2634
39299W        W39499   3.204   3.147   2.803  0.1335  0.1611  0.4224
39300W        W39500   3.036  14.136  12.778  0.0638  0.0871  0.0990
39301W        W39501  13.866  13.452  11.485  0.0519 -0.0692 -0.1100
39302W        W39502  11.754   9.397   2.025  0.0278  0.0338 -0.0638
39303W        W39503   4.023   0.494  11.686  0.1120  0.1954 -0.1431
39304W        W39504   9.637  13.165   1.990  0.1606  0.1423  0.2911
39305W        W39505  16.148  17.820  13.025 -0.1441 -0.0733 -0.1845
39306W        W39506  11.377   5.789   1.262  0.0537 -0.1679 -0.0748
39307W        W39507  16.905   6.781  18.107 -0.0744 -0.3477  0.2300
39308W        W39508  13.786  14.626   8.549  0.2463 -0.3025  0.0219
39309W        W39509  15.032   4.127   4.408 -0.0956 -0.0843  0.0564
39310W        W39510   3.887  17.974   7.864 -0.2652  0.4375  0.0391
39311W        W39511   3.267  13.933   0.317 -0.3073  0.1457 -0.0953
39312W        W39512  13.634   7.504   0.464  0.0698 -0.1309  0.0639
39313W        W39513   2.280  11.133   9.962  0.1308 -0.0115 -0.2411
39314W        W39514  12.073  10.979   3.040  0.0797  0.2528 -0.2643
39315W        W39515  13.104  12.987  11.234  0.0638 -0.1583 -0.1597
39316W        W39516  16.840   2.340  11.606  0.1990 -0.1123  0.0043
39317W        W39517  15.264  12.549   9.511 -0.1980 -0.0365 -0.4263
39318W        W39518  11.040  14.689  12.629 -0.1544  0.0278  0.1898
39319W        W39519  11.869  15.870   4.872  0.3803  0.2864  0.1599
39320W        W39520   9.945  14.069   3.905  0.0939 -0.1597 -0.1434
39321W        W39521  10.749   3.341  15.910  0.0635 -0.2559 -0.0273
39322W        W39522  13.006  16.453  15.612 -0.0483  0.2272 -0.2890
39323W        W39523  17.369  16.810   2.106  0.4002  0.1854  0.1281
39324W        W39524   8.359  17.787   0.850 -0.1647  0.0432  0.2786
39325W        W39525  16.238   1.419  12.657 -0.0650  0.3194  0.1865
39326W        W39526  10.953   2.444   7.405  0.1896 -0.1387 -0.1367
39327W        W39527  14.839  16.446   4.207 -0.0286 -0.1568 -0.0798
39328W        W39528  17.453  17.753   6.010 -0.0642  0.1661 -0.0510
39329W        W39529  13.980  15.657   5.138  0.0496 -0.0585  0.0265
39330W        W39530   1.060  10.322  13.148  0.2405 -0.0030  0.3892
39331W        W39531   6.302  16.964  16.532  0.2571  0.1802 -0.2045
39332W        W39532   0.908  14.082   8.328 -0.1746 -0.2262 -0.0619
39333W        W39533  11.451  14.288   0.386 -0.1291 -0.0509 -0.0374
39334W        W39534  14.679  14.952   6.956 -0.1535 -0.0701 -0.2771
39335W        W39535   7.665   7.735  13.383 -0.0037  0.1169 -0.0419
39336W        W39536  14.415  12.388   8.043  0.2123 -0.1201  0.1149
39337W        W39537   4.239   5.562  14.151  0.0508  0.0543  0.0263
39338W        W39538   7.880   4.024   4.894 -0.0975  0.0064 -0.1493
39339W        W39539   2.876   8.384  12.790  0.1993  0.0632  0.1394
39340W        W39540   4.461  16.763  14.385  0.1995  0.2436 -0.0271
39341W        W39541  14.636  17.577   3.898  0.0728  0.1640 -0.1422
39342W        W39542   0.766   7.226  10.625 -0.1416 -0.1767  0.1950
39343W        W39543   8.135  16.241   0.931 -0.0575 -0.1050 -0.1968
39344W        W39544  18.054   9.721   0.607 -0.2469  0.0037  0.1525
39345W        W39545   9.528   1.848  12.859 -0.1550  0.1677 -0.3379
39346W        W39546  11.742  16.322   2.243  0.0035  0.2991  0.1104
39347W        W39547   0.064  10.151   6.960 -0.1974  0.0599 -0.2976
39348W        W39548   2.204   0.499  12.502  0.1301 -0.5222  0.0010
39349W        W39549   4.815   6.003   4.852 -0.2726 -0.0374  0.3333
39350W        W39550  11.537  15.709   7.802  0.1549 -0.1963  0.3115
39351W        W39551  16.343   5.185   1.267 -0.4435 -0.0930  0.0911
39352W        W39552   3.856  11.330  17.237  0.1466  0.3787  0.3289
39353W        W39553  17.567   0.110  12.083 -0.2125  0.1637  0.0678
39354W        W39554  13.608  11.574  15.414  0.2526 -0.2100  0.1904
39355W        W39555  15.981  16.809   8.599  0.0597 -0.1087  0.1580
39356W        W39556  10.884   4.725  15.732 -0.2649 -0.1956  0.1314
39357W        W39557  12.274   9.489  14.896 -0.2673  0.1001 -0.1614
39358W        W39558  16.095   3.486   9.459  0.3628 -0.0352  0.3168
39359W        W39559  13.097   9.561   5.746  0.0309  0.0647  0.1321
39360W        W39560  14.938  17.262  17.008  0.1476  0.0285 -0.1412
39361W        W39561  15.082  17.322   9.567 -0.0202  0.1970  0.1435
39362W        W39562  17.448  13.287  10.093  0.0594 -0.0985  0.2523
39363W        W39563   8.323  14.623  12.409  0.1774 -0.1436  0.2070
39364W        W39564   9.847   4.520  13.866  0.0274 -0.0833 -0.0530
39365W        W39565  17.322   6.192   9.079  0.2158 -0.3508 -0.3592
39366W        W39566  17.123  17.178  14.060 -0.2158  0.0075  0.1429
39367W        W39567  16.691   5.733   8.891 -0.0739 -0.3396  0.1511
39368W        W39568  11.338  13.464  14.010 -0.1044 -0.0262  0.0044
39369W        W39569  11.842   1.706  16.335 -0.2044  0.1172 -0.1206
39370W        W39570  13.986  11.816  15.216  0.1314 -0.1317 -0.0941
39371W        W39571   8.744  16.674  15.713  0.1140 -0.1304  0.0446
39372W        W39572  15.090   4.704  10.823  0.2127 -0.1008  0.0322
39373W        W39573  15.205  17.199  15.063 -0.2217 -0.0682 -0.2734
39374W        W39574  16.689  15.412   0.657  0.2080 -0.0563  0.0041
39375W        W39575   7.506  14.017  16.643 -0.2106 -0.0181 -0.0476
39376W        W39576  10.551  15.212  11.336  0.0419 -0.1334  0.1440
39377W        W39577   0.286   7.327   8.235 -0.2898  0.3582 -0.0385
39378W        W39578   7.239  17.851  13.497  0.2413 -0.0823 -0.1578
39379W        W39579   4.167  16.100  11.124  0.4293  0.1300 -0.0555
39380W        W39580  12.428   0.544   7.248 -0.0406  0.3055 -0.1185
39381W        W39581  17.118  16.785   1.276  0.2759  0.1555  0.2159
39382W        W39582  16.348  10.179   7.586 -0.1018  0.0986  0.1797
39383W        W39583   5.797  16.082  11.884  0.1493  0.0290 -0.1707
39384W        W39584  11.967   9.217   0.610 -0.1342  0.1100  0.4328
39385W        W39585   8.930  17.591   6.965 -0.1580  0.1594 -0.0658
39386W        W39586   9.865  16.305  10.990 -0.2178  0.1820 -0.1236
39387W        W39587   7.675  12.663  15.428 -0.0964  0.3612 -0.0795
39388W        W39588  14.036  17.793  10.835  0.2688 -0.0881 -0.0302
39389W        W39589   6.908   9.605  10.048 -0.2350 -0.0482 -0.1113
39390W        W39590  10.022  14.857  17.437  0.2823  0.2342 -0.1837
39391W        W39591   3.989   0.579   8.501 -0.2577 -0.0637  0.1890
39392W        W39592   5.590  11.048  13.101  0.1591  0.0245  0.1050
39393W        W39593   1.671  18.115  14.254 -0.1194 -0.2678  0.3287
39394W        W39594   7.051  18.130  12.261 -0.3219 -0.2196 -0.0023
39395W        W39595  16.883   5.564  15.122 -0.1836 -0.0224  0.0615
39396W        W39596   6.493  16.470  13.713  0.0793  0.0279 -0.2775
39397W        W39597   0.254  17.703  11.418  0.1329  0.0042 -0.0118
39398W        W39598   1.584   2.328  14.976 -0.3339  0.1100  0.1988
39399W        W39599   9.235   8.059  16.672  0.3210 -0.2324  0.3233
39400W        W39600  13.931   8.582   7.102  0.1575 -0.1284  0.0383
39401W        W39601   9.738  14.358   1.227 -0.0991  0.2231  0.2419
39402W        W39602  14.393   2.107   8.726 -0.3459  0.3811  0.1662
39403W        W39603  15.142   0.851   8.086  0.3895 -0.2008  0.2505
39404W        W39604  15.378   0.520  11.771 -0.4319 -0.1946  0.0903
39405W        W39605  17.170  14.641  13.062  0.6494 -0.2644  0.0525
39406W        W39606   9.650   8.510  14.071  0.0778  0.0122 -0.1995
39407W        W39607   4.593  13.980   7.804  0.1983 -0.1367  0.2327
39408W        W39608  14.857  12.636   7.368  0.0790 -0.0134 -0.1727
39409W        W39609  11.904   6.694  11.552  0.0595 -0.0002 -0.5293
39410W        W39610  17.476   6.940   4.597 -0.1254 -0.2236 -0.2571
39411W        W39611   5.888   9.686  13.563 -0.1443  0.3030  0.4752
39412W        W39612  17.342  13.917  15.121 -0.0431 -0.0677 -0.0693
39413W        W39613   7.629  15.789   9.301  0.0075  0.0323  0.0049
39414W        W39614  13.078  12.015  17.056 -0.0113 -0.2567 -0.3117
39415W        W39615  13.453   1.388  12.481 -0.1010 -0.2170 -0.1155
39416W        W39616  15.535  13.225  16.792 -0.0667  0.2571  0.1786
39417W        W39617  10.862   9.794  14.980  0.2548 -0.1087 -0.1233
39418W        W39618  16.687   7.653   7.495  0.1433  0.1030  0.3054
39419W        W39619  16.316  15.573  15.850 -0.2725  0.5473 -0.2152
39420W        W39620   6.589   2.294  17.007  0.2951 -0.2203 -0.0702
39421W        W39621   8.631  14.726  17.210  0.1993 -0.0994 -0.2269
39422W        W39622  10.687   1.595  17.709  0.1191 -0.1658  0.1641
39423W        W39623   8.608   1.893  11.146 -0.2504 -0.0136  0.0161
39424W        W39624  14.359  14.049   9.290  0.1183  0.3799  0.0473
39425W        W39625   2.495   9.352  10.470  0.0078 -0.0115 -0.3377
39426W        W39626   2.282   9.649   4.870  0.1701  0.1961 -0.1373
39427W        W39627   3.258  11.552  18.014 -0.0202  0.0253  0.3570
39428W        W39628  15.106   1.421  15.374 -0.0318  0.0228  0.2068
39429W        W39629   6.545  11.564  11.760  0.0280 -0.0394  0.0235
39430W        W39630  11.147  17.197  14.061 -0.1442  0.1266  0.1158
39431W        W39631  10.926   9.459  13.675  0.1508  0.0998  0.2530
39432W        W39632  13.698  11.095  13.600  0.0866  0.2037 -0.1818
39433W        W39633  14.230   3.107  10.116 -0.2838 -0.0630  0.1188
39434W        W39634  16.824  14.400  10.427 -0.1616  0.0753 -0.2239
39435W        W39635  13.835  14.317  17.965  0.0568 -0.1285  0.0257
39436W        W39636   8.764  13.092  12.813  0.0290  0.2027 -0.4466
39437W        W39637  12.300  17.187  11.463  0.0825  0.0462  0.1076
39438W        W39638  16.698  10.467   6.163  0.0934  0.0450 -0.1117
39439W        W39639   2.007  13.970  15.931  0.1663  0.2286 -0.1551
39440W        W39640  14.497  14.706   1.303  0.1323 -0.0358  0.0942
39441W        W39641  13.323   6.448   6.259 -0.0104 -0.1346 -0.2224
39442W        W39642  15.255  15.696   5.891  0.1150 -0.2289 -0.0473
39443W        W39643  18.154  17.794   9.224 -0.3377 -0.0622 -0.0650
39444W        W39644   8.792   7.268  10.198  0.0033  0.1909 -0.0960
39445W        W39645  15.072   4.812  11.668 -0.1555  0.0681 -0.4736
39446W        W39646  16.250   5.055   9.827 -0.1101  0.0599 -0.1456
39447W        W39647   2.152  18.140   3.937 -0.3925 -0.0337  0.2436
39448W        W39648   6.087   0.284  15.559 -0.0702 -0.0509 -0.0378
39449W        W39649   0.515   5.728  17.013  0.1911  0.0857  0.1377
39450W        W39650   6.671   1.833   6.338  0.1482  0.1682  0.2220
39451W        W39651  17.651  13.089   6.709 -0.0928  0.2121 -0.2602
39452W        W39652  14.930  11.764  13.287  0.1212  0.1408 -0.1310
39453W        W39653   9.877  16.719   3.663  0.1693 -0.0409  0.0854
39454W        W39654   8.467   3.281   5.705 -0.3719 -0.0578 -0.2251
39455W        W39655   8.549   0.974  10.130 -0.3263  0.2175  0.1172
39456W        W39656  14.634  13.568  13.409  0.1168  0.0009 -0.0976
39457W        W39657   1.103   9.512   6.959 -0.1025 -0.0096  0.0195
39458W        W39658  15.242   2.450  13.524  0.0289  0.0138 -0.2142
39459W        W39659   2.124   3.991   8.218  0.2466  0.2773 -0.1952
39460W        W39660  10.830   0.336  14.378 -0.0496  0.0540  0.2988
39461W        W39661   3.646  11.168  18.184  0.4591  0.0925 -0.0232
39462W        W39662  15.394  12.789  14.478  0.2685  0.1532  0.3596
39463W        W39663  18.032  11.511  12.684  0.1026 -0.0310  0.0418
39464W        W39664  14.673   1.915   3.350  0.2777  0.2162  0.2346
39465W        W39665   0.816   1.655  14.122 -0.1769  0.3193  0.0692
39466W        W39666  14.933  14.026  14.283 -0.0142 -0.3134  0.0420
39467W        W39667  10.667  12.213  14.219  0.3157 -0.0218 -0.1486
39468W        W39668   8.050  17.534   4.588 -0.1086 -0.1823  0.1475
39469W        W39669   7.828  12.127  16.945 -0.1882  0.2314 -0.1114
39470W        W39670   6.552  10.940  12.487 -0.0738  0.1646 -0.0648
39471W        W39671   6.481   4.118  13.821 -0.1314 -0.0684  0.1795
39472W        W39672   5.756  12.499   6.087  0.2560 -0.1167 -0.1038
39473W        W39673  13.528   6.578  13.144 -0.1572 -0.0480  0.1571
39474W        W39674  10.604  11.550   9.203 -0.1327 -0.0048 -0.1846
39475W        W39675   9.512   7.451   4.559  0.0904 -0.0778  0.0160
39476W        W39676   5.559  15.723   9.059  0.0742  0.1833 -0.3103
39477W        W39677   9.562  12.266  12.138  0.1001 -0.0676 -0.0645
39478W        W39678  17.179  15.744  16.463  0.2049 -0.3101 -0.0592
39479W        W39679  11.356   7.373  16.302 -0.1146  0.2074 -0.0799
39480W        W39680  13.988  14.465   9.564 -0.0866 -0.1064  0.0652
39481W        W39681  17.800  14.214  14.781  0.1793 -0.0066 -0.0739
39482W        W39682   8.341   4.353  14.837  0.0723 -0.2632  0.0208
39483W        W39683   8.132  12.590   3.978 -0.1882 -0.1637  0.0314
39484W        W39684  16.539  13.183  13.163 -0.0397 -0.0754 -0.0290
39485W        W39685   9.171  17.663   2.841  0.0044  0.0087 -0.2722
39486W        W39686   0.307  17.320  13.277  0.1129  0.0332  0.2825
39487W        W39687  13.406  14.360   9.427 -0.0724  0.3135  0.1431
39488W        W39688  11.273  13.191   9.982 -0.0114  0.2359 -0.3972
39489W        W39689   7.503  14.004  11.238  0.2156 -0.0554  0.4045
39490W        W39690  13.640   4.067   4.586 -0.0654  0.1084  0.0480
39491W        W39691  12.339   7.446  15.699  0.1509 -0.3238  0.0801
39492W        W39692  11.616  14.993  12.737 -0.2722 -0.2554  0.0558
39493W        W39693   7.656   1.297  14.418  0.4191  0.0879  0.1339
39494W        W39694   7.916  13.513  14.780 -0.1065  0.4184  0.1772
39495W        W39695  12.630  14.250  15.202  0.1899  0.3767  0.0404
39496W        W39696  10.898  14.095  12.914 -0.2258  0.1295 -0.1130
39497W        W39697  11.654  14.832   6.398 -0.4313 -0.0511  0.1029
39498W        W39698  16.179   5.889   2.094 -0.1501  0.0477  0.0922
39499W        W39699  11.004  11.698  14.461 -0.3752  0.1521  0.1534
39500W        W39700  15.073  13.420   9.474 -0.0832  0.2674 -0.2276
39501W        W39701  12.237   1.152   3.244 -0.2581  0.1169  0.1544
39502W        W39702  13.817  14.786  12.147 -0.0384  0.1794  0.0099
39503W        W39703  15.783   5.129  15.395 -0.0428  0.1968 -0.2083
39504W        W39704   0.266  14.470   5.320 -0.0904  0.0168 -0.0179
39505W        W39705  10.990   0.813  14.281 -0.0318  0.3066  0.0997
39506W        W39706   1.792  10.424  13.592 -0.1384 -0.2606 -0.3136
39507W        W39707  12.874   3.447  16.385  0.2807 -0.0672 -0.0700
39508W        W39708  10.884   2.587  13.161  0.0901  0.2003 -0.1979
39509W        W39709   4.684   0.891  14.513 -0.0050  0.1036  0.2122
39510W        W39710  14.102   2.498   3.044  0.1690 -0.0887  0.1542
39511W        W39711  14.656  15.091  14.894  0.1689  0.0965  0.0064
39512W        W39712   4.285   0.612  10.473 -0.2269  0.0662 -0.0105
39513W        W39713  16.386  12.546  12.423  0.2334  0.2136  0.0456
39514W        W39714   4.045   9.484   6.857  0.1490 -0.1718 -0.2096
39515W        W39715  13.585   7.738  13.857  0.1249  0.2853 -0.1698
39516W        W39716  12.347  13.394  16.781  0.0616 -0.3028  0.3949
39517W        W39717  16.404   1.398   4.807  0.1510 -0.0540  0.0009
39518W        W39718   6.621  12.319  14.131  0.1847  0.2224 -0.2447
39519W        W39719   9.983   0.049   5.030  0.0722 -0.0869  0.0733
39520W        W39720  13.248  13.809  10.634  0.0201  0.1940  0.1671
39521W        W39721  11.092  11.976  12.314  0.1112  0.0891  0.1043
39522W        W39722  14.537   2.617  14.923  0.1934  0.0090  0.1644
39523W        W39723   9.720  10.966   0.150  0.1128 -0.0219 -0.0890
39524W        W39724  13.675  17.672  11.197 -0.0954 -0.0973 -0.2014
39525W        W39725  14.983  11.669  17.111  0.2210 -0.2414  0.1905
39526W        W39726  14.698   4.083   7.039  0.2025  0.1659  0.3407
39527W        W39727  16.502  10.515   5.570 -0.0409 -0.2788  0.2270
39528W        W39728   9.508  16.182  10.608  0.3111  0.1594 -0.1441
39529W        W39729   7.633  16.677   9.346 -0.1997  0.0917 -0.0315
39530W        W39730  17.021  13.112  18.200 -0.1325 -0.1396  0.1080
39531W        W39731  11.240   0.306   0.074 -0.0386 -0.0954 -0.2251
39532W        W39732  11.492   0.777   5.788  0.2013  0.0584 -0.0566
39533W        W39733  15.673  14.785   8.348 -0.3746  0.1549  0.0871
39534W        W39734   7.716   0.649  12.399 -0.0983 -0.1575 -0.0875
39535W        W39735  14.373   8.584   8.556 -0.2117 -0.1061  0.2509
39536W        W39736   0.645  16.703  12.824 -0.1752  0.0575  0.1966
39537W        W39737  13.714   9.749   1.058 -0.2819  0.1169  0.1391
39538W        W39738   7.957  17.585   9.163  0.0904 -0.0379  0.2066
39539W        W39739   8.390  10.135  11.638  0.0595 -0.1548 -0.3347
39540W        W39740   9.236  11.685  14.638 -0.0170  0.2245  0.3298
39541W        W39741   1.060   1.922  16.949 -0.0442  0.1948 -0.2685
39542W        W39742   8.769   3.133   9.934 -0.0821  0.0639  0.4939
39543W        W39743  14.627   7.073  15.275 -0.0345  0.2030 -0.0187
39544W        W39744  12.878   1.788  14.095  0.3205  0.3816  0.0596
39545W        W39745  14.638  15.238  11.064 -0.1519  0.2542  0.0399
39546W        W39746  12.094   8.676  15.067 -0.0170  0.5530  0.4659
39547W        W39747  17.515  12.819   7.120 -0.3882  0.3173  0.2910
39548W        W39748  15.408   6.950  10.553 -0.1131 -0.1261  0.0498
39549W        W39749  11.571   6.478   9.977 -0.1940 -0.0571 -0.1133
39550W        W39750   9.533   9.289   7.046  0.2313  0.0914 -0.0033
39551W        W39751   6.899   0.506  13.324 -0.2128 -0.3042 -0.1464
39552W        W39752   0.018  11.431  11.218  0.3019  0.2588 -0.2033
39553W        W39753   9.425   3.323  11.601 -0.0057 -0.0433 -0.1500
39554W        W39754   7.817   2.220  13.932 -0.0097 -0.5405  0.1327
39555W        W39755   3.713  13.435  12.132  0.2435  0.0181  0.0511
39556W        W39756   9.724   2.582  12.324  0.1420  0.2225 -0.1782
39557W        W39757   7.350   0.849  14.096  0.3580  0.0663  0.0879
39558W        W39758  14.608  16.504   1.522  0.2173 -0.0425 -0.3809
39559W        W39759   8.691  15.052  13.441 -0.0320  0.1365 -0.0232
39560W        W39760   6.883   1.091   4.218  0.3262  0.4087 -0.1169
39561W        W39761   7.850  11.036  12.488  0.1095  0.2480  0.1062
39562W        W39762  14.999   6.747  10.200 -0.1814 -0.3213 -0.0047
39563W        W39763  10.629  17.237  14.075 -0.3381  0.1087  0.0494
39564W        W39764   8.977   9.219  13.697 -0.0965  0.1120  0.0118
39565W        W39765  13.030  10.282   8.468 -0.0215 -0.1296  0.0396
39566W        W39766  12.785   1.543   4.996 -0.2041 -0.0071  0.1555
39567W        W39767  13.049  15.507   0.812  0.2317  0.0548 -0.2437
39568W        W39768  10.428   1.051   4.771 -0.2917  0.1190  0.0664
39569W        W39769  13.753   0.668  10.195  0.1842  0.2083  0.3152
39570W        W39770  14.362  17.919   7.719  0.2685  0.2073 -0.0874
39571W        W39771  11.746  15.670  10.813  0.1139  0.0596 -0.0785
39572W        W39772   7.154  11.362  16.977  0.1824  0.0684  0.2088
39573W        W39773  15.521  13.801  13.440 -0.0105  0.1116  0.2248
39574W        W39774  14.871   5.971   8.491  0.0214 -0.2449  0.1051
39575W        W39775   7.760   6.188  10.875  0.1780 -0.0437 -0.0283
39576W        W39776   6.476  16.326  14.272 -0.1535 -0.0218  0.1199
39577W        W39777   8.555   5.300   7.237  0.2811 -0.0754  0.3335
39578W        W39778  13.368  13.882  12.499  0.2633 -0.0337  0.4236
39579W        W39779   6.629  10.190  10.606  0.2956 -0.0410  0.1409
39580W        W39780  13.893  16.350  14.617 -0.0161 -0.1910 -0.1038
39581W        W39781  15.396  16.196   0.060  0.0292  0.0891 -0.0600
39582W        W39782   2.958  12.231   3.175 -0.1938  0.1915  0.4757
39583W        W39783  10.169   2.167  13.921  0.0881  0.1687  0.0980
39584W        W39784  13.313  15.509  12.217  0.0976  0.0908  0.1119
39585W        W39785   9.946   1.874   9.399 -0.0487  0.1811  0.1834
39586W        W39786  10.302  16.964  16.907 -0.2091 -0.5478 -0.2548
39587W        W39787   0.540  15.530  11.439 -0.0323 -0.3524  0.0152
39588W        W39788   0.605   3.428   4.102  0.1391  0.0001  0.0681
39589W        W39789  13.692  15.628   7.657  0.0070  0.1582 -0.1206
39590W        W39790   3.757  14.981  17.946  0.0606  0.2235  0.2415
39591W        W39791  11.971  13.707  16.600 -0.2650 -0.0037 -0.1248
39592W        W39792   8.339  13.968  15.346  0.1776 -0.0251  0.1611
39593W        W39793  13.794  17.395   1.728 -0.0241 -0.1896 -0.2505
39594W        W39794   9.464   7.865  10.871  0.1869  0.2740  0.2242
39595W        W39795   6.789   4.719  12.999 -0.0584 -0.0625  0.0444
39596W        W39796  13.263   2.620   5.413  0.0038 -0.3277 -0.1066
39597W        W39797   0.921   3.574   0.941 -0.2852 -0.1942  0.2297
39598W        W39798  11.456   1.949   1.024 -0.3869  0.3778 -0.0142
39599W        W39799   4.741   0.742  12.711  0.0268 -0.0656 -0.0449
39600W        W39800  14.995   1.179  17.788  0.0344 -0.0484  0.1863
39601W        W39801  13.298   6.142   4.920  0.1395 -0.2091  0.1173
39602W        W39802  11.425  13.363  12.155 -0.1220  0.0724 -0.1082
39603W        W39803  10.082  12.762  14.243  0.0698  0.1013 -0.4163
39604W        W39804   9.437  17.406  10.640  0.0223 -0.1082 -0.1043
39605W        W39805  14.974  10.088  17.941  0.1160 -0.0238  0.0311
39606W        W39806  11.382  11.068  11.908 -0.3024 -0.0386 -0.2699
39607W        W39807   9.872   4.168  15.038  0.0890 -0.1950 -0.2609
39608W        W39808   4.133   8.305  16.152 -0.3167 -0.4850 -0.0548
39609W        W39809   6.876  16.437   4.478  0.1512 -0.0961 -0.0655
39610W        W39810  15.575   2.473   3.334  0.0016 -0.3196 -0.0183
39611W        W39811   9.315   4.396  16.834 -0.1286 -0.2612 -0.1151
39612W        W39812  13.594   2.746  13.341 -0.1446 -0.1930 -0.0339
39613W        W39813   5.621   5.681   2.588  0.2109 -0.0050 -0.0154
39614W        W39814   2.366  12.009   1.679  0.2963  0.1593 -0.3365
39615W        W39815   5.545  15.207  12.155  0.1716  0.0503  0.2929
39616W        W39816  16.497  11.575  11.384  0.1668  0.1510 -0.1586
39617W        W39817  11.989  15.586  14.106 -0.0771  0.1608 -0.1876
39618W        W39818   0.861  13.315   1.182  0.4958  0.1388 -0.2220
39619W        W39819   2.737  14.878   1.999  0.1925 -0.1256  0.0207
39620W        W39820   8.203   2.657  17.919  0.2772 -0.0883 -0.0944
39621W        W39821  10.255  16.891  11.073 -0.2351  0.1422 -0.1221
39622W        W39822   2.144   1.965  12.293 -0.0131  0.0870  0.1678
39623W        W39823  10.541  15.783   0.860  0.5788 -0.3556  0.0491
39624W        W39824  11.458   0.849   4.526  0.1050  0.4565  0.2192
39625W        W39825  12.694   5.032   0.456 -0.0570 -0.4040 -0.0624
39626W        W39826   6.080  15.402   2.307 -0.0634 -0.0462  0.1224
39627W        W39827   8.927  17.359  10.872 -0.1565  0.1794 -0.2466
39628W        W39828  15.356  17.567   2.413  0.0306  0.3574 -0.0732
39629W        W39829   6.044  11.216   3.499  0.0970  0.1243 -0.0791
39630W        W39830  13.467   1.564   5.641  0.3223 -0.0271  0.1122
39631W        W39831   1.216  17.822  15.596  0.0270 -0.0238 -0.0906
39632W        W39832  15.546  14.945   5.449  0.0812 -0.0099  0.0670
39633W        W39833   0.640  15.768   2.866  0.1360 -0.0426  0.0312
39634W        W39834   0.111  12.724   4.068 -0.0310 -0.0051  0.0697
39635W        W39835   0.050  13.947   6.849 -0.0572  0.0973 -0.1110
39636W        W39836  10.855  12.176  14.683  0.1530 -0.2091  0.2776
39637W        W39837  16.808   9.501   3.237 -0.0658  0.5249 -0.3284
39638W        W39838  13.072   8.238   6.406 -0.0767 -0.0294 -0.0674
39639W        W39839   4.110  17.437   4.927 -0.1178 -0.2439 -0.1393
39640W        W39840  12.191  14.270   9.933  0.2922  0.0954  0.1688
39641W        W39841  18.000   2.096   4.759  0.0781  0.1741 -0.0191
39642W        W39842   9.156  12.903   1.665  0.2092 -0.0882  0.0596
39643W        W39843  13.905  12.673   1.796  0.1273 -0.3733 -0.0204
39644W        W39844  12.586  17.545  13.576  0.0684  0.1801 -0.1392
39645W        W39845  14.315  17.672   2.556 -0.2223 -0.0286  0.1413
39646W        W39846  10.799  10.062  14.516  0.0538  0.3290  0.0532
39647W        W39847   7.779   4.321  13.903  0.1900  0.1724 -0.0320
39648W        W39848  11.369   6.528  15.659 -0.3366 -0.2565 -0.1429
39649W        W39849  14.448   6.744  16.099 -0.0395  0.0616  0.0326
39650W        W39850  13.233  12.113   8.302 -0.0247  0.1312 -0.0014
39651W        W39851  10.936  16.594   0.312 -0.2021  0.0268 -0.0391
39652W        W39852   0.040   2.554  10.702 -0.0992  0.2127  0.2944
39653W        W39853  12.482   9.519  16.259 -0.0993 -0.2837  0.0647
39654W        W39854  11.953  15.231  10.532 -0.1676 -0.1206 -0.1122
39655W        W39855  10.626   2.072  18.070 -0.3049  0.1179  0.0075
39656W        W39856  13.666   7.994   0.888  0.1724 -0.4590 -0.2410
39657W        W39857  17.911   3.644   8.157  0.0415 -0.1133 -0.2524
39658W        W39858   1.606  12.892  17.573  0.1341  0.0749  0.0088
39659W        W39859  10.108  17.158   1.748  0.1249  0.3295  0.1504
39660W        W39860  15.629  12.039   2.651  0.0730  0.2147 -0.1386
39661W        W39861  11.110  15.145  16.041 -0.3440  0.1156  0.1108
39662W        W39862   8.589  15.160  17.417 -0.2308  0.0303  0.0005
39663W        W39863  10.741  14.402  17.986  0.1701 -0.0065  0.1171
39664W        W39864  11.380   9.619  11.249 -0.0832  0.1793  0.0510
39665W        W39865   5.951   3.492  15.277 -0.0239  0.1529  0.2580
39666W        W39866  16.007  13.963   3.099  0.2245  0.2394 -0.3642
39667W        W39867  10.470   6.959  14.795 -0.0794 -0.0671 -0.0593
39668W        W39868   4.971  12.240  10.284  0.2308 -0.1314 -0.2455
39669W        W39869  14.951   5.894  15.975 -0.1676 -0.0645 -0.2005
39670W        W39870  11.826   9.355  11.363 -0.1444  0.0639 -0.2772
39671W        W39871  14.274  16.971  18.193  0.1362  0.0551  0.0189
39672W        W39872  15.198   8.582  16.176 -0.1808 -0.0793  0.1809
39673W        W39873  16.163  15.051   6.683 -0.4010 -0.1275  0.2390
39674W        W39874  11.440   8.601  15.552 -0.0423 -0.0142 -0.1889
39675W        W39875   8.700  12.525  16.847  0.2626  0.0417  0.1677
39676W        W39876   7.123   9.749   2.877 -0.0945 -0.1286  0.1087
39677W        W39877  16.040   0.368   1.227  0.0489  0.1940  0.1801
39678W        W39878   9.461  14.549  18.055  0.1874 -0.3510 -0.1390
39679W        W39879  11.300   4.882  16.519  0.1232  0.2814  0.0310
39680W        W39880   7.291   3.198  15.585  0.2296  0.2835  0.0343
39681W        W39881   0.259   3.248   3.720 -0.2859 -0.0555  0.0730
39682W        W39882   3.682   3.497  14.409  0.2070 -0.1285  0.0200
39683W        W39883  10.250  15.852  10.880 -0.1329  0.4572  0.0476
39684W        W39884  13.113   5.790  11.899  0.2617  0.2911  0.0237
39685W        W39885   6.957   1.353   6.560 -0.0034 -0.6058 -0.0687
39686W        W39886  12.907   9.457  10.564  0.2467  0.0218  0.1774
39687W        W39887  17.872   1.981  17.221  0.3187  0.2428  0.0222
39688W        W39888   9.833   1.460  14.328  0.0777 -0.0754 -0.0757
39689W        W39889  11.367  15.679  16.141  0.1355  0.1878  0.1138
39690W        W39890   9.849   0.475  18.155 -0.2959  0.1525  0.1188
39691W        W39891   1.736   1.578   3.168  0.1718 -0.3020 -0.3886
39692W        W39892  15.141  15.303  17.201 -0.0300  0.1927  0.1386
39693W        W39893   6.978   7.098   2.948  0.0725  0.2758 -0.2690
39694W        W39894  10.334  13.849  12.351  0.0353  0.0320 -0.1110
39695W        W39895  11.742  12.950  13.706 -0.0895 -0.1359 -0.1642
39696W        W39896  14.565  17.943  17.878 -0.1034 -0.0707 -0.1017
39697W        W39897  13.085   0.355   3.808  0.2828  0.1670  0.0994
39698W        W39898  16.288  13.536  16.805 -0.0394  0.1265 -0.0138
39699W        W39899   0.739  13.750  16.231  0.1221 -0.0697 -0.3340
39700W        W39900  14.095   8.382  11.381 -0.2240 -0.0789 -0.1474
39701W        W39901   3.079  17.073  15.282  0.0724 -0.3102  0.0382
39702W        W39902   7.259   3.507  15.210  0.1140 -0.1360 -0.2255
39703W        W39903  13.219   3.048   2.968  0.1898  0.2230 -0.1855
39704W        W39904  17.770  18.180   4.715  0.1540  0.2572  0.0190
39705W        W39905   8.108  15.629  14.910 -0.0815  0.4414 -0.1071
39706W        W39906   3.362  12.101  16.789 -0.2920 -0.0035  0.0269
39707W        W39907  11.571   1.290   4.148 -0.1527  0.1464 -0.1847
39708W        W39908   2.900  10.220   1.434 -0.1119 -0.3389  0.1867
39709W        W39909   5.208   0.694  14.666 -0.1008  0.0867 -0.0413
39710W        W39910  11.230  13.799  15.830 -0.0166 -0.1822 -0.3765
39711W        W39911   8.513   2.974   9.503  0.3046 -0.0322 -0.2395
39712W        W39912   9.587   0.913  10.374 -0.0561  0.2054  0.4091
39713W        W39913   9.651   4.071   9.831  0.0437 -0.0911 -0.3684
39714W        W39914   8.819   4.737   3.443  0.1287 -0.0625  0.2678
39715W        W39915   9.058   5.036  13.142 -0.2000  0.0295 -0.0536
39716W        W39916   0.696   3.085  16.052 -0.4116 -0.1528  0.0122
39717W        W39917  15.768  15.951  16.371 -0.0058 -0.0407 -0.0242
39718W        W39918  12.555  14.186  11.003  0.0805 -0.2223  0.0151
39719W        W39919   8.072  16.381  15.229 -0.3054  0.1361 -0.1282
39720W        W39920  13.755  17.826   0.373 -0.1072 -0.3425  0.1002
39721W        W39921  17.272  10.518   7.133 -0.0169  0.0174  0.0520
39722W        W39922   2.883  13.539  15.751 -0.1108 -0.1298  0.0024
39723W        W39923  10.873  11.992   0.222  0.0640  0.0775 -0.1590
39724W        W39924  16.088   2.829   2.016 -0.3661 -0.0487  0.1666
39725W        W39925  12.043  16.898   1.314  0.0244  0.3789 -0.1213
39726W        W39926  13.575  14.861   9.440 -0.1239 -0.1453  0.1553
39727W        W39927  15.969   0.111   5.395  0.0364 -0.1175 -0.0567
39728W        W39928  12.637  14.157   6.391 -0.0250  0.1041 -0.1471
39729W        W39929  15.472   2.370   4.385 -0.0821  0.0323  0.1106
39730W        W39930   2.303  10.648  17.668  0.0455 -0.0469  0.4770
39731W        W39931  10.466  14.753   8.114 -0.0960  0.2716  0.3468
39732W        W39932  11.935  11.320   2.137  0.0966  0.1488 -0.1234
39733W        W39933   5.497   1.580   1.775  0.1293 -0.3088  0.1996
39734W        W39934   6.679  16.937   2.981  0.0831  0.3091  0.3007
39735W        W39935   3.522   7.483  16.542  0.0710  0.3822  0.0390
39736W        W39936  11.851  15.060  14.865  0.0235  0.2488  0.3473
39737W        W39937  11.397   7.009   3.451 -0.2863 -0.1105 -0.1019
39738W        W39938  10.139  12.588  10.924  0.0460 -0.3382  0.0699
39739W        W39939   4.665  11.132   1.467  0.0712 -0.0325  0.2008
39740W        W39940  13.797   0.326   3.946  0.0687 -0.0247  0.2527
39741W        W39941  13.101   7.960   1.316 -0.0161 -0.1386  0.0057
39742W        W39942   0.675  14.331  17.789  0.1253  0.0953 -0.0469
39743W        W39943  14.060  14.854   2.774 -0.0774 -0.0917 -0.0558
39744W        W39944   7.916   0.018  14.196 -0.0215  0.0735  0.3814
39745W        W39945  12.647  14.010   1.429 -0.0882  0.1669 -0.0021
39746W        W39946   8.067   5.979   9.914  0.1254  0.0286 -0.1721
39747W        W39947  15.819   3.217   1.094  0.0098 -0.0028  0.0018
39748W        W39948   8.861  14.980  15.283 -0.0799 -0.2022 -0.0301
39749W        W39949  14.725  11.464  14.793 -0.0033  0.1307 -0.0562
39750W        W39950  11.978  12.587   4.724 -0.3085 -0.4040 -0.1949
39751W        W39951   9.686   5.491   2.878 -0.1997 -0.1523 -0.1866
39752W        W39952   4.037   3.416  10.572 -0.2030 -0.0847 -0.0904
39753W        W39953  13.274  10.717  11.748 -0.0037  0.1764  0.0405
39754W        W39954  11.714  14.856   2.279 -0.0476 -0.0784  0.0692
39755W        W39955  11.406  16.171   7.813  0.1849 -0.2267  0.1088
39756W        W39956   8.088  10.700  13.643  0.0802  0.0864 -0.1400
39757W        W39957   3.652  13.074   0.131  0.1039 -0.0223 -0.0929
39758W        W39958   9.831  14.066   0.812  0.2569  0.1439  0.0322
39759W        W39959  11.004   2.407   4.842 -0.0102  0.0586  0.1951
39760W        W39960   2.145   0.575   3.602 -0.1030  0.1699 -0.0735
39761W        W39961   1.839  13.599   4.913  0.3407 -0.0788 -0.0898
39762W        W39962  11.017  10.005  17.293  0.0409 -0.1508  0.0775
39763W        W39963  14.939  17.859  14.338 -0.0101  0.4233 -0.3328
39764W        W39964   1.113  15.958   4.522  0.1052  0.2209  0.3004
39765W        W39965  11.718   2.804  17.586  0.4293 -0.0367  0.1727
39766W        W39966   8.276   0.317   2.980  0.1860 -0.0693 -0.2293
39767W        W39967   0.406   4.087  14.732 -0.1658  0.1587 -0.2163
39768W        W39968   7.433  10.198   1.334  0.2092  0.0368 -0.4112
39769W        W39969   9.819  11.559  17.505  0.1427 -0.3089 -0.1129
39770W        W39970  10.950  17.361   0.713  0.4861 -0.0013  0.1511
39771W        W39971  16.641  18.100   5.918 -0.1658  0.1848 -0.0020
39772W        W39972  13.974  10.260   3.581 -0.0961  0.1953 -0.3111
39773W        W39973  10.651   1.765   3.632 -0.1676 -0.2697 -0.0398
39774W        W39974  15.430  16.766  12.073  0.3864  0.0652  0.3925
39775W        W39975   4.738  17.397   4.246 -0.1596  0.0851 -0.0874
39776W        W39976  11.674   6.039  15.787 -0.0934  0.0377 -0.2292
39777W        W39977  10.492  14.887  17.603 -0.3053  0.1501 -0.2873
39778W        W39978  17.764   4.131   5.150 -0.0239  0.1089  0.1085
39779W        W39979  17.364   5.994  10.027 -0.2268 -0.1848  0.0835
39780W        W39980   4.773  13.531  11.352  0.0210  0.1924  0.0307
39781W        W39981   2.548   7.426   5.097  0.0187  0.0587 -0.0613
39782W        W39982  14.204  14.386   3.557 -0.2351 -0.3266  0.1531
39783W        W39983   6.991  16.192   4.017  0.3418 -0.0487 -0.0859
39784W        W39984  15.761  16.806   4.229  0.1528 -0.3708  0.1338
39785W        W39985   4.375  15.693   3.871  0.1577 -0.0049 -0.2616
39786W        W39986   8.943  12.221   4.953  0.0777 -0.1048 -0.0527
39787W        W39987  17.459  17.181  16.504  0.2608  0.2506 -0.0605
39788W        W39988   1.425   3.097  13.442  0.1677  0.0782  0.4644
39789W        W39989  10.092   6.293  15.728  0.0093 -0.0221  0.3138
39790W        W39990   4.592   5.209  17.163  0.0501  0.4282  0.1494
39791W        W39991   5.947   6.955  17.780 -0.0997 -0.1302 -0.3543
39792W        W39992   2.316  16.742  15.532 -0.1226  0.1598  0.0671
39793W        W39993  14.323  13.386  17.134 -0.0685 -0.3369 -0.0734
39794W        W39994  15.788   8.498   5.573 -0.4133  0.1711  0.0311
39795W        W39995   4.224   3.536   2.605  0.2204  0.2225 -0.0717
39796W        W39996  13.003   5.380   3.233 -0.0253  0.1345 -0.1160
39797W        W39997  16.744   0.122   4.543  0.1465 -0.1242 -0.1675
39798W        W39998  13.831   9.633  14.861  0.1222 -0.2316  0.1179
39799W        W39999  12.477  16.447   3.032 -0.0365  0.3561 -0.1073
39800W        W40000   5.873  14.370   5.412 -0.0351  0.2462  0.2096
39801W        W40001   8.534   2.318  16.722 -0.2382 -0.0704 -0.0099
39802W        W40002   6.650   0.336   1.002 -0.1624  0.0878  0.0803
39803W        W40003   1.169   4.549   0.785 -0.0775 -0.1137 -0.1882
39804W        W40004   4.601   9.676   5.968 -0.1694 -0.0054  0.0528
39805W        W40005  10.277  16.111   2.479 -0.0281 -0.1190 -0.1591
39806W        W40006  11.034  15.430   7.643 -0.1557  0.0324  0.1459
39807W        W40007   9.363   0.414  18.103 -0.2595 -0.3262 -0.1060
39808W        W40008  12.521  17.169  15.243 -0.1762  0.3097  0.1205
39809W        W40009   8.424   7.814  17.247  0.0927 -0.1048  0.1054
39810W        W40010   9.907   0.116  15.991  0.1277 -0.0440 -0.0085
39811W        W40011  14.428   2.441  14.468 -0.1641  0.1729  0.1670
39812W        W40012  17.045  13.688  14.833  0.1084 -0.2313 -0.5249
39813W        W40013  13.652  10.798   7.847  0.1199  0.1469 -0.1223
39814W        W40014  11.947  14.640  16.343 -0.6780  0.0317 -0.0521
39815W        W40015  12.083   9.124   5.920  0.1470 -0.3426  0.0476
39816W        W40016   1.541  14.853  16.219 -0.1068  0.1729 -0.2152
39817W        W40017  13.695  16.472   4.532  0.0770 -0.0304  0.2495
39818W        W40018  13.913   5.603   0.189 -0.0660  0.1016 -0.1661
39819W        W40019  13.184  18.119  14.848 -0.2384 -0.1301  0.1372
39820W        W40020  11.985  15.659  17.493 -0.2209 -0.1948 -0.2956
39821W        W40021   7.792   6.064  16.738 -0.0746  0.0614 -0.2080
39822W        W40022  15.060  11.547  17.632 -0.1848  0.0772  0.0515
39823W        W40023  14.418   9.434  15.415  0.1091 -0.3182  0.1545
39824W        W40024  13.607  15.170  15.141 -0.1250 -0.0040 -0.0929
39825W        W40025  11.039  14.095   0.709  0.2370  0.0918 -0.0921
39826W        W40026  16.668  13.111  13.729  0.4878  0.0438  0.1199
39827W        W40027  11.654  12.842   0.267  0.0031 -0.1136  0.2168
39828W        W40028  14.277  11.456   0.598  0.0232  0.2301  0.2703
39829W        W40029   9.638   8.465  15.866 -0.0628  0.2488 -0.0986
39830W        W40030  11.156  16.933   7.080 -0.2349 -0.1904 -0.0191
39831W        W40031  13.406  14.801   3.546 -0.3062 -0.2719  0.0524
39832W        W40032   0.930  13.844  13.656  0.0154 -0.1333  0.1895
39833W        W40033  14.349  15.511  15.754  0.0788 -0.0190  0.1532
39834W        W40034   0.791   8.619  13.982 -0.0202 -0.2669  0.0227
39835W        W40035  10.949  16.344  16.748  0.0651  0.1502 -0.3304
39836W        W40036  11.859   4.444  14.928 -0.2381 -0.2018  0.0217
39837W        W40037   2.841  14.797  17.079  0.0929 -0.0523 -0.0645
39838W        W40038  12.410  15.774  15.004 -0.0453 -0.1433  0.0141
39839W        W40039   0.481   9.722  15.382 -0.0069 -0.2554  0.1748
39840W        W40040  11.766  14.531   2.734 -0.1378 -0.0395 -0.0343
39841W        W40041  14.055   0.856   5.284 -0.2442 -0.1268 -0.0904
39842W        W40042  13.324  13.497  11.536 -0.0510  0.1344  0.0300
39843W        W40043  16.342   2.824   4.553  0.0472 -0.0474 -0.1619
39844W        W40044   5.750   9.423  12.979 -0.1712 -0.0474  0.0532
39845W        W40045   4.170  16.041  12.069  0.1522 -0.1439  0.1984
39846W        W40046  17.705   7.470  16.658 -0.0309 -0.1904  0.0270
39847W        W40047  10.974   2.818  18.173 -0.1538 -0.0533 -0.0471
39848W        W40048   0.047   5.629  14.581 -0.1405 -0.1658  0.0102
39849W        W40049   9.115   1.031  17.527 -0.0436 -0.3111  0.1838
39850W        W40050   6.643   0.880  11.202  0.1559  0.2297 -0.2290
39851W        W40051  14.616  17.009   0.958  0.0057  0.0764 -0.2234
39852W        W40052  15.292   1.793   2.734  0.4081  0.3394  0.0023
39853W        W40053  13.080  17.192   1.383 -0.0104  0.3728 -0.0649
39854W        W40054   7.885  15.835   2.581  0.2205  0.2762 -0.0343
39855W        W40055   7.620  17.306  17.833 -0.0109  0.1024 -0.3295
39856W        W40056  11.504   9.075   8.109  0.1238 -0.1158  0.1923
39857W        W40057   8.582  16.768  11.711 -0.1646 -0.1270 -0.0437
39858W        W40058   8.666  15.943  13.026  0.0874 -0.1203  0.0364
39859W        W40059   8.798  15.759  17.664  0.0897  0.0598 -0.1528
39860W        W40060  15.378  16.789   2.877 -0.0604 -0.0985 -0.0316
39861W        W40061  11.677   5.458   9.799  0.1544 -0.1703  0.1914
39862W        W40062  14.718  10.525  18.019  0.0882 -0.2053  0.2655
39863W        W40063  17.812  15.149   2.348  0.4089  0.0385  0.1019
39864W        W40064  15.435   7.521  13.613  0.0053  0.1061 -0.0431
39865W        W40065  13.340  16.339   4.982  0.2701  0.4402 -0.2495
39866W        W40066   1.944   0.232  12.876  0.2056 -0.1530  0.0146
39867W        W40067   1.790   5.976   5.952 -0.2031  0.0272 -0.0403
39868W        W40068  15.381  14.643  15.589  0.0914 -0.1371 -0.2498
39869W        W40069  12.894   4.493  11.175 -0.0563 -0.1678 -0.2152
39870W        W40070  13.000  16.349   2.967 -0.2225 -0.0259  0.1799
39871W        W40071   0.552  12.120  16.913  0.1467  0.1745  0.0208
39872W        W40072  12.459  11.368  16.459 -0.2189  0.0466 -0.1295
39873W        W40073  15.113  15.234  15.264 -0.1875  0.2869 -0.0430
39874W        W40074   6.524  11.336   5.111  0.0907 -0.2385 -0.3237
39875W        W40075  15.853  12.060   0.312 -0.3260 -0.2258  0.4089
39876W        W40076  10.100  15.145  16.004  0.1895  0.2575 -0.0436
39877W        W40077  11.067  13.883  11.073 -0.2021  0.3567  0.1440
39878W        W40078  14.867  15.247  16.250  0.1127 -0.0096  0.2044
39879W        W40079  12.266   1.755  16.846  0.0704 -0.0236 -0.0605
39880W        W40080  17.835   6.531   7.680 -0.1098  0.0316 -0.0255
39881W        W40081  17.958  10.261   2.399 -0.1751 -0.0481  0.2829
39882W        W40082  10.388  15.235  12.979  0.1919  0.4259 -0.3865
39883W        W40083  10.697  13.778   5.639  0.0086  0.0115  0.0480
39884W        W40084  17.802   7.853  17.057  0.1623 -0.0137  0.2548
39885W        W40085   6.096  13.526   7.947  0.0275  0.0827  0.0505
39886W        W40086  10.991   8.711  12.420  0.0805 -0.1074 -0.0252
39887W        W40087  16.038   1.613   7.227  0.0168 -0.2779 -0.2203
39888W        W40088   9.443  17.165  11.485 -0.2930  0.0335  0.0713
39889W        W40089   3.498   5.050   4.141  0.0580  0.0292  0.3219
39890W        W40090   2.274  13.832   3.803  0.4339 -0.0857 -0.0930
39891W        W40091  10.343   5.287  10.265  0.0703 -0.0656  0.0566
39892W        W40092  13.175  16.931  14.488 -0.1416 -0.0317  0.0095
39893W        W40093  11.179  11.346  14.794 -0.0135  0.1039  0.1306
39894W        W40094   1.561  16.297   1.850  0.3568  0.2361  0.0540
39895W        W40095   9.840  15.946  15.382 -0.2434 -0.0183  0.1907
39896W        W40096   2.361  12.578  18.141 -0.3367 -0.0947 -0.0960
39897W        W40097   6.918  14.113   2.181 -0.0672 -0.0409  0.2312
39898W        W40098   3.617   6.003   5.678  0.2722 -0.5037  0.1769
39899W        W40099  13.260   6.140   9.879  0.4636 -0.0590  0.0088
39900W        W40100   1.938   1.064  17.607  0.2234  0.0614  0.1746
39901W        W40101   6.260   9.225   3.204 -0.0485  0.1524  0.5168
39902W        W40102  16.957   5.852  15.791 -0.2030  0.2149  0.0802
39903W        W40103   7.424  17.026  12.339 -0.2454  0.1401 -0.0970
39904W        W40104  11.049  12.687  10.032  0.0803 -0.1136 -0.0742
39905W        W40105  11.560  13.394  16.610  0.2857  0.1063  0.0042
39906W        W40106   8.299  14.945  10.132 -0.0740  0.0403 -0.0472
39907W        W40107  16.478  15.176  18.074 -0.2230 -0.0477  0.0525
39908W        W40108  12.857  16.165  15.169  0.0664 -0.0202  0.2023
39909W        W40109   0.187   3.572  11.565  0.0884  0.3772  0.2809
39910W        W40110   6.741   1.123   8.057 -0.0948 -0.2443 -0.2046
39911W        W40111   1.027  16.764   7.310 -0.1995 -0.0987 -0.0936
39912W        W40112   4.848  17.556  11.852  0.0622 -0.1660 -0.3568
39913W        W40113  17.023   6.334  14.530 -0.1182  0.0298 -0.5367
39914W        W40114  12.968  16.559  10.973 -0.0123  0.1755 -0.1585
39915W        W40115  16.044  16.886   0.304  0.3217 -0.1814 -0.2037
39916W        W40116  10.825  15.678  18.117 -0.4203 -0.0694  0.0690
39917W        W40117  10.469   8.095  14.451  0.1415  0.0245  0.0051
39918W        W40118  11.972  15.907   6.131 -0.1506 -0.0189  0.1705
39919W        W40119   8.142  13.643   7.255 -0.1246 -0.0043  0.2436
39920W        W40120  11.315  14.702  16.224  0.0499 -0.0899  0.3321
39921W        W40121  16.401  17.036   7.333 -0.1390  0.2761  0.3762
39922W        W40122  13.996   9.798  11.843 -0.1618  0.0082  0.1734
39923W        W40123  12.435   7.121  13.918 -0.2138 -0.1108  0.2267
39924W        W40124  14.420   4.295  14.802  0.0349  0.0894 -0.0805
39925W        W40125   1.445  14.545  16.654  0.1315  0.2118 -0.2184
39926W        W40126   3.964  15.094   9.178  0.0863 -0.2187 -0.1534
39927W        W40127  14.342   9.932   3.826 -0.0871  0.0627 -0.0257
39928W        W40128  17.876  14.703   0.438 -0.3190 -0.2424 -0.0662
39929W        W40129  11.779  15.598   0.150  0.1494 -0.0221 -0.0489
39930W        W40130  14.129   2.014  17.860  0.0648 -0.1554  0.2547
39931W        W40131   2.667   0.367   7.828 -0.0086 -0.1120  0.0673
39932W        W40132  11.606   6.547   3.248 -0.1636 -0.3046 -0.0625
39933W        W40133  12.397  17.162  17.181 -0.1617 -0.0128  0.3637
39934W        W40134  11.804  12.147   4.939 -0.2547  0.0659 -0.1307
39935W        W40135  15.221   9.281  16.675 -0.0292  0.1682 -0.1636
39936W        W40136  15.286   8.127  10.309  0.2389  0.1107 -0.1284
39937W        W40137  10.945   0.683  14.803 -0.1443 -0.0066 -0.0511
39938W        W40138   6.936   1.834  16.957 -0.1186 -0.0194  0.2470
39939W        W40139  11.681  16.933  10.928 -0.1632  0.0274 -0.2890
39940W        W40140  16.699   3.423   6.724  0.2562 -0.1722  0.1737
39941W        W40141  14.417   4.191   5.155 -0.1357  0.3472 -0.0952
39942W        W40142   9.010  10.191  17.729  0.1677 -0.0599  0.3980
39943W        W40143   9.370  13.740  13.087 -0.0025 -0.0840 -0.1395
39944W        W40144  16.025   1.435   8.020 -0.1910  0.0765  0.2698
39945W        W40145  11.002  17.369  17.269 -0.1568  0.0220 -0.1013
39946W        W40146  14.052  12.815   0.278  0.3308 -0.2652  0.2703
39947W        W40147  15.366   1.761   1.768  0.0640  0.0924 -0.0630
39948W        W40148  16.034  14.568   0.362  0.1962 -0.2288 -0.1697
39949W        W40149   6.622   8.631  18.072 -0.3793  0.0638 -0.3663
39950W        W40150  17.724   1.556   6.512  0.0213  0.1871 -0.0804
39951W        W40151  16.116  12.469   6.722  0.0274  0.0400 -0.1879
39952W        W40152  12.849  13.794   5.340 -0.2435  0.0292 -0.0944
39953W        W40153  11.226  17.619  18.153  0.1478 -0.1882  0.1949
39954W        W40154   8.605   1.633  17.729  0.0575 -0.0360  0.0630
39955W        W40155  16.422  17.115  13.477 -0.0599 -0.1880 -0.0467
39956W        W40156  12.017  17.596  16.446  0.0261  0.3817 -0.4517
39957W        W40157  12.087  17.447   2.862 -0.1692 -0.3868  0.0968
39958W        W40158  15.115  16.624  15.881 -0.0321  0.1127 -0.2017
39959W        W40159   9.641  12.558  18.085 -0.1672 -0.2785 -0.1656
39960W        W40160  11.317  10.335   1.747 -0.3951 -0.0427 -0.2063
39961W        W40161  16.518   1.363   2.111 -0.0003 -0.3097 -0.1508
39962W        W40162  11.513  15.092   1.420 -0.0634  0.1175 -0.0935
39963W        W40163   9.213   1.306   1.792 -0.1490  0.1526 -0.1491
39964W        W40164   9.725   2.658   4.520 -0.1535  0.2189  0.1595
39965W        W40165  10.347  11.630  15.135 -0.4223  0.1264  0.2042
39966W        W40166  12.992   7.230   8.255 -0.2365  0.1987 -0.3794
39967W        W40167  13.886   3.211  14.133 -0.0706  0.3271  0.0478
39968W        W40168  11.229   6.226   8.952 -0.1248  0.1054  0.3681
39969W        W40169  17.662   1.498   1.036 -0.0647 -0.0824 -0.1660
39970W        W40170  17.888   4.090   8.629  0.0908 -0.0402 -0.1284
39971W        W40171  16.170   3.402  17.601 -0.0632 -0.2840 -0.1968
39972W        W40172   8.526   4.056  15.626  0.0811  0.2333  0.3056
39973W        W40173  16.881  10.189   0.626  0.1675 -0.0883 -0.2991
39974W        W40174   3.010  10.329  16.642 -0.1919 -0.0772  0.1486
39975W        W40175   8.601  16.657   4.184 -0.0139 -0.0561  0.2731
39976W        W40176  16.031  14.964   5.686  0.1541  0.4576 -0.0187
39977W        W40177  13.742   1.418  16.236 -0.1387  0.2761 -0.0173
39978W        W40178  12.454   9.974  17.986 -0.0618  0.4404 -0.0611
39979W        W40179  10.719  10.011  12.730  0.0552  0.1043 -0.1397
39980W        W40180  16.409  13.600   1.448  0.0606 -0.0312 -0.3085
39981W        W40181   2.909  17.694  16.867 -0.1083 -0.2135  0.1083
39982W        W40182   0.145  15.902   1.517  0.2895  0.0236 -0.0264
39983W        W40183   1.270   1.929  16.446  0.1705 -0.0422 -0.1647
39984W        W40184   9.843  16.027   2.193 -0.1092  0.0300  0.2707
39985W        W40185   6.000   8.371  18.193 -0.1192  0.0396 -0.2419
39986W        W40186   8.032  16.781  11.162 -0.0418 -0.0998  0.3959
39987W        W40187  15.446   3.432   1.342 -0.0576 -0.2682 -0.4408
39988W        W40188  10.694  12.499   9.552  0.1416  0.2214 -0.0060
39989W        W40189   7.108   2.975  15.073  0.0096 -0.0857  0.1510
39990W        W40190  10.389  13.199  14.439 -0.0313 -0.0256 -0.1978
39991W        W40191   3.335  16.602   1.010 -0.0906 -0.1916 -0.3731
39992W        W40192  13.301   2.094   5.695 -0.2480  0.1751 -0.0989
39993W        W40193   9.967  14.669   8.344  0.0444  0.3090 -0.0114
39994W        W40194  16.925  17.442  11.609 -0.1028 -0.1327  0.0616
39995W        W40195   0.468  15.293   2.917 -0.3785  0.2878 -0.1614
39996W        W40196   6.911   6.162   7.889  0.1274  0.1030 -0.0461
39997W        W40197   1.394   4.991  12.234  0.2824 -0.1165  0.2091
39998W        W40198  18.041   8.125   2.811  0.1727 -0.2532 -0.0379
39999W        W40199  13.229   5.777   2.884 -0.1348  0.1295  0.1380
40000W        W40200   3.201   1.319   4.399  0.0448 -0.1724  0.5014
40001W        W40201  11.836   6.053  13.300  0.0069 -0.0068  0.0383
40002W        W40202  10.386   1.543  14.281  0.2338 -0.1806 -0.2544
40003W        W40203   4.156   4.529   4.748 -0.0765  0.1529 -0.2943
40004W        W40204   3.705  17.829   6.269  0.0530  0.2046 -0.1425
40005W        W40205   3.829   8.608   0.295 -0.1658  0.1866  0.0464
40006W        W40206   5.844  10.636   9.504 -0.0149  0.2393  0.3773
40007W        W40207   2.483   7.185   2.047 -0.0846  0.2510 -0.1762
40008W        W40208   4.006   9.714  13.587 -0.0045 -0.1242 -0.0055
40009W        W40209   0.424   1.895   4.196  0.0192  0.1027  0.4000
40010W        W40210   5.385   6.152   4.145 -0.0735 -0.1373 -0.3163
40011W        W40211   3.735  15.409   0.073 -0.0317  0.2344  0.0630
40012W        W40212   3.561   2.851  11.614  0.0149  0.0148  0.0955
40013W        W40213  15.205  16.880   8.840 -0.0644  0.2309  0.2818
40014W        W40214  15.129   5.525   3.614  0.1606  0.0347 -0.1664
40015W        W40215  17.954  17.274   0.523 -0.2066  0.0456 -0.1524
40016W        W40216  13.778   4.847   0.973 -0.1539  0.0378  0.1322
40017W        W40217   0.653   0.084   5.553  0.3275 -0.1246  0.2590
40018W        W40218  13.326   2.897   3.428 -0.0925  0.1529 -0.0023
40019W        W40219  13.997  16.162  18.196 -0.1804 -0.1460  0.2657
40020W        W40220  13.097   1.801   1.091 -0.0323 -0.0426 -0.0993
40021W        W40221   3.568  17.073  17.766  0.2566  0.3337 -0.0476
40022W        W40222   7.235   2.031   4.024  0.1895  0.0788  0.0603
40023W        W40223  15.766   9.474  10.170  0.3268 -0.0732 -0.1020
40024W        W40224   1.816   0.091   2.130 -0.0116  0.0513 -0.1151
40025W        W40225  15.721   2.927  16.249  0.0607 -0.3275 -0.1280
40026W        W40226  16.422  16.134   6.949  0.1107 -0.1570  0.5776
40027W        W40227   0.722  13.622  15.191  0.1515  0.1376  0.0828
40028W        W40228   0.487   4.000   6.467  0.2653 -0.3688 -0.1117
40029W        W40229  14.527  15.123   6.493  0.1212  0.2206 -0.2168
40030W        W40230  17.451  17.311   9.297 -0.4130  0.2462  0.2721
40031W        W40231  10.639   9.763   7.770 -0.1751  0.1331 -0.2489
40032W        W40232   4.767  15.917  16.307 -0.2593  0.1763 -0.0875
40033W        W40233   4.945   4.547  18.159  0.1302  0.1870 -0.2008
40034W        W40234   4.844  16.545   4.195  0.1498 -0.1322 -0.2297
40035W        W40235  13.269  18.140  16.082 -0.1648  0.3243  0.0158
40036W        W40236  17.177   3.420   7.698  0.1168  0.3873 -0.0701
40037W        W40237   2.637   7.513   3.760  0.0092 -0.0927 -0.0913
40038W        W40238  15.581   2.630  16.746  0.0959  0.0125  0.0683
40039W        W40239  15.458  15.851  14.214 -0.1876  0.2601  0.2193
40040W        W40240  17.598   7.004   1.067  0.5040  0.0588 -0.3395
40041W        W40241   1.021   3.979   6.370 -0.2624  0.1343  0.0691
40042W        W40242   2.895   9.373  10.007 -0.2148 -0.0365  0.0529
40043W        W40243   2.328   6.338   2.050  0.0912  0.0578  0.2390
40044W        W40244   6.316   2.429   6.418 -0.1035 -0.2923  0.4024
40045W        W40245   3.061   2.692   1.741  0.1443  0.0851  0.0354
40046W        W40246   1.376   7.005   0.039 -0.0003  0.1323  0.2592
40047W        W40247  16.550  13.986   5.605 -0.0948 -0.2854  0.0649
40048W        W40248  17.644   8.939  12.724 -0.0169 -0.2582 -0.0738
40049W        W40249   0.691  15.510   4.557 -0.0376  0.3219  0.0794
40050W        W40250  17.121   3.629   1.428  0.1319 -0.1047  0.4156
40051W        W40251   1.179   0.060  14.272  0.0363 -0.2432 -0.2065
40052W        W40252  17.783   5.314  16.990  0.2628 -0.2146  0.0552
40053W        W40253   3.106  17.438  12.147 -0.1355 -0.1658 -0.1751
40054W        W40254   0.089   0.940  14.119 -0.2477  0.2953 -0.1564
40055W        W40255  16.932   4.519   4.863 -0.0736  0.0820 -0.4342
40056W        W40256  13.224   7.502  13.086  0.0306 -0.3211  0.3223
40057W        W40257   9.816   2.518  16.958 -0.3622  0.2158 -0.0713
40058W        W40258   2.310   1.568   3.466 -0.1635 -0.2531 -0.1094
40059W        W40259   8.930   1.121   5.116 -0.1015 -0.0718  0.1125
40060W        W40260   1.532   0.033   3.055 -0.0136  0.2095 -0.2320
40061W        W40261  15.362   7.634  14.152 -0.3700  0.0599 -0.1145
40062W        W40262   2.944  14.458  17.646  0.1095  0.0203  0.0868
40063W        W40263  11.384  18.053  13.912  0.3302 -0.1726 -0.0724
40064W        W40264  13.292   6.854  11.388  0.1498 -0.2223 -0.0833
40065W        W40265   1.850   5.697   3.083 -0.0337 -0.0840 -0.0779
40066W        W40266  17.554   1.158  17.259 -0.1624 -0.0788 -0.0675
40067W        W40267   3.385   4.219  17.817 -0.0862 -0.0124 -0.0409
40068W        W40268  14.928  16.918   1.370 -0.1938  0.2574 -0.1101
40069W        W40269   1.510   9.479   6.214 -0.0750 -0.0385  0.1335
40070W        W40270  17.144   8.719   7.498  0.0062 -0.0449  0.0703
40071W        W40271   3.801  14.387   6.576  0.1603  0.0648  0.2281
40072W        W40272   2.110   7.872  14.843 -0.0330 -0.3906 -0.4731
40073W        W40273   0.179   3.619   9.450 -0.0870 -0.0500  0.1317
40074W        W40274   6.695   5.069   6.340 -0.2723 -0.2516  0.3668
40075W        W40275  16.921   2.611   5.219 -0.2286  0.1234  0.3066
40076W        W40276   2.408   4.219  14.560 -0.1842  0.2507  0.1023
40077W        W40277  16.019  18.161   2.273 -0.1403  0.0328  0.3641
40078W        W40278  14.308   0.006  15.834  0.0213  0.2240  0.3525
40079W        W40279   3.255  17.560   0.718 -0.3617 -0.1872  0.2477
40080W        W40280  16.816   7.470   0.540  0.0557 -0.1225 -0.0399
40081W        W40281   5.633  15.852  17.214 -0.2288  0.0289 -0.1838
40082W        W40282   3.772   1.687   2.043 -0.1769 -0.0564 -0.2338
40083W        W40283  14.981   8.747   1.442  0.2081 -0.0748 -0.2847
40084W        W40284  16.620   2.988   7.114  0.2382  0.0289 -0.0215
40085W        W40285   2.512  17.136  12.443 -0.1202 -0.0107 -0.0850
40086W        W40286  17.073  13.030   2.021 -0.0296  0.0863  0.3586
40087W        W40287  13.663   1.312  14.815  0.1629 -0.1848  0.1176
40088W        W40288   1.646   4.182   5.918 -0.2084  0.2058  0.1200
40089W        W40289   2.725   3.556   1.178  0.2896  0.0289  0.0762
40090W        W40290  15.070   9.774  16.851 -0.1327  0.1139 -0.2450
40091W        W40291  10.536   0.989   2.059 -0.0009 -0.2402  0.1544
40092W        W40292   5.167   5.779  16.651  0.1372 -0.1230 -0.0790
40093W        W40293   5.351   8.302  11.561 -0.2835 -0.0123 -0.0301
40094W        W40294  15.816   5.648  12.959  0.1551  0.0950  0.0152
40095W        W40295  16.706   4.172   4.509 -0.0561 -0.1067  0.1555
40096W        W40296   7.199  17.051   3.045  0.1829 -0.1352  0.0118
40097W        W40297   6.535   0.670   8.875 -0.1370 -0.1488 -0.3003
40098W        W40298   2.172   2.487   5.423  0.1034 -0.0042 -0.1432
40099W        W40299   2.548  17.887   3.746 -0.3498 -0.0536  0.0790
40100W        W40300  10.843  11.973  15.714 -0.1544 -0.0487 -0.1234
40101W        W40301   3.166  16.467   5.755 -0.0791 -0.2035  0.1064
40102W        W40302   1.696   1.352   7.542 -0.1641 -0.0838  0.3189
40103W        W40303   5.737  13.848   8.875  0.1474  0.1042 -0.0195
40104W        W40304   0.086  14.769   2.942  0.4269 -0.1210 -0.3919
40105W        W40305  13.810  17.107   3.080 -0.4007  0.1219  0.0012
40106W        W40306  14.925   1.779   0.362 -0.1243 -0.2600  0.0581
40107W        W40307   4.878   0.407   0.862 -0.1372  0.1915  0.2931
40108W        W40308   1.563  16.352   3.974 -0.4969 -0.1225 -0.1644
40109W        W40309  18.012   7.109   2.838 -0.0107 -0.0642  0.2119
40110W        W40310   8.399   0.810   4.167  0.2018  0.1936  0.1408
40111W        W40311  13.358  11.773   7.273 -0.1457 -0.2849  0.1009
40112W        W40312   1.320   5.633   8.574 -0.1287 -0.1178 -0.2135
40113W        W40313  17.232   1.669   7.749 -0.0563  0.0154 -0.1922
40114W        W40314  17.566   5.869   8.173  0.1942 -0.1122 -0.0625
40115W        W40315   1.352   6.550  11.263 -0.1522  0.1398 -0.0093
40116W        W40316  16.455   3.648  16.223 -0.1875  0.2805 -0.0058
40117W        W40317   5.502   0.751  17.670  0.1605  0.0042  0.0986
40118W        W40318   0.233  15.134  15.171 -0.0035 -0.0283 -0.0582
40119W        W40319  13.807  17.148   2.337  0.0288  0.0024  0.1925
40120W        W40320   5.948   6.395   7.879  0.1016 -0.1331 -0.0215
40121W        W40321   5.515   7.255   4.025 -0.3928 -0.0688  0.2073
40122W        W40322   2.398  12.558   8.354 -0.1160 -0.3889  0.0032
40123W        W40323   6.334  14.434  15.869 -0.2184 -0.3198  0.0190
40124W        W40324   7.252  11.021  16.147 -0.1615  0.0509  0.0268
40125W        W40325  14.111   3.499   1.062  0.1899 -0.1681 -0.1546
40126W        W40326  15.332   0.564  14.717  0.0211 -0.0061 -0.0813
40127W        W40327  17.951   8.742   3.569  0.2835 -0.1190 -0.1320
40128W        W40328   5.384  17.272  10.185  0.1919  0.0782  0.0368
40129W        W40329  12.004  16.561   5.611 -0.2224  0.0686 -0.0366
40130W        W40330  14.852  13.420   3.426  0.0205 -0.0982  0.1175
40131W        W40331   2.570   9.505   2.147 -0.1831  0.3614 -0.1688
40132W        W40332  10.959  15.704   1.798  0.0434  0.0009  0.1894
40133W        W40333  16.291   5.212  14.113  0.0113  0.0667  0.0564
40134W        W40334  10.023   5.865   2.755 -0.1710  0.0502  0.3032
40135W        W40335  11.891   2.321  17.989 -0.1236 -0.1375 -0.2333
40136W        W40336   3.947   0.646   1.155 -0.0562  0.2810 -0.0864
40137W        W40337   2.997  10.852  13.544  0.0777 -0.2014 -0.1798
40138W        W40338   0.396   1.604  10.823  0.1022 -0.0435 -0.3250
40139W        W40339  14.730   5.140   3.658 -0.1952 -0.0939  0.0910
40140W        W40340  10.101  11.514   5.078 -0.2223  0.1974 -0.0381
40141W        W40341  18.122   3.349   5.802  0.1219  0.1009 -0.1374
40142W        W40342   8.508  14.799   6.443  0.5742  0.2218 -0.1867
40143W        W40343  15.874   0.939   9.235 -0.3972  0.1065  0.1619
40144W        W40344  15.700   4.973   3.482 -0.0784 -0.0966  0.0178
40145W        W40345  16.691   4.338  16.741 -0.1176 -0.1599  0.0624
40146W        W40346  17.330   3.447   8.988  0.1927 -0.0049 -0.0587
40147W        W40347   7.769   3.611  17.031  0.3316 -0.1040 -0.0639
40148W        W40348   1.038   0.645   1.097 -0.1793  0.0313  0.1155
40149W        W40349  15.916   3.676   5.212 -0.1941  0.0511 -0.0450
40150W        W40350  12.890   8.861   5.054  0.1236 -0.1304 -0.0492
40151W        W40351  14.127   6.325   4.537  0.0609  0.0476  0.0666
40152W        W40352   6.388   8.207   0.813 -0.0083 -0.2045  0.6055
40153W        W40353   1.273  15.261   2.144  0.3165 -0.1080 -0.0555
40154W        W40354  12.583   1.619  15.410 -0.0991  0.2045  0.1514
40155W        W40355  13.224   1.671   5.241 -0.0099  0.3844  0.0109
40156W        W40356   6.688  18.159  14.124 -0.0401 -0.1553 -0.0478
40157W        W40357  12.355  17.706   6.077 -0.1587 -0.1006  0.0789
40158W        W40358   7.861  12.748   3.481  0.0458  0.0615  0.0651
40159W        W40359   0.704  13.012   2.997  0.1471 -0.1310  0.1105
40160W        W40360   9.084  13.391   1.911 -0.1414  0.3085  0.3212
40161W        W40361   9.661  17.678   1.163  0.1030  0.1090 -0.0261
40162W        W40362  16.278   7.556  13.782  0.1075 -0.1359 -0.3265
40163W        W40363   9.602   5.208   3.286 -0.0701  0.1838  0.0493
40164W        W40364  14.850  11.520  16.379 -0.2630  0.0978  0.2303
40165W        W40365   2.140  15.004  17.542  0.3085  0.0291  0.0084
40166W        W40366   3.153   3.766  17.725  0.0362 -0.2585 -0.0300
40167W        W40367  15.677   1.921   6.433  0.0942  0.1272 -0.3821
40168W        W40368   9.430  16.026  16.908  0.2189  0.0704 -0.0160
40169W        W40369  15.585  17.295   2.013 -0.4408 -0.0004  0.1468
40170W        W40370   5.797   2.209   0.090  0.3270  0.0762 -0.4222
40171W        W40371   1.090   0.084   8.537 -0.2899 -0.1062  0.0392
40172W        W40372  11.997  11.539  13.708 -0.1467 -0.0204 -0.1800
40173W        W40373   0.330   4.775   3.112 -0.1245 -0.2344 -0.2463
40174W        W40374  12.608  17.986   5.042  0.0878  0.0185 -0.2880
40175W        W40375  11.339  16.199  16.058  0.0178 -0.1695 -0.0419
40176W        W40376   6.558   4.377   1.379 -0.0166 -0.2919 -0.0135
40177W        W40377   5.610   9.881   3.005  0.0141  0.1099 -0.0248
40178W        W40378  14.075  16.582   2.358 -0.1477 -0.0096  0.0774
40179W        W40379   1.157  13.406   0.005 -0.0559 -0.0109 -0.2776
40180W        W40380  11.915   5.128   0.292  0.1743  0.0531 -0.3915
40181W        W40381   2.520  13.753   7.577  0.0957 -0.4418  0.2391
40182W        W40382  18.113   1.770   6.237 -0.0317 -0.1861 -0.0184
40183W        W40383  15.013  15.271   0.102 -0.1502 -0.3389  0.1438
40184W        W40384   7.295  17.024  14.761 -0.0460 -0.3069  0.0842
40185W        W40385  17.417   6.341   7.774  0.2051 -0.0166 -0.0326
40186W        W40386   3.014   2.468   3.888 -0.2956  0.2328 -0.2550
40187W        W40387   1.252   5.550   3.591  0.1942  0.0209 -0.1685
40188W        W40388   3.923  15.474  13.136 -0.2352 -0.1744  0.0602
40189W        W40389   1.631   5.846   0.339 -0.0951  0.1381 -0.0608
40190W        W40390   0.106   7.468   0.768  0.0693 -0.0483 -0.4645
40191W        W40391  16.184  17.132   3.858 -0.1701  0.0734 -0.0021
40192W        W40392  14.214   2.951   3.861  0.0900 -0.1720  0.1400
40193W        W40393  11.568   3.987   3.907 -0.0686 -0.0216 -0.1380
40194W        W40394   0.965  14.723   0.584  0.0664  0.0607 -0.5895
40195W        W40395  15.737   2.668   6.799 -0.0158  0.0040  0.0241
40196W        W40396   3.816  16.374   4.104 -0.1267  0.2159 -0.0774
40197W        W40397   4.494   1.365   7.580  0.1225  0.3118 -0.0578
40198W        W40398  15.989   3.378   8.338  0.0543  0.3761  0.0228
40199W        W40399   5.105   3.238   4.809 -0.0147 -0.2381 -0.3578
40200W        W40400  11.652  10.933   0.183 -0.1950  0.1556 -0.0063
40201W        W40401  17.087   0.865   8.390  0.0229 -0.0149 -0.1020
40202W        W40402   8.901   0.917  16.978  0.1357 -0.0787 -0.0445
40203W        W40403   4.797   0.183  16.267 -0.0322  0.3197  0.0566
40204W        W40404  11.865   6.113   3.118 -0.1084  0.0387  0.2458
40205W        W40405  15.582  17.548  18.137  0.3254  0.0067  0.1698
40206W        W40406   2.070  17.678   7.906  0.1828 -0.0077  0.0144
40207W        W40407   0.997   0.227  14.964 -0.2012 -0.3726  0.1783
40208W        W40408  18.076  17.557   2.273  0.0567 -0.1827 -0.0610
40209W        W40409   2.501  13.722   1.009  0.2053  0.1254 -0.2302
40210W        W40410  15.993  15.347   5.304 -0.0331  0.1722 -0.3738
40211W        W40411  14.210   4.861   1.677 -0.1264  0.2521 -0.1633
40212W        W40412   7.392   2.659   7.614 -0.0480 -0.0082 -0.1187
40213W        W40413   4.367  17.117   3.787  0.2293 -0.0597  0.0592
40214W        W40414   7.792  10.183   2.241 -0.4354  0.0337 -0.0225
40215W        W40415  15.235   2.672   5.129  0.1457 -0.3347  0.0007
40216W        W40416   1.094  15.853  10.802  0.1496  0.1563 -0.1388
40217W        W40417  10.887  14.524   7.983  0.1925 -0.0819 -0.1660
40218W        W40418   4.693   7.856   0.900  0.0699 -0.2395  0.0570
40219W        W40419   5.407  10.910  13.959 -0.3137  0.0784 -0.0674
40220W        W40420  17.875  16.738   9.778  0.1600 -0.0733  0.1635
40221W        W40421   4.677   3.156   9.472  0.0816  0.3046 -0.3320
40222W        W40422   9.369  14.728   1.175 -0.3351 -0.0561 -0.2914
40223W        W40423   6.373   0.783   3.474 -0.1774 -0.0129  0.2472
40224W        W40424  12.547  17.565  17.436 -0.2712  0.0388  0.2630
40225W        W40425  15.962   1.142   7.564 -0.1877  0.4195 -0.1620
40226W        W40426  14.349  15.370   3.330 -0.1833  0.0252  0.0001
40227W        W40427   1.258  16.209  16.177 -0.0213 -0.1624  0.0034
40228W        W40428  17.029   3.926   0.990  0.0334 -0.0011  0.0800
40229W        W40429  10.795  15.013   4.990  0.0926 -0.0321 -0.1720
40230W        W40430   0.799   4.821  15.228  0.3454  0.0317 -0.0191
40231W        W40431   3.618   2.531  13.941 -0.0093 -0.1226 -0.0200
40232W        W40432   9.123  14.540   2.075 -0.0055 -0.1387 -0.0238
40233W        W40433  12.341   5.445  15.703  0.2375  0.0500 -0.1816
40234W        W40434  14.472   2.172   2.026 -0.0634  0.1473 -0.1177
40235W        W40435  13.206   4.924  11.302  0.0582 -0.0122 -0.0430
40236W        W40436   8.622  10.594   8.763  0.1423  0.0507 -0.2269
40237W        W40437  10.725   5.500   3.933  0.1448  0.2681  0.2618
40238W        W40438  18.200   6.864   7.722 -0.3715 -0.0461  0.1247
40239W        W40439   1.128   3.061   7.214  0.2743  0.1166  0.0137
40240W        W40440  17.022   0.375   0.864 -0.1061  0.3478 -0.1575
40241W        W40441   2.868   1.903  15.704  0.1312 -0.2743 -0.2679
40242W        W40442  14.135   7.922  13.870 -0.1085  0.3217  0.2428
40243W        W40443   2.935  10.307   6.953  0.1258 -0.1069  0.0481
40244W        W40444   8.232  14.722  17.504  0.3744 -0.0301 -0.3087
40245W        W40445   1.527  16.386  12.626 -0.3148  0.2341 -0.0397
40246W        W40446   5.520   4.636   1.622  0.1587 -0.3077  0.0725
40247W        W40447   9.032  17.610   6.156 -0.2933  0.0534  0.2364
40248W        W40448   0.115   8.243  15.898  0.0807 -0.3122 -0.2873
40249W        W40449  13.551  13.700   4.586 -0.0666  0.1637  0.1859
40250W        W40450   7.821   6.674   2.915  0.1066 -0.3067  0.3004
40251W        W40451  17.770  17.328   1.498  0.0090 -0.2858  0.3082
40252W        W40452   4.763   3.236  12.124 -0.1173  0.1145  0.0041
40253W        W40453   5.602   6.000  16.059 -0.1241 -0.2182 -0.4271
40254W        W40454  16.980   7.867   1.475  0.0653  0.1521 -0.1335
40255W        W40455   4.973  15.087   1.470  0.1500 -0.3151  0.1723
40256W        W40456  12.115   1.553  11.530  0.0836  0.0490  0.1114
40257W        W40457  15.937  16.954  13.641  0.2022  0.1261 -0.2412
40258W        W40458   9.056   2.375   3.000 -0.0144 -0.1835  0.0957
40259W        W40459   0.911   0.473   0.418  0.0306  0.1775 -0.0101
40260W        W40460  10.347  18.122   2.289 -0.0787  0.0732 -0.0577
40261W        W40461   2.888   1.544   8.759  0.3185  0.3303 -0.2852
40262W        W40462  14.411  17.841   6.490 -0.1879  0.0162 -0.2263
40263W        W40463  16.348   0.743   0.425 -0.3341 -0.2588  0.3453
40264W        W40464  15.433  18.076  16.578  0.0315 -0.2095 -0.3648
40265W        W40465  11.913  17.889  10.378 -0.0229 -0.0644 -0.0326
40266W        W40466   1.218   3.900  15.765  0.0867 -0.3219  0.0379
40267W        W40467  17.507  16.891  15.594 -0.0868  0.2760 -0.0558
40268W        W40468   5.836  18.071  17.489  0.0220  0.1016 -0.0453
40269W        W40469   0.555   1.609  15.802  0.0803 -0.1129 -0.2542
40270W        W40470  13.430  15.487   1.716  0.0481  0.0110  0.0180
40271W        W40471  14.944  13.597  15.214  0.0607  0.0948  0.1730
40272W        W40472   9.230  13.393   6.659 -0.1195  0.0452 -0.1060
40273W        W40473   6.405   4.862   4.542  0.1212 -0.0754 -0.0907
40274W        W40474   0.043   5.616   9.915  0.0007 -0.1715 -0.0148
40275W        W40475   0.094   1.711  16.938 -0.0186  0.1946 -0.0873
40276W        W40476   0.902  14.521  15.547 -0.1628  0.0101  0.2457
40277W        W40477  13.957  17.151  15.176  0.2812  0.0726  0.3410
40278W        W40478  14.854   5.412   6.408 -0.1633 -0.0605  0.0120
40279W        W40479  18.143  17.616   1.331  0.0554  0.1417 -0.1825
40280W        W40480   2.369   0.414   5.774 -0.2885 -0.0316 -0.3294
40281W        W40481  17.048   6.184   6.665 -0.0339 -0.1815 -0.1520
40282W        W40482   2.184   0.526  14.893 -0.0528  0.1579 -0.3348
40283W        W40483  17.534   2.819   1.403  0.1886  0.0696 -0.1602
40284W        W40484   0.907   3.206   2.702  0.2472 -0.0814 -0.0544
40285W        W40485   2.539   1.409   4.167 -0.0568 -0.1003 -0.0582
40286W        W40486  14.774  10.046  13.385  0.1991  0.2010 -0.0876
40287W        W40487   6.533  14.929   3.665  0.0431  0.0515  0.1532
40288W        W40488   1.558   1.819  16.801  0.1323  0.0200 -0.3049
40289W        W40489  17.816  14.860   3.230  0.1837 -0.1128 -0.0491
40290W        W40490   0.506  18.206  13.773 -0.1901  0.1572  0.1332
40291W        W40491  16.155   3.952   7.666  0.0327  0.0033 -0.1239
40292W        W40492   9.070   6.884  17.748  0.1937 -0.0680  0.0576
40293W        W40493  13.875  18.168   1.182  0.3662 -0.2211 -0.3882
40294W        W40494  14.299   8.835   0.874 -0.0002 -0.0002  0.0052
40295W        W40495  14.240   9.215   1.754 -0.3137 -0.2071  0.3465
40296W        W40496   3.236  10.937  16.112  0.1974 -0.0918  0.3395
40297W        W40497  16.294  17.267   2.427  0.1025 -0.2751  0.0481
40298W        W40498   1.097   2.833   0.142 -0.2199  0.3252  0.3482
40299W        W40499  14.975   5.489  17.804  0.1758 -0.1732 -0.1906
40300W        W40500   2.304   9.200   4.042 -0.2123  0.2309 -0.1466
40301W        W40501   1.895   6.016  16.403  0.0561 -0.0621 -0.0908
40302W        W40502   8.470   2.635   7.183  0.0835 -0.0927 -0.0009
40303W        W40503  12.188   0.434   0.007 -0.0666  0.3508  0.1275
40304W        W40504   7.832  14.812  13.653 -0.1621 -0.1099  0.2449
40305W        W40505   4.541  16.497   2.412 -0.1442 -0.1356 -0.0401
40306W        W40506   8.922   6.180  12.571 -0.1931  0.0066 -0.3271
40307W        W40507  17.249   2.643   0.553  0.1821  0.1114  0.0189
40308W        W40508  13.069   9.108  17.077 -0.0399 -0.2123 -0.1232
40309W        W40509  15.676  11.580   6.261  0.1171 -0.1040 -0.2330
40310W        W40510  12.580  17.051   9.268  0.1143 -0.1606  0.2939
40311W        W40511  13.539  12.984   1.636 -0.3605 -0.6027 -0.0634
40312W        W40512  17.092  15.856   0.831 -0.0156  0.1546  0.0903
40313W        W40513  14.967   2.278   1.485 -0.1479 -0.1728  0.0007
40314W        W40514  14.687  17.460  13.675 -0.0063 -0.0071  0.2791
40315W        W40515   3.830  10.017  15.770  0.0004 -0.0749 -0.0143
40316W        W40516   0.874   8.561  14.812 -0.3147  0.1208 -0.4537
40317W        W40517  15.582  13.706   0.867  0.0054 -0.2178  0.1476
40318W        W40518  15.537   9.256   0.812 -0.0305 -0.0967  0.1013
40319W        W40519  16.774   4.167  13.222 -0.2120  0.0438 -0.0816
40320W        W40520  13.894   3.950  14.858  0.1689  0.1603  0.0763
40321W        W40521   3.052   4.910   1.583  0.0513  0.0950  0.0730
40322W        W40522  12.881  13.349  17.465  0.0431  0.0871 -0.0143
40323W        W40523  17.453   5.703   6.719 -0.1367 -0.1884  0.0639
40324W        W40524   7.804  14.721   1.536  0.3602 -0.1001 -0.3011
40325W        W40525   7.140  11.660  11.035  0.2234  0.1255 -0.1690
40326W        W40526  15.956   3.153  17.196  0.0595  0.0016  0.0535
40327W        W40527   6.603   0.932   1.273 -0.3129 -0.0026 -0.0977
40328W        W40528  14.859  15.908  11.786  0.0518 -0.1511  0.0496
40329W        W40529  11.899  14.586   8.422  0.2884 -0.0867 -0.0234
40330W        W40530  17.226   6.255  17.945  0.0409 -0.3816 -0.0770
40331W        W40531   0.367   2.423   6.493 -0.0403  0.1405 -0.0802
40332W        W40532   7.507   2.506  15.888 -0.0927 -0.3313 -0.3846
40333W        W40533   6.063   4.707   4.943 -0.2873 -0.3336 -0.4422
40334W        W40534   8.177  13.961  15.862 -0.0231  0.0030 -0.0715
40335W        W40535   6.293   8.654  15.025 -0.2905  0.0783 -0.1007
40336W        W40536   6.375  15.863  16.854  0.0716 -0.1554 -0.2133
40337W        W40537  17.514   0.731   7.333  0.0179 -0.4051 -0.3089
40338W        W40538  12.762   4.635  16.870  0.3999 -0.1844 -0.1534
40339W        W40539  16.443   4.607   2.116  0.0946  0.1546 -0.2434
40340W        W40540  15.606  17.497   8.171 -0.0495 -0.2556  0.2473
40341W        W40541  11.766   3.074   1.751 -0.0586 -0.2696  0.0711
40342W        W40542   0.824  15.804   2.274 -0.3292 -0.4013  0.2528
40343W        W40543   2.002  16.644   2.023  0.0531  0.0350  0.2488
40344W        W40544   5.545   5.166  14.692 -0.0470 -0.2302  0.2747
40345W        W40545   2.575   4.254   8.024  0.1709 -0.1395  0.2005
40346W        W40546   6.553  16.754   9.389 -0.0055  0.1170  0.1804
40347W        W40547  17.991   0.748   9.586 -0.0256  0.1804  0.3810
40348W        W40548  17.787   4.376  17.400  0.2999 -0.1818  0.2194
40349W        W40549   1.839  18.122  12.360 -0.0569 -0.3413 -0.0433
40350W        W40550   3.009   6.378   1.213 -0.2910  0.1419 -0.0760
40351W        W40551  16.459   0.374   3.237 -0.2037  0.1995 -0.1115
40352W        W40552  17.792  14.917   9.833  0.2764  0.0932 -0.2925
40353W        W40553   3.570  14.650   4.504  0.0887 -0.2322  0.2080
40354W        W40554   5.393  17.301   5.460 -0.1295 -0.0772  0.2656
40355W        W40555  14.471   4.130  12.193 -0.0132  0.2545  0.1058
40356W        W40556  13.960   5.018  14.614 -0.0100  0.2138  0.2599
40357W        W40557   0.704  10.582  18.180  0.1245 -0.0611  0.0640
40358W        W40558  16.927  12.667   6.516 -0.1703  0.2889 -0.0844
40359W        W40559  15.499  10.027  17.092  0.2546  0.3439 -0.2148
40360W        W40560  13.785   8.169   9.059  0.0715 -0.0891  0.2528
40361W        W40561  17.316   7.953   8.063  0.0842  0.2473 -0.1354
40362W        W40562  13.872   1.358  17.946  0.2251  0.1167 -0.2097
40363W        W40563   7.015   0.123  13.618  0.4415 -0.3163 -0.0870
40364W        W40564   7.458  16.215  16.640 -0.0028  0.1916  0.1405
40365W        W40565  17.944  17.685   6.132 -0.1715 -0.0762 -0.0662
40366W        W40566   6.066  13.494  14.375 -0.1589  0.1820  0.0593
40367W        W40567  13.884  17.342  14.240 -0.0385  0.0631  0.1184
40368W        W40568   9.775   1.250   7.279  0.3642 -0.0713 -0.0531
40369W        W40569   3.011  17.333   4.500 -0.0970 -0.4163  0.0708
40370W        W40570  17.630   7.852   2.555 -0.0232 -0.1066  0.3128
40371W        W40571  16.701   6.140  16.917  0.0880 -0.0774  0.0567
40372W        W40572   5.935   9.132   8.785  0.2803 -0.1624  0.4447
40373W        W40573   8.522   9.199   8.637  0.1389  0.0555 -0.0747
40374W        W40574   8.877  13.753   6.645  0.7535  0.5034 -0.0007
40375W        W40575   7.780   2.949  14.381  0.1903  0.0911  0.0270
40376W        W40576  10.926   7.830  14.453  0.3639 -0.4316  0.2972
40377W        W40577  12.077   0.250  16.939  0.0507  0.0746  0.1664
40378W        W40578   1.025   5.777  11.286  0.1425  0.0571  0.2641
40379W        W40579   1.189   4.979   1.486  0.2369  0.1444 -0.0267
40380W        W40580  13.328   5.379   4.285  0.0525 -0.2931  0.1426
40381W        W40581  16.219   8.489   0.501  0.0257 -0.2627 -0.0820
40382W        W40582  15.772  12.506   3.349 -0.2449  0.0996  0.0108
40383W        W40583  16.335   8.979   2.227 -0.1628 -0.1098 -0.5856
40384W        W40584   0.084   1.302   1.824 -0.2124 -0.0074  0.0304
40385W        W40585  15.173   5.819   1.379 -0.3851  0.2812 -0.1482
40386W        W40586  14.450   7.485  14.576 -0.1485 -0.0250  0.3681
40387W        W40587  10.112   2.092   0.990 -0.1692  0.2451  0.2372
40388W        W40588   9.107   5.350   1.574 -0.2987 -0.3985 -0.1880
40389W        W40589   1.293   3.614  15.264 -0.1183  0.5335 -0.3195
40390W        W40590  13.939   0.349  12.788  0.0021  0.3460  0.1399
40391W        W40591   7.641   4.495   3.648 -0.2701  0.1596  0.3653
40392W        W40592  17.588   7.154  13.290  0.0200 -0.0718  0.0337
40393W        W40593   7.745   5.281  13.132  0.0231  0.2446  0.0712
40394W        W40594  11.043  13.056   4.528 -0.0287 -0.2515 -0.2577
40395W        W40595  16.262  17.967   7.682 -0.0323 -0.0217 -0.3878
40396W        W40596  12.191   5.621   4.725  0.1105 -0.1584 -0.0053
40397W        W40597   1.430   3.927   6.902 -0.2921  0.0948 -0.0892
40398W        W40598   2.401   3.910   1.516 -0.1375 -0.0117 -0.1848
40399W        W40599  15.260  18.066   3.392  0.1034 -0.0387 -0.0948
40400W        W40600  15.803  17.011  11.560 -0.3520 -0.1840 -0.1059
40401W        W40601   5.852   1.213   7.884  0.0443  0.1896  0.0936
40402W        W40602  13.567   3.508   4.657  0.1154  0.2916 -0.1557
40403W        W40603   1.293   1.835   3.317 -0.3929  0.0357  0.0833
40404W        W40604  15.077   0.625  15.657  0.1676  0.2446 -0.4401
40405W        W40605   3.046  15.157   3.637 -0.1246 -0.1391 -0.1138
40406W        W40606  13.962   5.340   2.539 -0.2649 -0.1404  0.0021
40407W        W40607  12.913   1.346   3.579  0.0891 -0.3339  0.0430
40408W        W40608   8.094  12.425   5.296  0.0546  0.0919 -0.0692
40409W        W40609  15.263   3.823  18.059 -0.2063  0.1030 -0.3319
40410W        W40610  16.152   3.184  10.663 -0.0043  0.0834 -0.3390
40411W        W40611  13.853  13.151   8.214  0.2142 -0.0169  0.0465
40412W        W40612  14.262  14.717   6.805 -0.0431 -0.1204 -0.0003
40413W        W40613   2.157   6.042   5.598 -0.0739  0.3536  0.2367
40414W        W40614   1.738  12.455   4.420  0.0499  0.0139 -0.1399
40415W        W40615   0.350   4.264   4.985  0.2179  0.0314 -0.0994
40416W        W40616  17.627  14.168   9.264 -0.2032 -0.3776 -0.3491
40417W        W40617   0.402   4.573   9.436  0.1520 -0.4919 -0.0501
40418W        W40618  14.310  17.098   6.757  0.0993  0.0555 -0.0044
40419W        W40619   1.102  17.862  12.970 -0.1939 -0.0633 -0.1789
40420W        W40620  15.095   3.719   2.167  0.3576 -0.2602 -0.1501
40421W        W40621   8.863   6.879  15.851 -0.3444  0.1513 -0.0074
40422W        W40622  12.897   6.758   3.474 -0.2129  0.1633 -0.0734
40423W        W40623  11.257   6.165   3.262 -0.0705  0.0825 -0.0569
40424W        W40624  10.469   1.148   6.752 -0.2317  0.1836 -0.0632
40425W        W40625   1.726   3.314   4.956 -0.0573 -0.3045  0.3370
40426W        W40626   3.344   1.048  11.164 -0.0088 -0.1669 -0.0758
40427W        W40627   0.369  18.105  10.713 -0.0446  0.0194 -0.0413
40428W        W40628   0.521   1.807  14.544  0.5169 -0.0877 -0.1545
40429W        W40629  11.664  13.800   4.220 -0.0605 -0.1772  0.0463
40430W        W40630   1.711  16.313   5.190 -0.0519  0.0706 -0.1743
40431W        W40631   4.626   8.826   3.440  0.1112 -0.3029 -0.1014
40432W        W40632  13.394   3.144   5.009 -0.1159  0.0084  0.2558
40433W        W40633  18.134   2.545   6.312 -0.0219 -0.1395 -0.0224
40434W        W40634  15.276  13.331  11.475 -0.1457  0.1438  0.0002
40435W        W40635   1.001   2.063  11.040  0.0691  0.2151 -0.0990
40436W        W40636   5.748  17.276   7.469  0.1795 -0.0863  0.1025
40437W        W40637  17.807  11.900   0.758 -0.0490  0.2555  0.0625
40438W        W40638   3.440   0.988   9.377  0.0394 -0.1199  0.1148
40439W        W40639  16.151   6.097   7.806 -0.0465 -0.4668  0.4052
40440W        W40640   1.526   3.411   1.896 -0.1288 -0.3057  0.2833
40441W        W40641   0.259  10.513  10.255 -0.0022 -0.2348 -0.0852
40442W        W40642   5.628  12.352  11.870 -0.1136  0.0439  0.0745
40443W        W40643   3.583   1.259   2.668 -0.0893  0.2769  0.0969
40444W        W40644   0.202  16.581   5.571 -0.3545  0.3638 -0.1478
40445W        W40645  10.613   5.169  11.239  0.1685 -0.0570 -0.0189
40446W        W40646   9.976  11.156   3.554  0.1992  0.3443  0.1117
40447W        W40647  16.447   2.759  11.646 -0.0485 -0.1236 -0.1051
40448W        W40648  10.361  12.586   3.694 -0.1042  0.0306 -0.0557
40449W        W40649   2.220   2.537  11.570  0.1530  0.3511 -0.2337
40450W        W40650  11.811   3.676   1.687 -0.4250 -0.0014  0.0833
40451W        W40651  11.278  16.569   6.761  0.0040  0.0607 -0.0944
40452W        W40652   0.105   5.168   2.722 -0.0266  0.0313 -0.1607
40453W        W40653  15.093  17.182   2.712 -0.0419  0.1454 -0.0402
40454W        W40654  12.308  15.453   6.055  0.1578 -0.0499  0.0439
40455W        W40655  16.937   1.934   5.533  0.2156  0.0801 -0.1223
40456W        W40656   1.437  14.340   8.955  0.2817 -0.3881 -0.0272
40457W        W40657  16.975  11.431  11.178  0.1441  0.0968  0.2680
40458W        W40658  17.472   6.606   7.293  0.1396  0.0537  0.0064
40459W        W40659  15.322  14.326   7.630  0.1075 -0.4445 -0.1404
40460W        W40660  15.998  17.542  13.373 -0.0548  0.1992 -0.3511
40461W        W40661   2.184   3.066   2.301 -0.0749  0.1163  0.0783
40462W        W40662   4.842  15.711   3.680  0.0181 -0.2661  0.1392
40463W        W40663  15.943  17.287   3.397 -0.3250  0.1230 -0.0996
40464W        W40664   2.668   5.342   9.098 -0.0080  0.1492  0.2154
40465W        W40665  15.490  12.315  13.541  0.1651 -0.0112  0.1094
40466W        W40666  15.953  10.853   4.875  0.0828  0.0375 -0.0464
40467W        W40667   2.058   1.883   3.775  0.2664  0.1366 -0.0072
40468W        W40668  17.172   1.904   2.533  0.0379  0.2307  0.0952
40469W        W40669   8.998  17.863   3.601 -0.1125 -0.1427  0.0740
40470W        W40670   2.057   4.735  10.309  0.0185  0.0293  0.1687
40471W        W40671   9.751   1.324  10.096 -0.0190  0.0137  0.0792
40472W        W40672   0.225   2.579   5.315 -0.0435 -0.1171 -0.0630
40473W        W40673   2.348  16.828   2.350  0.1018 -0.0084  0.0996
40474W        W40674  14.763   6.743   5.011  0.0580 -0.1264 -0.0725
40475W        W40675  14.368   3.855   0.288  0.1769  0.1586  0.1471
40476W        W40676   3.519   4.747   8.914 -0.2143 -0.1149 -0.2947
40477W        W40677  12.198  16.181   4.831  0.2854  0.3132  0.2715
40478W        W40678  14.629   5.463   4.039  0.1404  0.0521 -0.2613
40479W        W40679  12.108   7.409   0.510  0.0936  0.2709 -0.0596
40480W        W40680  13.867  17.658   5.025 -0.2378 -0.1523 -0.1015
40481W        W40681   7.490   4.346   7.942  0.0376 -0.0212  0.1397
40482W        W40682   1.505  16.981  11.397  0.0178 -0.1577 -0.1441
40483W        W40683  14.224   0.470   6.169 -0.1561 -0.1543  0.0026
40484W        W40684   9.906  14.923   4.869  0.0659  0.0332 -0.1735
40485W        W40685  12.564   7.972   1.221  0.1905  0.0119  0.1095
40486W        W40686   4.003  17.592   8.126  0.0317  0.2173  0.1422
40487W        W40687   3.873   2.223   2.757  0.2308  0.0236  0.1427
40488W        W40688  15.702   8.570   2.642  0.1297  0.4147 -0.0111
40489W        W40689   1.241   5.416   4.401 -0.1093 -0.0773 -0.2376
40490W        W40690  17.590   8.566   7.196  0.0997 -0.0341  0.2329
40491W        W40691  18.109   3.485   0.864  0.2411  0.1164  0.1196
40492W        W40692  10.920   8.058  10.118  0.0331 -0.0583  0.1032
40493W        W40693  11.352   0.137   5.024 -0.3605 -0.0269  0.0855
40494W        W40694  13.418  13.626   1.370  0.0058 -0.0626 -0.1156
40495W        W40695   2.890   6.116   3.464 -0.3072  0.1153  0.0880
40496W        W40696   0.824   1.511  17.034  0.0956 -0.2291  0.1142
40497W        W40697  17.843  11.804   6.830  0.1760 -0.0366  0.0591
40498W        W40698   2.017  17.412   0.710 -0.0752 -0.1023 -0.2084
40499W        W40699  15.258  15.572  12.530  0.3367  0.1174  0.4240
40500W        W40700  14.750   4.681  12.595  0.0241 -0.1366 -0.3078
40501W        W40701  14.992   1.731   1.414  0.0597  0.2089 -0.0364
40502W        W40702   2.038  17.221  15.286  0.2029  0.0348 -0.0181
40503W        W40703   5.049   0.950  17.785 -0.2599 -0.1290 -0.2229
40504W        W40704  11.630  11.405  16.247 -0.1856 -0.2057 -0.0278
40505W        W40705   3.293   2.621   4.373  0.0978 -0.1582 -0.1688
40506W        W40706   7.139   2.380   9.583  0.2567 -0.2590 -0.3136
40507W        W40707   6.147  13.214   2.225  0.1965  0.2613 -0.1778
40508W        W40708   5.428   2.941   3.686  0.1632  0.0187  0.1480
40509W        W40709   3.243   4.393   1.617 -0.0263 -0.1042  0.2230
40510W        W40710   7.405   2.432   9.960 -0.0621 -0.4264 -0.0763
40511W        W40711  17.474   5.327   8.063 -0.1252  0.1383 -0.0800
40512W        W40712   0.066  14.995  10.319 -0.1336  0.0837 -0.0141
40513W        W40713  13.128  14.566  11.923 -0.1247 -0.1662 -0.1699
40514W        W40714  16.654   4.802   9.574  0.3958 -0.1313 -0.0005
40515W        W40715   0.257   1.749   7.143 -0.0942  0.0554  0.3275
40516W        W40716   1.312  15.973   0.178  0.0926 -0.1062 -0.0575
40517W        W40717   0.851   3.504  15.886  0.0012  0.0396  0.0501
40518W        W40718   4.911   2.022   0.633  0.0174  0.0979 -0.1441
40519W        W40719   1.543   0.731  15.807  0.2874 -0.0703 -0.0268
40520W        W40720  17.408  12.409   4.210  0.0570 -0.4033 -0.1390
40521W        W40721  15.313  16.157   5.630 -0.2436  0.0500  0.0694
40522W        W40722   0.761  17.263  10.466  0.1743  0.3040 -0.0646
40523W        W40723  15.793   1.879   5.948  0.1500  0.2824 -0.3202
40524W        W40724  12.619   2.189   1.825 -0.1455 -0.3032 -0.0449
40525W        W40725  10.276  10.537   5.841 -0.0711  0.0040 -0.1256
40526W        W40726  13.168  12.566  14.270  0.4688 -0.2483 -0.1397
40527W        W40727  13.044  10.228   2.074 -0.0060 -0.0217  0.1669
40528W        W40728   4.399  17.737  14.423  0.3392  0.0931  0.1198
40529W        W40729  15.832   3.489   5.825  0.0128  0.0622 -0.2256
40530W        W40730  15.940   3.880   2.045  0.0182  0.0193 -0.3130
40531W        W40731   6.190   1.848  17.625  0.1332  0.2776 -0.0753
40532W        W40732   6.551  18.090   8.079  0.0586  0.5043 -0.0560
40533W        W40733  16.417   6.821  17.984  0.0517 -0.2460 -0.0608
40534W        W40734  16.526  18.190   8.188 -0.1737 -0.2793  0.0788
40535W        W40735  17.190  14.750   1.061 -0.0627  0.1095 -0.1263
40536W        W40736   0.571  13.606   6.010  0.0182  0.1885  0.1200
40537W        W40737  12.122   4.776   4.778 -0.0510 -0.1233 -0.0796
40538W        W40738  12.744   4.967   3.469  0.0105 -0.0900  0.2547
40539W        W40739   1.009  17.322   4.412  0.0206  0.3648  0.1396
40540W        W40740  15.366  15.419  13.914  0.4617  0.0467 -0.5628
40541W        W40741  15.719  13.236   6.317  0.1646 -0.1480 -0.0903
40542W        W40742   4.290   7.329   3.469 -0.0106  0.0575  0.1563
40543W        W40743   7.066  10.029  10.201  0.3570  0.1713  0.1220
40544W        W40744  11.525  18.057   5.490 -0.3981  0.1692 -0.3437
40545W        W40745  15.713   5.203  11.243 -0.0703  0.1511 -0.2194
40546W        W40746   0.386  16.902   8.311  0.0174  0.0551 -0.5469
40547W        W40747  15.244   4.783   8.325 -0.3660  0.2745  0.0344
40548W        W40748  14.333  17.117   3.331  0.1262 -0.0137 -0.2529
40549W        W40749  13.452   3.033  10.647 -0.2292 -0.0376  0.0121
40550W        W40750   0.407   3.345   4.617 -0.4760 -0.2046 -0.0124
40551W        W40751  14.265   1.103   8.817 -0.0142  0.3014 -0.1169
40552W        W40752   0.988  18.027   0.414 -0.2022 -0.1591 -0.0606
40553W        W40753   0.263   1.964   7.662 -0.0727 -0.1192  0.0550
40554W        W40754   0.977   8.683   6.434  0.0341 -0.2795 -0.0644
40555W        W40755   4.614  16.600   7.041  0.1719  0.2214 -0.0828
40556W        W40756   0.530   7.799   5.162 -0.0873 -0.0928  0.3063
40557W        W40757  14.781   6.210   5.829 -0.1607 -0.0226  0.2170
40558W        W40758  12.437   3.954   0.373  0.0279 -0.0429 -0.3486
40559W        W40759  15.052   5.998   8.011 -0.0462  0.0496  0.0911
40560W        W40760  15.995  16.349   6.674  0.0290 -0.0927 -0.0011
40561W        W40761   6.754   9.865   5.601  0.0943 -0.0279  0.1205
40562W        W40762  16.181  11.093   1.897 -0.1448 -0.1708 -0.0859
40563W        W40763  17.717   5.591   2.531  0.1772  0.1191 -0.0401
40564W        W40764   4.737  11.978   3.206 -0.1672 -0.1421  0.0227
40565W        W40765  15.392   0.735   7.236 -0.1710  0.0027 -0.0349
40566W        W40766   3.334   9.379   7.510  0.0203  0.0010 -0.2980
40567W        W40767  17.328   2.747   4.296  0.1602  0.2756  0.2613
40568W        W40768   1.331   3.368   8.689  0.0565  0.4330 -0.2762
40569W        W40769   4.221   2.801   4.405  0.0859  0.3119 -0.0592
40570W        W40770   5.569  11.953   3.027 -0.0858  0.0532  0.0166
40571W        W40771  12.505   7.544   9.789 -0.0511  0.3032  0.0820
40572W        W40772  13.705   0.091  12.037  0.3766  0.1557 -0.1318
40573W        W40773   7.296   0.256   9.780 -0.4869  0.3189 -0.1064
40574W        W40774   2.594   7.398   7.800  0.0536 -0.0202  0.3969
40575W        W40775  17.622   0.655   4.669  0.2785 -0.0028 -0.2652
40576W        W40776  12.877   3.456   1.230  0.0959 -0.0469 -0.0617
40577W        W40777   3.956   7.226  11.685 -0.0178  0.0082 -0.1745
40578W        W40778  15.858  13.860   7.649  0.2588 -0.1646  0.0814
40579W        W40779  13.837   2.593  13.818  0.0274 -0.2326 -0.2633
40580W        W40780  11.867   6.639   7.374  0.1301  0.0464 -0.0364
40581W        W40781   2.328   2.721   4.901  0.1865  0.0056  0.2455
40582W        W40782  13.352   0.547  11.833 -0.0492 -0.0221 -0.1401
40583W        W40783   0.303   0.801  11.339  0.1785  0.1790  0.2052
40584W        W40784   0.095   6.841  12.789  0.0542 -0.0447  0.3260
40585W        W40785  16.639  16.747   3.906  0.0748 -0.0635 -0.0266
40586W        W40786   1.349   1.512  17.127  0.0939 -0.2693 -0.1964
40587W        W40787  17.055   5.041   7.161  0.0321  0.3555  0.2190
40588W        W40788   6.257  11.445   9.035  0.0081  0.1769 -0.0414
40589W        W40789   2.108  14.310   1.824  0.1297 -0.0245 -0.1465
40590W        W40790   1.072   2.701   7.589 -0.1321  0.1026 -0.0372
40591W        W40791   3.170   9.241  14.828  0.2776 -0.1376 -0.2701
40592W        W40792  15.977  12.012   5.310 -0.2997  0.3095 -0.1172
40593W        W40793  14.857  12.482   3.882  0.0501 -0.1576  0.3275
40594W        W40794   2.378   9.359   2.689  0.0476  0.3062  0.0327
40595W        W40795  18.069   3.754   4.518 -0.1217 -0.1076  0.3278
40596W        W40796  14.797  17.345  15.800 -0.0437  0.0371  0.0721
40597W        W40797   4.150   5.969   9.836 -0.2373  0.0503  0.1875
40598W        W40798  12.844   4.144   2.037 -0.1528  0.0681  0.2431
40599W        W40799   3.052  10.841   7.037 -0.1717  0.1889  0.2635
40600W        W40800  13.854   6.124  14.583  0.0349  0.0429  0.3166
40601W        W40801  11.237  13.488   4.175 -0.1068  0.0678  0.0243
40602W        W40802   0.172  17.496  16.870  0.1006  0.1492 -0.1044
40603W        W40803   0.626   0.828  18.141  0.2619 -0.1271 -0.0334
40604W        W40804   2.001  15.141   5.305  0.2133  0.0464  0.0296
40605W        W40805   7.040   5.388   1.824  0.2369 -0.1861 -0.1273
40606W        W40806   4.481   7.046   2.960 -0.0777 -0.1016  0.1496
40607W        W40807   3.131   2.493   6.212  0.2244 -0.2764  0.1617
40608W        W40808  17.178  10.199   4.542 -0.0115 -0.2060 -0.0268
40609W        W40809  15.239  16.940  17.948  0.2384 -0.1229  0.2882
40610W        W40810   0.337   1.102  17.744 -0.0530  0.1551 -0.2090
40611W        W40811  14.052   3.974  12.485  0.0056  0.1280 -0.0957
40612W        W40812   9.599   1.870   5.897 -0.2792  0.2736 -0.0559
40613W        W40813   7.086   1.744   6.064  0.2848 -0.1325 -0.1176
40614W        W40814  14.377   2.718   8.780  0.1016 -0.0258 -0.1011
40615W        W40815  15.407   2.966   3.237  0.0425 -0.1931  0.2108
40616W        W40816  15.063   0.128   6.008 -0.0162  0.2775 -0.1185
40617W        W40817  14.325   3.334   5.453 -0.2025 -0.1113 -0.0151
40618W        W40818   0.474   9.077  10.063  0.1147  0.2202 -0.1583
40619W        W40819   4.780   0.380   8.889 -0.1094  0.1437  0.2790
40620W        W40820  12.565   5.368  14.260  0.1095 -0.0441 -0.1052
40621W        W40821   7.479  12.080   0.120 -0.1355  0.0387  0.1921
40622W        W40822   3.049  14.004  16.698 -0.3426  0.3170 -0.2336
40623W        W40823   1.110   7.004   1.129  0.0233 -0.0748 -0.5007
40624W        W40824  16.003  15.281   1.260  0.0405  0.1114 -0.1443
40625W        W40825  11.369   7.381  12.529  0.1217 -0.1808 -0.0162
40626W        W40826   8.746   3.448   3.402  0.1768  0.1457  0.0754
40627W        W40827  13.011  17.268   3.332 -0.0301  0.0923  0.1268
40628W        W40828  15.543   6.019   6.501  0.1287  0.1860 -0.2286
40629W        W40829   1.616   1.398   8.173 -0.0730  0.0843  0.1466
40630W        W40830   1.984   8.203   5.559  0.1779 -0.2789  0.0761
40631W        W40831   1.748   4.085   2.318 -0.1966  0.1280 -0.0401
40632W        W40832  17.559  11.906  16.896  0.0049 -0.0069 -0.1933
40633W        W40833   9.733   4.349   8.217 -0.1419 -0.0062 -0.0960
40634W        W40834   3.839   5.529   5.498  0.0654  0.0815 -0.0907
40635W        W40835  14.435   4.450   2.815  0.4748 -0.0109 -0.2343
40636W        W40836  16.836  14.540  14.520 -0.0127  0.0682  0.0658
40637W        W40837   4.743   4.667   7.199  0.2933 -0.4290 -0.1005
40638W        W40838   1.367   0.216  10.360  0.1344 -0.1858  0.1431
40639W        W40839  16.742   4.985   5.232  0.0754 -0.3270  0.0249
40640W        W40840  11.423   0.290   4.521  0.0144 -0.0283 -0.0860
40641W        W40841   6.229  10.021   6.315 -0.1420  0.2229 -0.1791
40642W        W40842  17.650   1.469   9.226 -0.1796  0.0351  0.2965
40643W        W40843   7.458   5.146   5.033  0.1311 -0.1171 -0.0904
40644W        W40844  16.243   3.776  14.512 -0.2115 -0.0653 -0.0751
40645W        W40845  14.855  17.896  15.669 -0.3732  0.0970  0.3151
40646W        W40846  14.689   3.369   3.170  0.0433  0.0390  0.0421
40647W        W40847   0.003  11.259   5.545 -0.0342 -0.0214 -0.1997
40648W        W40848   1.045   5.840   7.674  0.0369  0.0670  0.1183
40649W        W40849  17.495   0.333   6.439 -0.2247 -0.1164  0.4345
40650W        W40850   7.483   7.879   3.532  0.0353  0.1247  0.0232
40651W        W40851   2.698   1.829  17.669 -0.3559  0.0650  0.0574
40652W        W40852  14.871  17.954  12.144  0.0377  0.1835  0.0776
40653W        W40853  16.176  15.507   0.064 -0.1369  0.0094  0.3316
40654W        W40854  11.568   2.329   6.555  0.1079  0.0434  0.2682
40655W        W40855   0.757   2.000   7.340 -0.1622  0.1360  0.2809
40656W        W40856  14.289   1.936   9.894  0.0889 -0.0885 -0.1686
40657W        W40857   9.526   3.570   3.689 -0.0938 -0.1367  0.2643
40658W        W40858   0.631   6.565   7.779 -0.2208 -0.2400  0.0747
40659W        W40859  15.835  11.267   3.731 -0.0069  0.3458  0.3155
40660W        W40860  16.632   8.868   7.495 -0.3453  0.0309 -0.2197
40661W        W40861   3.288  16.523  16.026  0.1223 -0.0516  0.0594
40662W        W40862   7.774   3.243   8.259 -0.3490  0.0777 -0.0048
40663W        W40863  14.250   5.491   5.549  0.1005 -0.1456 -0.0844
40664W        W40864  10.342   4.605   2.148 -0.1429 -0.0656 -0.0347
40665W        W40865  12.789   7.337  16.153  0.2953  0.0936 -0.0978
40666W        W40866  18.106  14.291   9.076 -0.1619 -0.1441 -0.2711
40667W        W40867   2.027   7.553   4.874  0.0052  0.1633  0.1024
40668W        W40868  11.711   0.581  11.434 -0.3839 -0.0079  0.1106
40669W        W40869   4.133   9.100   4.885 -0.2541  0.3628  0.0678
40670W        W40870   7.912   1.222   7.475  0.1122  0.0718  0.2018
40671W        W40871   2.129   1.472  10.559 -0.0145  0.0264 -0.1044
40672W        W40872  17.555   3.031   5.626 -0.3886 -0.2762 -0.0000
40673W        W40873   0.054   9.150   3.452 -0.2578  0.1572  0.0002
40674W        W40874   0.838  17.632  13.347 -0.3358 -0.2874  0.0085
40675W        W40875  13.760  17.744  17.992 -0.2065 -0.0336 -0.0614
40676W        W40876  16.122   8.761   6.332  0.1373 -0.0888 -0.1933
40677W        W40877  16.868  12.317  14.607 -0.3378 -0.1248  0.1462
40678W        W40878  11.183  14.652   5.770  0.0532 -0.1070  0.0789
40679W        W40879   6.931   6.232  11.028  0.0969  0.2127 -0.1686
40680W        W40880  17.353  16.735  17.442 -0.4926 -0.2031  0.0592
40681W        W40881  13.514   0.449   0.245 -0.2277 -0.1210 -0.0535
40682W        W40882  11.059  16.848   6.443 -0.0525  0.5325  0.2181
40683W        W40883   6.872   0.779   2.562 -0.1017  0.0087 -0.4422
40684W        W40884  17.166  15.277  11.948 -0.2131  0.0230 -0.2230
40685W        W40885   3.192  14.952   6.102 -0.0088  0.1689 -0.0828
40686W        W40886   1.130  17.337   0.479 -0.0179  0.0781 -0.0680
40687W        W40887  12.103  15.236  10.983  0.0211 -0.0818  0.0866
40688W        W40888   5.229   1.908   2.018 -0.0160 -0.3368 -0.3710
40689W        W40889  14.390  17.810   4.356 -0.1267 -0.1727  0.1268
40690W        W40890   0.982  14.204   5.727  0.2314  0.1062  0.3157
40691W        W40891   6.326   8.612   1.251 -0.1780  0.2888  0.2607
40692W        W40892  13.460  17.818  11.957  0.2527  0.0958  0.1990
40693W        W40893   6.085   7.956   3.036 -0.2981  0.0872 -0.1691
40694W        W40894  16.638   2.275   1.997  0.0522  0.2710 -0.0404
40695W        W40895   3.388  14.417  11.612 -0.1505  0.1293  0.0204
40696W        W40896  16.825  16.891   4.402  0.2753  0.0342  0.2403
40697W        W40897  13.448  16.612  14.046 -0.0665 -0.1455 -0.0981
40698W        W40898   4.758   4.158  14.100  0.1020 -0.5142 -0.2294
40699W        W40899   5.893   0.936   4.641  0.2120  0.0992  0.0478
40700W        W40900   1.549  16.984   7.370  0.0992  0.4038  0.3043
40701W        W40901  16.107   5.672   8.962 -0.0300  0.1620  0.2464
40702W        W40902  11.000   4.656   7.898  0.0331  0.3854  0.1779
40703W        W40903   9.951   1.846   2.860 -0.3367 -0.0925  0.1739
40704W        W40904  17.143   0.663  13.950  0.0543  0.0629  0.3556
40705W        W40905   5.231   6.905  17.326  0.5803  0.3273 -0.0290
40706W        W40906   2.064  13.475  10.626  0.3881  0.1764  0.0741
40707W        W40907  15.853   7.746  14.380  0.0198 -0.0338  0.1145
40708W        W40908  14.398  11.670   7.498  0.0462  0.4564  0.0506
40709W        W40909  10.929   9.856   8.218  0.2410  0.0182 -0.3852
40710W        W40910   2.597  16.709   7.130 -0.1204  0.2982 -0.3305
40711W        W40911   0.103   1.162   4.706  0.4153  0.0198  0.0669
40712W        W40912   2.582  15.589   3.161  0.1666 -0.0511  0.1531
40713W        W40913  14.012   9.236   9.089 -0.0500  0.4701  0.1035
40714W        W40914  15.840   0.139   8.534 -0.2481 -0.0553  0.3819
40715W        W40915  17.374   3.995   9.438  0.1769  0.2301 -0.1090
40716W        W40916  15.755   8.506   0.823 -0.2790 -0.2483 -0.1095
40717W        W40917   5.065   3.853  14.323 -0.5502  0.2940  0.0465
40718W        W40918   7.614  10.958   5.761  0.2166  0.1120  0.2334
40719W        W40919  16.037   0.757   1.735  0.1891  0.2386  0.0558
40720W        W40920   4.763   4.160   9.679 -0.0791 -0.1991 -0.3025
40721W        W40921   0.997   3.862   5.038  0.3245 -0.4919 -0.0917
40722W        W40922  16.074  14.971   8.618 -0.3016  0.0841  0.2684
40723W        W40923   2.604  10.773   2.095  0.1352  0.3600 -0.0824
40724W        W40924  12.513   3.830   8.306 -0.3203 -0.3496 -0.0759
40725W        W40925  16.818  16.612   8.114  0.0969  0.2191  0.2070
40726W        W40926   2.517   9.001   2.279 -0.1913 -0.1038 -0.0853
40727W        W40927   1.427   9.168   8.220  0.0462  0.2633 -0.1015
40728W        W40928   9.050  10.533  13.660 -0.0827 -0.2225 -0.1302
40729W        W40929   8.721   7.412  13.335  0.1004  0.5358 -0.4873
40730W        W40930  11.039   1.638  15.205 -0.2754  0.0518 -0.0307
40731W        W40931   2.266   5.916  11.651 -0.2600 -0.0238  0.3036
40732W        W40932   0.365  17.503  11.840  0.1847 -0.2665  0.1449
40733W        W40933   0.419  15.396   0.959  0.0019 -0.3347 -0.0457
40734W        W40934   3.211  17.640   7.190 -0.0624 -0.1397 -0.3882
40735W        W40935  13.756   0.716  11.196 -0.0383 -0.3003 -0.0691
40736W        W40936  10.698   4.276   3.687 -0.0622 -0.0129 -0.2036
40737W        W40937  15.733  15.868   0.359 -0.2015 -0.3676  0.1941
40738W        W40938  15.862   6.833   4.259  0.2155  0.1327  0.2197
40739W        W40939  13.347   4.410   3.314 -0.1089  0.1465 -0.2880
40740W        W40940   2.311  17.648  15.277  0.2227 -0.0570  0.1358
40741W        W40941   6.818   2.875   5.071 -0.0475  0.1425 -0.0746
40742W        W40942  12.522   6.770   2.265  0.1478  0.3155  0.0468
40743W        W40943  14.885   1.637   2.908  0.3613 -0.2437  0.1635
40744W        W40944  13.632   0.380   9.058 -0.2893 -0.1580 -0.0554
40745W        W40945   4.872   2.461   6.801 -0.1736  0.0888  0.0850
40746W        W40946   5.705  16.618   8.364  0.2750  0.0843 -0.0237
40747W        W40947   3.460   4.131   7.618  0.4560  0.0738 -0.1257
40748W        W40948   1.728   9.565   9.897 -0.0674  0.1321  0.2132
40749W        W40949   3.487   3.219  15.602  0.4044 -0.2920  0.3512
40750W        W40950   2.303   0.228   6.288 -0.1321  0.1120 -0.0399
40751W        W40951   0.014   3.402   5.200  0.0889  0.3513 -0.1241
40752W        W40952   2.334   2.141  14.935 -0.1267 -0.1768 -0.0887
40753W        W40953  16.765   2.966  10.243 -0.0577  0.0203  0.1390
40754W        W40954  16.664  16.953   1.436 -0.0913  0.0022  0.3301
40755W        W40955   4.142   4.065   8.794 -0.0744  0.0020  0.1886
40756W        W40956  11.575   7.917  12.701  0.2626  0.1527  0.0669
40757W        W40957  12.863   2.090   5.900  0.1774 -0.0481 -0.0349
40758W        W40958   6.931  18.061   0.250  0.2085  0.3599 -0.0571
40759W        W40959   3.041  16.177   6.217  0.0407 -0.2228 -0.0275
40760W        W40960   2.806  17.454   9.817 -0.0544  0.0984  0.1591
40761W        W40961   0.452   7.975  17.990 -0.2751  0.0064  0.0177
40762W        W40962   8.415  15.398  11.949  0.0795  0.3962 -0.0235
40763W        W40963   3.260   9.258   3.858  0.0665  0.4174  0.0928
40764W        W40964  13.659   5.005   6.208 -0.1226  0.0481  0.0997
40765W        W40965  14.658   0.681   2.870  0.1985  0.1480  0.0350
40766W        W40966   2.763   1.777   5.112 -0.4103 -0.1262 -0.1753
40767W        W40967   2.531   1.140   0.948  0.2626 -0.1422 -0.0967
40768W        W40968  15.548   0.483   8.947 -0.0292 -0.1137 -0.2692
40769W        W40969  13.534   1.442  17.183 -0.1109 -0.1723  0.0626
40770W        W40970  13.794  16.578   5.330 -0.2009  0.0926 -0.1227
40771W        W40971   1.062  15.802   8.376  0.1426  0.2266  0.0970
40772W        W40972   3.479  10.922   6.363 -0.1784  0.1304  0.1336
40773W        W40973   3.867   2.983   4.747  0.1777 -0.0367  0.1761
40774W        W40974  14.267  17.549   6.901  0.3228 -0.1585 -0.0712
40775W        W40975  10.165   3.484   1.732  0.1024 -0.1686  0.0244
40776W        W40976   9.579  10.703   0.647  0.1609  0.1667 -0.0847
40777W        W40977   1.842  11.487  16.882 -0.0014  0.0077  0.1954
40778W        W40978   4.464   5.780   6.605  0.2127 -0.2501 -0.0847
40779W        W40979  11.493   0.887   2.615  0.1358 -0.0946 -0.0197
40780W        W40980  13.122  13.181   5.893  0.3784  0.0418  0.2730
40781W        W40981  10.763  13.096  16.142 -0.1413 -0.0460 -0.0236
40782W        W40982   6.654   5.729  11.844 -0.0523 -0.1615 -0.2571
40783W        W40983  13.455   6.496   3.931  0.3389  0.0016 -0.1921
40784W        W40984  15.306   4.446  11.268 -0.0988  0.0572  0.0022
40785W        W40985   5.692   9.700   5.623  0.0156 -0.2082 -0.1299
40786W        W40986  12.980   3.196   3.604  0.1204  0.2318  0.0807
40787W        W40987  14.639  10.106   6.368  0.0326  0.2708 -0.0641
40788W        W40988  15.121   8.512   7.623  0.2568  0.0846 -0.0179
40789W        W40989   0.442  14.218   8.240 -0.2844 -0.0347  0.0883
40790W        W40990  17.252  16.661  11.426 -0.1693  0.2132  0.2646
40791W        W40991   2.559   7.472   7.112 -0.0918  0.2342  0.1441
40792W        W40992  11.688   9.021  13.003 -0.0381  0.0093 -0.1781
40793W        W40993   3.621  13.793  17.445  0.0334  0.0782  0.0954
40794W        W40994   1.051   3.157  13.888 -0.2954 -0.1568  0.1715
40795W        W40995  14.619  17.476   9.499  0.2836  0.2622 -0.1105
40796W        W40996  14.039   1.543  13.637 -0.1144 -0.0072  0.0163
40797W        W40997  14.564   1.370   4.537 -0.0972 -0.0784 -0.0693
40798W        W40998   4.311   2.804   7.527 -0.1733  0.2703  0.1389
40799W        W40999  10.277   0.765   7.968 -0.1269  0.1681  0.0995
40800W        W41000  16.458  16.066   5.467  0.3374  0.1860 -0.2423
40801W        W41001   9.913   7.743   6.228 -0.0626  0.2953  0.1313
40802W        W41002   1.087   2.805   3.745  0.0757  0.1684 -0.2287
40803W        W41003  11.435   1.601   0.243  0.2517 -0.0798 -0.1941
40804W        W41004   7.489   2.745  11.580  0.2019  0.2277  0.1002
40805W        W41005  16.164   4.797   5.110  0.1912 -0.1274  0.2053
40806W        W41006   0.114  14.219  11.108 -0.0821  0.0940 -0.0325
40807W        W41007   0.897   9.076   3.282  0.2846  0.0254  0.2520
40808W        W41008   0.767   0.801  10.872  0.0553 -0.1345  0.1373
40809W        W41009  10.642  15.268  17.902  0.4173  0.3469 -0.0566
40810W        W41010  12.928   0.697  10.966 -0.3100  0.4439  0.3344
40811W        W41011  16.055   1.494  12.146  0.1227  0.1366 -0.0309
40812W        W41012   1.399   3.736  17.316 -0.0113  0.0828  0.1290
40813W        W41013  13.146   4.558   9.286  0.3544  0.1442  0.0865
40814W        W41014  16.840  13.660  11.985 -0.0037  0.2663 -0.1686
40815W        W41015   3.376  17.627   4.270  0.1867 -0.0666 -0.1149
40816W        W41016  16.122   2.992   9.584 -0.1206  0.2964  0.0105
40817W        W41017  15.436  14.765   4.787  0.2558 -0.1298 -0.1104
40818W        W41018  15.604  17.979   7.271 -0.3343 -0.1627  0.1285
40819W        W41019  15.266  18.151  11.900  0.0770 -0.0927  0.0057
40820W        W41020  17.923   1.551   4.483  0.1430  0.0806  0.2297
40821W        W41021   3.900  15.629  11.182 -0.0750  0.0724  0.1513
40822W        W41022  17.429   0.312   7.027 -0.1597  0.3821  0.0639
40823W        W41023   1.845   3.737  12.754  0.1940 -0.0021 -0.3539
40824W        W41024  13.205   1.769   8.169  0.2877 -0.0728  0.1328
40825W        W41025   3.488   1.087   7.946 -0.3679 -0.1016 -0.0311
40826W        W41026   2.202   0.646   8.019 -0.2680  0.1699  0.0090
40827W        W41027  11.624   2.424  14.590 -0.1186  0.0310  0.1096
40828W        W41028   3.000   3.720   3.298  0.2916  0.0101 -0.3055
40829W        W41029   2.442   0.748  10.819 -0.0937 -0.1210 -0.0134
40830W        W41030   2.540  13.670   6.702  0.0735 -0.1092 -0.3631
40831W        W41031   1.541  13.545  12.003  0.0874  0.1090  0.2219
40832W        W41032   4.617   9.919   0.984 -0.1488  0.2482  0.0616
40833W        W41033   2.021   2.200  10.800  0.0588  0.1285 -0.1224
40834W        W41034  15.198  15.681  16.306  0.0794  0.0218  0.0518
40835W        W41035  10.887   5.147  10.867 -0.0003 -0.0529 -0.1664
40836W        W41036   3.260   2.092   6.438  0.0246  0.1794  0.0164
40837W        W41037  12.355   0.984  16.306  0.0299 -0.0330 -0.1078
40838W        W41038  17.194   7.396   6.051 -0.1339 -0.0694 -0.0149
40839W        W41039   5.542   6.090   5.955 -0.1237 -0.2376 -0.1562
40840W        W41040  11.151   0.492  10.652 -0.4206 -0.1109 -0.2150
40841W        W41041   3.964  10.225  12.568  0.0625 -0.1875 -0.0037
40842W        W41042  11.103   3.126  11.431 -0.0350 -0.0948 -0.3240
40843W        W41043  11.079   4.725  12.795  0.0784 -0.0586  0.1917
40844W        W41044   2.942   1.532   7.044 -0.0293  0.0347 -0.2409
40845W        W41045  16.613   0.020  10.459  0.2755  0.1327  0.0500
40846W        W41046  11.849  17.938  13.982  0.1216 -0.2761  0.0344
40847W        W41047  11.679   5.842   4.518  0.1425 -0.0353 -0.2068
40848W        W41048  15.384   1.578  14.449  0.2700 -0.0742  0.1610
40849W        W41049  16.166   1.152  16.883  0.1410 -0.0350 -0.2346
40850W        W41050  14.335   7.278  10.520 -0.2131  0.2455 -0.0820
40851W        W41051   1.746  12.658   8.114 -0.0347 -0.1969  0.3060
40852W        W41052  11.073   6.480   4.050  0.1895 -0.2457 -0.1652
40853W        W41053   9.522   5.232  16.018  0.3244  0.1789  0.1715
40854W        W41054   0.383   4.355  13.959 -0.1037  0.0830 -0.3443
40855W        W41055   0.475  15.814   9.718 -0.2561 -0.0043  0.1320
40856W        W41056  13.887   4.820   6.735 -0.1715 -0.0353  0.1116
40857W        W41057   0.811   3.083  12.924  0.0174 -0.1542  0.0595
40858W        W41058  17.153   0.327   5.516  0.1703 -0.0982  0.2427
40859W        W41059   4.009   1.518   0.594 -0.0165 -0.1332  0.1048
40860W        W41060   5.464   5.059   8.413 -0.0963 -0.0250 -0.0391
40861W        W41061  13.254   4.108   7.831 -0.2603 -0.0313 -0.3250
40862W        W41062  12.795   6.301  10.688  0.0987 -0.0967  0.0834
40863W        W41063  14.534  12.919   1.240 -0.2672 -0.0851  0.4519
40864W        W41064  17.067  11.597  12.455  0.0580 -0.1189  0.0746
40865W        W41065  13.429   3.430  15.336  0.1316 -0.1693 -0.2570
40866W        W41066  10.654   0.589  11.875  0.1019  0.1450 -0.1907
40867W        W41067  14.229   9.787   6.173  0.1015 -0.1214 -0.1995
40868W        W41068   2.389   3.852  14.967  0.0065 -0.1372 -0.1830
40869W        W41069   3.453   5.043  15.254  0.0817 -0.1388 -0.1073
40870W        W41070   3.516   5.192   3.205  0.0934  0.2436  0.1527
40871W        W41071  16.794   3.824  14.418 -0.0683 -0.0343  0.1411
40872W        W41072  11.836   4.907  16.545 -0.0169 -0.0871 -0.0327
40873W        W41073  15.437   9.190  13.314 -0.1055 -0.4384  0.1694
40874W        W41074   0.572   0.296  17.991 -0.1266 -0.0448 -0.1170
40875W        W41075   5.958   3.541   2.972  0.6383  0.0329  0.3233
40876W        W41076   9.542   6.615  10.736 -0.1994 -0.2867 -0.1233
40877W        W41077   7.659   4.794   8.391 -0.5042 -0.1324  0.1073
40878W        W41078   6.146   2.885   4.386 -0.0273  0.0655 -0.1126
40879W        W41079   2.842  16.269   7.287  0.0430  0.1046 -0.3210
40880W        W41080  15.349  15.655   7.864 -0.1690 -0.0513  0.4323
40881W        W41081   1.446   9.137  15.430  0.1937 -0.3402 -0.1055
40882W        W41082   2.614  14.152   5.610  0.0964  0.0985 -0.0073
40883W        W41083  15.670   0.979  13.546 -0.1182 -0.0588  0.0731
40884W        W41084  17.962   0.967  12.881 -0.0904  0.0347  0.2819
40885W        W41085  14.051  10.441   5.023 -0.2798  0.1908 -0.1780
40886W        W41086   2.805   9.660   6.219  0.0117  0.0833 -0.2344
40887W        W41087  10.877   3.033   5.900  0.1560 -0.0156 -0.0264
40888W        W41088  15.871  17.117  14.141  0.1345 -0.1188 -0.0788
40889W        W41089  16.744   6.139   9.652 -0.2130 -0.0253  0.3841
40890W        W41090   5.810  12.242  10.717 -0.0762  0.1003  0.1132
40891W        W41091   2.327   5.683   6.431  0.3344  0.4014 -0.2753
40892W        W41092  13.611  10.877  15.947 -0.1098 -0.1550  0.1402
40893W        W41093  11.840  12.073   6.552  0.1326  0.0392  0.0719
40894W        W41094   2.228   5.608  12.498 -0.0807  0.1638  0.2663
40895W        W41095  11.229  12.374   0.982 -0.1816 -0.0103 -0.0889
40896W        W41096   0.065   8.200  13.658 -0.1320 -0.0838 -0.2064
40897W        W41097  17.927   0.183   7.265  0.0362  0.1235  0.0335
40898W        W41098   3.316   7.927  14.342 -0.0692 -0.0053  0.3960
40899W        W41099  12.527   1.015  16.853  0.0965  0.0654  0.1002
40900W        W41100   0.674  10.136  16.967 -0.1412  0.2899 -0.2928
40901W        W41101   0.648   3.235   7.488  0.3567  0.2143 -0.0103
40902W        W41102  12.948   3.126   7.200 -0.0448  0.1000  0.4446
40903W        W41103  13.182   2.588  14.247  0.2139  0.0237 -0.3370
40904W        W41104  16.113  14.859   2.033  0.2560  0.0206 -0.1944
40905W        W41105  15.056  16.671  13.214 -0.2652  0.1360  0.0326
40906W        W41106  17.193   1.005   2.627  0.0921 -0.1331 -0.0288
40907W        W41107   5.723   7.854   8.742 -0.0556  0.3677  0.0228
40908W        W41108   0.799   4.472  17.011  0.3523 -0.1202  0.1631
40909W        W41109  12.018   6.191   7.810  0.2951  0.2514 -0.0326
40910W        W41110  16.606   8.406   3.508  0.7696 -0.3837 -0.0362
40911W        W41111  14.169  14.892  16.554  0.2608  0.1015 -0.3278
40912W        W41112   1.672   5.363   7.050  0.3719 -0.0978  0.0296
40913W        W41113  16.167   4.855   8.748  0.1556 -0.0099 -0.0082
40914W        W41114   4.818   1.873   6.746  0.3010  0.1772  0.0173
40915W        W41115   7.198  17.995  15.202  0.2361  0.0217  0.1291
40916W        W41116   2.280   1.221   3.035 -0.0433 -0.1615  0.0342
40917W        W41117  17.824   1.100   4.505 -0.2982  0.0542  0.0815
40918W        W41118   7.213  12.042  14.912 -0.3507 -0.0622  0.0606
40919W        W41119   1.648   5.291  15.761  0.3348  0.3984  0.3071
40920W        W41120  16.449  15.442  12.075  0.1745  0.0375  0.1667
40921W        W41121  13.813  16.877   6.655 -0.2783  0.1951 -0.0609
40922W        W41122  11.388  18.006  10.206 -0.0919 -0.0017 -0.0503
40923W        W41123   2.563  16.965  10.567  0.1361 -0.2748 -0.0267
40924W        W41124  12.208   0.071   9.067 -0.0364  0.1733  0.2467
40925W        W41125   1.832   0.675   2.370 -0.0814 -0.0454 -0.0871
40926W        W41126  13.156   2.234  15.118  0.0253  0.2019  0.0365
40927W        W41127   1.396  10.388  17.266  0.4080 -0.4401  0.2051
40928W        W41128  11.788   5.448  14.872 -0.0385  0.1599 -0.2411
40929W        W41129  18.120   2.586  12.601 -0.1852 -0.1297 -0.0483
40930W        W41130   0.781  11.430  12.257  0.3269 -0.1417 -0.0249
40931W        W41131  15.308   6.200   6.045  0.2583 -0.0592 -0.0139
40932W        W41132   4.071  14.715   5.798  0.0755  0.3304 -0.0435
40933W        W41133  17.494  12.581   9.864 -0.0047 -0.3309 -0.1165
40934W        W41134   8.654   4.016  10.984 -0.2543 -0.1223  0.1096
40935W        W41135   4.005   6.131   4.562  0.1864 -0.1160  0.1378
40936W        W41136   1.135   0.198   9.160  0.0694 -0.2132  0.1242
40937W        W41137  17.521  15.904   8.020  0.3830 -0.1378  0.0633
40938W        W41138   1.544  17.614   6.283 -0.2253 -0.0919  0.1208
40939W        W41139   2.140  13.468  11.186 -0.0332 -0.0646 -0.1262
40940W        W41140   4.567  16.632   4.749 -0.5856 -0.1380  0.0080
40941W        W41141  15.819   3.189  12.000  0.1235 -0.2620 -0.3683
40942W        W41142   0.916   4.230   7.893 -0.2273 -0.2449  0.1564
40943W        W41143   2.547  16.398   1.370  0.0349 -0.1481 -0.0645
40944W        W41144   4.748   6.937   6.956  0.0698 -0.2104 -0.0920
40945W        W41145   2.446   2.285  13.841  0.2514 -0.0559 -0.3134
40946W        W41146  18.172   1.097   3.805  0.1719  0.0076  0.1142
40947W        W41147  14.785   4.759   3.995 -0.2226  0.0782 -0.3598
40948W        W41148   7.105   2.158   0.479  0.2107 -0.0039  0.0569
40949W        W41149  14.901  16.581  15.184 -0.0447  0.2332  0.0134
40950W        W41150   8.323   9.318  10.582 -0.4468 -0.0029  0.2320
40951W        W41151  13.973   9.302   1.039 -0.0655  0.1907 -0.1094
40952W        W41152  15.669  17.911  14.594  0.5176  0.0214 -0.0312
40953W        W41153   0.397  14.660   4.091  0.1217  0.2084  0.0289
40954W        W41154  11.899   5.736   0.008 -0.0954  0.1886 -0.1217
40955W        W41155  13.067   2.461   9.038 -0.0099 -0.2486  0.2434
40956W        W41156  11.291  14.045  13.925 -0.0447 -0.0548  0.0473
40957W        W41157  16.149  13.108  14.463 -0.1776  0.1273  0.0726
40958W        W41158   4.307   2.081  14.542  0.1788 -0.1353  0.3914
40959W        W41159   1.844  17.588  12.407  0.0358  0.0007  0.2227
40960W        W41160  11.519  16.196  15.024  0.2166  0.0962  0.0206
40961W        W41161  16.286  17.750   4.137  0.1497 -0.1635 -0.1880
40962W        W41162   1.153   2.857   3.257 -0.1899  0.0153  0.1321
40963W        W41163  16.585  13.999   7.117  0.0892  0.0344 -0.0930
40964W        W41164  12.959   2.178   8.131  0.0656 -0.1214 -0.0876
40965W        W41165   0.630   4.907   6.286 -0.1531 -0.2427 -0.3509
40966W        W41166   5.118   5.387  13.170  0.0367 -0.1136 -0.2939
40967W        W41167  13.715  16.544  13.448 -0.0393  0.0872 -0.3179
40968W        W41168  11.102   3.660   9.999  0.0502 -0.0153  0.0922
40969W        W41169   3.664  16.227   0.148 -0.0459 -0.1444 -0.1458
40970W        W41170  14.123   2.746  13.396 -0.0181  0.3772  0.2458
40971W        W41171   1.192   1.403   5.454  0.5045 -0.0233 -0.0171
40972W        W41172   0.565   8.499   6.060  0.3608 -0.0083 -0.0763
40973W        W41173  13.868   7.368  12.231 -0.1186  0.0627 -0.0819
40974W        W41174  17.576  12.820   4.940  0.0679  0.1846  0.0734
40975W        W41175  16.091   2.916  17.635 -0.2145 -0.4193  0.1019
40976W        W41176   1.570   1.775   7.284 -0.0867 -0.0022  0.2067
40977W        W41177  15.175  15.533   3.727 -0.0230  0.1263 -0.1578
40978W        W41178  14.030   4.552  11.734 -0.1347 -0.1521 -0.2645
40979W        W41179  10.565   0.200   1.814 -0.2229 -0.2060 -0.0446
40980W        W41180   0.198   7.679   5.518  0.1091 -0.0886 -0.1072
40981W        W41181   5.955   6.973   5.837  0.0671 -0.2985  0.0121
40982W        W41182  15.985  16.945  14.607  0.1060  0.2327  0.1991
40983W        W41183   5.133   6.417  10.034 -0.0924 -0.0309 -0.1063
40984W        W41184  17.772  14.884  10.374  0.1751  0.0443 -0.0968
40985W        W41185  17.598   0.385  16.790 -0.2475 -0.1227 -0.0895
40986W        W41186  13.202   8.967  18.087 -0.1920 -0.3103 -0.2107
40987W        W41187  15.561   0.665  11.265  0.1667  0.0031 -0.0740
40988W        W41188  13.208   9.003   6.609 -0.0139  0.0538  0.0375
40989W        W41189   0.386   2.790   3.116 -0.0971  0.1920 -0.1005
40990W        W41190  17.200  13.981   5.792  0.3289 -0.1069  0.2404
40991W        W41191   1.866   4.659   9.345 -0.1390 -0.1987  0.0156
40992W        W41192  14.893   6.948   7.961 -0.2428  0.3885 -0.0307
40993W        W41193  10.355   1.451   8.686  0.0434 -0.0924  0.1219
40994W        W41194  16.360  17.522  11.561  0.0813 -0.0622  0.0923
40995W        W41195  13.541   5.035   7.008 -0.2092 -0.0895 -0.2256
40996W        W41196   0.655   1.559  10.116 -0.1515  0.1088  0.0476
40997W        W41197  17.493   4.096   6.163 -0.3412 -0.2380  0.3488
40998W        W41198  15.492   4.272  13.814  0.0980  0.0855 -0.0100
40999W        W41199   7.314   4.426  11.889 -0.1393  0.0907  0.0441
41000W        W41200   8.997  16.303  11.589 -0.0291  0.3562 -0.0145
41001W        W41201   1.204   4.082  13.717 -0.2672 -0.3139 -0.0444
41002W        W41202  11.553   7.548  10.756  0.2966  0.1800  0.2012
41003W        W41203   1.147   9.613   1.026  0.0055 -0.0570  0.4273
41004W        W41204  15.540   4.634   6.233 -0.0052 -0.1395  0.1406
41005W        W41205   7.974  15.868   8.897  0.1495  0.0236  0.0828
41006W        W41206  13.722   1.017   5.689 -0.0825  0.1064  0.2150
41007W        W41207  16.582   0.877   4.756 -0.1506 -0.1090  0.0979
41008W        W41208  12.205  17.383   1.388 -0.0587 -0.0431 -0.0333
41009W        W41209   4.105  17.798  15.872  0.0049 -0.2428  0.1238
41010W        W41210   8.055  16.904  10.633  0.3227  0.0478 -0.1624
41011W        W41211   4.680   8.118  13.687 -0.0102 -0.0589  0.0965
41012W        W41212   3.182   4.905  17.235 -0.0816 -0.0902  0.1909
41013W        W41213   0.264   3.809   8.279 -0.5243  0.0310  0.2470
41014W        W41214  12.804   5.109  13.102  0.1992 -0.2780 -0.2492
41015W        W41215   3.529  12.179   2.102  0.0870 -0.0114  0.1326
41016W        W41216  14.149  14.160  10.531 -0.1505 -0.1274 -0.3359
41017W        W41217  14.243  11.889   2.757  0.0075 -0.0191  0.0523
41018W        W41218  16.607   2.913  14.665 -0.3018  0.2767 -0.0870
41019W        W41219  18.160  16.058  11.123  0.0645 -0.2602 -0.0763
41020W        W41220  17.766   0.906   5.132  0.1027  0.3285  0.0332
41021W        W41221  15.609  16.107   9.084 -0.1002 -0.2214 -0.1970
41022W        W41222   1.819   1.774   1.041 -0.0140  0.2164 -0.0205
41023W        W41223   5.247   7.829   1.673 -0.0828 -0.2304  0.0036
41024W        W41224   1.441   6.010  11.147  0.0087 -0.0999  0.0359
41025W        W41225  12.740  18.125  11.472 -0.0669  0.0842 -0.0539
41026W        W41226   9.098   3.748   7.450 -0.1102 -0.4233  0.0605
41027W        W41227  10.972   3.887   5.629  0.0588 -0.1252  0.0774
41028W        W41228   6.037  14.757   3.394  0.2049 -0.3314  0.0717
41029W        W41229  17.296   2.519  11.322 -0.1097 -0.0052 -0.1200
41030W        W41230  17.584   4.858  17.236 -0.1465  0.0705  0.0083
41031W        W41231  16.532  13.156  14.795 -0.1814 -0.0200  0.1669
41032W        W41232   2.036   3.853   8.921 -0.0081 -0.6964 -0.1166
41033W        W41233   6.393  17.413   6.801  0.0204  0.1829  0.0752
41034W        W41234  14.696  17.897  12.812  0.1282  0.3015 -0.0139
41035W        W41235   7.730  16.433  11.827  0.1488  0.3073 -0.1975
41036W        W41236  16.500   3.287   3.746  0.2251  0.1414 -0.0926
41037W        W41237  17.279  18.177  14.917 -0.0213 -0.0963 -0.0040
41038W        W41238  13.569  15.724  14.168 -0.0024  0.1384  0.2256
41039W        W41239  11.212   8.833  10.812  0.3676 -0.0164  0.0953
41040W        W41240   1.024   0.166   4.644  0.1830  0.1956 -0.2402
41041W        W41241  14.311   2.093  10.442 -0.0933 -0.1179 -0.1951
41042W        W41242  14.878   6.914  13.603 -0.0279 -0.1611  0.0962
41043W        W41243   5.382   2.515   5.563  0.1665 -0.1670  0.1018
41044W        W41244   6.331   1.373   8.319  0.2017 -0.1427 -0.0609
41045W        W41245  17.743   3.058  11.750 -0.2057 -0.4500  0.0720
41046W        W41246   7.695   4.016  11.700 -0.0725 -0.0653  0.2254
41047W        W41247   1.818   3.920  17.565 -0.1240 -0.1593 -0.0866
41048W        W41248  14.450  14.079  13.343 -0.0240 -0.1974 -0.0059
41049W        W41249  13.974  15.565   7.206 -0.0222 -0.0193  0.0907
41050W        W41250  13.465   5.289  10.260  0.0125  0.3029 -0.1847
41051W        W41251   0.464   9.676  12.795  0.0194  0.1122  0.3195
41052W        W41252   3.187   2.525  10.488  0.1548  0.0776  0.2288
41053W        W41253  11.133   8.608   8.819  0.3528  0.0189 -0.1593
41054W        W41254   2.496  15.869  11.873  0.0423  0.0025  0.1356
41055W        W41255  17.776   5.530  13.356  0.0651  0.1269  0.0964
41056W        W41256   6.896  17.986   8.977  0.1892 -0.1905  0.3575
41057W        W41257   4.238   2.185  10.432  0.0249 -0.1986  0.1036
41058W        W41258  14.984  17.262  11.822  0.0476  0.0225  0.1176
41059W        W41259   3.631   0.497   9.353  0.4809 -0.0549  0.1930
41060W        W41260  11.770   3.576  11.722  0.0909  0.0990  0.2704
41061W        W41261   0.781   2.140   1.592 -0.1173  0.2099  0.0887
41062W        W41262   0.484   7.362   1.652 -0.2468 -0.0830 -0.0169
41063W        W41263   4.247   7.307  12.770  0.0200  0.1389 -0.1156
41064W        W41264  16.955   1.691  13.080 -0.1920  0.0895 -0.0584
41065W        W41265   0.950   2.046  18.013  0.3397  0.2630  0.0371
41066W        W41266  14.298  17.309  14.586 -0.0491 -0.0207 -0.1474
41067W        W41267   8.217   0.474  15.636 -0.0134  0.0798  0.2579
41068W        W41268  10.074  17.863   0.437  0.3630  0.1186  0.1105
41069W        W41269   3.103   7.903  12.713  0.0432  0.0319  0.1277
41070W        W41270   2.474   6.578   6.314 -0.1405  0.0284 -0.1433
41071W        W41271  15.746   6.156  13.226  0.0991 -0.3580 -0.0582
41072W        W41272  16.854   2.770   8.516  0.0569  0.2176 -0.0984
41073W        W41273  16.900  14.134  10.003 -0.0785  0.0473 -0.2248
41074W        W41274  12.949   3.101  12.228  0.1660 -0.1062 -0.0866
41075W        W41275  14.627   1.165   7.435 -0.1002 -0.2702  0.0564
41076W        W41276  14.333   9.487   2.688 -0.2418 -0.1985 -0.0335
41077W        W41277  12.340  16.277  13.795 -0.0487 -0.2090 -0.3127
41078W        W41278   0.316  10.774   9.829  0.0106  0.0115  0.0921
41079W        W41279  14.852   1.227   7.950 -0.0857  0.3346 -0.0787
41080W        W41280  15.687  17.803  12.204 -0.0979 -0.2492 -0.1906
41081W        W41281   1.248  15.450   7.660 -0.0097 -0.2197 -0.0280
41082W        W41282  12.339  12.674  12.231 -0.0631 -0.1186 -0.0125
41083W        W41283  14.387  14.616   5.389  0.1251 -0.1137 -0.0108
41084W        W41284  12.935  10.767   6.230 -0.1672 -0.1332  0.2999
41085W        W41285   2.403  13.707  11.565 -0.1198 -0.2531  0.4672
41086W        W41286  14.763   5.227  12.770 -0.0021  0.3820  0.1028
41087W        W41287  16.103  16.051  10.819 -0.1270 -0.0292  0.2157
41088W        W41288  15.648   1.030  11.659  0.0466  0.0340 -0.0155
41089W        W41289   1.316   0.505  13.493  0.0919 -0.2033  0.1899
41090W        W41290  10.887   1.467   9.549 -0.3792  0.2587  0.1230
41091W        W41291   8.552   1.375  10.686 -0.1984  0.0173  0.0541
41092W        W41292  12.819   3.944   1.568  0.1034 -0.3528 -0.2546
41093W        W41293  14.444   1.849  13.724 -0.0924  0.1399 -0.2308
41094W        W41294   2.484   2.901  12.541 -0.1259  0.1397 -0.0730
41095W        W41295  10.597  16.082  12.083  0.0966  0.0431  0.0332
41096W        W41296  10.647   4.321  14.505 -0.1907 -0.3340  0.0272
41097W        W41297   7.416   1.102  15.455  0.0186  0.0549  0.1348
41098W        W41298  16.726  17.848   7.254 -0.1225  0.1152  0.0253
41099W        W41299   8.023  16.814   5.312  0.2522 -0.1650 -0.2529
41100W        W41300  14.218  17.345   8.396 -0.2438 -0.2116 -0.1141
41101W        W41301   1.986   4.053  14.656 -0.1118 -0.2125  0.1722
41102W        W41302  15.082   2.610   4.126 -0.2464 -0.1793 -0.1686
41103W        W41303   6.967   6.228   7.388 -0.0680 -0.1760  0.2753
41104W        W41304  14.817   1.405  11.980  0.1038 -0.2279 -0.0666
41105W        W41305   4.371  17.649   1.136  0.0218  0.0829 -0.3128
41106W        W41306  12.969  16.521  14.175  0.0837  0.1304 -0.0748
41107W        W41307   0.570  10.643  11.333 -0.1613  0.2253 -0.2298
41108W        W41308  15.279   5.718   5.050 -0.0246  0.0531 -0.0065
41109W        W41309  10.913   4.016  12.334  0.2334 -0.2847  0.0415
41110W        W41310  12.729   7.141   7.330 -0.1342 -0.0433  0.2779
41111W        W41311  11.428  16.391  16.548 -0.4329 -0.0812 -0.0039
41112W        W41312  15.872   1.039  15.472  0.1400 -0.1671 -0.1084
41113W        W41313  16.536   1.378  13.144  0.1143 -0.0238 -0.2990
41114W        W41314   0.374   3.385  11.988  0.1353 -0.2190 -0.2808
41115W        W41315   8.385   3.078   6.680  0.2997  0.1003 -0.2452
41116W        W41316   3.180   3.010   9.323  0.0420 -0.0855 -0.0606
41117W        W41317  11.934   7.536  12.224 -0.0458 -0.1912 -0.2836
41118W        W41318  17.402   1.724   2.057  0.0586 -0.3269 -0.0307
41119W        W41319  12.162   5.198  13.708 -0.0237  0.3416  0.1173
41120W        W41320  13.341   3.591  11.224  0.2315  0.4673  0.0836
41121W        W41321  16.303  18.199  10.846  0.0321  0.1409  0.2726
41122W        W41322   2.193   5.354   8.300 -0.1477 -0.2724 -0.0154
41123W        W41323  17.230   7.622  12.940  0.2306  0.0593  0.2071
41124W        W41324  16.582  15.372  17.032 -0.3416  0.1212  0.3130
41125W        W41325  16.103  14.880   9.120  0.1193  0.1099 -0.1277
41126W        W41326  14.628   3.550  17.488  0.1096  0.0779 -0.0911
41127W        W41327   2.985  14.635   3.346  0.3891  0.0113 -0.2947
41128W        W41328   1.468   4.092   4.101 -0.1078 -0.2519 -0.2667
41129W        W41329   3.916   0.438   3.147  0.1565  0.2581  0.2006
41130W        W41330   0.634  12.319  10.305 -0.2227 -0.0063  0.2127
41131W        W41331  12.263  13.917  11.825 -0.1680  0.0816  0.0512
41132W        W41332   1.823   2.096   5.501  0.2899 -0.0503 -0.2094
41133W        W41333   8.124  17.025   7.847 -0.2213 -0.0331 -0.3472
41134W        W41334  17.388   7.141  10.867  0.2126 -0.3171  0.0827
41135W        W41335  11.297   6.857   0.811  0.1484 -0.2037  0.0863
41136W        W41336   2.162   4.031   3.715 -0.2129 -0.2324 -0.0585
41137W        W41337  17.716   4.539   4.437  0.2035 -0.1483 -0.0123
41138W        W41338   2.990  10.332  12.180 -0.3284  0.1176 -0.1443
41139W        W41339   1.420  16.169  11.294  0.0623  0.0530  0.1028
41140W        W41340  16.074  16.941   4.672  0.2880  0.0447  0.2727
41141W        W41341  12.984  12.590   6.966  0.0033 -0.2107 -0.1469
41142W        W41342  10.369   5.979   9.855 -0.1587  0.0336 -0.0742
41143W        W41343  13.202   7.012  13.336 -0.1444  0.0021  0.2540
41144W        W41344  16.788   4.703  10.716  0.1541  0.1954 -0.1053
41145W        W41345  16.121   5.422  17.226 -0.0661  0.2303 -0.0534
41146W        W41346  14.198   8.859   4.433  0.0606  0.2713 -0.0399
41147W        W41347   0.953   8.733  17.334  0.1287 -0.0005 -0.3641
41148W        W41348  13.159   4.177  13.296  0.1011 -0.0126 -0.0280
41149W        W41349  14.997  13.227  12.759 -0.3874 -0.2521 -0.0868
41150W        W41350  15.045  10.500   4.855 -0.0175 -0.1951 -0.0429
41151W        W41351  17.468  16.980   6.674 -0.2233 -0.0117  0.0075
41152W        W41352  14.143   0.623  11.871 -0.2297 -0.0030 -0.0470
41153W        W41353  15.405  12.875  18.006  0.0468  0.0283  0.1309
41154W        W41354   0.423   9.539   6.024  0.1611  0.2593  0.2195
41155W        W41355  15.639  12.004   1.267  0.0431  0.1520  0.0840
41156W        W41356  15.931   1.456  11.326  0.2410 -0.0839 -0.2333
41157W        W41357  18.087   7.272  12.987  0.0700  0.1584  0.0881
41158W        W41358  13.846   1.920  10.595 -0.1963  0.0639  0.4313
41159W        W41359   4.482  17.574   8.704 -0.1121  0.4088 -0.3497
41160W        W41360  14.442   6.318   9.100  0.0266  0.2633  0.4658
41161W        W41361   2.939   4.041   9.105  0.1824 -0.1987 -0.2412
41162W        W41362   2.495   2.646   4.085  0.0451  0.3764  0.0603
41163W        W41363  16.732  15.071   3.438  0.0049 -0.0075 -0.1064
41164W        W41364   8.943  17.120  11.737 -0.0362  0.1112  0.0811
41165W        W41365   1.913   1.761   7.864  0.1140  0.1461  0.3841
41166W        W41366   1.937   2.676   1.269 -0.1230  0.1217 -0.0758
41167W        W41367   8.446  10.586   3.504  0.1312 -0.1798  0.3704
41168W        W41368  18.068   3.893   5.470  0.1813 -0.0657  0.0984
41169W        W41369  15.048  15.420   2.757  0.0098 -0.3132 -0.0133
41170W        W41370  16.704   1.999   9.747 -0.2528  0.3073  0.1711
41171W        W41371  15.927   3.824   8.233 -0.3825  0.0032  0.0598
41172W        W41372   2.301   2.304   6.989 -0.1695 -0.3707  0.3165
41173W        W41373   1.865   1.476  17.190 -0.1898 -0.1684 -0.1825
41174W        W41374   2.368   0.967  14.615 -0.3124  0.2100 -0.0834
41175W        W41375   5.114   0.696  11.132  0.0504 -0.0296 -0.0312
41176W        W41376   9.458  11.372   7.790  0.0540 -0.2992 -0.0158
41177W        W41377  16.164   4.106  11.762  0.2291 -0.0091  0.1600
41178W        W41378   1.874  16.020  10.535  0.0193  0.2185 -0.0606
41179W        W41379  15.144   4.072   6.783 -0.1125  0.0482  0.2599
41180W        W41380  11.643  16.263  14.499 -0.2900 -0.0570 -0.0121
41181W        W41381   3.803   8.083   0.370  0.0120 -0.1574 -0.0013
41182W        W41382  15.826   1.012  17.184  0.1556  0.4654 -0.0420
41183W        W41383   5.752   3.895  14.969  0.2264 -0.0543 -0.1211
41184W        W41384  15.228  11.044   7.193  0.0427  0.2366 -0.1614
41185W        W41385  13.750  11.040  12.541  0.0424  0.1352 -0.1895
41186W        W41386   0.363   4.247   7.202 -0.0479  0.0789 -0.1119
41187W        W41387  14.086  13.947  15.193 -0.1072  0.0522 -0.0407
41188W        W41388   3.047   3.937   4.955 -0.2977 -0.0016 -0.4111
41189W        W41389  12.233   1.687  11.984  0.2496  0.0977  0.0512
41190W        W41390   3.864   6.706   0.800 -0.2830 -0.0511  0.2140
41191W        W41391   5.291  13.476   3.828 -0.0054  0.0034 -0.1912
41192W        W41392  13.166   2.435   6.059  0.1028  0.2197 -0.0311
41193W        W41393   3.042  13.113   1.241 -0.2678 -0.2348 -0.2338
41194W        W41394  12.939   2.882   1.032 -0.0782  0.0632 -0.0058
41195W        W41395  17.092   3.819  15.003 -0.1039  0.1681  0.0751
41196W        W41396  14.933   1.754  14.033  0.0801  0.1708 -0.1920
41197W        W41397  10.149  13.985  16.753  0.1574  0.1557 -0.0324
41198W        W41398   4.698  16.302  14.272  0.1695 -0.3914  0.0119
41199W        W41399   8.134  13.413  10.513 -0.0252 -0.1929  0.0106
41200W        W41400  16.082   7.349  12.268 -0.3674 -0.0316 -0.1886
41201W        W41401  13.778  17.400  14.723  0.3773  0.0175  0.2002
41202W        W41402  18.013  10.492   6.676  0.0147  0.0576 -0.2877
41203W        W41403   2.741   9.184  14.051  0.1430 -0.1966 -0.0388
41204W        W41404  12.863   2.058   5.409  0.0191  0.3411  0.1713
41205W        W41405   8.878  16.716  12.623 -0.0051 -0.0700 -0.0174
41206W        W41406   2.650   0.267  16.316  0.2166  0.2781  0.1860
41207W        W41407  11.991  16.391  13.298 -0.0471  0.1958  0.0243
41208W        W41408   3.956   1.516  10.598  0.0434 -0.1933  0.2399
41209W        W41409   7.921  16.574   9.763 -0.1580 -0.1019 -0.1210
41210W        W41410   6.816   0.477  16.306  0.2986  0.0488 -0.0470
41211W        W41411   1.250   0.499  11.613 -0.1686  0.0496  0.0440
41212W        W41412   7.618   4.802   4.751  0.0990  0.1339  0.1467
41213W        W41413  15.269   6.265   3.043  0.1267 -0.0149 -0.0993
41214W        W41414  10.439   2.980  14.826 -0.3253  0.0079  0.0689
41215W        W41415   2.341   1.007  13.235 -0.0990 -0.0761 -0.1695
41216W        W41416   0.317   3.925  14.268  0.1591 -0.4165 -0.2147
41217W        W41417  14.588   1.340  14.648 -0.1121 -0.0270 -0.1088
41218W        W41418   0.606   4.559   7.559  0.4215 -0.0031  0.0089
41219W        W41419   3.937  11.957   2.195 -0.4113 -0.2104  0.0841
41220W        W41420  16.016  15.044   0.019  0.1048 -0.2812 -0.0449
41221W        W41421   9.497   2.796  13.843 -0.1825 -0.0686  0.3974
41222W        W41422   9.743   6.033   5.560  0.2711  0.3147 -0.3238
41223W        W41423   8.913   2.756  15.345  0.0594 -0.1705  0.1819
41224W        W41424  10.210  16.156  15.681 -0.2534  0.0614 -0.2569
41225W        W41425  17.908   3.563   3.917  0.1180  0.1160 -0.2128
41226W        W41426   9.830  17.372  11.811 -0.0413  0.1050 -0.4046
41227W        W41427  12.008   0.546  10.477 -0.0844  0.1277  0.0217
41228W        W41428  14.032  15.345   3.781  0.0051  0.2573  0.0439
41229W        W41429  11.110  12.539  14.154  0.1043  0.0529 -0.2538
41230W        W41430   3.985   6.932   3.356  0.4445 -0.3323 -0.0823
41231W        W41431  17.373  16.528   0.208  0.0735 -0.1317 -0.3192
41232W        W41432   6.053   6.940   0.791  0.2385  0.0810  0.0944
41233W        W41433   2.862   0.194  11.093  0.2136  0.1595 -0.1838
41234W        W41434   3.124  17.495   2.367  0.0882  0.0864 -0.0171
41235W        W41435  13.236  17.591   8.252  0.3043  0.0196 -0.1883
41236W        W41436   3.303   0.201  10.475  0.2474 -0.0818 -0.0350
41237W        W41437   2.754   4.912   7.425 -0.1205  0.1076  0.0066
41238W        W41438  15.848   9.367  13.071 -0.1854  0.2382  0.1848
41239W        W41439  13.973   0.441   1.143  0.1620 -0.1645  0.0190
41240W        W41440  12.982  15.802  11.956 -0.1074 -0.1674  0.2623
41241W        W41441   1.907   2.410  12.576  0.0443 -0.0370 -0.0279
41242W        W41442   5.881  16.176  16.081 -0.1591  0.1529 -0.1192
41243W        W41443   0.665   7.105  11.152  0.2665  0.1578 -0.2036
41244W        W41444   0.388   4.554   6.604 -0.1127 -0.0425  0.0321
41245W        W41445   0.529   1.312  14.432  0.1275  0.0514 -0.3380
41246W        W41446  17.110  17.778   1.787 -0.0443 -0.0243 -0.2650
41247W        W41447   1.753   6.279   0.744 -0.1745 -0.0512 -0.0079
41248W        W41448  17.854  17.977   8.754  0.1122 -0.0565  0.0061
41249W        W41449  12.622   1.701  12.406  0.0270 -0.1446 -0.2146
41250W        W41450  16.358  14.359  17.660 -0.2114  0.1466  0.1854
41251W        W41451  16.678   1.612  14.316  0.4605 -0.2291 -0.0749
41252W        W41452   3.130   3.486   1.528  0.4323 -0.0165 -0.0579
41253W        W41453   9.871  12.993   3.613  0.0407 -0.2835  0.0844
41254W        W41454  13.780   0.915  11.730  0.0776  0.3871 -0.3244
41255W        W41455  15.668   3.267  10.693 -0.0849  0.2720 -0.4421
41256W        W41456   0.353   4.364  11.288  0.0221 -0.0706  0.2234
41257W        W41457   2.422  17.692   2.406  0.0114 -0.0451  0.0006
41258W        W41458   0.116   1.754  12.085 -0.0242 -0.0749 -0.1086
41259W        W41459  11.984  13.892  14.195 -0.1863  0.0023 -0.1114
41260W        W41460   3.573   9.873   9.534  0.1135  0.0689 -0.0320
41261W        W41461  17.525   2.182  12.004  0.0430 -0.3448 -0.0453
41262W        W41462  17.250   2.270   7.947  0.2503 -0.0417 -0.2240
41263W        W41463   2.704  18.088   7.788  0.1448  0.0906 -0.2345
41264W        W41464   0.463   0.440  11.004 -0.0178  0.2912  0.1815
41265W        W41465   3.472  11.125   8.773  0.0496  0.1916 -0.1590
41266W        W41466   7.749   1.278  15.811 -0.0683 -0.1259 -0.1711
41267W        W41467  17.904  17.801  11.690  0.2233 -0.1783 -0.0316
41268W        W41468  12.052   0.548   0.963 -0.2375  0.2617 -0.0865
41269W        W41469  14.420   0.856  14.498 -0.3068  0.0182  0.0487
41270W        W41470  11.706  17.122   3.984  0.1747 -0.2697 -0.0711
41271W        W41471  14.766   4.150   1.555  0.1338  0.1651 -0.1200
41272W        W41472   5.391   4.865  11.006 -0.2546  0.2700  0.0142
41273W        W41473   8.427   5.114  14.295  0.4166 -0.0567 -0.3469
41274W        W41474   2.070   4.355   3.322 -0.1779  0.1511 -0.3929
41275W        W41475  18.030   5.011  16.165  0.0392 -0.0818  0.1022
41276W        W41476  12.418   5.376  13.312  0.1336  0.0383  0.1473
41277W        W41477  13.851   2.591  12.818  0.2215 -0.2956 -0.2303
41278W        W41478  15.055   8.759  16.667 -0.3009  0.0522 -0.0085
41279W        W41479  15.719  17.485  15.800  0.1015  0.2944  0.0982
41280W        W41480  10.210   4.422  15.520 -0.1469  0.1785 -0.1399
41281W        W41481  14.233   6.276  14.866  0.1560  0.0595  0.1953
41282W        W41482  17.461   8.152  15.284 -0.1703  0.0821  0.2178
41283W        W41483  13.124  12.867   2.939 -0.1066  0.0117  0.4113
41284W        W41484   6.409   2.302  13.334 -0.0186 -0.1358 -0.4381
41285W        W41485  15.263  16.790  11.500  0.0878  0.2559 -0.1762
41286W        W41486  15.287  12.503   3.681  0.1148 -0.1827  0.0055
41287W        W41487  10.450   1.937   7.894 -0.2257 -0.2849 -0.0000
41288W        W41488  15.738  11.760  11.863  0.1267  0.0249 -0.1933
41289W        W41489  10.969   8.584  15.814  0.1619 -0.2066  0.1059
41290W        W41490  13.359   8.869  13.806 -0.0453 -0.1172  0.1086
41291W        W41491  17.822   0.800   0.254 -0.2712  0.1547  0.0820
41292W        W41492  11.483   9.793  15.872  0.2553 -0.0714 -0.0260
41293W        W41493  11.836  17.495  14.368  0.0161  0.0907 -0.0329
41294W        W41494   8.903   5.041  13.683 -0.2549 -0.3590  0.1257
41295W        W41495  15.069   4.757  14.396 -0.4165  0.1536  0.2472
41296W        W41496  18.009   0.616   3.752  0.1189 -0.1274  0.2374
41297W        W41497   0.714   2.399  11.292  0.2771 -0.0794  0.1001
41298W        W41498  16.322   6.661  13.536  0.1747 -0.0542  0.1937
41299W        W41499   5.871   3.747   1.996  0.0294 -0.0110  0.0559
41300W        W41500  16.868   3.414  17.233  0.1565  0.2396 -0.3210
41301W        W41501  14.723   6.412   5.394 -0.2191  0.1908 -0.1469
41302W        W41502  17.140   4.893   9.582  0.2189  0.0205 -0.2566
41303W        W41503  12.911   5.540  12.697 -0.1671  0.1616  0.1259
41304W        W41504   0.074   8.500  14.150  0.5439  0.2089 -0.1486
41305W        W41505  12.979   5.349   8.083 -0.1656 -0.1176  0.0430
41306W        W41506  13.245  15.036  11.729  0.0577 -0.1617 -0.1331
41307W        W41507  15.804   0.961  16.067 -0.0765  0.1919 -0.2274
41308W        W41508  15.850   2.442  17.662 -0.1015 -0.0306  0.3106
41309W        W41509  15.618   6.677  14.004  0.0352  0.1834 -0.4432
41310W        W41510   4.434  16.535   8.553  0.1792 -0.0793 -0.0672
41311W        W41511   1.239   0.662  14.593  0.1505 -0.0987  0.0138
41312W        W41512  13.748   0.440  17.990 -0.0811  0.0939 -0.1051
41313W        W41513   0.658  11.296  13.142 -0.1207 -0.1421  0.0401
41314W        W41514  11.567   9.802   4.205 -0.2153  0.2347  0.1735
41315W        W41515  13.629  18.088  16.470  0.2482 -0.2310  0.0565
41316W        W41516  13.121  11.431   4.092  0.0009  0.0951  0.1388
41317W        W41517   2.451   4.902  16.918  0.1843 -0.1587 -0.1718
41318W        W41518  11.227   9.677   9.534  0.0811  0.1938  0.2377
41319W        W41519  17.641   3.824  15.083 -0.0962 -0.3336 -0.0767
41320W        W41520   1.967   0.250   9.554 -0.3818  0.4538  0.1108
41321W        W41521  13.230  17.432  14.716  0.1418 -0.0158 -0.0628
41322W        W41522  11.528  12.420   6.694 -0.1373 -0.2547  0.0381
41323W        W41523  16.119   0.430  16.163 -0.0131  0.1540  0.3667
41324W        W41524  16.851   2.897  12.658 -0.1993  0.0972 -0.0445
41325W        W41525  17.933   0.655  16.511  0.0464 -0.0076  0.2130
41326W        W41526  13.442  17.457   9.325  0.1187 -0.1219  0.0428
41327W        W41527   0.173   2.546  14.076  0.1340  0.0115 -0.1251
41328W        W41528   0.736   0.659   9.793  0.3948  0.2791  0.2503
41329W        W41529   1.934   1.043   0.183  0.0404  0.4627 -0.5038
41330W        W41530  14.011  14.108   2.762  0.1991  0.1350  0.1172
41331W        W41531  10.468   4.323  13.929 -0.0478 -0.1971  0.1200
41332W        W41532  14.250  17.677  12.821  0.2188  0.1523 -0.0072
41333W        W41533  17.886   5.538   7.938  0.0848 -0.0998  0.0164
41334W        W41534   7.495   0.424  17.306  0.0537  0.0604 -0.2113
41335W        W41535   1.980   0.146  14.587  0.2640  0.1638  0.4462
41336W        W41536  17.451   4.203   1.083 -0.1688 -0.1312 -0.1061
41337W        W41537   9.343   5.247  13.928 -0.1403  0.0719  0.1147
41338W        W41538   4.830  18.030   7.779 -0.2107 -0.0816 -0.1166
41339W        W41539  10.922  12.297  11.405 -0.2498 -0.1723 -0.1827
41340W        W41540   0.191   4.108   1.349 -0.0855  0.0598 -0.0938
41341W        W41541  17.781   4.879  14.485 -0.0372 -0.2415 -0.0738
41342W        W41542   6.401   8.658  17.335 -0.0451 -0.0438 -0.1617
41343W        W41543  12.889  14.172  16.392 -0.1277 -0.0513 -0.0032
41344W        W41544   9.816   3.226   3.979  0.1733 -0.1014 -0.3771
41345W        W41545  15.456   2.271  15.199  0.1682  0.0418  0.0385
41346W        W41546  17.261   0.379  12.555 -0.2708  0.0918  0.0708
41347W        W41547  16.269   1.304  14.578 -0.4202  0.1124  0.0757
41348W        W41548  11.068  17.694  14.828  0.0818  0.3515  0.2785
41349W        W41549   9.396  15.543  16.644  0.2057 -0.0723 -0.4973
41350W        W41550   9.967  16.494   0.595 -0.0003  0.1621 -0.0403
41351W        W41551  11.297   0.743   8.359  0.1271 -0.2067 -0.4371
41352W        W41552   1.513   8.048   8.778 -0.0330 -0.3180  0.0568
41353W        W41553  12.659  12.215  10.336 -0.2373  0.0871 -0.3659
41354W        W41554  10.808   0.151  15.765 -0.2784 -0.4654 -0.1509
41355W        W41555  12.745  16.027   7.599 -0.2971  0.2175  0.2224
41356W        W41556  11.960  13.532   1.596 -0.0031 -0.0078  0.2900
41357W        W41557   6.834   1.364  14.792  0.1101 -0.0726 -0.1602
41358W        W41558   0.029   5.952   2.060  0.0720 -0.2389 -0.1107
41359W        W41559  14.137   1.198   0.211 -0.1785 -0.1678  0.2338
41360W        W41560   0.937   1.077  13.948 -0.0802 -0.0359  0.1625
41361W        W41561   8.047  18.104  13.331  0.2448  0.3667 -0.1493
41362W        W41562  11.266   6.326  13.789  0.2406  0.3172 -0.1057
41363W        W41563  11.641   0.063  14.305  0.3508  0.0992  0.0053
41364W        W41564  10.042  17.329  11.259 -0.0710  0.4615  0.1699
41365W        W41565   9.922   5.200  12.585  0.0602  0.0743  0.2859
41366W        W41566  15.225   1.904  13.158  0.2875  0.1143  0.0181
41367W        W41567   0.120   7.830  12.276  0.0666 -0.0517  0.3953
41368W        W41568   9.900   8.241  11.871 -0.0187 -0.1842  0.3066
41369W        W41569  12.476   1.924  10.334  0.3135 -0.2873  0.2289
41370W        W41570  10.390   1.198  11.254 -0.1583 -0.1730 -0.0925
41371W        W41571   0.124   9.336   0.836  0.1843 -0.0721 -0.0786
41372W        W41572   0.217   1.607   0.438 -0.1553  0.1352  0.1460
41373W        W41573  11.531  17.893   7.157 -0.1623  0.0571 -0.0850
41374W        W41574  13.950   4.663   5.360 -0.0012  0.0897  0.1493
41375W        W41575  15.908  11.524  10.265  0.0884 -0.1059  0.3230
41376W        W41576  12.914  16.234  10.218 -0.0764 -0.0111  0.2023
41377W        W41577  12.869  13.279   5.296 -0.0487  0.0356 -0.0530
41378W        W41578  15.446   0.476  13.280  0.1428 -0.3511 -0.2093
41379W        W41579  12.632  12.192   5.998  0.2661 -0.0291 -0.2330
41380W        W41580   1.393   0.957   1.544 -0.1067  0.1727 -0.0113
41381W        W41581  16.331  17.063   9.367 -0.0241  0.0379  0.1696
41382W        W41582  14.984  13.320  17.194  0.1344  0.0410  0.1754
41383W        W41583  13.853   4.839  17.763 -0.2832 -0.2932 -0.0946
41384W        W41584  15.314   6.235   8.374 -0.0334  0.4349  0.1383
41385W        W41585   6.113  17.856  12.411  0.1022  0.0985 -0.1327
41386W        W41586   0.128   7.847   3.780  0.1475 -0.2680  0.2354
41387W        W41587  12.360   3.065  10.691  0.2531  0.2343  0.1436
41388W        W41588  10.232  15.633  15.663  0.1801  0.1551  0.1365
41389W        W41589  12.253  17.446   3.318 -0.0722 -0.2380 -0.2571
41390W        W41590  14.934   1.898   6.528 -0.1981 -0.1772  0.1138
41391W        W41591   0.223  13.806   3.978 -0.3580 -0.0139  0.0948
41392W        W41592  16.347  15.218   9.384  0.1294 -0.5767  0.0200
41393W        W41593  16.213  16.881  16.247 -0.1961  0.0025  0.1795
41394W        W41594   0.873  16.334  11.474 -0.0858  0.2233  0.0206
41395W        W41595   5.108   9.483   1.188 -0.1949  0.0336  0.2182
41396W        W41596   8.452   4.206   9.157  0.2312 -0.2542  0.1191
41397W        W41597   6.390   6.394  15.206 -0.0578 -0.3381 -0.1365
41398W        W41598  15.985   4.105   3.987 -0.0359 -0.0788 -0.3790
41399W        W41599  17.166   3.155  11.679  0.1108  0.0349 -0.1417
41400W        W41600   2.347  12.179   9.959 -0.2379 -0.0529 -0.0539
41401W        W41601  16.954   4.547  15.322 -0.0001  0.1382 -0.2690
41402W        W41602  10.673  11.769   9.669 -0.0167  0.1401 -0.1983
41403W        W41603  11.595   0.577  14.354  0.0512  0.2627  0.0233
41404W        W41604  16.640   6.499  13.179 -0.2107 -0.1676  0.1033
41405W        W41605  18.013   3.744   0.036 -0.0505  0.1830  0.1663
41406W        W41606   7.878  11.131  15.699 -0.2236  0.0250  0.2684
41407W        W41607  16.741   3.216  15.981  0.3897 -0.0421 -0.1833
41408W        W41608   1.844  14.719   1.682  0.0692 -0.0393 -0.2475
41409W        W41609  10.036   5.264  13.048 -0.0913  0.0233 -0.3746
41410W        W41610  15.102  14.481  11.096  0.1979  0.1367  0.0591
41411W        W41611   0.045   3.409  12.959 -0.2043  0.1842 -0.3055
41412W        W41612  13.786  17.989  16.006 -0.2564 -0.2993  0.3769
41413W        W41613  14.769  14.262   0.563 -0.0505  0.3053 -0.1298
41414W        W41614  18.035  15.031  14.347  0.0064 -0.2436  0.1571
41415W        W41615   4.102   8.763  16.532 -0.1820  0.0904 -0.2058
41416W        W41616  12.720  17.974   6.379  0.0432 -0.0157 -0.2232
41417W        W41617  17.237   0.481  13.070 -0.0670 -0.1600  0.3182
41418W        W41618   3.164  16.167   8.607  0.0249  0.0671  0.0670
41419W        W41619  15.104   0.404   1.696 -0.1511 -0.1168 -0.1321
41420W        W41620   9.542   1.734   7.137  0.1974  0.2474  0.1896
41421W        W41621  16.993  17.966   1.310  0.0835  0.1948  0.0185
41422W        W41622   2.839   6.360  10.444 -0.0490 -0.1515 -0.1601
41423W        W41623   4.709   1.239  12.710  0.0704 -0.1675 -0.2955
41424W        W41624   4.707   4.318   5.381  0.2461 -0.1192 -0.1040
41425W        W41625  13.367  16.765  15.899  0.1843  0.0600  0.2250
41426W        W41626  10.458   9.040   9.385 -0.0663  0.2949  0.2930
41427W        W41627  13.832   4.623  14.295 -0.1515  0.0013  0.1099
41428W        W41628   1.994   0.319  10.513  0.1758 -0.2378 -0.0591
41429W        W41629   9.522  17.413  15.337 -0.0150 -0.0023 -0.1390
41430W        W41630   9.380   2.745  15.329 -0.1577  0.0772  0.0242
41431W        W41631  14.281   9.234  13.022 -0.0190 -0.2444  0.2470
41432W        W41632   1.800  17.213  15.919  0.0949  0.1269  0.0904
41433W        W41633   4.818  15.899  17.727  0.1958 -0.0404 -0.2009
41434W        W41634   5.287   5.992   8.752 -0.3567 -0.1146 -0.0680
41435W        W41635   0.968   2.129   8.684 -0.0676 -0.0626  0.0488
41436W        W41636   9.243  16.406  13.410  0.0920 -0.1741  0.3568
41437W        W41637  14.913   5.424   2.295 -0.2032 -0.2899 -0.0298
41438W        W41638  15.678  17.942  11.724  0.0293 -0.1754 -0.1587
41439W        W41639  15.691   4.842   0.819  0.0779  0.1681  0.1556
41440W        W41640  17.299   6.644  15.650 -0.2600 -0.0664  0.0182
41441W        W41641   0.253  16.055  14.238 -0.2360 -0.0758 -0.0794
41442W        W41642   6.332  15.774  17.972 -0.0696 -0.1163 -0.3179
41443W        W41643  12.003   8.097  12.030 -0.0159  0.1508  0.1520
41444W        W41644   3.704  15.106  10.303 -0.1658 -0.5357  0.1009
41445W        W41645  10.693  15.274   0.213  0.1805  0.3737  0.0693
41446W        W41646  11.781   5.786  17.141 -0.2492  0.0812  0.3851
41447W        W41647  14.244   7.638  15.840  0.0275  0.1433  0.0638
41448W        W41648  16.143  16.216  17.113  0.2011 -0.0132 -0.3949
41449W        W41649  14.328   2.634  10.246  0.2007 -0.0362  0.0251
41450W        W41650   3.397  15.598  11.204  0.3774  0.0891  0.2681
41451W        W41651   7.844   6.261   7.931  0.0429 -0.1618 -0.3858
41452W        W41652  10.655  15.851  14.996 -0.2417  0.1205  0.1108
41453W        W41653   5.825   2.576  17.353  0.1192  0.2388  0.3225
41454W        W41654  10.584   4.581  13.047  0.2344 -0.0691 -0.1458
41455W        W41655  10.759   0.460   0.169  0.0985  0.0976  0.1818
41456W        W41656  10.598   2.603   2.518  0.0207 -0.3602  0.2228
41457W        W41657  11.276   1.656  13.938  0.0637  0.2017 -0.0657
41458W        W41658  12.703   2.534  13.586 -0.3252 -0.2485  0.1381
41459W        W41659   7.836  15.761  13.645  0.1666 -0.1964 -0.1207
41460W        W41660  11.710   5.828  13.892  0.2406 -0.1630 -0.1607
41461W        W41661  10.818  12.739  17.978  0.0837  0.3315  0.0935
41462W        W41662   9.830  18.010  16.796 -0.0308  0.0289 -0.1561
41463W        W41663   3.512   3.913   1.630 -0.2975  0.3030 -0.0111
41464W        W41664   2.264   7.963  12.317  0.1429  0.1077  0.3619
41465W        W41665   9.432   8.861  14.818  0.1037 -0.0067  0.0795
41466W        W41666   3.720   4.365   6.766 -0.0838 -0.0190 -0.1380
41467W        W41667  17.786   1.504  11.312  0.0448 -0.1166  0.0176
41468W        W41668   2.056  16.730   1.179  0.3884  0.0598  0.2157
41469W        W41669   2.444  13.059   1.241 -0.1146 -0.0430  0.0910
41470W        W41670  13.159   2.195   9.618  0.0515 -0.3092  0.0295
41471W        W41671  16.904  17.267  14.579 -0.2554  0.0742  0.0736
41472W        W41672  11.529   0.221  13.048  0.1061  0.0351  0.0297
41473W        W41673  10.841   2.706  16.434  0.3539  0.1541 -0.0358
41474W        W41674   6.242   3.670  15.691  0.1415 -0.1551  0.0541
41475W        W41675   3.210   2.048   0.752  0.3198 -0.1904 -0.2290
41476W        W41676  12.324  17.847  10.780  0.0326 -0.2775 -0.1427
41477W        W41677  10.640   0.629   1.659  0.1735  0.1412 -0.2516
41478W        W41678  16.998   1.642  11.404 -0.0593  0.0320 -0.2477
41479W        W41679  11.431   3.529  11.273 -0.2719  0.2091  0.2839
41480W        W41680   3.053   1.726  17.009  0.0228  0.2706  0.0874
41481W        W41681  16.057   6.216  13.723  0.1126  0.3753 -0.1920
41482W        W41682  16.329   3.238  11.853  0.0222 -0.0239 -0.1376
41483W        W41683   3.259  17.741  16.006 -0.1300 -0.3683 -0.0064
41484W        W41684  15.577   3.680  13.696 -0.0416  0.3867 -0.1312
41485W        W41685  16.580   3.335  16.621  0.2867 -0.1362 -0.2260
41486W        W41686  12.741   4.466  13.485 -0.0240  0.1757 -0.0092
41487W        W41687   1.833   0.911   1.919  0.1763  0.4850 -0.1007
41488W        W41688   7.988  15.166  12.165  0.0349 -0.1079  0.0806
41489W        W41689   3.675   2.889   4.146  0.1789 -0.5974  0.2565
41490W        W41690   1.342   5.639   9.496 -0.0397  0.3624 -0.2927
41491W        W41691   8.313  14.985  15.229 -0.0460 -0.2993  0.2163
41492W        W41692  11.603   2.934  11.369 -0.2622  0.1648  0.1908
41493W        W41693   1.989   3.982  12.163  0.0687 -0.0772 -0.0023
41494W        W41694  13.540   6.195   7.146 -0.1989  0.3482 -0.2975
41495W        W41695   3.898  15.844  14.540 -0.0604 -0.1271  0.2404
41496W        W41696   8.593   0.859  11.330 -0.1046  0.0243 -0.0190
41497W        W41697  13.928   4.377   8.289 -0.2386  0.0858  0.1416
41498W        W41698  16.077  17.646   9.434 -0.0012 -0.2505  0.1504
41499W        W41699  13.330   3.718  18.053 -0.0268 -0.0422 -0.3214
41500W        W41700   6.836  17.651   1.433 -0.1563  0.2009  0.3696
41501W        W41701   7.989  16.539  17.365 -0.1413  0.2957 -0.0678
41502W        W41702   5.732  14.919  10.747  0.2861 -0.1189 -0.2546
41503W        W41703  12.030  10.779   8.731  0.1317  0.2073  0.1167
41504W        W41704   5.174   2.117  10.825  0.1465  0.1935 -0.1494
41505W        W41705   1.295   1.737  10.667  0.0268  0.0821  0.1723
41506W        W41706  11.397  16.049  16.959  0.0310  0.0808 -0.0155
41507W        W41707   6.240   2.615   5.355 -0.1211  0.0666 -0.1529
41508W        W41708  15.942   9.082   4.751  0.0492 -0.1276 -0.2574
41509W        W41709  18.174   0.615  14.813  0.2524 -0.3909  0.2959
41510W        W41710  14.899   6.671  15.101  0.1576  0.0784 -0.0454
41511W        W41711  13.366  16.324   9.901  0.0059 -0.0945 -0.1804
41512W        W41712  15.105  16.599  13.983  0.2113  0.1994  0.0758
41513W        W41713  18.051   6.166   9.685 -0.0014 -0.0700 -0.2010
41514W        W41714   1.480   2.879  16.623 -0.3668  0.1329 -0.3534
41515W        W41715  15.960  13.347   4.268  0.1029  0.2988 -0.3550
41516W        W41716  14.467  12.406   2.530  0.0270  0.0831  0.0416
41517W        W41717   0.869  13.105   9.934  0.1864 -0.1331 -0.1193
41518W        W41718   0.714   2.867   1.489  0.1732 -0.1017 -0.3064
41519W        W41719  16.986   0.385  15.558  0.1712  0.5933  0.0785
41520W        W41720  17.798   1.979  13.172 -0.4758 -0.1615 -0.1237
41521W        W41721   0.826  16.213  13.231 -0.1185  0.0449  0.3423
41522W        W41722   9.665  13.034   8.186  0.3481  0.2126 -0.0805
41523W        W41723  13.077  13.055  14.235 -0.0128 -0.1190 -0.2812
41524W        W41724   2.429   3.831  11.722 -0.1927  0.1097  0.1582
41525W        W41725  14.348  10.291   0.610 -0.2196  0.2436 -0.0745
41526W        W41726   5.504  17.090  17.343 -0.0098 -0.0981 -0.2141
41527W        W41727   6.036  17.768  14.255 -0.2048  0.0379  0.3673
41528W        W41728  12.831   2.330   0.927  0.0663  0.1233 -0.0487
41529W        W41729   0.445   5.891  14.631 -0.1572 -0.0630  0.0743
41530W        W41730   2.738   3.446  17.856 -0.0985  0.1177  0.1247
41531W        W41731   4.604   3.885  12.327 -0.0609 -0.0513  0.0056
41532W        W41732   2.294   3.312   8.944  0.3387  0.0679 -0.2920
41533W        W41733  10.088   0.957  10.312  0.0104  0.0568  0.1194
41534W        W41734   6.610   6.057   8.892 -0.0028 -0.1447 -0.2472
41535W        W41735  15.032   8.788   3.790  0.2453 -0.1232 -0.0980
41536W        W41736  14.618   8.184  12.597  0.0276 -0.3937  0.1535
41537W        W41737   5.953  16.286  14.206  0.0532  0.1880  0.2461
41538W        W41738  17.562   7.823  12.062 -0.0903 -0.2339  0.4780
41539W        W41739   1.353   1.090  13.677  0.0623  0.0275  0.0727
41540W        W41740  15.214   1.830  12.628  0.0051  0.1741 -0.2093
41541W        W41741   1.832   2.059   0.086  0.0797  0.1824  0.0966
41542W        W41742   6.751   9.549  13.017  0.2417  0.0548 -0.0981
41543W        W41743  11.722   6.486  10.568  0.1884 -0.2916  0.2660
41544W        W41744  13.872  12.684  16.006  0.1968 -0.1010 -0.2828
41545W        W41745   8.918   5.224  15.998  0.1428  0.2358  0.0503
41546W        W41746  17.375   7.476   3.882  0.3056 -0.1722  0.0076
41547W        W41747  16.909  16.611  16.686 -0.0236  0.0011  0.1595
41548W        W41748  11.461   2.855  14.778 -0.0859 -0.1350 -0.0127
41549W        W41749   4.501   3.167  11.724 -0.0125  0.1188  0.1083
41550W        W41750   0.137   8.563  16.900 -0.2263  0.4314 -0.3531
41551W        W41751  15.038   3.680   9.577 -0.0704 -0.2779  0.2020
41552W        W41752  17.400   0.708  15.503  0.0118  0.2821  0.1668
41553W        W41753  16.063  13.743   2.651 -0.0222 -0.0507 -0.1811
41554W        W41754   5.584  16.303  17.666  0.0796 -0.0666  0.2766
41555W        W41755   8.965   3.245   7.432  0.0453 -0.0025  0.1708
41556W        W41756  15.717   4.858   8.533  0.0678 -0.1745 -0.1560
41557W        W41757  18.060  11.582  17.541 -0.1081 -0.3960  0.2797
41558W        W41758   1.541   3.309  14.804 -0.1161 -0.4101 -0.0873
41559W        W41759  16.037  13.717  15.220  0.0019 -0.2469 -0.0204
41560W        W41760  17.731   1.053   6.726  0.1355 -0.3974  0.2560
41561W        W41761   0.114   5.239   7.891 -0.0969  0.0638 -0.2190
41562W        W41762  12.315  14.866  15.120  0.1138  0.2057  0.2111
41563W        W41763   4.358  16.578   9.431 -0.1092 -0.2831 -0.3579
41564W        W41764  17.729  12.122   9.640  0.3114  0.2213 -0.2399
41565W        W41765   4.714   1.990  17.296 -0.1346 -0.1577 -0.1397
41566W        W41766   1.775  17.951  11.417 -0.0067  0.0853  0.1083
41567W        W41767   9.073   4.933   7.911  0.0656 -0.3913  0.0630
41568W        W41768   4.275   2.977  14.437 -0.2174  0.0511 -0.0717
41569W        W41769  18.070   4.525  13.114  0.0702 -0.0033  0.2707
41570W        W41770  13.447   3.312  13.444 -0.1239 -0.1788  0.1482
41571W        W41771   2.567  10.124   9.488  0.2272 -0.0400  0.0498
41572W        W41772   7.521   7.193   8.062 -0.0087  0.2567  0.0369
41573W        W41773  13.843   2.611  10.467  0.1322 -0.1296 -0.0419
41574W        W41774   6.357   4.859  17.560 -0.0239 -0.2223 -0.0279
41575W        W41775  11.430  17.176   0.731 -0.1299  0.0056  0.1340
41576W        W41776  15.600  17.848  10.115 -0.2389 -0.1939  0.0394
41577W        W41777   4.375   6.487  13.251 -0.1792  0.2849 -0.0807
41578W        W41778  12.873   9.133   8.274  0.1602 -0.2324  0.1171
41579W        W41779  10.365  12.573  18.023 -0.0286  0.1244 -0.1168
41580W        W41780  14.952   1.306  14.319 -0.2603 -0.1133  0.1582
41581W        W41781  16.901   0.273   7.810 -0.1148 -0.0810 -0.0640
41582W        W41782  11.446  18.161  10.756 -0.3745  0.0850 -0.2859
41583W        W41783  16.271   9.395   2.460  0.1458  0.1240  0.0095
41584W        W41784  12.679   1.593  13.286 -0.3493  0.2602  0.1402
41585W        W41785   9.741  15.822  11.929 -0.0312  0.1154  0.1480
41586W        W41786  14.054  13.614   6.269 -0.4021  0.1724 -0.2370
41587W        W41787   2.191   6.011  14.234 -0.1979 -0.1030  0.0251
41588W        W41788  15.647   7.713  12.208  0.3600 -0.0849  0.3953
41589W        W41789   2.731   7.038   3.693  0.0099  0.0490 -0.2460
41590W        W41790  12.123   4.475   9.637 -0.0183  0.0016  0.0382
41591W        W41791  17.392   1.507  18.170  0.0953 -0.1268 -0.1067
41592W        W41792   0.438   7.050   6.991  0.0114 -0.1250  0.1611
41593W        W41793  15.828   1.219   9.653 -0.3368  0.2259 -0.0118
41594W        W41794  14.111   5.031   7.661  0.3348 -0.1853 -0.0455
41595W        W41795  13.146   0.864  15.676  0.0286 -0.1469 -0.1235
41596W        W41796   6.762   0.597   4.042 -0.0478  0.0913  0.0852
41597W        W41797   2.219   0.183  16.710 -0.1484 -0.0261 -0.0665
41598W        W41798  17.887   0.999  14.440 -0.1618 -0.1886 -0.1134
41599W        W41799   7.102  10.276  14.431 -0.1094  0.0499 -0.0086
41600W        W41800   2.318  14.495  13.187 -0.0202  0.2168 -0.4473
41601W        W41801  15.143  17.797   9.742  0.0423 -0.1602  0.1081
41602W        W41802  14.620   1.358  13.701 -0.0385 -0.1778  0.1099
41603W        W41803  14.737   6.843   4.145 -0.1248 -0.0369 -0.1804
41604W        W41804  11.717   7.576  15.832 -0.0087  0.1639 -0.1507
41605W        W41805  12.883   9.243   2.904 -0.2662  0.0968  0.2415
41606W        W41806  17.669   4.804  17.717 -0.2222  0.1247 -0.0953
41607W        W41807   5.191  17.957  15.398 -0.1906 -0.1363 -0.3258
41608W        W41808  15.401   2.963   4.717 -0.2282 -0.0373  0.0483
41609W        W41809   0.995  15.346   2.563 -0.0670 -0.2385 -0.2780
41610W        W41810  11.587   1.286   1.629  0.0383  0.0038 -0.0402
41611W        W41811   2.797   4.142  17.411 -0.0363  0.2035  0.1668
41612W        W41812  16.891   3.048   3.455 -0.2486 -0.1018  0.3287
41613W        W41813   5.555  15.930   0.537 -0.1883  0.1041  0.2594
41614W        W41814  17.223  17.748   7.367  0.0101 -0.0694 -0.2661
41615W        W41815  14.288   3.300  15.403 -0.1707 -0.2351 -0.1039
41616W        W41816   2.464  14.074   1.524  0.0126  0.2445  0.2822
41617W        W41817   9.759  12.961  16.016  0.0512  0.0438  0.0988
41618W        W41818  13.146  14.839  16.869 -0.1998 -0.1193  0.0840
41619W        W41819  11.055  14.373   2.857  0.1509 -0.1439 -0.1031
41620W        W41820   3.456   2.382   4.859  0.2750  0.0144  0.1267
41621W        W41821   7.912  10.633   2.311 -0.2333  0.1676 -0.3896
41622W        W41822   7.966  14.452  13.077 -0.4156 -0.0480  0.1797
41623W        W41823   0.968  15.238  11.560  0.2196  0.3507 -0.0033
41624W        W41824  12.943  15.940   6.975  0.2048  0.0703  0.0131
41625W        W41825  14.519   5.675  12.646  0.0493 -0.0509  0.0694
41626W        W41826   1.515   7.682  17.537 -0.0632  0.2891 -0.2811
41627W        W41827   0.492  17.102  17.746  0.2277  0.0520  0.0420
41628W        W41828  12.440  16.745  13.973 -0.2096 -0.2692  0.0343
41629W        W41829  14.783   5.974   0.975  0.0902  0.1025 -0.5118
41630W        W41830  16.480   4.752   3.794  0.2082 -0.1025  0.0278
41631W        W41831   0.891   6.964  12.294 -0.1076  0.3495  0.0406
41632W        W41832  13.723   3.542   0.733 -0.3158 -0.1441 -0.0401
41633W        W41833   6.605  17.293  15.508 -0.2022  0.0361  0.2990
41634W        W41834  15.396  10.093  12.875 -0.1245 -0.1320  0.0213
41635W        W41835  15.166   0.213  16.289  0.0202 -0.0277  0.2663
41636W        W41836   0.934  15.334  16.708 -0.1625 -0.3309 -0.1035
41637W        W41837   6.991   6.868   0.490  0.0002 -0.2375 -0.0891
41638W        W41838  16.680  11.754   4.162 -0.0431 -0.1118 -0.3735
41639W        W41839   8.695   1.221  14.289 -0.0711  0.5299 -0.2615
41640W        W41840   1.571   1.381   2.667  0.2931  0.4755 -0.2225
41641W        W41841   8.868   1.038  12.230  0.0507 -0.3051  0.3634
41642W        W41842   0.904   2.071  13.591 -0.1773  0.1580 -0.2764
41643W        W41843  12.647   2.386  15.839  0.0879  0.3242  0.0071
41644W        W41844  12.979  12.744   0.856 -0.2328 -0.0153  0.0593
41645W        W41845   7.381   1.446  13.383 -0.0153  0.0806  0.2018
41646W        W41846   4.778  17.069   3.381 -0.0181 -0.1968  0.1357
41647W        W41847  14.435  15.602  16.214  0.1413 -0.3515 -0.1204
41648W        W41848  17.704   0.500  14.999 -0.1027 -0.0501  0.1846
41649W        W41849   1.990  15.321  12.482  0.1254 -0.2729  0.0658
41650W        W41850  14.417  16.104  11.044  0.0517 -0.0166 -0.0128
41651W        W41851   1.443   1.208  15.842  0.4651 -0.2467 -0.1373
41652W        W41852  12.564   3.766  14.072  0.1981 -0.0876 -0.1595
41653W        W41853  11.494  10.301  15.962  0.0269  0.1814 -0.3090
41654W        W41854   0.361  15.722  15.023  0.0022  0.0003 -0.2011
41655W        W41855  11.999   3.034  16.763  0.0461 -0.1178 -0.1042
41656W        W41856  16.403   1.078   5.216 -0.1404  0.2568 -0.2169
41657W        W41857   6.674   0.398   3.439  0.0164 -0.4351  0.1165
41658W        W41858  14.338   9.679  14.921  0.2684 -0.0488 -0.1664
41659W        W41859   1.972   8.774   5.694 -0.0363  0.1668  0.0552
41660W        W41860   9.977  14.071   2.458 -0.1118 -0.0236 -0.0907
41661W        W41861   1.398   5.049   9.474 -0.1201 -0.2202  0.1258
41662W        W41862  13.242   0.422  10.090  0.0615  0.2577 -0.2328
41663W        W41863  15.330  17.908   6.737 -0.0148 -0.0231 -0.0876
41664W        W41864  13.764   1.536   2.116 -0.1827 -0.1170 -0.0637
41665W        W41865  14.456   9.246   0.503 -0.1987 -0.1578 -0.0292
41666W        W41866  12.321   0.932   0.867  0.0750  0.0474 -0.1871
41667W        W41867   1.686  15.784  12.416 -0.0551  0.1424  0.0967
41668W        W41868  16.607  14.891  12.459  0.1305 -0.0072 -0.0676
41669W        W41869  15.337   8.370  18.118 -0.1288  0.0008 -0.0042
41670W        W41870  14.758   2.371   7.356  0.1790  0.2668  0.0967
41671W        W41871  13.700   2.166   9.745  0.0907  0.4550 -0.0730
41672W        W41872  13.669   0.384  16.106  0.1744  0.0444 -0.1803
41673W        W41873   4.534   2.703  15.313  0.0772  0.2922 -0.0398
41674W        W41874   5.438  15.990   6.964  0.2143  0.1557 -0.0939
41675W        W41875  13.667   6.864  16.794  0.0868  0.0933 -0.0836
41676W        W41876  15.389  16.355  15.062  0.3625  0.1308  0.1192
41677W        W41877  16.388  11.526  17.971 -0.2278  0.4077  0.0293
41678W        W41878   4.659  18.078  17.824  0.1350  0.3372 -0.0413
41679W        W41879   6.574   3.085   4.191 -0.2014 -0.1972  0.0656
41680W        W41880  12.466   0.384  15.450  0.1585 -0.2959  0.0385
41681W        W41881  16.526  10.477  18.003  0.2640  0.0073  0.0165
41682W        W41882  13.054   3.767  14.180 -0.5941  0.1504 -0.0851
41683W        W41883  15.146   1.368  15.980  0.0493  0.1361  0.1169
41684W        W41884  11.585  17.100   7.934  0.0322 -0.2336 -0.3466
41685W        W41885  16.846   0.710  12.861  0.2448  0.4547 -0.2145
41686W        W41886   8.226  15.719   1.974 -0.0632 -0.1941 -0.0426
41687W        W41887   9.854   4.186  13.334 -0.2809  0.5887 -0.0990
41688W        W41888  16.463  17.104  11.880  0.0755 -0.1349 -0.0235
41689W        W41889  14.347   2.507  17.238 -0.0164 -0.1423  0.1951
41690W        W41890   4.770   5.511  15.208 -0.2961 -0.1876 -0.3134
41691W        W41891  15.847   0.183  17.021 -0.1211  0.2043 -0.1651
41692W        W41892   0.094  13.570   1.273 -0.1229  0.3065 -0.1948
41693W        W41893  15.912   9.256  12.110  0.2201  0.0264  0.0428
41694W        W41894   7.221   0.230  16.611 -0.1449 -0.1368 -0.0982
41695W        W41895  10.921   1.725  17.314 -0.1731 -0.2329 -0.0662
41696W        W41896   9.253  17.322  14.357  0.1559 -0.1133  0.1679
41697W        W41897  18.030   7.705   2.361  0.0315 -0.0117 -0.1467
41698W        W41898  15.268   2.291  17.011  0.0714 -0.4898  0.0946
41699W        W41899  11.986   5.016  17.038 -0.0754  0.0289  0.5771
41700W        W41900   2.993   5.252   3.271 -0.0713 -0.0772 -0.1534
41701W        W41901   4.199  13.857   0.744 -0.2153 -0.1596 -0.0144
41702W        W41902  16.353  12.487   1.864  0.2962  0.1488  0.3649
41703W        W41903  13.842  17.747   4.539  0.0686  0.3139  0.1110
41704W        W41904   9.967   5.848   6.258 -0.2786 -0.1299 -0.0785
41705W        W41905  13.232   9.578   6.652 -0.2639  0.2550 -0.3467
41706W        W41906   3.139  15.310  10.833  0.1616  0.2146  0.0108
41707W        W41907   9.472   4.760  17.646  0.0872  0.1222  0.1342
41708W        W41908   3.283   1.263   3.192  0.2792  0.3618  0.0190
41709W        W41909  16.640   5.262   0.319 -0.3442  0.1743 -0.3352
41710W        W41910   4.082  12.646  16.555  0.1684 -0.1682  0.1396
41711W        W41911  17.066  13.661   0.893 -0.0746  0.3728 -0.1538
41712W        W41912   1.091   8.136  14.816  0.0515  0.0423 -0.2473
41713W        W41913  12.844   1.841   9.976  0.1054 -0.0320  0.0032
41714W        W41914  16.757   5.372   2.563 -0.2138  0.1276 -0.0910
41715W        W41915  12.343  14.407   0.525  0.1595 -0.3570 -0.0467
41716W        W41916  15.329   3.414  14.597  0.0954 -0.0418  0.1927
41717W        W41917  15.765  12.740  14.165  0.1967 -0.0160  0.0501
41718W        W41918  17.160   2.906   1.773  0.2992 -0.1794  0.3027
41719W        W41919  13.701   1.345  10.393 -0.2292 -0.0519 -0.3481
41720W        W41920   8.232   1.149  17.252  0.2005  0.2918 -0.0424
41721W        W41921   5.774   8.319   3.199  0.1327  0.2253 -0.0470
41722W        W41922  16.318   1.347  13.962 -0.1738 -0.0905 -0.0738
41723W        W41923  17.114  17.117   3.359  0.0771 -0.0085  0.2627
41724W        W41924   1.662  13.712   9.175  0.0060 -0.2707 -0.3611
41725W        W41925   5.437  12.471   2.227 -0.0280  0.0900  0.4100
41726W        W41926   1.043   7.931  16.915 -0.2818 -0.1882 -0.1126
41727W        W41927   2.735   3.690  15.701  0.0808  0.0930 -0.2234
41728W        W41928  15.183  17.739  12.962 -0.0649 -0.2417  0.0332
41729W        W41929   3.681   0.173   6.913 -0.0246 -0.0741 -0.0903
41730W        W41930  17.264   5.683   6.281 -0.0025  0.1827  0.1478
41731W        W41931   6.540  16.224  17.914 -0.0519  0.1494  0.3956
41732W        W41932   1.511   9.555  10.940  0.0820 -0.2147  0.0754
41733W        W41933  12.460   4.274  16.561 -0.2513 -0.0081  0.1188
41734W        W41934   3.410   7.803  16.144  0.1922  0.2728 -0.1772
41735W        W41935   0.722  17.061   0.464 -0.1045 -0.1622  0.0376
41736W        W41936   5.605   3.420   3.843  0.1050 -0.0567 -0.3836
41737W        W41937  15.387   0.358   3.299 -0.0990 -0.0266  0.0234
41738W        W41938  11.532   1.140  16.904  0.0884  0.0457  0.1114
41739W        W41939   1.270  17.815  11.880  0.2628  0.2318 -0.1231
41740W        W41940  14.403   0.969  13.186  0.2589 -0.3199 -0.1603
41741W        W41941   0.350   8.347   2.625  0.1863  0.3030 -0.1666
41742W        W41942  12.605   5.741   2.115  0.0197  0.2116 -0.1552
41743W        W41943   1.255   1.270   3.131  0.1145  0.1096 -0.1623
41744W        W41944  16.860   3.331  12.961 -0.2191  0.0469 -0.0570
41745W        W41945   4.866   6.718  13.323 -0.1885  0.2165 -0.1192
41746W        W41946  14.610   6.124   0.030 -0.2602  0.0285  0.1585
41747W        W41947  15.100   4.840   2.307 -0.0971 -0.0557 -0.4820
41748W        W41948   3.794  15.120   1.222  0.3384  0.0601 -0.2097
41749W        W41949  11.069   1.843  14.358 -0.2006 -0.0911 -0.1258
41750W        W41950  10.893   6.157  12.757  0.1475  0.1008 -0.0772
41751W        W41951  16.827  14.599  11.334  0.1249  0.1165  0.2856
41752W        W41952  13.376   0.752  17.985  0.4418 -0.0280 -0.0004
41753W        W41953   5.326   1.145  17.422  0.3949  0.0165  0.0872
41754W        W41954  17.938  16.612   2.043 -0.0911 -0.0149 -0.1848
41755W        W41955   7.751  15.068   4.066  0.3187 -0.3133 -0.0463
41756W        W41956  11.825   5.418   2.472  0.1352  0.0272  0.0026
41757W        W41957   0.531  14.918  14.746 -0.0051 -0.0501  0.4246
41758W        W41958  17.272  17.255  17.736  0.0597 -0.1134  0.3338
41759W        W41959  17.657   1.163  12.509 -0.1584  0.1294 -0.0209
41760W        W41960   7.361  16.742  12.793  0.3720 -0.1866  0.4504
41761W        W41961  15.050   7.973   1.153 -0.0040 -0.2471 -0.1783
41762W        W41962  16.163   2.857   0.272  0.1900  0.1442 -0.1645
41763W        W41963  15.610   3.854  14.262  0.1726  0.1675  0.3645
41764W        W41964   1.966   4.501  17.645 -0.0426  0.1822 -0.1075
41765W        W41965  15.972   9.868   7.869 -0.0527 -0.2543 -0.0351
41766W        W41966  15.821  17.077  18.039  0.1319  0.0048  0.0872
41767W        W41967   4.183  10.378  14.945  0.1638 -0.1198  0.0353
41768W        W41968  11.717   3.214  13.982  0.0565 -0.1202  0.0014
41769W        W41969  10.888  16.993   2.834  0.0057 -0.1780 -0.1770
41770W        W41970  16.737   5.502   1.109  0.2896  0.1072  0.2976
41771W        W41971  16.846  10.030  16.900 -0.0272  0.2760  0.0112
41772W        W41972  10.760  10.585  12.054  0.0317 -0.2631  0.0979
41773W        W41973   1.099   1.798  15.492 -0.2142 -0.0113 -0.1055
41774W        W41974   3.780   5.298  15.013 -0.1595  0.1526  0.3302
41775W        W41975   5.996   0.616  12.750  0.2609  0.2262 -0.4393
41776W        W41976  17.343  14.948   0.636 -0.2913  0.1752  0.4211
41777W        W41977   8.073  12.994  12.595  0.2818 -0.1080 -0.0058
41778W        W41978   8.722   5.382   0.193  0.1228  0.1692  0.2626
41779W        W41979  12.566  13.808   0.822  0.0395  0.2142 -0.1083
41780W        W41980   2.143  16.429  11.868 -0.3507 -0.2256  0.1401
41781W        W41981  15.410  16.818   1.380 -0.2209  0.1784 -0.1643
41782W        W41982   2.805   1.060   3.018  0.0305  0.1408  0.2540
41783W        W41983  15.631  17.672   1.662 -0.0690 -0.1456 -0.0683
41784W        W41984   8.886   4.908  16.837 -0.1389 -0.0249 -0.1793
41785W        W41985  10.823   2.498  17.720  0.2145 -0.1720  0.2142
41786W        W41986   1.676  14.512  17.922 -0.0855 -0.0607 -0.1884
41787W        W41987   0.949   0.155   0.805 -0.1873 -0.0611 -0.0410
41788W        W41988   5.924   2.637   1.554  0.1889  0.0456  0.0943
41789W        W41989   1.338   2.988  11.298  0.0495 -0.0283  0.1101
41790W        W41990  15.877  17.211   9.214 -0.3516 -0.3100 -0.1090
41791W        W41991   4.256  10.740  15.258 -0.1757 -0.2881  0.1435
41792W        W41992   6.047   1.522  14.591  0.1083 -0.3888  0.3717
41793W        W41993  16.955   0.229  13.807 -0.2952  0.0682  0.1379
41794W        W41994   8.793   5.403   5.232  0.2399  0.1156  0.1058
41795W        W41995   1.640   2.756   1.720 -0.0319 -0.1640 -0.0765
41796W        W41996  14.934   4.806   2.828  0.0559  0.3066 -0.1911
41797W        W41997  13.166  16.539  17.646  0.0887 -0.0340 -0.1054
41798W        W41998   1.450  17.095   5.269 -0.0058  0.1264  0.0498
41799W        W41999   9.814   2.190   0.498 -0.1466 -0.0949  0.0122
41800W        W42000  13.344   2.798  16.056  0.2070  0.0580  0.3672
41801W        W42001   4.939   2.048   7.199  0.0880 -0.3184 -0.0934
41802W        W42002   7.579   0.412   0.463 -0.0146 -0.0920 -0.3156
41803W        W42003  11.654  14.690  14.513  0.2297  0.2948 -0.0857
41804W        W42004  16.330   0.322  11.816  0.0146 -0.0813  0.0199
41805W        W42005   0.648  14.407   2.098  0.0737 -0.2406 -0.0754
41806W        W42006  17.033   5.002  15.070 -0.0281 -0.1237 -0.1231
41807W        W42007  15.656   3.410  13.285 -0.0246  0.3014  0.0186
41808W        W42008   5.711   6.884   2.739  0.1203 -0.0607 -0.1053
41809W        W42009  15.384   5.707  10.069 -0.0345  0.0452 -0.2000
41810W        W42010   7.930   9.206  13.827  0.1389  0.3573 -0.1262
41811W        W42011  10.635  16.661  16.612 -0.1144 -0.0465  0.0022
41812W        W42012  17.848   2.673  12.189 -0.1245  0.1215  0.0104
41813W        W42013  10.586   2.975  17.885 -0.1178 -0.2369 -0.1290
41814W        W42014  14.771   1.526  16.600  0.1799  0.0718  0.3245
41815W        W42015  15.804   1.813   2.483  0.3844 -0.0997 -0.0010
41816W        W42016  16.048   2.701   3.535 -0.2013 -0.0827  0.3164
41817W        W42017   6.540   6.354  14.651  0.0806 -0.0954  0.0042
41818W        W42018  14.279  17.997  10.273 -0.3278  0.1380  0.3056
41819W        W42019   1.144   0.648   9.463  0.0079 -0.0427  0.1343
41820W        W42020  10.614   1.916  15.175 -0.1775  0.1925 -0.3550
41821W        W42021   4.444   1.215   0.795 -0.0488  0.3226 -0.2678
41822W        W42022  13.964  13.061  14.340  0.0731 -0.1105 -0.1141
41823W        W42023  11.949  16.970  17.271  0.0077 -0.0967  0.3134
41824W        W42024   4.613  17.653   2.327  0.1417  0.0726  0.0557
41825W        W42025  10.841  17.376  11.734 -0.4456  0.0365 -0.1504
41826W        W42026   1.033   8.132  10.162  0.0600 -0.1210 -0.2080
41827W        W42027  13.856   3.625  13.250 -0.0271  0.0746  0.1628
41828W        W42028   4.315   5.895  18.067  0.0346 -0.0178 -0.0145
41829W        W42029  14.143  17.597  14.982 -0.0747  0.0895 -0.0983
41830W        W42030   0.017   9.959  14.115  0.2010 -0.1414 -0.0628
41831W        W42031   1.058  16.267   2.127  0.1584  0.1135  0.0396
41832W        W42032   6.003   3.878  16.074  0.3330 -0.0555  0.0610
41833W        W42033  16.314  17.573  16.940 -0.1147 -0.2463 -0.0240
41834W        W42034  12.615   3.474   1.729  0.0386 -0.0268  0.3424
41835W        W42035   9.095  13.699   2.617  0.1108 -0.3037  0.0051
41836W        W42036   2.850   7.825   3.323  0.0447  0.0991 -0.1944
41837W        W42037  13.369  12.581  11.488 -0.1674  0.0211  0.3063
41838W        W42038   9.525   0.301   3.844 -0.0729 -0.1668 -0.0215
41839W        W42039  15.946   6.514   3.886 -0.1573  0.0604 -0.0572
41840W        W42040   8.808   1.458  13.753 -0.3258  0.2356  0.2156
41841W        W42041  13.560  13.926  14.959 -0.0611  0.2426 -0.0077
41842W        W42042   2.665   5.210   1.740  0.1389  0.0092 -0.4799
41843W        W42043  18.194   6.945  14.126 -0.2534 -0.0098 -0.0235
41844W        W42044   2.458   1.742  16.336  0.1920 -0.0506  0.0378
41845W        W42045  17.164  16.807  16.249 -0.2634  0.0158  0.2126
41846W        W42046  15.411  17.836   3.899  0.1520 -0.3514 -0.2499
41847W        W42047  17.130   1.265   0.527  0.3360  0.1701  0.5375
41848W        W42048   0.575   7.587  10.024 -0.0169 -0.0275 -0.1647
41849W        W42049   0.680   4.132   1.521 -0.1627  0.1530 -0.3274
41850W        W42050   4.015   4.940  11.452 -0.4248 -0.0358  0.2251
41851W        W42051  10.128  17.616  14.903 -0.0257 -0.3719  0.0558
41852W        W42052  16.469  17.758   1.117 -0.1015 -0.0072 -0.2373
41853W        W42053   3.134   3.277   1.045 -0.4241  0.2270  0.2506
41854W        W42054  17.561  13.050  10.606 -0.2300 -0.1212 -0.0062
41855W        W42055   7.853   5.573   7.766  0.1746  0.0102 -0.0995
41856W        W42056   6.804   7.854   9.744  0.0607 -0.3381  0.2155
41857W        W42057   1.583  14.475  11.890  0.0964 -0.1164 -0.0210
41858W        W42058  16.995  15.599   6.682 -0.2230  0.1913  0.0435
41859W        W42059   6.202  11.345   7.907 -0.0138 -0.3486 -0.2280
41860W        W42060  14.744   6.765  12.209 -0.0117 -0.0168 -0.3230
41861W        W42061   0.292   7.932   6.993 -0.1511  0.0981 -0.1164
41862W        W42062  16.694   1.420   9.202  0.3434 -0.0345 -0.3939
41863W        W42063   2.291  12.229  11.832 -0.1227  0.0291  0.2652
41864W        W42064   9.915   3.121   5.580  0.1672  0.1219 -0.1112
41865W        W42065  17.085   8.610  13.492  0.2788  0.0901 -0.1702
41866W        W42066  13.329   4.272  15.906  0.2258 -0.0172  0.0232
41867W        W42067   1.766   6.567  15.813  0.1527 -0.0748  0.2428
41868W        W42068   8.958  17.268  12.816 -0.2590  0.0102  0.1243
41869W        W42069  17.506  13.729  12.887 -0.1286  0.2965  0.2615
41870W        W42070  14.965   2.807   1.387 -0.1219  0.0261  0.0542
41871W        W42071  15.527   3.624  16.825  0.0103 -0.1128  0.2375
41872W        W42072  17.090  17.105   0.887 -0.1935 -0.2284  0.0654
41873W        W42073  15.656   2.730  15.382 -0.0107  0.3053  0.3183
41874W        W42074   0.851  16.997   1.647 -0.0333  0.0477 -0.2102
41875W        W42075  14.834   0.493  14.533  0.1742 -0.0888  0.0914
41876W        W42076  16.083   0.705  11.527 -0.0174 -0.2280  0.0808
41877W        W42077   8.405   2.667   1.707  0.3463 -0.0111  0.0565
41878W        W42078   3.363   7.619  17.022  0.1204  0.2476 -0.0041
41879W        W42079   6.263  14.051  13.679  0.0169  0.1299 -0.3134
41880W        W42080  16.320   8.052  17.931  0.2998 -0.0856  0.3436
41881W        W42081   8.208   0.405  16.705 -0.0306 -0.1915  0.1275
41882W        W42082   4.844  11.114  13.296 -0.0342 -0.2432  0.1140
41883W        W42083  12.605  17.798   9.198 -0.2167 -0.2563 -0.1569
41884W        W42084  14.676   0.629   1.990 -0.0039  0.0347 -0.0426
41885W        W42085   8.795   6.364   7.015 -0.0767  0.2243  0.0993
41886W        W42086   9.993  16.752  13.683  0.0495  0.1995  0.0546
41887W        W42087  16.827   3.671  13.437  0.1259  0.3747 -0.1173
41888W        W42088  15.402  10.484  12.359 -0.0280  0.1160 -0.0585
41889W        W42089  15.956   9.576  16.206 -0.2296  0.2899  0.1106
41890W        W42090  15.664   0.158  12.938  0.0356 -0.2457 -0.2762
41891W        W42091  17.849   1.647  16.708 -0.0377  0.4059  0.2004
41892W        W42092  12.218  16.677   0.274  0.2770  0.1305 -0.2666
41893W        W42093  14.533   0.677  12.799  0.2372 -0.0163 -0.2062
41894W        W42094  11.760  16.854  12.440  0.1615 -0.4598 -0.4203
41895W        W42095   3.952  11.560   6.062 -0.2318 -0.0790  0.0079
41896W        W42096   0.880   4.956  17.836  0.1763 -0.0014 -0.0734
41897W        W42097   0.358  15.606  16.418  0.4050 -0.0205 -0.1478
41898W        W42098   2.525  11.038  17.933  0.2565  0.1581  0.1239
41899W        W42099  14.981   2.727  15.914  0.0064  0.1712 -0.0713
41900W        W42100   0.695   2.558  16.018 -0.2925  0.3314  0.1956
41901W        W42101  10.149  18.182  14.935  0.0019 -0.1130 -0.0152
41902W        W42102  13.204  10.773  14.249 -0.0167  0.0516 -0.2538
41903W        W42103   5.683   3.301  15.713  0.1338  0.2764 -0.1640
41904W        W42104   5.406   0.330  16.220  0.0328 -0.0832 -0.0775
41905W        W42105  14.386   6.975  11.505  0.1482  0.2551  0.2286
41906W        W42106   4.636   1.667  11.339  0.0101  0.2481  0.1516
41907W        W42107   5.611  17.279   1.890 -0.2527  0.0514  0.0306
41908W        W42108   2.231   7.392  15.523 -0.2487  0.1799  0.2881
41909W        W42109   3.508   4.494   8.039 -0.1011 -0.0080 -0.0546
41910W        W42110  12.304   2.065  15.317 -0.0235  0.0730  0.1257
41911W        W42111   1.841  16.246  15.923 -0.0118  0.2185  0.1859
41912W        W42112   1.432  16.854  12.417  0.1528 -0.0299 -0.1199
41913W        W42113  10.332  12.609   0.522  0.1021 -0.0561 -0.2313
41914W        W42114  12.451   3.499   0.209  0.2097 -0.1739 -0.0510
41915W        W42115   2.557   2.255  17.800 -0.3802 -0.4504  0.1410
41916W        W42116  10.175   2.929  16.947  0.2779 -0.0703 -0.2493
41917W        W42117  17.832   2.864  10.390 -0.1375  0.1235  0.0103
41918W        W42118   4.250   7.169  17.009  0.0974 -0.0180 -0.1874
41919W        W42119  17.794   0.160   3.706  0.0448 -0.0501 -0.0777
41920W        W42120   2.929  17.124   6.287  0.1124 -0.1841  0.0482
41921W        W42121   0.155   5.393  17.696  0.2106 -0.3298 -0.0701
41922W        W42122  15.957  13.999  10.316 -0.1804  0.0416 -0.0851
41923W        W42123  14.324   1.967  13.187 -0.3918  0.1466 -0.0959
41924W        W42124  13.870   5.793  13.734  0.0846 -0.0627  0.1840
41925W        W42125  13.095  10.298  14.489  0.0426  0.1782 -0.2132
41926W        W42126   1.732  11.319   1.681  0.1740  0.0110 -0.0489
41927W        W42127  14.693   7.029  12.695  0.1563  0.0173 -0.1358
41928W        W42128   2.693   4.864  18.159 -0.0246  0.4231  0.2110
41929W        W42129   3.609   3.778  12.928  0.1946 -0.0984  0.0626
41930W        W42130   8.587  16.692   9.125  0.0828  0.3009 -0.1058
41931W        W42131   0.054   0.807   3.362 -0.0802  0.4446 -0.5854
41932W        W42132   5.138   3.748   3.651 -0.0796 -0.1707 -0.3013
41933W        W42133  18.159   3.660   1.318 -0.0819 -0.1759 -0.0597
41934W        W42134   3.569  11.214   4.351 -0.1551 -0.2698 -0.1637
41935W        W42135  16.307  16.877   5.782  0.1452  0.3455  0.2490
41936W        W42136  15.110   3.674   4.630 -0.0866  0.1406  0.0800
41937W        W42137  13.733   1.460   0.228  0.2043 -0.2050  0.1296
41938W        W42138  14.608   4.157  13.754 -0.1622 -0.0223 -0.1911
41939W        W42139  13.761   3.888  11.095  0.1293  0.1710  0.2403
41940W        W42140   9.442   6.763  14.740  0.1321  0.2677  0.1677
41941W        W42141  17.043   2.692   9.490 -0.0104  0.0621 -0.2428
41942W        W42142   3.501   6.139   3.413 -0.1908  0.1806 -0.1937
41943W        W42143  11.989  15.904   4.017  0.0860 -0.1926 -0.3048
41944W        W42144   5.746   3.310   1.803 -0.1424 -0.1412  0.1619
41945W        W42145  17.483   1.115  15.951  0.0347  0.4665 -0.3048
41946W        W42146   9.040   0.303  16.210 -0.1079  0.1210  0.1707
41947W        W42147  16.526   3.325   0.384  0.2400  0.1653 -0.0416
41948W        W42148   5.045   3.772  16.174  0.0943  0.0411  0.0651
41949W        W42149   7.932  15.065   5.386 -0.1321 -0.1732 -0.2416
41950W        W42150   5.845   2.588  17.861  0.3372 -0.1660 -0.2332
41951W        W42151  17.282   7.692  14.800  0.0372 -0.3597 -0.2873
41952W        W42152   9.231   2.771  12.391  0.3438 -0.0370  0.1767
41953W        W42153   0.651  12.620  16.833 -0.0926  0.1254 -0.0760
41954W        W42154   9.117  14.063  14.479  0.1797  0.0141 -0.0562
41955W        W42155   1.389  10.576   9.058 -0.0988  0.2029  0.1299
41956W        W42156   1.484   5.884  12.995  0.0508  0.1575 -0.1475
41957W        W42157   1.478   2.083  15.410 -0.2509 -0.5286 -0.0585
41958W        W42158   2.486  13.671   0.066  0.2115 -0.0416  0.0108
41959W        W42159  17.407   2.729  17.838 -0.2827  0.2541 -0.0924
41960W        W42160   0.893  15.669  11.828 -0.1819 -0.1311 -0.0434
41961W        W42161  15.877  15.730  10.475 -0.0767 -0.1038 -0.0096
41962W        W42162  13.274  16.390  13.610 -0.0545 -0.1274  0.0347
41963W        W42163   8.179   0.590  16.196  0.0591  0.0399 -0.0643
41964W        W42164  13.014   1.870   0.603 -0.0076 -0.2896 -0.0271
41965W        W42165  13.129  15.939  15.600  0.1689 -0.0006  0.1844
41966W        W42166   2.184   5.631  10.714 -0.2518 -0.0973  0.0721
41967W        W42167  12.663  17.379   6.476 -0.1579 -0.2535  0.0824
41968W        W42168   0.051  14.349   0.332  0.1640  0.3534  0.1125
41969W        W42169  12.410   5.682   3.901  0.1872 -0.1362 -0.0923
41970W        W42170  15.532   2.773  13.896 -0.1974  0.1389  0.1171
41971W        W42171   0.864   7.552  11.295  0.2185  0.1023 -0.0604
41972W        W42172   2.880   2.352   3.391  0.1868 -0.1399 -0.0861
41973W        W42173  15.565   2.961  13.418  0.0346 -0.3140  0.2517
41974W        W42174   1.923  17.220   8.796 -0.1602 -0.0399 -0.1402
41975W        W42175   2.136  10.326  10.254 -0.0561  0.0499 -0.2191
41976W        W42176  13.309   0.393   2.461 -0.2436 -0.0815  0.3728
41977W        W42177   3.600   1.979  17.714 -0.1385 -0.3423  0.0830
41978W        W42178   4.332   3.704   4.165 -0.2260  0.0198 -0.1662
41979W        W42179   2.088   0.333  17.158 -0.0365  0.0476  0.2984
41980W        W42180   3.500   3.118   9.781 -0.1109 -0.0796  0.1147
41981W        W42181   5.717   3.498   5.428  0.0786  0.0245  0.0248
41982W        W42182   1.108   3.758   4.184  0.2330 -0.0454  0.0127
41983W        W42183  17.269   9.704   9.304  0.0739  0.0949  0.0412
41984W        W42184   2.131   1.016   5.416 -0.0817 -0.0987  0.4220
41985W        W42185   0.587   6.047   1.935 -0.3062 -0.0894 -0.1700
41986W        W42186  15.933   3.818  17.740  0.2463 -0.2138 -0.1758
41987W        W42187  16.707  13.700  16.929  0.1705 -0.1686 -0.3721
41988W        W42188   3.228   4.786  13.373  0.1136 -0.2122  0.3743
41989W        W42189  11.580  11.578  14.536 -0.2030  0.2468 -0.3758
41990W        W42190   2.274  17.737  11.560  0.0059 -0.0394  0.0665
41991W        W42191  17.496   8.309  13.551 -0.0536 -0.0611  0.2715
41992W        W42192  17.218  16.155  13.708  0.1669 -0.1906 -0.0015
41993W        W42193  15.928  17.658  14.212 -0.1467  0.3117 -0.0462
41994W        W42194   3.167  17.561  13.536 -0.0259  0.1745 -0.0034
41995W        W42195   8.849   8.924   3.059  0.3841 -0.0072  0.1244
41996W        W42196   9.592   6.494   9.696 -0.0197  0.0234 -0.2837
41997W        W42197  17.678   7.224   4.259 -0.1270 -0.0555  0.1197
41998W        W42198   7.597   7.739  12.869 -0.1087 -0.2404  0.2137
41999W        W42199  16.463   8.204   5.355 -0.0002  0.1437  0.1499
42000W        W42200  15.075   9.991  11.572  0.0118  0.4111  0.0392
42001W        W42201   2.463   8.793  14.906 -0.0897  0.1716  0.0935
42002W        W42202   8.383   4.826   1.242  0.0470  0.1672 -0.0474
42003W        W42203  11.563   6.046  17.991 -0.4360  0.1189  0.0274
42004W        W42204  16.313   8.703  14.836 -0.1710 -0.1357 -0.2771
42005W        W42205   0.185   6.157   6.674 -0.1782  0.1619  0.1220
42006W        W42206  11.726  14.324   6.283  0.3007  0.0848  0.0535
42007W        W42207  16.556   1.223   1.304 -0.1827  0.0338 -0.2937
42008W        W42208  13.762  14.668   0.563 -0.3593 -0.0122  0.2977
42009W        W42209  15.751   9.409   3.589 -0.0050  0.4506  0.0078
42010W        W42210  15.392   5.742  16.183  0.0404  0.0855 -0.2354
42011W        W42211  17.058  17.926   4.875  0.1463  0.0756 -0.3023
42012W        W42212   1.227   0.373   3.785  0.1740  0.3947  0.0860
42013W        W42213   3.181   1.613   2.844 -0.2806 -0.1286  0.3960
42014W        W42214   8.142   3.445   1.775  0.0460 -0.0043  0.1207
42015W        W42215  12.685   7.558   3.478  0.1285  0.0974 -0.0705
42016W        W42216   1.446  18.074   4.591  0.0922 -0.0966 -0.1375
42017W        W42217   2.577   9.026   0.370 -0.2974  0.0785  0.2541
42018W        W42218   7.000   8.026   5.067 -0.1908  0.1401  0.0292
42019W        W42219   0.653   9.659  17.384  0.0075  0.0501  0.3267
42020W        W42220   3.816  12.085  12.885 -0.0023 -0.0549  0.0028
42021W        W42221  14.176   1.445  11.637 -0.2152 -0.2710 -0.0796
42022W        W42222   5.839   0.146   2.271  0.0873  0.3449  0.1916
42023W        W42223  13.091  14.657   9.199 -0.0412 -0.0730  0.1659
42024W        W42224   0.085   3.867   1.789 -0.1948 -0.2446 -0.0694
42025W        W42225   7.745  11.417   6.364 -0.0497  0.1635 -0.0605
42026W        W42226  15.186  13.169  16.082 -0.0231  0.2257  0.0575
42027W        W42227  14.718  10.193   7.333  0.0802  0.2189 -0.1343
42028W        W42228   5.003   0.233   7.034 -0.0366 -0.3774 -0.1549
42029W        W42229  12.568   4.705   6.695  0.0755  0.4280 -0.0085
42030W        W42230  16.291   4.194   2.348  0.2045 -0.1224 -0.0849
42031W        W42231  14.263   5.510   4.346 -0.1823 -0.0293 -0.1306
42032W        W42232   5.407   0.171  11.860  0.1484  0.1932 -0.1538
42033W        W42233  14.583  14.699   0.254 -0.2888  0.2238  0.2659
42034W        W42234   0.504   6.651  16.271  0.0681 -0.0919  0.1528
42035W        W42235   7.468   8.176  16.312 -0.2718  0.1912 -0.1899
42036W        W42236   8.219   5.617   0.088  0.0309  0.1396 -0.0611
42037W        W42237  14.113   4.960  12.033 -0.3360  0.1898 -0.2181
42038W        W42238  14.630   7.341  13.692 -0.1035  0.2566 -0.1090
42039W        W42239  10.972   7.684  16.596 -0.2167  0.0351  0.4585
42040W        W42240  17.816   9.062   7.035 -0.0291  0.0156  0.5585
42041W        W42241   2.383   3.639   3.974  0.0221  0.2419 -0.1980
42042W        W42242  17.260  16.144   3.907  0.2398 -0.1166  0.0165
42043W        W42243  15.134  14.592   6.935 -0.2139  0.1140 -0.1534
42044W        W42244   0.191   6.093  17.165  0.4192 -0.1422 -0.0550
42045W        W42245  12.450   5.865   2.575  0.0617 -0.0052 -0.1673
42046W        W42246   4.385  11.296   2.310 -0.2629 -0.1387 -0.0262
42047W        W42247   5.362  12.459   0.979  0.1371  0.3548 -0.1246
42048W        W42248  10.603   5.881  17.849 -0.0628  0.2503  0.2466
42049W        W42249  15.131  17.642   8.081 -0.0885 -0.1030 -0.0082
42050W        W42250   3.921  13.710   2.592  0.0082 -0.0564 -0.1958
42051W        W42251  14.225   3.419   3.948 -0.2464 -0.0979  0.1751
42052W        W42252  16.973  10.481   6.597  0.1106 -0.1722 -0.0280
42053W        W42253   7.281   2.605  12.138 -0.2547  0.1004  0.3062
42054W        W42254  12.332   6.806   1.108 -0.0322  0.1117  0.2837
42055W        W42255   2.079   3.443   8.065 -0.3220 -0.0251 -0.1738
42056W        W42256  14.807  17.949  13.823  0.0916 -0.2960  0.0629
42057W        W42257  10.403   8.040   5.123  0.3718 -0.1959 -0.0385
42058W        W42258  14.982   5.631  13.018 -0.4470 -0.2607  0.0467
42059W        W42259   1.890   3.822   4.142 -0.1881  0.0566  0.4057
42060W        W42260   1.642   5.153  17.470 -0.1816 -0.1766 -0.0008
42061W        W42261  15.431   1.875   4.480  0.0317 -0.2044 -0.0840
42062W        W42262  13.760   3.121   0.463  0.1204  0.2531 -0.0050
42063W        W42263  14.183   9.781   0.817 -0.0795 -0.1091 -0.0929
42064W        W42264   2.074   2.813   3.087 -0.0881 -0.0841  0.3724
42065W        W42265   1.149   8.940   2.900 -0.1700 -0.0562 -0.3529
42066W        W42266  13.205   1.177  10.544 -0.0596  0.0055 -0.1183
42067W        W42267   4.653   6.508   7.698  0.0151  0.1019 -0.1275
42068W        W42268   7.568   8.053   8.562 -0.0466  0.0360  0.4267
42069W        W42269  16.495   5.464   1.724  0.0436  0.2969  0.0702
42070W        W42270  18.136   9.113  10.937  0.1341  0.1789 -0.1885
42071W        W42271  14.761  10.827   7.399  0.2101 -0.0959 -0.0565
42072W        W42272   8.486   2.309  18.199 -0.3878  0.3614 -0.2762
42073W        W42273  12.388   5.360   2.528  0.3083 -0.1666 -0.1084
42074W        W42274   2.423   4.370  16.829  0.0939  0.0624 -0.3428
42075W        W42275   6.957  10.070   8.727 -0.2303  0.2051 -0.1398
42076W        W42276  17.399   6.186  17.006  0.0284 -0.3954 -0.2738
42077W        W42277  15.681   6.201  10.938 -0.0204  0.1270 -0.0385
42078W        W42278  13.356   0.348   4.194  0.2517  0.1049 -0.1448
42079W        W42279  16.331   3.897   0.703  0.2590 -0.0337  0.1987
42080W        W42280  15.226   2.837  16.348  0.1314  0.0691  0.3881
42081W        W42281  18.036   7.511   3.421  0.0159  0.0810  0.2449
42082W        W42282  16.726   2.358   1.517  0.0697  0.0944  0.0142
42083W        W42283   2.024   9.744  10.256  0.2820  0.3079  0.2262
42084W        W42284   7.587   0.690   2.282 -0.4060  0.1554  0.0071
42085W        W42285  15.395   1.560   3.708  0.0421 -0.1819  0.2901
42086W        W42286   0.504   4.153   3.003 -0.0853 -0.0131 -0.2974
42087W        W42287  15.344   1.735   6.089 -0.1261  0.1827 -0.1185
42088W        W42288   4.488  17.571   6.130  0.5059  0.2859  0.3539
42089W        W42289   8.608   5.160  16.485  0.0426 -0.4302 -0.1474
42090W        W42290  12.206   6.148  18.099  0.1386  0.2484  0.0540
42091W        W42291  14.665   4.039   2.085 -0.1782  0.2302  0.0097
42092W        W42292   2.953   2.655  17.450  0.1293  0.3399 -0.0381
42093W        W42293   5.788  16.210  15.099  0.1877 -0.1400  0.0714
42094W        W42294   6.324   4.526   6.199 -0.0758  0.0345 -0.0450
42095W        W42295  18.185   1.036  15.091  0.1247  0.0045  0.0936
42096W        W42296  16.364  10.134   7.067  0.4330 -0.0153 -0.0550
42097W        W42297   5.936   8.180   1.447 -0.1972  0.0337  0.2440
42098W        W42298   7.804   7.912   5.731  0.1120 -0.0737 -0.0703
42099W        W42299  10.355   9.363  17.078  0.4053 -0.0036  0.0451
42100W        W42300  15.328   3.943   3.222  0.0927 -0.0387  0.0944
42101W        W42301  14.184   5.891  12.998 -0.0144 -0.3960 -0.1297
42102W        W42302  14.021   4.533   7.713 -0.1283  0.2413 -0.0319
42103W        W42303  17.186  17.542  16.864  0.0107 -0.1269  0.0179
42104W        W42304  16.550   1.513   0.902 -0.0450  0.0579  0.0514
42105W        W42305   0.066   1.287  11.256 -0.0320 -0.0109  0.3108
42106W        W42306   1.156   5.880   0.377 -0.0179 -0.1190 -0.1541
42107W        W42307  17.806   8.017  12.485 -0.1601 -0.1681  0.3300
42108W        W42308   1.225   2.528   4.530 -0.0352 -0.3003 -0.2483
42109W        W42309   8.764   6.237   5.532 -0.1063 -0.1111  0.0333
42110W        W42310   3.485   3.841   3.354  0.0199 -0.1581 -0.1612
42111W        W42311  16.525   3.755  17.488  0.0505  0.0483 -0.0141
42112W        W42312   2.034  12.053  16.167 -0.2472  0.2017  0.1289
42113W        W42313   2.408   3.954   3.136 -0.0580 -0.0237  0.3672
42114W        W42314  16.908   8.638   7.895  0.2805  0.0417 -0.0083
42115W        W42315   9.930   7.776   3.439  0.1077  0.1365  0.1730
42116W        W42316  13.844   7.091   4.798 -0.0555  0.0541  0.1336
42117W        W42317   1.111   7.212   9.416  0.1115  0.0192  0.1323
42118W        W42318   2.644   0.451  13.490 -0.1593  0.0939  0.0462
42119W        W42319  11.260   2.064   5.116 -0.0867  0.0874  0.2190
42120W        W42320  13.806   4.115  12.025 -0.0326 -0.3581  0.1509
42121W        W42321   2.432   8.475   5.670  0.1850  0.2023  0.1617
42122W        W42322  17.906   7.928   1.035 -0.1561  0.1280  0.1254
42123W        W42323   2.497   7.054  17.931  0.2540  0.1841  0.0739
42124W        W42324  16.100  13.330   2.346 -0.3337 -0.1268 -0.1222
42125W        W42325  16.561  16.961   0.362 -0.1971  0.0003 -0.0625
42126W        W42326   4.521   8.753  16.110 -0.0376 -0.1765  0.0384
42127W        W42327  16.785  15.084   0.294 -0.1395 -0.0320 -0.0498
42128W        W42328   1.063   7.931  11.646 -0.2338  0.2608 -0.2067
42129W        W42329  16.220   9.279  17.596 -0.0936 -0.0920 -0.3398
42130W        W42330   1.039   7.918   5.138  0.2285  0.2345  0.0052
42131W        W42331   1.706   7.119  13.357  0.0886  0.1049 -0.1014
42132W        W42332   3.339  15.880   7.253 -0.2134  0.2145 -0.2081
42133W        W42333  14.012   5.487  12.711 -0.2243  0.0230 -0.2302
42134W        W42334   5.112   4.501   3.104 -0.2935  0.0177  0.1832
42135W        W42335   5.515  11.397   7.406  0.0357 -0.1038 -0.0546
42136W        W42336   4.143   8.114   8.996  0.2832  0.0816  0.0960
42137W        W42337  16.396   6.172   0.574 -0.5737  0.1098 -0.1870
42138W        W42338   2.313   8.911   7.299  0.0963 -0.0847  0.1254
42139W        W42339  15.720   5.028  16.955  0.1807  0.2937  0.2042
42140W        W42340  12.838   8.272   0.335 -0.3514 -0.0503  0.0116
42141W        W42341  16.366   7.614   2.334 -0.3412 -0.2088  0.0081
42142W        W42342   2.508   8.748   5.290 -0.1787 -0.0504  0.2092
42143W        W42343   3.092  17.003  17.967 -0.0474 -0.3635 -0.1585
42144W        W42344   0.825  11.430  17.863  0.2047  0.2221 -0.0918
42145W        W42345   9.385   0.268   0.337  0.0876  0.0068 -0.0509
42146W        W42346  12.208  18.148  15.233  0.0693  0.1419 -0.1188
42147W        W42347  18.143   0.823   2.804  0.0038 -0.2575 -0.2132
42148W        W42348   7.412  11.375   7.195 -0.1360  0.1612  0.1903
42149W        W42349  12.681   5.996   5.800 -0.0558 -0.0301 -0.3822
42150W        W42350   3.962   6.506  13.021 -0.0781 -0.2127  0.0425
42151W        W42351   1.367   2.879   4.167  0.1441 -0.1014 -0.3283
42152W        W42352   1.081   3.002   0.648  0.1549  0.3254  0.3563
42153W        W42353   9.401   6.067   3.731  0.1251  0.0961 -0.0532
42154W        W42354  17.984   5.934  13.007  0.0068  0.0453 -0.2370
42155W        W42355   0.536   3.331   3.122  0.2038 -0.1463 -0.2966
42156W        W42356   6.128   6.457   2.304 -0.2643 -0.3702  0.1246
42157W        W42357  13.640  14.884   3.056 -0.0445 -0.1568 -0.1287
42158W        W42358   7.782   3.752  14.015  0.1991 -0.1732 -0.2412
42159W        W42359   4.154   5.006  12.514 -0.1551  0.1553 -0.0610
42160W        W42360   2.086   3.792   7.693 -0.1142 -0.0672 -0.1386
42161W        W42361  14.198   5.208   0.665  0.0851 -0.1784 -0.0764
42162W        W42362  13.636   6.555   1.776 -0.2686 -0.3061 -0.2767
42163W        W42363  16.404   3.039   6.364  0.0885 -0.1716 -0.1026
42164W        W42364  16.770   4.700  12.276 -0.1435 -0.1167  0.3576
42165W        W42365   0.708   3.976  16.967 -0.0271 -0.1719 -0.1068
42166W        W42366  17.662   7.008  17.036  0.4556  0.0708  0.3774
42167W        W42367  14.954  14.693   4.776 -0.0415  0.1105  0.1238
42168W        W42368  10.631  10.801  16.330 -0.3493  0.2643 -0.1213
42169W        W42369  16.086   8.637   5.154 -0.1018 -0.1171 -0.0987
42170W        W42370  17.078   5.040  17.184 -0.2612 -0.0960 -0.2084
42171W        W42371  15.848   4.309  17.424 -0.0897  0.0375  0.0274
42172W        W42372  14.677   2.281  16.012 -0.0370  0.1179 -0.0900
42173W        W42373   3.467  12.791  17.362 -0.0892 -0.2117 -0.0018
42174W        W42374  15.683   6.901  15.082 -0.0572 -0.0256 -0.1645
42175W        W42375  12.628   7.282   0.440 -0.0195 -0.0257 -0.1255
42176W        W42376   8.310   4.160  13.049  0.1044 -0.0501  0.0429
42177W        W42377   7.166   3.122   7.331  0.1785  0.0703  0.4113
42178W        W42378  14.721   3.891  14.865 -0.1703 -0.1392  0.0749
42179W        W42379  14.805  11.078   0.559  0.0380  0.1205 -0.3262
42180W        W42380  14.503   3.513   7.074 -0.0905  0.0703  0.0744
42181W        W42381   1.657   4.431   5.478 -0.3946  0.3726  0.0341
42182W        W42382   9.624   6.354  16.845 -0.2220 -0.2021  0.0217
42183W        W42383  14.662   3.403   9.298 -0.0903  0.2953  0.2592
42184W        W42384  17.400  12.453   5.222 -0.4677 -0.2432  0.1979
42185W        W42385   8.141  13.409   0.940  0.2503 -0.0204 -0.2037
42186W        W42386  15.174  11.458   0.544  0.1323 -0.0538  0.1469
42187W        W42387   1.294   4.624   2.420  0.0320  0.0214 -0.0051
42188W        W42388  12.334   3.074  17.353 -0.1127  0.0665  0.1556
42189W        W42389  15.157   2.350   0.953  0.0325  0.0771  0.0042
42190W        W42390   0.213   4.419  17.958  0.0400  0.1896  0.0490
42191W        W42391   3.508  14.853   5.754 -0.1345 -0.0097 -0.0420
42192W        W42392  12.812   5.758  17.397  0.0282 -0.0780 -0.1521
42193W        W42393  17.560   1.429   3.240 -0.0237 -0.2447  0.1514
42194W        W42394   4.929   8.210   1.587  0.2094 -0.3799  0.1890
42195W        W42395  13.365  10.651   4.333  0.0552 -0.0086  0.1205
42196W        W42396   2.654   7.831   7.465  0.0797 -0.2840  0.0750
42197W        W42397  12.455   1.012   2.230  0.2110  0.0879 -0.0561
42198W        W42398   4.569   2.061   5.691 -0.0154 -0.1617 -0.1586
42199W        W42399   1.353   1.037  11.482  0.0032  0.1031 -0.0317
42200W        W42400  16.240  10.803  14.124 -0.2700 -0.0672  0.2088
42201W        W42401   8.721   1.701  13.351 -0.1717  0.2645 -0.0282
42202W        W42402   4.474   3.845   1.959 -0.2118  0.1168  0.0863
42203W        W42403  13.698  11.982   9.455  0.1577 -0.0168  0.1617
42204W        W42404  10.306  14.328   0.006  0.0555  0.0944  0.2151
42205W        W42405   2.701   0.100   1.346 -0.0808  0.2727  0.2285
42206W        W42406  16.611   4.619   0.685  0.0760 -0.1657 -0.2816
42207W        W42407   2.227   3.952  15.774  0.0980 -0.0598  0.0739
42208W        W42408  13.497  14.577  17.576 -0.0237  0.1852  0.1072
42209W        W42409  15.262  15.363   2.325 -0.1146 -0.0127 -0.2632
42210W        W42410  18.118  18.148  16.102 -0.0590 -0.0372 -0.2997
42211W        W42411  11.986   8.847  15.550 -0.0836 -0.0600 -0.0169
42212W        W42412   7.188  17.472  17.026 -0.1554  0.1991  0.0380
42213W        W42413  17.401   7.390   7.876  0.1759  0.0988  0.1606
42214W        W42414   6.927   9.711   9.247  0.1906 -0.2029  0.0532
42215W        W42415  10.331  18.191   5.867  0.0832 -0.1158 -0.2184
42216W        W42416  10.917   2.992  16.903 -0.1780 -0.0875 -0.1210
42217W        W42417  14.545   6.833  10.423  0.3005  0.0138  0.0994
42218W        W42418   6.871  10.272   4.296 -0.0631 -0.1586  0.2189
42219W        W42419   6.810   9.074   4.939  0.2117  0.0200 -0.1579
42220W        W42420  17.221   4.921   1.797 -0.0589  0.0981 -0.1105
42221W        W42421  17.993   5.759  12.535  0.3186 -0.2156  0.1322
42222W        W42422  15.887  16.470  12.929 -0.0096 -0.2562  0.1647
42223W        W42423   4.432   3.102  10.474 -0.0276  0.1150 -0.0348
42224W        W42424   9.397   0.053  15.889 -0.1859  0.1116 -0.1004
42225W        W42425  14.857   7.556  16.288 -0.0463  0.3056  0.1445
42226W        W42426  15.205   2.965   6.353 -0.1970  0.0542 -0.1560
42227W        W42427   2.907  13.514   3.353  0.1440 -0.0373 -0.1528
42228W        W42428  17.962   1.627   2.021 -0.2584  0.2025 -0.2268
42229W        W42429   2.925   5.680   1.632  0.0922 -0.2147 -0.1490
42230W        W42430  10.414  13.678  12.845 -0.0172 -0.0813  0.0486
42231W        W42431   3.525   9.839   5.336 -0.2266  0.2655  0.2043
42232W        W42432   0.832   5.910  17.921 -0.1719 -0.0962 -0.0810
42233W        W42433  14.541   1.217   0.825  0.1153  0.2023  0.0758
42234W        W42434   5.689   6.777  14.528  0.0109 -0.0006  0.1052
42235W        W42435   0.880   6.356   5.437 -0.1976  0.0478 -0.1255
42236W        W42436  16.769   0.053   1.637 -0.3153 -0.1068  0.0354
42237W        W42437  17.450   4.824   7.426 -0.1047 -0.1611 -0.0921
42238W        W42438  14.239   0.384   2.531  0.1031 -0.0880 -0.1335
42239W        W42439  11.071   9.195   4.030 -0.2026 -0.0458 -0.4627
42240W        W42440   2.445   8.877   4.832 -0.1291  0.0820 -0.0148
42241W        W42441  16.460   3.201   9.956 -0.6231  0.1294 -0.0679
42242W        W42442  14.758   3.429   5.234  0.1123  0.1907  0.4554
42243W        W42443   3.348   5.234  17.597 -0.1628  0.1344 -0.0961
42244W        W42444   3.730  15.042   2.747  0.0340  0.0507 -0.0757
42245W        W42445  14.774   2.340  13.247 -0.2491 -0.2704 -0.2345
42246W        W42446  11.945   6.550   2.193  0.1058 -0.1761  0.2035
42247W        W42447   4.860   7.550  17.238 -0.0280  0.0030 -0.2754
42248W        W42448   0.674  16.816  11.192  0.1175 -0.0888 -0.2377
42249W        W42449   9.432   5.477   1.185 -0.2173  0.2833 -0.1832
42250W        W42450   3.383   2.338  16.025  0.0719 -0.1499  0.2665
42251W        W42451   5.138   8.952  10.767  0.3612 -0.0039 -0.0211
42252W        W42452  17.710   6.632   3.945 -0.1342  0.1069 -0.1463
42253W        W42453   1.387   5.745  17.052  0.2202 -0.0402 -0.0946
42254W        W42454   5.813   2.117  17.740 -0.0168  0.1628 -0.1587
42255W        W42455  11.330   4.785  15.512 -0.1249  0.1513  0.1976
42256W        W42456   3.143  10.041  13.568 -0.2763  0.0133 -0.0119
42257W        W42457  11.644   8.083   1.088 -0.3156 -0.0751  0.0542
42258W        W42458   3.907  10.206   5.555  0.1977  0.0334  0.3593
42259W        W42459   5.931   2.870  13.862 -0.2577  0.1909  0.1539
42260W        W42460   7.718   8.642   0.702 -0.1682 -0.0640 -0.1337
42261W        W42461  15.400  12.034   1.990  0.1938 -0.0760 -0.1551
42262W        W42462   6.729  11.849  12.626  0.0826  0.1484  0.1087
42263W        W42463  15.789  11.529   7.217  0.1516 -0.0567  0.2548
42264W        W42464   0.487   1.064   3.511  0.0212 -0.1128  0.1333
42265W        W42465  10.704   3.407  14.877  0.0302 -0.0786  0.1586
42266W        W42466   5.201   3.944  11.009  0.0301 -0.0397 -0.3473
42267W        W42467   0.403   7.927   9.163 -0.0011  0.0482 -0.3053
42268W        W42468   3.778   4.134   5.371 -0.1410 -0.3530 -0.0826
42269W        W42469   6.174   6.937   2.060  0.1949  0.0864 -0.0093
42270W        W42470  10.035  17.205   3.811 -0.0156 -0.0284 -0.0413
42271W        W42471   8.769  16.761   2.526  0.4087 -0.0789 -0.1235
42272W        W42472   1.731  16.265  18.154 -0.0088  0.1488  0.3857
42273W        W42473  14.591   2.931   5.534  0.0700 -0.1909 -0.1377
42274W        W42474  12.488   4.440   8.139  0.1040 -0.0731  0.2079
42275W        W42475  11.999   6.410  17.101  0.0600  0.0851  0.0200
42276W        W42476   2.152  17.325   5.227 -0.3554 -0.0676 -0.1349
42277W        W42477   6.234  17.908   2.835 -0.1938 -0.1082  0.1191
42278W        W42478  15.788   8.065  10.408 -0.1866 -0.2277 -0.0083
42279W        W42479  15.405  11.209   6.463  0.1020 -0.2007  0.1992
42280W        W42480  11.060  17.254  12.700  0.0867  0.0128  0.3228
42281W        W42481   9.422   2.134  11.621  0.2179 -0.3314 -0.2039
42282W        W42482   3.285   5.498   4.202 -0.0139 -0.2138  0.0859
42283W        W42483  16.009   1.020   4.007  0.2161  0.4989  0.2381
42284W        W42484   0.583   8.500  14.451 -0.0312  0.0338 -0.0439
42285W        W42485  12.202   8.991   1.327  0.1247 -0.0926 -0.1982
42286W        W42486   0.668   3.868   3.871  0.2298 -0.0329  0.0764
42287W        W42487  16.899  13.428   2.791 -0.0832 -0.1988 -0.0901
42288W        W42488   5.721   7.536  16.872 -0.1527 -0.1540 -0.0025
42289W        W42489  14.644  11.856   6.404 -0.2493 -0.0353 -0.0024
42290W        W42490   5.100   4.531  16.668  0.0344 -0.2475 -0.0486
42291W        W42491   2.854   9.093  12.974 -0.0254 -0.0539  0.0282
42292W        W42492  13.560  15.445   2.893 -0.0727  0.1381 -0.0032
42293W        W42493   2.587   0.154   5.394 -0.0614  0.2280 -0.0982
42294W        W42494  12.231   0.062   5.134  0.2087 -0.0287 -0.2876
42295W        W42495  17.770   3.365  14.902  0.1990 -0.0870  0.4566
42296W        W42496  10.614  18.132  15.230 -0.1178 -0.1328  0.0009
42297W        W42497   7.842  17.716   3.420  0.1344  0.0578 -0.0510
42298W        W42498   2.220   6.894   5.715 -0.0532 -0.1160 -0.0136
42299W        W42499   1.359  14.582  11.420  0.0374 -0.1859 -0.2045
42300W        W42500   2.145  17.216   9.303 -0.0874 -0.2724  0.0303
42301W        W42501  17.311   5.442   9.693  0.0373  0.0671  0.3676
42302W        W42502  11.546  17.506   4.458 -0.1496 -0.0734  0.1686
42303W        W42503  14.241   3.584  10.051 -0.0349 -0.1147 -0.0142
42304W        W42504  16.929  11.933  18.099  0.0822 -0.0508  0.1584
42305W        W42505  13.507   1.932   6.116  0.0867  0.0745 -0.0498
42306W        W42506  14.869  14.475   2.939 -0.1436  0.0704  0.1339
42307W        W42507  12.555  10.397   4.072 -0.4319  0.0582 -0.0472
42308W        W42508   1.346   3.344  15.874 -0.2490 -0.3639  0.2309
42309W        W42509   4.578   3.359  11.340 -0.0723 -0.1037 -0.1703
42310W        W42510  12.690  13.765  16.538  0.2289  0.2129 -0.1552
42311W        W42511  15.751   1.013   1.299 -0.2846  0.1548 -0.2303
42312W        W42512   9.929   5.254   0.932 -0.0195  0.0001  0.0335
42313W        W42513   8.272   8.584  15.776  0.0534  0.1855  0.1213
42314W        W42514   1.803  13.844   3.599  0.0361  0.0750 -0.0194
42315W        W42515  14.312   6.913  17.619  0.1774  0.0258 -0.0348
42316W        W42516   2.493   6.764  16.528 -0.1886  0.1157  0.1756
42317W        W42517  11.786  12.222  15.665 -0.0330  0.1526 -0.2327
42318W        W42518   5.398   2.138  17.464 -0.0741 -0.0702 -0.2505
42319W        W42519  12.440  12.183   9.011  0.3988 -0.0110  0.2815
42320W        W42520  12.089   9.222  17.527  0.1710  0.0968 -0.1776
42321W        W42521   0.816   4.463   2.733  0.0572 -0.2375  0.1760
42322W        W42522  10.210  14.336   8.084 -0.0905 -0.1961  0.0862
42323W        W42523   0.407  14.463  15.832  0.0772  0.2297 -0.0222
42324W        W42524  14.875  15.609  14.966  0.0054  0.2805  0.2591
42325W        W42525  14.167   0.331   5.685  0.1752  0.3509 -0.0262
42326W        W42526   4.504   5.172   8.171  0.0797  0.2222 -0.1651
42327W        W42527  17.393  17.978   9.831  0.4258  0.1132 -0.2287
42328W        W42528   3.300  13.539  17.700  0.1030  0.2913 -0.1908
42329W        W42529   3.745   5.561  17.553 -0.1941  0.1221 -0.2218
42330W        W42530   1.756   4.586   6.346 -0.0682 -0.0054  0.1237
42331W        W42531  16.724  10.842  14.089  0.0981 -0.3792 -0.3629
42332W        W42532   3.429   0.322   3.355  0.0933  0.0767 -0.5083
42333W        W42533  13.121   6.880  17.913 -0.1491 -0.0671  0.0428
42334W        W42534   2.201  15.602   2.047  0.2664  0.0070  0.0726
42335W        W42535  10.962   0.403   6.685 -0.2123  0.2975  0.1549
42336W        W42536   1.939   5.914  13.854 -0.0494  0.0512 -0.2046
42337W        W42537  10.023  10.459   2.830  0.0180  0.1237 -0.2122
42338W        W42538   9.445   3.282  16.721  0.3247  0.1667  0.0479
42339W        W42539  12.396  11.687  16.023 -0.0299 -0.2328  0.1227
42340W        W42540  14.951   1.037   8.945  0.1197  0.1714  0.2561
42341W        W42541  11.764  16.070   2.687 -0.0989  0.3057 -0.0384
42342W        W42542  14.344  14.877   8.774  0.3055 -0.0179  0.1853
42343W        W42543  18.165   0.187  17.918  0.2546  0.0100 -0.0757
42344W        W42544  15.230  10.704  17.301 -0.1290  0.1315  0.0097
42345W        W42545   0.048  11.948  15.745 -0.0827 -0.0158 -0.0910
42346W        W42546   7.214  13.706  16.389  0.0749  0.0335 -0.1449
42347W        W42547  16.480   1.582   3.056 -0.0154 -0.0735  0.2848
42348W        W42548   3.970  13.459  16.349  0.0059 -0.6125  0.0217
42349W        W42549  15.778   6.232  15.693  0.0243 -0.1302  0.2692
42350W        W42550  15.516  11.758   3.029 -0.1047  0.3336 -0.2629
42351W        W42551  16.981   1.306   4.034 -0.1528  0.1568  0.0215
42352W        W42552  17.063   8.208  13.871 -0.1273  0.3001 -0.0948
42353W        W42553  10.798   4.698  10.843 -0.0104  0.0807 -0.1480
42354W        W42554  12.284   9.327  15.855  0.0583  0.0765 -0.1326
42355W        W42555   0.280   2.511   0.345 -0.2130  0.0401  0.1216
42356W        W42556  14.850  10.864  17.650 -0.1133  0.3016 -0.1163
42357W        W42557   5.607  11.753   5.201  0.0756 -0.0593  0.0135
42358W        W42558   9.150   6.638  12.789  0.0453  0.0374 -0.2425
42359W        W42559  17.945  11.599  14.004  0.0255 -0.2847  0.0121
42360W        W42560  13.900   6.658   6.835 -0.4274 -0.1707  0.0986
42361W        W42561  16.247  13.359   1.874  0.0384  0.2313  0.3892
42362W        W42562  17.299   5.963   1.688  0.0563 -0.0370 -0.1484
42363W        W42563   3.230   9.252   6.476  0.0677 -0.0829  0.2954
42364W        W42564  12.405   4.141   1.229  0.0207  0.0535  0.1378
42365W        W42565  10.032  11.884   8.517  0.0250  0.2080 -0.0325
42366W        W42566   1.340   0.609   0.724 -0.2906  0.1366  0.0032
42367W        W42567  16.872   3.826  13.927 -0.0372  0.1768 -0.0218
42368W        W42568   5.160   5.377   0.095  0.4167 -0.1874 -0.2683
42369W        W42569  18.125   6.620   7.193  0.2681 -0.0644 -0.0045
42370W        W42570  17.445   0.884   4.302 -0.0407 -0.1760  0.0661
42371W        W42571  11.099   8.766   6.650 -0.1338 -0.0946 -0.1659
42372W        W42572  12.235  11.027   5.357 -0.1410  0.1901  0.0332
42373W        W42573   3.067  10.854  15.114  0.2802 -0.1697  0.0718
42374W        W42574   0.455  16.468   6.024 -0.4434  0.0667  0.2322
42375W        W42575  15.714  17.351   0.519 -0.0996  0.0488  0.0389
42376W        W42576   9.228   8.747   3.279 -0.2524  0.0719 -0.1247
42377W        W42577   0.875  10.914   4.433 -0.0595  0.4854  0.0127
42378W        W42578  13.354   4.162  14.048  0.2311  0.0508  0.0661
42379W        W42579   2.975   3.401  16.512 -0.1856 -0.0031 -0.1068
42380W        W42580   2.460   2.581   2.616 -0.0472  0.1116 -0.3542
42381W        W42581  16.432   9.921   4.864 -0.3305  0.0421 -0.1981
42382W        W42582   3.950   0.981  10.851  0.0006  0.0251  0.4448
42383W        W42583  17.452   6.642   1.355  0.0722  0.0768  0.0111
42384W        W42584  13.760   5.382   3.390 -0.1825 -0.0141  0.2521
42385W        W42585   4.284   0.778   1.943  0.0742 -0.0207  0.1961
42386W        W42586   0.089   9.598   4.748 -0.5253  0.0656 -0.1748
42387W        W42587  17.794  13.117   4.585 -0.0101 -0.2507 -0.0053
42388W        W42588   3.310   8.339  17.457  0.0252 -0.1408  0.1235
42389W        W42589  12.220   7.631   8.104 -0.1496  0.0143 -0.0215
42390W        W42590  16.519   0.420  15.406  0.3189 -0.0857  0.2245
42391W        W42591  16.283   7.314  16.902  0.1252  0.0400  0.1055
42392W        W42592   8.383  11.631  10.864 -0.1636  0.2113  0.0677
42393W        W42593  14.365   8.240   0.550  0.0193  0.5095 -0.2015
42394W        W42594  16.455   7.852   8.299 -0.0669 -0.2773  0.0874
42395W        W42595   1.459   3.333   5.770 -0.0025  0.0451 -0.1493
42396W        W42596   8.352   6.092   8.010  0.1728  0.1581 -0.0665
42397W        W42597  14.803   7.296   5.247 -0.0566 -0.2370 -0.4144
42398W        W42598  12.406   4.084   9.483  0.0487 -0.1328 -0.1189
42399W        W42599   4.875   0.570   4.201 -0.2004  0.0703  0.2040
42400W        W42600  15.406   5.300  12.969 -0.1906  0.0167  0.0894
42401W        W42601   4.939   6.137   2.220 -0.1767 -0.2290 -0.0952
42402W        W42602  14.009  18.204   6.367 -0.1439 -0.2654 -0.0883
42403W        W42603  13.809   2.734   3.994 -0.0593  0.2649 -0.2282
42404W        W42604   3.290  13.689  17.102  0.2656  0.2566  0.0556
42405W        W42605   4.272   7.574  12.354 -0.4280  0.3116  0.0226
42406W        W42606  17.174   8.641   1.888  0.1031 -0.0128  0.0571
42407W        W42607  13.384  13.288  16.068 -0.2534  0.1228  0.0768
42408W        W42608  18.142  16.200  13.828  0.2623 -0.0613 -0.0538
42409W        W42609  16.361   6.834   6.759 -0.0527  0.1111  0.0313
42410W        W42610  14.323   0.750   7.846  0.1138 -0.0302 -0.0795
42411W        W42611   0.408   0.755   0.376  0.0216  0.0312 -0.3278
42412W        W42612   8.708   4.665   0.824  0.1718  0.3024  0.0108
42413W        W42613   0.714  15.986   4.211 -0.1067 -0.2145  0.3485
42414W        W42614   5.170   1.695   6.458 -0.0330 -0.0723 -0.1043
42415W        W42615  14.953  13.580  10.714 -0.0695 -0.1031  0.0216
42416W        W42616   3.392   7.162   4.942 -0.0194 -0.3708  0.0585
42417W        W42617  10.430  13.341   9.385 -0.2664 -0.2108  0.0576
42418W        W42618   1.890   6.434  10.494  0.1562  0.1121 -0.0767
42419W        W42619   8.798   2.061  17.880  0.1647  0.0442  0.0808
42420W        W42620   1.720   4.697   3.055  0.0669  0.1842  0.0373
42421W        W42621  15.029   9.114   5.701 -0.0623 -0.2102 -0.2123
42422W        W42622   4.992   8.123   4.306  0.0842  0.0684 -0.1486
42423W        W42623   9.632   4.477   7.079 -0.0057  0.0374  0.0801
42424W        W42624   7.253   9.277   2.998 -0.0275  0.0586 -0.0204
42425W        W42625  13.348   9.931   3.531  0.4146 -0.2928  0.1274
42426W        W42626   2.234  17.671   4.057 -0.1266  0.1171 -0.4332
42427W        W42627   2.804   6.057   2.043  0.0890  0.0287 -0.1023
42428W        W42628  14.907   1.012  12.892 -0.1690  0.2625 -0.2847
42429W        W42629   0.520   7.355   4.572  0.2117  0.1114  0.1822
42430W        W42630  16.871  11.347   5.529 -0.3776 -0.0630  0.0325
42431W        W42631   5.403  17.717   9.268 -0.0070 -0.0123 -0.1424
42432W        W42632   5.740  16.402  12.253  0.0241  0.1797  0.2307
42433W        W42633   8.962   4.255  11.883  0.1105 -0.2085  0.0319
42434W        W42634  17.859   7.682   3.929 -0.0123 -0.0477 -0.5499
42435W        W42635  13.133   8.166   0.851 -0.0319 -0.0329  0.1726
42436W        W42636   2.741   8.515  15.283  0.0748 -0.1942  0.1982
42437W        W42637  12.071   7.346  16.928  0.2816  0.0365  0.1228
42438W        W42638  17.664  14.268  12.273 -0.0851 -0.1456  0.0650
42439W        W42639   1.963   7.679   3.019  0.1350  0.1090 -0.0617
42440W        W42640  15.828  15.933   4.671  0.1923  0.1731  0.2328
42441W        W42641   3.619   4.743  14.635  0.1106 -0.2060 -0.1309
42442W        W42642  14.509   0.962   9.672 -0.0360 -0.3046 -0.1325
42443W        W42643  12.162   1.265  11.108 -0.0636  0.1940  0.1272
42444W        W42644   2.954  10.391   2.530 -0.2963  0.0140 -0.2296
42445W        W42645  14.288   4.717   8.053  0.0284 -0.1997 -0.2323
42446W        W42646   1.561   1.847   6.680  0.1855 -0.2636  0.0386
42447W        W42647  11.183   9.983   2.778 -0.4465 -0.3245  0.0010
42448W        W42648   9.064   3.963  14.455 -0.0985  0.5838  0.0283
42449W        W42649   4.313   3.358   6.911 -0.0005  0.0749 -0.0386
42450W        W42650   6.028   9.919   2.438 -0.4480  0.1935 -0.2725
42451W        W42651  16.641   8.096   5.902  0.0662  0.0932  0.1845
42452W        W42652   7.285   0.323   8.602  0.0439 -0.2333  0.1395
42453W        W42653   1.324  12.898   1.303 -0.1477 -0.0333 -0.0291
42454W        W42654  17.263   6.717  11.141  0.0009 -0.0511 -0.0200
42455W        W42655   7.768   0.545   2.833 -0.1830 -0.4893 -0.0202
42456W        W42656   0.947   5.717   6.107  0.1158  0.1412 -0.0959
42457W        W42657   5.906  15.893   5.726 -0.0124 -0.2778  0.0225
42458W        W42658   1.426   7.445  11.443  0.0864 -0.1394  0.0595
42459W        W42659  13.497   6.323   0.502 -0.2327 -0.0272  0.0337
42460W        W42660   3.460   6.348   4.809  0.0395 -0.1196  0.2548
42461W        W42661  10.354   5.545   9.629  0.1802  0.0229  0.1851
42462W        W42662  10.539   4.823   6.067  0.3498  0.5418  0.0793
42463W        W42663  13.790   6.194   2.870  0.0624  0.0749 -0.0350
42464W        W42664  16.603   8.589  14.432 -0.0493 -0.0340 -0.3824
42465W        W42665  14.327   7.968   3.647 -0.1255 -0.1323 -0.4412
42466W        W42666   6.393   7.417   0.204 -0.2494 -0.1320  0.2010
42467W        W42667   8.169   6.585   9.140  0.0761 -0.0886 -0.3533
42468W        W42668  11.471  16.791   0.438 -0.1570  0.1940 -0.0860
42469W        W42669   0.105   3.674   7.378 -0.0778  0.1686  0.0619
42470W        W42670   9.642   0.485   8.986 -0.2284 -0.0110  0.1521
42471W        W42671  17.563   1.984   8.712 -0.3559 -0.0284 -0.2346
42472W        W42672  11.056   8.578  13.572  0.1004  0.2095  0.0518
42473W        W42673   7.560  17.600   7.309  0.0483 -0.1282 -0.0211
42474W        W42674   1.900   3.789   3.200 -0.2355  0.0764 -0.1985
42475W        W42675  16.318   5.886  12.271  0.1714  0.1051 -0.1047
42476W        W42676  15.113   4.857  10.375  0.1650 -0.2364  0.1407
42477W        W42677  14.308  16.184   2.124  0.1217  0.3321 -0.0077
42478W        W42678  16.194  12.822  10.919  0.0526 -0.0762 -0.0003
42479W        W42679  15.043   7.659  10.798  0.0240 -0.2116  0.1170
42480W        W42680   4.473   1.729   1.567 -0.0585 -0.2882  0.1499
42481W        W42681  13.462  17.419  17.214  0.1159  0.2653  0.3654
42482W        W42682   4.243   1.261   5.807  0.0903  0.0423  0.2709
42483W        W42683   2.783   2.954  14.110  0.1693  0.0776 -0.0482
42484W        W42684  13.833   2.868   0.077  0.0804  0.1730 -0.1651
42485W        W42685   3.168   7.497  15.249 -0.0458 -0.2047  0.1129
42486W        W42686  11.301   1.123   0.783  0.2103  0.1877  0.1495
42487W        W42687  14.973   3.696   0.802  0.2108  0.2428 -0.1798
42488W        W42688   5.456  16.189   2.970 -0.3495 -0.0357  0.0804
42489W        W42689  14.713   1.982   5.367 -0.1756  0.3210  0.3605
42490W        W42690  13.317   8.026   3.696  0.2723 -0.1579  0.0298
42491W        W42691  14.681   9.292   1.475  0.3429  0.4905  0.2363
42492W        W42692   1.539  16.164  16.608  0.0824  0.0326 -0.0953
42493W        W42693  16.073  15.104  10.571  0.2416  0.0345  0.0056
42494W        W42694  14.644   5.709   5.085  0.0251 -0.0036  0.1140
42495W        W42695   3.201   7.029  10.291 -0.0373 -0.0215  0.2135
42496W        W42696  16.503   5.068  12.033 -0.1152 -0.2455 -0.0797
42497W        W42697   8.310  10.950  15.290  0.2764  0.2269 -0.0055
42498W        W42698  13.314   9.270   4.253  0.0054  0.0007 -0.0643
42499W        W42699  18.091   8.698   7.974  0.1069  0.0035 -0.1101
42500W        W42700   3.721  16.246   2.345  0.5336  0.0805  0.0871
42501W        W42701   8.394   9.625   6.314  0.3555  0.1755  0.0185
42502W        W42702  13.927   6.524   3.251  0.5973 -0.3571 -0.0703
42503W        W42703   6.353  16.307  11.549  0.0055 -0.0046  0.1788
42504W        W42704   0.679  13.869  10.121 -0.2007  0.0294  0.0420
42505W        W42705   2.156   9.396  16.885 -0.0447 -0.1144  0.1007
42506W        W42706   2.220   6.590  17.898 -0.2436 -0.1123 -0.1398
42507W        W42707   3.136  10.511   7.926 -0.0514 -0.1990  0.0796
42508W        W42708   5.437   9.392  10.250 -0.3827  0.1106  0.0822
42509W        W42709  10.195   7.913   5.754  0.3191  0.1958 -0.1173
42510W        W42710   6.108   0.805   9.270 -0.0659  0.0222 -0.0965
42511W        W42711   4.282   9.295  11.185 -0.2720 -0.0507  0.3480
42512W        W42712  16.374   2.714   9.908  0.2011  0.2339 -0.0427
42513W        W42713   7.843   5.123   8.776  0.1180  0.2338  0.0411
42514W        W42714  15.526   0.079   5.114  0.0781  0.1874 -0.0556
42515W        W42715   1.726   1.894   2.709  0.0542 -0.1640 -0.0148
42516W        W42716  11.971   8.623   6.228  0.0412 -0.0781  0.0122
42517W        W42717   2.215   1.063  16.736  0.0690  0.1063  0.0717
42518W        W42718  14.195   6.430   7.423  0.2185 -0.0472 -0.1866
42519W        W42719   1.460   5.341   6.608 -0.1415  0.0448 -0.2303
42520W        W42720  13.105   7.904  10.882  0.0023 -0.1647 -0.0028
42521W        W42721   5.455   8.680   0.037  0.4641 -0.3843  0.2970
42522W        W42722  11.146   2.211  12.729 -0.2027  0.0382  0.4084
42523W        W42723  16.702   8.543  15.161 -0.0500  0.4386 -0.2043
42524W        W42724   7.397   6.219   2.938  0.1410  0.0794 -0.0090
42525W        W42725   3.313   3.291   4.189 -0.0765  0.1274  0.0062
42526W        W42726   0.723   1.942  12.817 -0.0840  0.1961 -0.2519
42527W        W42727   4.085   8.947   1.449  0.1824 -0.0810 -0.0260
42528W        W42728  14.373   3.956  10.854  0.0583  0.0781 -0.2029
42529W        W42729   8.658   2.582   1.244  0.0334  0.4149 -0.0639
42530W        W42730   1.218   0.179  16.918 -0.0203  0.0863  0.1452
42531W        W42731   8.950   4.922   5.091 -0.3266 -0.1349  0.0171
42532W        W42732   9.405   0.462  10.281  0.0107 -0.2227  0.1040
42533W        W42733  14.644  17.284   4.963  0.1055 -0.1178 -0.0773
42534W        W42734  15.106   6.195   6.554  0.2143 -0.1603 -0.2132
42535W        W42735  13.446   3.479  10.207 -0.1398  0.2441 -0.1255
42536W        W42736  10.519   1.068  13.006 -0.0044  0.0198  0.2023
42537W        W42737   3.825   9.072   8.470 -0.0742 -0.1515  0.2212
42538W        W42738   3.046   6.329   7.095 -0.0236 -0.1964 -0.1208
42539W        W42739  12.543   8.932   0.937 -0.1890 -0.2549  0.0104
42540W        W42740   5.222  11.235   4.683 -0.0216  0.0636  0.2823
42541W        W42741   2.044   4.101  13.645 -0.0904 -0.2564 -0.1120
42542W        W42742  17.501   0.025   3.355  0.1270  0.2509  0.1021
42543W        W42743  10.856   7.726   7.635  0.2592 -0.1859  0.1162
42544W        W42744   6.252   5.624   1.263 -0.2729  0.0324 -0.1073
42545W        W42745  10.775  13.087  10.768 -0.2066 -0.0645 -0.0773
42546W        W42746  13.774   4.911   2.437  0.0905  0.2924 -0.1709
42547W        W42747  17.345  14.981  14.959  0.1469  0.1611 -0.0950
42548W        W42748   6.532   6.608   1.890 -0.1458 -0.0846  0.2962
42549W        W42749   1.417   6.225   8.692 -0.2433  0.1830 -0.0738
42550W        W42750   4.578  16.163   3.402 -0.1941 -0.1884 -0.0696
42551W        W42751  17.329   5.517  10.652 -0.0269  0.1242 -0.0799
42552W        W42752   0.134  10.905  11.196 -0.0060  0.4369 -0.1774
42553W        W42753   0.171   3.855   6.095  0.2266  0.1965  0.3076
42554W        W42754   1.303   6.973   2.618  0.1577  0.1798  0.2495
42555W        W42755  11.192   5.193   4.593 -0.0101 -0.0849 -0.3286
42556W        W42756   6.300   0.498   7.047  0.2602 -0.0602  0.2136
42557W        W42757   0.935   2.191   9.174  0.0116 -0.0736  0.0987
42558W        W42758  13.053   6.580   0.487  0.0328  0.3474 -0.3511
42559W        W42759   7.667   0.623   4.058 -0.2479  0.1681  0.1162
42560W        W42760   4.141   4.083   5.027  0.1935  0.0617  0.0603
42561W        W42761  16.604   2.750   0.641 -0.2067 -0.1068 -0.0953
42562W        W42762   9.743  15.009   5.339 -0.3277  0.3997  0.1287
42563W        W42763  13.640   3.227   1.687 -0.2318  0.0200  0.0041
42564W        W42764  12.880   3.294   0.022  0.4237  0.2007 -0.0946
42565W        W42765   0.744   4.366  15.024  0.1051  0.1136 -0.0727
42566W        W42766   2.775   2.597   5.850  0.0210 -0.1530 -0.0223
42567W        W42767  11.807   8.773  17.862 -0.1218 -0.1715  0.1298
42568W        W42768  13.323   6.760   7.575 -0.3367 -0.0306 -0.0874
42569W        W42769  17.960   4.207   6.078 -0.0197 -0.4833  0.0083
42570W        W42770   8.609  17.701   0.418 -0.0334  0.1225  0.2412
42571W        W42771  16.121   9.363   1.957 -0.0863 -0.1592  0.1753
42572W        W42772   0.971   0.821  15.877 -0.3217 -0.0250 -0.1392
42573W        W42773  13.432  16.373  11.081 -0.0038  0.2781 -0.3687
42574W        W42774   7.559  15.743  14.737 -0.3198 -0.0533  0.0325
42575W        W42775  15.677   7.484   6.274 -0.1402 -0.0750 -0.1460
42576W        W42776   0.247  16.184   3.304  0.0405 -0.0065 -0.1329
42577W        W42777  11.831  11.865   1.552 -0.1259  0.3845  0.1925
42578W        W42778  12.973   6.687   4.850 -0.0104 -0.0095  0.0629
42579W        W42779   1.067   0.078   0.010 -0.0845  0.0968  0.3196
42580W        W42780  16.119   7.613   8.644 -0.0277 -0.0429 -0.2893
42581W        W42781  16.585   4.180   3.807  0.0216 -0.0100  0.0016
42582W        W42782   1.474  10.639   4.679 -0.2102  0.0077 -0.1300
42583W        W42783  11.806   3.546  12.818  0.0237 -0.1925 -0.0756
42584W        W42784  13.904  14.515   8.047 -0.0420  0.0174 -0.1578
42585W        W42785  14.100   9.342   5.905 -0.0940  0.3199 -0.0450
42586W        W42786  13.146   9.286   1.560 -0.0301  0.4478 -0.1131
42587W        W42787   1.594   7.887   3.793 -0.4106  0.2345 -0.2235
42588W        W42788   3.503   0.354  13.889  0.1442  0.1551  0.0551
42589W        W42789  15.134  16.624  17.556 -0.2465  0.0990  0.0550
42590W        W42790  14.262   3.047   5.852  0.1567 -0.1251 -0.0073
42591W        W42791  13.050   9.279   5.338 -0.1856  0.0828  0.0000
42592W        W42792  12.605  17.419   9.573  0.2553  0.3938  0.1133
42593W        W42793   7.546  14.569   3.366  0.0894 -0.0587  0.2735
42594W        W42794  13.884   9.425  10.471  0.1372 -0.0751 -0.1105
42595W        W42795  14.472  11.091   4.296  0.2588 -0.1572  0.1710
42596W        W42796  15.042   2.915  17.588 -0.2219  0.1909 -0.3364
42597W        W42797  11.001   3.937   7.411  0.2283 -0.1304 -0.1010
42598W        W42798  14.610   2.328   2.957 -0.0577 -0.2481  0.0092
42599W        W42799  12.197   9.122   2.101  0.0417  0.0503 -0.0166
42600W        W42800   1.553  16.746  17.136  0.1050  0.0763  0.1442
42601W        W42801  13.173  12.823   9.969  0.0634 -0.2030  0.3720
42602W        W42802  10.585  11.610   8.147  0.2355 -0.2050 -0.1449
42603W        W42803   9.600   9.026  13.023  0.2306  0.0923 -0.0706
42604W        W42804   8.693  15.248   7.195 -0.2703 -0.1005 -0.1081
42605W        W42805  18.168  10.241  14.649 -0.0567  0.0999 -0.1175
42606W        W42806   4.504   1.131   6.219 -0.1521  0.0449 -0.0623
42607W        W42807  17.016   8.597   3.609 -0.1996 -0.1224 -0.1141
42608W        W42808  10.118   2.478   2.440 -0.2467  0.4908  0.0239
42609W        W42809   4.898   6.905   5.070 -0.0714  0.0760  0.0233
42610W        W42810   0.452   4.973  17.529 -0.0985 -0.2774 -0.2543
42611W        W42811  10.684   7.656   0.859 -0.2255 -0.0147 -0.1873
42612W        W42812   7.481  15.989   2.359 -0.0558 -0.1034  0.2433
42613W        W42813  12.487   3.750  16.663  0.1156  0.1295 -0.0193
42614W        W42814  17.051   8.810   5.571 -0.1215  0.2403 -0.2461
42615W        W42815   2.675  10.565   3.340 -0.0701 -0.0277  0.1117
42616W        W42816  12.624   8.337   9.246  0.0249  0.1292 -0.4178
42617W        W42817  10.205   6.512   8.966 -0.0010  0.0802  0.2487
42618W        W42818   3.613   6.193   1.016  0.0954  0.3203 -0.1505
42619W        W42819  17.711   8.916  16.208 -0.0651  0.1185 -0.0374
42620W        W42820  14.054   9.197  17.841 -0.2437  0.0046  0.0497
42621W        W42821  17.774  17.338  10.443 -0.0214 -0.0184 -0.1648
42622W        W42822  16.243   8.097   9.096 -0.1404 -0.0623 -0.0868
42623W        W42823  10.187  16.357  12.134 -0.1146  0.3810  0.1640
42624W        W42824  16.578   6.158   2.397 -0.1087 -0.0908 -0.0610
42625W        W42825  11.588   1.408   2.481 -0.0614  0.1882 -0.0206
42626W        W42826  14.878   4.227   7.577 -0.4039 -0.4446  0.2487
42627W        W42827  11.782   6.987   1.972 -0.1066  0.0052  0.0643
42628W        W42828   0.251   7.902   0.959  0.1558 -0.2047 -0.1414
42629W        W42829  16.236   2.604   7.010 -0.1625  0.2641  0.0293
42630W        W42830   2.541   6.111  14.758 -0.0200  0.2325 -0.1762
42631W        W42831   1.097  11.006  11.402  0.2113  0.0007 -0.2086
42632W        W42832   6.592   0.120   4.811 -0.1217 -0.1012 -0.3037
42633W        W42833   6.340  11.084  16.718 -0.0461 -0.0304  0.3939
42634W        W42834  15.094   0.858   3.031 -0.0067  0.1446  0.1991
42635W        W42835   4.370   1.035   9.547 -0.4913 -0.2032 -0.2595
42636W        W42836   8.398   6.982   2.471 -0.0418  0.1056 -0.2220
42637W        W42837   1.872   8.596  15.748  0.1310  0.0592 -0.0115
42638W        W42838  16.122   3.841   5.652 -0.3036  0.2481 -0.0067
42639W        W42839   0.526   8.016  10.349  0.0823  0.5119 -0.0337
42640W        W42840  16.595   3.781   3.450 -0.1604 -0.1647 -0.1014
42641W        W42841   0.399   2.839  11.388 -0.2817  0.3828  0.1191
42642W        W42842   0.341   9.855   0.715 -0.0400  0.2292  0.0119
42643W        W42843   1.188   5.423   7.066  0.0008  0.0155  0.1202
42644W        W42844   1.088   4.733  16.203 -0.0349 -0.0430 -0.0051
42645W        W42845  14.334   6.879   0.425  0.1617  0.1299  0.1693
42646W        W42846  17.225  13.569  13.771 -0.1873  0.4100 -0.2701
42647W        W42847   5.666   9.827   2.024  0.2194 -0.0040  0.0850
42648W        W42848  10.911  18.053   6.277  0.2077 -0.2307 -0.0958
42649W        W42849  14.338   5.224  11.136  0.0499 -0.0063 -0.4336
42650W        W42850   1.877   5.016   6.633  0.1008  0.1076 -0.0166
42651W        W42851  12.765   9.702   2.820 -0.0179 -0.1007  0.0123
42652W        W42852   1.339   4.827  14.463 -0.0045  0.1418 -0.0185
42653W        W42853   5.794   6.149   3.832 -0.1464 -0.2380 -0.2163
42654W        W42854  15.104  10.700   0.709  0.2177  0.0559  0.0810
42655W        W42855   5.292  13.400  13.661 -0.1965 -0.3045 -0.1236
42656W        W42856  15.686  12.856  15.149  0.1434  0.0852 -0.3078
42657W        W42857   3.067   6.881   1.372 -0.0628  0.0371  0.1315
42658W        W42858  17.635  10.514   5.710 -0.1364 -0.2347 -0.3030
42659W        W42859   5.199   9.403   7.049 -0.0242  0.0619  0.1158
42660W        W42860   0.681   6.253   6.830  0.0685 -0.0809  0.2176
42661W        W42861  12.424  13.652   2.452  0.0428 -0.1616  0.0912
42662W        W42862   0.988   7.322   2.487 -0.0071  0.0784 -0.1329
42663W        W42863  17.995  10.601   9.064  0.0328 -0.1167  0.2873
42664W        W42864  12.849   9.355   2.043  0.1365 -0.1191 -0.0372
42665W        W42865  16.058   4.552  12.030 -0.2741  0.1186 -0.0390
42666W        W42866  14.225   6.133  13.484  0.0805 -0.3936 -0.2071
42667W        W42867  15.267   7.687   5.246 -0.0095 -0.1433 -0.1055
42668W        W42868  11.320   6.466  17.841 -0.2462 -0.0204  0.0173
42669W        W42869  15.436  10.077   3.133 -0.1480  0.1209 -0.3354
42670W        W42870  14.913   4.901   8.670 -0.3428  0.1296  0.0996
42671W        W42871  13.198   9.264   6.126  0.2936  0.1607  0.2957
42672W        W42872   3.586   3.919   2.489 -0.1127 -0.2465  0.0040
42673W        W42873  12.634  11.330  10.710 -0.0975  0.2871  0.0281
42674W        W42874  14.461  12.181   6.798  0.1105  0.2449 -0.0356
42675W        W42875  14.145   7.538   7.336 -0.1661  0.2996  0.0986
42676W        W42876  16.817   8.089   7.900 -0.0629 -0.2486 -0.1397
42677W        W42877  14.887   5.830   6.174  0.3208  0.0455  0.0728
42678W        W42878  10.327   6.981   9.111 -0.3078 -0.2202  0.2610
42679W        W42879  17.563   7.063   0.562 -0.1860  0.1368 -0.2271
42680W        W42880   7.973   7.965  13.682 -0.1356  0.0805  0.0344
42681W        W42881  15.893   4.268   6.479 -0.0032 -0.0402  0.0070
42682W        W42882   5.677   3.981   1.205 -0.2286 -0.0658  0.1506
42683W        W42883  14.419   8.099  15.575 -0.2032 -0.1549 -0.3942
42684W        W42884  15.332   4.384   7.797 -0.0628  0.0047 -0.0735
42685W        W42885   1.386   4.799  17.700  0.1564 -0.0126  0.5552
42686W        W42886  16.664   3.143   7.602 -0.1997  0.2762 -0.0964
42687W        W42887   2.832   4.044   3.706  0.2486 -0.0974 -0.1827
42688W        W42888   3.672   4.052   7.194 -0.2394  0.1019 -0.1312
42689W        W42889  17.902  13.368   3.233  0.1614 -0.1436  0.3838
42690W        W42890   0.754   9.011   6.123 -0.0250 -0.0130  0.0311
42691W        W42891  17.726  12.331   4.836 -0.0745 -0.1634  0.1790
42692W        W42892  14.497  12.179  13.609 -0.0028  0.0087 -0.2930
42693W        W42893  13.722   5.343   6.631  0.3369  0.2106 -0.0343
42694W        W42894   0.817   3.687  15.426 -0.1948 -0.3271  0.1023
42695W        W42895  15.901   8.660   2.179 -0.0876 -0.4131  0.3270
42696W        W42896  14.404   6.788  13.469 -0.1075 -0.0268 -0.0359
42697W        W42897  13.470   8.805  10.105  0.1270 -0.0401 -0.1634
42698W        W42898  13.086   2.118  16.726  0.0769  0.0227  0.3331
42699W        W42899   5.727  10.227   5.573 -0.1421 -0.0182 -0.0995
42700W        W42900   0.072  10.299   6.305 -0.3059  0.1030  0.1283
42701W        W42901   8.271   3.383   4.303  0.1648 -0.1637  0.2019
42702W        W42902  16.796   5.130   1.468  0.1371 -0.3453  0.0437
42703W        W42903  14.731  11.500   0.820  0.0351  0.0752  0.2273
42704W        W42904  17.925  10.995   3.776 -0.3322  0.2578 -0.0241
42705W        W42905   4.971   0.038  13.211 -0.3099 -0.1851  0.1956
42706W        W42906   4.904   5.871   4.345  0.0743 -0.0860  0.1899
42707W        W42907   6.289   9.021   5.550  0.1184 -0.3552  0.0087
42708W        W42908   0.123   6.061   3.104 -0.2655 -0.1596  0.0802
42709W        W42909   2.102   8.990   2.634 -0.0046  0.0962  0.0399
42710W        W42910   7.327   8.088  12.361  0.2886  0.0020 -0.0542
42711W        W42911  10.696  11.332   5.844 -0.1826  0.0484  0.0728
42712W        W42912   1.241   4.253  17.084  0.0119  0.1611 -0.0446
42713W        W42913   2.337   0.352   0.665 -0.3671  0.3256  0.1521
42714W        W42914  12.874  14.097   7.366 -0.0558 -0.1523  0.2155
42715W        W42915  15.003   6.649   5.991  0.0632  0.2419  0.0257
42716W        W42916   4.987   1.606   9.290 -0.0036 -0.1068 -0.1675
42717W        W42917  15.040  10.181   7.668  0.0331  0.2352  0.1799
42718W        W42918  12.987  10.596  16.230  0.0411 -0.2898  0.0251
42719W        W42919   1.152   7.254   4.853  0.1652  0.1218 -0.0233
42720W        W42920  18.071   4.783  12.062  0.0124 -0.3535  0.0195
42721W        W42921   5.764  14.215   1.759 -0.0367 -0.2438 -0.4166
42722W        W42922   6.337   2.605  10.050  0.1523 -0.1895 -0.1216
42723W        W42923   5.144  18.180   2.086  0.2518  0.0714 -0.2338
42724W        W42924  14.304   7.038   9.859 -0.0408  0.2533  0.1639
42725W        W42925   1.063  10.919   8.690 -0.0411  0.0224  0.2655
42726W        W42926   5.371   6.606   5.458  0.0773  0.0671 -0.3033
42727W        W42927  16.607  12.859   3.162  0.0828  0.0397 -0.0030
42728W        W42928  16.735  14.857   4.241 -0.0224 -0.1545  0.0678
42729W        W42929  15.833  15.388   0.383 -0.0981 -0.1119  0.2804
42730W        W42930  16.037   7.089  11.415 -0.3239 -0.1007  0.0421
42731W        W42931  17.586   6.699   2.561 -0.0073  0.2348 -0.1376
42732W        W42932  17.451  10.864   4.743  0.3260  0.0055 -0.2795
42733W        W42933  11.959   7.127   2.461 -0.1465 -0.1081  0.2724
42734W        W42934   0.538  14.112   6.857 -0.1064 -0.1580  0.2204
42735W        W42935  11.249   4.512   7.494  0.0996 -0.0617  0.2417
42736W        W42936  14.108  17.813   3.580  0.0481  0.0858  0.1736
42737W        W42937  15.575  12.996   4.166 -0.0064  0.2224 -0.3334
42738W        W42938  12.577   3.703   2.217 -0.0704 -0.1479  0.2883
42739W        W42939   0.810  10.489   2.193 -0.1983 -0.0377  0.1025
42740W        W42940  17.314  14.235   3.711  0.1686  0.0607  0.2193
42741W        W42941  13.640  15.386   6.842 -0.0050  0.2436  0.2535
42742W        W42942  13.734   3.706   6.113  0.1508  0.1507 -0.0511
42743W        W42943   3.711   1.322   7.457 -0.0477 -0.1579  0.0254
42744W        W42944  17.794  16.459   8.182 -0.1660 -0.2114  0.2029
42745W        W42945  17.003   3.523   3.674 -0.2064  0.2298 -0.1809
42746W        W42946  15.858   6.209   4.768  0.0764  0.1580  0.0189
42747W        W42947  13.018  12.084   0.457 -0.0407 -0.0830  0.0573
42748W        W42948   6.252   1.423  15.411 -0.0720 -0.0827  0.0158
42749W        W42949   7.058  16.273   2.354 -0.0439  0.0509  0.1423
42750W        W42950   0.503   2.539  14.546 -0.2767 -0.2905  0.0639
42751W        W42951  15.139  17.489   6.054 -0.0675  0.0321  0.0861
42752W        W42952   3.249   5.683   3.350 -0.7245 -0.2578 -0.2370
42753W        W42953  15.316   0.752  12.800 -0.0929  0.0099 -0.2676
42754W        W42954  16.856   3.373   5.975  0.1615  0.0266 -0.1080
42755W        W42955   3.821  11.113  11.960  0.2914 -0.0531  0.0497
42756W        W42956  16.102   9.087  10.209 -0.0823 -0.1155 -0.1525
42757W        W42957  16.767  12.991   6.157  0.2446  0.0014  0.0498
42758W        W42958   7.716   8.244   1.131  0.1227  0.0486 -0.1780
42759W        W42959   0.647   2.834   0.407  0.0984  0.1944  0.1222
42760W        W42960  14.355   3.824   1.777  0.0856 -0.2007  0.1867
42761W        W42961  17.041   0.054   4.102  0.1667 -0.0497  0.2972
42762W        W42962   4.155   6.858   6.235  0.1062  0.1389  0.1481
42763W        W42963   6.711  17.490   6.356 -0.0103  0.1268  0.0795
42764W        W42964   0.345   4.514  17.262  0.1874 -0.1452 -0.0473
42765W        W42965   1.361   6.508   2.417  0.0882 -0.2187 -0.1333
42766W        W42966  17.304   2.737   8.217  0.0157 -0.1494  0.1452
42767W        W42967  14.647   3.527   2.056 -0.1365  0.0071 -0.1268
42768W        W42968   1.512   2.615   9.762  0.1393  0.1175  0.1459
42769W        W42969  13.532  15.227   3.787  0.1703 -0.2861 -0.1167
42770W        W42970  12.602   9.905   4.587 -0.1828 -0.2258 -0.3440
42771W        W42971  16.407   0.955   9.926  0.1087 -0.2609 -0.0788
42772W        W42972   8.013   8.301   2.889 -0.4219 -0.0056 -0.0635
42773W        W42973  17.680  17.852  12.126  0.1928 -0.1356 -0.0124
42774W        W42974  15.341   2.948   7.425 -0.1037 -0.2600  0.1516
42775W        W42975  15.275   1.813   5.612  0.1268 -0.1985 -0.1028
42776W        W42976  14.727  16.806   7.272 -0.1683 -0.1338 -0.0749
42777W        W42977   0.382  10.040  13.319 -0.0782  0.0925  0.1756
42778W        W42978  14.208   5.412   1.569  0.1351  0.1360  0.1056
42779W        W42979  16.858  10.364   1.504  0.2139 -0.1203  0.2572
42780W        W42980   3.073   7.650   7.076 -0.2166  0.1023 -0.0040
42781W        W42981  12.857   6.127   0.532  0.2931  0.1233 -0.4606
42782W        W42982  11.785   5.940   5.505  0.2685 -0.1729 -0.0803
42783W        W42983   1.427   9.315   5.127  0.1501  0.0377 -0.0769
42784W        W42984   0.447   0.018   6.094 -0.2030 -0.0082  0.1688
42785W        W42985  17.246  13.565   0.324  0.0245  0.0139 -0.2478
42786W        W42986   6.455  10.500   8.934 -0.2174  0.0130  0.0955
42787W        W42987   2.058  17.938   6.456  0.1594  0.2609  0.0852
42788W        W42988   0.474  10.999   0.302  0.1967  0.2445  0.1543
42789W        W42989  18.206  11.664   5.260  0.1301  0.0911  0.3714
42790W        W42990  16.937  10.891   6.283  0.2411  0.0387  0.1744
42791W        W42991   0.827  12.733  11.879 -0.0922  0.1278 -0.1384
42792W        W42992  17.275   8.386  13.075  0.0240 -0.2171  0.1249
42793W        W42993  14.641   9.336   4.473 -0.5191  0.1064 -0.2119
42794W        W42994   7.111   7.945  11.440 -0.0425 -0.5150 -0.2801
42795W        W42995  14.524   7.114   4.726 -0.1355  0.0009  0.1929
42796W        W42996  18.039   3.398  11.963  0.3482  0.2395  0.2679
42797W        W42997  14.735   9.127  10.459 -0.1361  0.0930  0.3317
42798W        W42998   2.824   1.392  17.947 -0.0664 -0.2851 -0.1007
42799W        W42999  13.351   4.543  17.748  0.1478  0.0605  0.1269
42800W        W43000  16.679   8.120  14.278  0.0287  0.1324 -0.0436
42801W        W43001  11.994   3.312   1.399  0.1427 -0.2699  0.2465
42802W        W43002  12.661   3.359   2.613 -0.0755 -0.1564  0.5032
42803W        W43003  17.143   7.474   6.628 -0.0417 -0.1619 -0.2227
42804W        W43004   1.727  17.563   5.350  0.1284  0.0999  0.0407
42805W        W43005   8.345   7.248   6.760  0.2542  0.0697  0.0664
42806W        W43006  16.269   4.523  10.954  0.0090 -0.5458  0.2717
42807W        W43007  13.906   9.357   0.146  0.0593 -0.0371  0.1315
42808W        W43008  13.549   7.551  14.640  0.1696 -0.1977 -0.1329
42809W        W43009  17.499   0.891  13.618 -0.3960  0.0739  0.3397
42810W        W43010  14.012  16.866  11.172 -0.1623 -0.1089  0.0392
42811W        W43011   1.126  10.922   4.935  0.0755 -0.0252 -0.2094
42812W        W43012  16.141   8.001   9.716 -0.0911 -0.0663  0.1357
42813W        W43013  18.080   5.204  11.823 -0.1317 -0.2325  0.3080
42814W        W43014   3.054  10.056   4.492 -0.0018 -0.0501 -0.2776
42815W        W43015   4.120   6.061  13.298  0.1261 -0.1411 -0.3707
42816W        W43016   5.739   8.052   0.864 -0.1576 -0.0252 -0.0747
42817W        W43017  15.537  17.041   9.555 -0.3305 -0.1677  0.0009
42818W        W43018  11.762   1.885   8.287 -0.0954 -0.0065 -0.1100
42819W        W43019   6.574   5.803  10.044 -0.1000  0.0146 -0.1920
42820W        W43020  13.263   7.937   4.224  0.0510 -0.1324  0.1510
42821W        W43021   0.533   6.202  14.246  0.0382 -0.0683  0.1345
42822W        W43022   0.903  15.402   8.054 -0.0499 -0.1187  0.2404
42823W        W43023   1.027   5.303  15.256 -0.0324 -0.1236 -0.1703
42824W        W43024  15.087   8.442  13.503  0.2778 -0.2994 -0.2300
42825W        W43025   8.662   1.396   8.781  0.0885  0.0812 -0.2626
42826W        W43026   4.399   6.791   9.495 -0.1390 -0.0608 -0.2322
42827W        W43027   9.922  11.129   5.323  0.2707  0.0632  0.0167
42828W        W43028   0.427   0.376  11.572 -0.0348  0.0511  0.0508
42829W        W43029   0.763   5.923  16.148 -0.2921 -0.1561  0.2524
42830W        W43030  14.698   9.584  16.450  0.1791 -0.1043 -0.1075
42831W        W43031   2.244   8.060   7.051 -0.0796 -0.0413 -0.2551
42832W        W43032   0.749   2.179   7.817 -0.3809 -0.1149 -0.0447
42833W        W43033  12.222   9.009  10.972  0.0466 -0.0328 -0.0430
42834W        W43034  12.266  12.058   0.667 -0.2614 -0.5533  0.0876
42835W        W43035  10.935   8.602  17.203  0.0566  0.1281  0.1013
42836W        W43036   4.416   9.737   3.722 -0.0307  0.1649  0.4114
42837W        W43037   8.327   2.076   6.482 -0.0057  0.1556 -0.0977
42838W        W43038   3.839  11.753   4.953 -0.1254  0.2764 -0.2886
42839W        W43039   8.012  10.422   6.070  0.1947 -0.2201  0.0392
42840W        W43040  14.754   4.340  10.801  0.2478 -0.2732  0.0097
42841W        W43041   1.482   9.456  17.123  0.0597 -0.2467  0.0425
42842W        W43042  13.335   3.890  15.525 -0.2445 -0.0951  0.6034
42843W        W43043  15.753  14.641   5.931 -0.1877 -0.0414 -0.0611
42844W        W43044  10.407  13.656  16.340 -0.0181  0.0557  0.1090
42845W        W43045  16.964   4.582   6.783  0.1608 -0.0670  0.1087
42846W        W43046  13.560   5.547   7.145  0.2392 -0.2094  0.0204
42847W        W43047  12.262   0.714   6.376 -0.1566 -0.1551 -0.1824
42848W        W43048  15.492  16.263   9.987  0.3987  0.3759 -0.2356
42849W        W43049   3.052   4.503   8.997 -0.0525  0.1543  0.0953
42850W        W43050   3.767   8.934   7.704  0.0421  0.1494 -0.0240
42851W        W43051  12.421  11.503   8.231 -0.0877 -0.1668 -0.0767
42852W        W43052   9.929   6.451   0.504 -0.2044 -0.1947 -0.1542
42853W        W43053   4.013   0.982   9.935 -0.0847 -0.1004 -0.0196
42854W        W43054  14.251   9.220   4.134 -0.0732  0.0259 -0.0270
42855W        W43055  10.433  16.708  13.118 -0.0988  0.0118  0.0426
42856W        W43056   0.347   0.596  15.778 -0.1429  0.0887  0.1068
42857W        W43057   9.555   7.913   2.584  0.1645  0.1936  0.2300
42858W        W43058   1.520  17.408   0.937  0.3125 -0.0380  0.5405
42859W        W43059  11.950   9.177  12.188  0.1330 -0.0731  0.0070
42860W        W43060  15.796  17.748   5.899  0.2741  0.0734 -0.0190
42861W        W43061   6.158  11.723  10.908  0.0833  0.0964 -0.0449
42862W        W43062   9.218   7.973   5.759  0.1512  0.0591  0.1180
42863W        W43063   0.848  11.849  11.433  0.1047  0.1597 -0.0597
42864W        W43064   2.241   9.092   5.482  0.0109  0.2972 -0.1608
42865W        W43065   2.707  12.158   7.069  0.0579 -0.0129 -0.2512
42866W        W43066   5.011   0.480  12.258  0.1742 -0.1746  0.0062
42867W        W43067  11.961   9.763  12.564  0.1662 -0.0345  0.4031
42868W        W43068  13.925   6.683   3.776 -0.0426 -0.3040 -0.0686
42869W        W43069   1.561   2.182   4.563 -0.1455  0.0422 -0.1780
42870W        W43070  10.252   4.576   6.429  0.0360 -0.1933  0.0083
42871W        W43071  14.032   1.285   9.973 -0.1885  0.1181  0.1540
42872W        W43072  11.266   0.375  14.086 -0.0852 -0.2165  0.1072
42873W        W43073   1.911   4.800  10.855  0.2847  0.0706  0.0856
42874W        W43074   3.492   9.806  11.470 -0.2891 -0.0116 -0.0696
42875W        W43075  10.417   1.940  11.847 -0.0773 -0.2298  0.0542
42876W        W43076  13.796   0.515   9.736 -0.1633  0.1319  0.1400
42877W        W43077  17.188  10.142  15.445 -0.0511  0.2156 -0.1464
42878W        W43078  14.639  15.468   9.933  0.3301 -0.0618 -0.4965
42879W        W43079   2.410   6.248   3.377 -0.0169 -0.0698  0.0175
42880W        W43080  16.146   7.610  10.556  0.0953  0.0184 -0.2332
42881W        W43081  14.910   2.132   7.958 -0.0941 -0.0218  0.1451
42882W        W43082   1.879   3.366  15.281 -0.0002 -0.0377  0.4453
42883W        W43083  11.438   6.900   6.037 -0.4507  0.1386  0.6318
42884W        W43084   2.695   5.315   8.491  0.3466  0.0687 -0.1362
42885W        W43085   6.719  17.606  15.047 -0.4048  0.1087 -0.2611
42886W        W43086   1.306   2.453  11.407  0.0663  0.0063  0.0329
42887W        W43087  17.503  14.045   6.174 -0.0313 -0.1518 -0.0609
42888W        W43088  13.302   3.341  17.241  0.1523  0.5041 -0.1020
42889W        W43089  12.527   6.510   4.953  0.1247 -0.0161 -0.4480
42890W        W43090   4.645   8.230   9.212  0.0526  0.1141 -0.0248
42891W        W43091   6.252   9.479  17.560  0.1394 -0.0464  0.2468
42892W        W43092   8.622   3.898  18.006 -0.0627 -0.0095 -0.2337
42893W        W43093   7.697   5.400   6.166 -0.1038  0.0902 -0.1251
42894W        W43094  15.724  11.572  14.437  0.0255  0.2111  0.1694
42895W        W43095  16.830  12.389   6.049  0.0949  0.0695 -0.0821
42896W        W43096   4.583   2.456   8.124 -0.0250  0.1207 -0.0767
42897W        W43097   0.560   0.634   5.308  0.0200 -0.3542 -0.1522
42898W        W43098  13.406   9.503  14.563  0.2205  0.2570 -0.2673
42899W        W43099   0.799   3.025   4.754  0.0760 -0.0789  0.1327
42900W        W43100  13.512  15.538   4.939  0.0823  0.0351  0.3423
42901W        W43101   5.428  11.881   7.610  0.0287 -0.0418 -0.0221
42902W        W43102   2.354   1.636   9.464 -0.2863 -0.2156 -0.0076
42903W        W43103   2.528  10.244   9.020  0.0019  0.0486 -0.0833
42904W        W43104   0.941   9.658   6.306  0.0177 -0.1338  0.0538
42905W        W43105   3.131   9.629   2.432 -0.1093 -0.2670 -0.0674
42906W        W43106  11.165   1.903   3.717  0.0265 -0.2888  0.0849
42907W        W43107  10.449   3.319   9.878 -0.0293 -0.1974 -0.2495
42908W        W43108   0.804   4.291   6.851 -0.1741  0.2070 -0.1022
42909W        W43109   2.441  16.648   1.747 -0.3240  0.0855 -0.0829
42910W        W43110  13.183  17.820  14.418  0.1987 -0.1175 -0.0379
42911W        W43111  11.706  11.973  12.705  0.2280 -0.1887  0.0042
42912W        W43112  17.020   4.073   9.777  0.0922 -0.3320 -0.0530
42913W        W43113  13.965   9.033  10.063  0.1704 -0.2509  0.1589
42914W        W43114  11.126   6.992   5.652 -0.0533 -0.0562  0.3677
42915W        W43115  15.599   4.823  13.029  0.1589 -0.1279 -0.0529
42916W        W43116  14.855   9.885  17.307  0.2258 -0.0981 -0.1229
42917W        W43117   3.557   3.354  16.633  0.1592  0.0763  0.1134
42918W        W43118  16.568   3.231  12.468  0.0453  0.1264  0.0725
42919W        W43119   4.616   5.158   7.642  0.0321 -0.1252  0.0475
42920W        W43120   3.642   5.101   6.739  0.2192 -0.1023 -0.0378
42921W        W43121  14.255  14.935   5.743  0.0281  0.1509  0.1640
42922W        W43122   8.657  11.408  12.046 -0.3375  0.0259 -0.1801
42923W        W43123  17.591   5.088  14.967  0.3591  0.2765 -0.0848
42924W        W43124   3.830   9.371   7.761 -0.0429  0.0402  0.1209
42925W        W43125  13.697   1.438  12.094 -0.0839  0.0101  0.1592
42926W        W43126  13.707  15.366   0.250  0.0366 -0.1909  0.0580
42927W        W43127  17.186  16.416  10.455  0.1118 -0.3275 -0.0849
42928W        W43128  18.088   6.185   6.297  0.2339 -0.2904 -0.3443
42929W        W43129   4.208   8.914   3.825  0.4523  0.0468 -0.1357
42930W        W43130  17.173  10.436   3.672  0.2264  0.2644 -0.2117
42931W        W43131   6.489   4.802   0.146 -0.3891 -0.0162 -0.0492
42932W        W43132  13.988   7.525  13.127  0.0700 -0.0151 -0.1030
42933W        W43133  10.354   7.051   5.041 -0.0745  0.0805  0.0542
42934W        W43134  13.309   6.464  15.394 -0.0179  0.0933 -0.1393
42935W        W43135  14.440   7.545   5.067  0.1177  0.0175 -0.2197
42936W        W43136  11.907   2.076   6.284 -0.2963 -0.1228  0.0265
42937W        W43137   1.037   9.750  10.781 -0.0639 -0.0052 -0.0111
42938W        W43138   4.444  15.708  10.317  0.2933 -0.0412 -0.0102
42939W        W43139  15.291   8.584  11.839 -0.2462 -0.2997  0.0952
42940W        W43140  11.135  14.913   9.382  0.0743 -0.0690 -0.0609
42941W        W43141   9.402   7.383  14.970 -0.1671 -0.1504 -0.0739
42942W        W43142   2.955   4.951   4.989  0.2526 -0.0798  0.2583
42943W        W43143  12.176   0.252  13.152  0.2805  0.0525 -0.1555
42944W        W43144  16.496   5.492   6.925  0.1713  0.0157  0.1642
42945W        W43145  16.255   6.237   9.046  0.0703 -0.0399 -0.0928
42946W        W43146   1.799   7.795  10.247 -0.2193 -0.1408 -0.0576
42947W        W43147   6.880   7.532  12.534  0.3684  0.1712  0.6573
42948W        W43148  15.442   6.641   3.726  0.1588 -0.0617 -0.0530
42949W        W43149   6.940   2.608   7.364 -0.1409  0.1257  0.0498
42950W        W43150  12.180   8.815  13.875  0.0208  0.3148 -0.2305
42951W        W43151   9.959   2.047  15.761  0.0159 -0.2245 -0.0346
42952W        W43152   1.684  17.458  13.543 -0.1739 -0.1551 -0.1025
42953W        W43153  16.762   3.435  11.654 -0.0150  0.3663 -0.1597
42954W        W43154   3.075   6.889  14.578 -0.1659 -0.0336 -0.0937
42955W        W43155   0.621   0.584  13.984 -0.0280  0.0055  0.0852
42956W        W43156  16.985  18.169  10.131 -0.0013  0.0598 -0.1673
42957W        W43157  12.017  11.324   8.537 -0.0153  0.0794 -0.1309
42958W        W43158   9.000   3.126  16.517  0.2302  0.0833  0.1522
42959W        W43159  15.649   0.217  12.164 -0.1087 -0.2301 -0.0611
42960W        W43160  16.007  10.639   1.773  0.1584 -0.0976 -0.2531
42961W        W43161   1.284   6.050   5.844  0.1484  0.0330  0.2298
42962W        W43162   0.403   0.793   2.962 -0.0949  0.2250  0.1461
42963W        W43163  10.027   3.731  13.268 -0.4296 -0.1483 -0.2638
42964W        W43164  17.726   8.434  12.778 -0.0619 -0.4462  0.1592
42965W        W43165  17.206   7.047   2.519  0.0731  0.0265 -0.1675
42966W        W43166   5.232   6.219   2.670  0.0977  0.0405  0.1887
42967W        W43167  15.452   3.031  10.168  0.1959  0.1439 -0.0949
42968W        W43168  10.130   8.310   4.162 -0.0250 -0.0323  0.0517
42969W        W43169  13.574   8.928  12.143  0.1211 -0.0539  0.2549
42970W        W43170  11.981   3.309  13.609 -0.1592 -0.3194 -0.1830
42971W        W43171   0.064   7.638   6.395  0.1935 -0.1250  0.2089
42972W        W43172  18.095   4.492   6.532 -0.1695  0.1059 -0.0262
42973W        W43173   6.059  17.199   4.475 -0.2975 -0.1551  0.2520
42974W        W43174  17.445   9.657  10.446 -0.0221 -0.2920 -0.0060
42975W        W43175  11.279  12.156   7.588 -0.0253 -0.1216 -0.1414
42976W        W43176  18.049  15.997   7.447  0.2609  0.3646 -0.0050
42977W        W43177  14.564  13.299   6.823  0.1898 -0.0412  0.0844
42978W        W43178  12.357  12.161  11.512  0.1167  0.0050  0.1589
42979W        W43179   8.884   5.819   2.640 -0.1033  0.0925 -0.0834
42980W        W43180  11.765   1.132  11.491  0.2189 -0.1957  0.4045
42981W        W43181  11.485   4.581   7.894  0.0627 -0.1364 -0.3017
42982W        W43182  15.724  16.086  11.855 -0.0394 -0.2424 -0.1808
42983W        W43183   1.358   0.154  17.432  0.1850  0.0295 -0.0116
42984W        W43184  17.638   4.642   2.499  0.1455  0.1587 -0.1739
42985W        W43185  17.362   7.104   6.883  0.1502 -0.3311 -0.1914
42986W        W43186  18.132   5.776   9.343  0.1529 -0.2704  0.3558
42987W        W43187   5.903   0.010   8.719  0.1018  0.0671 -0.2824
42988W        W43188   5.008   3.732  16.981  0.2823  0.0753 -0.0546
42989W        W43189  11.643  10.507   9.351 -0.1081  0.1182 -0.0815
42990W        W43190   4.465  15.728   9.603 -0.0395  0.2589 -0.1846
42991W        W43191  17.753   4.937   8.883  0.0842  0.1638 -0.3137
42992W        W43192  14.433  17.898  15.306  0.0719 -0.2402  0.0351
42993W        W43193  17.914  12.574   5.381 -0.1776  0.0032  0.1027
42994W        W43194   6.207   4.330   4.580  0.0867  0.4117  0.0119
42995W        W43195  12.939  17.302  13.173  0.0398  0.0585 -0.0422
42996W        W43196  16.283   7.995   6.619  0.1308 -0.1757 -0.0242
42997W        W43197  15.077   6.197  10.839 -0.0764 -0.1637  0.0296
42998W        W43198  17.068   5.971   3.676  0.0618 -0.1375  0.0664
42999W        W43199  12.047   5.732   8.065 -0.0341  0.1052  0.2803
43000W        W43200   1.627   8.264   6.978  0.2306 -0.0343 -0.0993
43001W        W43201  17.580   1.102   2.897 -0.0293 -0.1410  0.0273
43002W        W43202  14.506  10.068  17.740  0.2337 -0.0987 -0.0106
43003W        W43203   1.592   2.585   7.599  0.0941 -0.2224  0.1199
43004W        W43204  15.182   6.366  12.142  0.1150 -0.1458 -0.0636
43005W        W43205  14.743   8.639   0.036 -0.1982  0.0371  0.0794
43006W        W43206  16.683   3.958  11.654 -0.2109 -0.1809 -0.1341
43007W        W43207  17.775   6.998   7.133 -0.3046 -0.0250  0.0419
43008W        W43208   7.653  13.712   2.638 -0.0601 -0.2174 -0.2521
43009W        W43209   5.468   8.701  10.145  0.0852  0.0555  0.3161
43010W        W43210   5.142   5.735  10.324 -0.0466  0.0951 -0.0647
43011W        W43211   1.794   4.539  12.103 -0.0625  0.0067  0.1157
43012W        W43212  10.290   2.500   0.624 -0.1931 -0.0457  0.1778
43013W        W43213  15.247  13.237   3.699  0.0484 -0.1819 -0.3125
43014W        W43214   5.818  14.247   4.226 -0.0162  0.0631 -0.1069
43015W        W43215  15.517  13.534  15.846 -0.3110 -0.2860 -0.2258
43016W        W43216  15.032   4.452  15.940  0.2095 -0.1112  0.2927
43017W        W43217  14.802  12.990   3.144  0.0793  0.1084 -0.0552
43018W        W43218   0.832  16.158   6.037  0.3434  0.0889  0.1506
43019W        W43219  17.762  11.912   1.234 -0.1106  0.1112 -0.1017
43020W        W43220  16.245   6.269  18.162 -0.3021  0.0992  0.1181
43021W        W43221   5.148   8.741   8.718  0.1742  0.2827 -0.1474
43022W        W43222  14.864  14.089   8.314  0.2252  0.0310  0.1814
43023W        W43223  12.802   0.555  15.178  0.0166  0.2058  0.0216
43024W        W43224  12.632  12.335  15.503  0.0665 -0.3024  0.1428
43025W        W43225  15.406  18.002  17.278 -0.0220 -0.3083 -0.1162
43026W        W43226  14.035  10.048   9.141 -0.0208  0.1728 -0.1044
43027W        W43227   2.459   2.763   6.753  0.1747  0.0960  0.2196
43028W        W43228  17.023  13.612  11.491 -0.1534  0.3378 -0.2190
43029W        W43229  17.718   6.162   7.390 -0.1755 -0.0117 -0.1039
43030W        W43230  10.574   6.839  16.633  0.1261  0.1327  0.3280
43031W        W43231  13.648   4.168   5.902  0.0984 -0.0430 -0.2063
43032W        W43232   3.541   2.163  11.757 -0.2250  0.1170  0.2555
43033W        W43233   2.917   8.723  10.765 -0.1489 -0.0773 -0.0058
43034W        W43234  11.155   1.105   7.237 -0.1841 -0.3515  0.0988
43035W        W43235  12.009  15.547   7.429  0.0791  0.0812  0.0349
43036W        W43236   2.961   5.577  15.524  0.0764 -0.0565 -0.1190
43037W        W43237  14.741   7.809   5.593 -0.3844 -0.2455 -0.0470
43038W        W43238  15.431   8.132  11.954 -0.2767 -0.0850  0.0835
43039W        W43239  13.102   7.442   4.272 -0.2170 -0.1306 -0.0017
43040W        W43240   9.339   1.202  12.480  0.1386 -0.0871 -0.0997
43041W        W43241   0.482  15.624  14.095  0.0207  0.2799  0.0181
43042W        W43242   0.153  10.021   9.209  0.1231 -0.0208 -0.0146
43043W        W43243   0.361   8.650  13.753 -0.1719  0.0343 -0.2150
43044W        W43244  10.004   5.444  15.941  0.0470  0.2432  0.1812
43045W        W43245   1.206  10.302   7.598  0.0017 -0.1746 -0.2022
43046W        W43246  15.580  10.961  12.458  0.0782  0.0363  0.1764
43047W        W43247   0.598  17.422   6.086  0.5036 -0.0742 -0.0040
43048W        W43248  16.451   3.208  11.345  0.0560 -0.0601  0.1528
43049W        W43249   3.676   7.384   5.350  0.3029  0.2224 -0.1005
43050W        W43250  15.991   9.043  16.141  0.2771  0.0510  0.0083
43051W        W43251   0.138   1.715   5.795  0.2028  0.1126  0.0723
43052W        W43252   2.778  17.196   7.823 -0.1976 -0.0534  0.0032
43053W        W43253   9.263   8.466  12.342 -0.2293 -0.0078 -0.1803
43054W        W43254   2.276  11.166   5.576 -0.1964  0.2095 -0.0897
43055W        W43255  16.891   5.297   6.295 -0.0668  0.0816  0.1252
43056W        W43256  17.257  10.207  16.725 -0.0953  0.0012  0.0938
43057W        W43257   2.723   4.318   6.949 -0.0215  0.4125 -0.2489
43058W        W43258  13.459   6.825   8.317 -0.1036  0.0189  0.4451
43059W        W43259  14.289   4.036  10.285 -0.0572 -0.0677 -0.2555
43060W        W43260   5.687   1.917   4.312 -0.1847  0.1881 -0.1469
43061W        W43261  10.245  10.373  12.879  0.0182 -0.2256  0.0498
43062W        W43262   8.801   6.628   6.520 -0.0997 -0.1262  0.0349
43063W        W43263   1.312   4.094   0.490  0.3209 -0.0389  0.0636
43064W        W43264   1.829   6.931   6.737 -0.1059 -0.2419 -0.0426
43065W        W43265   4.053  10.515   5.924  0.0521 -0.0782  0.0692
43066W        W43266   3.904   9.546  15.852 -0.2519 -0.0504 -0.0813
43067W        W43267  17.079   3.669  11.989  0.1227  0.4490  0.1119
43068W        W43268  15.974   1.977  16.549  0.0116 -0.2040  0.1652
43069W        W43269   0.628   3.092  12.467  0.1338 -0.2389  0.0615
43070W        W43270  12.279   6.356  11.561 -0.0080 -0.1636 -0.3067
43071W        W43271   2.286   5.436  11.484 -0.1157  0.0287 -0.0299
43072W        W43272  10.654  10.519  12.592 -0.1829 -0.0302  0.0925
43073W        W43273  12.052   2.223  12.976  0.3280 -0.0051 -0.1356
43074W        W43274  12.416  13.295  10.074 -0.0634  0.2187 -0.2642
43075W        W43275  16.939   9.187   2.808  0.1268  0.1457 -0.2509
43076W        W43276  17.244   0.098   4.582 -0.0529 -0.2523  0.2139
43077W        W43277  14.136   7.898   3.247 -0.3108  0.0794 -0.0180
43078W        W43278  10.834   1.424  14.059  0.2534  0.1106  0.0130
43079W        W43279  17.811   6.170   9.044  0.0674  0.0257  0.0877
43080W        W43280   0.651  16.028   6.609  0.1487  0.5289  0.2920
43081W        W43281  12.248   8.930   4.081 -0.0201  0.4142 -0.0384
43082W        W43282  13.472   9.872   3.010  0.0301 -0.0662  0.1276
43083W        W43283  11.381   2.073  11.777  0.3381  0.0647 -0.0417
43084W        W43284  17.976   5.974  10.131  0.1245  0.2763 -0.2468
43085W        W43285   6.651   0.408  13.842 -0.1282  0.2826 -0.2567
43086W        W43286  17.219  12.703   6.000 -0.2236  0.0831  0.1808
43087W        W43287   0.984   9.432  12.274 -0.1039  0.2400 -0.1599
43088W        W43288   5.718   4.381   0.898  0.1073  0.2126  0.2929
43089W        W43289  16.680   3.088   4.188 -0.1459 -0.2380 -0.1969
43090W        W43290  16.342   7.983  13.338 -0.0212  0.1658  0.2555
43091W        W43291  14.632  10.767   9.140 -0.0312  0.0901  0.3674
43092W        W43292  15.660   8.861  15.276 -0.2254  0.1478  0.0320
43093W        W43293   2.978  11.952   9.430  0.3983 -0.3166 -0.0607
43094W        W43294  17.787  16.978  13.152 -0.0823 -0.0052  0.2273
43095W        W43295  12.218   9.151   9.621 -0.0009 -0.1934  0.2679
43096W        W43296  16.214   8.905  11.847 -0.1501 -0.1274  0.0076
43097W        W43297   0.586   3.430  16.916 -0.0275  0.0463  0.0217
43098W        W43298   6.103   3.398   6.300  0.4251  0.0536 -0.0900
43099W        W43299  12.876  12.789   7.899  0.4925 -0.1215 -0.1795
43100W        W43300   0.263  15.922   6.908 -0.0693  0.1652 -0.3700
43101W        W43301   1.293  17.736  13.487 -0.0991 -0.2397  0.0514
43102W        W43302   1.892   6.362   7.749  0.1547  0.0463  0.1904
43103W        W43303  14.998  13.729   7.417 -0.0872  0.1485  0.1323
43104W        W43304  14.210   2.432   6.295 -0.1724 -0.0485  0.2090
43105W        W43305  15.225   8.155   4.686 -0.2020 -0.1424 -0.1213
43106W        W43306   9.444  14.432   8.299  0.0381  0.0810  0.0422
43107W        W43307   8.991  15.668   6.676 -0.0408  0.1396  0.1036
43108W        W43308   0.140   2.200   5.609 -0.0907  0.0496  0.0282
43109W        W43309   4.498   0.195   4.212 -0.0554 -0.1139  0.2425
43110W        W43310  16.702   1.737  15.837  0.0056  0.2002  0.4131
43111W        W43311  10.749  17.764   6.665 -0.0695 -0.2951 -0.0394
43112W        W43312   4.351   4.359   2.600 -0.1235  0.1389 -0.0321
43113W        W43313  15.889  13.235  10.808 -0.2163 -0.1002 -0.2187
43114W        W43314   2.939  15.106   8.792 -0.0204  0.0605 -0.1864
43115W        W43315   7.496   3.930   4.528  0.1425  0.0046 -0.2608
43116W        W43316  17.126   3.197   6.884 -0.0561  0.3644 -0.0342
43117W        W43317   2.145  10.691  17.139 -0.1129  0.1674  0.2234
43118W        W43318  11.529  12.721   8.500 -0.0633 -0.0279  0.2201
43119W        W43319   8.345   6.522   3.683  0.3648  0.1025  0.0498
43120W        W43320  11.441  16.738   8.270 -0.0604 -0.3070  0.1022
43121W        W43321  17.715   1.402  10.272 -0.0540  0.1398 -0.2241
43122W        W43322   9.134   3.760  11.843 -0.0461 -0.3096  0.1831
43123W        W43323  14.580   6.130   9.536  0.0672  0.2878  0.0113
43124W        W43324   1.668  11.484   9.425 -0.2385 -0.1158 -0.1060
43125W        W43325  16.720  10.686  15.052  0.1237  0.2857  0.3557
43126W        W43326   0.501   5.578   7.446 -0.1657  0.1275 -0.2151
43127W        W43327  17.521   6.636   0.024  0.1110 -0.0052 -0.1519
43128W        W43328  16.404  13.904  15.456 -0.2815 -0.2673 -0.2792
43129W        W43329  11.553  11.508   7.800  0.1294  0.1791 -0.0452
43130W        W43330  16.387   5.138   7.380  0.2096  0.0094  0.1878
43131W        W43331   1.532   5.970   7.834  0.4320 -0.1019 -0.2496
43132W        W43332  10.290  17.101  17.990  0.2146 -0.2692  0.0521
43133W        W43333   4.437   1.709  10.568 -0.0969  0.1756  0.2531
43134W        W43334  16.608   5.022   3.062  0.2021  0.1311  0.0542
43135W        W43335  16.000  17.223   9.711  0.1630 -0.2942  0.1272
43136W        W43336   1.475  16.342   3.169 -0.2180  0.0769  0.1138
43137W        W43337  18.165   3.233   4.207  0.0360  0.1369 -0.1042
43138W        W43338  16.597   8.591   3.982 -0.0515  0.0392 -0.2224
43139W        W43339  13.919   3.146  12.473  0.0407 -0.2307 -0.0317
43140W        W43340  11.484   0.786   4.040 -0.1147  0.1522 -0.2979
43141W        W43341   0.568  14.684  12.917  0.3444  0.0017 -0.3301
43142W        W43342  16.398   3.987  15.866 -0.0347 -0.0513 -0.1346
43143W        W43343  17.270   4.936   7.888  0.1823  0.4304 -0.0383
43144W        W43344  14.187  10.909   2.929  0.1518  0.3383 -0.1215
43145W        W43345   1.626   6.064   9.576 -0.2548  0.0232 -0.1256
43146W        W43346   4.139   2.209   7.954  0.2328 -0.1038  0.2392
43147W        W43347   0.770   4.240   4.714  0.4560 -0.2474 -0.1486
43148W        W43348  12.161   2.840   9.150  0.0242  0.0803 -0.1067
43149W        W43349   2.274   4.220   4.535  0.1492  0.1058 -0.2366
43150W        W43350  12.226   9.737   3.598 -0.1828 -0.0584 -0.0070
43151W        W43351   0.320   0.964   5.609  0.2605  0.2655  0.0676
43152W        W43352  13.483   2.761   9.038 -0.3399  0.0717 -0.2500
43153W        W43353  14.035  12.823   5.542  0.1823 -0.2825 -0.0140
43154W        W43354  16.440   2.750   5.079  0.1859  0.2248 -0.2225
43155W        W43355   6.263   5.324   4.162 -0.0416 -0.1444  0.0230
43156W        W43356   2.723   6.121   9.707  0.0902 -0.3172  0.4990
43157W        W43357  17.204   5.263   1.207  0.0055  0.2416  0.1320
43158W        W43358   2.397  15.626   2.608 -0.0981 -0.1255 -0.2777
43159W        W43359   0.965   5.432   0.577  0.1025 -0.3837 -0.0096
43160W        W43360   0.305  14.575   6.186 -0.0153  0.1230 -0.2046
43161W        W43361  13.469   8.123   5.884 -0.1906 -0.0897 -0.0190
43162W        W43362  13.825   1.454   8.108  0.0980 -0.0949 -0.3801
43163W        W43363   3.990  16.037   9.402  0.3618  0.2325  0.0975
43164W        W43364  14.886   5.531  11.563 -0.1998  0.1010  0.2492
43165W        W43365  12.140   0.112  12.114  0.3982  0.1947 -0.3580
43166W        W43366  15.813   5.228   8.937 -0.0847 -0.0615 -0.1671
43167W        W43367   6.405   4.250  12.065 -0.1027 -0.0789  0.4768
43168W        W43368   2.344   8.682   6.463  0.3154  0.1255  0.0652
43169W        W43369  15.856   6.373   9.800  0.3813  0.0551  0.0857
43170W        W43370   4.875   7.767  16.334  0.3406  0.0271  0.0469
43171W        W43371  11.024  13.641   7.088  0.0570 -0.4626 -0.3276
43172W        W43372  13.434   2.853   5.931 -0.1007 -0.1078 -0.0524
43173W        W43373  16.176  12.922  16.098  0.1579 -0.1857 -0.1780
43174W        W43374  17.389  11.765  13.274 -0.1521 -0.4788  0.3090
43175W        W43375   9.507   3.189  14.531  0.3197 -0.1456  0.2453
43176W        W43376  13.058  10.081   5.674 -0.1054  0.1048  0.1127
43177W        W43377  12.647  11.581   4.002 -0.3160  0.1343  0.0105
43178W        W43378  15.371  18.072   1.649  0.1821 -0.4589 -0.2541
43179W        W43379  14.984   4.152   8.105  0.3989  0.0782 -0.0813
43180W        W43380  13.693   8.254  10.145  0.1177 -0.0620  0.3227
43181W        W43381  16.016  11.383  11.304 -0.0918  0.0419 -0.0440
43182W        W43382   0.360   6.265  16.017  0.2126  0.0154 -0.2356
43183W        W43383   9.382   9.446  11.371 -0.0940 -0.3393 -0.1528
43184W        W43384  15.494   2.303   7.850 -0.0303 -0.0277 -0.2424
43185W        W43385   0.339   9.092  11.240 -0.0489 -0.1973  0.3816
43186W        W43386  15.990   7.089   9.135 -0.0638 -0.3788  0.1897
43187W        W43387   3.182   2.201  10.027 -0.1038 -0.0682 -0.0918
43188W        W43388   8.154   3.288  13.111 -0.0336  0.0199 -0.1250
43189W        W43389   1.894  17.141   3.454 -0.0669 -0.0970  0.2091
43190W        W43390  14.382  15.915   6.371 -0.0167  0.0814  0.1798
43191W        W43391  13.549   5.116  15.143 -0.0735 -0.2398 -0.1920
43192W        W43392   2.397  11.774   7.008  0.2106 -0.2380 -0.2720
43193W        W43393  17.190   0.784  10.211  0.2766 -0.2961  0.1259
43194W        W43394  15.111   9.493  14.143 -0.2072 -0.0560 -0.0888
43195W        W43395  11.974   0.091  10.770  0.0463 -0.0583 -0.0959
43196W        W43396   8.878  14.953  10.700  0.0688 -0.0744 -0.1381
43197W        W43397  16.753   1.601  12.452 -0.0578 -0.1038 -0.0043
43198W        W43398   1.269  13.558   5.787  0.0697  0.0588 -0.1337
43199W        W43399  15.103   5.113   6.884 -0.1894  0.1588  0.0325
43200W        W43400   9.750   5.891  15.842 -0.0400  0.2723 -0.0747
43201W        W43401  14.807   0.952   5.553  0.0735  0.3657  0.1952
43202W        W43402  14.478  16.652  10.761 -0.0606  0.5156  0.2420
43203W        W43403   8.332   4.866   7.742 -0.2384 -0.0835 -0.0114
43204W        W43404  17.686  16.150  13.514 -0.1508 -0.2311 -0.3310
43205W        W43405   2.577  10.267   0.111 -0.1762  0.1935 -0.0342
43206W        W43406  17.790   4.420   6.884 -0.1639  0.4062  0.0665
43207W        W43407   0.120   6.215   9.033 -0.0823  0.2604 -0.3835
43208W        W43408  11.133   4.500  12.368  0.0535 -0.0863  0.2241
43209W        W43409   9.214   3.981  17.160 -0.0618  0.2452 -0.2318
43210W        W43410   6.917   6.548  16.907  0.2771 -0.1235 -0.2352
43211W        W43411  13.631   1.360   3.546 -0.1907 -0.3786  0.1545
43212W        W43412   5.205   9.148  11.220 -0.0503  0.2452 -0.1561
43213W        W43413  15.035   1.943  16.767 -0.0021  0.2846  0.0181
43214W        W43414  12.961   4.536  14.020 -0.2146  0.0868 -0.1829
43215W        W43415   1.596   4.377   0.786  0.0841 -0.1946 -0.2587
43216W        W43416   9.830   6.771   2.511  0.0127 -0.0820  0.0647
43217W        W43417   4.145   3.140   6.415 -0.0778 -0.0479 -0.1340
43218W        W43418  11.110   8.073   4.263  0.3850 -0.1599  0.2424
43219W        W43419   9.015   0.597  11.181 -0.1143  0.1087 -0.2452
43220W        W43420  11.132   5.803  12.186 -0.2132 -0.2437  0.0707
43221W        W43421  13.048   2.771   9.833  0.0269 -0.2099 -0.0238
43222W        W43422  12.416   4.841  15.846 -0.0145 -0.1956  0.2194
43223W        W43423   3.421   8.805  13.984 -0.2540 -0.2891 -0.2041
43224W        W43424  15.226   6.297   9.381 -0.2585 -0.1180 -0.0465
43225W        W43425   9.072   0.811  17.941  0.0109 -0.1839 -0.1744
43226W        W43426  16.111   1.828   0.769 -0.0463 -0.0014  0.0268
43227W        W43427   9.400   2.689  16.596 -0.0308  0.2527  0.0828
43228W        W43428  10.521  15.016   7.615  0.0658 -0.3907 -0.0217
43229W        W43429   1.086   6.325   7.786 -0.1946 -0.0592 -0.2328
43230W        W43430  11.078  18.042  16.001  0.0676 -0.0510 -0.1065
43231W        W43431  15.073  17.874  18.173  0.1789  0.0322  0.0424
43232W        W43432   0.632  18.181  14.728 -0.1535 -0.2051  0.1950
43233W        W43433  12.032   6.648   4.955  0.1933 -0.0016 -0.1744
43234W        W43434   1.985   6.680  12.199 -0.3591 -0.1114 -0.0149
43235W        W43435   6.160   2.268  15.774 -0.0162 -0.0636  0.1465
43236W        W43436  17.522   5.751   3.429  0.1256 -0.2125 -0.2246
43237W        W43437  13.106   7.120  10.477 -0.0196  0.2118  0.0410
43238W        W43438  10.454   2.897  10.975 -0.4771  0.0045 -0.2183
43239W        W43439  16.267   4.928  16.121 -0.0933 -0.1157  0.0261
43240W        W43440  15.374   1.615  10.332  0.1632  0.0817  0.0214
43241W        W43441  12.835   1.601  10.411 -0.2538 -0.1420 -0.1482
43242W        W43442  17.708   4.417   8.990  0.0949 -0.0717  0.0826
43243W        W43443  17.574  15.203   2.915  0.0136 -0.0867 -0.1067
43244W        W43444  11.887   2.163  11.980  0.0536  0.0861  0.0130
43245W        W43445   3.587  10.565   9.593  0.1002  0.3084 -0.0882
43246W        W43446  14.631   6.204  12.085  0.0131 -0.1158  0.0836
43247W        W43447  17.864  17.664   5.648  0.2415 -0.1971 -0.0752
43248W        W43448  16.899   0.261  14.788 -0.0200  0.3401 -0.0623
43249W        W43449  10.194   0.865  14.865 -0.1296 -0.0961 -0.0170
43250W        W43450   4.652   5.761   3.895 -0.0458  0.4108  0.2958
43251W        W43451  17.811   2.847   3.366 -0.0394  0.1508 -0.3159
43252W        W43452  13.914   1.591   3.218  0.0461  0.1799  0.2920
43253W        W43453  16.433   7.440   3.833  0.3211 -0.0162  0.1400
43254W        W43454   0.245   8.767   9.735 -0.0867 -0.3553 -0.0940
43255W        W43455   5.200  14.267  16.180  0.3385 -0.1175  0.1531
43256W        W43456  14.110   5.985  18.051 -0.0527 -0.1659  0.0406
43257W        W43457  13.719   4.751  10.534  0.0080 -0.0132 -0.0331
43258W        W43458  12.597  16.859   6.326  0.1290  0.2822 -0.1530
43259W        W43459  16.909  11.371   9.762 -0.2520  0.0523  0.2453
43260W        W43460  17.717  12.925  17.663  0.1555 -0.0454  0.1787
43261W        W43461  15.347   3.726   0.432 -0.0422  0.0189  0.1232
43262W        W43462  15.646   3.174   2.695 -0.0480 -0.0169 -0.1290
43263W        W43463  16.314   4.122  12.952  0.3275  0.0403 -0.0676
43264W        W43464   3.592   1.169  10.217 -0.3253 -0.1100  0.0382
43265W        W43465   4.431   5.679  16.042  0.0479 -0.0497  0.0232
43266W        W43466  11.524  16.917   1.657  0.2987 -0.0895  0.2566
43267W        W43467  13.581   0.054  11.230 -0.1028  0.0796  0.4105
43268W        W43468  10.626  14.152  14.638  0.3806 -0.1802 -0.1355
43269W        W43469  16.529  10.047   8.663 -0.0165  0.1320 -0.0622
43270W        W43470   7.063   1.351  15.768 -0.2463  0.0425 -0.1564
43271W        W43471   5.571   9.703  17.567 -0.2021 -0.0127  0.2607
43272W        W43472   8.623  10.603  11.618 -0.0715 -0.1600 -0.0978
43273W        W43473  16.366   3.029   2.744 -0.1788  0.0093 -0.1312
43274W        W43474  12.180   4.163  13.877  0.3125 -0.3867 -0.1998
43275W        W43475  16.195  10.500  15.890 -0.2554  0.0379 -0.1925
43276W        W43476  12.430  15.554  10.708 -0.0018 -0.0537 -0.1810
43277W        W43477   2.395   4.409  15.840 -0.2187  0.1076 -0.1761
43278W        W43478   0.856  13.573   8.510  0.2276 -0.0612  0.1583
43279W        W43479   0.454  18.153  17.640 -0.0154 -0.1287  0.0357
43280W        W43480   2.432   3.234  15.090  0.2033 -0.3032  0.1567
43281W        W43481   3.824  11.558  14.455 -0.0446  0.0158  0.1590
43282W        W43482  16.144   0.315   1.935  0.1371  0.0145 -0.0267
43283W        W43483   7.448  18.173  11.573 -0.2074  0.1000 -0.2528
43284W        W43484  13.468   8.327  14.932 -0.1765  0.0687 -0.1856
43285W        W43485  14.310   7.221   8.501 -0.0480 -0.1141 -0.1376
43286W        W43486  14.963   2.778   8.564 -0.2102 -0.0290 -0.1175
43287W        W43487  14.565   5.150   7.275 -0.2676  0.1912  0.1432
43288W        W43488   5.183   8.117   7.069  0.0499  0.0363  0.1096
43289W        W43489  17.659   3.061  16.301 -0.2990  0.1069  0.1784
43290W        W43490   0.450   7.697  12.646  0.0677 -0.0871  0.0287
43291W        W43491  14.239   1.563  10.328 -0.0583  0.0124 -0.0908
43292W        W43492  14.824   0.054   1.427  0.0804 -0.2438 -0.0432
43293W        W43493   1.963  10.078   6.004  0.0358  0.1460  0.0722
43294W        W43494  10.165  11.907  12.882 -0.0905 -0.0220  0.0903
43295W        W43495  17.863   5.762   6.359  0.1940  0.2394  0.0459
43296W        W43496  16.707  15.589  16.461  0.0361 -0.0100 -0.2096
43297W        W43497   2.110   2.628  12.961  0.0041 -0.0666 -0.1188
43298W        W43498   2.645   3.944   8.403  0.0818  0.1151  0.2236
43299W        W43499   2.160   2.378  13.425 -0.0790 -0.0048  0.4291
43300W        W43500  10.981  10.443  11.193 -0.2058  0.0145  0.1701
43301W        W43501   1.810   8.428  15.265  0.2394 -0.4086  0.2120
43302W        W43502   0.364   9.638   3.401 -0.1507  0.0450 -0.3483
43303W        W43503  13.217   6.000   5.835 -0.2187  0.0694 -0.0544
43304W        W43504  14.748   5.687  11.095 -0.0669  0.1583 -0.1650
43305W        W43505   4.988   0.312  18.088  0.1925  0.0911 -0.2355
43306W        W43506  15.002   7.212  12.299 -0.3207  0.0823 -0.0577
43307W        W43507   0.380   0.603  16.599  0.0502 -0.1127  0.2375
43308W        W43508   3.796  16.368  11.970  0.1522 -0.0227 -0.4344
43309W        W43509  13.313   3.264  16.186  0.0360  0.0927  0.0754
43310W        W43510  17.890  13.304  17.251 -0.0344 -0.0991 -0.0513
43311W        W43511  17.201   3.424  13.743  0.1206  0.0467  0.0709
43312W        W43512  15.671   9.804  14.769  0.0725 -0.1139 -0.1039
43313W        W43513  14.099   7.065  17.202  0.1425 -0.0691  0.2415
43314W        W43514  15.992   1.117  10.109  0.2163  0.0646  0.1345
43315W        W43515  13.666   3.778  11.712 -0.0857  0.2737  0.0841
43316W        W43516  16.269   0.445  12.314 -0.0900  0.4089  0.0182
43317W        W43517   0.216   8.951   7.172  0.0927  0.5261  0.2967
43318W        W43518  14.617   5.354   1.919  0.0700 -0.3220 -0.0742
43319W        W43519  16.938  17.080  16.774 -0.0981 -0.1063 -0.0765
43320W        W43520  13.684   9.032  16.252  0.2040  0.1459  0.2795
43321W        W43521   9.333   4.206  15.042  0.4538 -0.0914  0.0530
43322W        W43522  14.139   6.797   1.366  0.1504  0.2106  0.0951
43323W        W43523  11.015   9.729  14.153  0.0760 -0.0222 -0.2189
43324W        W43524  12.873   0.168   7.322  0.0248  0.0143 -0.1865
43325W        W43525   4.459   1.376  11.720 -0.3397 -0.1041 -0.2074
43326W        W43526   2.025   9.230   6.082 -0.5103 -0.0645 -0.1161
43327W        W43527  11.000   7.165  12.755 -0.4921  0.2103 -0.1213
43328W        W43528  11.375  13.878  13.070 -0.2405 -0.0646  0.3120
43329W        W43529  16.165   7.780   1.870  0.3536 -0.3345 -0.0798
43330W        W43530  14.428   7.351   3.316 -0.1117 -0.0039 -0.0916
43331W        W43531  16.964   9.207   7.337 -0.1415  0.0582 -0.0508
43332W        W43532  15.025  16.831   9.330  0.2980  0.0234  0.1577
43333W        W43533  11.544  13.667   5.966 -0.3429  0.1799 -0.0105
43334W        W43534  14.272   6.438  14.355  0.0593 -0.1890 -0.2198
43335W        W43535  13.695   4.813  16.753  0.1247 -0.1142 -0.1683
43336W        W43536  16.106   4.030   9.556  0.1942  0.1396  0.2171
43337W        W43537  16.188  18.182   0.836  0.0310  0.0420 -0.0027
43338W        W43538   0.145   9.494  13.200  0.1269 -0.0649  0.2735
43339W        W43539  17.070   7.796  16.616  0.0268 -0.2245 -0.0007
43340W        W43540  10.857   7.210   4.158 -0.3761 -0.1188  0.1916
43341W        W43541   0.813   4.877   0.728 -0.0432 -0.2604 -0.0372
43342W        W43542  13.478   8.790   7.162 -0.2082  0.1077  0.1024
43343W        W43543   2.744  10.612   8.288  0.2822 -0.5581  0.1505
43344W        W43544  15.686   4.359   9.736 -0.0791 -0.1040  0.0038
43345W        W43545   1.009  11.591   8.026  0.3319  0.0738 -0.0687
43346W        W43546  15.678   5.728  11.176  0.2781  0.0082  0.0536
43347W        W43547  14.442   7.204  12.318 -0.0264 -0.4275 -0.2446
43348W        W43548   0.362   5.888  13.723  0.0922 -0.2265  0.1553
43349W        W43549  17.367   2.512  13.894 -0.1362 -0.0643  0.1344
43350W        W43550  15.343   8.450   3.046 -0.1858  0.2139 -0.0794
43351W        W43551   2.354   8.438  12.803 -0.1836 -0.1368  0.1940
43352W        W43552   8.215   1.038  11.655 -0.0059 -0.1750 -0.2352
43353W        W43553   5.332   6.834   7.038 -0.0218  0.1137  0.1010
43354W        W43554  16.656  15.184  12.876 -0.0308 -0.1882  0.1012
43355W        W43555   4.771   1.620  14.445  0.0408  0.1820  0.1720
43356W        W43556   9.188  12.557  12.015  0.2609  0.0244  0.1936
43357W        W43557   0.411  17.067   0.875 -0.3404 -0.3987  0.1231
43358W        W43558   1.936   0.911   7.468 -0.2815  0.0794  0.2739
43359W        W43559  12.231   2.673  12.150  0.3674 -0.0257  0.0510
43360W        W43560  17.812   4.619  15.701  0.1308  0.2479  0.0087
43361W        W43561  16.570   4.619  14.932  0.2051 -0.0745 -0.3162
43362W        W43562   6.024  17.440   2.124  0.0182 -0.0514  0.1771
43363W        W43563  14.607  17.605  13.175 -0.1110  0.1511  0.4699
43364W        W43564   3.229   4.503  11.538 -0.1173  0.0389 -0.1293
43365W        W43565   9.591  17.461  14.802 -0.0434 -0.1945 -0.1016
43366W        W43566  15.999  17.945  11.294  0.1046  0.0927  0.1350
43367W        W43567  11.444  10.810   7.037  0.0594 -0.3311  0.3827
43368W        W43568   4.842   5.776   0.984 -0.0600 -0.1363 -0.0340
43369W        W43569  15.315  10.355  10.983  0.1218  0.0007 -0.1689
43370W        W43570  14.378   5.409  13.056  0.2314 -0.3177 -0.0433
43371W        W43571  13.319   3.650   5.185  0.1699 -0.1786  0.1404
43372W        W43572   5.277  13.201  12.523  0.0965  0.1470  0.1366
43373W        W43573  11.832   8.445   8.078  0.3714  0.0990 -0.2149
43374W        W43574  16.274   0.631   9.053 -0.3830  0.0291 -0.0755
43375W        W43575  10.418   6.449  12.739 -0.0380 -0.1558 -0.0350
43376W        W43576  11.686   3.516  12.195 -0.2047  0.0148 -0.0438
43377W        W43577   5.692   9.307  11.312  0.0025  0.0286 -0.2061
43378W        W43578   3.781  15.621   9.092 -0.1010  0.1289 -0.1610
43379W        W43579   6.053   2.706  14.897 -0.0023 -0.1731 -0.0786
43380W        W43580  14.173  17.263   9.566 -0.0038  0.0241 -0.0176
43381W        W43581  17.157   4.805   8.922  0.0131  0.1680 -0.0198
43382W        W43582  17.436  12.330  16.099 -0.2777  0.1210 -0.1235
43383W        W43583  13.741  10.431   6.199 -0.2108  0.1703 -0.1323
43384W        W43584  14.287   3.898  14.525  0.0140  0.0744  0.1103
43385W        W43585   1.837   1.943   1.816  0.1837  0.0300 -0.1398
43386W        W43586  18.092   8.171  10.970  0.0534 -0.1078  0.0779
43387W        W43587   0.194   3.878  12.660 -0.2535  0.1153 -0.1185
43388W        W43588   5.113   4.734  10.553  0.1725  0.0822  0.2075
43389W        W43589  10.745  17.421  17.672 -0.0274 -0.0797 -0.2651
43390W        W43590  14.706   6.547  11.705  0.1083 -0.2711  0.2032
43391W        W43591  18.088   5.954  16.335 -0.3291 -0.1894  0.2208
43392W        W43592   0.154   7.260  13.721 -0.1173 -0.0416  0.2206
43393W        W43593  16.348   7.163   1.988  0.0775  0.0252  0.0452
43394W        W43594   0.524   2.245  13.269  0.1613  0.0198 -0.2179
43395W        W43595  14.060   1.914   1.553  0.0765  0.1452 -0.1660
43396W        W43596  10.343   8.244  10.032  0.1480  0.1426  0.1081
43397W        W43597  12.726   4.955   1.730 -0.2504 -0.0965 -0.2997
43398W        W43598  17.587   1.501   8.686 -0.3193  0.2691  0.0404
43399W        W43599   5.519   5.614  11.837  0.2250  0.2376 -0.0326
43400W        W43600   0.761   1.231  10.576 -0.0841  0.0369  0.5737
43401W        W43601  16.905  17.702   2.249 -0.2163 -0.0081  0.0041
43402W        W43602  17.194  17.668  15.971 -0.4050  0.0374 -0.1119
43403W        W43603   0.955   7.502  12.578 -0.3214 -0.0957 -0.2211
43404W        W43604   3.244   0.287   6.056  0.1446 -0.0650  0.1369
43405W        W43605   7.772   4.832  15.831 -0.1573  0.1795  0.1679
43406W        W43606   3.100   1.545  11.109 -0.0368  0.2319 -0.0473
43407W        W43607  16.530  16.108   8.157 -0.1778  0.0500  0.3860
43408W        W43608  15.807  12.427  16.297  0.0543  0.0124 -0.1494
43409W        W43609  13.249   2.656   8.006  0.1943 -0.1602 -0.1254
43410W        W43610  13.812   5.363   4.565 -0.0271 -0.0032  0.0903
43411W        W43611   4.691   8.713  12.023  0.1155  0.0268  0.1585
43412W        W43612  13.180   5.666  18.137 -0.6422 -0.1111  0.1292
43413W        W43613  17.597   5.654  12.881  0.4658 -0.0048  0.1922
43414W        W43614   3.171   6.563  16.960 -0.3263 -0.0890 -0.4700
43415W        W43615   9.162   1.845  10.313  0.1875 -0.2043  0.0344
43416W        W43616  11.658  11.129   7.352  0.0179 -0.1521  0.1859
43417W        W43617  14.467   4.680  15.995  0.1710  0.1935 -0.0974
43418W        W43618   1.164   6.203   6.910 -0.1494 -0.2614 -0.2015
43419W        W43619   3.557   2.091  12.774 -0.1362  0.1854  0.0686
43420W        W43620  17.704   5.172   9.901 -0.0248  0.1271  0.1208
43421W        W43621   4.518   2.586  16.677  0.0237  0.1170 -0.2384
43422W        W43622  12.450   6.989  15.984 -0.0397  0.2719 -0.0615
43423W        W43623  11.290  11.431  10.976 -0.1155  0.0978  0.1461
43424W        W43624   1.488   3.637   4.514 -0.0621 -0.2235  0.0669
43425W        W43625  13.767   2.629   8.075 -0.0054  0.1742 -0.2024
43426W        W43626   6.116   9.878   5.769 -0.1539 -0.0771 -0.0427
43427W        W43627   2.229   9.725   7.393 -0.3212  0.1761  0.3452
43428W        W43628   8.730  10.189  14.351  0.0406 -0.2354 -0.0446
43429W        W43629  17.934  10.744   1.585 -0.4027  0.0493  0.0735
43430W        W43630  13.302   5.634  12.967  0.0938 -0.0365  0.3015
43431W        W43631   1.744  11.054   3.686  0.0565  0.2281  0.0799
43432W        W43632  10.766   8.706   2.904 -0.1883  0.2664 -0.1040
43433W        W43633  16.115   2.517   6.456  0.0062 -0.1219  0.1336
43434W        W43634  14.004  13.117  16.406 -0.0947  0.0527 -0.0560
43435W        W43635  17.679   7.510  12.767  0.2432 -0.0426  0.0622
43436W        W43636  16.037  10.152  14.682 -0.0330 -0.1909  0.1294
43437W        W43637  10.116  14.355  12.555  0.0387  0.1702  0.1583
43438W        W43638  13.935   9.102   0.565 -0.0446 -0.1244  0.1399
43439W        W43639   0.810   7.700   4.747  0.0914 -0.0164 -0.1068
43440W        W43640  16.124   3.518  12.340 -0.2512  0.0176 -0.5342
43441W        W43641  12.308  14.131  17.536  0.0278 -0.1060 -0.1475
43442W        W43642  16.052   5.221  17.688  0.1436  0.1211 -0.2455
43443W        W43643  10.163   0.216  13.381 -0.0100 -0.0651 -0.0298
43444W        W43644  14.174   8.383  13.641 -0.0086  0.2530 -0.1573
43445W        W43645  12.709  11.714  10.440  0.1838 -0.0913  0.1435
43446W        W43646   5.889   5.804  13.333  0.0119 -0.0988  0.2586
43447W        W43647   4.251   8.382  17.187  0.1731 -0.2940  0.0936
43448W        W43648  12.526   0.119  10.835 -0.2043 -0.0046  0.3310
43449W        W43649   4.257   9.141  15.419  0.1490  0.0399  0.3427
43450W        W43650  11.462   5.186  17.022  0.1393 -0.0271  0.2745
43451W        W43651  11.993   8.914   9.203 -0.0421 -0.0406 -0.0229
43452W        W43652  13.233   8.545   0.157 -0.2537  0.1565  0.2808
43453W        W43653  10.445  12.324  16.318  0.1136  0.2326 -0.0856
43454W        W43654  15.931   4.887   5.972 -0.0494 -0.1010  0.2163
43455W        W43655  16.912   3.419   7.254  0.0273 -0.0417  0.2242
43456W        W43656   9.861   5.118  13.950  0.0727 -0.0146  0.1479
43457W        W43657   0.175  14.576   7.939  0.2377  0.0933 -0.0428
43458W        W43658   1.066   7.935   0.134 -0.0650  0.2051  0.2343
43459W        W43659   2.129   6.985  11.298  0.2272 -0.1416  0.0921
43460W        W43660  17.744  10.941  15.871  0.1645 -0.0866  0.1959
43461W        W43661  10.144   4.728  16.154 -0.0581 -0.0424  0.0209
43462W        W43662  15.589   4.814  11.598 -0.0150 -0.3818  0.1547
43463W        W43663  16.071   6.877  13.960  0.0260  0.0999 -0.2540
43464W        W43664   4.071   8.022  12.369 -0.0629  0.0423 -0.2584
43465W        W43665   0.406   9.609  10.129 -0.0701 -0.0195 -0.1338
43466W        W43666  17.561  17.411  12.285  0.0592  0.0861 -0.2210
43467W        W43667  12.690  14.863  11.585  0.0598 -0.1549  0.0503
43468W        W43668   9.471   7.932  14.145  0.0634 -0.1910 -0.2441
43469W        W43669  15.591   5.168  12.080  0.2541 -0.0393  0.0436
43470W        W43670  13.039  10.741   5.734  0.3535 -0.2182 -0.3945
43471W        W43671   1.405   3.839  14.776  0.3431  0.1779 -0.0486
43472W        W43672   0.675   8.127   7.716  0.3690 -0.0301 -0.2594
43473W        W43673  12.197   9.034  13.144 -0.1519  0.1749 -0.2936
43474W        W43674  10.131  15.463   7.245 -0.0516 -0.0210  0.2621
43475W        W43675  10.404   7.412   7.147  0.0402 -0.1999  0.2672
43476W        W43676   0.563   7.509   2.259 -0.1374  0.1273  0.1643
43477W        W43677  16.452   5.132   7.953 -0.0313  0.0056 -0.1399
43478W        W43678   7.446   3.202  18.177 -0.0136  0.1952  0.1527
43479W        W43679   0.550   0.101  16.094 -0.1895 -0.1884  0.1412
43480W        W43680  14.891  16.695  11.052  0.0609  0.1359 -0.1888
43481W        W43681   6.160   4.719  11.366 -0.2002  0.0593  0.0604
43482W        W43682  11.267   6.045  15.507  0.0673  0.0218 -0.3039
43483W        W43683   2.086   5.785   2.139  0.3318 -0.2066  0.0701
43484W        W43684   5.548   0.742   6.548  0.0639  0.3923  0.3148
43485W        W43685  14.359  16.094  16.354 -0.1596  0.0321 -0.0120
43486W        W43686  10.377   7.769   8.893  0.2290 -0.1019  0.2259
43487W        W43687  17.887   6.561  14.381 -0.3097 -0.0437 -0.0111
43488W        W43688  13.319   6.939  10.856 -0.3289 -0.2263 -0.1357
43489W        W43689   9.098  16.620  13.795  0.0749  0.1516 -0.2822
43490W        W43690   2.540   5.739  12.896 -0.3952 -0.2778 -0.1424
43491W        W43691  12.248   7.742  17.386 -0.0191 -0.0192  0.0455
43492W        W43692  13.756   7.810   2.069  0.0641  0.1123 -0.2977
43493W        W43693  17.061   7.099   8.446 -0.2038  0.3398  0.1573
43494W        W43694   6.436   7.642   4.314 -0.1107  0.1457 -0.1464
43495W        W43695  14.124   5.663  11.054  0.1184  0.1225  0.0884
43496W        W43696  15.096   8.963  11.175  0.1731 -0.0960 -0.0332
43497W        W43697  14.190   3.552   8.678  0.0289  0.0098 -0.3958
43498W        W43698  14.161  14.906   8.282  0.1511  0.0983  0.0674
43499W        W43699  11.655  10.081  15.475  0.2251 -0.1590  0.0345
43500W        W43700  14.781   8.755  17.451 -0.0898 -0.2298 -0.0606
43501W        W43701   8.967  17.734  10.441 -0.1088 -0.0281 -0.4499
43502W        W43702  16.794   5.887   5.129 -0.0916  0.0920 -0.0049
43503W        W43703   3.657   3.408  12.568 -0.0846 -0.3149  0.0826
43504W        W43704   6.478   7.718   7.373 -0.0858 -0.1064 -0.1115
43505W        W43705  12.445   9.247   9.102  0.1962  0.4759 -0.1921
43506W        W43706  13.203   1.679  16.377 -0.2132 -0.1772 -0.3016
43507W        W43707   3.920   4.203  17.874 -0.3646 -0.0072  0.1344
43508W        W43708   5.770  10.772  10.971 -0.1960 -0.1482 -0.1203
43509W        W43709  14.603   0.745   8.683 -0.2071 -0.0505  0.0852
43510W        W43710  12.587   8.625  15.213 -0.3996 -0.1520  0.0249
43511W        W43711  12.701  12.223   7.017 -0.1627 -0.1736 -0.0284
43512W        W43712  18.206  13.233  11.310 -0.0770  0.0727  0.1335
43513W        W43713  13.006   5.049  11.713  0.0214 -0.0226 -0.2302
43514W        W43714   1.811   4.975  14.687 -0.1653 -0.0523 -0.0720
43515W        W43715  17.542   6.236  13.054  0.0675  0.0830 -0.0204
43516W        W43716   0.254   4.781   8.514 -0.1525  0.0943  0.1484
43517W        W43717  10.394   7.115   8.099  0.1958  0.3662  0.0580
43518W        W43718  15.268   9.271   5.286  0.1725 -0.2321 -0.0193
43519W        W43719  12.591   6.552   0.334 -0.0278 -0.0448 -0.0415
43520W        W43720  13.273   5.276   7.673  0.2591 -0.1598  0.1774
43521W        W43721   1.316   4.251  16.127  0.0536  0.3605  0.0146
43522W        W43722  12.592   2.130   8.843  0.0367 -0.4936  0.2294
43523W        W43723   0.854   0.530  16.745 -0.0477  0.0710 -0.2343
43524W        W43724   1.530  10.880   5.917  0.2123  0.0896  0.1981
43525W        W43725   0.103   9.629  15.077  0.1394  0.0364  0.3339
43526W        W43726  12.910  16.671  10.447  0.1433  0.1406  0.1913
43527W        W43727  14.377   4.155   7.417  0.2460  0.1078  0.2375
43528W        W43728   7.655   1.640   7.543  0.4598 -0.0713 -0.0877
43529W        W43729   2.891  15.591  15.121  0.0973 -0.1724 -0.4745
43530W        W43730   0.281  12.650  12.589  0.0224  0.2758  0.1043
43531W        W43731   0.720   7.714   8.856 -0.3479  0.1583 -0.3506
43532W        W43732   9.610  11.511   9.008  0.0836 -0.1296 -0.0093
43533W        W43733  14.190  16.206   1.610 -0.0888 -0.0581  0.1633
43534W        W43734   9.478   5.444   6.958  0.0902 -0.1777 -0.2322
43535W        W43735  14.755   7.569   2.423  0.0508  0.0903  0.4131
43536W        W43736   6.812   2.081  15.022 -0.1536  0.3420  0.2205
43537W        W43737  11.649   7.599  11.757 -0.0028 -0.0529 -0.3089
43538W        W43738   0.823   0.372  14.387  0.0039  0.0024 -0.1380
43539W        W43739  16.770   5.855  17.400  0.1372 -0.4322 -0.0867
43540W        W43740   0.179   8.966  13.280  0.0258 -0.0670 -0.0542
43541W        W43741  13.622  13.858  18.206 -0.3363  0.3803  0.1842
43542W        W43742  14.258   4.492  10.676  0.5024  0.1208 -0.0485
43543W        W43743   1.673   2.273   1.522  0.3951  0.0160 -0.1260
43544W        W43744   7.821   6.998  10.874 -0.0102 -0.2692  0.0804
43545W        W43745  12.208   8.094  14.462  0.0436 -0.1544 -0.2586
43546W        W43746  15.948   7.580  11.432  0.0243  0.1643  0.2345
43547W        W43747  11.805   3.428   7.034 -0.0162  0.2584 -0.1937
43548W        W43748   1.716   6.812   2.312  0.1551  0.1248 -0.2413
43549W        W43749   0.002   3.944   0.931  0.0704 -0.1262 -0.1073
43550W        W43750  17.711  17.621   8.374  0.4996 -0.1530  0.0329
43551W        W43751  11.101   2.527  14.912 -0.0985  0.1895 -0.1609
43552W        W43752  13.522  16.565  11.970 -0.1412  0.0568  0.0900
43553W        W43753  14.596   6.265  16.852  0.0650 -0.2286 -0.1768
43554W        W43754  16.423   6.418   3.654 -0.0769 -0.1070  0.1076
43555W        W43755   4.369  14.363   1.825  0.1363 -0.0970  0.0683
43556W        W43756   9.922   9.327  17.338  0.2591 -0.2838  0.1912
43557W        W43757   8.468   1.153  16.738  0.1053 -0.0088 -0.0180
43558W        W43758  13.802   3.172  15.478  0.1164 -0.2308  0.1673
43559W        W43759   0.183   3.507  10.361 -0.1477 -0.2249 -0.2456
43560W        W43760   2.832  18.079  10.634  0.0835  0.2319 -0.4557
43561W        W43761  13.458  10.402   1.778 -0.0618 -0.3827 -0.0981
43562W        W43762  11.913  14.964  11.340 -0.5520 -0.0103 -0.0817
43563W        W43763  17.874   6.503   6.672  0.0440 -0.0258  0.2357
43564W        W43764   2.265  13.202  13.191 -0.1724  0.1039 -0.1322
43565W        W43765  16.863   1.147  11.177  0.0612  0.2509 -0.4586
43566W        W43766  14.561   8.381  11.109  0.0901  0.0167  0.0269
43567W        W43767  17.820   5.610  15.367  0.0607 -0.2564 -0.2321
43568W        W43768   5.714   3.843  13.707 -0.1582 -0.0941  0.0592
43569W        W43769  14.083   1.231   2.830  0.4265  0.2753 -0.2499
43570W        W43770  12.967   4.659   3.093 -0.0541 -0.1742  0.2040
43571W        W43771  18.160  15.817  14.692  0.0602 -0.0257  0.3639
43572W        W43772  13.776   3.619  12.283 -0.1256  0.1394  0.1361
43573W        W43773  12.737   0.659   6.697  0.1587  0.0330 -0.0375
43574W        W43774  13.003   2.098  13.613 -0.0977 -0.2541  0.0778
43575W        W43775  17.793   4.684  10.174  0.2057  0.0301 -0.0333
43576W        W43776  12.568   9.071  12.811  0.0940  0.1099  0.2155
43577W        W43777   5.482   4.362  12.301  0.0237  0.0745  0.0722
43578W        W43778  13.825   1.897  16.328 -0.0960  0.0388  0.0775
43579W        W43779  14.746   5.150  16.735  0.2866  0.2979  0.0310
43580W        W43780   1.193   8.444  16.944 -0.0983  0.1641 -0.0190
43581W        W43781  11.633   7.294   9.708  0.1473 -0.1162  0.1218
43582W        W43782  15.537   0.506   0.272 -0.2165 -0.0608 -0.0508
43583W        W43783   2.401  17.751   6.084 -0.0873  0.0604  0.0336
43584W        W43784  13.444   5.729   0.373 -0.1563  0.1410 -0.0495
43585W        W43785  13.591   7.973  10.523 -0.0609 -0.0415 -0.2302
43586W        W43786   9.520   6.505  13.175 -0.2020  0.0185 -0.0836
43587W        W43787   8.520   2.181   5.600  0.1629  0.1925  0.2496
43588W        W43788  11.469   3.270   6.075  0.3721 -0.1097  0.1341
43589W        W43789  16.400   3.715  15.413  0.1456 -0.0655 -0.1734
43590W        W43790   5.309   5.992   9.796  0.1254  0.3894 -0.0751
43591W        W43791   0.731   1.651   0.354  0.0529 -0.0226  0.0025
43592W        W43792  15.935   4.868   2.021 -0.1568  0.0140 -0.1460
43593W        W43793   5.201   0.796  10.231  0.1272 -0.0627  0.0443
43594W        W43794   4.487   2.274  17.766 -0.0600 -0.3508 -0.0411
43595W        W43795   5.540   7.714  17.760 -0.1736  0.2146  0.1788
43596W        W43796  16.736   7.158  12.143  0.4202 -0.1224  0.2623
43597W        W43797  17.995  16.771   3.856 -0.3332  0.3891  0.0910
43598W        W43798   1.067   5.515  17.765  0.3393  0.1398  0.2272
43599W        W43799   2.157  11.358  11.074  0.0854  0.3427 -0.2073
43600W        W43800   0.662   5.779   2.353  0.0450 -0.1425 -0.3580
43601W        W43801   9.122   8.467   8.301 -0.1211 -0.1929  0.2294
43602W        W43802   0.022   8.828   4.539  0.1268  0.0154 -0.1700
43603W        W43803  15.063   5.935  11.809 -0.2210 -0.0300 -0.0709
43604W        W43804   1.248   7.783  15.436  0.0686 -0.1102 -0.1085
43605W        W43805  10.400  18.030  16.759  0.0294 -0.0505 -0.1357
43606W        W43806  15.590  13.810  17.608 -0.0797 -0.0467 -0.3764
43607W        W43807  14.980  10.191   0.674  0.2074 -0.1863 -0.0687
43608W        W43808  16.638   3.834   0.281  0.2341 -0.2083  0.0213
43609W        W43809  10.962  18.196  14.871  0.1593  0.1441  0.3093
43610W        W43810   2.357   7.758  16.805  0.1482  0.1510 -0.0603
43611W        W43811  15.417   3.296  17.212 -0.1756 -0.3405  0.0052
43612W        W43812  17.842   6.149  12.190 -0.0198 -0.1645 -0.1303
43613W        W43813   7.816   5.693   1.102 -0.1707 -0.0028 -0.0129
43614W        W43814  14.533   6.687  14.775 -0.0455  0.1883 -0.4872
43615W        W43815   8.275   4.287  13.873  0.1521 -0.0134 -0.0463
43616W        W43816  13.697  13.083  13.056  0.1631 -0.3210  0.1372
43617W        W43817  16.894   6.741  13.625  0.2803  0.2640 -0.1764
43618W        W43818  16.755  15.408  15.572 -0.2736  0.1203  0.3006
43619W        W43819  13.578  18.100  15.212 -0.1836 -0.1207 -0.1637
43620W        W43820   5.416   4.688   7.889  0.1861  0.2721  0.2130
43621W        W43821   1.911   8.337  13.577  0.0124 -0.0536 -0.2163
43622W        W43822  13.915   1.038  14.451  0.1450  0.2324 -0.1430
43623W        W43823   0.945   5.033   4.168  0.1797 -0.1799 -0.0608
43624W        W43824   3.222   8.208   5.113 -0.0778  0.1622  0.0619
43625W        W43825   9.866  17.101  16.203  0.1214 -0.1444  0.1516
43626W        W43826   3.367  11.563  14.180 -0.0406 -0.2179 -0.1897
43627W        W43827  18.097   4.263   2.194  0.0843 -0.1594  0.1249
43628W        W43828  11.728   7.095  10.627 -0.3728  0.2108  0.0110
43629W        W43829  11.714   9.611  12.071  0.0073  0.0793 -0.2330
43630W        W43830  15.606  11.199   2.753 -0.2892 -0.1005 -0.0334
43631W        W43831   1.481   6.985   6.337  0.0309  0.0877 -0.0753
43632W        W43832  10.043   6.104   4.243 -0.0607 -0.2288 -0.1181
43633W        W43833   8.985   6.482   9.883  0.0688 -0.0200  0.0838
43634W        W43834   0.093  10.856  16.466 -0.1857 -0.0114  0.1355
43635W        W43835  14.186  16.146  17.503 -0.1431 -0.3427 -0.1055
43636W        W43836   2.310   7.907  17.877 -0.2081  0.3505 -0.0866
43637W        W43837  16.317   3.410   5.814  0.0232 -0.0255 -0.0889
43638W        W43838   4.339  11.264   2.828 -0.0172 -0.0301  0.0507
43639W        W43839  17.786   0.077  15.659  0.1013  0.3627 -0.0486
43640W        W43840   4.800   3.412  16.542  0.0621 -0.1936 -0.1413
43641W        W43841  15.874   5.771   0.773 -0.3250  0.2239  0.0373
43642W        W43842  14.205  12.598  10.560 -0.3197 -0.1250  0.3889
43643W        W43843   5.064   8.662   3.504 -0.1397 -0.3444  0.1284
43644W        W43844  13.649  13.228   2.143 -0.2637 -0.0807 -0.0225
43645W        W43845   0.300   0.589  14.399  0.2959  0.2223  0.2154
43646W        W43846   6.075   1.526   4.526  0.1527  0.0607  0.0667
43647W        W43847   0.083  12.137  17.806  0.0264  0.0087  0.0635
43648W        W43848  14.312  13.659  16.433  0.1752 -0.1598 -0.1440
43649W        W43849  11.052   2.556  13.648  0.0838  0.2344  0.0149
43650W        W43850  15.492  10.626  13.680  0.0036  0.0073  0.5210
43651W        W43851   3.205   8.728   1.723  0.1539  0.1381  0.1168
43652W        W43852  16.043   4.816  13.811  0.2421 -0.0183  0.2438
43653W        W43853  17.858   6.819   4.994 -0.0459  0.0825  0.1119
43654W        W43854   3.258   5.060  12.871  0.1112  0.0522 -0.2480
43655W        W43855  10.911   5.196  16.026  0.0305  0.2440  0.1171
43656W        W43856   3.173   1.819  18.058 -0.1169 -0.0229 -0.1761
43657W        W43857   9.945   7.272  18.098 -0.0287 -0.0312 -0.0468
43658W        W43858  17.308  11.048   9.903  0.2299 -0.1655  0.0292
43659W        W43859   1.993   8.392   3.773 -0.2159  0.3292 -0.0032
43660W        W43860   2.723   6.254   3.016  0.2229  0.1251  0.1578
43661W        W43861  15.867   3.628  16.242  0.1045 -0.0660  0.0798
43662W        W43862   4.776   6.667   0.201  0.4774 -0.1941 -0.0573
43663W        W43863   6.912   0.377  18.053 -0.0198  0.2756 -0.2025
43664W        W43864   2.230   6.255  13.263 -0.0214 -0.0273 -0.1071
43665W        W43865  15.700  14.817  11.929  0.1135  0.0123  0.0809
43666W        W43866   3.859   8.788  17.008  0.0403  0.0702  0.1554
43667W        W43867   0.067   5.202   3.429  0.0060  0.2482  0.0671
43668W        W43868  11.001  11.437  12.976 -0.1706  0.0842 -0.0019
43669W        W43869  17.091   2.178   9.454 -0.1431 -0.0802 -0.1280
43670W        W43870  17.516   5.771  16.840  0.0186  0.1899  0.3906
43671W        W43871  12.733   1.723  16.629 -0.1815  0.0545 -0.3048
43672W        W43872  12.832   3.792  12.823 -0.1900 -0.0735 -0.1889
43673W        W43873  15.791   8.614   4.564  0.1930  0.2668 -0.3758
43674W        W43874   5.631   1.052  16.658 -0.1312 -0.2509  0.1279
43675W        W43875   9.279   4.631  15.950  0.1022 -0.0549  0.0839
43676W        W43876  10.823  16.879   2.320  0.1018  0.0213  0.0237
43677W        W43877   0.085  17.834  14.633  0.0589  0.1247 -0.1388
43678W        W43878  14.555   0.101   1.815 -0.1143  0.1186 -0.1775
43679W        W43879  15.841   1.635  10.250 -0.4070  0.0859 -0.2687
43680W        W43880   7.123   5.101   1.349  0.0966 -0.1345 -0.2093
43681W        W43881  15.639   6.148  11.429 -0.0868 -0.0817  0.0526
43682W        W43882   0.214   2.953   0.668 -0.2998 -0.2206  0.0858
43683W        W43883  13.125   8.239  12.177  0.2364 -0.2699  0.0002
43684W        W43884   2.053   5.190  10.597 -0.0917  0.3282 -0.3446
43685W        W43885  10.745   1.435  16.900  0.0213 -0.1700  0.2245
43686W        W43886   9.340   4.712  11.104 -0.0746 -0.1825 -0.0147
43687W        W43887  15.427   9.094  11.833 -0.1007 -0.2824  0.0574
43688W        W43888  12.584  15.892   0.715 -0.2234 -0.0802 -0.2896
43689W        W43889  14.962   5.723  15.467  0.1411 -0.1612 -0.2400
43690W        W43890  15.688   8.112  15.885 -0.1983 -0.0044 -0.0524
43691W        W43891   0.633   2.650   7.787  0.2694  0.0759 -0.0255
43692W        W43892  14.069  14.743  14.107 -0.2899 -0.1954  0.1436
43693W        W43893  18.116   6.189   0.562 -0.2856  0.2946  0.2512
43694W        W43894   5.249   5.023   1.780 -0.1406  0.0615  0.0993
43695W        W43895   2.650  11.392   3.368 -0.2306  0.1037 -0.1487
43696W        W43896  10.468   5.014  15.921 -0.1546  0.1690 -0.2555
43697W        W43897   1.058   3.094   1.136 -0.1235 -0.1550 -0.1016
43698W        W43898   4.339   6.816  13.586 -0.2850  0.1248 -0.4475
43699W        W43899  11.955   5.067  15.852 -0.2753  0.0629  0.1407
43700W        W43900   1.464   3.980  17.987  0.0630 -0.2432 -0.2080
43701W        W43901   1.363  12.735   0.744 -0.0673 -0.0372  0.0474
43702W        W43902   4.655   1.240  18.083  0.0845 -0.0423  0.1597
43703W        W43903   8.159   6.583  18.084 -0.1032 -0.1387 -0.0776
43704W        W43904   0.923   6.823   6.921  0.0708  0.3994  0.1989
43705W        W43905  12.961  10.666  10.220  0.0577 -0.2155  0.0113
43706W        W43906  10.446   4.688   1.626  0.1096 -0.2665  0.0769
43707W        W43907  13.495   2.279  10.498 -0.1362  0.2321  0.1695
43708W        W43908  15.585   8.156  17.500  0.0568 -0.0070  0.0584
43709W        W43909   1.428  15.926   5.450  0.0501 -0.1327  0.2466
43710W        W43910  13.872   9.503  14.344 -0.0492  0.3147 -0.0274
43711W        W43911  12.588  10.365  11.447 -0.0378  0.0379  0.0160
43712W        W43912   0.736   6.927   1.548  0.0473  0.3393  0.0020
43713W        W43913  16.867   8.051  12.444  0.1131  0.0819  0.0505
43714W        W43914  15.742   9.854   6.398 -0.1544  0.0657  0.3861
43715W        W43915   0.978   3.238  17.208 -0.2808 -0.0157 -0.0491
43716W        W43916   0.881   8.162  17.424 -0.0978 -0.0645  0.0231
43717W        W43917  10.307   1.745   4.777  0.0739 -0.0033  0.0133
43718W        W43918   7.460   6.332   5.184 -0.2461 -0.0657 -0.1004
43719W        W43919  12.088  12.933  13.286 -0.0238 -0.2488 -0.1828
43720W        W43920  11.338  13.243  13.510 -0.0702 -0.0296  0.0616
43721W        W43921  14.484   4.586  15.496 -0.0181 -0.1294 -0.0262
43722W        W43922  18.084   6.561  11.414 -0.0465 -0.2165 -0.0691
43723W        W43923  14.495   9.596  12.738 -0.1768  0.3181 -0.0697
43724W        W43924   4.727   6.523   3.046  0.3037 -0.0660 -0.0618
43725W        W43925   0.060   4.332  10.128  0.1954 -0.0488 -0.0762
43726W        W43926   1.507  10.640   1.535  0.1548  0.2947  0.0528
43727W        W43927  12.960   9.087  12.519  0.1563 -0.2214  0.2101
43728W        W43928   0.709   6.219  17.116 -0.0364  0.0316 -0.0324
43729W        W43929  17.619   8.303   9.114  0.0830  0.0618 -0.4728
43730W        W43930  10.509  10.397   0.674  0.1392  0.2317  0.0054
43731W        W43931  17.053   7.450  11.943  0.1689 -0.0937  0.2401
43732W        W43932   9.391   4.977  13.512 -0.0688  0.3858  0.1170
43733W        W43933   1.860  10.566  15.572  0.1374  0.0480  0.1812
43734W        W43934   5.873   5.086  15.641  0.1633 -0.0434 -0.1270
43735W        W43935  17.327  12.614  17.552 -0.2789 -0.0612  0.1059
43736W        W43936   0.802   9.236  13.974 -0.0903 -0.2760  0.5615
43737W        W43937  13.954   5.720   0.661  0.0436  0.1023 -0.4106
43738W        W43938  11.964  12.970  14.121 -0.0860  0.2101 -0.3631
43739W        W43939   1.412   5.526   1.321 -0.2992 -0.0914 -0.2944
43740W        W43940  15.727   9.022  17.941 -0.0144  0.0281 -0.1336
43741W        W43941  18.046   9.707  16.421 -0.0827 -0.1923 -0.0254
43742W        W43942  16.598   5.165  13.143 -0.0945  0.0338 -0.0231
43743W        W43943  12.398   4.986   7.280 -0.2103 -0.0064 -0.0878
43744W        W43944   2.986   3.177  15.520 -0.0100 -0.2832 -0.1140
43745W        W43945  15.445   7.387  16.467 -0.1966 -0.0228  0.1818
43746W        W43946   1.119  11.918  17.874  0.1423 -0.2379  0.1043
43747W        W43947  16.275  17.715  15.867 -0.2001  0.3290  0.1805
43748W        W43948   1.502  16.434  15.649  0.1172  0.1346 -0.2237
43749W        W43949   3.874   4.398  13.836 -0.2148  0.1151 -0.6724
43750W        W43950  14.144   6.819  12.471  0.0418  0.1767  0.2692
43751W        W43951   5.442   5.495   1.477  0.0524  0.0398 -0.3544
43752W        W43952  16.070   0.423   2.430  0.1306  0.0563  0.3545
43753W        W43953  12.895   4.925   7.382  0.4887  0.1739 -0.0394
43754W        W43954   2.981   0.964   1.052 -0.2823 -0.3135 -0.0112
43755W        W43955  16.919  12.657   4.460  0.0801  0.1711  0.2860
43756W        W43956   9.643   6.933   6.676 -0.0491 -0.1278  0.0903
43757W        W43957  14.771  13.420  15.734 -0.1144 -0.1457 -0.1124
43758W        W43958   2.447  11.442  15.092  0.0397  0.0942  0.1949
43759W        W43959  17.090   8.314   4.135  0.3296 -0.0035  0.0732
43760W        W43960   9.323   5.948   2.324  0.1435 -0.1243  0.0985
43761W        W43961   9.561   4.851  12.367 -0.0990  0.2322 -0.2312
43762W        W43962   1.550   4.242   5.078  0.3101 -0.0538  0.0309
43763W        W43963   1.174   3.080   1.677 -0.0985 -0.1054 -0.0682
43764W        W43964   0.598  16.579  13.638  0.0205  0.3290 -0.2243
43765W        W43965  13.473  10.889   5.675  0.2106  0.0641 -0.0197
43766W        W43966  11.609   2.116  12.752 -0.0470  0.1753 -0.2358
43767W        W43967  17.135   3.438  14.243  0.1875 -0.1527  0.0250
43768W        W43968  11.981   4.921   3.734 -0.1156 -0.0967  0.0850
43769W        W43969  13.626   6.218   4.394 -0.0884  0.4398 -0.0216
43770W        W43970  10.015  16.317  14.001  0.0599 -0.1015  0.0441
43771W        W43971   6.238   6.781   2.736 -0.1670  0.1127  0.0084
43772W        W43972  15.762   9.979  16.516 -0.3382 -0.2075  0.0952
43773W        W43973  17.529  12.282  12.039  0.0276 -0.0278 -0.1031
43774W        W43974   3.405   7.209  14.845  0.1291 -0.3859  0.0649
43775W        W43975   1.956   8.419  11.780  0.0905 -0.1633 -0.1069
43776W        W43976   0.618  12.725   6.560 -0.1463 -0.2217 -0.2154
43777W        W43977  14.448   2.921   2.847 -0.1400  0.0424 -0.0210
43778W        W43978  13.756   5.757   9.871  0.2446 -0.0570 -0.1150
43779W        W43979  11.146   8.119   8.437 -0.0700 -0.1614 -0.1864
43780W        W43980   1.918   3.517   2.239 -0.4487  0.2353  0.3295
43781W        W43981   5.049   6.247  13.157  0.3095 -0.4102 -0.0634
43782W        W43982  16.706   2.542  10.636  0.2205  0.1131 -0.0506
43783W        W43983   8.235   5.458  16.659 -0.1434  0.1739 -0.0609
43784W        W43984  17.145   8.737   0.839 -0.0824  0.5207 -0.0453
43785W        W43985   0.675   3.831  11.784 -0.2354 -0.0243  0.0267
43786W        W43986   6.862   4.088  11.719  0.1860  0.3545 -0.0155
43787W        W43987  16.378   8.702  10.895 -0.2174  0.1253 -0.1784
43788W        W43988  10.782   3.353  17.411 -0.1215 -0.3627  0.0083
43789W        W43989  10.261  11.991   7.349 -0.0609 -0.1602 -0.0952
43790W        W43990   0.753  11.716   2.711 -0.0442 -0.2107 -0.2533
43791W        W43991  14.173   2.510  16.717 -0.0751 -0.0067  0.1094
43792W        W43992   9.735   0.050  13.591 -0.3803 -0.0304 -0.0060
43793W        W43993   1.384   4.649  13.211 -0.1778  0.4528  0.1146
43794W        W43994  14.684  17.108  13.269  0.1304 -0.0087 -0.3011
43795W        W43995   7.593   2.271  12.400 -0.0260 -0.0867  0.2152
43796W        W43996  17.183   5.758  12.164  0.1758 -0.4211  0.1130
43797W        W43997  13.749   3.588  16.293 -0.3975 -0.1813  0.0908
43798W        W43998   3.954  13.490  17.612  0.3578  0.1580 -0.0186
43799W        W43999  17.399   7.658  15.279 -0.2576 -0.1480  0.0314
43800W        W44000   1.701   0.202  16.773  0.0576  0.0680  0.0002
43801W        W44001  12.130   8.603  16.544 -0.0323 -0.2002  0.0725
43802W        W44002  16.287   3.247   9.016 -0.3015 -0.1759  0.0810
43803W        W44003  17.900   2.604  15.413  0.3443  0.0370  0.0596
43804W        W44004  13.667   2.251   2.744  0.1156  0.2724  0.1503
43805W        W44005   7.618  15.165  18.127  0.0806 -0.0816 -0.0156
43806W        W44006  17.470   4.678   0.823  0.1637  0.1330 -0.0962
43807W        W44007  16.428   2.270   7.867 -0.1398  0.1867  0.2142
43808W        W44008  17.425  12.642   6.643  0.2711 -0.1774  0.2662
43809W        W44009  16.206   5.031  14.939 -0.0036 -0.1651 -0.1597
43810W        W44010  17.555   0.679   3.840  0.1348  0.1086 -0.1193
43811W        W44011  15.634   2.076  10.000  0.0136  0.0893 -0.0456
43812W        W44012  17.728   7.242  17.438 -0.0823  0.0555  0.4112
43813W        W44013   2.285   8.432   0.493  0.0212 -0.1936 -0.1305
43814W        W44014   5.192   4.006   4.128 -0.1626 -0.2308 -0.1349
43815W        W44015  13.187   8.911  16.092 -0.1456  0.1595 -0.1499
43816W        W44016  16.334   7.402   4.763 -0.2114  0.0444 -0.0753
43817W        W44017  10.416   8.750   7.741  0.2874  0.1770  0.2652
43818W        W44018  16.084   2.646  14.727  0.4487  0.0770  0.1399
43819W        W44019  17.289  16.123   6.078 -0.0959  0.0269 -0.0721
43820W        W44020   3.815   5.798  15.069 -0.1940  0.2523  0.0202
43821W        W44021   4.164   2.885   6.998  0.0070  0.4219 -0.1453
43822W        W44022  14.687  14.989   4.484 -0.0535  0.2928 -0.1571
43823W        W44023  13.632  18.192  17.765  0.2180 -0.0849 -0.3066
43824W        W44024  13.145   6.938   6.019 -0.1332 -0.1748 -0.0607
43825W        W44025   3.114   3.389  15.911 -0.1199 -0.1542 -0.2305
43826W        W44026   0.505   8.241  16.233 -0.1267 -0.1619 -0.1896
43827W        W44027  18.011   4.727  18.159 -0.0528  0.0529 -0.4144
43828W        W44028  14.120   9.377  11.592 -0.1095  0.1199 -0.0102
43829W        W44029   0.451   9.968   1.768  0.0322  0.0654 -0.1337
43830W        W44030   5.317   0.278  11.322 -0.1100  0.1497 -0.1600
43831W        W44031   1.879   4.556  13.379 -0.3184 -0.4729 -0.0164
43832W        W44032   3.398   8.320   0.551  0.1837  0.1184  0.1248
43833W        W44033  16.193   6.130  16.769 -0.0840 -0.0971  0.1045
43834W        W44034  14.917   8.298  12.214 -0.0714  0.0157 -0.1209
43835W        W44035  17.035   7.959   8.502 -0.2236 -0.0056  0.2064
43836W        W44036  15.692   1.494  17.344 -0.1443 -0.3111  0.1701
43837W        W44037  17.568  11.766   1.647  0.0684 -0.0674 -0.1531
43838W        W44038   4.396   0.794   2.899  0.0832 -0.1415  0.1101
43839W        W44039   0.331  10.273  17.325 -0.0035 -0.0835  0.0771
43840W        W44040  13.256   6.514   9.495  0.4053  0.0517 -0.0768
43841W        W44041   6.167  17.022   2.964 -0.1244  0.2594 -0.4967
43842W        W44042  10.164   6.147  14.405 -0.1572 -0.0536  0.0410
43843W        W44043  16.548   2.125  15.033  0.1273 -0.2887  0.2063
43844W        W44044   2.171   5.671   1.255  0.1889 -0.1236 -0.1640
43845W        W44045   6.589   2.071  15.937 -0.1320  0.0819  0.0881
43846W        W44046   0.625   6.129  12.916 -0.0814 -0.0519  0.0130
43847W        W44047   0.167  16.833   9.415 -0.4720 -0.1668  0.0973
43848W        W44048   1.189  17.257   2.816 -0.1156  0.0593  0.1949
43849W        W44049  15.014  12.292  12.164  0.1145 -0.1771  0.3074
43850W        W44050  10.970   6.503  16.606  0.1492  0.2124 -0.0454
43851W        W44051  17.734   9.689  15.673  0.1480 -0.0905 -0.0885
43852W        W44052  15.834  13.031  13.183  0.2840 -0.2847  0.2110
43853W        W44053   1.818   2.140   7.547 -0.0161 -0.1832 -0.4996
43854W        W44054   3.788   2.289  16.475  0.0827  0.0060 -0.2486
43855W        W44055  11.965  10.062  17.811  0.3135  0.2347  0.0103
43856W        W44056   2.979   4.130  15.229 -0.2305 -0.3758  0.2855
43857W        W44057  15.600  17.230   3.039  0.2039  0.1913 -0.3368
43858W        W44058  17.433  11.110   3.907  0.0031 -0.0221 -0.0132
43859W        W44059   1.936   3.441   3.769 -0.0904 -0.3515 -0.2794
43860W        W44060  13.608   9.867  17.208 -0.1091 -0.0237 -0.1670
43861W        W44061  17.573   3.374   1.192 -0.1860 -0.0825 -0.0748
43862W        W44062   6.345   3.700  14.098  0.3271 -0.0036 -0.0641
43863W        W44063  11.342   2.835  16.352  0.0238 -0.1428  0.3928
43864W        W44064   2.463   5.418   3.764  0.2222  0.2403 -0.2119
43865W        W44065  13.872   0.672  10.652 -0.0562 -0.1032 -0.0726
43866W        W44066  11.863   4.515   6.187 -0.1111  0.1823 -0.1752
43867W        W44067   8.526   4.327   1.194 -0.1027  0.0983  0.2195
43868W        W44068  15.251   1.379  11.813 -0.2136 -0.1447  0.3001
43869W        W44069  17.663   2.677   5.280  0.1314 -0.0011  0.2394
43870W        W44070  16.756   4.167   0.625  0.0876  0.1258 -0.4414
43871W        W44071  17.723   8.508   1.864  0.2386  0.0286  0.1077
43872W        W44072  17.678  12.755  10.996  0.1259  0.0864  0.1541
43873W        W44073  17.223  16.099   3.066  0.1880 -0.0227 -0.1018
43874W        W44074   9.100   6.833   1.123 -0.0360  0.1983 -0.2542
43875W        W44075   8.433   9.819   8.106 -0.1187 -0.2910  0.0975
43876W        W44076   0.349   4.928  13.281 -0.0715 -0.1879 -0.1572
43877W        W44077   4.976   9.025  12.889 -0.1536  0.2069  0.0962
43878W        W44078  12.308   2.242   1.059 -0.0798 -0.2089  0.0412
43879W        W44079   9.541  11.039  11.303 -0.2435  0.0801  0.1054
43880W        W44080  13.551   1.569   4.008  0.1373  0.2018 -0.1336
43881W        W44081  18.182   4.279  14.443 -0.1160  0.3392  0.2616
43882W        W44082   2.772   6.264  10.949 -0.3200 -0.2496  0.2394
43883W        W44083   3.900   0.107   8.318 -0.0544 -0.2616 -0.1327
43884W        W44084   6.864  17.801  16.550  0.0232 -0.1323  0.3838
43885W        W44085  15.532  16.210  13.756 -0.0059  0.0769 -0.0357
43886W        W44086  16.985  17.981   0.792  0.3619 -0.0835 -0.1393
43887W        W44087  11.794   0.922  17.234  0.1927 -0.1421 -0.1266
43888W        W44088  17.074  14.691   2.668  0.3408 -0.0019  0.0695
43889W        W44089   6.398  13.900   2.381 -0.2469 -0.0733  0.1477
43890W        W44090  14.557   4.735  12.147 -0.0767  0.1153  0.0765
43891W        W44091  10.709   6.229  15.977  0.0931  0.0146  0.1525
43892W        W44092   1.890   3.150  16.758  0.1479 -0.0379 -0.1312
43893W        W44093   5.864   3.163   1.324 -0.0092  0.1474  0.1110
43894W        W44094  17.791   5.656   9.715  0.1129  0.0194 -0.1909
43895W        W44095  15.736   0.959  12.613 -0.3706  0.0488  0.0474
43896W        W44096  14.713   8.161   2.583 -0.0066  0.1915 -0.1619
43897W        W44097   9.769   6.317   2.883 -0.3012  0.1646 -0.0068
43898W        W44098   8.353   7.464  11.540  0.2658 -0.0137 -0.0039
43899W        W44099   2.393   5.358   2.197  0.1616 -0.2045 -0.3001
43900W        W44100  16.864   8.499   2.312  0.1248  0.0503  0.2947
43901W        W44101   1.928   7.909  13.296  0.0208 -0.1947 -0.0433
43902W        W44102   1.811   9.172  12.319 -0.0653  0.0736  0.2710
43903W        W44103  13.594   8.608  11.065 -0.0623 -0.1050  0.1254
43904W        W44104  13.090   8.701   3.032 -0.2138 -0.0860 -0.0245
43905W        W44105   0.749   9.990   3.507 -0.1404 -0.0883  0.0660
43906W        W44106  15.070   8.024  16.258  0.2391  0.2394 -0.1317
43907W        W44107  12.982  10.800  14.687  0.3162 -0.1476 -0.3141
43908W        W44108   0.324   8.706  12.437 -0.2448 -0.0982 -0.0438
43909W        W44109   9.332   8.708  11.903 -0.2015 -0.4041 -0.0879
43910W        W44110   3.672  11.564   2.286  0.0502 -0.2517 -0.0602
43911W        W44111  16.484  12.157   1.477 -0.3908  0.0602 -0.0452
43912W        W44112  13.027   9.047  10.260 -0.2900  0.1911  0.1110
43913W        W44113  13.618   3.032   2.584  0.0293  0.0375 -0.0178
43914W        W44114  16.030   7.167   1.540 -0.0769 -0.0626 -0.2466
43915W        W44115   0.704  17.888   4.683 -0.2482 -0.1148 -0.2291
43916W        W44116   4.216   5.207   1.650 -0.0793  0.0860  0.0084
43917W        W44117   8.541   4.814  12.382 -0.1459 -0.0430  0.0013
43918W        W44118  13.609  10.829  16.419  0.1592 -0.1981  0.0844
43919W        W44119  11.337  17.665  16.209  0.1379 -0.0004 -0.0177
43920W        W44120  17.616   4.318  16.937 -0.1069 -0.2793  0.1554
43921W        W44121  14.386  10.279  15.946  0.0539 -0.0752  0.0203
43922W        W44122  13.861   4.517  18.202  0.2985 -0.0796 -0.0661
43923W        W44123  15.965   0.145   4.939  0.0675  0.1741 -0.0166
43924W        W44124  17.799   0.687  17.253  0.3686 -0.1974  0.2121
43925W        W44125  17.800   0.971   3.404  0.1305  0.0008 -0.0045
43926W        W44126   1.778   6.280   2.145 -0.0285 -0.0075 -0.0864
43927W        W44127  11.457   6.791   9.609 -0.0992 -0.0250  0.3056
43928W        W44128  11.279  17.447   9.355 -0.1337  0.0543 -0.2364
43929W        W44129  18.012   4.794   0.726 -0.3182 -0.1232 -0.0038
43930W        W44130  16.118   2.291   1.049  0.2825  0.0121 -0.0039
43931W        W44131   1.652   0.638   9.706  0.1558 -0.1218  0.2388
43932W        W44132   2.834   4.390  14.326 -0.0403 -0.0458  0.0578
43933W        W44133  14.793   5.988  16.493 -0.1509 -0.3654  0.0119
43934W        W44134   3.449   9.148   8.782  0.1738 -0.0437  0.0494
43935W        W44135   1.953  10.817  10.199  0.1090 -0.3114 -0.1413
43936W        W44136   0.068  11.918   7.529  0.1729 -0.2270  0.0345
43937W        W44137  11.275   8.343   5.215 -0.2527 -0.1826  0.1957
43938W        W44138  10.006  13.269   8.447 -0.4451  0.0710 -0.0051
43939W        W44139  17.963   6.070   7.842  0.3086  0.0701  0.0749
43940W        W44140   9.178   6.444  10.414 -0.0634  0.1404 -0.1371
43941W        W44141  12.074   4.836   1.115  0.1430  0.0552 -0.0065
43942W        W44142  16.265   0.857  15.186  0.0809  0.3457 -0.0142
43943W        W44143  17.846   8.782  14.836  0.1015 -0.1322  0.1701
43944W        W44144  13.594  17.433   0.606  0.0398  0.0094  0.0503
43945W        W44145  10.219   4.265  16.422 -0.1301 -0.0008  0.1643
43946W        W44146   6.787   3.591  17.682 -0.1937  0.3288  0.3292
43947W        W44147   7.690  12.785  12.016 -0.0256 -0.0824 -0.4175
43948W        W44148  17.337   7.463   0.629  0.0651  0.0808  0.2675
43949W        W44149   2.005  17.951   9.675  0.3874  0.1094 -0.1614
43950W        W44150   9.856   8.984  14.001  0.2592  0.1214  0.5280
43951W        W44151  12.913   7.112  12.435  0.2497  0.0878 -0.1923
43952W        W44152   0.578  12.036   3.865 -0.0121  0.0961 -0.0518
43953W        W44153  16.410   7.312   7.013  0.3097  0.0757  0.0520
43954W        W44154   2.494   7.104  12.342 -0.1986 -0.0436  0.3093
43955W        W44155  15.693   0.439  16.453 -0.0321 -0.1654 -0.1956
43956W        W44156  16.885   4.722  12.843  0.0779  0.1141  0.0275
43957W        W44157   2.146   2.632  15.749  0.0541 -0.0874  0.0878
43958W        W44158   8.137   7.010  14.126 -0.1768 -0.0811  0.0601
43959W        W44159   1.355   4.276   2.080  0.0026  0.3854 -0.1316
43960W        W44160   5.296  12.528  14.167 -0.0718 -0.4633  0.1060
43961W        W44161  14.017   6.360   9.393  0.2629  0.1006 -0.1985
43962W        W44162  13.508   1.595   0.687 -0.0627 -0.0551 -0.0301
43963W        W44163   5.950   7.285   9.278  0.3711  0.0556  0.0914
43964W        W44164  17.066   0.805   3.943 -0.0573  0.2464  0.2101
43965W        W44165  16.830   1.687   1.320 -0.2758 -0.0574  0.0667
43966W        W44166  17.242   4.411   8.178 -0.0066  0.2462  0.3767
43967W        W44167  11.839   8.160   4.545  0.1865  0.2114  0.2551
43968W        W44168  18.174   3.292  15.725  0.4216  0.3537 -0.1837
43969W        W44169   4.504  17.758   2.847  0.0613 -0.0210  0.1549
43970W        W44170  15.882  17.989  15.678 -0.1320 -0.0226 -0.1246
43971W        W44171   9.586   8.085   3.515 -0.1946  0.0807  0.0406
43972W        W44172  16.835  11.239  13.803  0.3048 -0.3216 -0.0136
43973W        W44173   6.409   0.622  14.806  0.0825 -0.0025 -0.1081
43974W        W44174  14.419  10.668  17.673 -0.0769  0.0649 -0.0083
43975W        W44175  12.298   9.763  13.603 -0.0543 -0.5403  0.3007
43976W        W44176  13.575   5.963  17.397  0.3839 -0.0948  0.2160
43977W        W44177  13.359   2.881  12.901 -0.1782  0.0931 -0.0009
43978W        W44178  14.786   8.769   2.541  0.0492 -0.0542 -0.1518
43979W        W44179  13.539   5.961  16.320  0.2872 -0.1496  0.1059
43980W        W44180  16.998   4.310  18.135 -0.0411  0.0364 -0.1635
43981W        W44181   1.679  17.116   6.102  0.1846 -0.3330 -0.3396
43982W        W44182  13.320   5.048  17.832 -0.1492  0.2393 -0.3618
43983W        W44183   8.441  17.091  16.752  0.1010 -0.1552  0.0278
43984W        W44184   4.459   6.285   0.139  0.1040 -0.0162  0.0015
43985W        W44185  15.728   8.391   0.341  0.0519 -0.3110 -0.2647
43986W        W44186  16.414  10.508  16.327 -0.0035  0.1384  0.2459
43987W        W44187   6.743   5.789  15.863  0.0309 -0.0234  0.0751
43988W        W44188   8.817  13.799   3.036 -0.2128  0.1256  0.0336
43989W        W44189   1.596   9.087   2.731 -0.2957 -0.0770  0.1236
43990W        W44190  10.020   1.664  12.969 -0.0539 -0.1255 -0.2881
43991W        W44191  16.472   1.291  17.798  0.1539  0.1207  0.0573
43992W        W44192  14.130  10.799   8.833 -0.1756  0.0854  0.0579
43993W        W44193   5.836   9.394   0.480  0.1084 -0.1523 -0.2086
43994W        W44194  14.497   0.094   8.096 -0.1994  0.0587  0.2012
43995W        W44195   9.948  17.380   0.852  0.1753 -0.1076  0.1934
43996W        W44196   0.210   9.263   2.896  0.1893  0.0118  0.1361
43997W        W44197   5.450   6.136   4.718 -0.0181  0.0319  0.1506
43998W        W44198  14.638  12.766  10.692  0.0066  0.2629 -0.0609
43999W        W44199   5.410   6.935   3.647 -0.0256  0.1033  0.1653
44000W        W44200  12.975   2.478  16.271 -0.0013  0.0583  0.3389
44001W        W44201   0.742   4.280   5.491  0.1656 -0.0374  0.0503
44002W        W44202   4.924   4.355   2.636 -0.1152 -0.0627  0.1464
44003W        W44203  16.366  10.970   7.264 -0.1672  0.0742  0.0903
44004W        W44204   6.315   4.759   3.618 -0.0680 -0.1256  0.0618
44005W        W44205  15.093  13.845   8.640  0.2218  0.0820  0.1183
44006W        W44206  15.446  11.051   5.580  0.0143  0.0680  0.3810
44007W        W44207   0.514   9.585  13.551 -0.1086 -0.0538 -0.0635
44008W        W44208   9.476  10.614  17.471  0.0259  0.4726 -0.1238
44009W        W44209   8.615   7.009  17.487 -0.0735  0.1441 -0.1053
44010W        W44210  18.114  11.915   6.039 -0.0205  0.0066  0.0420
44011W        W44211   6.538  10.983   4.678  0.1437  0.0361  0.0808
44012W        W44212   2.056   6.007   1.654 -0.0817 -0.1294 -0.2406
44013W        W44213   9.504   7.126   4.176 -0.1591  0.1083  0.0970
44014W        W44214  16.476   8.716  11.450 -0.0604  0.1051 -0.1814
44015W        W44215   9.441  13.740   3.117  0.2884 -0.4579 -0.1529
44016W        W44216  14.378   3.900  17.652 -0.1075  0.0354 -0.1166
44017W        W44217  16.028  11.678   2.836 -0.0503 -0.2256 -0.0966
44018W        W44218  15.353   5.857  12.818 -0.0667  0.1556 -0.3208
44019W        W44219   9.887   5.736   7.672 -0.0512  0.1799 -0.0121
44020W        W44220  11.105  12.723  11.129 -0.1162  0.0011 -0.3327
44021W        W44221   0.061  10.276   2.898 -0.1769 -0.1905  0.0154
44022W        W44222   7.375  10.854   8.866  0.1240 -0.0085 -0.0762
44023W        W44223  14.241  12.196   3.173  0.0468 -0.3252 -0.0353
44024W        W44224   0.405  11.560   3.787  0.0400  0.2091 -0.0806
44025W        W44225   9.604  10.206   0.772 -0.2211  0.0878 -0.0562
44026W        W44226  16.515  15.341   2.006 -0.3444 -0.0936  0.0935
44027W        W44227  16.343   4.185  17.598  0.1453 -0.0441 -0.1318
44028W        W44228  11.387   6.714   7.604 -0.3265  0.1149 -0.0473
44029W        W44229  16.299  11.595   1.617 -0.3222 -0.0897  0.0719
44030W        W44230  10.424   5.644   1.520  0.3297  0.0976 -0.1226
44031W        W44231  14.123   2.816  16.331 -0.3347  0.0502  0.2435
44032W        W44232  16.111   7.773   3.971 -0.2679  0.1818 -0.0159
44033W        W44233  12.954  13.547  16.169  0.1888  0.0246  0.1881
44034W        W44234  15.664  13.604   9.470 -0.1473 -0.0517  0.1306
44035W        W44235  12.739   9.125  13.259  0.0109  0.3797  0.1906
44036W        W44236  17.510   2.929   4.736  0.1205  0.0770  0.2715
44037W        W44237  17.318   8.450  17.865 -0.2031 -0.0185  0.1583
44038W        W44238   1.790   8.034  10.811  0.2906  0.1139  0.1726
44039W        W44239  13.961  10.700  13.745  0.1295 -0.3799  0.1454
44040W        W44240   3.050   3.566   4.564  0.1334 -0.1403 -0.0567
44041W        W44241   0.417   1.931  16.719  0.1506 -0.0170  0.0537
44042W        W44242  10.111   5.119   7.716  0.1339  0.1426  0.4663
44043W        W44243  13.535  11.258  10.387  0.0275  0.0838  0.1760
44044W        W44244   3.958  10.511   9.949 -0.3816  0.0705  0.0001
44045W        W44245  13.312   1.504   9.914 -0.1663  0.0994 -0.3927
44046W        W44246   0.310  10.085  18.160  0.1728 -0.4416 -0.1872
44047W        W44247   4.547  11.005  17.778 -0.0023  0.1165  0.0509
44048W        W44248  15.042  17.449   5.469  0.0092 -0.3201 -0.2947
44049W        W44249   7.908  11.228  16.734 -0.0054  0.1423  0.3401
44050W        W44250   4.149  15.109  17.660 -0.0763  0.2307 -0.1419
44051W        W44251  13.891  10.944  14.747 -0.3965 -0.0246 -0.0379
44052W        W44252  17.780   6.323   4.831  0.1290 -0.2645  0.3840
44053W        W44253  15.281  13.209   4.919 -0.1321  0.0288 -0.1952
44054W        W44254  12.152   8.199   0.925  0.3356 -0.2474  0.2487
44055W        W44255   0.088   3.033  15.292 -0.0811  0.2197  0.0151
44056W        W44256   3.332  10.558  14.261  0.4316  0.0771  0.5323
44057W        W44257  13.870   7.189  14.541 -0.2722 -0.1106  0.1174
44058W        W44258  11.151  10.652   5.961  0.1761 -0.1277 -0.0100
44059W        W44259   8.667  15.092   1.439  0.0477  0.3168 -0.1404
44060W        W44260   8.502  14.344   2.845 -0.1387  0.3473  0.1097
44061W        W44261   3.498   9.557   4.190 -0.2219  0.2077 -0.1643
44062W        W44262  17.826   2.514   5.701 -0.1502  0.0626  0.0115
44063W        W44263  17.546   8.821  13.499  0.1071  0.1493  0.1447
44064W        W44264   0.050   3.926   6.602 -0.0441  0.1756 -0.1370
44065W        W44265  17.689  14.604   3.696 -0.3053 -0.1479 -0.0392
44066W        W44266   7.308   8.164   7.677 -0.0333  0.0016  0.0596
44067W        W44267  15.799   1.404  16.636  0.0137 -0.1015 -0.2030
44068W        W44268   0.627   3.499  14.577 -0.2557  0.1192  0.0730
44069W        W44269  17.021  13.249   5.804  0.0392  0.3267  0.2892
44070W        W44270  10.735   7.285   4.705  0.0347  0.0705  0.2675
44071W        W44271  12.412   5.279  16.182  0.1514 -0.0781  0.2689
44072W        W44272   0.949   9.315  17.072 -0.0652 -0.0707 -0.1407
44073W        W44273   1.031   8.842  16.689 -0.1179  0.2710  0.1470
44074W        W44274  18.163   8.050   0.570  0.1559 -0.2027 -0.3067
44075W        W44275   2.479   9.657  10.934  0.1795  0.0814  0.0980
44076W        W44276  14.015  13.516   4.584 -0.0654  0.0106 -0.1438
44077W        W44277   4.459   3.603   8.698 -0.0217 -0.1623 -0.0752
44078W        W44278  18.185  17.003   3.429  0.0144 -0.1926 -0.3212
44079W        W44279  16.512   8.084   1.685 -0.3915  0.1245  0.1485
44080W        W44280   4.864   6.865  12.839 -0.2069  0.2667  0.2979
44081W        W44281  10.290   2.610   3.418  0.0256  0.1170  0.2028
44082W        W44282  16.988  11.643   4.570 -0.0066 -0.3520  0.1467
44083W        W44283  13.301   4.559   7.089 -0.1373 -0.1939  0.2467
44084W        W44284   2.657   8.278  14.829  0.0064 -0.2241 -0.2782
44085W        W44285   4.933  10.603  12.468  0.0320  0.3113  0.2273
44086W        W44286   8.537   8.678   5.014 -0.2666  0.0097  0.1178
44087W        W44287   1.709  16.225  17.319 -0.1190 -0.1335 -0.0681
44088W        W44288   4.921  12.678   5.261  0.1845  0.0775 -0.1438
44089W        W44289  16.027   3.399  15.335  0.0823  0.2324  0.2268
44090W        W44290  17.122   5.690   8.746  0.0059 -0.2684 -0.0480
44091W        W44291   7.624  15.533   4.374  0.0882 -0.2096  0.0453
44092W        W44292  14.721   0.350  15.927  0.2220 -0.0338  0.0625
44093W        W44293   5.055   4.269   3.509  0.0966 -0.1961  0.0769
44094W        W44294   4.290   4.684   6.087  0.0136 -0.1896  0.0470
44095W        W44295   1.513   9.361  17.938  0.1693  0.1655 -0.0309
44096W        W44296  13.494  16.349   2.369  0.0428 -0.1131 -0.1538
44097W        W44297  14.581   5.800   1.442  0.1344  0.1132  0.1446
44098W        W44298   0.035   9.953  12.931  0.2721 -0.1558  0.4274
44099W        W44299  15.649   2.094  17.921 -0.1978  0.0785 -0.0904
44100W        W44300  11.899  16.642  11.868 -0.0140  0.1488 -0.3408
44101W        W44301   7.986  14.861   3.646 -0.3088 -0.0981 -0.2298
44102W        W44302  10.632  13.564  11.675  0.0897  0.1284 -0.1911
44103W        W44303  14.885   4.315   2.908 -0.0960  0.1674  0.0202
44104W        W44304  11.383  11.138   2.101 -0.1427 -0.0044 -0.2228
44105W        W44305  16.402   9.412   0.459 -0.0442 -0.0421 -0.0012
44106W        W44306  17.198  10.731  16.646  0.4114  0.1917  0.0748
44107W        W44307   8.117  17.520   7.408 -0.0598  0.0502 -0.0511
44108W        W44308  12.210  15.144   9.215 -0.2708 -0.0810  0.0940
44109W        W44309  12.537   7.754   2.505 -0.2144 -0.1265  0.0294
44110W        W44310  11.554   9.100  15.347  0.1610  0.1126 -0.1513
44111W        W44311  15.219   4.343   3.512 -0.1517 -0.0994  0.2993
44112W        W44312  14.252  13.252   9.565 -0.1803  0.0576  0.0343
44113W        W44313  16.377  12.111   3.194  0.2084  0.1285  0.3391
44114W        W44314  17.824   7.189  13.707 -0.2058 -0.0896  0.0709
44115W        W44315  10.775  13.344  17.121  0.2595 -0.0699  0.2723
44116W        W44316   0.947  12.377  15.544  0.2480  0.2292  0.3980
44117W        W44317  16.806   7.763   5.467 -0.1148  0.0396 -0.2428
44118W        W44318   2.307   9.042  13.045 -0.0384 -0.2313 -0.0081
44119W        W44319   7.456  10.272   0.218 -0.1045 -0.1095  0.3239
44120W        W44320  17.210  11.095   5.115 -0.0404 -0.0372  0.2314
44121W        W44321  16.927   9.801  14.155  0.1007  0.0483 -0.1871
44122W        W44322  16.456  13.160   1.218  0.1691 -0.3688  0.0625
44123W        W44323   0.668  14.897  16.719 -0.0195 -0.1321  0.2961
44124W        W44324   0.222  16.800   1.262  0.1162 -0.2647 -0.2341
44125W        W44325   1.942  13.829  14.172  0.1721 -0.2643 -0.0365
44126W        W44326  16.418   1.608   1.660  0.0134  0.1992  0.0857
44127W        W44327   2.299   4.904  14.959 -0.0219  0.1189 -0.0335
44128W        W44328   4.506  14.460   1.302  0.3787 -0.1088  0.1118
44129W        W44329  13.965  15.660   4.619 -0.0587 -0.3002 -0.0946
44130W        W44330   0.994  16.484   4.631  0.0501 -0.0294  0.2768
44131W        W44331   0.046   5.638  11.601  0.0824  0.2107  0.1479
44132W        W44332  17.763  14.271   0.168  0.2678 -0.0412 -0.0957
44133W        W44333  11.929   7.918   0.173  0.2072  0.1825 -0.4105
44134W        W44334   0.141   4.173   3.732  0.2386  0.1370  0.0854
44135W        W44335  13.671  11.117   3.570 -0.1393  0.2196 -0.0069
44136W        W44336   1.325   7.306  14.714 -0.2476 -0.0333  0.1154
44137W        W44337  13.374   7.090   1.720  0.3497 -0.1197  0.3676
44138W        W44338  14.900  16.451   5.501 -0.2747  0.0471 -0.5132
44139W        W44339  11.442  11.550   0.140  0.2149 -0.0410  0.1124
44140W        W44340   0.369  11.714   0.430  0.0589 -0.3239 -0.1523
44141W        W44341  16.334  10.908  17.215 -0.1075  0.0921  0.3015
44142W        W44342  15.322   1.730   2.233 -0.2360  0.1374  0.0590
44143W        W44343   7.049   5.868   4.504  0.2187 -0.1941 -0.1291
44144W        W44344  10.056  14.314  17.249 -0.0972 -0.3892  0.0352
44145W        W44345  17.824   7.787   1.761 -0.0062 -0.1383  0.2313
44146W        W44346   3.840   0.893   1.604  0.2986 -0.2510  0.0806
44147W        W44347  16.793  14.096  12.279 -0.0629  0.3602 -0.0376
44148W        W44348  12.573  11.587  16.948  0.1811 -0.1495 -0.0220
44149W        W44349  16.680   4.449  17.270  0.1598  0.2599 -0.1267
44150W        W44350  17.457   9.654   2.354  0.0907  0.2168 -0.0958
44151W        W44351   9.145   0.062   2.757 -0.1966  0.0471 -0.0359
44152W        W44352  13.712   6.837  17.829 -0.0566 -0.0279  0.3477
44153W        W44353   2.381   3.156   3.395  0.2735 -0.0893  0.3423
44154W        W44354  12.756  12.963  10.350  0.0032 -0.0888 -0.0007
44155W        W44355  16.487  10.975   6.779 -0.2360 -0.2880 -0.2118
44156W        W44356  13.666   8.157   3.411  0.4951  0.1113  0.0725
44157W        W44357  16.926   7.272   7.709 -0.0012  0.1536  0.0192
44158W        W44358  12.153  12.095   7.424  0.2443  0.1183 -0.2024
44159W        W44359  11.160  18.066  13.153 -0.0986  0.2017 -0.1240
44160W        W44360  17.290   7.523  16.320 -0.1914  0.6144  0.2290
44161W        W44361  12.331   9.465   0.966  0.1212  0.0068 -0.1327
44162W        W44362  10.619   6.384  17.105 -0.1759  0.0781 -0.1584
44163W        W44363   6.572   1.723   0.263  0.1782 -0.1208 -0.1740
44164W        W44364  16.006  16.383   4.468 -0.3487 -0.0151 -0.0343
44165W        W44365   0.069   4.939   6.360  0.1790 -0.0718  0.0389
44166W        W44366   0.080   1.985   2.215 -0.2351  0.0167  0.0278
44167W        W44367   0.144  12.081   1.951 -0.1748  0.1704 -0.0861
44168W        W44368  11.237  12.992   4.044 -0.0286  0.1239 -0.1265
44169W        W44369   9.638   6.167   1.398  0.1614 -0.0692  0.0472
44170W        W44370   4.128   5.755   3.759  0.2418 -0.1751  0.1017
44171W        W44371   0.935   0.158   6.719 -0.1352 -0.0610  0.3905
44172W        W44372  11.092  14.466   3.625  0.1112  0.1307  0.2670
44173W        W44373  11.035   2.028  17.733  0.0529 -0.0043  0.1922
44174W        W44374  16.728   1.430   9.750 -0.0385 -0.2093 -0.2438
44175W        W44375  17.815  16.525  17.521  0.4602  0.0414 -0.1832
44176W        W44376  14.929  13.133  10.971  0.0149  0.1007 -0.0051
44177W        W44377   6.943   4.615   2.622  0.2511 -0.0249 -0.1088
44178W        W44378  13.947   8.582   8.785  0.3758  0.1380  0.1675
44179W        W44379  17.393   9.593   3.310 -0.1015 -0.0341 -0.1766
44180W        W44380  13.159   4.223   6.280  0.0581 -0.2529  0.0868
44181W        W44381  14.326  17.293   4.266  0.0339  0.2093 -0.3031
44182W        W44382  11.240  15.347  11.931  0.0391  0.0564 -0.1235
44183W        W44383  16.019   8.805   4.101 -0.0559 -0.1340  0.0527
44184W        W44384   1.066   3.598   1.816 -0.2134  0.1522  0.2346
44185W        W44385  10.136  11.197  14.810  0.0366 -0.3059  0.0896
44186W        W44386   3.338  14.457   0.400  0.0100  0.3052 -0.2944
44187W        W44387  15.006   9.969  13.842  0.0543  0.0402  0.2120
44188W        W44388  16.017   3.922   3.387 -0.0198 -0.0122  0.2692
44189W        W44389   9.550   7.145  10.901 -0.1147  0.0768 -0.1457
44190W        W44390  15.432   0.594  17.928 -0.0768  0.1248 -0.1938
44191W        W44391  17.300   3.261   8.146 -0.0692 -0.2673 -0.1587
44192W        W44392  17.048   4.963  17.910  0.3051  0.0312  0.1397
44193W        W44393  16.273  11.652   9.940 -0.1506 -0.1395 -0.2554
44194W        W44394   4.908  13.155   1.762  0.0262 -0.1390 -0.1818
44195W        W44395  12.432   2.951  18.108  0.6514 -0.0429  0.2558
44196W        W44396  13.552   2.217   9.294 -0.1338 -0.0075 -0.0497
44197W        W44397  15.976   6.539  15.332 -0.0571 -0.0082 -0.0772
44198W        W44398   3.599   7.563   0.471 -0.1089  0.0861 -0.1242
44199W        W44399  13.195   2.381   1.950  0.1233 -0.1436 -0.0153
44200W        W44400  13.118   5.733  14.469 -0.1048 -0.0863 -0.3026
44201W        W44401   5.019  11.542   5.753  0.1625  0.0201 -0.0929
44202W        W44402  11.130   9.740  16.400  0.3594  0.2589  0.2609
44203W        W44403  14.584  16.557   2.432  0.1232 -0.0469 -0.0059
44204W        W44404  10.948   7.472   5.879 -0.0819  0.1192 -0.2094
44205W        W44405   3.320  16.099  17.812  0.2229 -0.0520 -0.0579
44206W        W44406   6.270   6.398  16.525 -0.1109  0.2767  0.1572
44207W        W44407  16.661  13.213   2.318  0.0928 -0.0992 -0.1168
44208W        W44408  10.569   6.118  15.327 -0.0973 -0.2235  0.0292
44209W        W44409  15.473  11.641  10.408  0.1205  0.1859  0.1987
44210W        W44410   3.648   4.270  14.326 -0.0650 -0.0056 -0.0315
44211W        W44411  15.924  13.697   0.520 -0.1559 -0.0781 -0.2983
44212W        W44412  14.352   4.080   3.144 -0.0868  0.3301  0.1101
44213W        W44413   9.339   9.266   1.069  0.2072  0.2254  0.0995
44214W        W44414  17.131   9.096  15.903 -0.0118 -0.3990  0.1687
44215W        W44415  11.568   9.955  16.394  0.1880  0.1168 -0.1901
44216W        W44416  14.980   4.275   6.241 -0.0901  0.1681  0.1618
44217W        W44417  17.109   7.818   7.059 -0.2377  0.4258  0.2622
44218W        W44418   7.614  11.494  18.141 -0.2915  0.1381 -0.0835
44219W        W44419  11.734  13.700  16.175 -0.1945 -0.4039  0.4043
44220W        W44420   2.347  12.967   0.699 -0.0218 -0.0314 -0.2972
44221W        W44421   1.037  12.128   5.768  0.0016 -0.0844 -0.1923
44222W        W44422  16.581  12.325   4.348 -0.0099 -0.0595  0.0637
44223W        W44423   2.834  16.104   2.501 -0.0852  0.1623  0.0958
44224W        W44424  15.077  12.870   2.333  0.3042  0.0533  0.0315
44225W        W44425  16.490   8.412   4.885  0.3815  0.2010 -0.2456
44226W        W44426   2.813   3.462   6.364  0.0820 -0.2360  0.1086
44227W        W44427   8.603   2.577   2.798  0.0729  0.2085  0.1300
44228W        W44428   4.344   9.702   3.250  0.1037  0.0948  0.4367
44229W        W44429  15.561  11.239  16.358  0.0584  0.1618  0.0954
44230W        W44430   2.241  13.430   2.689 -0.0550  0.1640  0.0753
44231W        W44431  17.854   0.306   8.637  0.3886 -0.3154 -0.1690
44232W        W44432  13.237  15.208   9.292 -0.0597  0.0003  0.3639
44233W        W44433  15.159  13.883   9.618 -0.2695  0.1134  0.2483
44234W        W44434  14.183  10.831   3.801  0.0792  0.2137 -0.1124
44235W        W44435  17.416   2.797  15.676  0.0945 -0.0952  0.4517
44236W        W44436  15.776  18.190   6.769  0.0912 -0.3111  0.1574
44237W        W44437   0.567  10.490   1.768 -0.2377  0.0321 -0.2071
44238W        W44438  11.410   3.685   0.039 -0.4376  0.1301 -0.1532
44239W        W44439  14.342  11.438   2.292 -0.1948  0.2206  0.0441
44240W        W44440  15.220  12.601   4.961 -0.1906  0.3313  0.0795
44241W        W44441  10.688   4.693   0.155 -0.2138  0.1848  0.1379
44242W        W44442  12.282   1.595  15.006 -0.1054  0.0156 -0.2635
44243W        W44443  17.368   7.210  15.036 -0.1168  0.0581 -0.0855
44244W        W44444  12.481   9.910   5.455  0.0159  0.0972 -0.0702
44245W        W44445  14.638  11.162   2.915  0.1017  0.1518 -0.0827
44246W        W44446  15.485  11.578   2.439 -0.0482 -0.1840  0.0076
44247W        W44447  10.701  11.352   6.371 -0.3514  0.1109  0.0555
44248W        W44448  15.096  14.291   6.474  0.2992  0.0233 -0.0851
44249W        W44449  13.762   8.350  12.678  0.0932  0.0328  0.5712
44250W        W44450   7.965   5.461  15.869 -0.1349 -0.2370 -0.1302
44251W        W44451   0.302   5.615   5.380 -0.1270 -0.1698 -0.2957
44252W        W44452  15.669   8.704   7.734  0.0745 -0.2784 -0.1920
44253W        W44453  15.052  14.469  18.108 -0.0981  0.1330  0.4101
44254W        W44454  13.153  14.966   5.987 -0.0116  0.1607 -0.0051
44255W        W44455  16.925  11.114   4.659  0.0509 -0.2325  0.0525
44256W        W44456  11.077  11.793   7.214 -0.0391 -0.0662 -0.2371
44257W        W44457  16.900  16.614  17.733 -0.0351  0.0276  0.1821
44258W        W44458  13.215   8.769  17.617 -0.3206  0.3191 -0.1976
44259W        W44459  16.719   9.150  12.846 -0.0120  0.1727 -0.1683
44260W        W44460   3.102  10.692   9.732  0.0058  0.1016  0.3853
44261W        W44461  12.574  12.840  13.480  0.0928 -0.4114 -0.3338
44262W        W44462  14.982  15.905   2.845 -0.0763  0.3623  0.0573
44263W        W44463  10.026  13.786   1.178  0.0153 -0.2798 -0.2406
44264W        W44464   2.080   9.085  15.732 -0.0381  0.0236 -0.1217
44265W        W44465  17.098  10.592   5.907 -0.0173  0.0959 -0.1276
44266W        W44466  10.008   8.240   3.136 -0.3098  0.2292  0.0239
44267W        W44467  17.285   7.393   1.193  0.0666 -0.1814  0.2459
44268W        W44468   6.673   9.517  12.050 -0.0193  0.4447  0.0108
44269W        W44469   6.074   7.656   3.446  0.0263  0.0338  0.1522
44270W        W44470  14.499   7.670   8.683 -0.2694  0.3561  0.1170
44271W        W44471  13.847   6.340  16.550  0.1751  0.2032  0.0533
44272W        W44472  16.796   6.029   1.531  0.1597  0.0451  0.0684
44273W        W44473   9.724  11.514  15.627  0.1999  0.3469  0.0505
44274W        W44474  17.371   9.311   7.823  0.0218  0.0072 -0.0709
44275W        W44475   3.972  11.056   3.353  0.2837 -0.2741  0.0751
44276W        W44476   6.411   6.126   1.999  0.0435  0.0735 -0.1292
44277W        W44477   0.666  11.365   0.614 -0.0435  0.4204  0.2009
44278W        W44478  11.651   3.929  17.421  0.1772  0.1408  0.1249
44279W        W44479   2.921   0.759   5.365 -0.0758  0.0439  0.7308
44280W        W44480  16.690   5.813   0.331  0.0531  0.2029  0.1932
44281W        W44481   1.645   8.146  14.816  0.1075  0.0603 -0.1582
44282W        W44482  17.718  13.658  18.184  0.5028  0.1503 -0.5780
44283W        W44483   1.119   9.284   1.820  0.0427 -0.2380  0.0133
44284W        W44484   8.042   7.993  14.239  0.2398  0.1693 -0.0102
44285W        W44485  10.798   7.197  16.953 -0.2572  0.0019  0.0639
44286W        W44486  12.645  16.318  16.026 -0.3022  0.1168  0.0668
44287W        W44487  11.304  11.517   0.859 -0.0135 -0.0294  0.1289
44288W        W44488  11.333  12.224   8.870 -0.1879 -0.0251  0.1258
44289W        W44489  14.358   9.764   4.877  0.0834 -0.3660  0.0301
44290W        W44490  13.472   8.254   2.216  0.0395  0.0626  0.1297
44291W        W44491   0.971   0.537  17.203 -0.1257  0.1007 -0.1466
44292W        W44492   4.748  11.923  17.084 -0.1800 -0.0646  0.2018
44293W        W44493   1.483   9.049   4.625 -0.1941  0.2397  0.1583
44294W        W44494   3.674  17.047  14.508 -0.0702 -0.0721 -0.0006
44295W        W44495   0.622   3.321   0.586  0.3668 -0.1173 -0.2182
44296W        W44496   0.014   6.220   5.833 -0.0952 -0.3018  0.0279
44297W        W44497   1.069   8.440   3.840 -0.1197  0.0706  0.0063
44298W        W44498  13.174   6.708   3.009 -0.1774 -0.1654 -0.0668
44299W        W44499  12.806   0.093   9.279  0.3422 -0.0783 -0.2030
44300W        W44500   1.646  11.561   4.696 -0.1005 -0.0410  0.1297
44301W        W44501  15.728  13.388   2.000 -0.2017  0.1616 -0.2988
44302W        W44502  10.373   7.023   4.484  0.0713  0.0108  0.0247
44303W        W44503  17.934  15.664   7.869 -0.2463  0.0224  0.1673
44304W        W44504  10.737   4.122   9.421 -0.1762  0.0703 -0.2515
44305W        W44505  17.704  12.662   5.787  0.3906 -0.0745 -0.1866
44306W        W44506   3.752   6.611  10.614  0.0770 -0.1645 -0.0088
44307W        W44507   3.405   9.018   8.039 -0.0475 -0.7317 -0.1689
44308W        W44508   6.421   8.372   3.974  0.1609  0.1042  0.1685
44309W        W44509  15.532   4.433   4.421 -0.3228  0.0826 -0.0516
44310W        W44510  14.398  11.891  14.678 -0.0162 -0.1157 -0.1684
44311W        W44511  13.876   8.158  17.289 -0.0926  0.1143 -0.3791
44312W        W44512  12.415  13.495   5.314 -0.3103 -0.0660  0.0748
44313W        W44513   1.093  11.496   1.836 -0.1408 -0.3544  0.1243
44314W        W44514   2.039  16.314   0.418  0.1141 -0.2083  0.0785
44315W        W44515  17.256  11.040   2.238  0.2113 -0.1299 -0.1454
44316W        W44516   6.510  14.008   3.853 -0.0687 -0.2551 -0.1396
44317W        W44517   2.690  16.382   6.763  0.1366  0.2350  0.1184
44318W        W44518   1.356  14.154  15.697 -0.0024  0.0615 -0.1390
44319W        W44519  18.204   6.539   4.731 -0.1486  0.1017 -0.0464
44320W        W44520   9.305  10.641  16.094  0.0779 -0.0124 -0.0036
44321W        W44521   4.078   6.467  15.690 -0.0180  0.0724  0.0634
44322W        W44522   3.235   7.896   8.555 -0.0521 -0.1432 -0.1790
44323W        W44523   1.584   7.222   4.046  0.1057 -0.1580 -0.1111
44324W        W44524   0.949  11.709   3.963  0.2501  0.0038 -0.3210
44325W        W44525  13.787  11.538   0.641 -0.3907  0.0662  0.2083
44326W        W44526  16.244   6.828  15.036 -0.1366  0.2604  0.2209
44327W        W44527   3.531   2.921   6.188 -0.1202 -0.3740  0.0759
44328W        W44528   3.021   0.860  17.908  0.2090  0.2207 -0.0369
44329W        W44529  13.481   7.211   0.859 -0.1339 -0.0701 -0.1212
44330W        W44530  14.050   4.659  15.750  0.3701 -0.0667  0.1804
44331W        W44531   5.940   1.269   2.534  0.0140 -0.3307  0.1481
44332W        W44532  12.193   8.969   5.471  0.0679 -0.0708 -0.1800
44333W        W44533  17.946  13.925  15.145 -0.0985  0.1482 -0.1568
44334W        W44534   7.135   3.118  16.855 -0.0779  0.1162 -0.1227
44335W        W44535  17.001   5.397  15.576 -0.1218  0.1857  0.0179
44336W        W44536  14.045   3.012  16.880  0.1606 -0.1010 -0.2651
44337W        W44537  14.877   7.273   1.031  0.2061  0.0698 -0.0657
44338W        W44538  10.866   5.012  13.216  0.3551  0.2425  0.0658
44339W        W44539   2.001  15.447   2.910 -0.0406  0.2766  0.0844
44340W        W44540   3.409  12.284  17.310 -0.0793  0.1411 -0.0891
44341W        W44541  17.286  14.545  10.065  0.2290 -0.0667 -0.0147
44342W        W44542   3.861   7.875   5.081 -0.0616 -0.3107 -0.0839
44343W        W44543   2.146  17.057   1.641  0.1193  0.0801 -0.0468
44344W        W44544   2.031  12.113   8.357 -0.1432  0.0851 -0.0959
44345W        W44545   2.509  10.756   1.209 -0.0190  0.3112 -0.3609
44346W        W44546   1.664   5.948   1.202 -0.0044  0.0083  0.0605
44347W        W44547   7.848   9.700  14.700  0.2269  0.0916 -0.1933
44348W        W44548  17.979  11.999  17.227  0.4676 -0.1878  0.1106
44349W        W44549   2.581  15.473  15.462 -0.3865 -0.0987 -0.0028
44350W        W44550  10.911   7.796   8.742  0.0756  0.2266  0.1998
44351W        W44551  14.894   6.757  16.977  0.2962  0.0909 -0.5696
44352W        W44552   9.790   8.731   0.970  0.1839 -0.1293  0.0872
44353W        W44553  11.067  13.929   3.518  0.0507 -0.1209  0.4048
44354W        W44554  16.746  11.830   6.258 -0.0265  0.2709 -0.1292
44355W        W44555  10.760   6.817   8.259 -0.3239 -0.0177 -0.2488
44356W        W44556  12.809   5.277  15.210  0.2632  0.0027 -0.1514
44357W        W44557  14.908   9.816   1.939  0.2109  0.0911 -0.0758
44358W        W44558   9.481   7.533  17.739 -0.1905 -0.0580  0.2731
44359W        W44559   6.615   6.510   1.359  0.1198 -0.0090 -0.4078
44360W        W44560  14.425  11.026  17.270  0.0218 -0.1310 -0.0203
44361W        W44561   1.209  12.957   3.202 -0.3965 -0.2477  0.3608
44362W        W44562   3.171  10.015   2.781 -0.0255 -0.2919  0.2349
44363W        W44563   1.444   7.506   0.187 -0.0007 -0.2836 -0.0478
44364W        W44564  11.776  12.493   6.226 -0.0965  0.2068  0.1690
44365W        W44565   4.100   7.951   1.192 -0.0822  0.0303 -0.0892
44366W        W44566  16.612   4.229   8.896  0.0575 -0.2355  0.2277
44367W        W44567  12.307   8.553  18.094  0.0740 -0.2683  0.0257
44368W        W44568  14.172   9.681  17.947 -0.0895  0.2383 -0.0426
44369W        W44569   0.917   5.409   2.173 -0.2835 -0.3094  0.1835
44370W        W44570  17.500  10.071   3.453 -0.1586  0.1984  0.0309
44371W        W44571  11.196   9.249   4.919  0.0525 -0.1590 -0.0268
44372W        W44572   9.845  15.238   6.876  0.4302  0.1618  0.4400
44373W        W44573   2.310  15.369   3.997 -0.0199  0.1226  0.2061
44374W        W44574   0.207   9.979  16.066  0.0551  0.0112 -0.1073
44375W        W44575   0.978   9.110   4.503  0.6705  0.0007 -0.2510
44376W        W44576  11.184   5.431   2.622 -0.3660 -0.3493  0.0436
44377W        W44577   2.092   9.937   0.305  0.0716  0.2677 -0.1620
44378W        W44578  15.801   7.839   6.591  0.3296  0.0171  0.1733
44379W        W44579  12.944   8.456   1.305  0.0420  0.1380 -0.2568
44380W        W44580  13.460   9.215   5.045  0.0363  0.3152  0.1036
44381W        W44581  14.863   6.418   8.245 -0.2127  0.0073 -0.2814
44382W        W44582   1.321   5.154   0.929 -0.0663  0.0484 -0.4897
44383W        W44583  10.733   6.787   4.882 -0.0537 -0.1981  0.1059
44384W        W44584   5.675  13.409   7.104 -0.3837  0.1336 -0.3606
44385W        W44585   0.819   5.834   9.449 -0.5457  0.1562  0.1201
44386W        W44586  15.789  10.171   1.770 -0.0662 -0.1480 -0.0174
44387W        W44587   9.353   1.024   6.103  0.0807  0.0902  0.1942
44388W        W44588  12.817   5.768  17.858 -0.1026  0.0434 -0.4309
44389W        W44589  10.919   5.905   1.410 -0.0454 -0.0946 -0.1611
44390W        W44590   5.814   7.743   3.903  0.2559 -0.1123  0.1073
44391W        W44591  14.305   6.534  10.041  0.4127  0.1688  0.1056
44392W        W44592  16.264  12.872   2.163 -0.6135  0.1032  0.0552
44393W        W44593  14.710   3.251  11.818 -0.0244 -0.1514  0.0412
44394W        W44594  12.899  11.008   4.125  0.0218 -0.0424  0.2549
44395W        W44595  17.778   7.586   8.069  0.0708  0.0213 -0.1207
44396W        W44596  17.668   3.939   3.062 -0.4720 -0.0240  0.0893
44397W        W44597   6.966   7.036   2.286 -0.0625  0.0950  0.1074
44398W        W44598   7.971   6.479   5.026  0.2300  0.0733 -0.1655
44399W        W44599  13.608  10.780   1.013 -0.1168  0.1997  0.0128
44400W        W44600   2.782   5.808   8.853 -0.1674  0.2051 -0.1932
44401W        W44601   0.589  15.005   2.447  0.0623 -0.0562  0.1471
44402W        W44602  13.299   9.363   0.176  0.1106  0.1057  0.1398
44403W        W44603  17.628   4.742  12.276  0.2146 -0.1748 -0.0217
44404W        W44604  16.452   9.358   6.957 -0.1446 -0.3788 -0.1139
44405W        W44605  11.348  12.399   2.795 -0.1746 -0.1601  0.1074
44406W        W44606   0.919  14.293  12.632  0.1870 -0.1009 -0.1861
44407W        W44607  13.334   9.073   5.708  0.1589  0.0472  0.0488
44408W        W44608   1.351  11.037   2.927  0.0557  0.0732 -0.0373
44409W        W44609   0.701   4.711   3.914  0.3924 -0.2717 -0.1449
44410W        W44610  12.731   8.561  17.371  0.1742 -0.0197 -0.1399
44411W        W44611  13.687   4.562  16.137  0.2808  0.1463 -0.0530
44412W        W44612  10.875  15.304   2.140 -0.0860 -0.0355  0.0572
44413W        W44613  14.840  12.057   1.802  0.1644  0.4246 -0.2858
44414W        W44614  13.113   5.278   3.723  0.0832 -0.3264  0.1978
44415W        W44615   0.931   7.084   6.377 -0.0365  0.0503  0.2893
44416W        W44616  16.075   8.148   4.951 -0.0861  0.2512 -0.0713
44417W        W44617  13.853  10.604  15.074  0.5106 -0.3060  0.2153
44418W        W44618  15.331  10.903  11.944  0.1629 -0.1171 -0.1993
44419W        W44619  15.182   9.001  15.212  0.0187  0.2199 -0.0117
44420W        W44620  11.905   8.734  11.343  0.1705 -0.0050  0.1959
44421W        W44621   0.352   7.367   8.778 -0.2159  0.0901  0.1342
44422W        W44622   0.760  12.929  16.322  0.0453  0.0494 -0.0269
44423W        W44623  14.566   8.301   8.064 -0.1010  0.0650  0.0664
44424W        W44624   9.926   6.840   7.092 -0.0599  0.0078 -0.1689
44425W        W44625  17.292   0.287   3.720  0.2539 -0.3549 -0.3560
44426W        W44626  17.230   0.143  17.038  0.2209 -0.1718 -0.2355
44427W        W44627  11.524  10.156   9.764 -0.0531 -0.0390 -0.0933
44428W        W44628   7.353  11.263  13.203 -0.0867  0.0212 -0.2603
44429W        W44629   7.785   6.733   7.767 -0.0349 -0.1010 -0.2107
44430W        W44630   3.187   5.624   4.906  0.1498  0.0541 -0.1344
44431W        W44631  17.256  11.672  10.862 -0.2121 -0.3535 -0.0236
44432W        W44632   1.206  10.955  11.939 -0.0798  0.4246  0.1780
44433W        W44633  12.445   8.729  13.460  0.0233 -0.0980 -0.0495
44434W        W44634   5.434  14.973   4.912 -0.1074 -0.0544  0.0665
44435W        W44635   3.198  14.841   1.823  0.0545 -0.1587  0.3121
44436W        W44636  11.796  11.197   5.224 -0.3082  0.1236  0.0651
44437W        W44637  13.213   7.280   7.458 -0.0340 -0.3595  0.0278
44438W        W44638  15.969   8.552  10.193  0.0419 -0.1544  0.4137
44439W        W44639  14.126  14.988   5.241  0.0670  0.0346  0.3830
44440W        W44640  14.160  11.203  12.830 -0.2370  0.0086 -0.0967
44441W        W44641  12.388   2.109   3.240 -0.1617  0.1645  0.3273
44442W        W44642   2.538   4.901   4.013  0.0728  0.3028  0.0748
44443W        W44643   5.769  11.776  16.585 -0.1673 -0.0029  0.1088
44444W        W44644  11.520  10.967  15.189  0.1474 -0.1117  0.1491
44445W        W44645   9.231   7.348   3.812  0.2440 -0.1781  0.0091
44446W        W44646   9.614   5.139   4.934 -0.1097  0.0420 -0.2389
44447W        W44647  17.755   7.116   3.787 -0.1455  0.0647 -0.0788
44448W        W44648  15.991  14.594   6.555  0.0112 -0.1556 -0.0851
44449W        W44649  16.516  10.715   1.773 -0.0899 -0.0660 -0.0024
44450W        W44650  17.524  13.606   9.363 -0.0782 -0.0510 -0.1262
44451W        W44651  13.544  12.137  15.187  0.0692 -0.0737 -0.0143
44452W        W44652   2.029   6.297   3.706 -0.1487  0.1401 -0.2971
44453W        W44653   8.814  12.603   3.294  0.0078  0.1089 -0.2854
44454W        W44654  14.061   6.829  16.504  0.1070 -0.0236  0.0226
44455W        W44655   6.473   8.801   8.323 -0.0258  0.0276 -0.2789
44456W        W44656  11.547  12.788   1.185 -0.0849 -0.1368 -0.0594
44457W        W44657   2.100  14.591   0.057 -0.0508  0.3369  0.3369
44458W        W44658  13.329  13.297   9.095  0.0531 -0.2237  0.0140
44459W        W44659   0.546  15.946   5.185  0.2380 -0.0283 -0.0750
44460W        W44660  16.887   7.637   2.866  0.1276  0.0359  0.0774
44461W        W44661   4.231  10.749   2.862 -0.1574  0.3066  0.2395
44462W        W44662  10.441   9.943   4.523 -0.1127 -0.3567  0.0415
44463W        W44663  12.588  18.133   4.048  0.2721 -0.1731 -0.0792
44464W        W44664   2.282   6.273   7.316  0.3861 -0.0929  0.0404
44465W        W44665   1.502  10.571   7.894  0.1754 -0.1854  0.1161
44466W        W44666   9.979  17.294   2.260  0.2585 -0.0813 -0.0103
44467W        W44667   2.661   6.674   7.123 -0.2930  0.2015 -0.1606
44468W        W44668   0.060   0.995  18.136  0.1366 -0.4017 -0.0553
44469W        W44669  13.868   9.538   5.050  0.0176  0.1353  0.2368
44470W        W44670  10.060  10.283   7.218 -0.0162 -0.1439 -0.1741
44471W        W44671  12.301  11.846  10.718  0.0744 -0.0728 -0.0924
44472W        W44672  17.133  10.912   6.771  0.1100  0.0148 -0.4813
44473W        W44673  11.116   8.167   5.708  0.1824  0.3655 -0.0533
44474W        W44674  15.350  12.869   2.778 -0.0291  0.1406 -0.2175
44475W        W44675   5.658  14.033   5.160 -0.0402 -0.1426 -0.0404
44476W        W44676   4.786  15.409   9.996 -0.2525 -0.0063  0.0821
44477W        W44677  10.857   5.083  16.751 -0.0414  0.0215  0.0232
44478W        W44678   0.508   7.145   4.031  0.0298 -0.0317 -0.0781
44479W        W44679   4.303   9.697   6.390  0.1650  0.2377 -0.0275
44480W        W44680  17.013   8.785  17.680 -0.1247  0.0789  0.1446
44481W        W44681   1.804   7.679   7.151 -0.1427 -0.3068  0.0992
44482W        W44682   7.954   6.332  13.082  0.0967  0.0022  0.1642
44483W        W44683  10.203   6.753   5.424 -0.0899  0.1848  0.0664
44484W        W44684   7.760   4.543  17.774  0.1357  0.0164  0.1494
44485W        W44685   9.006   5.938   8.324 -0.1077  0.1033  0.0374
44486W        W44686  11.140   6.097   6.281 -0.2490 -0.0769 -0.1811
44487W        W44687  15.839  11.047  13.754 -0.0837 -0.2690  0.1431
44488W        W44688   9.235   9.857   1.159  0.0956 -0.0736 -0.3954
44489W        W44689   1.937   6.749   3.988 -0.2721 -0.1593  0.0767
44490W        W44690   0.297  12.365   6.355  0.0393 -0.1058 -0.0910
44491W        W44691   8.084   7.283   3.886  0.1011  0.0208 -0.1002
44492W        W44692  15.372   6.232  10.116 -0.2178 -0.2594  0.0535
44493W        W44693   3.476   5.076  18.033 -0.1402  0.2492 -0.0478
44494W        W44694   3.442   7.808   5.558  0.2265 -0.2206 -0.1668
44495W        W44695   0.675   9.677   5.097  0.0750 -0.0253  0.1793
44496W        W44696   1.853  15.176   3.958  0.0205  0.1111 -0.0053
44497W        W44697  14.314   9.468   9.931  0.1602 -0.4950  0.3579
44498W        W44698   1.443   3.207  17.529 -0.2101  0.0672 -0.1559
44499W        W44699  10.406  16.828   8.478  0.1351 -0.0161 -0.1143
44500W        W44700   3.419  14.087   6.346 -0.0577 -0.0933  0.1649
44501W        W44701  11.012   4.569   1.005 -0.1053  0.0088 -0.0170
44502W        W44702  16.425   7.525  17.662 -0.0275  0.2400  0.2159
44503W        W44703   2.235   6.413   4.267 -0.4152 -0.0185  0.1457
44504W        W44704   1.216  12.558  11.538 -0.1004  0.0559  0.0146
44505W        W44705  18.147   7.603   9.058 -0.4288 -0.0006  0.0267
44506W        W44706  13.764   7.574  16.027 -0.1860  0.1513 -0.1308
44507W        W44707   1.890   2.500   5.845 -0.1114  0.1377 -0.1396
44508W        W44708   8.489   5.312   9.285  0.0183  0.1814  0.1274
44509W        W44709  15.021  12.032   0.564  0.1086  0.2171 -0.0122
44510W        W44710  13.659  12.812   6.691  0.2280 -0.1448 -0.0686
44511W        W44711   7.876  16.279   9.248  0.0789  0.2407  0.0902
44512W        W44712  12.975  10.871   2.848  0.0299 -0.2081 -0.1034
44513W        W44713  12.708  12.439  17.466 -0.0395 -0.0713 -0.0188
44514W        W44714   3.195   9.412   1.495 -0.2323 -0.0334 -0.1860
44515W        W44715  14.271   6.553  15.283 -0.1758 -0.1775  0.0756
44516W        W44716   8.650   7.891  12.589  0.2046  0.1295 -0.0715
44517W        W44717   1.951   3.538   9.902 -0.0887 -0.1003  0.2560
44518W        W44718  11.732  12.929   2.078 -0.0944 -0.2221  0.0231
44519W        W44719  17.341  13.771   7.294 -0.1934 -0.0580  0.0128
44520W        W44720  14.905  14.789  15.974 -0.1736  0.3035 -0.0079
44521W        W44721  13.954  14.721   2.239 -0.1925  0.0163 -0.0277
44522W        W44722   4.158   3.952   2.344  0.1318  0.0886 -0.2034
44523W        W44723  17.101  12.324   5.634 -0.0733 -0.0906  0.0804
44524W        W44724  13.900   7.857   6.082  0.0217 -0.1147  0.0771
44525W        W44725  11.680   9.061   4.788 -0.3109 -0.0453 -0.2643
44526W        W44726  12.868   4.708  17.714 -0.3400 -0.1087  0.0416
44527W        W44727  14.025  12.699   8.785 -0.0832 -0.0452  0.2085
44528W        W44728  12.682   8.413   6.170  0.0480 -0.1139 -0.0330
44529W        W44729  15.599  17.597   9.628  0.3032  0.1351 -0.1344
44530W        W44730  15.789   5.604   3.351 -0.4831 -0.1233 -0.1028
44531W        W44731  15.553  17.927   8.392  0.0370 -0.1919 -0.2470
44532W        W44732  17.229   8.786   4.195  0.2251  0.0538  0.1852
44533W        W44733  17.439   5.445   0.342 -0.1793  0.1705  0.0707
44534W        W44734   2.508   4.043   5.024 -0.1704 -0.0713 -0.1184
44535W        W44735   3.539  15.650  17.365  0.2481 -0.0187 -0.0443
44536W        W44736  14.467   2.297  12.015  0.2581  0.1336  0.2705
44537W        W44737  16.347   3.084  18.065  0.1074  0.1381 -0.2466
44538W        W44738  17.409   5.255   5.562  0.2090  0.0090  0.0435
44539W        W44739  13.183  14.464   2.610  0.0369  0.1411  0.0854
44540W        W44740  17.439   8.884   3.769  0.0633 -0.0215  0.0059
44541W        W44741  15.621   4.984   6.907 -0.0303  0.1799  0.2365
44542W        W44742  15.334   5.022   9.973  0.1393 -0.0179  0.1844
44543W        W44743  13.203  16.415   5.517  0.1405 -0.2885 -0.0615
44544W        W44744  14.542  12.877   4.342 -0.1692  0.2132 -0.2077
44545W        W44745  16.845   6.866  12.570  0.1906 -0.1146  0.1862
44546W        W44746   2.844  11.554   5.651  0.0929  0.1745 -0.3909
44547W        W44747   7.613  14.455   7.685 -0.0107  0.0660 -0.0449
44548W        W44748  11.114   4.821  11.218 -0.1706 -0.1004  0.1966
44549W        W44749   8.863  10.757   1.735  0.2784 -0.2026 -0.0922
44550W        W44750   6.089   3.079   0.827 -0.2535  0.0531 -0.0187
44551W        W44751  13.762   3.078  15.961  0.1292  0.1432  0.1135
44552W        W44752   3.084   9.405   3.426 -0.1357 -0.3173 -0.0970
44553W        W44753  16.235  15.706   7.310 -0.1588  0.4313 -0.0288
44554W        W44754  17.199   8.773   6.046  0.1958  0.0275  0.1468
44555W        W44755  14.439   9.241   4.932  0.0591  0.2125 -0.1462
44556W        W44756   7.940   8.537   9.126 -0.2152 -0.2707  0.3755
44557W        W44757   7.169  13.386   6.553 -0.2549 -0.1655  0.2631
44558W        W44758   9.874   9.418  10.678 -0.0982 -0.2317 -0.2016
44559W        W44759   9.030  16.385   0.187  0.0762  0.2541  0.0735
44560W        W44760  13.740  12.427   7.473 -0.0617 -0.0242 -0.1091
44561W        W44761  15.030  11.253   9.642  0.0908  0.2342  0.0983
44562W        W44762  11.917  12.825   8.036  0.0152  0.0667 -0.1241
44563W        W44763  18.130  11.096   2.158 -0.3202 -0.0564 -0.2554
44564W        W44764   1.392   7.887   1.396  0.1713  0.1026 -0.1642
44565W        W44765   7.545  10.925  10.104 -0.0925  0.2743 -0.1077
44566W        W44766   9.434   8.297   3.075 -0.1202 -0.4652 -0.0348
44567W        W44767  14.784   8.252  14.831 -0.3036  0.0533 -0.2180
44568W        W44768   0.276  13.106   7.146 -0.3498 -0.1310 -0.3668
44569W        W44769   8.262   5.601   3.498  0.0827  0.1627  0.1913
44570W        W44770  14.020   7.457   5.840 -0.3010 -0.1530 -0.0132
44571W        W44771   1.744  11.364   2.696  0.0227  0.4176 -0.0861
44572W        W44772  15.174  10.361   3.959 -0.1564 -0.1285  0.2429
44573W        W44773  16.254   9.453   3.545 -0.1774 -0.4357  0.1700
44574W        W44774   1.836  11.514  14.282 -0.1704 -0.0258 -0.0811
44575W        W44775   1.879   9.593   8.411 -0.0071 -0.2791  0.0221
44576W        W44776   1.386   5.351   1.837  0.0002 -0.2977  0.0577
44577W        W44777  15.993   1.296  17.761  0.2212 -0.1111  0.1742
44578W        W44778  18.187  11.835  10.915 -0.2210  0.1599  0.0112
44579W        W44779  12.973  13.915   5.980  0.0298 -0.3792 -0.0124
44580W        W44780   5.436   2.691  15.130  0.0647 -0.3906  0.1378
44581W        W44781  13.920   8.785   2.745 -0.1252  0.0211 -0.0166
44582W        W44782  14.202  10.940  18.029 -0.0017  0.1089  0.2329
44583W        W44783   1.555  14.648   2.607 -0.1794 -0.2208 -0.4771
44584W        W44784  13.677   5.736  16.709 -0.2698  0.0337  0.1026
44585W        W44785  12.046  10.145   7.348 -0.0104  0.2161  0.3171
44586W        W44786  17.018  13.308   8.072 -0.1814  0.0314  0.0551
44587W        W44787  10.107   8.312   3.620 -0.2963 -0.1647 -0.1972
44588W        W44788   4.288   9.994  12.182 -0.0023 -0.0030  0.1343
44589W        W44789   6.841   9.491   1.545 -0.2417  0.0267  0.3859
44590W        W44790   4.552  14.285  15.540  0.0188  0.4206 -0.3585
44591W        W44791  12.433  10.504   7.735  0.1569  0.3334 -0.0426
44592W        W44792   3.091   3.953  18.187 -0.2663  0.1245  0.0686
44593W        W44793  12.768   8.773   2.660  0.0664 -0.0708 -0.3273
44594W        W44794  16.708  17.536  16.597 -0.2372  0.0946  0.0443
44595W        W44795   0.705  13.533   2.853 -0.1643  0.0582 -0.1984
44596W        W44796   2.801   7.983   1.515 -0.0051  0.0486 -0.0821
44597W        W44797   0.485  10.155   7.347  0.0415  0.0427  0.0670
44598W        W44798  14.825  12.492   5.218 -0.2235 -0.3251 -0.0963
44599W        W44799  14.336  11.686  10.224 -0.0805 -0.3514 -0.0218
44600W        W44800   6.098  12.943   7.930 -0.1727  0.1253  0.1604
44601W        W44801   1.854  11.470  10.328  0.5489 -0.1279  0.0246
44602W        W44802  14.096   6.984   9.323  0.2210  0.0277  0.3625
44603W        W44803   7.705   9.472   8.426  0.1406 -0.0131  0.2546
44604W        W44804   3.643  11.690  11.416 -0.1922 -0.3271 -0.0108
44605W        W44805  16.760  10.950   3.338 -0.1109 -0.4466  0.0248
44606W        W44806   3.748  13.331   2.260  0.0328  0.1864  0.1858
44607W        W44807   5.557   9.427   1.393  0.0486 -0.3187 -0.0701
44608W        W44808  15.847   3.476   6.783 -0.0585 -0.1847  0.1688
44609W        W44809  15.002   6.130   3.465 -0.0491 -0.1839  0.0726
44610W        W44810  14.898   2.941   3.272  0.1233 -0.1685 -0.0572
44611W        W44811   3.436   1.725   1.440 -0.4086  0.2676 -0.1049
44612W        W44812   0.895  10.241  10.848  0.1185 -0.0327 -0.0634
44613W        W44813  13.248   8.323   2.646  0.0507  0.3078  0.2540
44614W        W44814   1.045  11.071   5.884 -0.2098 -0.0954 -0.1801
44615W        W44815  12.321   4.715   6.217 -0.2070  0.2645 -0.1687
44616W        W44816  14.100   5.744   1.125  0.0765  0.2963 -0.1224
44617W        W44817   9.936  13.426  10.405  0.0937  0.3687 -0.0075
44618W        W44818   2.066   6.722   3.391  0.0741  0.2344  0.0756
44619W        W44819   8.652  10.165   3.544 -0.1804  0.1463 -0.1593
44620W        W44820  14.006  11.296  17.585 -0.0559 -0.0831 -0.1457
44621W        W44821  15.590  11.790   9.151  0.1773  0.2529  0.1591
44622W        W44822   8.731  16.181   7.521  0.0480  0.0282  0.2471
44623W        W44823   8.081   7.114   2.102 -0.2376 -0.0811  0.0593
44624W        W44824   5.903   5.524  17.973 -0.2397 -0.1838 -0.1606
44625W        W44825  12.453  16.041   6.249  0.0483  0.4729  0.0452
44626W        W44826   3.567   4.640  17.666 -0.3493  0.4983  0.0643
44627W        W44827  15.001   4.838   6.441 -0.2417 -0.2564  0.0541
44628W        W44828  13.961  16.875   6.176  0.0720  0.2675  0.2804
44629W        W44829   9.853   9.769   1.841  0.0463  0.0958  0.0816
44630W        W44830  13.263   9.830   8.604 -0.0906  0.2600 -0.3443
44631W        W44831   5.417   8.331  16.772 -0.4421  0.1443  0.2179
44632W        W44832   7.293   7.141   0.990  0.3066  0.0046  0.1041
44633W        W44833  13.006  11.014   7.075  0.1686  0.0662 -0.0630
44634W        W44834  14.465   3.593  11.405  0.1230  0.1705  0.1098
44635W        W44835   2.849  17.155   7.234 -0.1535 -0.0354 -0.0893
44636W        W44836  11.641  15.313   2.943 -0.1901 -0.1009  0.4317
44637W        W44837   9.293   3.374   4.536 -0.1094  0.0789  0.0142
44638W        W44838   8.376  13.566   4.585 -0.0380 -0.4878  0.0908
44639W        W44839  13.429  10.848   6.149 -0.0922 -0.2625  0.0513
44640W        W44840  10.145   6.970   6.090  0.1034  0.3148  0.1896
44641W        W44841  15.605  15.506   5.527 -0.1339  0.1399 -0.1312
44642W        W44842  16.668   7.229  17.249 -0.0670  0.0523 -0.0010
44643W        W44843  14.155   7.722  11.798  0.1417  0.2388  0.2652
44644W        W44844  13.200   7.329   6.308  0.0840 -0.1391  0.0265
44645W        W44845  16.638   3.580   0.873  0.0877  0.1545 -0.3321
44646W        W44846  15.684  13.777   4.655  0.3775  0.0196 -0.0352
44647W        W44847  10.971   6.768   9.658 -0.0870 -0.3448 -0.2546
44648W        W44848   0.282   0.525   9.070  0.0009 -0.4368  0.3553
44649W        W44849   3.528  13.378   2.770  0.1258 -0.1155  0.0361
44650W        W44850   0.478   4.560   1.406 -0.3461 -0.0662 -0.1526
44651W        W44851   3.288  14.864  11.859 -0.1970  0.0788 -0.5172
44652W        W44852  12.431   4.342   4.800 -0.1118  0.2845  0.0550
44653W        W44853   3.486   7.760   7.942 -0.0277  0.0066 -0.0000
44654W        W44854  10.809  14.733  10.786  0.1435  0.2579  0.1054
44655W        W44855   9.862   0.096  11.456  0.2500  0.0184 -0.2120
44656W        W44856  13.176  13.183  13.248  0.3047  0.3627  0.0893
44657W        W44857  18.200  11.672   1.461  0.5734 -0.0248  0.3789
44658W        W44858  11.928   2.176  16.096  0.2358 -0.1141  0.0088
44659W        W44859   5.932   5.648   5.935  0.2175 -0.2174  0.1079
44660W        W44860   0.964  11.669  14.039 -0.3065  0.0085 -0.1584
44661W        W44861   1.562  12.705   5.221  0.0214 -0.0836 -0.1011
44662W        W44862  14.334   6.100   0.889 -0.1459 -0.0345 -0.1838
44663W        W44863   5.148  17.819   8.229  0.0879  0.1318 -0.1620
44664W        W44864   0.590  10.756   1.337 -0.1333 -0.0483  0.1712
44665W        W44865  17.050   3.989  12.424  0.1145  0.1078 -0.1315
44666W        W44866  16.365   5.726  18.131  0.1535  0.2987 -0.0228
44667W        W44867  16.133  10.750   8.352  0.0074  0.0442  0.2207
44668W        W44868  15.858  13.808   9.021 -0.2495  0.1457  0.0609
44669W        W44869  16.091   1.791   8.531  0.1625  0.0102  0.0839
44670W        W44870  18.085  13.070  12.587 -0.1847  0.0038 -0.1166
44671W        W44871   8.077  12.759  17.809  0.0540  0.1051 -0.1286
44672W        W44872  17.675  17.259   4.581  0.0893  0.1336  0.3611
44673W        W44873   9.766  15.304   7.652  0.1183 -0.1531 -0.1662
44674W        W44874   6.349   2.079  13.738  0.1921 -0.0869 -0.0109
44675W        W44875   4.209   5.665   2.636 -0.3797  0.0780 -0.0096
44676W        W44876   2.820  14.265   2.753  0.1925 -0.1357 -0.3244
44677W        W44877  12.196  12.782   6.167  0.0660 -0.0224  0.1794
44678W        W44878  13.702   0.667   1.895 -0.0563 -0.0408  0.0004
44679W        W44879  14.876  15.994   1.197 -0.1358  0.0569  0.1856
44680W        W44880  17.147   5.016  13.205  0.4150 -0.4660 -0.2332
44681W        W44881   3.211  17.839   1.998  0.2340 -0.3072  0.2173
44682W        W44882   1.620  10.003   6.397 -0.0458  0.1697 -0.2099
44683W        W44883  17.480  14.137   8.745 -0.1093  0.0277  0.0042
44684W        W44884  16.976   9.503  13.080 -0.0198 -0.2058  0.1061
44685W        W44885  11.902   6.858   3.515  0.2047  0.1843  0.1681
44686W        W44886  14.214   1.678  15.006  0.1009  0.2422 -0.2864
44687W        W44887  14.681   9.481   8.568 -0.3759 -0.0001  0.3552
44688W        W44888  12.867  11.841   7.208 -0.0094  0.1830 -0.0408
44689W        W44889  10.012  12.780   6.709 -0.0820 -0.1367 -0.0054
44690W        W44890  16.220  14.234   3.711 -0.1565 -0.0272 -0.1100
44691W        W44891   7.727   5.811  15.562 -0.2029  0.0018  0.0459
44692W        W44892  10.335  13.242   7.400 -0.0955  0.1031  0.0122
44693W        W44893   0.692   7.239  16.347 -0.2679  0.1369 -0.0470
44694W        W44894  11.234  10.034   0.136  0.0794 -0.0497  0.0122
44695W        W44895   4.014  12.953   6.329  0.0941 -0.0484 -0.2138
44696W        W44896  15.367   7.355   3.014  0.1466 -0.0380 -0.2376
44697W        W44897  10.539   6.079   1.818  0.1728  0.0083 -0.0423
44698W        W44898   2.184   6.626   8.346  0.1862  0.1592  0.2579
44699W        W44899  13.516   1.698   2.868 -0.3678  0.1664 -0.2282
44700W        W44900  17.232   4.019   8.498  0.0199 -0.0088  0.0469
44701W        W44901  15.291   9.809   0.528 -0.1492  0.0965  0.1991
44702W        W44902   0.658   5.007  17.069 -0.1633 -0.0385 -0.1725
44703W        W44903   2.180  10.966   5.009 -0.0036  0.1124  0.0460
44704W        W44904   1.698   3.974   3.663 -0.0170 -0.0995  0.1243
44705W        W44905  16.570  12.347   5.588 -0.0501 -0.0315  0.2482
44706W        W44906  17.815  11.353   2.936 -0.1622  0.1397  0.0658
44707W        W44907  16.456   7.921   2.756 -0.1584 -0.3694  0.0585
44708W        W44908   9.762  17.748   6.644 -0.2008  0.1956  0.1663
44709W        W44909  15.923   7.710   2.568 -0.1538  0.0082  0.0810
44710W        W44910  16.486  11.261   9.490 -0.0880 -0.3374  0.1335
44711W        W44911   4.541   5.413   9.176  0.0024 -0.3854 -0.0957
44712W        W44912  17.250  11.197   0.524 -0.0812 -0.4723  0.1190
44713W        W44913  12.490  17.545   7.363 -0.0779 -0.1874  0.0014
44714W        W44914  10.162  15.653   2.913  0.1313 -0.0956  0.2490
44715W        W44915  15.440   7.095   0.895 -0.2701 -0.0861 -0.2082
44716W        W44916  14.384   1.535   1.663 -0.1672 -0.0580 -0.1279
44717W        W44917  16.789  17.284   1.869  0.1626  0.0330 -0.1628
44718W        W44918  12.707   7.491   2.047 -0.0371  0.1416  0.0865
44719W        W44919  12.166   2.810  12.982  0.1481 -0.1580  0.0077
44720W        W44920   4.933   9.142  18.030 -0.1230  0.1338  0.2768
44721W        W44921   8.443   9.959   2.735 -0.0927  0.0763  0.0152
44722W        W44922  15.152   9.408   1.696  0.0557  0.0539 -0.0028
44723W        W44923   8.537  12.685  10.350  0.1357 -0.1698 -0.3072
44724W        W44924  14.807  10.612  10.947  0.2687 -0.1524 -0.3031
44725W        W44925   1.135  14.019   1.547 -0.0619  0.0545 -0.1521
44726W        W44926   0.903  14.660   4.109 -0.2184  0.1251 -0.2151
44727W        W44927   4.572   9.028   2.661 -0.2718  0.0593  0.5935
44728W        W44928  13.479   7.649   7.851  0.2328 -0.1858 -0.2533
44729W        W44929  15.107   7.004  16.497 -0.1628  0.3055  0.0231
44730W        W44930  10.627  10.213   8.550 -0.3169  0.1198  0.0907
44731W        W44931  14.561   9.411   5.747 -0.4057 -0.1104  0.0959
44732W        W44932  14.337   9.016  17.130 -0.0267 -0.0854 -0.0049
44733W        W44933  12.540  13.941  16.126  0.2228 -0.0492 -0.0412
44734W        W44934   8.165   5.293   7.560  0.0906 -0.1136 -0.0447
44735W        W44935  13.250  10.041   8.065 -0.1010 -0.1639 -0.0824
44736W        W44936  14.848   8.188  16.844 -0.1761  0.1138  0.2848
44737W        W44937  13.160  12.068   6.851 -0.0615 -0.1080 -0.0190
44738W        W44938  16.579  11.237  16.322  0.0898 -0.2533 -0.1783
44739W        W44939   1.728   5.703  10.891 -0.1239 -0.4610 -0.0277
44740W        W44940   0.235   5.984   1.565  0.0563 -0.0009 -0.0201
44741W        W44941   1.855  11.081   3.135  0.0595  0.1117  0.0787
44742W        W44942  11.935   7.947   3.197  0.1419  0.1658  0.1766
44743W        W44943  16.974  13.568  17.423 -0.2520 -0.1322 -0.0221
44744W        W44944  12.635  13.014   6.016 -0.1627 -0.2378 -0.0030
44745W        W44945  11.955  11.990   7.950 -0.0356  0.2172 -0.2216
44746W        W44946  12.361  13.092   2.399  0.1089  0.3475  0.1045
44747W        W44947   8.557   3.844   0.997 -0.1655 -0.1671  0.0827
44748W        W44948  13.346   8.963   8.061 -0.0939 -0.0987 -0.0041
44749W        W44949   5.825  13.922   5.636  0.0956 -0.0588  0.2695
44750W        W44950  11.871  16.214   4.447  0.0489 -0.2522 -0.2061
44751W        W44951  13.590  17.488  15.170 -0.1742 -0.0946  0.1300
44752W        W44952  12.461   6.581  18.023 -0.1106 -0.0109 -0.1518
44753W        W44953  17.779   9.969   5.820  0.3942  0.4181  0.0269
44754W        W44954  15.858   8.811  13.924  0.3830  0.0644  0.0394
44755W        W44955  17.447  10.303  11.393 -0.1338 -0.1330 -0.1216
44756W        W44956   4.362   5.187   2.866 -0.0384 -0.1430 -0.0335
44757W        W44957   2.286  11.455   1.751 -0.1404 -0.1619 -0.1673
44758W        W44958  15.022  16.552   4.744 -0.1015 -0.2676 -0.2789
44759W        W44959  16.908  13.450  10.631  0.1248 -0.2854  0.0113
44760W        W44960  17.348  12.004   5.383  0.0205  0.2410 -0.2647
44761W        W44961  14.334  12.564  16.897  0.0842 -0.1282  0.1968
44762W        W44962   2.712   8.938   3.538 -0.0277  0.2418  0.0270
44763W        W44963  16.877   5.094   5.716  0.0957 -0.2023  0.2636
44764W        W44964   1.193  14.577   3.645 -0.1821  0.1333  0.0231
44765W        W44965   3.704   7.007   3.984  0.1034  0.0182  0.1033
44766W        W44966  10.770   8.319   4.681 -0.2732 -0.0468  0.1107
44767W        W44967   4.747  10.882   6.973  0.1557  0.0619  0.0148
44768W        W44968   3.144  12.271   6.875  0.0044  0.2781  0.1357
44769W        W44969   4.429  11.595   5.926 -0.6077 -0.0936 -0.0155
44770W        W44970   6.487  17.178   1.927  0.0336 -0.0199  0.0728
44771W        W44971  15.550  15.049  12.468 -0.1361  0.0793  0.2773
44772W        W44972  13.018  10.105  15.258 -0.0929  0.0772 -0.2349
44773W        W44973   8.223   8.272   2.406  0.0762  0.1935  0.1074
44774W        W44974   1.569  12.191  17.030  0.0680  0.0573 -0.0811
44775W        W44975  13.023  12.524   8.347 -0.2399  0.0524 -0.0753
44776W        W44976  17.141   6.128   4.891  0.1747  0.2354 -0.1848
44777W        W44977  11.641   8.567   4.808  0.0699 -0.1889 -0.0229
44778W        W44978   3.963  15.322   7.780  0.0658 -0.1341  0.0694
44779W        W44979   0.376   4.662   2.046  0.1345 -0.2398 -0.0898
44780W        W44980  17.557   9.244  15.604  0.1229  0.1930  0.1786
44781W        W44981  11.694   8.199   5.522 -0.2575 -0.0687 -0.1963
44782W        W44982   8.981   8.862   2.146  0.2026 -0.1026  0.1516
44783W        W44983   4.870   4.389  10.147  0.0247  0.1580  0.1631
44784W        W44984  17.053  15.269   7.618 -0.0143  0.0318 -0.1946
44785W        W44985  15.483   0.648  15.328  0.2244 -0.0411 -0.1419
44786W        W44986  15.791   6.395   1.567 -0.1129 -0.1250  0.0143
44787W        W44987  17.291   7.483   4.477  0.0658 -0.1064  0.1192
44788W        W44988   8.414  10.570  14.580 -0.0312 -0.0450 -0.1342
44789W        W44989   0.512  14.625   7.032 -0.3428  0.1151  0.1618
44790W        W44990   2.800   7.363   9.445  0.1811  0.3983 -0.0514
44791W        W44991  12.450  13.922   9.582  0.2785 -0.1837 -0.0436
44792W        W44992   1.149   6.199   3.257 -0.1577  0.2528 -0.0200
44793W        W44993  17.821   9.324  10.592 -0.1624  0.1008 -0.0660
44794W        W44994  14.940   7.235   1.662 -0.1019  0.0939 -0.2113
44795W        W44995  14.268  10.923  10.774  0.0615  0.1478 -0.0871
44796W        W44996  14.495   0.561   5.373 -0.0720  0.0235 -0.0418
44797W        W44997  13.410   9.260   6.968 -0.0495 -0.1227  0.0008
44798W        W44998   3.550   7.590   7.337  0.0524  0.1710 -0.2237
44799W        W44999  15.927   6.611   8.892 -0.0801  0.0474 -0.1493
44800W        W45000  15.869   8.388   8.916  0.1826  0.0369  0.4442
44801W        W45001   0.776   8.333  13.564 -0.4001 -0.1269  0.1847
44802W        W45002   1.053  12.171   3.647 -0.0661 -0.2021 -0.2330
44803W        W45003  14.729   6.971   6.228 -0.2036 -0.1137  0.2705
44804W        W45004  13.320   8.611  12.465  0.0704 -0.0262  0.1797
44805W        W45005  17.709  16.034  12.564 -0.0114 -0.1163  0.0752
44806W        W45006  11.157   5.437  10.494 -0.3301  0.3627  0.0737
44807W        W45007   3.156   6.055  10.652  0.4208 -0.2189 -0.1922
44808W        W45008  14.165   6.495   1.775  0.3167 -0.0906 -0.0407
44809W        W45009  15.577   4.794   7.447 -0.1185  0.0769 -0.4303
44810W        W45010   2.869   6.878  10.669  0.2112  0.2256 -0.2801
44811W        W45011   1.266  11.154   7.774 -0.0134  0.0739  0.2909
44812W        W45012  14.293  10.919   7.754 -0.1621 -0.1140  0.0165
44813W        W45013  14.769   8.815   6.460 -0.1392 -0.1819 -0.1830
44814W        W45014  12.286  14.963  17.255 -0.2857  0.3817  0.0198
44815W        W45015   1.749  12.067  14.911  0.0710  0.3529 -0.0326
44816W        W45016   9.109   3.181   0.871 -0.0276 -0.0695  0.3291
44817W        W45017  10.126   9.255   3.670 -0.1079  0.2715 -0.0303
44818W        W45018   7.128   7.230  12.009  0.1799 -0.0478 -0.1597
44819W        W45019  11.413   6.112   3.754 -0.1432 -0.1461 -0.1152
44820W        W45020   6.137   8.483   5.023  0.0544  0.0649 -0.0656
44821W        W45021  16.372   5.613  17.579 -0.0434 -0.1245 -0.3063
44822W        W45022   2.980  12.927   9.099 -0.2029 -0.2164 -0.0158
44823W        W45023   1.090   3.617  17.878  0.2540  0.0038  0.3333
44824W        W45024  12.562  10.459   6.476  0.0936  0.1723  0.0761
44825W        W45025   0.443   9.136   4.799  0.1369  0.3354 -0.1748
44826W        W45026  11.706   4.586   5.079 -0.0706 -0.1274 -0.1728
44827W        W45027  12.744   2.579  12.168 -0.5008  0.3233 -0.0338
44828W        W45028   3.977  11.257  11.497  0.1753 -0.3572 -0.0201
44829W        W45029  14.389   5.334   9.090 -0.3115 -0.0303 -0.0185
44830W        W45030  13.229   8.034  16.783  0.1685  0.0227  0.1693
44831W        W45031   5.503  17.745  14.136  0.2381 -0.1586 -0.1005
44832W        W45032   0.233  14.422  12.088 -0.0362 -0.0131 -0.2114
44833W        W45033   2.024  14.647  10.887  0.0378  0.0595 -0.0391
44834W        W45034   5.434  12.080   1.342 -0.2037 -0.3293  0.0301
44835W        W45035   1.318   5.109  14.027 -0.0267  0.0371 -0.2011
44836W        W45036  15.022  16.397   9.658 -0.1654  0.2748  0.2073
44837W        W45037   1.645   5.545   9.914  0.2761  0.1902  0.0017
44838W        W45038  15.118  10.447   8.506 -0.1775 -0.1032 -0.1467
44839W        W45039   7.006   5.380  11.780  0.0257 -0.0023  0.2605
44840W        W45040  12.361   6.341   6.061 -0.0424  0.0239  0.0594
44841W        W45041  14.117  15.020  11.260 -0.4361 -0.0108  0.0498
44842W        W45042  16.894   1.341   1.706 -0.1515  0.0161 -0.0467
44843W        W45043  15.913   8.667  11.602  0.1805  0.1533  0.2465
44844W        W45044   9.577   6.862   7.455 -0.1425 -0.0882  0.1305
44845W        W45045  15.598  10.525   7.101 -0.2444 -0.3634  0.0243
44846W        W45046  14.566   5.656   9.394 -0.0896  0.6539 -0.1653
44847W        W45047   2.665  15.436   2.147  0.3423  0.0991  0.1157
44848W        W45048  17.960  17.565   7.832 -0.0617 -0.1691  0.3963
44849W        W45049  14.377  11.945   4.568 -0.1959  0.2497 -0.2389
44850W        W45050   1.966  15.413   4.428  0.5105 -0.1911  0.7846
44851W        W45051  14.963  11.619   3.921 -0.2266 -0.0640 -0.0549
44852W        W45052  12.873   3.017   8.662  0.0828  0.3208  0.0129
44853W        W45053  13.213   5.348   6.562  0.2741  0.0096 -0.1413
44854W        W45054  16.287  11.284  13.774 -0.0431 -0.1861  0.0332
44855W        W45055  17.302   7.097   7.461  0.1169  0.1144  0.2813
44856W        W45056   1.267   8.581   9.661  0.0761  0.1600 -0.0776
44857W        W45057  17.624  16.228  11.760 -0.2172 -0.0696  0.0804
44858W        W45058  17.935   9.615   7.024 -0.5177 -0.0944  0.3435
44859W        W45059   0.401   3.814   6.917  0.0080 -0.2466 -0.1408
44860W        W45060  12.323   2.209   8.275 -0.0826  0.0295  0.1262
44861W        W45061   3.169  11.674  12.183 -0.1642 -0.0516  0.1797
44862W        W45062  16.997  16.219   2.541  0.0115 -0.1962  0.0612
44863W        W45063  16.812   6.253  16.112  0.2575  0.4229  0.0317
44864W        W45064  17.261  13.170   9.154 -0.2762  0.1460  0.2401
44865W        W45065   0.726   5.259   7.163  0.1738 -0.0886  0.0723
44866W        W45066   4.801  10.112   5.914  0.3484 -0.1103  0.3319
44867W        W45067  12.793   7.874  13.519 -0.0932 -0.1702  0.0993
44868W        W45068  17.133   9.682   7.553  0.1429  0.2922  0.3721
44869W        W45069   1.690   8.024   4.623  0.1666  0.0760  0.1466
44870W        W45070   0.051  10.781   2.585 -0.1721  0.2107  0.2407
44871W        W45071   1.319  10.409   6.526  0.1455 -0.2451 -0.1014
44872W        W45072  11.953   7.417   8.978  0.3112  0.0453  0.1254
44873W        W45073  16.983  15.952   8.397  0.2768 -0.0556  0.2549
44874W        W45074  17.050   6.116  11.281  0.3375 -0.1122  0.1964
44875W        W45075  14.992   8.007   2.202  0.3666  0.1361  0.0976
44876W        W45076  10.888  11.220  13.858 -0.0848 -0.1843  0.2929
44877W        W45077   6.182  10.590  11.230 -0.0746 -0.3873  0.0371
44878W        W45078  18.196   9.235   0.097 -0.1000 -0.1226  0.0604
44879W        W45079   1.722  15.278  14.566 -0.1585  0.0835  0.0020
44880W        W45080  17.021   7.836   0.958 -0.0992  0.0573 -0.1208
44881W        W45081  15.943  15.278   4.049 -0.0856 -0.2699 -0.1477
44882W        W45082  13.121  10.340   7.088 -0.0144  0.3734  0.0538
44883W        W45083  11.412  17.240   3.550 -0.2982  0.3485 -0.1955
44884W        W45084  17.278   9.072   9.232  0.3465  0.5110 -0.2183
44885W        W45085  17.980  10.866   7.208 -0.0462  0.0834 -0.4088
44886W        W45086   0.533  16.550   4.531  0.2029 -0.1244 -0.0803
44887W        W45087  14.606   3.850  16.532 -0.0416 -0.0679  0.0142
44888W        W45088  16.793   8.168   7.384  0.0122  0.4139 -0.0894
44889W        W45089   3.579   1.414   4.769  0.1560 -0.1362  0.4084
44890W        W45090  16.440  13.864  10.092 -0.2965 -0.1557  0.0830
44891W        W45091   9.646  17.316   1.887 -0.1210  0.0467  0.2506
44892W        W45092  11.132   9.149   9.477 -0.1525 -0.4964  0.1248
44893W        W45093   9.065  14.959  15.808 -0.1215  0.0052 -0.3639
44894W        W45094   1.720   5.058  10.268  0.0187 -0.4358 -0.1073
44895W        W45095   1.785   9.001  14.171 -0.5304  0.0583  0.1622
44896W        W45096  13.056  11.276   3.085  0.0047 -0.0398 -0.0946
44897W        W45097   6.597   8.637  10.998 -0.2425 -0.1139 -0.0729
44898W        W45098   2.593   8.889  15.732 -0.1374  0.1697  0.2970
44899W        W45099   3.149   3.030   5.881 -0.3232 -0.1209 -0.0308
44900W        W45100  15.786  11.410   8.825 -0.1290  0.1990 -0.1227
44901W        W45101  12.029  10.628   6.609  0.0413 -0.0398  0.0490
44902W        W45102  16.184   3.092  14.491 -0.3037 -0.0800 -0.0752
44903W        W45103   4.861   9.075   4.834  0.0286  0.1976  0.1999
44904W        W45104   0.592  13.297  11.213 -0.0177 -0.1969  0.2147
44905W        W45105  10.888  12.562   7.381  0.0062 -0.2821  0.0828
44906W        W45106   1.086   6.512   3.672 -0.0455  0.0394  0.1099
44907W        W45107   2.533   7.062   8.123 -0.4368  0.1531  0.0277
44908W        W45108   2.116   8.614  14.103 -0.2964 -0.0062 -0.1546
44909W        W45109   4.503   5.121  11.313  0.1055  0.2609 -0.3742
44910W        W45110   3.866  10.974   9.615 -0.0229 -0.0752 -0.3081
44911W        W45111   1.251   6.108   8.239 -0.1203 -0.1137 -0.2321
44912W        W45112  13.209   7.652  16.172  0.0573  0.4833  0.0648
44913W        W45113   2.575   5.950   0.112 -0.0853 -0.0217  0.2265
44914W        W45114   1.739   6.303   8.264  0.0977  0.0549 -0.0923
44915W        W45115   2.848   2.936  16.646 -0.1237  0.2240 -0.0303
44916W        W45116  15.289   5.253  13.436  0.0014  0.1760 -0.0474
44917W        W45117   5.104  11.767  10.400  0.1316 -0.0658  0.0908
44918W        W45118   5.199  16.775   5.408 -0.1028 -0.0651 -0.0137
44919W        W45119   3.617   8.016   8.937  0.1157  0.3230 -0.1722
44920W        W45120  17.900   9.473   2.092 -0.0476  0.0273 -0.0125
44921W        W45121   0.238   9.508  14.102 -0.1243 -0.2691  0.3069
44922W        W45122  13.893  12.900   7.360 -0.2597 -0.1380 -0.0025
44923W        W45123  18.117   8.232   7.717 -0.2249 -0.1379  0.2085
44924W        W45124  17.643   4.035  16.544  0.0966  0.5418  0.0182
44925W        W45125   9.414   9.687   3.884  0.0116  0.2332  0.0116
44926W        W45126   0.942  15.026   7.619  0.1284 -0.1034 -0.0446
44927W        W45127  16.919  10.113  13.670  0.2761  0.1687  0.2073
44928W        W45128   2.014   7.355  15.045  0.0396  0.0010 -0.1765
44929W        W45129   9.504   7.975   4.779 -0.1178 -0.1452  0.0083
44930W        W45130  17.027   6.363  11.693  0.2769 -0.1322  0.0440
44931W        W45131  14.061   2.990   8.438  0.2793 -0.0443 -0.0549
44932W        W45132  16.607   9.621  16.716 -0.1915 -0.1884 -0.0323
44933W        W45133   4.845   6.502  10.974 -0.2338 -0.2488 -0.0751
44934W        W45134  13.413  11.613  18.190 -0.0854  0.1357  0.2400
44935W        W45135  14.282  15.285   4.420  0.0792  0.1212 -0.1053
44936W        W45136   7.089  13.487   3.496  0.1973 -0.1409 -0.0612
44937W        W45137  12.783   7.079   6.335 -0.0362  0.0917 -0.0835
44938W        W45138   3.558  10.891  13.786  0.0099 -0.2260  0.1381
44939W        W45139  10.123  16.207   4.043 -0.1236 -0.0728  0.0051
44940W        W45140  15.271   6.658   1.590 -0.1073 -0.3597  0.2294
44941W        W45141   6.170   2.440  10.572  0.4708 -0.0603  0.2608
44942W        W45142   1.074   4.873  13.593  0.0622  0.0501  0.3138
44943W        W45143   9.121  11.547   8.752  0.1973 -0.0245 -0.3049
44944W        W45144   1.473   3.422  14.067 -0.1949 -0.0626  0.2095
44945W        W45145  16.534   3.473   2.618  0.0996  0.0886  0.1196
44946W        W45146   2.108   2.434   6.409  0.3191  0.2323  0.1661
44947W        W45147  11.564  16.259   8.328 -0.0721  0.1194  0.0104
44948W        W45148  15.766  10.418  11.259  0.2060  0.1895  0.1729
44949W        W45149  16.452   5.727  11.733 -0.1737  0.0652  0.1876
44950W        W45150   5.244   8.246   7.989  0.0594  0.0252 -0.2250
44951W        W45151   3.921  15.284   8.268  0.0976 -0.0842 -0.1148
44952W        W45152  15.445  12.189  12.668  0.0185 -0.1217 -0.1262
44953W        W45153  13.694  10.049   7.727 -0.0496 -0.1290 -0.5451
44954W        W45154  15.273   9.838   1.516 -0.2440 -0.1962 -0.0514
44955W        W45155  17.442   4.465   5.895 -0.2817  0.0155 -0.1419
44956W        W45156  13.632   5.993  11.757  0.1172  0.1228 -0.4877
44957W        W45157   5.008  11.445   7.571 -0.0123  0.1020  0.2020
44958W        W45158  15.969   6.485  12.324 -0.1570  0.0062 -0.0145
44959W        W45159  15.634  12.493   6.897  0.0402 -0.0321 -0.0788
44960W        W45160  17.533   1.755   7.297 -0.2626  0.0120 -0.3114
44961W        W45161   1.905  14.989   9.618 -0.2140  0.1280 -0.0539
44962W        W45162   0.735   5.427   5.131 -0.0751 -0.2208 -0.0104
44963W        W45163  16.987  10.770  13.580  0.2122  0.2642 -0.1282
44964W        W45164  13.707   7.919   6.808  0.2034  0.1714  0.0413
44965W        W45165   0.429   8.147   2.036  0.2242 -0.0439  0.0173
44966W        W45166  15.438   5.260   8.212 -0.1580  0.2082 -0.2131
44967W        W45167  16.697  15.038   4.726 -0.2669  0.1141  0.0371
44968W        W45168   6.057  10.873  13.491 -0.0215  0.0329  0.0240
44969W        W45169  16.474   8.576   1.938  0.5457 -0.0899  0.0088
44970W        W45170   3.157   6.054   2.987 -0.1618  0.2413 -0.3001
44971W        W45171   5.607  17.155   4.503  0.1367  0.0548 -0.1414
44972W        W45172  14.525   4.513   9.839 -0.0959  0.0496 -0.1407
44973W        W45173  11.073  11.511   4.201 -0.0140  0.0144  0.1842
44974W        W45174  15.458  11.101  10.295 -0.1604  0.2508  0.3371
44975W        W45175   0.114   2.662   5.863 -0.1538 -0.1374 -0.2029
44976W        W45176   0.250   7.572  13.111 -0.0817 -0.3681 -0.2307
44977W        W45177  18.083   8.128  17.354 -0.0681  0.0356 -0.3940
44978W        W45178   1.531   3.483   9.571  0.0363  0.0918 -0.2264
44979W        W45179   1.908   1.795  13.337 -0.0523 -0.0556 -0.0368
44980W        W45180   8.765   4.811  16.199  0.1906 -0.1240  0.1183
44981W        W45181  13.452   8.569   8.973 -0.2068 -0.0412  0.1498
44982W        W45182  14.141   6.433   7.896 -0.1439  0.0360 -0.1065
44983W        W45183  13.286   4.130   5.022  0.0885 -0.2322  0.3725
44984W        W45184   6.626   4.608   9.315 -0.0473  0.3071  0.1233
44985W        W45185  14.152   5.959  10.213  0.1840  0.2244 -0.1436
44986W        W45186  12.838  13.525   4.361 -0.2749 -0.1729 -0.0743
44987W        W45187  16.060  11.597   5.886 -0.1693  0.0701 -0.5332
44988W        W45188  12.396   8.521   1.246 -0.1108  0.1779 -0.3732
44989W        W45189   2.443  14.473   4.164 -0.0283  0.2678  0.2085
44990W        W45190  14.259   5.799   9.750 -0.1351  0.3670  0.0346
44991W        W45191  14.610  13.631   9.578  0.1665  0.3066 -0.6030
44992W        W45192  17.421   6.554  14.236  0.4964  0.0882 -0.0510
44993W        W45193   1.581   8.939   9.932  0.2050 -0.0127 -0.2118
44994W        W45194   2.778   8.425   4.428 -0.0582  0.1798  0.2443
44995W        W45195   9.170   9.105  10.329 -0.0071 -0.3006  0.4510
44996W        W45196  11.811   7.704   2.730 -0.1318  0.0474 -0.1384
44997W        W45197   8.220  12.430   1.407  0.0059  0.2662  0.2307
44998W        W45198  10.912   1.363   6.775 -0.3741  0.1372  0.1549
44999W        W45199  14.030  15.127  10.724  0.0897  0.1953  0.1683
45000W        W45200  15.432   6.332   7.371  0.0969 -0.0519 -0.0419
45001W        W45201   7.392  15.406   7.864  0.1430 -0.0887  0.1241
45002W        W45202  11.164  10.562   6.642  0.1035 -0.0739  0.2793
45003W        W45203  17.717  12.954   2.539  0.1001 -0.2620 -0.0278
45004W        W45204   8.866   8.780  11.086  0.0250  0.1930 -0.1319
45005W        W45205  12.922  11.631   8.715  0.1316  0.2739  0.0259
45006W        W45206  17.120  17.555   6.404  0.2490 -0.2816 -0.1400
45007W        W45207  15.517   2.875   4.112  0.0710  0.1787 -0.2933
45008W        W45208  17.708  17.886  12.796 -0.2907 -0.2000  0.1656
45009W        W45209  16.246   4.518  12.481  0.1316  0.1493  0.1170
45010W        W45210   6.652   6.888  14.593 -0.0574 -0.2381 -0.2973
45011W        W45211  16.687  15.247  10.107  0.3918  0.1165  0.1993
45012W        W45212  15.105  14.877   5.196  0.2369  0.2100 -0.0768
45013W        W45213   0.684   6.151  10.262 -0.2443  0.0669 -0.3939
45014W        W45214  16.269   2.597   1.618 -0.1764 -0.1048  0.2263
45015W        W45215  12.189   8.729   9.986  0.0775 -0.0965  0.1410
45016W        W45216  11.995   2.744   3.741 -0.1723  0.0321 -0.0870
45017W        W45217  15.107   8.459  14.451  0.1549 -0.0102 -0.0360
45018W        W45218   1.440  10.156  15.446 -0.0390  0.3728 -0.0103
45019W        W45219   9.947   6.909  14.874 -0.1980 -0.1513 -0.0086
45020W        W45220  14.925  14.102   7.801  0.5545  0.3471  0.0854
45021W        W45221   0.759   9.142  17.498 -0.2651 -0.1099 -0.3092
45022W        W45222   8.740   9.879   1.369 -0.0764  0.1357  0.2808
45023W        W45223  13.045  13.406  12.790 -0.2680 -0.0939 -0.1853
45024W        W45224  16.279  17.089  17.145  0.2207 -0.0494 -0.3500
45025W        W45225   8.421   0.741  13.037 -0.1128 -0.1951  0.1601
45026W        W45226  10.695   7.831  13.977  0.0079  0.0308  0.1794
45027W        W45227   7.371  12.311   8.571  0.1676  0.1941 -0.3542
45028W        W45228   3.877   2.736   6.605 -0.2322  0.1670 -0.2258
45029W        W45229   0.728  12.735  17.839  0.2542  0.2542 -0.3440
45030W        W45230  14.431  10.482  13.541 -0.0184  0.0294 -0.1891
45031W        W45231  17.825   7.961   6.272 -0.0578  0.1708  0.2308
45032W        W45232   1.943   8.145   3.388 -0.0036 -0.1036  0.0023
45033W        W45233   3.253   4.172   6.884 -0.2617  0.0635  0.0117
45034W        W45234  13.527   4.614  11.949 -0.0801  0.0792  0.2045
45035W        W45235  13.848   4.832  13.560  0.1570  0.2132 -0.0446
45036W        W45236   7.358   9.887   6.945 -0.0977  0.3366 -0.1479
45037W        W45237  13.784  14.495   7.055  0.0082  0.0666  0.0583
45038W        W45238  15.663  12.294  11.660  0.2238  0.0655  0.1705
45039W        W45239   9.620   5.846   6.762  0.0681  0.0986 -0.0228
45040W        W45240  16.325   3.227   8.072 -0.2561  0.2909  0.2098
45041W        W45241  15.347  11.725  10.880  0.1218 -0.2007 -0.5372
45042W        W45242  14.697  14.193  11.187 -0.1329  0.3401  0.2525
45043W        W45243  17.131   6.794  11.887  0.2247  0.3190  0.1438
45044W        W45244  17.483   2.880  13.487 -0.1839  0.2187  0.0220
45045W        W45245  11.758   5.114   5.416  0.0005  0.0734  0.1678
45046W        W45246   8.166   6.138   0.225  0.1136 -0.2838 -0.1498
45047W        W45247   1.760   3.764  14.334  0.1031  0.3231 -0.0030
45048W        W45248  16.581  11.700   9.260 -0.0571 -0.2024  0.0142
45049W        W45249   0.188  17.100  10.412 -0.1878 -0.1111  0.0518
45050W        W45250  14.588   8.457   6.207 -0.1752 -0.1702  0.1949
45051W        W45251  14.048   1.669   4.229  0.1935  0.1129  0.0157
45052W        W45252   2.852   6.304  12.230  0.3249  0.1699 -0.1063
45053W        W45253  12.286   9.743  17.570 -0.1067 -0.0171 -0.2403
45054W        W45254   8.837   8.079  12.135  0.1541 -0.1320  0.0810
45055W        W45255  17.973  17.875   7.129  0.0066  0.2109  0.1253
45056W        W45256  14.142  13.913   8.776  0.0724 -0.0271 -0.0588
45057W        W45257   1.254  12.015   7.635 -0.0613  0.0545  0.0985
45058W        W45258   3.963  12.603  11.311 -0.3077 -0.1908 -0.0782
45059W        W45259  12.420   5.826  10.807  0.1492  0.0311 -0.0999
45060W        W45260   6.615  14.503   3.951 -0.2558 -0.1032  0.1005
45061W        W45261  16.047  15.422   2.043 -0.1351 -0.1037  0.3265
45062W        W45262  12.293  12.932  14.477  0.1311 -0.3078 -0.1372
45063W        W45263   5.272   6.203  10.906 -0.0064  0.0207 -0.2318
45064W        W45264  16.894   1.266   3.545 -0.1585  0.0148 -0.0755
45065W        W45265  11.946   6.349   3.574 -0.1580  0.2632 -0.2715
45066W        W45266   9.652  11.337  11.672 -0.0311  0.1319  0.1541
45067W        W45267  12.856   7.677   6.424 -0.0683 -0.0172  0.0004
45068W        W45268  13.499  13.947   3.885 -0.2725 -0.2248 -0.1176
45069W        W45269  12.582   9.847  15.026 -0.0456 -0.0498  0.1664
45070W        W45270   4.238   9.874  10.407 -0.0461  0.0212 -0.0050
45071W        W45271   9.778   1.408   3.811 -0.1333  0.2935  0.0619
45072W        W45272  18.017   7.162   8.191 -0.2217  0.0552 -0.0163
45073W        W45273   4.803  13.693  13.605  0.2323 -0.1514  0.3113
45074W        W45274   4.601   5.390  12.779  0.0365  0.1049 -0.1715
45075W        W45275  16.111   8.313  11.933 -0.1871  0.2732 -0.0244
45076W        W45276  17.067   2.134  12.055  0.1256 -0.0579 -0.0067
45077W        W45277  17.254   7.896   5.372 -0.3110  0.1334  0.0450
45078W        W45278   5.983  11.560   9.903  0.0352  0.1161 -0.0523
45079W        W45279   2.218  16.231   6.042  0.2200  0.0714  0.2094
45080W        W45280  10.632  11.212   9.887  0.0316 -0.1596  0.2902
45081W        W45281  16.494   9.055  12.334  0.0603 -0.2708  0.0647
45082W        W45282  15.555   2.239   0.191  0.0087  0.0313 -0.0870
45083W        W45283  12.284   7.923  10.630 -0.1468  0.3463  0.1459
45084W        W45284  14.177  12.097   7.286  0.1190  0.0383 -0.0269
45085W        W45285  12.472   8.748   9.466  0.0580  0.1659 -0.0848
45086W        W45286  13.408   4.485   0.898  0.0865  0.1445  0.2016
45087W        W45287   6.991  10.998   4.374 -0.0704 -0.2715  0.0693
45088W        W45288   7.202   7.974   9.234 -0.2452 -0.0478 -0.0775
45089W        W45289   2.968  13.627  12.832  0.2912 -0.0810 -0.3720
45090W        W45290   2.586   9.063  10.925 -0.1011  0.1908 -0.1699
45091W        W45291  17.852   8.433   8.686  0.0756  0.2440  0.0017
45092W        W45292  16.524  16.966   6.834  0.1414 -0.0942 -0.0476
45093W        W45293  13.755   1.117  15.768 -0.1780  0.0843  0.0187
45094W        W45294  10.093   8.019   2.654  0.0249  0.0955 -0.0437
45095W        W45295   1.152   5.693  16.226 -0.0599  0.0382  0.1989
45096W        W45296  10.431  14.481  13.814  0.0066  0.0023 -0.1407
45097W        W45297  17.437   1.029   8.729 -0.3574 -0.1477 -0.1113
45098W        W45298  16.611   3.272  13.384 -0.0323  0.0829 -0.1146
45099W        W45299  14.503   8.927   5.775  0.0625  0.1021 -0.1730
45100W        W45300  15.309   3.819   7.678  0.0666 -0.2095 -0.2119
45101W        W45301   0.550  14.823   8.229 -0.0483 -0.2359 -0.1189
45102W        W45302   0.258  15.032   6.373 -0.1727 -0.2991  0.2749
45103W        W45303  12.861  14.612   7.166 -0.0953  0.1862 -0.0577
45104W        W45304  12.780  17.674   3.134 -0.2545 -0.0812  0.0279
45105W        W45305  12.583  10.636   5.407 -0.0336  0.1752 -0.0209
45106W        W45306  12.984  11.012  17.728  0.0321  0.0742 -0.0159
45107W        W45307  13.859  10.949   7.375 -0.0617  0.0210  0.0974
45108W        W45308   0.102   9.236   8.759 -0.1670  0.0544  0.4052
45109W        W45309  11.483   6.422   5.715  0.1827  0.1383  0.1358
45110W        W45310   7.925   7.177   8.450  0.2502 -0.0845  0.1393
45111W        W45311   2.919   0.022   7.333 -0.0637  0.1618 -0.2355
45112W        W45312  13.933   2.810   7.239  0.0372 -0.1119  0.1971
45113W        W45313  17.159  10.546   5.371 -0.1208  0.1734  0.3057
45114W        W45314   9.575  10.641   4.686 -0.2002  0.0015 -0.0604
45115W        W45315  12.329  13.748   7.397 -0.0660  0.1875  0.3125
45116W        W45316  13.300   6.750   1.344  0.2019 -0.1965 -0.1053
45117W        W45317   0.936   5.515  16.973  0.0787 -0.0423  0.0461
45118W        W45318   1.350  10.887   8.251  0.2158  0.0474 -0.1789
45119W        W45319   9.838  14.057  11.426 -0.0400 -0.2026  0.1742
45120W        W45320  14.077   8.216   2.097 -0.0973  0.0134  0.0818
45121W        W45321   7.090  15.051   2.706  0.0218  0.2674  0.2963
45122W        W45322  17.431   8.245   8.635 -0.2702 -0.4120 -0.0906
45123W        W45323   2.916   3.656   9.903  0.0452 -0.0313  0.1466
45124W        W45324   6.542   8.675   2.707 -0.2003  0.0937 -0.3196
45125W        W45325  16.124   7.243   6.631 -0.0983 -0.1462 -0.3067
45126W        W45326  17.949   6.014   6.788 -0.2440  0.2586  0.1119
45127W        W45327   4.084  11.180  12.371 -0.0691  0.2348 -0.1839
45128W        W45328  16.281   5.989   0.995  0.1591  0.0191  0.0916
45129W        W45329   2.568   8.866   9.206  0.0762  0.2288 -0.0648
45130W        W45330  16.577  13.387   8.258  0.0229 -0.1374  0.2013
45131W        W45331  15.127  15.930   8.229  0.2154 -0.0231 -0.0117
45132W        W45332  15.673   6.030   2.905 -0.0137 -0.0030 -0.0465
45133W        W45333  13.537  11.131   4.129  0.2731  0.0521 -0.0710
45134W        W45334  15.333   6.374  14.884  0.2106 -0.0047 -0.1217
45135W        W45335  17.486  10.357  16.321 -0.1811  0.2097 -0.0802
45136W        W45336  13.716   4.245   6.888  0.2998 -0.1684  0.0808
45137W        W45337  10.606   0.449   4.029 -0.0451  0.5071 -0.1970
45138W        W45338  13.263   9.617  13.907 -0.0964  0.1152  0.3295
45139W        W45339   0.473   8.226  13.980  0.1033 -0.0295  0.3002
45140W        W45340  10.428  12.939  15.158  0.1011 -0.5016  0.1323
45141W        W45341  18.067   5.294   9.543 -0.2563 -0.1185  0.0676
45142W        W45342   2.833  12.925  14.031 -0.0297  0.3460 -0.1502
45143W        W45343   0.843  15.495   8.772 -0.0325 -0.0756  0.1486
45144W        W45344   3.792   5.214  14.490  0.1511 -0.0064 -0.1595
45145W        W45345  15.289   8.362   9.079  0.0198  0.1195  0.6080
45146W        W45346  16.454  16.238   9.007 -0.2647  0.2744  0.0998
45147W        W45347   1.704  15.412  11.139  0.1862  0.0803  0.0639
45148W        W45348   7.968  13.612  18.163 -0.1051  0.3609  0.0899
45149W        W45349  15.177   8.773  13.160 -0.0660 -0.1034 -0.1483
45150W        W45350  14.559  11.800   0.410  0.1912  0.0427  0.0415
45151W        W45351   8.678  10.936  12.045  0.1835  0.0750  0.4769
45152W        W45352  17.542  15.017   6.329  0.1850  0.0220  0.0908
45153W        W45353  16.002  13.543   9.929 -0.0928 -0.3669  0.1595
45154W        W45354  12.108   1.102   5.168  0.0108  0.2351  0.0544
45155W        W45355   4.789   7.567  14.490 -0.0375 -0.1663 -0.0625
45156W        W45356  13.492   4.887   0.048  0.0278  0.0048 -0.0716
45157W        W45357   6.237   9.818  11.887  0.0088  0.0859  0.2836
45158W        W45358   6.650  11.848   6.950  0.2724 -0.0937 -0.0303
45159W        W45359  17.012  10.650  15.441 -0.0553 -0.3461  0.1676
45160W        W45360  13.427  12.795   8.246 -0.1238 -0.3175 -0.2777
45161W        W45361  11.229  11.717   8.967 -0.1131  0.0163  0.0711
45162W        W45362   1.572   9.276  14.939  0.1617  0.1582 -0.2736
45163W        W45363   2.581   5.405  13.494  0.2923  0.1418  0.2298
45164W        W45364   1.264   4.724   3.917 -0.2406  0.1751 -0.0528
45165W        W45365  11.837   9.619  13.472 -0.0859  0.3387  0.0372
45166W        W45366  13.403   0.978  13.486  0.2653  0.0141  0.4241
45167W        W45367   7.139  17.423   4.460 -0.0908  0.1222 -0.2491
45168W        W45368  15.845   7.761  13.383  0.1426 -0.1222  0.0629
45169W        W45369  12.229  17.103  10.915  0.1733  0.1396 -0.1667
45170W        W45370  13.825   7.911  12.279 -0.2934  0.0417 -0.2434
45171W        W45371  17.641   0.587   5.515  0.5062  0.1052  0.3013
45172W        W45372  14.801   4.050  11.301 -0.2252 -0.0847 -0.1210
45173W        W45373  16.033   9.507  11.183  0.1191 -0.1499  0.1154
45174W        W45374   1.042  10.859   3.713 -0.1533 -0.1221  0.2999
45175W        W45375  14.550  10.558  10.551  0.3246 -0.4018  0.0562
45176W        W45376  14.906  12.339  10.509  0.0109  0.1441  0.0897
45177W        W45377   1.837  10.154   8.294 -0.2629  0.0924 -0.1480
45178W        W45378  15.228  10.796  13.258  0.1189 -0.0654  0.2385
45179W        W45379  13.539   3.019   4.413 -0.1750 -0.0009 -0.0863
45180W        W45380  15.928  17.509  17.659 -0.3969  0.0248  0.1735
45181W        W45381  12.819   9.134  11.388  0.1078  0.1768 -0.2793
45182W        W45382   5.647   8.905   7.689  0.0230  0.1029 -0.1989
45183W        W45383  14.376   3.480  14.809 -0.0690  0.0262 -0.2406
45184W        W45384   0.142   7.921   8.074  0.1002  0.0826  0.0808
45185W        W45385   0.390   2.704  10.380 -0.1368  0.1322  0.1261
45186W        W45386  10.871   1.235  17.994 -0.2492  0.0797 -0.1701
45187W        W45387  14.119   9.984   9.713  0.1601 -0.1184  0.0735
45188W        W45388  17.330  11.212  12.795  0.1281 -0.0203 -0.1940
45189W        W45389   7.612   2.884  10.021 -0.0839 -0.1004 -0.0466
45190W        W45390  12.484   8.096  12.856  0.1709 -0.0763 -0.0137
45191W        W45391   5.187   9.681  15.009  0.1558 -0.0373 -0.0234
45192W        W45392  15.279   8.994  12.348  0.0009  0.2380 -0.0802
45193W        W45393  13.400   1.999  15.456  0.1469  0.3641 -0.1464
45194W        W45394   3.904   7.403  17.278 -0.1382  0.0412  0.2348
45195W        W45395  10.697  12.200  17.970  0.3450  0.0555  0.3039
45196W        W45396  13.023   9.017   0.990 -0.0484 -0.0341  0.1016
45197W        W45397   2.918  15.820  17.039  0.1878 -0.3039 -0.0154
45198W        W45398  17.207   3.784   4.662 -0.1134 -0.0387  0.0192
45199W        W45399  15.497   3.347  11.496  0.1565 -0.2992 -0.3152
45200W        W45400  12.545  17.799  16.500  0.0979 -0.2613 -0.1374
45201W        W45401   9.433  14.270  11.726  0.2248 -0.2374  0.0305
45202W        W45402  14.176  18.178  13.265 -0.0861  0.1104 -0.0792
45203W        W45403  13.793  11.434  16.558  0.1810 -0.3807  0.2186
45204W        W45404   7.318  10.996  11.765  0.1252  0.2177  0.2249
45205W        W45405  15.065  12.274  17.040 -0.0252 -0.0953  0.1109
45206W        W45406  14.954   8.797   0.481  0.1032  0.2025  0.0212
45207W        W45407  11.123   7.871  10.580  0.1403 -0.2312  0.1618
45208W        W45408  16.513   4.533  11.810 -0.0097  0.2073 -0.0377
45209W        W45409  15.765   6.352   0.998  0.0442  0.0759  0.3709
45210W        W45410   2.786  11.335  12.192 -0.0462  0.1414  0.1135
45211W        W45411   1.931   8.806  11.466 -0.2101 -0.2845 -0.1018
45212W        W45412  17.271   5.743   0.807  0.1960  0.2538 -0.0913
45213W        W45413  12.459  10.424  16.209 -0.4101  0.0725 -0.0942
45214W        W45414  15.735   8.565  12.221 -0.2865 -0.0350 -0.2523
45215W        W45415   1.960   8.548  10.820 -0.0842  0.0467 -0.0472
45216W        W45416   7.036   8.731  10.217  0.0642  0.0882  0.2360
45217W        W45417  17.402  10.285   2.987  0.1206 -0.2973 -0.1168
45218W        W45418  12.343   6.298  12.471  0.3596 -0.1626  0.2358
45219W        W45419  16.925   7.478  15.128  0.2318 -0.0195  0.1764
45220W        W45420   0.842  15.084  17.858  0.2401  0.2907 -0.0206
45221W        W45421  14.422   5.535  16.496  0.2171 -0.0976  0.1366
45222W        W45422  12.377   2.916  13.990 -0.4273  0.0211 -0.1168
45223W        W45423   7.280   9.071  13.439  0.0712  0.1357 -0.1539
45224W        W45424   0.110   8.343   8.377 -0.1697  0.0413 -0.1010
45225W        W45425  11.066  13.339   7.995 -0.1116 -0.1457  0.1956
45226W        W45426  11.803   7.753   9.883 -0.1119  0.0103  0.2446
45227W        W45427  15.052  12.401   9.021  0.1330  0.0886 -0.2415
45228W        W45428  15.772  11.830  17.156  0.3838  0.1931 -0.2267
45229W        W45429   0.290   5.158   2.149  0.2805 -0.1394  0.1690
45230W        W45430   0.149  10.540  18.175  0.1154 -0.2209  0.3006
45231W        W45431   4.464   2.507   5.877  0.1754 -0.2329 -0.1126
45232W        W45432  16.353  11.742  11.814  0.2622  0.2551  0.4429
45233W        W45433   6.319   1.860  17.038 -0.1042  0.1098 -0.0859
45234W        W45434   1.270  11.039  12.948 -0.0777  0.0387  0.4116
45235W        W45435  12.592   2.978  15.396 -0.0708 -0.0082 -0.1019
45236W        W45436  15.834   6.708  10.250  0.2113  0.1036  0.0575
45237W        W45437  13.327  13.543   9.830 -0.0359  0.1033  0.0535
45238W        W45438  15.311  12.187   4.562  0.0349  0.1676 -0.1945
45239W        W45439  16.529   6.401  12.431  0.2149  0.4433 -0.3693
45240W        W45440  18.191   5.866  15.041 -0.0404 -0.0011  0.2188
45241W        W45441  10.874   5.372  15.077 -0.2163 -0.0175 -0.5979
45242W        W45442  14.727  14.573  10.208 -0.1576 -0.2058 -0.1498
45243W        W45443   0.511  15.277   9.517  0.0918 -0.0755 -0.0762
45244W        W45444  13.415   1.179   9.086  0.2001 -0.2420  0.0311
45245W        W45445  14.776   3.951  10.467  0.1026  0.0785 -0.3395
45246W        W45446  15.826   8.937  14.760 -0.0445 -0.3335  0.1092
45247W        W45447  17.809  17.342  15.596 -0.2071  0.0811  0.0552
45248W        W45448  16.604   4.221   7.539 -0.1909  0.0364  0.1059
45249W        W45449  12.212   7.904  12.434 -0.0659 -0.3649 -0.0488
45250W        W45450  15.153   8.449  11.024 -0.0082 -0.0632 -0.1680
45251W        W45451   3.320   8.812   8.456 -0.0480 -0.0892  0.1573
45252W        W45452  14.264   3.145   9.627  0.2038  0.0249  0.1196
45253W        W45453  11.130   9.420   3.587  0.2190 -0.0193 -0.0111
45254W        W45454   4.987   8.111   8.863 -0.2354 -0.0624  0.2075
45255W        W45455  12.601  15.259  15.365 -0.1145 -0.0132  0.0307
45256W        W45456  18.207   9.826   6.614 -0.0105 -0.0541  0.1974
45257W        W45457  10.391  10.794  15.812  0.2894  0.0033  0.0481
45258W        W45458  16.444  11.649   7.367 -0.3149  0.0567 -0.1119
45259W        W45459  15.519  10.359  10.236 -0.1878 -0.0150 -0.4852
45260W        W45460   1.733   7.401  10.588 -0.0738 -0.1606 -0.0497
45261W        W45461   2.015  12.752  10.811 -0.1014  0.1639 -0.1453
45262W        W45462  12.918  10.360  11.829 -0.1217  0.1738  0.3245
45263W        W45463  17.480   7.751  17.489 -0.1538 -0.1613 -0.0902
45264W        W45464  10.186  10.536  14.652  0.3024 -0.0455 -0.0284
45265W        W45465   6.263  11.505  15.754  0.3818  0.1151 -0.2342
45266W        W45466   6.564   6.071   3.145 -0.1034 -0.0528  0.0867
45267W        W45467  13.037  13.903  14.879 -0.2478  0.0731  0.1851
45268W        W45468  13.145  14.112   5.514  0.0786 -0.2404  0.2101
45269W        W45469  11.590  12.089  13.172 -0.1977 -0.0795 -0.1992
45270W        W45470  12.328   6.586   9.944 -0.3781 -0.0872 -0.1683
45271W        W45471   3.488   1.313   8.925 -0.0989  0.0631 -0.0309
45272W        W45472   4.507   0.778   8.441  0.0111  0.1765  0.1267
45273W        W45473  13.241  12.352   5.542 -0.0470  0.0919  0.0017
45274W        W45474  10.844   8.607  16.725  0.2467  0.1252 -0.4828
45275W        W45475  17.014   5.910  16.665 -0.3638  0.2537 -0.0463
45276W        W45476  11.856   4.346  17.240  0.2152  0.1363 -0.1904
45277W        W45477   6.868   9.888  11.071 -0.0997 -0.1214 -0.1276
45278W        W45478  15.890  10.405  16.658 -0.1157  0.2164  0.0276
45279W        W45479  13.517   8.230   8.619 -0.4255  0.1877  0.0681
45280W        W45480  12.710  16.977  12.824 -0.1602  0.0726  0.0106
45281W        W45481   0.598   7.534   2.766 -0.3656 -0.0422 -0.0884
45282W        W45482   0.277   7.808  17.487  0.1184  0.0336  0.1380
45283W        W45483  16.219   5.653  15.029  0.2291 -0.3657  0.6305
45284W        W45484  12.774  10.527   1.795 -0.2321  0.0046  0.2562
45285W        W45485   0.533   7.615   7.778 -0.7265  0.2531  0.0623
45286W        W45486   0.979  16.177  13.711  0.4228  0.1195  0.2971
45287W        W45487   6.561   2.205   9.136 -0.1096 -0.0350  0.1495
45288W        W45488  16.347  10.073  10.265  0.1970  0.0533  0.0328
45289W        W45489   7.657   8.322   3.256 -0.0656  0.1023 -0.0134
45290W        W45490  15.730  10.768  15.265  0.1308  0.1740  0.1167
45291W        W45491   4.028   4.080   3.502  0.1255 -0.0229  0.0155
45292W        W45492  13.919   6.919  15.281  0.1173  0.2585 -0.1800
45293W        W45493  14.758   6.685   1.748  0.0121 -0.2785  0.0149
45294W        W45494  16.290  12.615  16.562 -0.2205  0.2066  0.1144
45295W        W45495   5.027   6.183   5.562  0.0968 -0.2199  0.1425
45296W        W45496  15.490   5.860   6.999 -0.1891 -0.2397 -0.0160
45297W        W45497   9.448  14.820  11.763  0.0095  0.0375 -0.3310
45298W        W45498   8.725  11.489  14.555 -0.2316 -0.0344 -0.2877
45299W        W45499  16.949   6.655   7.434  0.0506 -0.0957  0.1683
45300W        W45500  14.523   4.392  11.721  0.0328  0.1412  0.0211
45301W        W45501  12.917   2.453  12.760 -0.2140  0.0180 -0.0252
45302W        W45502   8.396   8.968   9.552  0.0293 -0.3590  0.3147
45303W        W45503   3.939  10.194   9.546 -0.1775 -0.0444 -0.0122
45304W        W45504  16.803   6.058  15.288 -0.2181  0.2501 -0.2401
45305W        W45505   3.607   2.975  16.936 -0.0251 -0.4572  0.1215
45306W        W45506  17.788   5.115   2.690  0.4429  0.2827  0.0238
45307W        W45507   7.944   9.403  12.978  0.4012  0.1014  0.1284
45308W        W45508  15.487   6.502   0.247 -0.0401  0.0247  0.2186
45309W        W45509   2.385  13.255  14.640  0.1962 -0.1993 -0.1523
45310W        W45510   0.886   4.107   7.390 -0.1238  0.0979 -0.2272
45311W        W45511   4.314   1.301   4.297  0.2811 -0.4359  0.0088
45312W        W45512  17.916  12.748  15.478 -0.0784  0.0899  0.0119
45313W        W45513  14.279   3.246  13.345  0.0377 -0.2373  0.0612
45314W        W45514  13.995   7.487  13.646  0.1395 -0.0197  0.0083
45315W        W45515   6.067  15.516  11.544  0.1863  0.0031  0.2402
45316W        W45516   0.741   8.770  15.315  0.2498  0.0357  0.0508
45317W        W45517  14.316   7.481   2.681  0.0721  0.0490 -0.1388
45318W        W45518  15.713   4.443   1.194 -0.0532  0.1282  0.0776
45319W        W45519   9.340  12.765  14.637 -0.4595  0.0313  0.0568
45320W        W45520   2.348   5.619  14.623 -0.0721 -0.1815 -0.0174
45321W        W45521   2.453   7.236  16.807  0.1516 -0.0626 -0.0097
45322W        W45522  17.952   9.024   9.402  0.1126  0.0216  0.1375
45323W        W45523   2.685   7.911  11.878  0.0447  0.1422 -0.0478
45324W        W45524  15.209   9.716  18.157 -0.2059 -0.0323 -0.0451
45325W        W45525  17.131  12.871   9.943  0.0331 -0.2202 -0.0014
45326W        W45526  15.081  10.259  17.035 -0.2951  0.0535  0.2119
45327W        W45527  16.245  15.764   7.851 -0.4352  0.1520  0.3690
45328W        W45528  12.374  11.941  13.617 -0.0687  0.0718 -0.0920
45329W        W45529  12.188  14.559   2.401 -0.1798 -0.1221 -0.0137
45330W        W45530   9.125   3.181   3.518  0.1797  0.0435 -0.0653
45331W        W45531  11.372  14.728   9.858 -0.1169 -0.0169 -0.0339
45332W        W45532   0.541   8.225  11.670 -0.1591  0.1414 -0.0251
45333W        W45533  16.038   9.932  15.177 -0.4636 -0.1170 -0.1268
45334W        W45534  14.717   2.731  12.092 -0.1919 -0.0576 -0.0038
45335W        W45535  16.673  10.751  10.999 -0.0613  0.0442  0.0047
45336W        W45536  12.505   8.607  14.734  0.5088  0.0049 -0.0503
45337W        W45537  12.998   8.597   0.676 -0.1284  0.2165 -0.0057
45338W        W45538   4.883  10.139  13.618  0.1448  0.1440  0.6243
45339W        W45539   1.276   8.316  14.399 -0.0032  0.1388 -0.3726
45340W        W45540  14.784   3.212  11.172  0.2385  0.0895  0.3286
45341W        W45541  18.060   2.033  16.018  0.0188 -0.3368  0.0202
45342W        W45542  15.257   3.289  13.691 -0.1125  0.1025 -0.1864
45343W        W45543  13.826  10.990  11.409 -0.0086 -0.0759 -0.0221
45344W        W45544  10.016  10.194  13.303 -0.2697  0.3154 -0.1261
45345W        W45545  14.687  12.831   5.614  0.2613 -0.0866 -0.0229
45346W        W45546   7.297  10.107  13.535  0.1386  0.2237 -0.0638
45347W        W45547  15.879  10.371   3.189 -0.0630 -0.1524  0.0513
45348W        W45548  13.859   9.509  16.375  0.2156 -0.2065 -0.0687
45349W        W45549   3.657   5.574   7.047  0.1978  0.0463  0.2531
45350W        W45550  17.107  12.142  14.122  0.2448 -0.0899  0.0957
45351W        W45551  15.895   0.208  17.523  0.1486 -0.0532 -0.0010
45352W        W45552   1.568   8.192  10.404  0.3073  0.0861 -0.2432
45353W        W45553  15.942   3.760  14.959  0.2271  0.0866  0.1090
45354W        W45554  14.435   1.004  16.442 -0.2105  0.0535 -0.0425
45355W        W45555   9.815  13.887   9.890  0.0129 -0.0852 -0.3199
45356W        W45556  13.388   4.962   8.072 -0.3375 -0.3758 -0.0220
45357W        W45557  11.609  10.075   6.181  0.1517  0.0882  0.0825
45358W        W45558   4.072   7.311   5.008 -0.1172  0.2137 -0.0803
45359W        W45559  12.673  11.158  17.289 -0.3091  0.0416  0.0164
45360W        W45560  16.471   8.232  12.621 -0.0910  0.0504  0.1462
45361W        W45561   2.440   8.303  11.924  0.1145  0.1415 -0.0787
45362W        W45562   5.188   2.229   9.903  0.2705  0.1596 -0.1249
45363W        W45563  15.098   5.287   2.758  0.0498  0.1190  0.1610
45364W        W45564   5.173   5.784  15.253 -0.0265  0.3486  0.0791
45365W        W45565   9.967   7.441   5.833 -0.3265 -0.1006 -0.1196
45366W        W45566  17.215  10.150   9.053  0.5129 -0.2554 -0.0524
45367W        W45567   3.016   9.209   9.175 -0.1944  0.0276  0.0773
45368W        W45568  16.265   8.380  13.099 -0.1036 -0.0938 -0.1212
45369W        W45569  11.991   5.833   9.974  0.2673  0.2365  0.0922
45370W        W45570  11.260  10.245  12.804 -0.0799  0.0275 -0.0520
45371W        W45571   4.233  11.150   1.708  0.2615 -0.0637 -0.0493
45372W        W45572  16.295  14.336  13.093 -0.0834 -0.1520  0.0514
45373W        W45573   4.282   8.091   7.195  0.0712 -0.0265  0.1274
45374W        W45574  17.297  13.887  16.167 -0.1266  0.1107 -0.0163
45375W        W45575  14.700   9.727   0.710 -0.0127  0.1238  0.0219
45376W        W45576  17.654   4.023   0.109  0.1549  0.2796 -0.1420
45377W        W45577   1.284   1.085  12.395  0.0474  0.1893 -0.2375
45378W        W45578  17.064  11.427   9.301 -0.0460  0.4605  0.0675
45379W        W45579  14.899  14.173  12.439 -0.0404 -0.1823  0.2705
45380W        W45580  12.975   6.505  13.063 -0.0023  0.2789 -0.1263
45381W        W45581   0.621   5.120   1.429  0.3233 -0.4207 -0.0052
45382W        W45582   8.977   0.957  12.748  0.3038  0.0877  0.0963
45383W        W45583   3.835   2.674   7.603 -0.0997  0.1500 -0.0407
45384W        W45584  15.239  16.377   0.507 -0.2509 -0.0346 -0.0124
45385W        W45585   3.876   9.497  15.382  0.4227  0.0367  0.1315
45386W        W45586  12.949  14.328  13.703 -0.1315  0.3052  0.0494
45387W        W45587   9.294  15.903   7.053 -0.1719  0.0538  0.4192
45388W        W45588  13.720   5.894  12.749 -0.1476  0.1834  0.0307
45389W        W45589  17.784   8.646  17.040  0.1121  0.0467  0.0686
45390W        W45590  10.034  10.882   2.615  0.1488 -0.1340 -0.4838
45391W        W45591   2.060  10.344   7.749  0.5033 -0.2532 -0.1568
45392W        W45592   8.651   7.319  10.716 -0.1793  0.2449 -0.1394
45393W        W45593  10.131   1.309  15.139  0.0615 -0.1119  0.2931
45394W        W45594  11.179  13.933  11.990 -0.2991 -0.3850  0.2884
45395W        W45595  14.541   5.904  10.536 -0.4241 -0.1686  0.2708
45396W        W45596  15.453   8.519   3.596  0.0170 -0.2213  0.1011
45397W        W45597   0.973   0.190  16.398  0.1846 -0.1844  0.1334
45398W        W45598  10.914  11.970   9.278 -0.0858 -0.0157  0.0536
45399W        W45599   7.792  12.476  13.783 -0.0822  0.1781 -0.1142
45400W        W45600  18.060   5.449  10.404  0.3481 -0.0281 -0.0013
45401W        W45601  15.610  10.328  16.119  0.0832  0.0535 -0.1852
45402W        W45602  13.548   8.920  15.711  0.2847 -0.1372 -0.2036
45403W        W45603   1.177   4.562   0.193  0.2302  0.1018  0.2833
45404W        W45604  15.960   3.316  12.883 -0.0463 -0.0414  0.1472
45405W        W45605   1.553   8.447   9.049  0.1199  0.1433 -0.0361
45406W        W45606   6.946   3.560  11.854  0.1077 -0.2980  0.2184
45407W        W45607  16.548   7.147  10.805  0.3415 -0.1675 -0.1354
45408W        W45608  12.003   9.668  16.779  0.2364  0.1229  0.1202
45409W        W45609  17.514   8.979  16.734 -0.0717  0.3319 -0.0813
45410W        W45610   2.360  11.777   8.629  0.3748  0.1283 -0.0684
45411W        W45611   0.121   7.520   1.286 -0.3891 -0.0777 -0.0728
45412W        W45612  15.883  10.799  16.277  0.0399  0.0399  0.1764
45413W        W45613  11.806   7.924  16.518 -0.1522  0.2437 -0.0542
45414W        W45614   9.659  10.546   9.277 -0.0530  0.0797  0.4755
45415W        W45615   9.812   5.098  17.764  0.0043 -0.1801  0.0690
45416W        W45616   0.741  16.408  17.310 -0.1567 -0.0912  0.4123
45417W        W45617  16.513   6.616  14.010 -0.1134 -0.0364 -0.1708
45418W        W45618  14.680   0.398   7.748  0.1439 -0.0332 -0.2071
45419W        W45619  16.334   4.455  13.517  0.1951  0.0569 -0.3320
45420W        W45620   0.577  10.501  17.691  0.0256  0.0868 -0.1943
45421W        W45621  12.131  10.428   5.227  0.0048 -0.2943 -0.1726
45422W        W45622   0.766  15.308   2.080 -0.0311 -0.0171  0.0914
45423W        W45623  17.574   1.525  15.719 -0.0467 -0.0300  0.0263
45424W        W45624  14.460   9.581  17.536  0.2491  0.2101  0.1195
45425W        W45625   0.017   5.677   3.876 -0.2701 -0.1655  0.1376
45426W        W45626  12.743   9.189  11.866 -0.1510  0.0662  0.0805
45427W        W45627  11.661   4.523   3.819  0.2419  0.3867  0.0160
45428W        W45628   5.252   2.710   6.520 -0.3589  0.0418  0.0770
45429W        W45629  15.463  13.569  16.418 -0.1269 -0.2182 -0.0300
45430W        W45630  10.153  16.510   1.044  0.1851  0.0661 -0.1387
45431W        W45631  11.837   2.751   8.559  0.3062 -0.1349  0.2141
45432W        W45632  16.640   5.153  15.323 -0.0579 -0.1911  0.0254
45433W        W45633   1.864   0.350  12.072 -0.4381  0.3319  0.0078
45434W        W45634  11.940  13.529  12.193  0.0536  0.3977  0.1769
45435W        W45635   4.309  10.006   8.205 -0.1790 -0.4349  0.0230
45436W        W45636  13.330  10.170  16.951 -0.0431  0.1600  0.0716
45437W        W45637  13.336  11.158   8.475 -0.1028 -0.2136 -0.2386
45438W        W45638   6.706   5.026  13.439 -0.0335  0.0597 -0.0563
45439W        W45639  15.899   2.869   8.250  0.3059  0.1378  0.3897
45440W        W45640   5.228  12.572  10.709  0.1576  0.3012 -0.0665
45441W        W45641   2.396   5.889  16.962 -0.1670  0.2663 -0.1182
45442W        W45642  17.791   6.111  13.994  0.0535 -0.0646  0.0419
45443W        W45643  14.583  11.656   9.322 -0.0789 -0.0483 -0.0560
45444W        W45644  17.523   7.288  11.950  0.1110 -0.1295  0.0241
45445W        W45645  14.332   4.685  14.433  0.0155 -0.1451  0.0365
45446W        W45646   4.790  11.259   9.600  0.5329 -0.1688 -0.0052
45447W        W45647   7.423  14.013  11.745  0.2026  0.1614 -0.2818
45448W        W45648   8.068  14.338  10.056 -0.1372  0.0129  0.0073
45449W        W45649   5.186   1.266   8.868 -0.2686 -0.0945 -0.2445
45450W        W45650  18.063  13.322   6.210 -0.1524  0.1484  0.1001
45451W        W45651  10.016   6.931  12.112  0.0753 -0.0213  0.4025
45452W        W45652  11.235  11.002  17.139 -0.0656  0.2927  0.0397
45453W        W45653   8.367   1.990  15.891  0.0047 -0.2440 -0.2930
45454W        W45654  15.896  14.659   4.393  0.1038 -0.1610 -0.1469
45455W        W45655   4.995  13.070  14.595  0.2200  0.0357  0.0202
45456W        W45656  15.793   6.594  13.520  0.0432 -0.2938 -0.2451
45457W        W45657  16.874   7.028   5.335 -0.0493  0.0671  0.0931
45458W        W45658  17.723  11.825  10.718 -0.0249 -0.1074 -0.3994
45459W        W45659  15.242   9.486  15.088 -0.0156  0.2325  0.1444
45460W        W45660  16.523   7.018   1.428 -0.2323  0.1059  0.1622
45461W        W45661  13.552   7.371   5.942 -0.0396  0.3921 -0.1591
45462W        W45662  12.537  13.002  14.989  0.2275  0.0728  0.0418
45463W        W45663  16.637  12.506  17.150  0.1464 -0.0824  0.0421
45464W        W45664  12.662  10.803  15.838 -0.1480  0.0133  0.0622
45465W        W45665  16.746  11.598  16.665  0.0558 -0.1127  0.1126
45466W        W45666  17.543   4.689  15.274 -0.0109 -0.0010  0.0532
45467W        W45667   0.887   9.716  16.793 -0.1090 -0.1857  0.1741
45468W        W45668   0.195  12.284  16.541  0.3068 -0.2713 -0.2463
45469W        W45669  16.278   7.738  12.828  0.1999 -0.1165  0.1203
45470W        W45670   8.788   7.914   5.550  0.1294 -0.0913  0.1066
45471W        W45671  16.818   7.743  14.693 -0.1728 -0.0606  0.1430
45472W        W45672   4.097   5.102   5.412 -0.0091  0.2635 -0.1127
45473W        W45673   0.824   5.115  11.862  0.2818  0.1227  0.1740
45474W        W45674   1.560   3.032   7.779  0.0918  0.0878 -0.2097
45475W        W45675   7.952   9.905  16.262 -0.0355 -0.3912  0.1842
45476W        W45676   0.176   6.050  13.290  0.3206  0.0743  0.0239
45477W        W45677  16.152   9.683   6.146 -0.1233  0.0975 -0.0489
45478W        W45678   0.424  15.669  10.240 -0.2335 -0.2364 -0.0260
45479W        W45679   2.584   8.476   8.724  0.0785 -0.0080 -0.0799
45480W        W45680  15.137   0.050  13.121 -0.1129  0.2493  0.1586
45481W        W45681  15.752   9.328   6.026 -0.0732  0.0694 -0.0572
45482W        W45682  11.205  12.118  17.015 -0.0861 -0.1648  0.0946
45483W        W45683   0.255  11.339  16.261 -0.1522  0.1233 -0.1272
45484W        W45684   7.271   6.742   4.998  0.1612 -0.1771  0.0156
45485W        W45685  12.973  15.094  10.753 -0.0619 -0.0065 -0.3266
45486W        W45686  15.404  10.855  16.055  0.1434  0.0914 -0.2219
45487W        W45687   1.476  11.797  14.073  0.0621 -0.1092 -0.2551
45488W        W45688   6.778   4.448  11.354  0.2300  0.0733  0.1271
45489W        W45689  11.567   4.860  17.865  0.1309 -0.2231  0.1157
45490W        W45690   5.361   0.613   3.487  0.1216  0.0404  0.0149
45491W        W45691  15.980   5.125  12.882  0.1655  0.2330  0.3495
45492W        W45692  14.303   4.305   5.670 -0.1535 -0.1155  0.2490
45493W        W45693  11.758   4.902  13.737 -0.2013 -0.0787  0.2094
45494W        W45694   1.922  17.524  14.057 -0.1132  0.2042  0.1171
45495W        W45695   4.087   1.060  15.412  0.0067  0.2686 -0.2289
45496W        W45696   4.620   5.647   7.067  0.1583  0.1063  0.3192
45497W        W45697   9.129   9.951   0.082  0.3195 -0.1700 -0.1867
45498W        W45698  10.311  13.302  11.082  0.0830 -0.0413 -0.2045
45499W        W45699   8.341   7.896   8.783  0.0500  0.0758 -0.1046
45500W        W45700  11.822   7.726  13.437  0.2578  0.4023  0.0908
45501W        W45701   5.354   5.887  12.529  0.1229 -0.0877 -0.0209
45502W        W45702   6.884  13.702   0.296  0.1493 -0.0537  0.1566
45503W        W45703  15.255   5.128   0.731  0.2242  0.2306 -0.2236
45504W        W45704  17.094  15.143   9.210 -0.4069  0.0448 -0.0875
45505W        W45705  18.136   5.950   0.165 -0.1252 -0.2569  0.1076
45506W        W45706   6.468  15.191   9.676  0.0952  0.0145 -0.0750
45507W        W45707   1.584   8.014   2.010 -0.0079  0.0974  0.0059
45508W        W45708   0.918  12.010   4.560  0.1659 -0.2476  0.0431
45509W        W45709  10.749   7.492   0.244  0.0320 -0.1163  0.0787
45510W        W45710   0.521   4.505  14.396 -0.1043 -0.1416  0.0650
45511W        W45711  12.730   9.719   6.457  0.2766 -0.2511  0.3407
45512W        W45712   0.917  12.959  11.464 -0.2161 -0.0691  0.0635
45513W        W45713  11.969   3.804  10.353  0.0124 -0.4417 -0.1482
45514W        W45714  16.224  10.743   2.266  0.1568 -0.3306  0.2087
45515W        W45715  13.103  11.225  14.961  0.0492  0.0079  0.0784
45516W        W45716  10.592   5.640  13.474  0.0799 -0.1580  0.3239
45517W        W45717  13.776  10.296  16.255  0.1064 -0.1204 -0.3784
45518W        W45718   2.659  14.756   7.459 -0.0046 -0.2887  0.4480
45519W        W45719   1.847  10.273   6.784 -0.0334 -0.0605  0.3033
45520W        W45720   0.775   2.604  12.779  0.0987 -0.1352 -0.0736
45521W        W45721   1.246  15.991  12.872  0.2538 -0.0026  0.1523
45522W        W45722   4.397   9.877  11.187 -0.2131 -0.0410 -0.1288
45523W        W45723  18.065  15.231   2.838 -0.1771 -0.2296  0.0114
45524W        W45724  16.835  14.283  10.894 -0.2530  0.1552  0.0790
45525W        W45725  12.685   8.628  11.069 -0.2080  0.2314 -0.1120
45526W        W45726  16.919   5.125  10.421  0.1326 -0.0714 -0.0860
45527W        W45727  12.597   7.127   5.643  0.1524 -0.3701 -0.1659
45528W        W45728   0.698   9.240   5.658  0.2259 -0.0389  0.5259
45529W        W45729   0.623  13.417  16.719 -0.0672 -0.0069  0.1197
45530W        W45730   1.753   4.113   4.614 -0.1398  0.1028  0.0810
45531W        W45731  13.539   6.709   8.777  0.0039 -0.1919 -0.0437
45532W        W45732  16.914  11.428   3.109  0.0206 -0.1665 -0.1597
45533W        W45733   1.509   7.219   3.127 -0.2176 -0.1479 -0.1538
45534W        W45734   2.839  10.553  11.005  0.0464  0.1914 -0.2263
45535W        W45735  13.117   7.782  17.726  0.0085  0.1206 -0.0351
45536W        W45736  14.997   2.835   9.401 -0.2153 -0.0387  0.0306
45537W        W45737  18.091  18.095  10.656 -0.3077 -0.1863 -0.1528
45538W        W45738  15.622   9.150   2.750 -0.2374  0.1751  0.0342
45539W        W45739   9.617  11.471   0.498 -0.0115  0.0948 -0.1138
45540W        W45740  16.214   6.539   6.338 -0.2322 -0.1375  0.1123
45541W        W45741   4.261   5.539   8.437  0.1416 -0.1188  0.1021
45542W        W45742  13.090   1.602  12.306 -0.1772 -0.1729  0.3116
45543W        W45743   2.121   8.535   9.685  0.0861 -0.0028 -0.1546
45544W        W45744  14.894   6.968   9.727 -0.2043  0.1160  0.0480
45545W        W45745  13.579   7.887  13.048  0.2967 -0.3539 -0.0316
45546W        W45746   0.058   4.868  10.311  0.3412 -0.0597  0.0879
45547W        W45747   0.084  11.273   9.438  0.0038  0.0936  0.2988
45548W        W45748   6.165   0.103  17.077 -0.1800  0.0926 -0.0734
45549W        W45749  15.435   6.593   4.638  0.2763 -0.1663  0.1087
45550W        W45750   0.279   6.951  10.666  0.0047 -0.1603  0.0318
45551W        W45751   0.102  10.523  13.065  0.1271  0.0944  0.1693
45552W        W45752  15.616  16.999  14.945  0.0956 -0.0076  0.0762
45553W        W45753  12.659  17.385  14.789 -0.0340 -0.1325  0.2807
45554W        W45754   0.071   6.375  18.037 -0.1000 -0.0637 -0.1681
45555W        W45755  16.898  10.938   9.406 -0.0933  0.0555  0.1087
45556W        W45756   4.885   5.501  11.342 -0.3498  0.2033 -0.2670
45557W        W45757   8.442  13.422   8.270  0.1872  0.1280 -0.2563
45558W        W45758  16.134  11.303  13.169 -0.0300 -0.0699 -0.0994
45559W        W45759   2.474  16.416   8.903  0.2078 -0.1096 -0.1652
45560W        W45760  16.785   7.771  17.926  0.3294  0.0590  0.1213
45561W        W45761   0.248   4.437   6.142  0.0004  0.1055 -0.3047
45562W        W45762   0.235  18.124  15.068  0.0153  0.0982 -0.0396
45563W        W45763  17.129  10.764  11.786 -0.1059 -0.0535 -0.1435
45564W        W45764   2.198   8.850   0.045  0.1770 -0.0305  0.1135
45565W        W45765   3.169   4.469  17.433 -0.0247 -0.4183  0.0053
45566W        W45766  17.217  10.750  11.251 -0.0459 -0.1637 -0.0498
45567W        W45767   2.398   3.645   0.840  0.1475 -0.1590 -0.1036
45568W        W45768   2.564   5.320  17.859  0.1014 -0.0980  0.2979
45569W        W45769  17.355   8.819  17.322  0.1305 -0.1074  0.1067
45570W        W45770  17.958   9.730  11.624 -0.2060  0.2417  0.0725
45571W        W45771   4.519   1.735   0.617 -0.0184  0.0328 -0.0044
45572W        W45772   2.559   8.549  11.516 -0.0408  0.2535 -0.0330
45573W        W45773  17.662  10.910  16.598 -0.1961 -0.1263 -0.0381
45574W        W45774  15.261   8.149  15.237  0.0676  0.2090 -0.0399
45575W        W45775  12.155   5.922  12.228  0.4879  0.1599 -0.0120
45576W        W45776   1.556   1.381   1.357 -0.0327 -0.1984 -0.0340
45577W        W45777   0.725   6.115  15.665 -0.1892  0.0989 -0.1445
45578W        W45778  17.375   1.302   6.150 -0.0546  0.1583  0.1656
45579W        W45779  10.799   7.818   9.293  0.2158 -0.2252  0.4854
45580W        W45780  17.035   1.588  12.060  0.0937  0.1186  0.0467
45581W        W45781  12.789   1.479  16.081 -0.0958  0.0646 -0.1604
45582W        W45782  13.985   5.938   7.894  0.1417  0.0423  0.4071
45583W        W45783  10.500   4.660  10.459  0.1437  0.0027  0.0410
45584W        W45784  17.643  18.001  15.193 -0.0415 -0.0344  0.0127
45585W        W45785  17.959   8.140  11.991 -0.1356  0.3898 -0.1926
45586W        W45786  15.690   7.941   6.041 -0.2582  0.0660  0.0188
45587W        W45787   0.864   9.958  13.574 -0.1212 -0.2481 -0.1963
45588W        W45788  10.460   9.137  15.386 -0.1172  0.1403  0.3718
45589W        W45789  17.616  12.324   1.068 -0.0294  0.1694 -0.1336
45590W        W45790  15.700  14.611   2.216 -0.2501 -0.0313  0.0587
45591W        W45791  13.239  11.342  12.527  0.2871  0.3067  0.0524
45592W        W45792  11.076   5.784  15.861  0.0554 -0.1220  0.1476
45593W        W45793   8.067   8.027  11.850 -0.1204  0.2186 -0.2025
45594W        W45794  11.064   6.187  17.524 -0.1953 -0.0948  0.1211
45595W        W45795   7.029  11.129   1.688  0.0887  0.0265  0.1157
45596W        W45796  18.104   2.953   1.756 -0.0738 -0.2007 -0.1339
45597W        W45797  15.556  16.658  18.182  0.0990 -0.1116 -0.1494
45598W        W45798   8.188  10.718   1.111 -0.1029  0.1987  0.2103
45599W        W45799  13.777   8.016   3.890 -0.0815  0.1543  0.0275
45600W        W45800   3.880   8.387   7.043  0.0946  0.0241 -0.0018
45601W        W45801  10.666   7.954   0.074  0.1791  0.0549  0.0010
45602W        W45802  14.977   8.755  15.629 -0.0469  0.0824 -0.2054
45603W        W45803   2.590  10.839  16.862  0.1818  0.1079  0.0695
45604W        W45804  12.167  11.820  12.708 -0.1761  0.1653  0.1348
45605W        W45805   2.334   6.569   7.885  0.1977  0.2350 -0.2491
45606W        W45806  16.856  11.654   0.410  0.0137 -0.2592  0.2591
45607W        W45807   4.531   1.116   2.497  0.1726  0.1488  0.2250
45608W        W45808  16.001   1.403   2.158 -0.1007  0.1851  0.0509
45609W        W45809  16.531   6.001   2.856 -0.1393  0.1070  0.0796
45610W        W45810   3.752  10.861  16.174  0.1130 -0.2430  0.2768
45611W        W45811  13.361   5.940  15.270 -0.0310 -0.0066 -0.0209
45612W        W45812  17.422  13.918   6.645 -0.0681  0.3492 -0.1358
45613W        W45813  11.548   7.619   0.325 -0.2468  0.0285  0.0263
45614W        W45814  17.090   6.679  13.106 -0.0421 -0.2430 -0.1729
45615W        W45815  15.889   7.719  16.767 -0.1269  0.1655  0.2780
45616W        W45816   0.987   0.479  13.164  0.3376 -0.3512  0.0789
45617W        W45817  18.077   7.037   1.143  0.0092 -0.1037  0.0010
45618W        W45818  14.463   3.043  17.072 -0.1939 -0.1236 -0.0292
45619W        W45819  14.527  11.963   3.948 -0.0280 -0.0294  0.2939
45620W        W45820   9.145  10.527   4.433 -0.0852  0.1675 -0.0370
45621W        W45821   8.673   5.339  13.368  0.0444  0.1194  0.2108
45622W        W45822  16.945  10.213   8.532 -0.1078 -0.1012  0.0179
45623W        W45823  17.032  10.783   1.783  0.2294  0.1205  0.0359
45624W        W45824   6.923   8.107  16.967  0.0054  0.0078 -0.2810
45625W        W45825   7.180   8.727  16.124  0.2319  0.2362 -0.0345
45626W        W45826  13.500   7.306  11.286 -0.1257  0.0609 -0.1339
45627W        W45827   4.382  17.269  16.571 -0.4598  0.0074 -0.0303
45628W        W45828  17.046  12.379  11.157  0.1950  0.0277  0.0937
45629W        W45829   5.360   8.585   3.004 -0.2210  0.3650 -0.2042
45630W        W45830  16.605  11.494  12.797 -0.1458  0.5478 -0.0343
45631W        W45831  16.064   1.399   0.418  0.1312 -0.1022  0.1266
45632W        W45832  13.461   0.904  16.136 -0.0270 -0.2470  0.2046
45633W        W45833   6.356   2.627   4.035  0.3048  0.4924 -0.3774
45634W        W45834  15.157  10.584  14.489 -0.0523  0.1699  0.1358
45635W        W45835   5.083   8.389  12.034 -0.0048  0.0481  0.0547
45636W        W45836  14.683   2.661   0.463 -0.2787  0.0167 -0.0366
45637W        W45837  12.564  13.778  14.504  0.3486 -0.4455  0.2924
45638W        W45838  12.161  12.736  11.024  0.1656  0.0761  0.1613
45639W        W45839  14.612   6.640  18.150 -0.1862 -0.2794  0.0764
45640W        W45840   0.540  11.451   1.417 -0.0309 -0.1543  0.1435
45641W        W45841  12.224  16.205  15.244 -0.2982  0.0812  0.4083
45642W        W45842  17.216  17.556   8.352  0.2117  0.0642  0.0551
45643W        W45843   2.430   6.706   3.756 -0.1178  0.2033 -0.0785
45644W        W45844  13.742   2.625  15.721  0.0858 -0.4220  0.0870
45645W        W45845  15.852   5.738   4.384  0.2080 -0.1939  0.1620
45646W        W45846  15.918   8.157   2.807 -0.0262 -0.0825  0.3332
45647W        W45847  16.602  11.045   4.102 -0.1601  0.0098 -0.2153
45648W        W45848   4.780  12.262  11.644 -0.1995 -0.3425 -0.0606
45649W        W45849  13.726  12.817  14.008  0.0753  0.1852 -0.2037
45650W        W45850  16.108  10.394  15.432  0.3179 -0.0345 -0.1248
45651W        W45851   5.020  17.113  17.420 -0.1212 -0.0109  0.3005
45652W        W45852   4.354  15.545  15.989  0.2157 -0.0441  0.0387
45653W        W45853  15.872  12.048  13.318 -0.0734 -0.1885 -0.0720
45654W        W45854   4.662   4.905  16.728 -0.1202  0.0171 -0.0026
45655W        W45855  17.300   4.070  17.308  0.0974  0.0902  0.2786
45656W        W45856   6.390   4.530  17.925  0.0644 -0.0417  0.3058
45657W        W45857   2.284  14.128  18.082  0.0656  0.2798  0.0782
45658W        W45858   8.844   0.539  12.047  0.0593  0.0309  0.2301
45659W        W45859  18.051  12.399  14.681 -0.1403 -0.1074  0.2962
45660W        W45860   8.967   6.056  16.182  0.1831 -0.2805 -0.0971
45661W        W45861  16.249   6.616   9.976  0.2122 -0.1971  0.0128
45662W        W45862  14.607  14.407   1.661 -0.2490  0.1183  0.1257
45663W        W45863  17.950   9.718   5.102  0.0898  0.2327 -0.0703
45664W        W45864  17.816   0.335   0.145  0.2553  0.0262  0.1268
45665W        W45865  17.467   7.896   1.280  0.0981 -0.0910  0.2517
45666W        W45866  13.088   0.153  17.042 -0.1971  0.2378  0.1078
45667W        W45867  16.925   7.575  11.367 -0.0443 -0.1407  0.4240
45668W        W45868   5.081  12.860   0.855 -0.0089  0.1853  0.1181
45669W        W45869  15.720   1.205   3.485 -0.0862 -0.0202  0.2792
45670W        W45870  13.031   6.448   8.962 -0.3941 -0.1826  0.2300
45671W        W45871  16.670   8.210   6.888  0.0248  0.3016 -0.1797
45672W        W45872  18.068   6.918  13.387 -0.0399  0.0569  0.3516
45673W        W45873   1.258  16.125  13.347 -0.3501 -0.0310  0.3383
45674W        W45874  11.107  11.443  16.906 -0.2034 -0.1287  0.0203
45675W        W45875  17.109   8.428  15.524  0.0854  0.0987  0.0339
45676W        W45876  16.650  15.510   7.648 -0.0819  0.1631  0.3050
45677W        W45877  12.820   0.342   3.353  0.0891 -0.3239  0.1140
45678W        W45878   2.082   5.305  10.080  0.0496  0.0375 -0.1527
45679W        W45879   6.496   5.011  16.952  0.0364  0.1761 -0.3071
45680W        W45880  10.927  13.101  13.741 -0.0721  0.1184  0.1299
45681W        W45881   1.405  17.147  15.217  0.4170  0.1981  0.2983
45682W        W45882  14.595   4.011   0.695 -0.0576 -0.0596 -0.2333
45683W        W45883  17.355   9.236  11.425 -0.0682 -0.0465 -0.0438
45684W        W45884  11.407   8.872  14.458  0.3251 -0.0432  0.3517
45685W        W45885   7.106   5.864  17.395 -0.0646  0.1454 -0.0973
45686W        W45886   1.036  16.694   2.507 -0.2026 -0.0564 -0.0697
45687W        W45887   1.383   3.551  11.175  0.2884 -0.1170  0.1828
45688W        W45888  14.156   5.480  14.064  0.2260  0.0653  0.0676
45689W        W45889   3.093   2.568  11.033  0.2419 -0.0291  0.4994
45690W        W45890  15.320  13.460  14.921  0.3189 -0.0401  0.1343
45691W        W45891   0.902   8.574  16.151 -0.0624  0.0538 -0.1033
45692W        W45892  11.669  14.197   8.195  0.1639  0.1010 -0.0375
45693W        W45893   9.160   8.918   5.683  0.2746  0.1356  0.1836
45694W        W45894   1.036   7.296   3.045  0.2004 -0.0046 -0.1351
45695W        W45895  14.704   7.846   3.978 -0.0529 -0.3339 -0.2491
45696W        W45896  13.154   4.170  12.742 -0.0169  0.2611  0.0200
45697W        W45897   9.517   3.046  10.673  0.2966  0.1075 -0.0831
45698W        W45898   6.158  11.831   2.969 -0.0255 -0.1895  0.1400
45699W        W45899  16.628   4.606  17.841 -0.2581  0.1718  0.2446
45700W        W45900   8.527   2.901   0.669 -0.1859 -0.2850 -0.1376
45701W        W45901  14.343   8.812  13.856  0.0675  0.1738  0.5405
45702W        W45902   0.432   6.395  14.726 -0.4975  0.1543 -0.1683
45703W        W45903  16.856   9.448  16.211 -0.0257 -0.0004 -0.1840
45704W        W45904   8.937  16.791  17.123 -0.2444 -0.0480 -0.1365
45705W        W45905   2.483   0.209   3.507  0.0429 -0.0080  0.1893
45706W        W45906  13.447  10.167   4.470 -0.0674 -0.4153 -0.0344
45707W        W45907  10.497  12.996  13.504  0.1342  0.0587 -0.2801
45708W        W45908  15.549   4.771  14.008  0.1463  0.0851  0.2208
45709W        W45909  17.068   6.324   2.666 -0.2089 -0.2942 -0.2158
45710W        W45910  15.726  12.702  16.718  0.2304  0.0625  0.1681
45711W        W45911   4.192   8.483   3.562 -0.3259 -0.0002  0.1691
45712W        W45912  14.450   6.645   9.544 -0.2787  0.2200 -0.0040
45713W        W45913  15.131   3.583  14.119 -0.1515  0.0466  0.3544
45714W        W45914  18.120   6.702  16.889  0.2227  0.0980 -0.1243
45715W        W45915   0.631   9.989   2.209 -0.1177 -0.3642 -0.3600
45716W        W45916   7.063  16.126   1.873  0.1548 -0.2070 -0.0794
45717W        W45917   1.049   6.569   5.046  0.0317 -0.3111  0.2055
45718W        W45918   3.959   8.477   2.101 -0.1207  0.1995  0.0560
45719W        W45919  12.480   3.370   3.170 -0.1044  0.1233  0.1974
45720W        W45920   6.721   7.637  16.801 -0.2081  0.1759  0.0679
45721W        W45921   8.595   9.829  12.965 -0.4495  0.0608 -0.2156
45722W        W45922  12.240   0.775  11.525  0.0452 -0.1271  0.3557
45723W        W45923   9.026  12.660   2.595 -0.1123 -0.0593  0.0342
45724W        W45924   2.127  11.510  15.989 -0.3226  0.0027 -0.1830
45725W        W45925   0.122  12.511  15.089 -0.0638  0.1319  0.4317
45726W        W45926  16.812  11.108  12.016 -0.2334  0.1648 -0.0951
45727W        W45927  16.636   4.909  16.987  0.1304  0.1106  0.0413
45728W        W45928  13.040   4.842   5.558  0.0391  0.0982 -0.0624
45729W        W45929   1.526  17.302  16.877  0.2569 -0.2314  0.1418
45730W        W45930  16.827  10.020   9.774  0.0749  0.2954 -0.3910
45731W        W45931  17.090  14.715   5.323 -0.0615  0.0465  0.1177
45732W        W45932   3.672   7.310   3.579 -0.0925 -0.1086  0.1984
45733W        W45933   4.402  11.298   6.871  0.0322  0.0752 -0.2685
45734W        W45934   3.385   6.141   2.165 -0.1152  0.1331  0.0764
45735W        W45935  16.010  12.123   3.775  0.2783 -0.2109  0.0057
45736W        W45936  16.990   3.340  14.722  0.0388 -0.2802  0.1283
45737W        W45937   8.360  11.307   1.116 -0.1538 -0.0362  0.0284
45738W        W45938   0.596   4.801  13.718 -0.0701 -0.0868  0.2858
45739W        W45939  16.831   3.640  10.025  0.1451 -0.1209 -0.0182
45740W        W45940  13.123   9.889  14.812  0.1756  0.2544 -0.1460
45741W        W45941  14.602  12.536  12.351  0.0746 -0.1957  0.2803
45742W        W45942  13.491   9.006  11.489  0.0101 -0.1460  0.2101
45743W        W45943  13.891   8.748   1.270 -0.2048 -0.3259 -0.5528
45744W        W45944   4.486   7.431   1.167  0.1753  0.3140  0.0837
45745W        W45945  14.747  12.179   9.369  0.1545 -0.0546  0.6061
45746W        W45946   0.792  11.358   9.418 -0.0231 -0.3144  0.2407
45747W        W45947  12.297   4.458  16.159  0.1277 -0.1398 -0.1956
45748W        W45948  14.203   5.341  16.064  0.1484 -0.4549 -0.2883
45749W        W45949  13.200  14.653   0.388 -0.0835  0.0819 -0.0400
45750W        W45950   2.003   6.997  18.060  0.0623 -0.0468  0.0341
45751W        W45951   4.214   3.403   1.736  0.1933 -0.0001 -0.0101
45752W        W45952  11.325   7.731   1.262 -0.2384  0.0520 -0.1419
45753W        W45953  17.915   2.857  15.859 -0.0550 -0.2682  0.1966
45754W        W45954   9.311  16.174   1.344  0.2128  0.3575  0.0450
45755W        W45955   0.988   4.598  17.432  0.1589 -0.0952  0.1478
45756W        W45956  13.100  15.014  15.583 -0.0366  0.2617 -0.0894
45757W        W45957   1.534   7.885   3.242 -0.0623  0.0375 -0.1550
45758W        W45958   0.960   9.100   0.541 -0.1677 -0.0577 -0.2169
45759W        W45959   1.674   8.430   1.131  0.4518  0.0327 -0.0805
45760W        W45960  13.789   4.224   0.370  0.0252  0.0060  0.0182
45761W        W45961   1.486   8.356   1.632  0.0946  0.3930  0.0150
45762W        W45962   9.940  10.858  13.359 -0.1588  0.2544 -0.2734
45763W        W45963  15.323   4.856  17.229  0.1722  0.1938  0.3001
45764W        W45964  16.671  16.285  15.834  0.1069 -0.0385 -0.0593
45765W        W45965   7.968  12.093  14.267 -0.2650 -0.1230  0.3724
45766W        W45966  11.487  15.185   0.608 -0.1470 -0.1611  0.1720
45767W        W45967   5.046  13.210  10.178  0.1993 -0.0390  0.0810
45768W        W45968  11.931   7.220  15.152  0.4045  0.1937 -0.1679
45769W        W45969   8.917  11.988  13.037  0.2485 -0.0104  0.3950
45770W        W45970   2.304   5.989   7.742 -0.0664  0.0531 -0.3191
45771W        W45971  17.501   9.074  13.899  0.2940 -0.0673 -0.1509
45772W        W45972   3.977  15.241   0.743 -0.0781  0.3461 -0.1117
45773W        W45973   1.359  10.124  17.657  0.0365  0.2107 -0.0855
45774W        W45974  16.483  17.225   8.854  0.2202 -0.1205 -0.0324
45775W        W45975   0.927   3.151  15.488  0.0571  0.1077 -0.1678
45776W        W45976  17.490  14.110  18.005  0.1722  0.3903  0.1931
45777W        W45977   1.872   3.519  15.796  0.2237 -0.1101 -0.1975
45778W        W45978  10.864  15.714   1.281  0.2149 -0.0281 -0.4330
45779W        W45979  16.978  12.313   1.315  0.0805 -0.2323  0.0516
45780W        W45980  10.666   7.307   1.187 -0.3335 -0.2264 -0.0514
45781W        W45981   3.543   8.302   0.016 -0.1790  0.1522 -0.1821
45782W        W45982  17.140   3.137   3.980 -0.0574 -0.2667  0.0690
45783W        W45983  12.603  12.163  16.013 -0.0226  0.1777 -0.1577
45784W        W45984   0.894   2.845  11.448  0.1103  0.1027 -0.3643
45785W        W45985  11.250  10.511  11.834  0.0335 -0.3441 -0.1092
45786W        W45986  15.189   0.399   2.210  0.1158 -0.1964  0.0538
45787W        W45987  13.056   7.139   3.243 -0.3080 -0.1119 -0.1984
45788W        W45988   2.413   5.573   0.849  0.0797  0.4525  0.1331
45789W        W45989  12.920  10.191  11.077 -0.3044 -0.1049 -0.0445
45790W        W45990  13.439   1.295  12.979 -0.1822  0.2639  0.0030
45791W        W45991  11.936  14.437   3.494 -0.1748 -0.1170 -0.0863
45792W        W45992  11.569   9.634   9.920  0.2656 -0.3194 -0.2395
45793W        W45993  12.270  15.372   0.011 -0.1201 -0.0860  0.1768
45794W        W45994  16.713   9.228  17.582  0.2228 -0.3873 -0.0775
45795W        W45995  13.794   9.297  13.107  0.2803  0.0835  0.1538
45796W        W45996   5.247   4.819   2.662  0.1058 -0.2686 -0.0748
45797W        W45997  14.317  11.411   1.503 -0.0972  0.1032  0.1360
45798W        W45998   9.431  11.055   4.526  0.0422 -0.3191 -0.3057
45799W        W45999   8.635   8.356  13.625 -0.2515  0.0319  0.2696
45800W        W46000  11.025   9.613   6.524  0.1741 -0.0946  0.0604
45801W        W46001  15.874   5.143   2.443  0.0463 -0.1525  0.0833
45802W        W46002   7.159   8.719  14.913  0.0910 -0.0381  0.2052
45803W        W46003  17.113   1.269  13.521  0.2697 -0.1988  0.2101
45804W        W46004   6.421   6.061  15.592  0.3117 -0.4212 -0.1487
45805W        W46005  11.978   2.680  14.814  0.2324  0.0695 -0.1293
45806W        W46006  17.627   7.466   2.162  0.1322 -0.0081 -0.1144
45807W        W46007  17.974  17.016  12.332 -0.1471  0.1506 -0.0204
45808W        W46008   7.926   7.497   3.020  0.0548 -0.1793  0.2051
45809W        W46009  14.424  12.542   3.541 -0.1041  0.0656  0.0104
45810W        W46010  10.367   8.945   8.639  0.1187 -0.2840 -0.3001
45811W        W46011  13.809  14.874  11.614  0.1308  0.0090  0.0114
45812W        W46012   2.430   0.837  16.347 -0.3453 -0.1541  0.1715
45813W        W46013  15.300   7.019   0.355  0.1782 -0.0743  0.3143
45814W        W46014   2.803  15.060  15.213  0.0117 -0.1276 -0.2313
45815W        W46015   3.337  10.690   4.277 -0.2586  0.5712 -0.0498
45816W        W46016  10.731  14.281   4.232  0.0556  0.2398  0.0577
45817W        W46017   1.327  17.460  15.960 -0.1101  0.0149  0.1961
45818W        W46018  12.511   7.426  12.539 -0.0128  0.1178 -0.2330
45819W        W46019  11.566  11.786  16.865  0.0266 -0.1136 -0.0555
45820W        W46020   3.792   6.812   8.057  0.2524  0.1571  0.3998
45821W        W46021  13.564   8.937   0.270 -0.0234  0.0186  0.0336
45822W        W46022  17.082  16.004   0.300 -0.1198 -0.0596  0.2345
45823W        W46023  17.744   4.267  14.759 -0.0138  0.0605  0.3378
45824W        W46024  14.787  11.573   1.328 -0.2392 -0.1653 -0.1896
45825W        W46025  13.031  10.997   9.293 -0.2673  0.2802 -0.0523
45826W        W46026   1.965  14.096   5.472  0.0919 -0.0529 -0.1483
45827W        W46027   8.281  12.325  17.987 -0.2136 -0.1315 -0.0865
45828W        W46028   0.313   7.621   4.133 -0.2605  0.1919 -0.2608
45829W        W46029  15.424   7.830  14.635  0.0577  0.3654  0.0595
45830W        W46030   0.943  11.086  10.621 -0.1980 -0.2955 -0.1609
45831W        W46031  16.759   6.008  13.129 -0.0018  0.2378  0.3549
45832W        W46032  17.044   6.660   2.221 -0.1291 -0.1820  0.3832
45833W        W46033   2.530  14.493  13.617  0.4401 -0.0389 -0.0492
45834W        W46034  13.896   6.860  11.551 -0.4473  0.0548  0.0578
45835W        W46035  17.435   3.575  17.429  0.0326 -0.0676  0.0594
45836W        W46036  13.253  13.913   3.427  0.2024  0.1778  0.0016
45837W        W46037   5.946   0.405   0.709 -0.0530 -0.0675 -0.1267
45838W        W46038   0.313   8.406   6.869 -0.1815  0.0355 -0.0491
45839W        W46039  16.103   9.691  17.828  0.2683  0.1149  0.0741
45840W        W46040   8.468  16.958  18.027 -0.1396  0.0801 -0.1135
45841W        W46041   7.807  11.566  15.460 -0.2638  0.1562  0.1020
45842W        W46042   8.345  11.771  10.338  0.0409  0.0927  0.3641
45843W        W46043  12.306  13.118   4.764  0.0438 -0.2376 -0.0699
45844W        W46044  12.670   2.873  10.298 -0.0323  0.2286 -0.0873
45845W        W46045  15.674  13.436  12.185 -0.2567  0.1603 -0.1137
45846W        W46046   1.107   4.092  11.673 -0.1739  0.1903  0.4726
45847W        W46047   0.381   9.770   7.105 -0.0435  0.2173  0.0542
45848W        W46048   0.091  13.325  13.921 -0.1111  0.1398 -0.1442
45849W        W46049  11.132   7.292   2.129 -0.2175 -0.0321 -0.2368
45850W        W46050  13.010  16.201  14.694  0.2643  0.0645 -0.1513
45851W        W46051   8.564  11.236  12.482 -0.2786  0.0957  0.1613
45852W        W46052  15.103  12.937  10.474  0.1225 -0.1156  0.1603
45853W        W46053  15.932  10.304   6.872 -0.4164  0.0419 -0.2169
45854W        W46054  14.065   6.130  17.267 -0.1521  0.0268 -0.1293
45855W        W46055   9.647   9.445   3.031 -0.0831 -0.0063  0.0539
45856W        W46056  15.393  14.110  18.018  0.1044 -0.1732  0.0948
45857W        W46057   5.235   6.944  12.159  0.1763 -0.0132  0.3628
45858W        W46058  13.831   6.508   5.659  0.2463  0.2615  0.1994
45859W        W46059   8.952   0.398   8.116 -0.1418  0.0759  0.0982
45860W        W46060   3.079  11.499   4.329  0.1831 -0.1759  0.1422
45861W        W46061   1.506   6.806   4.904  0.0527  0.0723  0.1642
45862W        W46062  16.384   9.227  11.492 -0.1316 -0.0507  0.0017
45863W        W46063   1.701  14.637   9.282  0.2316 -0.0402  0.0900
45864W        W46064   3.905   7.861  16.292  0.1017  0.1314  0.2386
45865W        W46065   1.112   1.915  12.093 -0.1204 -0.1575  0.0218
45866W        W46066  16.316   9.981  15.614 -0.1238  0.2196 -0.1556
45867W        W46067  17.682  10.479   9.515 -0.5230 -0.1877  0.2947
45868W        W46068   8.947   4.581   1.438  0.0028 -0.2780  0.1221
45869W        W46069  16.676   3.786  10.555 -0.2974 -0.2293  0.1745
45870W        W46070   9.429  12.458   2.840  0.1915 -0.2961 -0.0293
45871W        W46071  11.381   9.655  10.359 -0.2292  0.2386  0.0910
45872W        W46072   2.847   7.020   2.297  0.2752 -0.1348  0.3723
45873W        W46073  14.602   8.968  15.287  0.3386 -0.0203 -0.1199
45874W        W46074  12.127   4.053   2.547 -0.2956 -0.1688 -0.0577
45875W        W46075   2.874   7.966  15.166 -0.1204  0.0037 -0.0339
45876W        W46076   7.355  16.638  14.470 -0.0369  0.1848  0.0997
45877W        W46077  16.304   8.914   7.093  0.0213  0.2462  0.2547
45878W        W46078  16.281  15.975  13.258 -0.2791  0.0703 -0.0088
45879W        W46079   0.098   9.215  14.487  0.0167  0.0272 -0.2803
45880W        W46080   3.770   7.714   6.044  0.0457 -0.0863  0.0105
45881W        W46081  12.147   6.408  13.374  0.1198 -0.0825  0.0833
45882W        W46082   1.436   5.906   4.531  0.0931  0.1724  0.1792
45883W        W46083   9.466   8.811  13.440  0.3202 -0.0799  0.1589
45884W        W46084  14.584  16.014   9.131 -0.0288  0.2988  0.3018
45885W        W46085   3.117   5.350  15.974  0.0220 -0.1724 -0.3164
45886W        W46086  15.666  14.254  11.744  0.0100 -0.2595  0.2826
45887W        W46087  16.667   8.247  15.949 -0.1449 -0.1107 -0.0458
45888W        W46088   5.472   4.639  16.345  0.2669 -0.2259 -0.2317
45889W        W46089  14.681   3.318   9.774  0.1698 -0.0363 -0.3429
45890W        W46090   2.616   6.235   1.604 -0.4104 -0.2193  0.1611
45891W        W46091  15.450   6.757   9.949 -0.3089  0.2927  0.0391
45892W        W46092  12.294   6.192  14.352  0.1515 -0.0012  0.1552
45893W        W46093  12.259   8.937   2.633  0.0993  0.2650 -0.3128
45894W        W46094  16.328  11.197  11.828 -0.3445  0.1032  0.0220
45895W        W46095  17.064   6.442   1.770 -0.1674 -0.2155  0.0980
45896W        W46096  18.114  16.179  12.927 -0.0826 -0.0224  0.0366
45897W        W46097  14.465   6.806   0.934 -0.3512 -0.2415  0.2403
45898W        W46098   7.962  17.012  18.149  0.0674 -0.0120  0.1964
45899W        W46099   2.769   7.868  17.002 -0.2685 -0.0053 -0.1599
45900W        W46100   4.707   7.900   2.838 -0.2051 -0.1493 -0.0249
45901W        W46101   4.822   6.809   4.580 -0.1845  0.0749  0.0423
45902W        W46102  13.733  10.026   5.317 -0.3240  0.1723 -0.1455
45903W        W46103  12.241   4.090  14.894  0.0437  0.0518  0.0841
45904W        W46104  14.988  16.162  15.749  0.0073  0.4037  0.0168
45905W        W46105  15.071   8.776  17.894 -0.2305 -0.3163 -0.0128
45906W        W46106  16.233   2.298  16.117 -0.1074 -0.1187 -0.1542
45907W        W46107   0.027  10.436  17.686  0.0385  0.3174 -0.2515
45908W        W46108   2.383   7.686  13.164 -0.0641  0.1142 -0.0510
45909W        W46109  11.338   7.491  13.533 -0.0238  0.1706  0.2456
45910W        W46110   9.160   2.971  15.755  0.1370  0.3979  0.0123
45911W        W46111  16.014   5.875  14.637  0.1319 -0.0782  0.0269
45912W        W46112   2.168   4.184   9.329 -0.1585 -0.0467  0.0861
45913W        W46113  16.635  11.893  17.580 -0.1570 -0.0897  0.0921
45914W        W46114   4.944   8.682   2.634  0.3496  0.0604 -0.0327
45915W        W46115  15.348  10.173  14.748 -0.0727  0.1031 -0.1442
45916W        W46116  15.880  12.479  12.565 -0.0084  0.3119 -0.1767
45917W        W46117  15.281   8.265   9.596 -0.0264 -0.2411  0.1724
45918W        W46118  13.843  15.136  14.260  0.2540 -0.2196 -0.1483
45919W        W46119   2.481   7.552   6.386  0.1695  0.0313  0.0471
45920W        W46120  11.884  12.563  15.369  0.2680  0.0101  0.3831
45921W        W46121   0.866  15.347  15.705 -0.1819  0.3217 -0.0287
45922W        W46122  17.853   6.779   8.518 -0.1021 -0.1438  0.2201
45923W        W46123  17.905   9.942  16.860  0.1457  0.0612  0.0616
45924W        W46124   3.404   3.581   5.471 -0.1668  0.2965 -0.0796
45925W        W46125  11.757   4.042   3.377  0.4126  0.0117  0.2853
45926W        W46126   4.086  11.162  16.438 -0.5028  0.0561 -0.0304
45927W        W46127  13.552  10.513  14.001 -0.2472  0.2250  0.0684
45928W        W46128   7.470  17.967  12.025  0.1660 -0.0384 -0.0862
45929W        W46129   3.133   8.079  13.857 -0.1624  0.5686  0.0878
45930W        W46130  10.559  15.463   1.604  0.0044  0.2851 -0.3001
45931W        W46131  10.051   8.806   3.831 -0.2135 -0.0142 -0.4373
45932W        W46132   2.570  12.235   1.172 -0.0847  0.3405  0.2382
45933W        W46133  16.995   4.930   0.882  0.0458  0.2544 -0.0532
45934W        W46134  15.837   6.623  16.059 -0.1050 -0.2494 -0.0068
45935W        W46135   7.220   8.297  14.604  0.0974  0.1192 -0.2430
45936W        W46136   5.848   2.208  11.691 -0.2205 -0.0338 -0.0214
45937W        W46137   2.438  15.950  10.557  0.1504 -0.0648  0.0072
45938W        W46138  13.739   8.449  10.651 -0.1437 -0.1161  0.2364
45939W        W46139   3.426   6.800  15.989  0.2594  0.2865  0.1491
45940W        W46140  14.801  10.133   2.445 -0.1514 -0.1058  0.1092
45941W        W46141   0.818   8.596   9.948 -0.1309  0.0094 -0.2171
45942W        W46142   8.774   5.613  11.368  0.2637  0.1250  0.0168
45943W        W46143   9.897   8.499  17.727  0.0850  0.0547 -0.3213
45944W        W46144   6.183  12.012  12.494  0.0056 -0.1225  0.2385
45945W        W46145   0.808   2.399   3.952  0.1328 -0.0844  0.1198
45946W        W46146  16.558   6.544  16.527 -0.1356  0.0947 -0.0393
45947W        W46147  12.467   7.353  11.614 -0.0862  0.2073 -0.1727
45948W        W46148   3.491   0.559   3.762  0.1377 -0.1684  0.2237
45949W        W46149  14.802   7.942  15.276 -0.1927 -0.0020 -0.0980
45950W        W46150   3.761   5.657  14.038 -0.1630 -0.0535  0.2812
45951W        W46151   2.962  11.331   0.142 -0.1249 -0.0755 -0.0343
45952W        W46152   3.993  10.828   1.378 -0.1166  0.1933 -0.1251
45953W        W46153   1.812   7.394   1.415 -0.1952  0.1440  0.0908
45954W        W46154   0.882  10.163  18.028 -0.0899  0.1419 -0.0861
45955W        W46155   7.979   6.168   3.777  0.1103  0.0246 -0.3982
45956W        W46156   0.294   7.874   2.432 -0.1140  0.0786 -0.1347
45957W        W46157   0.007  13.112  10.489  0.6704 -0.1457 -0.3407
45958W        W46158  14.987   3.992  17.526  0.0472 -0.2517 -0.3934
45959W        W46159  10.499   4.144  12.011  0.0707  0.1828 -0.0202
45960W        W46160  17.415   7.605  11.561  0.1503  0.0245 -0.2223
45961W        W46161  13.147   8.788  11.838 -0.1206 -0.4915 -0.1889
45962W        W46162   6.237   5.649   1.877  0.3918 -0.0658  0.2324
45963W        W46163   5.802   9.947  15.870  0.0428  0.0430  0.0606
45964W        W46164   0.430  10.625   7.685 -0.1428 -0.0541  0.4516
45965W        W46165  15.742   4.488  16.891  0.2003  0.0161  0.0955
45966W        W46166  14.754  10.056   4.133 -0.3900  0.0881 -0.0533
45967W        W46167  14.638   1.046   0.043  0.3518 -0.3086  0.1002
45968W        W46168  11.080   2.011  10.843 -0.3039 -0.0711  0.2661
45969W        W46169  10.783   6.706  16.125 -0.1005  0.0238 -0.0202
45970W        W46170  16.317  10.192  13.048  0.2890  0.3394 -0.1062
45971W        W46171   0.697   0.929  12.310 -0.0953 -0.0510  0.1817
45972W        W46172   1.331   0.528  16.523  0.1715  0.0297  0.0461
45973W        W46173  17.375   9.751   4.368  0.0992 -0.2937 -0.0661
45974W        W46174  15.703  11.033  16.819  0.0690  0.3667  0.0720
45975W        W46175  13.020   6.131  16.234 -0.0439  0.1077  0.2203
45976W        W46176   5.914  10.568   1.031  0.0719 -0.1332 -0.0453
45977W        W46177   6.277   3.050   3.692  0.1763  0.1801 -0.1922
45978W        W46178  11.866  16.338  15.542  0.0445  0.0058 -0.3747
45979W        W46179   3.717   0.000  14.292  0.1525  0.0312 -0.0749
45980W        W46180   2.188   1.586   8.311  0.2942  0.3164 -0.3746
45981W        W46181   1.814  15.633   9.848 -0.2325 -0.2182  0.1085
45982W        W46182   3.138  11.455   3.372  0.0552 -0.4730 -0.2459
45983W        W46183   9.267   2.479   4.558 -0.2952 -0.0442 -0.2156
45984W        W46184  14.667  14.620  15.073 -0.2897  0.2696 -0.1480
45985W        W46185  14.887  12.965  12.291  0.0937  0.1047  0.0894
45986W        W46186   4.307   7.184   6.787  0.1654  0.1340 -0.2283
45987W        W46187   4.803  17.064   0.257 -0.0103 -0.2208  0.1959
45988W        W46188  12.458  14.933  16.297 -0.3932 -0.1038 -0.1774
45989W        W46189   8.629   7.596   9.069 -0.0589  0.0112  0.0264
45990W        W46190  12.739  12.576   9.919 -0.0095  0.2047 -0.1282
45991W        W46191  15.304  15.720  15.723  0.1328 -0.0984 -0.3388
45992W        W46192   4.915  13.484  17.764  0.0773 -0.2283 -0.2276
45993W        W46193  17.818  12.537   3.910 -0.2798  0.0536  0.1540
45994W        W46194  15.737  10.186   2.438  0.0660  0.1113 -0.2052
45995W        W46195  17.730   9.144  17.176  0.0677 -0.3570  0.2566
45996W        W46196  16.758  11.368   2.461  0.0432  0.3043 -0.2142
45997W        W46197  14.788  12.486   0.873  0.1984  0.2507  0.2887
45998W        W46198  16.682  14.673  16.797  0.0813 -0.0105  0.2823
45999W        W46199  13.089  18.031  15.418 -0.0111  0.0948  0.0881
46000W        W46200  15.492   9.531   3.953  0.1558  0.4846 -0.0094
46001W        W46201  16.125  12.921   0.071  0.1079 -0.0704 -0.0649
46002W        W46202   1.992   7.897  13.812 -0.0660 -0.1341 -0.1517
46003W        W46203   3.806   0.856   4.112  0.0214  0.1663  0.2019
46004W        W46204   9.920  13.974   9.066  0.2012  0.3561 -0.0873
46005W        W46205  12.032  17.020   4.657  0.0298 -0.3483  0.0629
46006W        W46206   1.168  11.601  10.652  0.0374 -0.0385  0.0386
46007W        W46207   1.871  11.753   6.127 -0.1578 -0.1702  0.0598
46008W        W46208  10.914   5.056   8.326 -0.1636 -0.1513  0.2595
46009W        W46209   5.513  13.868  16.056  0.1886 -0.0798 -0.0284
46010W        W46210   1.921  14.278   7.104 -0.2645  0.0410  0.0363
46011W        W46211  11.240   2.218   4.099 -0.1043 -0.3492 -0.0589
46012W        W46212   1.979  16.654   6.010 -0.0450  0.1156 -0.1718
46013W        W46213   2.831  14.706   4.395  0.0275 -0.4554  0.1064
46014W        W46214  16.038   2.425  15.191 -0.1652 -0.2079 -0.3615
46015W        W46215   3.505   0.974   6.102 -0.3863  0.0098  0.3469
46016W        W46216  11.665  12.703  12.577 -0.0466  0.0620 -0.1392
46017W        W46217  12.822   7.617   7.258  0.1655 -0.1085 -0.0021
46018W        W46218  16.932   8.612   5.123  0.0437 -0.1161  0.2753
46019W        W46219  11.579  17.077   7.422  0.0043  0.0512  0.1805
46020W        W46220  14.702  15.683   3.825 -0.2130  0.0126 -0.0005
46021W        W46221   5.787   0.487   8.975 -0.1572 -0.2966 -0.0935
46022W        W46222   4.320  12.805  10.942  0.2687 -0.0466  0.0690
46023W        W46223   8.229  12.101  17.344  0.2010 -0.0133  0.2017
46024W        W46224  15.710  16.076   1.093 -0.3196 -0.0356  0.0075
46025W        W46225   0.066  15.734   5.280 -0.2127 -0.2464  0.2067
46026W        W46226  13.907  11.861   6.347  0.1326 -0.0585 -0.0636
46027W        W46227  12.836  12.632   6.306  0.1020  0.0993  0.0624
46028W        W46228  18.038  13.638  12.684  0.0086 -0.1831 -0.1044
46029W        W46229   2.392  13.533  12.056 -0.1978 -0.1875  0.1627
46030W        W46230   0.942   7.329  16.837 -0.0933 -0.0770 -0.2574
46031W        W46231   7.757  14.261   1.748  0.0639  0.0165  0.1349
46032W        W46232  14.695  13.760  17.144 -0.1695  0.2817  0.4715
46033W        W46233  14.756  16.490   0.638  0.0883  0.0440 -0.2930
46034W        W46234  16.903   9.544  17.234  0.1151 -0.1281  0.0818
46035W        W46235   2.964  12.792   4.667  0.1069 -0.1617  0.2940
46036W        W46236   0.347  16.197  16.584  0.0482  0.1332  0.2643
46037W        W46237  14.458  12.504   0.015  0.1442 -0.1707 -0.0534
46038W        W46238  13.703  15.292   3.350 -0.0081 -0.5883  0.1486
46039W        W46239  16.824  12.755   5.706 -0.1007  0.1999 -0.0161
46040W        W46240  14.571   1.451   0.303  0.0423 -0.0949  0.0623
46041W        W46241   8.242  11.535   6.358 -0.2618 -0.2068 -0.1053
46042W        W46242   9.759  12.569   1.218 -0.2061 -0.0064  0.1565
46043W        W46243  13.726   9.846   0.099 -0.0209 -0.0665 -0.0166
46044W        W46244  12.599  17.394  11.092  0.0275  0.0351 -0.3001
46045W        W46245   8.539  17.001  16.259 -0.3210 -0.4881  0.0943
46046W        W46246  10.947   7.103  17.487  0.2363 -0.4431  0.0073
46047W        W46247  18.065   7.266  17.027  0.0231  0.1356 -0.0657
46048W        W46248  11.960   1.972   1.976  0.0861 -0.2460  0.0730
46049W        W46249  15.479  15.922   8.595 -0.3864  0.2726  0.0445
46050W        W46250  13.832  12.125  18.135 -0.2883 -0.1633 -0.1178
46051W        W46251  18.009  11.570   1.997 -0.2407  0.1873  0.0621
46052W        W46252  14.883   9.268  15.555 -0.0727 -0.1980 -0.0527
46053W        W46253  18.063   4.470  16.607  0.0329 -0.0508  0.0236
46054W        W46254  12.568  10.786  10.535  0.0190 -0.0450  0.0938
46055W        W46255   3.255  15.281   2.788  0.0823  0.0337  0.1559
46056W        W46256  16.218  16.684   1.753 -0.2285  0.1181  0.0504
46057W        W46257   0.849  17.961   2.965  0.1969 -0.1425  0.0786
46058W        W46258   2.216   1.698   7.462  0.0775 -0.2157  0.1164
46059W        W46259   7.398   4.677   4.057 -0.0161 -0.0188 -0.3320
46060W        W46260  12.198   0.501  16.235 -0.1897  0.0728  0.3141
46061W        W46261   5.859   9.417   2.360 -0.1091  0.0880 -0.3539
46062W        W46262   6.733   3.562   4.372  0.0297  0.0524 -0.4054
46063W        W46263   9.109  17.303   1.489 -0.0806  0.4338 -0.1749
46064W        W46264  14.697  14.751   3.402  0.3873  0.2534  0.1734
46065W        W46265   0.315  10.194   3.407  0.1288  0.0920 -0.1619
46066W        W46266  17.405  12.676  11.383  0.2560  0.0239  0.1737
46067W        W46267  16.833  15.335   2.484 -0.2759  0.1393 -0.2636
46068W        W46268   0.413  10.139  12.459  0.1475  0.1989  0.4506
46069W        W46269   5.664  14.258   7.290  0.0540  0.1184  0.2386
46070W        W46270  17.011   8.316   5.532 -0.1171 -0.0640 -0.3361
46071W        W46271   0.123  13.662   7.445  0.0384  0.1143  0.2011
46072W        W46272   1.448  10.786   5.386  0.1527 -0.1469 -0.3172
46073W        W46273   2.234  10.501   2.955  0.2102 -0.0190 -0.0149
46074W        W46274  14.335  13.855   8.322  0.0514  0.2454  0.1848
46075W        W46275  16.567   9.684   2.127 -0.1670  0.2531  0.0154
46076W        W46276   3.243   9.170  17.389 -0.0555  0.3956  0.1809
46077W        W46277   0.063  11.791  11.857  0.0927 -0.1093  0.0853
46078W        W46278   1.381  13.064  13.492 -0.2138  0.1300 -0.0087
46079W        W46279  11.078  15.836  16.636 -0.1983  0.3001 -0.1845
46080W        W46280  13.549  12.195   4.064 -0.0965  0.0032 -0.0757
46081W        W46281  17.840  11.055   0.570 -0.0099  0.1524 -0.0189
46082W        W46282   6.191  15.664   0.282 -0.1812 -0.2130  0.1159
46083W        W46283   5.796   7.733   5.013 -0.0510  0.2442  0.0805
46084W        W46284  13.702  13.274   6.000  0.2633 -0.2007 -0.2509
46085W        W46285  14.586  12.061  16.951  0.0677 -0.1638 -0.2543
46086W        W46286   0.880  10.474   3.990  0.2559  0.1543 -0.2166
46087W        W46287  11.683   1.936   6.826  0.0844  0.2096 -0.0022
46088W        W46288  10.730  15.788  15.504  0.0340 -0.1213  0.1170
46089W        W46289   2.092   5.030   4.780  0.2113 -0.0437 -0.0670
46090W        W46290   0.002  18.042   5.834 -0.0778 -0.0431 -0.0839
46091W        W46291   1.629  16.906   1.697  0.1329  0.3349 -0.0690
46092W        W46292  11.643   5.148   6.648 -0.1313 -0.3406 -0.1855
46093W        W46293   6.208  10.349  15.827  0.1012 -0.1511  0.0359
46094W        W46294  11.559   6.181  16.981  0.0070 -0.1708  0.3099
46095W        W46295  15.848   2.516   7.486 -0.0092  0.1155  0.0620
46096W        W46296  18.050  15.798   2.797  0.0447  0.1262 -0.0242
46097W        W46297   3.478  16.155   5.897 -0.1716  0.1170  0.1052
46098W        W46298  10.476   1.232   1.111  0.1919 -0.0902  0.0870
46099W        W46299  12.082  14.803   6.109 -0.1138  0.5136  0.0929
46100W        W46300  11.927  16.024   7.949  0.1866 -0.3213  0.0434
46101W        W46301   3.599   4.645   2.788  0.0130  0.0169 -0.2098
46102W        W46302   1.805   3.744   0.147  0.1233 -0.3889 -0.3442
46103W        W46303   0.445  12.287   7.833 -0.2555  0.2316 -0.2031
46104W        W46304   6.601   0.288   7.517  0.3323 -0.0021 -0.1065
46105W        W46305   9.967   6.121  15.235  0.0902  0.0497  0.0054
46106W        W46306  15.738  11.582  16.649 -0.0680 -0.4792  0.0044
46107W        W46307  12.420   6.643   1.704  0.3599 -0.3295  0.3821
46108W        W46308  13.801  14.580   9.073  0.2816 -0.0968 -0.0694
46109W        W46309   2.503  16.761   0.504 -0.3171 -0.0393 -0.0358
46110W        W46310   9.641  12.552  10.738 -0.0520  0.3965 -0.1560
46111W        W46311  16.382  17.731  12.513  0.2420 -0.1793  0.0358
46112W        W46312   1.476   9.279   0.768  0.2631  0.1745  0.0213
46113W        W46313   3.666   8.349   4.210 -0.0785 -0.0442  0.2166
46114W        W46314   7.887  14.108   6.364 -0.2431 -0.1669 -0.1269
46115W        W46315   3.451  11.470   4.794  0.0330  0.0662 -0.1327
46116W        W46316  16.918  10.513   8.948 -0.0608  0.0230 -0.1589
46117W        W46317   0.861   6.284   2.379  0.2766 -0.1714  0.0981
46118W        W46318   3.662  12.176   4.153  0.0899  0.2763  0.1605
46119W        W46319  15.556   9.812  15.301 -0.3291 -0.2949 -0.0016
46120W        W46320  16.154  13.751   4.874  0.3974  0.1207 -0.1713
46121W        W46321  12.053   1.935   7.855  0.0782  0.1388  0.2574
46122W        W46322   6.580  14.906   1.022 -0.1657 -0.1054 -0.0009
46123W        W46323   3.270  10.868   5.167 -0.0138  0.2260  0.0450
46124W        W46324  12.262  15.426   3.819  0.0209  0.1078  0.0771
46125W        W46325   8.960   4.120   1.303 -0.0609 -0.0667 -0.0252
46126W        W46326   0.694  15.660   9.232 -0.0095 -0.0610  0.3112
46127W        W46327   1.394   8.783   0.487 -0.1064  0.0721  0.0756
46128W        W46328   4.783  15.594   3.172  0.2562  0.0542  0.1125
46129W        W46329   4.514   0.778  15.894  0.0556  0.3091 -0.1123
46130W        W46330  14.397  11.714  16.638 -0.0046 -0.1027  0.4324
46131W        W46331   0.485  11.712  13.906 -0.1046 -0.0130 -0.2198
46132W        W46332  10.859  16.756  14.247  0.1170  0.4102 -0.0296
46133W        W46333  16.801   9.700   0.979 -0.0731  0.1762 -0.1419
46134W        W46334  14.632  13.277  16.256  0.3368  0.0771 -0.0822
46135W        W46335  16.607   2.517   6.411 -0.2518  0.1006  0.2161
46136W        W46336   0.807   7.777  10.837 -0.1004  0.1560 -0.2009
46137W        W46337  17.642   4.201  13.218  0.0079 -0.1728 -0.0252
46138W        W46338  17.374  13.366  16.307  0.1829  0.0509 -0.0386
46139W        W46339  16.005  11.851   6.684  0.1797 -0.0823  0.0662
46140W        W46340   1.760  12.236  17.874  0.0837 -0.1103 -0.0865
46141W        W46341  13.519  12.626   4.354 -0.1032  0.2741 -0.2551
46142W        W46342   1.917  12.577   4.914 -0.1443 -0.1531 -0.2319
46143W        W46343   2.287  12.642   1.426 -0.0225 -0.1428  0.0202
46144W        W46344  11.840   9.635   7.504  0.1327  0.1554 -0.1078
46145W        W46345  11.514  15.282   4.292  0.2761  0.0570  0.0146
46146W        W46346   6.219   8.663   2.340 -0.1242 -0.1246 -0.1267
46147W        W46347   1.532  13.098   2.393 -0.1548  0.1602 -0.0378
46148W        W46348   0.207  12.592   4.581  0.2269  0.0329 -0.1218
46149W        W46349  14.719   9.081   8.355  0.0363  0.2887  0.3434
46150W        W46350   2.702  14.195  10.361  0.2680 -0.0684  0.3591
46151W        W46351   2.939  15.363  15.764  0.0091  0.0838 -0.1003
46152W        W46352   2.320  11.488  14.024  0.2786  0.1743  0.1752
46153W        W46353  10.697  15.485  11.775 -0.0593 -0.1169  0.0703
46154W        W46354   2.650   1.182  15.488 -0.0981  0.0466  0.1184
46155W        W46355  18.084   8.808   2.166 -0.2014  0.0648  0.2191
46156W        W46356  17.365  16.623   3.142 -0.0809  0.0034 -0.1873
46157W        W46357  14.980   9.600  12.531 -0.0413 -0.0184  0.0565
46158W        W46358  11.135   9.773   4.922 -0.1418 -0.2734 -0.1278
46159W        W46359   1.839  15.620   5.453  0.2680  0.1106 -0.1617
46160W        W46360  17.314  14.197  12.973 -0.1581 -0.0660  0.0703
46161W        W46361   8.133  14.455   6.810 -0.0906 -0.0486 -0.1044
46162W        W46362   1.294   7.207   0.625  0.1209  0.3984 -0.1324
46163W        W46363  17.007  16.877  10.718 -0.1593  0.1642  0.0771
46164W        W46364  12.177  17.047   8.730 -0.1367  0.0842 -0.1407
46165W        W46365  11.890   3.633   9.861 -0.2097  0.0772  0.0356
46166W        W46366   4.049  13.440   9.037 -0.1519  0.0559 -0.0747
46167W        W46367  14.843  11.329   7.366 -0.1366 -0.2809 -0.2191
46168W        W46368   0.388  17.223   1.501  0.2421 -0.2969 -0.2274
46169W        W46369   8.794  15.796   3.004  0.0611  0.1242  0.2057
46170W        W46370  13.777   8.551  16.484  0.0676  0.1936 -0.0461
46171W        W46371  17.959   7.137   2.330  0.1433  0.2377 -0.2422
46172W        W46372   8.172   7.099   1.552  0.3976  0.0073  0.0130
46173W        W46373   0.709  16.260  11.966  0.2073 -0.4471 -0.1739
46174W        W46374   3.478   5.990   0.200 -0.0471 -0.1286 -0.4166
46175W        W46375  13.615  14.045   5.716 -0.0146 -0.0498  0.2869
46176W        W46376   3.429  17.465  14.495  0.0098  0.3217  0.0097
46177W        W46377  13.181   3.131   0.639 -0.1991 -0.1094  0.2861
46178W        W46378  12.360   0.110  15.829 -0.0463  0.2775 -0.2745
46179W        W46379  14.659   3.661  15.343 -0.1294 -0.0838  0.0119
46180W        W46380  17.356  12.865   4.445 -0.2520 -0.2992 -0.0157
46181W        W46381   8.639   9.599   7.385  0.0709  0.0020 -0.0839
46182W        W46382  17.015  11.377   6.070 -0.3010  0.1106 -0.1379
46183W        W46383  10.539   9.203   2.961 -0.0660  0.1093  0.0459
46184W        W46384   0.665  16.636   0.740 -0.1666  0.2640  0.0267
46185W        W46385   0.321  15.245  16.746 -0.1295  0.0629 -0.2386
46186W        W46386   6.987  14.466   6.373  0.0264  0.0189 -0.1547
46187W        W46387  12.544  10.376  15.300  0.0504 -0.2019  0.0882
46188W        W46388  16.410  10.976  17.911  0.0074 -0.0886 -0.1978
46189W        W46389   4.632  10.390  16.716  0.3340  0.1962 -0.0377
46190W        W46390   2.616   0.343   8.978 -0.2424 -0.1109 -0.0117
46191W        W46391   4.086   0.874   8.126  0.0035 -0.1082  0.2144
46192W        W46392  11.017   8.535  16.282 -0.2185 -0.2117  0.0507
46193W        W46393  14.245  10.792   5.476 -0.0912  0.0648 -0.1178
46194W        W46394   5.372   1.639   5.146 -0.3565  0.1412 -0.1668
46195W        W46395  17.321   4.232  14.521  0.2668 -0.0154  0.3595
46196W        W46396  11.284  16.073   2.515  0.1685  0.1856  0.0667
46197W        W46397  16.584   9.450   1.603 -0.1764 -0.0978 -0.3036
46198W        W46398   4.935  10.647   5.816  0.0361 -0.2269 -0.0532
46199W        W46399   7.768  14.923  16.110 -0.2975 -0.0887 -0.3204
46200W        W46400   5.005  18.086   1.602  0.2710 -0.0735  0.2443
46201W        W46401   2.962  13.735   6.991  0.3385 -0.1333  0.0087
46202W        W46402   0.840   2.428   0.627  0.1227 -0.2409  0.1744
46203W        W46403   1.334  14.744   1.528  0.2792  0.1180 -0.0145
46204W        W46404  15.437  14.162   1.654  0.1176 -0.7429 -0.0194
46205W        W46405  11.989  10.261   0.518  0.0376  0.1288 -0.2522
46206W        W46406  15.091  12.476   6.918 -0.0975 -0.2728  0.3158
46207W        W46407   0.700  14.660  14.378  0.2615  0.0288 -0.1802
46208W        W46408  16.142  17.445   0.324 -0.0478  0.0732 -0.3063
46209W        W46409   1.706   9.868   3.677  0.1342 -0.2219  0.2313
46210W        W46410  16.810  12.914   0.973 -0.5264  0.0740 -0.4479
46211W        W46411  12.343   4.270  11.873 -0.1245  0.0862  0.1926
46212W        W46412  16.671   4.065   8.409  0.2524  0.3223 -0.4308
46213W        W46413   1.412  12.983  11.366 -0.0977  0.1965  0.2019
46214W        W46414  18.006   2.301  15.007  0.0301 -0.3854 -0.0705
46215W        W46415  14.908   0.939   6.994  0.2452  0.0579 -0.0116
46216W        W46416   4.808   1.684   8.758  0.0233  0.2020  0.1751
46217W        W46417  10.815  13.596   4.678 -0.0726  0.1640  0.0242
46218W        W46418   1.402  13.225   0.878 -0.1356  0.0346 -0.1202
46219W        W46419   5.088  15.649   5.173  0.0158  0.0952 -0.2538
46220W        W46420  12.738  10.645   8.076 -0.1758 -0.0839 -0.1596
46221W        W46421   8.603  11.751   2.866  0.0867 -0.2894  0.4581
46222W        W46422  16.178  14.244  13.553 -0.1470  0.2297 -0.0700
46223W        W46423  10.041   6.224  13.114  0.2212  0.1245  0.1432
46224W        W46424   7.718   0.391  15.819 -0.0067  0.0720 -0.0519
46225W        W46425  16.121   3.829   0.287 -0.0632  0.1317  0.1146
46226W        W46426   1.971  11.271   0.446  0.0342  0.2992  0.1818
46227W        W46427  15.336   1.258  16.955  0.0615 -0.0783 -0.2472
46228W        W46428  10.903   3.685   1.381 -0.0282  0.0403  0.0599
46229W        W46429  12.360  15.285  13.569 -0.4677  0.0157  0.2027
46230W        W46430  16.768   9.886   0.190 -0.3339  0.2064  0.0108
46231W        W46431   6.998  10.985   4.941 -0.1685 -0.1078 -0.3199
46232W        W46432  15.238  15.796   6.541  0.0996  0.2287 -0.0256
46233W        W46433  14.265   8.378   0.044  0.1631 -0.3692  0.1619
46234W        W46434  11.524  12.025  18.198 -0.1552  0.0492  0.1217
46235W        W46435  13.676  10.943   4.636  0.1999  0.0395 -0.1072
46236W        W46436  14.724  11.455   8.402 -0.2807 -0.0026 -0.0087
46237W        W46437  14.759  16.766  12.754  0.1888 -0.1157  0.0007
46238W        W46438   4.360  13.074  16.442  0.2316 -0.3120  0.0022
46239W        W46439   6.631  15.527   6.878 -0.0784  0.1444 -0.1597
46240W        W46440  12.627  12.316  11.941 -0.3473  0.1187  0.1011
46241W        W46441  11.354  14.329   3.239  0.1099 -0.0580  0.3155
46242W        W46442  10.145   9.884  10.695  0.0846 -0.1349 -0.2137
46243W        W46443  15.262  17.720   8.816 -0.1748  0.2099 -0.2043
46244W        W46444  15.472   0.748   1.599  0.1319 -0.2066  0.0503
46245W        W46445  15.666  14.036   8.666 -0.1547  0.2163 -0.0387
46246W        W46446   2.181  17.187  17.622  0.0789 -0.1402  0.0034
46247W        W46447   6.957   5.335   6.633  0.1040 -0.0372 -0.0943
46248W        W46448   3.138   7.363  15.860 -0.0508  0.0661  0.0948
46249W        W46449   0.123   9.467   9.255 -0.0924 -0.5503 -0.0672
46250W        W46450   4.593  15.470   1.923  0.1640  0.0909  0.0773
46251W        W46451   9.885   1.975  12.501  0.0688 -0.1567 -0.1409
46252W        W46452  13.785  15.681  15.085  0.1300 -0.0657 -0.0861
46253W        W46453   4.094   2.801  15.570  0.0488  0.1134 -0.0962
46254W        W46454  14.300   5.516  11.580 -0.0730 -0.0230 -0.1259
46255W        W46455   0.204  14.616  13.291 -0.4151  0.0804 -0.2819
46256W        W46456  12.788   6.618   1.321 -0.0974  0.1787  0.3772
46257W        W46457   1.497  18.147   0.172 -0.0058 -0.1502  0.1741
46258W        W46458  13.389  16.425   1.662  0.0878  0.0649  0.0596
46259W        W46459  17.644  15.446  14.580  0.2643  0.2650 -0.4718
46260W        W46460  11.925  14.872  12.200 -0.3077 -0.2858  0.0607
46261W        W46461  12.169   5.982  16.829 -0.2040 -0.1085 -0.1376
46262W        W46462  10.743  14.588  16.500 -0.0630  0.2725 -0.1428
46263W        W46463   0.163   0.380   0.634  0.1683  0.0342  0.1855
46264W        W46464  11.325  11.122  16.478 -0.1075 -0.0657  0.0115
46265W        W46465   3.045  14.480   1.299  0.0045  0.1078  0.1793
46266W        W46466   1.853   2.253  13.081 -0.1836 -0.1109 -0.1041
46267W        W46467  15.581  14.089   9.434  0.1499  0.2237 -0.0305
46268W        W46468  12.617   7.320   3.023  0.0585 -0.0937  0.1563
46269W        W46469   7.329   7.695   0.791  0.0103  0.1372 -0.2314
46270W        W46470  16.627   1.112  12.651 -0.1737  0.1093 -0.2160
46271W        W46471  14.181  10.309   6.410  0.1319  0.2002 -0.0202
46272W        W46472   1.425  10.762   3.409 -0.1115  0.0600 -0.0921
46273W        W46473  12.457  14.725   7.414 -0.2294 -0.2122 -0.0874
46274W        W46474  15.465  13.209   6.802  0.2494  0.0735 -0.0912
46275W        W46475  17.290   9.277  17.003 -0.1013  0.0334 -0.2765
46276W        W46476  17.473  13.505   7.847  0.2575 -0.1005  0.2706
46277W        W46477  10.033  10.239   1.666 -0.1356  0.3501 -0.2797
46278W        W46478   2.603  14.911  15.781  0.0738  0.1623 -0.2489
46279W        W46479   1.530   7.064  15.086  0.0688  0.0351  0.1276
46280W        W46480   1.163   3.672   0.467  0.3206 -0.0450 -0.3350
46281W        W46481  12.892   6.456  17.834  0.0362  0.0373  0.2346
46282W        W46482  11.602  12.267   1.949  0.0197  0.0120  0.1560
46283W        W46483   6.053  13.924   0.765  0.2722  0.0305  0.1022
46284W        W46484   8.017  16.026   3.639 -0.2312 -0.2518  0.1269
46285W        W46485  13.167  10.321   9.410 -0.0731 -0.0360 -0.0671
46286W        W46486  11.054   8.127   1.065 -0.4099  0.0705 -0.1641
46287W        W46487  15.345   6.910  16.955 -0.1993 -0.4024 -0.2062
46288W        W46488   5.870  12.227   0.728 -0.0104 -0.2931 -0.0693
46289W        W46489   1.391  15.901   2.111  0.1292 -0.1340  0.3428
46290W        W46490  10.492  16.376  15.322 -0.1944 -0.2035 -0.0191
46291W        W46491   1.859  17.618  17.131 -0.0163  0.0401  0.0662
46292W        W46492   5.659   5.122   2.918  0.2057 -0.0950  0.0001
46293W        W46493  17.815  11.971  17.759 -0.3606  0.1847 -0.0508
46294W        W46494  15.281  10.729  14.954  0.0288  0.0088  0.2058
46295W        W46495   1.078  15.726   5.001 -0.1256  0.2289  0.3749
46296W        W46496   4.204  10.609  16.565 -0.1963  0.0794  0.1096
46297W        W46497   9.076  12.665   3.824  0.1255 -0.0398  0.0782
46298W        W46498  15.803   7.558   1.251 -0.2223 -0.1520  0.2500
46299W        W46499  13.592  17.830   0.942  0.2891 -0.0884  0.2660
46300W        W46500  17.461  16.173   0.678 -0.0277  0.1366 -0.1190
46301W        W46501   0.617  16.625  16.393  0.0735 -0.0839  0.0058
46302W        W46502   0.913  12.356  18.178  0.1780 -0.0582 -0.0949
46303W        W46503  10.495   7.856   2.329 -0.3362 -0.3393 -0.0022
46304W        W46504  10.328   9.314   5.266  0.0391  0.1392 -0.0142
46305W        W46505   0.065  14.820  11.741  0.3534  0.0727 -0.1090
46306W        W46506   0.674  16.186   7.986  0.0260  0.1100 -0.2804
46307W        W46507  17.442   5.698   2.963  0.1417 -0.1066  0.2474
46308W        W46508   1.585  12.748  14.945 -0.1647 -0.0470 -0.1604
46309W        W46509  14.356  12.447   5.640  0.5010 -0.2857  0.1239
46310W        W46510   0.121  17.349   6.039  0.1940  0.4647  0.0855
46311W        W46511   5.814   8.728   6.038  0.2014  0.1589 -0.1041
46312W        W46512  11.473  12.783  10.322 -0.2115 -0.0002 -0.1897
46313W        W46513   6.144   5.500   0.180  0.0648 -0.0453 -0.3182
46314W        W46514  15.318  15.288   5.029 -0.0719 -0.0520  0.0993
46315W        W46515   8.755   8.527  15.885 -0.2514 -0.0759  0.0797
46316W        W46516  14.604  17.170   5.474  0.1902  0.0593 -0.1233
46317W        W46517  16.683  11.344  15.828  0.1430  0.2801 -0.0082
46318W        W46518   8.915   5.412   4.280 -0.1631  0.1039  0.0698
46319W        W46519  16.685  10.603   7.515  0.0010 -0.0747  0.0320
46320W        W46520  14.315  15.514   9.537  0.0255  0.0752 -0.1840
46321W        W46521   5.954   1.290  14.125 -0.1993 -0.4682  0.3540
46322W        W46522  13.023  12.629   4.551 -0.0940 -0.0508  0.0622
46323W        W46523   1.272  11.746   3.468 -0.0468  0.0757 -0.1928
46324W        W46524   0.204  13.033   1.987  0.3420 -0.3746  0.0500
46325W        W46525   9.769  13.656   2.122  0.3926 -0.4287 -0.1473
46326W        W46526   0.123   9.267   9.760 -0.0892 -0.0166 -0.0093
46327W        W46527  14.369   8.062   8.901 -0.1999 -0.3831  0.1580
46328W        W46528   0.808  13.231   2.475 -0.0892 -0.3150 -0.0606
46329W        W46529  17.694   4.482   0.294  0.1957  0.3505 -0.0744
46330W        W46530  15.702   9.457   4.982  0.3770 -0.2020 -0.1185
46331W        W46531  16.412  15.403  17.521 -0.2347 -0.0760 -0.0928
46332W        W46532  13.852  11.360  18.104  0.3423  0.0260  0.1856
46333W        W46533  17.706   9.019   1.777 -0.3866 -0.1193  0.4570
46334W        W46534   0.693   7.609   0.553 -0.1350  0.3642 -0.2679
46335W        W46535   5.296   9.813  10.545  0.2259  0.4825 -0.0293
46336W        W46536  15.728   2.136  15.555 -0.0413 -0.0882 -0.3268
46337W        W46537  15.426  10.803   3.139  0.1370  0.0229  0.2438
46338W        W46538   0.024   3.089   3.323 -0.0928 -0.1274 -0.0765
46339W        W46539  12.444   7.240   2.488 -0.1824  0.0124  0.2188
46340W        W46540   0.571  17.509   3.767 -0.2568 -0.0111  0.1151
46341W        W46541   1.738  10.249   1.404 -0.2243  0.0393  0.1537
46342W        W46542  14.786  15.658   3.256  0.1340  0.0952 -0.0713
46343W        W46543   4.193  12.771   6.782 -0.1455 -0.0105 -0.0281
46344W        W46544   7.091  11.539   0.807 -0.3146  0.0057 -0.3479
46345W        W46545  10.011  12.371  15.627  0.1751  0.1194  0.1652
46346W        W46546   5.544   7.650   3.368  0.0877 -0.1469  0.1200
46347W        W46547   6.038  10.856   9.937  0.1886  0.0237  0.1955
46348W        W46548   4.857  16.681   0.938  0.4200  0.0187 -0.2484
46349W        W46549   0.746  11.442   8.528 -0.3619 -0.3402 -0.0113
46350W        W46550   3.987  17.989   2.527 -0.1979 -0.0311 -0.0416
46351W        W46551  15.660  14.986   6.562  0.0516  0.1183  0.0498
46352W        W46552  15.230   3.374   2.962  0.3197  0.0147  0.0063
46353W        W46553  15.387  11.251  13.499  0.0281  0.2811 -0.1935
46354W        W46554   4.937   9.422   5.277  0.1987 -0.1955 -0.0912
46355W        W46555   1.030  16.107   0.552 -0.0060 -0.0135 -0.0015
46356W        W46556  10.200  12.106  10.247 -0.2777 -0.1171  0.1529
46357W        W46557  15.591  16.276   1.645 -0.1468  0.0979  0.0645
46358W        W46558   4.508  10.723   1.173  0.3045  0.1520 -0.2764
46359W        W46559  14.988  14.476   1.008 -0.0413  0.0080  0.0065
46360W        W46560  13.931  15.773  17.722  0.4255 -0.0445  0.2404
46361W        W46561  10.882   6.400   8.033 -0.2056 -0.0927 -0.0103
46362W        W46562  13.129   7.015   7.072 -0.1741  0.0449  0.1294
46363W        W46563  16.191   1.849   2.106 -0.1924 -0.0538  0.2827
46364W        W46564  10.698  10.989   1.861  0.1262 -0.0255  0.1529
46365W        W46565  18.191   8.810  17.529 -0.0598 -0.1353  0.0897
46366W        W46566  17.798  18.042   2.486 -0.2767 -0.1861 -0.1880
46367W        W46567   5.344  13.006   5.092 -0.0429 -0.1678 -0.0915
46368W        W46568  14.010  16.094   5.332  0.3557  0.1090 -0.2078
46369W        W46569  10.446   7.506   6.072  0.2634 -0.1924 -0.2265
46370W        W46570   0.425  17.237   3.270  0.1706  0.1634 -0.0260
46371W        W46571  18.017   5.168  17.908 -0.2375 -0.0399 -0.1676
46372W        W46572   3.862  14.134  13.506  0.0617 -0.0870  0.0530
46373W        W46573   0.979  17.926  16.131  0.1230  0.1325 -0.1531
46374W        W46574   2.379   7.056   6.528 -0.0342  0.4160  0.3987
46375W        W46575  16.677  16.071   0.038  0.1359 -0.2062 -0.0044
46376W        W46576  16.401   6.786   9.148  0.3001 -0.1062  0.2638
46377W        W46577  11.723  10.775   1.921 -0.1976 -0.1787 -0.4457
46378W        W46578   9.370   9.811   5.174  0.0016 -0.0302 -0.0868
46379W        W46579  16.181   9.285   0.008  0.0889 -0.3089 -0.1397
46380W        W46580  13.761  14.831  17.238  0.1134 -0.1271 -0.1550
46381W        W46581  16.495  15.753  10.685  0.0699 -0.0584  0.2254
46382W        W46582  11.654  17.304   1.311 -0.3443  0.1503 -0.0654
46383W        W46583  14.395   7.803   1.174  0.0244 -0.2936  0.0369
46384W        W46584  13.484  12.675  16.317 -0.0572  0.1600  0.1406
46385W        W46585  17.944  12.636   1.344 -0.3649 -0.1933  0.1021
46386W        W46586  13.541  16.170  11.534  0.1870 -0.2767  0.0841
46387W        W46587   1.111   0.970  16.691  0.1507 -0.2629  0.2877
46388W        W46588  17.479  13.197   3.529  0.3368 -0.0335  0.0561
46389W        W46589  13.850   5.715   3.068 -0.1496  0.0994 -0.4842
46390W        W46590  17.446  13.398  15.266 -0.0821 -0.0449  0.0151
46391W        W46591  10.747  17.415  10.578 -0.0177  0.2940  0.2087
46392W        W46592  17.511   8.038   7.271  0.0012  0.1315  0.2752
46393W        W46593  13.420  11.146   6.659 -0.1720 -0.0147  0.3523
46394W        W46594  11.776  14.158   1.792 -0.0504 -0.1056  0.0128
46395W        W46595   1.712  14.443   9.774  0.2108  0.0372  0.0650
46396W        W46596  17.382   7.137  10.234 -0.0750 -0.3232 -0.2316
46397W        W46597   4.894  14.348   3.610  0.0446  0.0933  0.1738
46398W        W46598   4.776  10.128   6.435  0.1380 -0.0291 -0.0003
46399W        W46599   1.450  13.127   0.345 -0.1172 -0.0743 -0.0593
46400W        W46600  15.904  14.006  11.335  0.0726  0.2309 -0.0438
46401W        W46601  10.623  17.350   6.402  0.0109 -0.1446  0.1522
46402W        W46602  11.858  17.211   1.811 -0.0423 -0.0637  0.3674
46403W        W46603   7.201  17.576  12.990  0.0097  0.1276  0.0692
46404W        W46604   1.198   9.688   4.551  0.0327  0.2294  0.1615
46405W        W46605  14.108   4.795   9.827  0.3864  0.0209 -0.0989
46406W        W46606  10.696  15.445   8.158  0.1597  0.0058  0.0157
46407W        W46607  14.298  12.168   6.340  0.0612 -0.0086 -0.0282
46408W        W46608  13.211  15.582   3.406  0.0738 -0.0196  0.0979
46409W        W46609  15.535  17.207   4.419 -0.2374  0.0888 -0.1726
46410W        W46610   0.939  13.526   1.713 -0.1124  0.1206  0.1474
46411W        W46611   9.344   3.610   9.762  0.2386 -0.1667 -0.0649
46412W        W46612  16.759  14.153   4.554 -0.1174  0.3693 -0.2355
46413W        W46613  14.518  12.936   9.914 -0.1546  0.0793  0.0375
46414W        W46614   4.987  18.170   9.892  0.2336  0.2796  0.1947
46415W        W46615  12.409   3.194  11.198  0.0720 -0.0253  0.3064
46416W        W46616  17.024  10.360  14.114 -0.0386  0.2102  0.0086
46417W        W46617  11.848  13.544   3.390 -0.2918  0.0033 -0.0092
46418W        W46618   4.100  14.774   3.715 -0.0017 -0.1299 -0.1538
46419W        W46619  10.743  10.842   5.759  0.0687 -0.2771  0.2744
46420W        W46620  10.438  15.457  10.284 -0.1641 -0.3750 -0.2831
46421W        W46621   8.801  14.922   3.546  0.2331 -0.1942  0.2094
46422W        W46622  11.942  10.878   7.669 -0.1168 -0.0463  0.1155
46423W        W46623  17.368   3.414   0.187 -0.2187 -0.4270 -0.1492
46424W        W46624   6.739   6.730  12.142 -0.0744 -0.2532  0.1276
46425W        W46625  14.934  13.371  11.909 -0.2557 -0.0300  0.2008
46426W        W46626  14.325  13.257   5.543 -0.0601 -0.1622 -0.1173
46427W        W46627   4.963  11.716  17.491 -0.1781  0.2138  0.0472
46428W        W46628  10.950  10.021   1.954  0.2480  0.1058  0.0721
46429W        W46629   3.263  15.083   1.375  0.1803 -0.2224  0.3351
46430W        W46630  11.179   5.244  12.917  0.1416 -0.1137 -0.0116
46431W        W46631   2.715   2.442   7.219 -0.0751  0.0173  0.1080
46432W        W46632  11.491  10.748   3.793  0.2213 -0.0921 -0.1179
46433W        W46633  16.418   8.448   0.007  0.1445 -0.1094 -0.1279
46434W        W46634  18.132   1.605  10.590  0.3992 -0.0833 -0.1646
46435W        W46635   3.810   8.665   6.127  0.3498 -0.0094  0.0999
46436W        W46636   8.324   5.690   1.022  0.2134  0.0789 -0.1255
46437W        W46637   0.312   9.257   1.341 -0.0169  0.0078  0.0988
46438W        W46638  12.554  12.692   0.335 -0.0878  0.0101  0.0743
46439W        W46639   0.144  11.128   5.020  0.1122 -0.0081 -0.1841
46440W        W46640   1.805  12.161   5.290 -0.0400  0.3060 -0.1477
46441W        W46641  17.139  14.152   9.184  0.0060 -0.1196  0.2861
46442W        W46642  12.447   3.374   6.341 -0.0995 -0.1020 -0.3872
46443W        W46643  16.323   6.101   7.286 -0.0790  0.0819  0.0797
46444W        W46644  17.897  12.625   6.760 -0.2196 -0.3235 -0.0536
46445W        W46645   2.079  14.306   3.778 -0.2054 -0.1682 -0.0943
46446W        W46646  10.666   8.371   3.356 -0.0316  0.0564 -0.0756
46447W        W46647  16.206  11.479   6.350  0.1134  0.2488  0.0553
46448W        W46648  12.557  17.047   3.405  0.0926  0.3429 -0.2264
46449W        W46649  14.507  16.011  15.793 -0.0264  0.0130  0.0329
46450W        W46650  18.148  18.105   1.582 -0.0110 -0.1614  0.0872
46451W        W46651   3.452   9.846   1.852  0.3556  0.0628 -0.2541
46452W        W46652  10.110  15.593  15.149 -0.1792  0.0655 -0.2508
46453W        W46653  18.054   5.543   2.876 -0.0491  0.3249 -0.1999
46454W        W46654  15.204  14.502   3.423 -0.4028 -0.0130  0.0358
46455W        W46655   1.270  12.776   2.211 -0.0706  0.0908  0.1196
46456W        W46656  15.529  12.505  17.589  0.1540  0.1427 -0.3650
46457W        W46657   0.324  11.337   2.660  0.0285 -0.0875 -0.1137
46458W        W46658  14.910   5.153  10.779  0.1102  0.0241  0.2448
46459W        W46659   3.183  14.667   7.482  0.0068  0.0724  0.1327
46460W        W46660  11.237   7.602   4.101 -0.3183  0.3873 -0.0734
46461W        W46661  16.742  11.328   7.058  0.0875 -0.0458  0.1307
46462W        W46662  13.533   3.105   8.682  0.1389  0.0819  0.1058
46463W        W46663   4.382   6.799   4.995 -0.0805 -0.0856 -0.3226
46464W        W46664   2.259  17.503   9.732  0.2024 -0.0108 -0.3700
46465W        W46665  15.909  17.088   7.153  0.1874 -0.0282 -0.0647
46466W        W46666   1.754  13.121  11.823 -0.0750  0.0171 -0.1434
46467W        W46667   2.494   4.109   4.100  0.2499  0.1945  0.3316
46468W        W46668   7.499   3.815   5.343 -0.0743 -0.0423 -0.1216
46469W        W46669  17.362  15.651   4.225 -0.0577  0.3151  0.0159
46470W        W46670  13.465  16.708  16.364 -0.0229 -0.0460 -0.0566
46471W        W46671  14.203  10.651   9.322  0.1841 -0.1553 -0.2378
46472W        W46672   4.908   2.170   1.536 -0.6594 -0.2326  0.0217
46473W        W46673   5.785  18.167   6.951  0.0482 -0.0026 -0.1962
46474W        W46674  15.846  14.252  10.898  0.2854  0.1114  0.3379
46475W        W46675  11.026  10.169   7.833 -0.0789 -0.2402 -0.2321
46476W        W46676  13.216   5.413  11.124  0.0430 -0.4302  0.1927
46477W        W46677  17.499  10.928   7.229 -0.2000 -0.1112  0.1327
46478W        W46678  12.101  13.086   2.963  0.0973 -0.1700  0.1469
46479W        W46679   8.381  16.098   9.138  0.0761 -0.3102  0.0890
46480W        W46680  15.878   7.633   7.046  0.2219 -0.2154 -0.1938
46481W        W46681  12.520  13.474  11.644 -0.2529 -0.0082  0.0237
46482W        W46682  18.136  10.518   5.879 -0.1449 -0.4120  0.0344
46483W        W46683  13.259  14.340  14.772 -0.2533 -0.1915  0.2196
46484W        W46684  14.802  10.830   9.599  0.0360 -0.4084 -0.0456
46485W        W46685   6.077   2.557   7.807 -0.0447  0.1206 -0.0673
46486W        W46686   0.019   6.825  14.681  0.0077  0.1927  0.1761
46487W        W46687  14.982   3.515  11.534 -0.4136 -0.0949 -0.1565
46488W        W46688  17.042   2.523   3.919 -0.0590 -0.0403  0.0447
46489W        W46689   5.084  12.076   0.145 -0.0905  0.0978  0.2495
46490W        W46690  14.953   8.438   0.924 -0.0625 -0.0732  0.1521
46491W        W46691   8.242   4.067   3.063 -0.1294 -0.0327 -0.0328
46492W        W46692  12.189   2.737   8.242  0.3351 -0.1837  0.1801
46493W        W46693   8.741  12.828   8.898  0.1840  0.0725 -0.0217
46494W        W46694   6.468  13.220  11.320 -0.2295  0.2495  0.0238
46495W        W46695  17.080   9.040  11.042 -0.0302  0.3451 -0.0275
46496W        W46696   3.746  12.255  15.642  0.2038 -0.1145 -0.0722
46497W        W46697   9.362  14.412  10.760 -0.1182 -0.0513 -0.1580
46498W        W46698  15.840  13.023   8.881 -0.1848 -0.0394 -0.0687
46499W        W46699   4.408  17.376   3.306 -0.0852 -0.1457 -0.2715
46500W        W46700  17.928  15.954  12.049  0.4715 -0.0035 -0.0643
46501W        W46701   1.374  11.421   6.184 -0.2637 -0.3976 -0.1853
46502W        W46702   2.871  14.560   7.053 -0.1073 -0.4127  0.0284
46503W        W46703  10.443  16.994   3.580  0.2037 -0.2350 -0.1819
46504W        W46704  16.258   8.466   6.712  0.0434 -0.2825  0.2436
46505W        W46705   6.754   0.161   6.947 -0.2879 -0.0718  0.1485
46506W        W46706  13.700  11.667   8.929 -0.0988  0.1174  0.0005
46507W        W46707   5.374   7.155  11.061  0.1114 -0.1326  0.1543
46508W        W46708  15.322  15.173   6.941  0.2628  0.0496 -0.0094
46509W        W46709   1.017   4.009   9.001  0.0946 -0.1767 -0.4896
46510W        W46710  10.488   1.124   9.457 -0.1062 -0.1089 -0.0555
46511W        W46711   7.052  17.643   2.862 -0.3630  0.3008  0.0571
46512W        W46712  12.937   1.318   8.292 -0.2139 -0.3187  0.2713
46513W        W46713  14.876   1.252  11.034  0.1341  0.2223 -0.2442
46514W        W46714  14.466  14.383   5.978 -0.2044 -0.0032  0.0207
46515W        W46715   3.678  14.337  16.492  0.1725 -0.2612  0.1458
46516W        W46716   4.606   7.768  10.185 -0.1386 -0.2395 -0.2196
46517W        W46717  15.703   4.006  10.294  0.1956  0.1839 -0.2330
46518W        W46718   8.623   8.088   5.078 -0.0225 -0.0367  0.1724
46519W        W46719   1.689   9.574   4.686 -0.2881  0.0097  0.0515
46520W        W46720   7.088  14.362   9.976  0.1805 -0.2190 -0.1360
46521W        W46721   8.119   1.990   8.154  0.1481  0.1333 -0.1100
46522W        W46722   1.199   8.496   6.924  0.0729 -0.0330 -0.0575
46523W        W46723  17.303  15.106   2.483 -0.3203 -0.0938 -0.0112
46524W        W46724   6.547   3.461   3.740 -0.2967 -0.3513  0.0685
46525W        W46725  15.930   8.474  12.749 -0.1023  0.0130  0.1680
46526W        W46726  13.162   8.552  14.148  0.2633  0.1644 -0.1967
46527W        W46727  13.962   5.904   5.710 -0.1943 -0.0067 -0.1909
46528W        W46728   0.286   9.649   0.247 -0.4703  0.1561  0.0916
46529W        W46729  14.640   2.782  16.428 -0.2569 -0.2463  0.1033
46530W        W46730   9.360  14.220   0.807 -0.0574  0.2391 -0.0568
46531W        W46731   0.566   9.648   3.820 -0.0608  0.0581 -0.2558
46532W        W46732  15.523  16.506   9.453 -0.1443 -0.0611  0.4318
46533W        W46733  16.654   1.232  13.650 -0.2154  0.0695 -0.0143
46534W        W46734   5.651   6.114   5.484 -0.2604  0.0141  0.0578
46535W        W46735  15.502  17.101  12.620 -0.1568  0.3222  0.1338
46536W        W46736  10.534  16.211   1.066 -0.1787  0.1300  0.2155
46537W        W46737  13.424  14.325   8.907  0.2097 -0.0458  0.1692
46538W        W46738   2.419   1.782   6.005 -0.1459 -0.1041 -0.0592
46539W        W46739   0.151   4.244   8.619 -0.0221 -0.1297  0.3688
46540W        W46740  11.114   7.816   0.277 -0.0413  0.1905 -0.0273
46541W        W46741  12.429   8.455   6.952  0.2320 -0.1149 -0.4670
46542W        W46742  12.944  17.789   7.362  0.0594 -0.1212  0.2046
46543W        W46743  12.014  11.630   5.203 -0.1385 -0.0751  0.0729
46544W        W46744  18.110   8.758  18.019  0.3116 -0.0714  0.2314
46545W        W46745   2.327   4.314  12.113 -0.0781 -0.0690 -0.2026
46546W        W46746  13.151  15.469  11.014  0.0141 -0.0270 -0.3746
46547W        W46747  15.480  12.435   6.003 -0.0104  0.1797  0.0179
46548W        W46748   5.950  16.012  11.382  0.1342 -0.1782 -0.0382
46549W        W46749  14.616  14.051   8.761 -0.4145 -0.3301  0.3902
46550W        W46750   7.351   8.731  17.485 -0.1594  0.0126  0.0996
46551W        W46751   9.499  16.549  10.206 -0.1510 -0.2728  0.0148
46552W        W46752   2.092  11.019   2.664  0.0666  0.0566 -0.0496
46553W        W46753  15.916  17.663   3.091 -0.1048 -0.3385 -0.0404
46554W        W46754   0.587   6.063  15.109 -0.3131  0.2799  0.0885
46555W        W46755   1.544   5.098   6.124  0.2980  0.0856 -0.1462
46556W        W46756  12.246  15.945   0.135 -0.1125  0.1283  0.1610
46557W        W46757  13.490  14.389   5.291 -0.2988  0.3191 -0.1062
46558W        W46758   1.504  14.717  15.690  0.0223  0.0884 -0.0393
46559W        W46759   0.576  16.984   3.737  0.2239  0.0012 -0.0015
46560W        W46760  17.226  14.218   1.304  0.1801 -0.0379 -0.2056
46561W        W46761   4.248  12.647   1.059  0.0548  0.1436  0.0928
46562W        W46762  13.537   8.901   8.520  0.2998  0.0187  0.2924
46563W        W46763  10.676  13.698   9.709 -0.1244 -0.3145 -0.0515
46564W        W46764  11.201   8.927  14.896 -0.0213 -0.1587 -0.3564
46565W        W46765  13.443  13.921   0.501 -0.0292 -0.0059  0.0995
46566W        W46766   0.796  15.952   0.091  0.0136  0.1573  0.2717
46567W        W46767  11.958  13.110  16.470  0.0294  0.2480 -0.1864
46568W        W46768  13.454   9.858   4.933 -0.3275  0.0614 -0.0821
46569W        W46769  14.670  11.308  16.827  0.1584  0.0726  0.3341
46570W        W46770  17.651  10.922   4.307 -0.3944 -0.0720  0.3191
46571W        W46771  15.921  15.247  12.111  0.1934  0.1104 -0.0961
46572W        W46772  12.256  11.607   4.411 -0.3535  0.2755 -0.0461
46573W        W46773  13.738   4.366   9.848 -0.0459 -0.0854  0.2911
46574W        W46774   4.266  14.317   6.504 -0.1313 -0.3452  0.1126
46575W        W46775  16.858  16.446   6.781  0.0599  0.1449 -0.0637
46576W        W46776  12.407  10.815   6.176 -0.1100  0.0581 -0.0083
46577W        W46777  16.384  12.377  12.927 -0.0197 -0.2533  0.0452
46578W        W46778   0.779  12.826   8.063 -0.1891  0.0289  0.2793
46579W        W46779   9.747  17.974   8.118 -0.2353  0.1032  0.0476
46580W        W46780   1.271  11.461  11.998  0.0803  0.0430 -0.1050
46581W        W46781  16.216  12.423   9.967  0.0789  0.1683  0.0826
46582W        W46782  15.145  12.257  14.430  0.0430 -0.1753 -0.0277
46583W        W46783  15.250  12.193   3.079  0.1700 -0.1093  0.0949
46584W        W46784  15.529  16.698  10.244  0.0521 -0.3778  0.2795
46585W        W46785   9.378   3.628   6.005  0.1099 -0.0475 -0.0948
46586W        W46786  15.765  17.031   6.215 -0.0923 -0.1908 -0.2477
46587W        W46787   2.344   1.979   5.469 -0.0944 -0.0476  0.2893
46588W        W46788   6.973  10.566  12.089  0.0925 -0.1771  0.0929
46589W        W46789  14.435  15.421   7.197 -0.0980  0.0668 -0.0756
46590W        W46790  16.078  10.180   0.906  0.2507 -0.0031  0.0409
46591W        W46791  14.198  13.906   7.238 -0.0361 -0.0813 -0.1768
46592W        W46792  16.333  14.833  15.750 -0.1561 -0.1927 -0.0469
46593W        W46793   2.000  12.272  10.791  0.1713  0.1489  0.1491
46594W        W46794  11.524   9.090   0.168 -0.1556  0.1402  0.0365
46595W        W46795  17.626   5.900   8.678  0.0361 -0.4587  0.1349
46596W        W46796  16.414  12.491   2.422 -0.1153  0.0070  0.2079
46597W        W46797  16.917   7.139  11.117 -0.1457  0.0873 -0.0338
46598W        W46798  14.262  13.464   3.820  0.0315 -0.2018 -0.2347
46599W        W46799  18.087   8.142   9.175  0.0255  0.2599  0.0211
46600W        W46800   0.364  10.047   4.805  0.1664 -0.0259  0.0698
46601W        W46801   2.843  12.051   6.580  0.2655 -0.0940  0.2469
46602W        W46802  14.882  10.788   3.970 -0.1216  0.1696  0.1219
46603W        W46803   0.845  11.975  13.077 -0.2370 -0.2186  0.0852
46604W        W46804   4.696  12.443   5.988 -0.1525 -0.1925 -0.3102
46605W        W46805   9.198  13.854   7.081  0.1710  0.0219  0.2069
46606W        W46806  17.905   8.109   9.631 -0.2300  0.1477  0.1201
46607W        W46807  11.269  10.566   0.177 -0.1679 -0.0893  0.0757
46608W        W46808   9.814   9.713   7.323 -0.0725  0.3019  0.3328
46609W        W46809   9.018   6.276   3.873  0.2479  0.1715 -0.2661
46610W        W46810  10.695  17.295   4.361 -0.0924 -0.0128  0.1060
46611W        W46811   5.325   8.541   4.342 -0.3268  0.1596 -0.2627
46612W        W46812  15.225   8.090   1.728  0.1368 -0.0470  0.0579
46613W        W46813   7.187  14.892  14.292 -0.0627  0.0464 -0.3008
46614W        W46814   8.707  16.615   3.436  0.2428  0.0054 -0.1486
46615W        W46815  10.263  15.474   1.131 -0.2352 -0.0028  0.0264
46616W        W46816   9.334  15.385   7.974 -0.2109 -0.0749  0.2551
46617W        W46817  14.012  15.305   2.976  0.1312  0.0253  0.3234
46618W        W46818  14.859   2.207  13.781 -0.1328 -0.2611  0.0928
46619W        W46819  14.077   9.323  13.507 -0.1239  0.2186 -0.0589
46620W        W46820   3.301   2.142   2.996 -0.2034  0.1622 -0.0870
46621W        W46821   8.996  14.202   2.814  0.1462 -0.2479 -0.3836
46622W        W46822  12.602  12.611   8.650 -0.2300  0.0750 -0.0127
46623W        W46823  15.708  12.075  10.446 -0.0521  0.1534 -0.0990
46624W        W46824  13.906  15.582  12.106  0.0939  0.2855 -0.0516
46625W        W46825  16.127  11.702  15.162 -0.1277  0.1157  0.3650
46626W        W46826   4.484   1.623   3.307  0.1008  0.1377  0.0846
46627W        W46827   2.003  17.578   2.651  0.1635  0.1060 -0.1364
46628W        W46828  10.299   8.539   8.311 -0.3556  0.1104 -0.0424
46629W        W46829  10.186   0.148   3.136  0.1535  0.3222  0.1373
46630W        W46830   7.274  10.523  10.374  0.0593  0.1205  0.1516
46631W        W46831   3.978   1.774   7.619 -0.1619 -0.1965  0.0608
46632W        W46832  15.622   7.162   7.212 -0.2989  0.1525  0.3139
46633W        W46833   5.651  15.301  13.051  0.0820  0.2052 -0.2507
46634W        W46834   6.923   2.185   6.105 -0.0839  0.3560  0.2204
46635W        W46835   1.924  11.558  17.316  0.1544  0.3367 -0.4173
46636W        W46836  14.207   6.881   4.345 -0.5506  0.1914  0.0128
46637W        W46837   2.200   5.678   8.985  0.0848 -0.0686  0.0798
46638W        W46838  15.539   9.933  10.004  0.0593 -0.0357  0.0449
46639W        W46839  11.908  14.069   8.587  0.1389 -0.3132 -0.2239
46640W        W46840   5.473   6.325  18.058  0.0721 -0.0523  0.0667
46641W        W46841   0.926   8.893  15.737 -0.0948  0.1378  0.0176
46642W        W46842  16.481  14.277   4.151 -0.0865  0.0229 -0.0950
46643W        W46843   5.252  12.015   9.862 -0.0911  0.2470  0.3180
46644W        W46844  15.941  14.754   3.572 -0.2106 -0.4223 -0.1199
46645W        W46845   6.866  12.292   7.213  0.1020 -0.3132  0.1488
46646W        W46846   1.794   9.281   4.169 -0.1208  0.2129  0.0633
46647W        W46847  11.918  10.250   2.507 -0.2153  0.0639 -0.0129
46648W        W46848  17.208  13.241   4.806 -0.3007  0.1887 -0.2611
46649W        W46849  13.856  14.012   4.315  0.2095  0.3280 -0.0393
46650W        W46850  17.322  16.300   8.305 -0.1536  0.0235  0.0409
46651W        W46851  17.752   0.813  10.259  0.1939 -0.1442  0.2545
46652W        W46852   2.080  13.821   1.770  0.1159  0.2356  0.0048
46653W        W46853   2.292   1.237  17.220 -0.0872 -0.3914 -0.1511
46654W        W46854   0.394  12.580   2.217  0.1291 -0.0018  0.0439
46655W        W46855   4.137   0.840   6.822 -0.1073  0.2677 -0.2756
46656W        W46856   1.260  13.076   6.882  0.0621 -0.0121  0.2730
46657W        W46857  10.930  10.738   7.189 -0.1052 -0.0380  0.1679
46658W        W46858  11.939   9.337   2.542  0.1656 -0.0509 -0.1174
46659W        W46859  13.262  13.251   8.140 -0.0585  0.1420 -0.0825
46660W        W46860  16.769   8.583  12.454  0.1947 -0.2530  0.1182
46661W        W46861  10.013   9.803   5.458  0.1227 -0.2345  0.2176
46662W        W46862  12.149   7.799   1.880  0.1207  0.2014  0.0986
46663W        W46863  10.198  10.513   7.646  0.1657 -0.1410  0.2677
46664W        W46864  15.266   6.520   7.894  0.0472  0.2679 -0.1882
46665W        W46865  13.434   5.195   1.049  0.0191  0.0880  0.4066
46666W        W46866   7.896  10.424  16.987 -0.1971 -0.0343 -0.3128
46667W        W46867  17.395   6.482   4.503 -0.0573  0.1784  0.0228
46668W        W46868  10.652  14.119   1.151  0.2837 -0.2473  0.0374
46669W        W46869   0.956  11.209  10.113 -0.0705 -0.1519 -0.2732
46670W        W46870   8.048   5.587  15.203 -0.1429  0.4231  0.1036
46671W        W46871  18.059  10.026   4.677  0.0847 -0.0509  0.1818
46672W        W46872   5.516  15.903   4.499  0.0979  0.1232  0.1815
46673W        W46873  12.557  15.747   7.207  0.0833 -0.0196 -0.0708
46674W        W46874  15.819   0.554   3.928  0.0483 -0.1121 -0.0544
46675W        W46875  12.641  11.636   5.826  0.2808 -0.0403 -0.1358
46676W        W46876  13.618  11.621  11.592  0.0386 -0.2550  0.1134
46677W        W46877  15.471   7.658  15.985  0.0194 -0.0874 -0.1031
46678W        W46878   3.632   4.245  11.030 -0.1081  0.1792  0.1158
46679W        W46879  16.302  17.748   8.481  0.1109 -0.2962  0.1962
46680W        W46880   4.941   9.479   0.196  0.0008 -0.1190 -0.0368
46681W        W46881  18.057  15.595  16.646  0.0653  0.0714 -0.0620
46682W        W46882  14.769   8.838   7.905 -0.1575  0.3867  0.1061
46683W        W46883  17.715  13.125   8.804 -0.1305  0.0553 -0.0313
46684W        W46884  16.920  10.040  13.004  0.2253  0.1885 -0.1852
46685W        W46885  16.691  11.475   4.954  0.0591 -0.1224  0.0360
46686W        W46886  15.566  16.040  15.939  0.2589  0.0786 -0.1546
46687W        W46887   7.259  15.145   7.077 -0.0059 -0.2964  0.1269
46688W        W46888   4.275  11.982   5.032 -0.4804  0.1362 -0.0875
46689W        W46889  14.064  11.175   5.019  0.1395 -0.2955 -0.4637
46690W        W46890   2.829  12.448  16.756  0.1207 -0.2320 -0.4056
46691W        W46891  13.311  13.702  12.069 -0.1237  0.1863 -0.1346
46692W        W46892   0.979  14.877  15.971  0.1150  0.2094 -0.1207
46693W        W46893   4.663   5.343   8.636 -0.2244 -0.0948 -0.1003
46694W        W46894   7.184   7.263   9.145  0.3230 -0.1743 -0.1484
46695W        W46895  10.661   8.713   0.075 -0.0215  0.3247 -0.0446
46696W        W46896  16.852  14.383   5.716 -0.3175  0.0573  0.0863
46697W        W46897  10.499   9.018   4.890 -0.1679  0.3502  0.2133
46698W        W46898  13.524   1.059   5.244  0.1957 -0.2877 -0.1876
46699W        W46899   8.644  11.850   5.069 -0.1847 -0.1108 -0.0420
46700W        W46900  12.201   2.200   6.717 -0.0536 -0.3085 -0.0448
46701W        W46901   9.102  13.909   5.882 -0.1754  0.2836 -0.1250
46702W        W46902   9.800   4.971   0.377 -0.0867 -0.4598 -0.0195
46703W        W46903   0.805  12.847   3.505  0.0159  0.1768 -0.2987
46704W        W46904   6.599  14.793   6.493 -0.0804  0.2853  0.2322
46705W        W46905  14.913   8.481  10.152  0.0445 -0.2938 -0.1342
46706W        W46906   6.889   6.223  15.506  0.2585  0.1608  0.1633
46707W        W46907  13.989  11.321  15.212 -0.3767 -0.0396  0.0077
46708W        W46908   8.480  12.684  12.562  0.0741  0.0183  0.2990
46709W        W46909   4.677   0.627   9.475 -0.1352  0.0943 -0.0831
46710W        W46910  12.574  13.362   8.622 -0.2230  0.0771 -0.0870
46711W        W46911  13.252  12.907  10.459 -0.0362 -0.0195  0.2323
46712W        W46912  12.922  15.002   7.480 -0.2740 -0.2055  0.0171
46713W        W46913  14.247   2.877   0.391  0.2537  0.0672  0.1582
46714W        W46914  12.310   9.335   7.680 -0.1278  0.0648 -0.1334
46715W        W46915   1.908  11.946   3.803 -0.1962 -0.1591 -0.2773
46716W        W46916  17.359  11.891   5.866  0.4282 -0.2785 -0.3073
46717W        W46917   5.151   9.483   4.719 -0.1168 -0.0234  0.2485
46718W        W46918  10.363  17.524   9.048  0.3139  0.3831  0.1502
46719W        W46919   0.439  14.611  10.940 -0.2321  0.0757 -0.2067
46720W        W46920  12.775   7.507  17.502 -0.3668  0.2441 -0.0222
46721W        W46921   9.639  11.032   1.970 -0.2085 -0.2890 -0.0365
46722W        W46922  10.380  15.058   3.625 -0.0763  0.1202 -0.1781
46723W        W46923  16.202  13.498  11.369 -0.0182  0.1815 -0.0290
46724W        W46924  11.509  10.625  14.746  0.0139  0.2237 -0.2663
46725W        W46925  16.759   8.782   4.409  0.3741  0.1508 -0.3054
46726W        W46926  15.007  10.561   8.989 -0.6541  0.2388 -0.3490
46727W        W46927   0.165  13.445   2.953  0.1182  0.2522 -0.0321
46728W        W46928  13.426   7.083  11.840 -0.0303  0.1941  0.1141
46729W        W46929   0.125  17.028   2.861  0.0138 -0.3078 -0.3488
46730W        W46930   2.149   0.353  15.392 -0.0367  0.3053 -0.2620
46731W        W46931   3.343  16.635   4.080  0.1037 -0.0382 -0.1174
46732W        W46932   0.300  16.860   1.853 -0.0365 -0.0470 -0.2835
46733W        W46933  15.484   8.699  11.292  0.1722  0.0621 -0.2095
46734W        W46934  11.685   5.303  12.854 -0.0297  0.0175  0.0835
46735W        W46935  12.468   6.512   3.613  0.1271  0.2489 -0.0106
46736W        W46936   7.960  15.451  16.340  0.0289  0.0486 -0.3778
46737W        W46937  15.594   4.292  15.042 -0.0713  0.5277  0.2160
46738W        W46938   2.663  16.841   4.649 -0.0541  0.2600  0.1162
46739W        W46939  16.302  16.610  16.837  0.1450  0.1304 -0.1007
46740W        W46940   9.770  12.839   6.216  0.3417  0.1101 -0.0069
46741W        W46941   9.755  11.408   6.159  0.0330 -0.1553 -0.1458
46742W        W46942   3.296  14.361   3.647 -0.0698  0.1870 -0.0679
46743W        W46943  17.112   7.262   3.063 -0.0058  0.2848  0.0564
46744W        W46944   8.558   9.352  11.616 -0.0688  0.2084 -0.0796
46745W        W46945  18.106  13.064   2.869  0.0543 -0.1159 -0.3437
46746W        W46946  13.393  15.114   9.982 -0.1612  0.0260 -0.1475
46747W        W46947   4.379  17.249   2.830 -0.0208  0.0830 -0.0975
46748W        W46948  15.735   5.672   5.091 -0.0340 -0.0673 -0.3824
46749W        W46949   8.575   8.297  17.274 -0.0596 -0.1213  0.2708
46750W        W46950  14.185   0.082   4.266  0.0323  0.1901  0.2768
46751W        W46951   2.865  10.001  10.792  0.1859 -0.1499  0.1626
46752W        W46952   0.579   0.449  13.460 -0.0370 -0.1179  0.0437
46753W        W46953  11.996   1.127   1.972  0.0302 -0.0352  0.1099
46754W        W46954  10.477   2.662   5.182  0.1267  0.0760 -0.0109
46755W        W46955  14.158   6.670   4.841 -0.1568 -0.3058  0.0003
46756W        W46956   0.079  13.082   5.297 -0.2448 -0.1230  0.0093
46757W        W46957  17.752  10.794  18.073 -0.1024  0.1236  0.2821
46758W        W46958   2.546  17.394   1.614 -0.2255  0.1732 -0.1877
46759W        W46959   3.060  16.036  16.472  0.1333  0.1394 -0.1467
46760W        W46960   9.425  16.810   5.558  0.1685 -0.2593  0.1585
46761W        W46961   8.738  16.014   1.524 -0.1735 -0.0811 -0.1570
46762W        W46962   6.277  12.818   9.810  0.0252 -0.3851 -0.0910
46763W        W46963  17.708   5.028   1.711 -0.1327  0.0716 -0.0798
46764W        W46964  14.444  13.816  14.363 -0.0431 -0.1248 -0.2127
46765W        W46965  12.903   6.032  12.935  0.3179  0.0816 -0.2011
46766W        W46966  11.680   1.458   8.480 -0.2501  0.1394  0.0102
46767W        W46967  15.423   7.008  13.621 -0.0728  0.0514 -0.0255
46768W        W46968   0.828  14.681   6.148 -0.0784  0.1244 -0.0017
46769W        W46969   2.334  16.423   0.890  0.1833  0.3569  0.0291
46770W        W46970   4.048  13.665   3.453  0.0368  0.1001  0.1539
46771W        W46971   7.375  14.407  10.841 -0.0865 -0.0574  0.0546
46772W        W46972  12.693   1.649   4.515 -0.1996  0.1771  0.0398
46773W        W46973  16.347   8.699   3.151 -0.0480  0.5218 -0.2102
46774W        W46974  16.155   2.772  16.452 -0.3243  0.3984 -0.0555
46775W        W46975   5.342   5.928   5.196 -0.0765 -0.2107  0.0489
46776W        W46976   2.048  14.610   3.251 -0.3475  0.0594 -0.0164
46777W        W46977   2.623  10.834   5.893  0.0118 -0.2032  0.1016
46778W        W46978   3.938  16.666   8.746  0.0336 -0.1158 -0.3494
46779W        W46979  17.691   6.908   6.472  0.1299  0.2762  0.2530
46780W        W46980  15.670  12.953   3.641  0.1389 -0.4404  0.0758
46781W        W46981   0.695  14.696   3.690 -0.0560 -0.1992 -0.4085
46782W        W46982  11.521  17.550   5.316  0.1144 -0.0862 -0.3579
46783W        W46983  17.017   3.286   8.645  0.1151  0.0997 -0.3407
46784W        W46984  13.276  13.582   5.592  0.0544  0.0279  0.2719
46785W        W46985  15.749  16.289  16.809  0.1400 -0.2545 -0.0902
46786W        W46986   4.049   9.900  13.124 -0.1802  0.0745  0.0995
46787W        W46987  16.473  14.736   6.959  0.0041  0.0535  0.0909
46788W        W46988   0.881  11.457   4.456 -0.2157  0.3329  0.0003
46789W        W46989  14.952  12.652   6.024  0.2166  0.0557  0.1611
46790W        W46990  15.526  11.833   7.534 -0.2568  0.0095 -0.2043
46791W        W46991   9.238  11.169   6.124  0.1629 -0.0914 -0.3084
46792W        W46992  11.342   7.807   6.017 -0.3223 -0.0396 -0.1022
46793W        W46993  11.595   4.684  12.161  0.1068 -0.2004 -0.0749
46794W        W46994  14.355   9.563   5.301  0.1448  0.2140  0.3403
46795W        W46995   1.968   6.834  16.619 -0.1279 -0.0136  0.0584
46796W        W46996   2.475   6.025  12.428 -0.0273 -0.0899  0.0271
46797W        W46997   0.482   5.250   8.768  0.0445 -0.0853 -0.1051
46798W        W46998  14.092  13.452  17.879 -0.0097 -0.1242  0.0372
46799W        W46999  15.193  14.405   9.520  0.0981  0.0613  0.0534
46800W        W47000   9.164  11.287  14.412 -0.0220 -0.2210 -0.1299
46801W        W47001  15.940   5.793  13.459  0.0634  0.0457 -0.0067
46802W        W47002   3.482   9.533  10.901 -0.0319  0.0043  0.0836
46803W        W47003   1.311  17.987   6.552 -0.0395  0.0967  0.4322
46804W        W47004   9.605  11.955   6.218  0.1923 -0.2464  0.1219
46805W        W47005   0.630  11.391   6.918 -0.3948  0.0874  0.0351
46806W        W47006   4.826   9.123   9.639  0.1009 -0.0120  0.0655
46807W        W47007   0.696  12.172   2.224 -0.0639  0.3162 -0.2345
46808W        W47008  17.487  10.840   1.033  0.0434 -0.1040  0.0745
46809W        W47009  11.474   8.162  10.816  0.0365  0.0829 -0.0065
46810W        W47010   4.317  17.962  12.608 -0.0118 -0.0914 -0.0685
46811W        W47011   8.726  11.159  10.895  0.1553  0.2148  0.1065
46812W        W47012  18.042   8.596  11.322  0.1055 -0.2518 -0.0539
46813W        W47013  12.854  10.096   8.914 -0.0294  0.1145  0.0060
46814W        W47014   1.374  11.834   7.189 -0.2920  0.1802  0.3251
46815W        W47015  17.469  13.834  11.400  0.2728  0.0597 -0.0020
46816W        W47016   3.351   1.848  13.362  0.1555 -0.1479  0.2250
46817W        W47017   9.487  16.324   6.881  0.0922 -0.0752 -0.0067
46818W        W47018  10.298   2.467  16.030 -0.2727  0.2897 -0.0680
46819W        W47019   0.049  16.597  14.171  0.3793 -0.1801  0.1452
46820W        W47020  10.781  14.811   4.502 -0.1253  0.3054  0.0490
46821W        W47021  15.040   1.526   4.602  0.1209 -0.1150 -0.1336
46822W        W47022   2.990  10.443   5.016  0.3366  0.0532  0.1470
46823W        W47023  11.378   7.504   6.503 -0.1445 -0.0873  0.0425
46824W        W47024  17.594   1.103   9.552  0.0578 -0.0001 -0.2564
46825W        W47025  11.335  15.751  13.440 -0.0288 -0.2116 -0.0191
46826W        W47026  14.747   7.734  12.488  0.0421  0.0171  0.1587
46827W        W47027  17.542   8.667   9.399  0.0015  0.1235 -0.0646
46828W        W47028   5.312  15.763  12.729  0.1341  0.0127  0.0292
46829W        W47029   3.271  15.884   1.594  0.2032 -0.3432 -0.0991
46830W        W47030  14.425  15.528   2.755  0.1944 -0.0350  0.3248
46831W        W47031  13.361  17.695  16.320  0.1701 -0.2510  0.4063
46832W        W47032   8.407   8.539   6.770 -0.1335  0.1774  0.3473
46833W        W47033  13.266  11.681   5.391  0.1493  0.1580 -0.0435
46834W        W47034   1.642   4.510   7.984  0.1041  0.1277 -0.0159
46835W        W47035  16.894  12.364   5.199 -0.2725  0.1736 -0.2649
46836W        W47036  13.021  12.128  13.815 -0.0065  0.1037 -0.0584
46837W        W47037   0.129  11.481  10.501  0.1804 -0.4916 -0.0904
46838W        W47038   5.586  18.156  13.327 -0.0520 -0.1054  0.0292
46839W        W47039  12.760  14.406   2.952  0.1579  0.1237 -0.1483
46840W        W47040  13.450  11.546  13.458  0.0500 -0.1004  0.1367
46841W        W47041  11.145  12.851  15.921  0.0010 -0.4454  0.1284
46842W        W47042   9.652  10.218   5.316  0.0838  0.3864 -0.0195
46843W        W47043  10.768  14.727   9.854 -0.1144  0.0531 -0.1353
46844W        W47044  15.500   3.184  15.285 -0.1585  0.2171  0.0687
46845W        W47045  16.175  10.590   7.877  0.1507 -0.1093  0.1463
46846W        W47046  14.112  17.752  16.782 -0.0115  0.0901 -0.1242
46847W        W47047  12.848  12.550  11.361  0.0634 -0.1754 -0.0318
46848W        W47048   6.506   8.050  14.526 -0.4250  0.3270 -0.3035
46849W        W47049   0.584   1.447   3.876  0.1457  0.0313  0.2196
46850W        W47050  16.860  14.877  15.574 -0.4231 -0.1547  0.1564
46851W        W47051  14.070  14.825   7.296 -0.1025 -0.0798 -0.0230
46852W        W47052   0.448  14.953   5.254 -0.1807  0.0104  0.0702
46853W        W47053  11.703  12.389   0.785 -0.0561  0.0744  0.0082
46854W        W47054   9.649  12.985   0.224  0.0577 -0.0392  0.4094
46855W        W47055  11.378  14.164   5.913  0.0513  0.1332  0.0213
46856W        W47056  16.479   9.451   9.610 -0.0338  0.3003 -0.0813
46857W        W47057  13.455  11.576   3.306  0.1211  0.2287  0.0813
46858W        W47058  15.336   5.076   5.593  0.0574  0.0756  0.0663
46859W        W47059   2.028   9.774  11.183  0.0060  0.0315  0.0122
46860W        W47060  12.289  15.244   5.172 -0.2916 -0.0301 -0.1333
46861W        W47061  11.630  14.098   6.757 -0.0190  0.2369  0.0431
46862W        W47062  13.273  15.377  18.080  0.0096  0.1118 -0.0868
46863W        W47063  14.886  11.212  11.976 -0.3615 -0.0557  0.0757
46864W        W47064   1.414   3.343   0.880 -0.0350  0.0928  0.0073
46865W        W47065   1.965   0.958  10.700 -0.1593 -0.2856  0.3221
46866W        W47066   6.910   7.563   6.989  0.0180 -0.0809 -0.3836
46867W        W47067  17.939   9.261  17.783  0.0906  0.1575 -0.2046
46868W        W47068  15.106  13.401   6.403  0.0735 -0.2071  0.1061
46869W        W47069   0.506   9.718   8.147 -0.0687 -0.0805  0.0390
46870W        W47070   9.315   7.440  14.186 -0.1361 -0.2514 -0.1591
46871W        W47071  17.407  13.773  10.037 -0.0396  0.0832 -0.1133
46872W        W47072   3.289  17.825   9.201 -0.2501 -0.0525  0.1040
46873W        W47073   7.369  14.958   7.558 -0.1147  0.2117  0.1875
46874W        W47074  11.729   9.174   6.316 -0.0163 -0.1109  0.0528
46875W        W47075  14.359  16.130   6.945  0.5445 -0.1917  0.1933
46876W        W47076   3.721   2.045   6.053  0.0890 -0.1285 -0.0946
46877W        W47077   7.558  16.850  10.949  0.1040 -0.1273  0.2838
46878W        W47078  15.539  15.114  14.297  0.0396 -0.1560  0.0375
46879W        W47079  11.744  13.321   6.732  0.0978 -0.1474 -0.0332
46880W        W47080   8.895  10.932  11.366  0.0345  0.0449 -0.0407
46881W        W47081   1.720  15.731   7.929 -0.1907  0.3224  0.2443
46882W        W47082  12.462  17.954   5.664  0.1320 -0.0642 -0.1797
46883W        W47083  16.981  15.737  11.906  0.0127 -0.1873 -0.0684
46884W        W47084  16.815   6.410   7.033  0.1566  0.1006  0.1352
46885W        W47085   8.683  10.417   7.659  0.0260  0.1792  0.3356
46886W        W47086   0.729   7.078  14.994  0.1193  0.4566  0.0122
46887W        W47087   9.415  14.507  16.622  0.1867  0.0725  0.0195
46888W        W47088   0.421   7.886   5.934 -0.2883  0.0959 -0.0336
46889W        W47089   3.507   1.282  13.705  0.1770  0.2133  0.1353
46890W        W47090   7.113   2.155  15.996 -0.1249  0.1894  0.1705
46891W        W47091  13.607  12.530  14.513  0.1520  0.0952  0.1169
46892W        W47092   2.336   9.206  12.266 -0.2551  0.0365 -0.1237
46893W        W47093   0.467  15.100   7.842  0.2032 -0.4235  0.4364
46894W        W47094   1.195  14.916   4.786 -0.0033  0.0585  0.1321
46895W        W47095  16.290  12.972   6.995 -0.2350 -0.2404  0.3465
46896W        W47096  14.189  16.679  10.337  0.3315 -0.4395  0.0970
46897W        W47097  10.998  10.385  14.033 -0.0358  0.2099  0.1895
46898W        W47098  12.878   6.012   7.275  0.1099  0.1251  0.2757
46899W        W47099   2.787  18.048  11.993 -0.0737  0.3272 -0.0665
46900W        W47100   3.324   3.227   7.100 -0.1189 -0.0306  0.2704
46901W        W47101   2.863  17.690   7.538 -0.3362  0.1954  0.0111
46902W        W47102  18.103   9.661  10.055 -0.0063  0.2232 -0.2296
46903W        W47103   4.744  10.706  15.391  0.3156 -0.1998 -0.0061
46904W        W47104  16.652  11.709  15.415  0.0100 -0.0345 -0.0683
46905W        W47105   3.441  18.067   7.187  0.2053 -0.4620  0.1412
46906W        W47106  15.465  10.176   4.949  0.1363 -0.2997  0.2711
46907W        W47107  17.634   7.409   6.270 -0.3010 -0.1229 -0.1138
46908W        W47108   7.210  15.527   8.557  0.0892  0.1014  0.1521
46909W        W47109   9.430  11.237  12.628  0.1287  0.0455  0.2821
46910W        W47110  17.342   1.059   4.881 -0.0313  0.0051 -0.3277
46911W        W47111  14.705   6.850   7.060 -0.0462 -0.1181  0.1538
46912W        W47112   2.092  11.725  12.330 -0.0273 -0.1790  0.0645
46913W        W47113   2.208   4.798   6.913 -0.0224  0.2829 -0.0122
46914W        W47114  10.767  13.031  11.540  0.4440 -0.0445  0.1686
46915W        W47115  12.729  14.954  13.721  0.0289 -0.1783  0.1727
46916W        W47116   0.005  15.068   8.011 -0.1444 -0.0039 -0.2480
46917W        W47117  16.216   9.959  10.739 -0.0274  0.1067  0.1656
46918W        W47118  17.064  16.473   4.589 -0.0556 -0.2103 -0.0564
46919W        W47119   7.351   9.775   5.175  0.1015  0.0362 -0.0666
46920W        W47120  11.743  10.156  16.815 -0.0019 -0.2358 -0.2565
46921W        W47121  16.835  16.523   9.859 -0.0243 -0.0115  0.0196
46922W        W47122   5.256   9.452  13.059 -0.3141 -0.1722  0.0932
46923W        W47123   1.003   5.145   8.104  0.1243  0.2232  0.2279
46924W        W47124   1.427   9.453   3.624  0.1714  0.0489 -0.1503
46925W        W47125  16.603  16.502   5.049 -0.0267 -0.2286  0.1579
46926W        W47126  16.974  12.961  13.308  0.0365 -0.2104  0.0016
46927W        W47127   1.888  10.532   8.937 -0.1888  0.1149 -0.0688
46928W        W47128  17.624   0.581   9.855  0.1489  0.1890  0.2018
46929W        W47129   5.084   9.165   2.654 -0.1378 -0.1033  0.0469
46930W        W47130  14.938  14.832   3.792 -0.2430  0.2596  0.0077
46931W        W47131  17.801  14.228  11.287 -0.0966 -0.0926 -0.0867
46932W        W47132  12.215   7.582  13.675 -0.2877  0.0791 -0.0309
46933W        W47133  17.517  16.726  11.011 -0.1891 -0.0357 -0.1778
46934W        W47134  11.150   0.703  13.342  0.2699 -0.3973 -0.1431
46935W        W47135  15.776   8.437  14.746 -0.1912 -0.1415 -0.1413
46936W        W47136   3.638  17.191   4.330 -0.5993 -0.2048 -0.0689
46937W        W47137   1.218   9.402  12.947 -0.0105 -0.0306  0.1633
46938W        W47138   7.275  13.953  15.317  0.2796 -0.0255 -0.1032
46939W        W47139  17.244   0.820   9.102 -0.1431  0.1439 -0.2284
46940W        W47140  12.706  13.277  14.542 -0.3240 -0.3122 -0.0679
46941W        W47141   2.811   9.087   7.487  0.1074  0.0357 -0.2779
46942W        W47142  14.663  12.678   2.175  0.1010 -0.0059 -0.0602
46943W        W47143  10.616  12.902   9.145  0.0077 -0.0575  0.0274
46944W        W47144  15.471  13.375   7.833 -0.1493 -0.0333 -0.3423
46945W        W47145   0.397  18.189  11.261 -0.0886 -0.0388  0.2827
46946W        W47146  17.541  15.607  11.973  0.1446 -0.2728 -0.0092
46947W        W47147   7.238  14.592   9.036  0.0559  0.0566 -0.0449
46948W        W47148   3.164   0.589  17.107  0.2104 -0.0495  0.0409
46949W        W47149  16.058   9.041   0.606  0.0080 -0.0625 -0.0948
46950W        W47150  14.362   7.992   5.909  0.0123  0.0382  0.0093
46951W        W47151  11.948   7.995  17.022 -0.2198  0.0670 -0.3301
46952W        W47152  12.019  16.059   8.652  0.0825  0.3542 -0.2391
46953W        W47153  11.223  15.908   8.224 -0.1637  0.2049  0.1140
46954W        W47154  13.715  17.597   8.547  0.2777 -0.0756 -0.2428
46955W        W47155  15.888   9.718  15.663  0.1219 -0.0826  0.1193
46956W        W47156  15.990  14.339  14.063 -0.0366 -0.2406  0.1087
46957W        W47157  14.699   3.865  11.759 -0.0534  0.0598  0.1535
46958W        W47158  16.910  12.740  11.484  0.0227  0.3064 -0.0932
46959W        W47159   3.250   1.134   5.575  0.1415  0.2732  0.3023
46960W        W47160   5.743  11.157   9.614 -0.0223 -0.0260 -0.1182
46961W        W47161  11.344  11.903   6.650  0.2720  0.0997 -0.0870
46962W        W47162  12.860   8.624  10.577  0.0304  0.0207  0.0768
46963W        W47163  11.210  15.504   9.193 -0.0269 -0.4388 -0.1506
46964W        W47164  15.072  13.793  15.880  0.1485  0.1530 -0.2149
46965W        W47165  13.291  12.889   2.119  0.1333  0.0780 -0.0072
46966W        W47166  12.207  10.162   2.043  0.0652 -0.1430 -0.2690
46967W        W47167  16.517  11.349   5.866 -0.1873  0.1538  0.2412
46968W        W47168   9.487  14.905   7.698 -0.0346 -0.2498 -0.0447
46969W        W47169  14.242   3.943   6.892 -0.1061 -0.0152  0.0996
46970W        W47170  14.548   6.694  14.036  0.1183 -0.1535 -0.0080
46971W        W47171  17.119  18.126   5.945  0.1929 -0.2056  0.2337
46972W        W47172  18.109  10.985   6.492  0.1931  0.2039  0.1915
46973W        W47173  14.270  14.420   8.931  0.1651 -0.0761 -0.1111
46974W        W47174  11.965  10.871   8.222 -0.2887 -0.0400 -0.1341
46975W        W47175  12.590   8.915   3.110 -0.1507  0.1525 -0.0763
46976W        W47176  14.641  12.024   3.392 -0.1852  0.0043  0.0255
46977W        W47177   0.464  11.928  10.631 -0.4014  0.0254 -0.0591
46978W        W47178   3.666   6.464   8.495 -0.0635 -0.1497  0.0959
46979W        W47179   3.435   8.763  10.645  0.3376  0.0630 -0.3366
46980W        W47180  11.815  10.233  12.574  0.3942 -0.1001 -0.0145
46981W        W47181  16.562   7.111   0.211 -0.3090 -0.4217  0.0461
46982W        W47182  11.922   6.585   6.049 -0.2354  0.3526 -0.0359
46983W        W47183   9.387   1.945  17.314  0.0740  0.1974  0.0754
46984W        W47184   7.126   9.851   4.229  0.0181  0.1053  0.1025
46985W        W47185   9.730  11.981   5.735  0.2021 -0.0292  0.0669
46986W        W47186   3.579   8.541   8.078 -0.0839  0.2463  0.0366
46987W        W47187  16.258   8.561   5.824 -0.0981  0.2973 -0.0659
46988W        W47188  16.179  14.577  10.802  0.1230  0.1496 -0.1065
46989W        W47189   1.867  17.121   7.010  0.3035 -0.1585 -0.1282
46990W        W47190  18.157   0.824   7.505 -0.0533 -0.0416 -0.1655
46991W        W47191  10.359  14.539  11.678  0.0984  0.0415  0.0378
46992W        W47192  15.411  12.207   8.515 -0.0699  0.1606  0.1421
46993W        W47193  14.139   1.724   4.707  0.0477  0.0542  0.0131
46994W        W47194  15.524  15.435  11.227  0.0692 -0.0710  0.1238
46995W        W47195  14.700   1.650  12.931  0.1927 -0.0020  0.0305
46996W        W47196  13.782  17.050  12.659 -0.2864 -0.0262 -0.0018
46997W        W47197   4.771  14.974  16.640  0.2762  0.0528  0.3447
46998W        W47198  11.292  14.502  14.909  0.0867 -0.1013  0.1300
46999W        W47199  12.860  16.410   6.520  0.2518  0.1486  0.0777
47000W        W47200   1.144  16.089  11.805 -0.0867  0.0245 -0.3032
47001W        W47201  17.069   0.642   4.701  0.1251  0.1556  0.0642
47002W        W47202  15.966   7.309  10.954 -0.0122  0.0343  0.0449
47003W        W47203  15.767  16.454  14.733  0.0094 -0.1159 -0.1674
47004W        W47204   1.515  10.517  11.015  0.2751  0.1232 -0.0532
47005W        W47205  13.730   5.333   9.119  0.0205 -0.4602 -0.0486
47006W        W47206   3.056  13.254   4.477 -0.3288  0.0941  0.2918
47007W        W47207  10.622  15.053  14.531  0.1679  0.1775  0.1055
47008W        W47208   0.966  13.103  12.746 -0.1626 -0.1668  0.0119
47009W        W47209   9.998  15.010  11.761  0.0624  0.1109 -0.1171
47010W        W47210   5.997  10.797   8.375  0.3026  0.0708  0.0648
47011W        W47211  14.910   3.629   4.154 -0.0437  0.0653  0.2298
47012W        W47212   9.090  13.162  16.314 -0.0036 -0.0437 -0.1445
47013W        W47213  10.076  15.412   4.502 -0.2119 -0.0298  0.0395
47014W        W47214  17.367  15.793  11.555  0.2667 -0.1623 -0.4494
47015W        W47215  15.292   1.213  12.463  0.0604  0.1708 -0.3208
47016W        W47216   2.772   3.231  13.098 -0.0964 -0.1343 -0.2431
47017W        W47217  10.918  11.939  11.776  0.0280  0.1013 -0.0445
47018W        W47218   2.951  12.221  13.009 -0.1705  0.3204 -0.0252
47019W        W47219   5.737   9.790   3.631  0.2718 -0.1021 -0.0156
47020W        W47220   0.084  16.871   7.277  0.1727  0.1758 -0.0178
47021W        W47221   1.873  11.498   8.667 -0.0689 -0.1345  0.0346
47022W        W47222  17.863   1.350  12.037 -0.0102  0.2087  0.0447
47023W        W47223  11.920  16.332   9.383  0.1434  0.2404  0.2262
47024W        W47224  17.095  17.723  11.219 -0.2348 -0.0578 -0.1395
47025W        W47225   7.597   8.395  17.875  0.2667  0.1710 -0.0726
47026W        W47226  17.211  15.139  13.740 -0.0413 -0.1439  0.1211
47027W        W47227  12.964  12.701   5.799 -0.0887 -0.4956  0.0933
47028W        W47228   6.610  14.922  11.824  0.3178 -0.0326  0.1869
47029W        W47229   0.841  16.993   5.254  0.0884 -0.3205  0.0111
47030W        W47230  16.908   9.671  11.880 -0.1630 -0.0276  0.4049
47031W        W47231   7.420   2.099  15.511 -0.1938  0.0821  0.0791
47032W        W47232  10.725  15.246   9.910 -0.2688  0.1517  0.1896
47033W        W47233  10.673   7.309   8.483  0.1734 -0.3025  0.1964
47034W        W47234   4.815   0.084  15.200 -0.1171  0.1453 -0.0518
47035W        W47235  10.119   3.723   8.780  0.0843  0.2584 -0.1248
47036W        W47236   9.291  15.409   4.066 -0.0356 -0.2825 -0.0619
47037W        W47237  17.254  12.409   4.680 -0.3987  0.0542 -0.0879
47038W        W47238  12.271  12.505   7.772  0.1749  0.3198 -0.1007
47039W        W47239  12.153   2.105  10.653  0.0995  0.0784  0.1436
47040W        W47240  15.950  12.687  14.749 -0.0585  0.0677  0.1810
47041W        W47241  16.348  10.541   6.580  0.1308  0.0826 -0.0280
47042W        W47242   2.871   1.687  10.702 -0.0127  0.2201 -0.1189
47043W        W47243  17.279   4.694   3.455 -0.3368 -0.0313 -0.2397
47044W        W47244  14.222  16.795  12.535  0.1006  0.0742  0.4174
47045W        W47245   1.119   8.737  13.629  0.2452  0.0525 -0.3603
47046W        W47246   0.399   8.944  14.210 -0.1418  0.1181  0.0893
47047W        W47247  15.879  10.335   6.404  0.0137  0.0219  0.0154
47048W        W47248   1.936  12.458   2.757 -0.2529  0.2280  0.0565
47049W        W47249  13.159  14.305  15.961 -0.1079  0.0727 -0.1030
47050W        W47250  10.607  16.809   6.777  0.0703 -0.0066  0.0657
47051W        W47251   0.401  15.230   9.011  0.0874  0.1391  0.1710
47052W        W47252   5.815  13.665  14.756 -0.0889 -0.1531  0.0485
47053W        W47253  15.640  18.063  17.754  0.0539 -0.0891 -0.1475
47054W        W47254  15.677   3.008  11.127  0.1263 -0.0610 -0.0467
47055W        W47255   2.520  16.037   9.842  0.3096  0.0822  0.1869
47056W        W47256  13.510  17.045   6.265 -0.0459 -0.0986  0.0213
47057W        W47257  15.281   9.767   4.711 -0.3145  0.1568  0.0936
47058W        W47258  17.328   4.226  10.663 -0.1377  0.0277 -0.2709
47059W        W47259  15.303  13.671  14.188  0.0132  0.3295  0.1358
47060W        W47260   0.476  13.211   8.203  0.1044 -0.1062 -0.0100
47061W        W47261   8.343   7.323   8.723  0.2451  0.0728 -0.2007
47062W        W47262   5.668   8.136  13.293 -0.0822  0.0426 -0.3814
47063W        W47263   5.867  13.567  10.025  0.0961  0.0793  0.3026
47064W        W47264   9.710  14.979  12.189 -0.1347  0.1978  0.0720
47065W        W47265  14.895   7.308   5.782 -0.1172 -0.1920 -0.0148
47066W        W47266  18.180  15.521  10.521  0.2626  0.1218 -0.0910
47067W        W47267   9.472   2.526   9.993  0.3665 -0.2383 -0.0446
47068W        W47268  10.005  11.644   6.510  0.4528 -0.0282  0.2474
47069W        W47269  17.401  10.172  12.837 -0.1288  0.1194 -0.1117
47070W        W47270  14.608  13.789   7.929 -0.1352 -0.1632 -0.0360
47071W        W47271   3.120  16.053   9.958 -0.0919 -0.0730  0.2976
47072W        W47272   2.433  14.368  11.023  0.0862 -0.1130  0.1901
47073W        W47273  11.026   5.816   2.244  0.0830  0.1765  0.0806
47074W        W47274  13.070  10.593  17.336  0.2605 -0.1742 -0.1274
47075W        W47275  17.798  14.388  10.266 -0.0718  0.1294 -0.0774
47076W        W47276   9.288  13.729  15.015  0.3722 -0.1081  0.3124
47077W        W47277  16.436  14.865  10.365  0.1008 -0.4175 -0.2036
47078W        W47278  13.351   1.314   8.600 -0.1418 -0.1006 -0.1668
47079W        W47279   2.167  11.504   4.019  0.0570  0.3199 -0.1945
47080W        W47280   5.403   7.867   2.432 -0.1544  0.0698  0.1197
47081W        W47281  10.482   0.334   8.984  0.0851  0.0863 -0.1650
47082W        W47282  15.602  12.552   7.454 -0.0781  0.0849  0.0785
47083W        W47283  15.190  15.452   8.624  0.0515 -0.2438 -0.0778
47084W        W47284  13.505   8.284   5.376  0.3032 -0.1731 -0.0044
47085W        W47285  16.515   5.739   6.100 -0.0149  0.0994 -0.0140
47086W        W47286  13.750   9.015   4.521  0.0570  0.3338 -0.0764
47087W        W47287  14.094  16.795   7.671  0.0167  0.0536 -0.0727
47088W        W47288   1.805   0.325   8.168 -0.1515  0.3247  0.2024
47089W        W47289   2.626   0.769  14.995 -0.2349  0.0291 -0.1010
47090W        W47290   3.193   2.339   2.095  0.2295 -0.3980 -0.1050
47091W        W47291   4.209  11.830  13.091 -0.0709 -0.0838  0.1556
47092W        W47292  17.381  13.499   6.921  0.0702 -0.1895  0.4783
47093W        W47293   1.480   0.713   4.739 -0.0941  0.2730 -0.0613
47094W        W47294   1.131  15.098  10.138 -0.2710 -0.1528 -0.0160
47095W        W47295   4.473  14.772  10.731  0.0045  0.0929  0.0475
47096W        W47296   1.343   9.421   3.072 -0.1486 -0.1330  0.1734
47097W        W47297  18.185   2.907  13.196 -0.0289  0.2343 -0.4645
47098W        W47298  14.641  14.731  11.162 -0.0756 -0.2424 -0.3266
47099W        W47299  15.475   1.154   6.235 -0.1907 -0.0815 -0.2596
47100W        W47300  15.351  13.051   9.547  0.0014 -0.0412 -0.0390
47101W        W47301  17.621   5.711   7.594  0.1632 -0.3078 -0.0434
47102W        W47302  12.987  11.992  11.692 -0.1430  0.2386 -0.3345
47103W        W47303  16.327   0.259  14.937 -0.0623  0.3539 -0.4954
47104W        W47304  15.453  16.390  12.422 -0.0244  0.1488 -0.0307
47105W        W47305   0.449  16.385  10.688  0.3437 -0.0537 -0.1486
47106W        W47306  17.724  15.897  13.069 -0.1071 -0.3130  0.1820
47107W        W47307  15.841  16.187   8.388 -0.2304 -0.2686  0.1361
47108W        W47308   4.240   0.925   7.516  0.1325  0.0884  0.0603
47109W        W47309   0.678   9.683  17.961 -0.0322 -0.3020 -0.0273
47110W        W47310  17.913   2.895   4.430  0.1860  0.0778  0.1494
47111W        W47311  15.972  10.853   6.329 -0.1787  0.3174 -0.1471
47112W        W47312  14.928  10.963  15.783  0.1290 -0.1932  0.3147
47113W        W47313  15.624  11.515  12.516  0.2359  0.0914 -0.1108
47114W        W47314  17.856   8.545   5.271  0.0044  0.2943 -0.0713
47115W        W47315   3.505   8.098   4.620 -0.0757  0.0397  0.1736
47116W        W47316  15.261   9.539  14.604  0.0997 -0.1566  0.2625
47117W        W47317  10.274   0.234  17.409 -0.2352  0.2613 -0.0443
47118W        W47318   1.177  11.946  15.072  0.3559 -0.0447  0.0504
47119W        W47319  17.355  16.018  12.132  0.0185 -0.0740 -0.1516
47120W        W47320  13.553  17.998   8.152  0.1915 -0.1400  0.2050
47121W        W47321  13.505   7.600   9.549 -0.5192 -0.2596  0.3067
47122W        W47322   2.267  11.968   5.255  0.0440  0.0010  0.2063
47123W        W47323  16.674  16.555   7.217 -0.0484 -0.2093 -0.0357
47124W        W47324   8.878  15.506   7.764  0.0249 -0.0230  0.0664
47125W        W47325   9.585   9.328  10.268  0.1482  0.0243 -0.1318
47126W        W47326   1.474   5.579   7.511 -0.1371 -0.1799  0.3875
47127W        W47327  13.140  17.356  11.993 -0.1195  0.0712 -0.4260
47128W        W47328  14.027  10.556   2.592  0.4625  0.1684 -0.0498
47129W        W47329  12.185  15.079  15.576  0.2501  0.0440  0.2289
47130W        W47330  16.467  10.338  13.970  0.0436 -0.0026  0.3163
47131W        W47331  15.496   0.779   9.719 -0.0816  0.0088  0.0173
47132W        W47332  16.449   8.358   9.949 -0.0063  0.1341 -0.3354
47133W        W47333   9.062  10.068   4.733 -0.0075  0.0868  0.0275
47134W        W47334   3.140  11.347  10.796  0.1549 -0.1162 -0.1007
47135W        W47335   6.522   7.127   4.318 -0.0185 -0.1319 -0.5439
47136W        W47336  10.271   1.242  12.130  0.3741  0.5337  0.0849
47137W        W47337  13.271   9.243  13.048 -0.1446  0.2816 -0.2520
47138W        W47338  13.444  16.715  13.047 -0.0933 -0.1229 -0.3737
47139W        W47339  11.536   8.163  13.728  0.2679  0.0399 -0.2035
47140W        W47340  10.647  12.215  10.021 -0.2057  0.0282  0.2171
47141W        W47341   3.920  12.133   5.367  0.1584 -0.1046  0.1628
47142W        W47342   9.720   8.896  10.562 -0.0020  0.0869 -0.0427
47143W        W47343   7.443   8.537  13.291 -0.2059  0.2388 -0.2595
47144W        W47344  17.002  15.285   6.298 -0.0371  0.0702 -0.2279
47145W        W47345  13.951  15.384  15.447  0.3481 -0.1016  0.2570
47146W        W47346  17.141  14.099  16.626 -0.0137  0.0730 -0.0277
47147W        W47347  18.058   9.702   3.440 -0.1005  0.1951 -0.2353
47148W        W47348   6.162  13.570   1.153 -0.1673  0.2165  0.0776
47149W        W47349  16.363   2.704  12.628 -0.1808 -0.1665 -0.2330
47150W        W47350   1.316  11.657   4.333 -0.0336 -0.2838 -0.0855
47151W        W47351  16.869  14.483  17.542  0.0523  0.1975 -0.0036
47152W        W47352   4.017   6.408  17.631  0.3316 -0.0729 -0.2237
47153W        W47353   3.510  15.299   3.466 -0.0769 -0.1055 -0.2304
47154W        W47354  12.087   5.731   4.242  0.3255 -0.0350 -0.2319
47155W        W47355  13.038   8.932   0.334 -0.0653 -0.1049 -0.1833
47156W        W47356  13.229  14.359   3.711 -0.2433 -0.0834 -0.1961
47157W        W47357  16.314   8.572   4.414 -0.1871 -0.1308 -0.4406
47158W        W47358  12.850  13.758  15.350 -0.2406 -0.2130  0.1015
47159W        W47359   5.255   8.247  10.352  0.1525  0.1816 -0.1072
47160W        W47360   7.015   5.132  10.479  0.2506 -0.1775  0.0372
47161W        W47361   2.134   8.242   0.021  0.1850  0.0180  0.0825
47162W        W47362   7.306   6.500   0.668  0.1705  0.0395 -0.0682
47163W        W47363   3.344  12.215   7.382  0.0726 -0.0375 -0.1760
47164W        W47364  13.222  13.488   0.144 -0.1817  0.0792 -0.2246
47165W        W47365  14.934  13.213   2.748  0.1740  0.2243 -0.1267
47166W        W47366  14.159   9.301   6.452 -0.0911 -0.1095 -0.0396
47167W        W47367  15.116   7.821  12.210 -0.1003  0.1996  0.1403
47168W        W47368   0.455  18.051   3.245  0.2996  0.0765  0.1624
47169W        W47369  13.847  12.974  15.282  0.2505 -0.0890  0.1175
47170W        W47370  17.858  13.885  10.387  0.0823 -0.0036 -0.1488
47171W        W47371  13.976  16.213   3.337  0.1716  0.0694 -0.0904
47172W        W47372  10.757  13.280   8.855 -0.2418 -0.1200  0.1991
47173W        W47373   0.691   7.824  14.699  0.0532  0.1343 -0.1142
47174W        W47374   6.332  15.086   6.967 -0.1099  0.1977  0.0453
47175W        W47375  16.765   8.805  15.666  0.0707  0.2831  0.2366
47176W        W47376   9.334   2.280  11.147  0.1830 -0.1166 -0.1328
47177W        W47377  14.686  10.629   0.966  0.0265  0.1188 -0.2990
47178W        W47378   2.779  17.498   2.029  0.0930 -0.2277  0.2114
47179W        W47379  12.431   1.039   8.770  0.0213 -0.0679 -0.1070
47180W        W47380   1.703  10.518  10.475  0.0400 -0.1648  0.1341
47181W        W47381   2.697  15.185   5.908 -0.3005  0.0428  0.2105
47182W        W47382   0.953   3.536  14.221  0.0817 -0.1036  0.0354
47183W        W47383  12.840   7.198   9.431  0.2345  0.1082 -0.0157
47184W        W47384  15.861  16.801  16.662 -0.0314 -0.0629  0.0183
47185W        W47385   2.051   8.014   9.887  0.1755 -0.1914  0.2298
47186W        W47386  15.342  18.039   9.338 -0.0003  0.2303  0.0827
47187W        W47387   3.463  11.772  10.669 -0.3338 -0.1977  0.0032
47188W        W47388  17.221   3.930  10.258  0.3178  0.0249 -0.3058
47189W        W47389   9.135   6.528  12.235 -0.0598  0.0756 -0.2398
47190W        W47390   8.098  14.807   5.939  0.2050 -0.0436  0.1982
47191W        W47391  16.575  12.938   3.651  0.0408 -0.1425 -0.1736
47192W        W47392  12.983  11.269  14.124  0.0190  0.2098  0.3525
47193W        W47393   9.123  11.132  17.294 -0.1006  0.2334 -0.0567
47194W        W47394  13.137   3.374  15.736 -0.2347 -0.1399  0.2667
47195W        W47395  11.677   3.036  15.200  0.0884 -0.1587  0.1338
47196W        W47396   4.266  14.187   7.443 -0.0730  0.0624  0.0080
47197W        W47397  15.658  16.856   9.014 -0.2178 -0.0016  0.0988
47198W        W47398  13.057   9.296  14.815 -0.0599  0.2191 -0.1017
47199W        W47399   7.920   2.269  14.812 -0.0728  0.0831  0.1708
47200W        W47400  12.925   0.531   9.539 -0.0059 -0.1155  0.2488
47201W        W47401  17.517  13.159  12.676 -0.0145 -0.0529 -0.1872
47202W        W47402  11.292  10.183  14.355  0.0559  0.1785 -0.3088
47203W        W47403  18.034  12.394   8.306  0.1926 -0.1039 -0.3191
47204W        W47404   0.250   6.130  10.002  0.0250  0.0488  0.0846
47205W        W47405   3.165  16.860  16.425 -0.0914 -0.1533  0.0432
47206W        W47406  16.115  16.538  14.249  0.1139 -0.0919 -0.1176
47207W        W47407   4.073   8.608   7.987  0.0639 -0.0518  0.0662
47208W        W47408  12.965  11.299   2.109  0.0462  0.3990  0.1054
47209W        W47409   5.382  15.015  13.960 -0.0274  0.0463  0.0580
47210W        W47410  14.499  12.772  14.574 -0.2167 -0.0870 -0.3454
47211W        W47411  11.129  15.306  13.626  0.1883 -0.0974 -0.0116
47212W        W47412  10.217  11.331  13.341 -0.3424  0.1184 -0.4185
47213W        W47413  11.325  16.557  17.603  0.0637  0.1561  0.0451
47214W        W47414   3.383  17.832  12.626 -0.0345 -0.0256  0.3427
47215W        W47415   1.144   8.946  14.934  0.0357  0.0550  0.0059
47216W        W47416   1.630   7.728  14.570  0.4000 -0.3598  0.0935
47217W        W47417  11.948   5.831  14.559 -0.0190  0.0332  0.3595
47218W        W47418   1.003  15.717   0.915  0.1068  0.0227  0.0799
47219W        W47419  13.439   9.214  17.589 -0.0744 -0.2867 -0.2055
47220W        W47420  13.117   6.736  15.773  0.1016  0.2356 -0.0990
47221W        W47421   1.451   1.425  13.280 -0.0240  0.0508 -0.0494
47222W        W47422  18.031  17.108  16.243 -0.2413  0.0237  0.0626
47223W        W47423  16.881   3.795  12.887  0.1185  0.3483  0.0212
47224W        W47424  14.852  12.247  14.032 -0.1213 -0.0113  0.1334
47225W        W47425  12.264   8.179  15.135  0.1791  0.0012  0.3969
47226W        W47426  15.155  17.585   1.943  0.0896  0.2200 -0.0956
47227W        W47427  11.082  14.968  10.222  0.1742 -0.0621 -0.1027
47228W        W47428   1.155   6.942  10.576 -0.1114  0.1049 -0.1452
47229W        W47429   0.285  17.025   4.471 -0.0053 -0.1952 -0.0275
47230W        W47430  12.533   5.556   6.424 -0.0686  0.1370  0.1347
47231W        W47431   0.847  14.065  14.508 -0.1413 -0.3895 -0.0471
47232W        W47432   0.180  13.476  13.077  0.0259 -0.0178  0.2710
47233W        W47433  17.384   4.424   5.388 -0.0563 -0.1514 -0.0818
47234W        W47434   6.694  12.505  13.675 -0.0492 -0.0998 -0.0107
47235W        W47435   8.324   3.347   5.209 -0.1212 -0.2561  0.1026
47236W        W47436  15.865  11.251   6.673  0.2283 -0.1766 -0.4045
47237W        W47437   0.041   3.280  17.967 -0.1959  0.2271  0.0083
47238W        W47438  17.838  11.928   8.276 -0.2701  0.0655  0.1030
47239W        W47439  10.297  13.225  15.521 -0.2076 -0.0925 -0.2374
47240W        W47440   1.714   9.283  11.348  0.0003 -0.1114 -0.0087
47241W        W47441  12.112  15.781  11.646 -0.0768  0.0555  0.0404
47242W        W47442  16.243  10.589   6.006  0.0680 -0.0133  0.1097
47243W        W47443   9.607  11.297  14.686 -0.2965 -0.4199 -0.1600
47244W        W47444  15.737   4.447   7.019 -0.3459 -0.0159  0.0011
47245W        W47445   0.403  12.297  13.104 -0.0062 -0.0756 -0.1500
47246W        W47446  13.121  14.847   9.669  0.4797 -0.1664  0.0803
47247W        W47447  17.533   9.821  16.370 -0.1969 -0.0469 -0.2906
47248W        W47448  14.682   8.087  14.377 -0.0127 -0.0402 -0.1699
47249W        W47449   2.264  11.426  14.608  0.2353  0.0125  0.1507
47250W        W47450   6.629  10.198  13.390 -0.0329  0.0310  0.2141
47251W        W47451  12.782  15.231   6.211  0.1111 -0.0570 -0.2169
47252W        W47452   8.686   9.197  14.971  0.0392 -0.2231 -0.0965
47253W        W47453   1.958  10.974  16.167  0.1160  0.0607 -0.3195
47254W        W47454  15.478   7.395  15.550 -0.2814 -0.2536 -0.0070
47255W        W47455  12.570  14.014  14.074  0.1925 -0.1127  0.0571
47256W        W47456  10.228  17.151  12.067 -0.1681  0.0772 -0.1560
47257W        W47457  14.785  11.734   4.706 -0.0406 -0.1031 -0.1678
47258W        W47458   2.727  17.549  13.310 -0.3579 -0.1446 -0.3087
47259W        W47459   7.690  14.561  14.033  0.0142 -0.0753  0.1272
47260W        W47460   5.674  12.156   8.366  0.0348  0.0279 -0.2687
47261W        W47461  11.976  11.743  18.032  0.1231 -0.0481  0.0123
47262W        W47462   2.675   9.297  11.826 -0.0046 -0.1080 -0.0904
47263W        W47463  13.483  15.197  11.295 -0.1129  0.0136 -0.3409
47264W        W47464  18.050  17.168   4.924 -0.1712  0.1909 -0.1008
47265W        W47465  10.999  11.756  13.413 -0.2208 -0.0138  0.3394
47266W        W47466  17.049   9.118   4.678 -0.1705 -0.0100  0.1091
47267W        W47467  12.803  10.629   4.893 -0.2204 -0.0827  0.1341
47268W        W47468  14.517  16.134   0.866 -0.1377 -0.3237  0.2615
47269W        W47469   0.513  15.883  11.018 -0.0576 -0.2519 -0.1750
47270W        W47470   4.178  15.482   6.915  0.2028 -0.0856 -0.0876
47271W        W47471  14.477  12.412  17.351  0.0621  0.0532 -0.0356
47272W        W47472   2.656  12.682  12.942  0.0283  0.2042  0.0304
47273W        W47473  12.939  12.250  12.965 -0.0798  0.1272  0.0045
47274W        W47474   2.618  10.341   9.962  0.0920  0.1011 -0.0840
47275W        W47475  10.749   7.076  13.976  0.0147  0.0261  0.0999
47276W        W47476  12.796   0.715  13.246 -0.3081 -0.3112 -0.2270
47277W        W47477   0.661  15.080  12.571  0.2060  0.0481  0.1718
47278W        W47478   1.680   9.834   3.207  0.0755 -0.0947 -0.2705
47279W        W47479  17.177   7.937  14.320  0.1244  0.0048  0.1162
47280W        W47480  15.645  15.116   2.215 -0.0149  0.1074  0.2883
47281W        W47481   7.568  15.614   1.218 -0.1619  0.0718  0.3306
47282W        W47482   0.663   6.609  15.757  0.1897  0.2306 -0.1568
47283W        W47483  16.328   7.918   7.694 -0.2150 -0.0141  0.3395
47284W        W47484   3.516  10.217  16.805 -0.1062 -0.1001  0.2771
47285W        W47485  15.279  15.975   9.494  0.3108 -0.0089  0.1471
47286W        W47486   0.054   7.329  16.234  0.0829  0.2609  0.0261
47287W        W47487   1.755  11.507  11.306 -0.1501  0.1618 -0.0273
47288W        W47488   5.732   7.514  16.011  0.2467 -0.1636  0.2877
47289W        W47489   0.467   5.434  14.457  0.0018  0.0350  0.1761
47290W        W47490  15.332  10.485  15.560  0.0481  0.1223  0.2339
47291W        W47491  11.384  12.412  14.684 -0.0783  0.2853  0.0861
47292W        W47492   1.226  11.540  13.573  0.0938 -0.0074 -0.1049
47293W        W47493  15.898   2.664  11.421  0.1137  0.1267 -0.0633
47294W        W47494   3.772   9.782  14.955 -0.4269 -0.0179  0.0422
47295W        W47495   1.324  15.012  12.003 -0.1802  0.0559 -0.0997
47296W        W47496  17.543  17.046  10.060 -0.0335  0.2687  0.0830
47297W        W47497  11.417   9.530  13.174 -0.0648  0.1906 -0.2094
47298W        W47498  16.577  13.911  17.905  0.2123 -0.2017 -0.3559
47299W        W47499  16.249   9.999  12.574  0.0848 -0.2247  0.3042
47300W        W47500   0.353   8.232  17.262  0.0618  0.1747 -0.0821
47301W        W47501  16.811  12.674   2.200 -0.1427  0.0241  0.1908
47302W        W47502  16.360  10.523   4.167  0.4602  0.3440  0.1168
47303W        W47503   2.680   5.680   3.332 -0.1821  0.0841  0.1130
47304W        W47504  13.200  12.951   5.417 -0.3003 -0.0248 -0.0677
47305W        W47505  17.887  14.709  13.118  0.1433 -0.2217 -0.1859
47306W        W47506  17.039  16.974   0.301 -0.2223  0.1484  0.0915
47307W        W47507  16.021   7.683   8.024  0.0382  0.1898 -0.4676
47308W        W47508  15.715  12.254   9.361 -0.2751 -0.1252 -0.1321
47309W        W47509   1.732   0.722   4.251  0.3556 -0.2062  0.1149
47310W        W47510  17.114   9.610  16.706 -0.2575 -0.0698  0.0041
47311W        W47511   6.265  15.680   9.896  0.2646  0.2471 -0.1254
47312W        W47512  13.671   8.707  15.296  0.0318  0.0266 -0.1639
47313W        W47513  15.394  15.024  16.552 -0.1290 -0.0320  0.1795
47314W        W47514   0.659  15.888  17.270  0.2089 -0.1708  0.1068
47315W        W47515   1.818  11.276   5.937 -0.1044 -0.1874  0.1022
47316W        W47516  13.108   3.178  16.750  0.1760  0.1439  0.0363
47317W        W47517   4.459  16.568  12.140 -0.0947  0.0745 -0.0635
47318W        W47518  12.311  13.541   6.906 -0.1313 -0.3451 -0.0431
47319W        W47519  10.725  13.052  10.230 -0.0589  0.0381 -0.2810
47320W        W47520  13.599  11.356  14.939  0.0392  0.3416 -0.1675
47321W        W47521  11.141  11.891  12.842 -0.0611 -0.1653  0.0235
47322W        W47522   4.252   5.790  17.000 -0.0042  0.1766 -0.2212
47323W        W47523  14.533  13.516   6.282  0.0414  0.2402 -0.0026
47324W        W47524  12.979   1.026  11.954  0.2171  0.2975 -0.1226
47325W        W47525  16.251   5.330  13.610  0.2232  0.1975 -0.0033
47326W        W47526  14.386  11.847  10.973 -0.3734 -0.1031  0.3474
47327W        W47527   9.655  14.327  14.265  0.0300 -0.2278  0.2573
47328W        W47528  14.077  13.973   3.200  0.0657 -0.0191 -0.1816
47329W        W47529   2.740  11.246   2.033  0.2061  0.0502  0.0348
47330W        W47530   3.641  10.053  13.472 -0.0707  0.1245 -0.0061
47331W        W47531   5.247  15.825  10.884  0.2439  0.1357 -0.1695
47332W        W47532  15.317  12.166  10.756 -0.0263 -0.4118 -0.5572
47333W        W47533   0.499   4.536  15.459  0.2545 -0.2215  0.1719
47334W        W47534   2.142   4.582  18.187 -0.0771  0.1058  0.1027
47335W        W47535  11.505   1.078   5.015  0.0780  0.2388  0.2615
47336W        W47536   8.925  17.023   1.089  0.0338 -0.0892 -0.2021
47337W        W47537  11.673   4.184  13.694 -0.0112 -0.1047  0.0161
47338W        W47538   0.664  11.475  10.414  0.1279 -0.0420 -0.0638
47339W        W47539  13.423   9.383  15.942  0.0714 -0.1376 -0.2735
47340W        W47540   7.462   8.886  11.090 -0.1107  0.2381  0.1502
47341W        W47541  15.529  15.267  15.516 -0.0224  0.0769  0.2148
47342W        W47542  17.131  12.089  15.711  0.1570  0.3435  0.2437
47343W        W47543  14.210   1.164  13.966 -0.1254  0.1091 -0.0724
47344W        W47544   2.359  16.179  12.976  0.0837  0.1942 -0.1692
47345W        W47545   2.026   2.164  11.842 -0.0995 -0.0921 -0.3701
47346W        W47546  17.101   4.894   8.419 -0.2136  0.0063 -0.1524
47347W        W47547   3.695  14.431  15.073  0.0549  0.1976  0.1481
47348W        W47548   2.221   8.510  12.327 -0.0177 -0.0457  0.3293
47349W        W47549   0.916   4.448  12.551  0.0745  0.0023 -0.1479
47350W        W47550   0.579   5.059  14.838 -0.1715  0.0452  0.1366
47351W        W47551  16.586  12.132  10.130 -0.0512 -0.1331  0.1042
47352W        W47552  14.648  18.109  13.289  0.0558  0.0764  0.0277
47353W        W47553  16.187   8.665   8.633  0.0494  0.0522  0.0220
47354W        W47554  16.123  11.547  12.683  0.0387  0.4241  0.0909
47355W        W47555  17.418   8.741  10.215 -0.0458 -0.1547 -0.1293
47356W        W47556  10.362   6.005   7.526  0.2362 -0.1124  0.1362
47357W        W47557  14.416  10.713  14.028  0.1190 -0.0394  0.2019
47358W        W47558  12.471   9.109   5.034 -0.1704 -0.0765  0.0619
47359W        W47559  18.143   7.743  12.801 -0.0562  0.0412 -0.0371
47360W        W47560  16.698   5.129  16.410  0.0231  0.2411  0.1273
47361W        W47561  14.960   2.259  12.337  0.1023  0.2408  0.0005
47362W        W47562  10.508  12.366  10.569 -0.1538  0.4879  0.0122
47363W        W47563  15.433   8.625  10.036  0.4401 -0.2152  0.0158
47364W        W47564  17.497  14.804  12.010 -0.4422 -0.0334 -0.2784
47365W        W47565  18.001  12.401  16.990  0.0537  0.0470  0.0237
47366W        W47566  16.100  13.812  17.757 -0.1065  0.1227  0.1346
47367W        W47567   3.525  12.684   9.086 -0.2659  0.5523  0.1875
47368W        W47568   7.109   6.047  14.074  0.5441  0.1466 -0.1301
47369W        W47569  18.189   6.028   2.655  0.0066  0.2273 -0.2816
47370W        W47570  15.703  11.035   8.423  0.1329 -0.1151  0.1201
47371W        W47571  15.006   0.779   7.575 -0.1209  0.1153 -0.0799
47372W        W47572   2.719  11.029   5.409 -0.2115  0.0605  0.1611
47373W        W47573  11.176   5.154   7.625 -0.3938 -0.2755 -0.1185
47374W        W47574  13.358   3.693  13.010  0.1403 -0.1142 -0.0333
47375W        W47575  12.969  11.591   6.387 -0.1422  0.3019  0.0723
47376W        W47576   5.656  11.682  13.065 -0.1198  0.4636 -0.1234
47377W        W47577  18.090  16.052  17.872  0.1138  0.0042 -0.1160
47378W        W47578  11.025  12.870   1.064  0.0531 -0.1340  0.1502
47379W        W47579  16.718   8.871  16.207 -0.0970 -0.2106 -0.1011
47380W        W47580  14.872  10.156   1.495  0.0113  0.1595  0.2112
47381W        W47581   4.751  11.605  15.775  0.0407  0.1152  0.1124
47382W        W47582  17.115  11.457  15.116  0.1185 -0.0107  0.1036
47383W        W47583   1.919  13.394  14.408  0.0852  0.0109 -0.1453
47384W        W47584  13.385  14.603  11.450  0.0588 -0.2091  0.0022
47385W        W47585  13.769  16.516  15.959  0.0409 -0.3282 -0.0483
47386W        W47586  11.022   1.478  12.250  0.1229 -0.1261 -0.0101
47387W        W47587   9.720   6.496  12.243  0.3558  0.0677 -0.0260
47388W        W47588   5.231   9.165  13.803 -0.1080  0.0367 -0.2177
47389W        W47589   9.999   1.930  10.728  0.2427  0.0349  0.1943
47390W        W47590  11.937  12.122  13.691  0.0265  0.0876  0.0759
47391W        W47591  15.061  14.088  17.127  0.1661  0.0381  0.1565
47392W        W47592   2.882  13.226   4.979 -0.1689  0.1935 -0.4918
47393W        W47593  15.264  13.847   6.361  0.4278 -0.3885  0.0848
47394W        W47594   3.342  10.068   8.758 -0.1386  0.1393 -0.1134
47395W        W47595  14.037   9.878  10.728  0.3403  0.1583  0.0626
47396W        W47596   2.190  10.611   6.518 -0.1184  0.3815 -0.2350
47397W        W47597  11.867  12.171   0.320  0.0169  0.0133  0.0396
47398W        W47598  16.540  10.893   8.065  0.1119 -0.0202 -0.1389
47399W        W47599   3.456  17.127   7.199 -0.4110 -0.0530  0.1899
47400W        W47600   2.364   7.437   5.882  0.3603 -0.1253 -0.1059
47401W        W47601  10.314  15.926   1.503 -0.1152  0.2352  0.0119
47402W        W47602  13.717  10.322   0.080 -0.0114  0.1858  0.1256
47403W        W47603  15.190   0.393   2.746  0.3301 -0.3845  0.0013
47404W        W47604  11.339  14.824  13.601  0.1884  0.0867 -0.0331
47405W        W47605  17.745  10.146  15.504  0.0673  0.0236 -0.0829
47406W        W47606   4.064   5.773  10.955 -0.1151 -0.0290 -0.0946
47407W        W47607  15.090   2.964  11.504 -0.0336 -0.0342 -0.0712
47408W        W47608  15.037  13.541  13.717  0.0286  0.2077 -0.0276
47409W        W47609  13.605  13.982  14.451  0.0394 -0.0822  0.0564
47410W        W47610   9.996  16.090  12.673 -0.2548 -0.1653  0.2074
47411W        W47611  16.660  14.882   1.797  0.0001 -0.0300 -0.3239
47412W        W47612  15.848  14.883  15.831  0.3921  0.0657 -0.1580
47413W        W47613   9.994  12.572  10.404 -0.0528 -0.0152 -0.0161
47414W        W47614  17.186  10.982  14.961  0.1934 -0.0234  0.0488
47415W        W47615   7.709   5.369  18.156 -0.2362  0.1161 -0.0912
47416W        W47616   7.701  12.488  15.876 -0.1743 -0.1326  0.2514
47417W        W47617  14.877  10.942  11.331  0.1325 -0.0884 -0.2321
47418W        W47618  14.031  11.387  13.272 -0.0812 -0.0107  0.0408
47419W        W47619   4.764  16.213   9.615  0.0244 -0.0170  0.0030
47420W        W47620  12.077  16.431   6.994 -0.2709 -0.0385 -0.1816
47421W        W47621  13.068  10.182   1.493  0.0624  0.3466  0.4116
47422W        W47622  12.542  15.966   1.695 -0.0271 -0.0351  0.1060
47423W        W47623  17.340  11.771   9.700 -0.0682  0.1653  0.0770
47424W        W47624  13.968  15.145  13.452 -0.0698  0.2727  0.1837
47425W        W47625  14.408  13.204  17.584  0.1511 -0.1044  0.0181
47426W        W47626  10.518   6.941  12.098  0.2418  0.3494 -0.2629
47427W        W47627  12.692  14.265  10.010  0.0092  0.0426  0.4074
47428W        W47628  16.953  16.303  12.227 -0.0908 -0.0691  0.3115
47429W        W47629  12.221  13.554   4.420 -0.1363 -0.1817  0.2411
47430W        W47630   5.233   7.697   6.386 -0.1353  0.0426  0.2070
47431W        W47631  11.625  11.316  16.817 -0.2746 -0.1735 -0.0619
47432W        W47632   3.367  15.668   6.808 -0.0261 -0.1137  0.0476
47433W        W47633   4.396   8.771   9.541  0.3052 -0.0172 -0.2140
47434W        W47634   3.005   0.909   3.488 -0.0318  0.4128  0.0179
47435W        W47635  14.731  15.831   2.188 -0.0822 -0.0163 -0.0688
47436W        W47636   1.285  10.764  16.958 -0.1272  0.0556  0.2330
47437W        W47637   0.147  14.151  10.363  0.0958 -0.0264 -0.1296
47438W        W47638  16.835  10.528  10.405 -0.0721  0.2054 -0.3371
47439W        W47639   9.865  15.030  10.855  0.2439  0.2502  0.0200
47440W        W47640  16.901   9.007   3.911 -0.1748 -0.2675 -0.2894
47441W        W47641  14.545  10.172  12.924  0.2162 -0.0148  0.2183
47442W        W47642  12.776   6.841  14.868 -0.1198 -0.1307  0.3682
47443W        W47643  14.782  10.345  11.367  0.0828  0.1686  0.1048
47444W        W47644  13.101   9.921  12.062 -0.3138  0.3342  0.0150
47445W        W47645   2.854  10.050   8.584 -0.0990  0.0901  0.0673
47446W        W47646  15.516   2.222  12.504  0.0283 -0.0529 -0.1423
47447W        W47647   4.465  13.968  16.850  0.0092  0.1777  0.2245
47448W        W47648  13.553  17.077  11.198 -0.0849  0.0019 -0.1020
47449W        W47649   3.716  13.157  13.435 -0.0055 -0.0446  0.1308
47450W        W47650   9.578  17.716  12.049  0.0440  0.2783  0.2335
47451W        W47651   8.739   0.323  14.435  0.2240 -0.3761 -0.0355
47452W        W47652  16.871  14.012  15.922 -0.1891 -0.0067 -0.0308
47453W        W47653   2.737  12.748  14.629  0.3954  0.1314  0.0580
47454W        W47654   1.371   4.112   2.630  0.1952  0.1979  0.1027
47455W        W47655   1.994   1.281  14.424 -0.2289 -0.2409 -0.0223
47456W        W47656  12.753  16.163   0.287  0.0803  0.3677 -0.3809
47457W        W47657   2.171   3.203   4.805 -0.2603  0.0475 -0.0565
47458W        W47658  10.782   1.543   0.822 -0.1375  0.2731  0.1590
47459W        W47659   2.020  12.062  17.302 -0.0934  0.0518 -0.2577
47460W        W47660   1.887   7.867  15.313 -0.1809 -0.0232 -0.1171
47461W        W47661  16.985   9.977  14.974  0.3422  0.1072 -0.1688
47462W        W47662  10.062  12.347   2.026 -0.1377  0.1424  0.2427
47463W        W47663   1.547  15.818  10.975  0.1176  0.2416 -0.1640
47464W        W47664   9.382  10.590   3.912 -0.0009  0.1820 -0.3878
47465W        W47665  13.172  11.458  15.743 -0.0565 -0.0792 -0.2740
47466W        W47666  12.450   9.969  11.224  0.2007 -0.0332 -0.1525
47467W        W47667  17.498   3.109   3.110 -0.2054  0.0946  0.0153
47468W        W47668   4.425  11.444  16.114  0.0801 -0.1165 -0.4156
47469W        W47669   0.784   8.226  15.268  0.1462 -0.0937 -0.2068
47470W        W47670   1.708   3.429   9.074 -0.0740 -0.0836  0.0925
47471W        W47671   9.544  10.567   8.626  0.3466  0.3037  0.4856
47472W        W47672   8.902   9.765  17.351  0.2980 -0.2876 -0.2056
47473W        W47673   2.903  17.086  14.837  0.1317  0.3618 -0.0514
47474W        W47674  15.174   6.269   3.935  0.2371 -0.0762  0.1141
47475W        W47675  16.656  12.085  11.613 -0.0340 -0.1260 -0.1651
47476W        W47676   0.849   4.389  13.783 -0.2218  0.3263 -0.0048
47477W        W47677  12.211  13.304   8.279  0.1362  0.1453 -0.2276
47478W        W47678  15.965   6.624  16.581 -0.1390 -0.2883 -0.0287
47479W        W47679   1.203   8.410   2.116 -0.1084  0.1397  0.3246
47480W        W47680  13.230   8.302  17.936 -0.0524  0.3994 -0.1975
47481W        W47681  15.349   2.381  17.534 -0.0301  0.0796  0.3342
47482W        W47682   1.304  14.538  14.038  0.0771 -0.0182 -0.3500
47483W        W47683   6.563   7.339  15.349  0.0456 -0.2218 -0.0498
47484W        W47684  14.919  16.628   5.990 -0.1900 -0.1996  0.0179
47485W        W47685   3.206   3.398   0.001 -0.0931  0.3144  0.1736
47486W        W47686   1.685  17.997  14.826 -0.1947 -0.0867 -0.1586
47487W        W47687  16.714   8.654  11.889  0.1633  0.0411  0.0788
47488W        W47688   9.991  12.653   9.880  0.1233 -0.0425  0.5062
47489W        W47689   6.612  13.693  15.379  0.2027 -0.0546  0.2144
47490W        W47690  13.768  13.663  16.419  0.0365 -0.2355 -0.3750
47491W        W47691  11.725   0.137   9.338 -0.0425 -0.1276  0.0111
47492W        W47692  13.553  12.110  11.542  0.2450  0.1617  0.0865
47493W        W47693  12.989   3.464   2.108  0.1544  0.0675 -0.1036
47494W        W47694  16.124  12.153   2.646 -0.0952 -0.0191  0.0633
47495W        W47695   6.836  14.873   7.009 -0.0161  0.1813  0.0319
47496W        W47696  11.078   2.388  14.428 -0.0172  0.0843 -0.1639
47497W        W47697  14.596  11.327   7.834 -0.1936 -0.1575 -0.2656
47498W        W47698  15.783  13.840  12.678  0.1386 -0.0104  0.0195
47499W        W47699   9.779   9.841  13.590  0.2735 -0.2794  0.1649
47500W        W47700  13.765  10.593  12.808  0.0230 -0.5362  0.1958
47501W        W47701  12.699  14.659  12.864 -0.0840 -0.0127 -0.3010
47502W        W47702   1.748   7.671   4.259 -0.0980  0.1638  0.2045
47503W        W47703   8.003   9.335   6.214 -0.0568 -0.1493  0.1222
47504W        W47704  12.369  15.343  17.662  0.1589 -0.0618  0.3292
47505W        W47705   8.756   0.171   9.782 -0.0336 -0.0568  0.3095
47506W        W47706   9.130  12.070   0.373 -0.1919 -0.0351 -0.2620
47507W        W47707   1.030   9.178   8.586  0.0882 -0.1438 -0.3032
47508W        W47708  16.198  14.788   7.431 -0.0549 -0.0385  0.2413
47509W        W47709   0.866  12.196  14.051 -0.2500  0.1323  0.2125
47510W        W47710  15.801   7.380  14.769 -0.3418  0.1114  0.1308
47511W        W47711   7.932   7.077  16.096 -0.5306  0.2513  0.3201
47512W        W47712  14.586  10.080   1.073  0.0070  0.0493 -0.1816
47513W        W47713   6.543   2.671  12.278  0.1413 -0.0324  0.0564
47514W        W47714  17.033  11.666   8.777 -0.1572 -0.3709 -0.0456
47515W        W47715   2.685  10.494  14.996 -0.1106  0.0457 -0.0060
47516W        W47716   2.687   9.617   9.264  0.1017  0.3178  0.1072
47517W        W47717  15.810   1.107  10.973  0.0374  0.0534  0.5099
47518W        W47718   9.624   6.310  15.599 -0.1605  0.0586 -0.2075
47519W        W47719  10.753   1.918   8.940  0.0486  0.0719 -0.1652
47520W        W47720  14.770  15.262   4.050 -0.2315 -0.0061 -0.0486
47521W        W47721   8.683   9.780   5.923  0.3279 -0.0386  0.0793
47522W        W47722  16.938  17.646  14.150 -0.1919  0.1416  0.1739
47523W        W47723  14.011   8.415   0.933 -0.1379 -0.0489  0.0302
47524W        W47724  14.058  16.156  12.814  0.3020 -0.0296  0.0932
47525W        W47725  17.786  13.454   2.752  0.0352  0.0887 -0.1879
47526W        W47726  14.820   5.080  11.261  0.0642  0.1840 -0.2237
47527W        W47727  11.283  13.957   6.387 -0.1002 -0.0237 -0.0626
47528W        W47728  14.104  15.876  14.697  0.0416 -0.2685 -0.4405
47529W        W47729   5.810   6.188  11.937  0.1279 -0.0182  0.2555
47530W        W47730   1.849   7.723   8.559  0.0311 -0.2164 -0.1722
47531W        W47731   8.456   7.018   3.685 -0.0772  0.1577  0.0835
47532W        W47732   0.955  16.621  12.447 -0.1258 -0.2244  0.0285
47533W        W47733   5.527  10.579   6.063  0.2039 -0.0824 -0.0440
47534W        W47734   1.457  10.928  17.892  0.2127  0.1515 -0.0392
47535W        W47735  15.433  14.239  13.200 -0.0118 -0.0402 -0.0442
47536W        W47736  15.666  13.671  14.564  0.0241 -0.4568  0.4049
47537W        W47737   1.945   2.443   3.418  0.0283 -0.0748 -0.1375
47538W        W47738  16.447  14.728  16.290 -0.1317 -0.0883  0.1249
47539W        W47739  14.648  16.346  14.005  0.2469 -0.3412 -0.0963
47540W        W47740  17.895  15.999  10.405  0.0381  0.2094 -0.1605
47541W        W47741   0.383  10.109  13.777 -0.0054 -0.1690  0.0383
47542W        W47742   1.456  12.536   1.743  0.1313 -0.0904  0.0048
47543W        W47743  15.576  12.729   1.323  0.0346  0.3354  0.1619
47544W        W47744  16.079  15.270  15.516  0.1565 -0.0828  0.0257
47545W        W47745  11.654  13.823   0.415  0.3550 -0.3579 -0.0959
47546W        W47746  17.500  12.897  15.729 -0.0819  0.0456  0.1671
47547W        W47747   2.279   5.858   9.436  0.2749  0.0745 -0.2989
47548W        W47748  11.338  11.962   5.669  0.2307  0.0995  0.0649
47549W        W47749   2.129   5.627  16.628 -0.2629  0.0974 -0.0929
47550W        W47750   0.666   8.381  12.564  0.2611 -0.3489  0.0689
47551W        W47751   3.263   7.954  11.715  0.1506  0.0396 -0.0478
47552W        W47752  14.978  10.729  12.228 -0.0291 -0.3876  0.1471
47553W        W47753   3.200  13.146  13.625  0.2473  0.1954  0.2678
47554W        W47754  11.798  12.839   5.687  0.0830  0.1047  0.0902
47555W        W47755  13.571  10.105   7.238  0.1600  0.2350  0.4915
47556W        W47756  16.828   0.643   5.181  0.1122 -0.1741 -0.1098
47557W        W47757   0.483  14.034   5.432 -0.4121 -0.0410  0.0306
47558W        W47758   5.176   5.931  17.654 -0.0623 -0.2982  0.0271
47559W        W47759   6.587  11.422   1.578 -0.3370  0.0382 -0.2158
47560W        W47760  12.696   5.382   7.590 -0.1529 -0.1292 -0.1950
47561W        W47761   0.215  17.194   6.986 -0.1931  0.1056 -0.0253
47562W        W47762  12.737   5.506   5.562 -0.0602 -0.2610  0.3164
47563W        W47763   1.424   3.193   3.031  0.0125 -0.0084  0.0306
47564W        W47764   1.941   7.502  11.591  0.0462 -0.1378  0.0439
47565W        W47765   9.413   9.871  15.790 -0.3336  0.2441 -0.1357
47566W        W47766  15.200  17.473  16.120  0.1924  0.1176  0.1666
47567W        W47767  15.497  11.131  14.491  0.1508  0.3805 -0.0649
47568W        W47768  12.770   8.131  14.190 -0.0702 -0.1863 -0.2024
47569W        W47769  13.901  13.311  13.897  0.0047 -0.1452 -0.0063
47570W        W47770   8.308   1.589   6.393  0.1544 -0.0044 -0.0392
47571W        W47771  15.007  13.711   3.071  0.1395 -0.0772  0.0671
47572W        W47772   6.337  17.386  13.746  0.1033  0.2292 -0.0912
47573W        W47773  12.696  11.430  17.792  0.1615 -0.2309 -0.0155
47574W        W47774   5.985  18.171  14.747 -0.0573 -0.2670 -0.1110
47575W        W47775  11.384  13.666   8.131  0.1570 -0.3841  0.0682
47576W        W47776  17.095   7.130   3.599 -0.0739 -0.0653  0.0490
47577W        W47777  11.320   0.816  15.120  0.3503 -0.1174  0.0528
47578W        W47778  11.587   8.108  15.148 -0.1395 -0.2037 -0.2165
47579W        W47779  13.351  10.414  17.923 -0.0023 -0.4630 -0.0844
47580W        W47780  13.559  14.766  12.728 -0.0694 -0.1709  0.0486
47581W        W47781  18.127  10.756  11.599 -0.0747  0.0663  0.3819
47582W        W47782  11.904  16.621  13.849  0.0011 -0.1483 -0.0434
47583W        W47783   2.101  14.334  12.514 -0.1093 -0.2991 -0.3237
47584W        W47784  11.897   5.581  15.919  0.0071  0.0242  0.2688
47585W        W47785   9.952  17.376  16.661  0.2081 -0.0386 -0.1341
47586W        W47786  17.661  11.129   0.142  0.2510  0.1822 -0.1040
47587W        W47787   4.680   3.369   0.934 -0.2969 -0.1774 -0.0356
47588W        W47788   7.584  15.209  13.970  0.0503 -0.0107 -0.2643
47589W        W47789  11.446  11.070  11.415  0.1744 -0.0447 -0.0196
47590W        W47790   8.356  10.171   3.176  0.1597  0.1899  0.0335
47591W        W47791  14.606  11.668  12.932 -0.0030  0.0459 -0.0515
47592W        W47792  17.610   8.362  11.126  0.1292 -0.1447 -0.0382
47593W        W47793  13.984   6.565  13.300  0.0733  0.0905 -0.0608
47594W        W47794   8.562   6.994  11.577  0.2592  0.1907 -0.6708
47595W        W47795   5.402   9.207  14.866 -0.2618  0.1091  0.0897
47596W        W47796   2.090  12.319  16.815 -0.0456  0.0446  0.1496
47597W        W47797  18.082  13.865   9.397  0.2426 -0.1279  0.3661
47598W        W47798   9.855  10.950  12.406 -0.2426  0.3487 -0.0082
47599W        W47799  11.658  17.943  12.987  0.1046  0.2429  0.0419
47600W        W47800  14.467  12.713   8.469  0.0484 -0.2875 -0.0905
47601W        W47801  17.798  13.663   5.931 -0.1045 -0.1417  0.0759
47602W        W47802  13.931  11.120   1.276  0.2916  0.0644 -0.1514
47603W        W47803   2.638   7.692   4.625 -0.2830  0.1168 -0.0856
47604W        W47804   2.547  12.450   3.725  0.3820  0.1131 -0.2067
47605W        W47805   0.770   4.662   4.497  0.1250  0.1427 -0.0819
47606W        W47806  12.025   5.009  14.959  0.1176  0.1029  0.0691
47607W        W47807  17.612  15.157  15.826  0.0099 -0.0246 -0.0079
47608W        W47808   6.361   8.896   1.898  0.1639  0.0249 -0.0467
47609W        W47809   1.047   8.330  10.679 -0.2324 -0.3224 -0.1069
47610W        W47810  11.919  15.960  14.833 -0.3867 -0.1693 -0.3178
47611W        W47811   7.152   8.034  13.932 -0.1053  0.1121 -0.3548
47612W        W47812   0.810  13.772   3.874  0.2852  0.0080 -0.1381
47613W        W47813  14.566  13.915   0.233  0.0304 -0.3193 -0.0934
47614W        W47814   0.718  14.200  11.929  0.1752  0.0500  0.0211
47615W        W47815  17.871  14.847  15.181 -0.2319 -0.1768  0.1067
47616W        W47816  14.047   8.969  15.582 -0.2379 -0.0839  0.3244
47617W        W47817  10.807  13.175  14.733  0.2072 -0.2208  0.1775
47618W        W47818  15.404  12.807  17.061  0.2644 -0.5027  0.1419
47619W        W47819  18.170   9.043  11.767  0.0160 -0.0518  0.1101
47620W        W47820  14.199  14.901   0.965  0.2661 -0.0513 -0.0475
47621W        W47821  13.619  13.926  15.483 -0.0597  0.1137 -0.0506
47622W        W47822  16.540  11.400   4.482 -0.0972 -0.2237  0.0671
47623W        W47823  16.029  10.718  10.872  0.0640 -0.0695 -0.0126
47624W        W47824   0.422  12.963   4.930  0.2671 -0.0060 -0.0430
47625W        W47825  11.797   9.234  17.965 -0.2389 -0.5789 -0.2319
47626W        W47826   9.566   9.282   9.402  0.0136 -0.0635  0.0931
47627W        W47827  17.099   6.020  14.937 -0.0481  0.0282 -0.2144
47628W        W47828   1.747  15.583  13.747 -0.0240 -0.0309  0.3744
47629W        W47829  13.070  14.093   8.672  0.0855 -0.2169 -0.1523
47630W        W47830   0.367  11.894   6.202 -0.2945  0.1770  0.0985
47631W        W47831   5.263  12.740  12.656  0.2711  0.1759 -0.0039
47632W        W47832  14.486   8.333   1.018  0.0300  0.1345 -0.2869
47633W        W47833   4.611  15.435  17.765  0.2515  0.2781  0.0100
47634W        W47834   1.881   7.695   1.051 -0.0754 -0.0577  0.1827
47635W        W47835   0.739  11.733  13.502  0.0721 -0.3779 -0.1158
47636W        W47836   1.002  14.719  10.453 -0.1257  0.0713  0.1893
47637W        W47837   0.785  17.521  12.200 -0.1555 -0.0775  0.3216
47638W        W47838  10.774   5.738  17.301  0.0836  0.0719 -0.3681
47639W        W47839  15.317   0.238  17.497  0.0611 -0.2723 -0.1455
47640W        W47840   8.025   8.981   3.840 -0.0269 -0.1830  0.0735
47641W        W47841  13.704   7.805   0.059 -0.2621 -0.0647  0.0221
47642W        W47842   1.022  10.508   8.344 -0.1342  0.2112 -0.0754
47643W        W47843  12.681  12.663  14.541 -0.0939  0.1275  0.0135
47644W        W47844  11.862  15.678  12.629 -0.1474 -0.2055  0.1745
47645W        W47845   3.002  10.061   9.163  0.0902 -0.1474  0.0698
47646W        W47846   2.676  13.110  13.585  0.0062  0.0054 -0.0016
47647W        W47847   0.475  12.508   9.424  0.1380  0.1194  0.0993
47648W        W47848  10.590  12.706   1.613  0.2881  0.1400  0.1060
47649W        W47849  13.204  12.362  14.785  0.1083 -0.1924 -0.0851
47650W        W47850  12.817  11.722   2.313  0.1753 -0.0362 -0.1198
47651W        W47851  14.644  10.083  16.787  0.0185 -0.2029  0.3201
47652W        W47852  17.463   0.723  16.308 -0.1627 -0.1112  0.0034
47653W        W47853   1.186   7.980  17.888 -0.0128 -0.1212 -0.2035
47654W        W47854   2.606  12.551   0.786 -0.0397 -0.3247 -0.0399
47655W        W47855  17.751   7.372  11.261 -0.0772 -0.3090  0.3693
47656W        W47856  16.703  10.878   5.857 -0.1463  0.1610  0.0385
47657W        W47857   3.738  14.434   4.049  0.0382 -0.0734  0.1048
47658W        W47858  16.922  12.247   2.409 -0.2585 -0.2315 -0.3793
47659W        W47859  15.217   9.711   0.971 -0.1804  0.0034  0.1329
47660W        W47860   7.189  17.107  17.701  0.2341  0.1200  0.2091
47661W        W47861  11.960  16.658  14.385 -0.2945  0.0238 -0.1493
47662W        W47862   0.928  10.984   2.086 -0.0629  0.1865  0.2355
47663W        W47863  12.664  18.030   2.048 -0.4290  0.0070 -0.1587
47664W        W47864  10.588  10.383  16.091  0.1014 -0.1786  0.0684
47665W        W47865  15.215  11.515  14.420 -0.0002 -0.1132  0.2412
47666W        W47866  17.038   7.020   9.783  0.4026  0.0019  0.1133
47667W        W47867  11.568  14.920   5.501  0.1474 -0.2490 -0.2223
47668W        W47868  15.767  16.429   7.455  0.0589  0.2132 -0.0379
47669W        W47869   1.111   0.684   2.378 -0.1377 -0.0293  0.0919
47670W        W47870   8.845  17.766  17.639 -0.0919 -0.0028 -0.5134
47671W        W47871  15.774  12.787  13.586  0.2299  0.2674 -0.0802
47672W        W47872  12.692   8.462   8.094 -0.1294  0.3304 -0.2843
47673W        W47873  15.677  15.595   0.860 -0.1518 -0.0823 -0.2043
47674W        W47874   8.769  12.319  14.758  0.1232  0.0308  0.2596
47675W        W47875  12.783   3.899  11.873  0.2767 -0.0069 -0.3665
47676W        W47876  15.962   9.834   5.118  0.0802  0.2298  0.2430
47677W        W47877  10.487  12.089  15.355 -0.2448 -0.3368 -0.0978
47678W        W47878   0.238   9.101  17.841  0.1814  0.0451  0.1628
47679W        W47879   8.679   2.360  16.085  0.0851 -0.1088 -0.3279
47680W        W47880  13.050  15.447  13.086 -0.3423  0.2155 -0.1945
47681W        W47881  18.133  17.501  13.034  0.3307  0.1617  0.4554
47682W        W47882  12.175  17.094  11.959 -0.1867  0.0519 -0.5172
47683W        W47883  13.433  13.400  15.065 -0.0454 -0.2219  0.1945
47684W        W47884  14.797  11.880  14.352 -0.1222  0.1448 -0.5345
47685W        W47885  16.279  14.399  16.697 -0.0168  0.1414 -0.3195
47686W        W47886  18.146   6.954   6.796 -0.2188  0.1344  0.0129
47687W        W47887  13.363   5.365   2.438 -0.0473  0.1170  0.1601
47688W        W47888   1.407  10.558  14.133 -0.0444 -0.1344 -0.0972
47689W        W47889  16.990  10.141   5.636 -0.1791 -0.4261  0.0488
47690W        W47890   8.402  16.394   8.715 -0.1706 -0.2848  0.1247
47691W        W47891  13.494  17.764  17.611 -0.2110  0.1016  0.0353
47692W        W47892  15.104   7.460   3.798 -0.5161  0.0054  0.0015
47693W        W47893  16.335   6.404   9.492  0.2264  0.0290 -0.2798
47694W        W47894  17.803  10.016  17.400 -0.0165 -0.0787 -0.2610
47695W        W47895   9.567   2.666  14.871 -0.2160 -0.0176  0.0567
47696W        W47896   0.935   3.817   6.885 -0.1645 -0.0655  0.0033
47697W        W47897  10.638   2.085   0.739 -0.1088 -0.2010  0.1554
47698W        W47898   3.705   9.715   7.412 -0.1508  0.0001 -0.0534
47699W        W47899  15.599   8.809  16.303 -0.1556 -0.4081  0.0457
47700W        W47900   1.147  12.624  16.096  0.0948 -0.1829  0.1783
47701W        W47901   0.571  16.836  15.952  0.1332  0.0611 -0.3575
47702W        W47902   3.356   0.832   5.082  0.2158  0.3950 -0.0392
47703W        W47903  11.653  16.902  17.771 -0.2661  0.2269 -0.1423
47704W        W47904  17.870  18.180  16.599  0.3165 -0.2649 -0.3889
47705W        W47905  15.243  13.076  17.580  0.4748 -0.0436  0.2205
47706W        W47906  15.067   0.868  15.194 -0.2798  0.0257 -0.1230
47707W        W47907   5.046  13.686  15.314  0.1735  0.1189 -0.0382
47708W        W47908   2.624   8.676  14.410 -0.0277 -0.0018 -0.1201
47709W        W47909  14.977   8.951  13.580 -0.1079 -0.0747 -0.2834
47710W        W47910  15.425  17.019  13.988 -0.1242 -0.1564  0.0587
47711W        W47911  11.363  11.848  11.287  0.1905  0.2646 -0.0548
47712W        W47912  17.826  11.910  13.061 -0.1013 -0.2220 -0.1365
47713W        W47913   3.268   5.123   4.563  0.0092  0.0431  0.0693
47714W        W47914   1.255   0.818  17.643 -0.1939 -0.1770 -0.1025
47715W        W47915  10.581  11.535   0.094 -0.2307 -0.0659 -0.0723
47716W        W47916  15.960  13.610  17.307 -0.2186 -0.1544  0.2058
47717W        W47917  14.359  15.114  14.411  0.0445  0.0398 -0.1784
47718W        W47918  14.168   6.542   2.701  0.1530  0.2007 -0.0913
47719W        W47919  12.749   8.225   2.640 -0.1077 -0.0463  0.3725
47720W        W47920  17.120   5.143  16.046 -0.1199  0.2320 -0.1459
47721W        W47921  10.934   7.848   3.445  0.0409 -0.4260  0.0430
47722W        W47922  14.890  12.464   3.300 -0.1731  0.0126 -0.1433
47723W        W47923   9.841  10.483  14.223 -0.3114  0.1438  0.0232
47724W        W47924  11.418  10.480  15.224 -0.0890 -0.1251 -0.0418
47725W        W47925  12.961  11.493   1.308  0.4300 -0.0254  0.1870
47726W        W47926  17.762   6.865  12.931 -0.0119 -0.0809  0.1534
47727W        W47927   8.506   8.196   0.593  0.0838  0.0574  0.2081
47728W        W47928  17.621   6.882   7.963 -0.2233 -0.2314  0.0386
47729W        W47929   0.746  11.880  16.438 -0.1228  0.0431  0.0150
47730W        W47930   3.405   6.720  11.384  0.0389  0.1604  0.1042
47731W        W47931  15.923  12.556  15.834  0.0492 -0.1948  0.2593
47732W        W47932  10.285  12.469  14.559  0.0371  0.1016 -0.0581
47733W        W47933   5.458  15.459  13.746 -0.1682 -0.0902  0.1445
47734W        W47934  16.216  10.905   3.770 -0.1133  0.1668  0.0752
47735W        W47935  17.324  14.558   1.644  0.0729  0.3437 -0.0616
47736W        W47936   0.262  17.316   0.509  0.2149 -0.0317  0.2037
47737W        W47937   3.159   3.690  16.926  0.0505  0.0289  0.0238
47738W        W47938  16.615  13.152  15.830  0.1132  0.2580 -0.0913
47739W        W47939   1.723   0.326   4.899 -0.0009  0.3173  0.0884
47740W        W47940  16.552   1.197   4.367  0.3125 -0.1549 -0.0130
47741W        W47941  17.808   7.955   0.147  0.1368  0.3477 -0.1306
47742W        W47942  14.922  11.731  12.167 -0.3162 -0.0004 -0.1588
47743W        W47943   5.032  12.235  17.398 -0.2432 -0.1593 -0.0482
47744W        W47944   0.573  15.415  17.163 -0.1887 -0.3182 -0.0704
47745W        W47945   4.222  12.977  11.515  0.0342  0.0341 -0.1188
47746W        W47946   1.530   9.686  13.420 -0.3004 -0.0895  0.0560
47747W        W47947  16.238  16.288   1.089 -0.0503  0.0829  0.0119
47748W        W47948   7.829  10.728   0.733 -0.2137 -0.0778 -0.2033
47749W        W47949  11.209   9.690   2.316 -0.2661 -0.1843 -0.0797
47750W        W47950  17.164  11.669  16.984  0.1207  0.1271  0.0160
47751W        W47951  16.296  12.354  17.454 -0.0652 -0.0414 -0.1159
47752W        W47952   1.357   8.921  17.019 -0.2218  0.4862  0.0136
47753W        W47953  16.845  17.952  12.504 -0.1041  0.2415 -0.0189
47754W        W47954  14.561  14.724   4.095 -0.0791 -0.1137  0.0080
47755W        W47955   5.473  14.700  17.280 -0.0488 -0.0122  0.0018
47756W        W47956  15.567   2.890  17.579 -0.0075 -0.2073 -0.1620
47757W        W47957   0.197  14.060  15.024  0.3048 -0.0016  0.1180
47758W        W47958  17.896   9.529  17.364  0.2855  0.0132 -0.1644
47759W        W47959  14.502  17.457   0.016 -0.0022  0.0982  0.0515
47760W        W47960   3.216   3.274  13.351 -0.4513 -0.1506 -0.0246
47761W        W47961  14.583   3.737   1.156  0.0448 -0.1394 -0.3126
47762W        W47962   4.631  14.662  14.515  0.0155 -0.1304 -0.0071
47763W        W47963  11.422   8.194  17.253 -0.0556  0.0474 -0.1671
47764W        W47964  17.107  14.730  13.536 -0.1695 -0.2928 -0.1057
47765W        W47965   6.112   3.989  10.773  0.0515  0.1743 -0.2226
47766W        W47966  15.479   4.648  14.653  0.4199  0.0152  0.1497
47767W        W47967  15.363  14.621  16.875 -0.0284  0.0854 -0.1194
47768W        W47968   1.675  14.246  16.244  0.1986  0.1253  0.0122
47769W        W47969   1.958   9.302  13.247 -0.0656  0.1387  0.1912
47770W        W47970   9.701   7.089  15.308  0.1517  0.1930  0.0238
47771W        W47971   0.399  12.174  16.099  0.1653  0.0392 -0.2182
47772W        W47972  14.860  11.176  14.376  0.2039  0.2662  0.3770
47773W        W47973  14.009   7.072  13.333 -0.0611 -0.0390 -0.2815
47774W        W47974  17.392  15.049   8.311 -0.2446  0.0070  0.3498
47775W        W47975  10.467  11.748   4.922  0.0451 -0.2321 -0.0662
47776W        W47976  13.014  13.826   3.898 -0.0128 -0.1921  0.0344
47777W        W47977   3.525  11.611   8.013  0.1786  0.1736 -0.1374
47778W        W47978  15.671   7.925  15.375 -0.1900  0.0714  0.4088
47779W        W47979   5.353  10.672  14.990 -0.1742  0.0291  0.0213
47780W        W47980  14.448   7.888   2.144  0.2319  0.3807  0.1997
47781W        W47981  17.021  15.264   4.374 -0.0517  0.1274 -0.0644
47782W        W47982   9.741  16.450  17.511  0.0077  0.0944  0.2018
47783W        W47983   2.204  11.289  12.102 -0.0284 -0.2603 -0.3340
47784W        W47984   6.379  12.614   5.652  0.0039  0.2180  0.1382
47785W        W47985   5.762   4.421  15.953 -0.2535  0.0187 -0.0864
47786W        W47986  14.519   9.281   9.421 -0.1204 -0.3049  0.0352
47787W        W47987   7.338  10.029  15.633 -0.3708 -0.0566  0.0128
47788W        W47988  13.007   2.815  15.058  0.0883 -0.2741 -0.0324
47789W        W47989   0.255  17.867   0.415 -0.1629  0.1492 -0.1166
47790W        W47990   2.807  11.036   4.426 -0.0012 -0.1944 -0.0648
47791W        W47991  12.009  10.686   7.200 -0.0644 -0.4703 -0.3899
47792W        W47992  16.350   3.022  15.756 -0.2199  0.1924 -0.2303
47793W        W47993   6.329  14.219  10.519  0.3976  0.2316  0.2067
47794W        W47994  12.433   9.825  12.760  0.1727  0.0430  0.0310
47795W        W47995  14.002  15.345   1.681 -0.0628  0.1842  0.2962
47796W        W47996   7.085  18.147   2.772  0.2664  0.3699 -0.0898
47797W        W47997  16.861  16.499  13.605  0.1639 -0.2855  0.2484
47798W        W47998   0.388  10.477   0.429  0.1303 -0.3768  0.2432
47799W        W47999  14.630  12.505  15.510 -0.3735 -0.3645 -0.2266
47800W        W48000   1.451  13.102  17.049  0.5010  0.1672 -0.1476
47801W        W48001   1.264   9.639  17.607 -0.1688  0.1898  0.1092
47802W        W48002  10.973   5.936   5.149 -0.1026 -0.3237  0.1315
47803W        W48003   8.580   0.210  16.452 -0.1335  0.0797 -0.0298
47804W        W48004   8.328  14.026   4.377  0.0689  0.2822  0.0832
47805W        W48005  15.778   6.833   1.816 -0.0963 -0.1889 -0.0581
47806W        W48006   7.079  12.076   2.186  0.0393 -0.1688  0.1293
47807W        W48007   3.660   6.206  10.004 -0.2115 -0.3242  0.2373
47808W        W48008   2.775  16.024   8.970  0.2046  0.1102 -0.0359
47809W        W48009  11.645  16.550  11.302 -0.0974 -0.1463  0.1257
47810W        W48010   8.384  10.207  16.702  0.0755  0.1950  0.2474
47811W        W48011  15.968   7.403   2.965 -0.1122  0.4409  0.0074
47812W        W48012  12.596  14.577   1.147 -0.0944  0.1528  0.4304
47813W        W48013  15.596  10.597   0.145  0.2870  0.2750  0.1046
47814W        W48014  12.537  13.611  18.186  0.0879  0.0146  0.0264
47815W        W48015  15.365  11.181  17.689  0.3159  0.3204  0.0162
47816W        W48016  17.658  14.459   1.152 -0.0181 -0.2966  0.0873
47817W        W48017  15.651  12.350  17.062 -0.1244 -0.1304 -0.0967
47818W        W48018   4.224  12.143   2.626 -0.1327  0.0666  0.1197
47819W        W48019   1.737  16.224  14.473  0.4216 -0.0444  0.0081
47820W        W48020   0.767   7.538  13.048 -0.1936  0.1419 -0.2251
47821W        W48021  16.056  11.542   8.323 -0.1146  0.1622  0.1912
47822W        W48022   5.660   7.294  12.278  0.1306  0.4420 -0.1475
47823W        W48023  16.430   8.934   0.264  0.0449  0.0333 -0.1889
47824W        W48024  11.143  15.535   8.604 -0.2043  0.1460  0.1479
47825W        W48025  17.130  11.834   3.902  0.1379  0.0108 -0.0001
47826W        W48026   0.605   0.606   8.618 -0.3405 -0.2587 -0.1403
47827W        W48027  11.182  15.231  16.978 -0.0133 -0.0220  0.1149
47828W        W48028  16.449  15.167   7.900  0.1233  0.2189  0.4154
47829W        W48029   9.976  15.019   0.550 -0.1394  0.0636 -0.0284
47830W        W48030   4.747   0.624  13.840 -0.1025  0.0887  0.1322
47831W        W48031   0.507  12.770  10.650  0.1421  0.0452  0.0992
47832W        W48032  15.483   1.093  15.107 -0.0191  0.0558 -0.0205
47833W        W48033  10.688   8.549   0.726 -0.4057  0.0808 -0.1859
47834W        W48034  10.729  15.610  16.338 -0.2863  0.2141  0.0072
47835W        W48035  13.528  16.291   2.889 -0.1907 -0.1263  0.0715
47836W        W48036   4.267   0.789  14.008 -0.0710  0.0310 -0.1334
47837W        W48037  12.047  17.141  18.107 -0.2761  0.1963 -0.1624
47838W        W48038  16.313  15.153   3.711  0.0967 -0.0918  0.0773
47839W        W48039  10.885  10.427  13.071 -0.0927  0.0642  0.1266
47840W        W48040   1.729   6.489  17.716  0.1271 -0.3121 -0.2063
47841W        W48041  10.433   4.410  15.035 -0.0813 -0.2298  0.2388
47842W        W48042  16.201   8.936   1.063  0.2120  0.0486 -0.1363
47843W        W48043  12.865  10.641  13.446  0.1857 -0.3924 -0.0699
47844W        W48044  12.578   6.581  14.347  0.1904  0.3678 -0.0756
47845W        W48045   7.894   3.380  17.511 -0.0158  0.0333 -0.1626
47846W        W48046   7.442   8.424  14.148 -0.1746  0.0232  0.1617
47847W        W48047  13.148   5.504  13.997 -0.1758  0.2795  0.2122
47848W        W48048  13.385   2.679  14.772  0.2190  0.0296  0.0188
47849W        W48049  14.146  16.433  12.232 -0.2532 -0.0192  0.1475
47850W        W48050  12.915  11.797  16.581 -0.1341  0.0198 -0.0865
47851W        W48051  14.000  12.295  15.099 -0.0385 -0.1572 -0.3927
47852W        W48052  16.104   3.538  15.831 -0.3167 -0.0063 -0.2781
47853W        W48053   6.326  12.934  15.697  0.1537 -0.1053 -0.0395
47854W        W48054  12.538   7.925  16.963 -0.2325 -0.0722 -0.0842
47855W        W48055  11.265   2.720   2.965 -0.0638  0.0786  0.1212
47856W        W48056  10.192   9.119   0.108  0.0226 -0.0449 -0.1012
47857W        W48057  15.412   8.823   2.348  0.0986  0.0956  0.0660
47858W        W48058  12.874  17.729  12.280  0.1559  0.3646 -0.1322
47859W        W48059  16.113  13.608   5.470  0.1067  0.0166  0.1188
47860W        W48060  14.010  11.362  11.788 -0.1922 -0.3465  0.0658
47861W        W48061  17.293   8.738   1.337 -0.2329  0.1535 -0.0048
47862W        W48062   0.899   5.479   8.996 -0.0298 -0.1566  0.1639
47863W        W48063   4.013  11.711   5.580  0.1846  0.0220 -0.0536
47864W        W48064   8.305   8.253  14.584 -0.2036 -0.0219 -0.2813
47865W        W48065   7.805   8.141   7.875 -0.0701  0.1755  0.0914
47866W        W48066   2.463  11.617   1.257  0.1752  0.0182  0.0105
47867W        W48067   4.570  13.756  12.368 -0.4179  0.1127  0.2553
47868W        W48068  15.899   6.407   7.153 -0.1594  0.0759  0.3180
47869W        W48069   4.492  15.074  14.888  0.1114 -0.1167 -0.1735
47870W        W48070   2.249  13.493   8.620 -0.0957 -0.0439 -0.1764
47871W        W48071  18.009   6.160  15.453  0.4126 -0.1569  0.1765
47872W        W48072  10.152   8.327  15.185  0.0425 -0.2511 -0.0161
47873W        W48073   1.474  10.440   8.541 -0.3520  0.0824 -0.4046
47874W        W48074  13.694   1.125  10.863  0.0513 -0.2683 -0.1967
47875W        W48075   0.885  18.078  11.168  0.1850  0.0853  0.1010
47876W        W48076   0.109  16.438   1.704  0.0741  0.1721 -0.1702
47877W        W48077  12.602  12.486  18.057 -0.1588 -0.0271 -0.0922
47878W        W48078  12.171   3.091  15.028 -0.0533  0.2717  0.2792
47879W        W48079   0.992  10.682   7.781  0.0201  0.3331 -0.3411
47880W        W48080  16.524  14.416  15.424 -0.0421  0.1154 -0.0966
47881W        W48081  17.234   7.921  13.444 -0.0869 -0.2529  0.1343
47882W        W48082   7.047   1.158  17.093  0.1320 -0.1019 -0.1000
47883W        W48083   0.213  10.504   5.094  0.2438 -0.3573 -0.0694
47884W        W48084  17.765   8.000  14.951  0.1421 -0.0910 -0.1670
47885W        W48085   3.350  17.129   2.622  0.0039  0.2368 -0.0671
47886W        W48086  13.948   7.674  15.396  0.4276 -0.4725 -0.2363
47887W        W48087  14.845  12.391  11.460 -0.0139 -0.1321 -0.0578
47888W        W48088  13.855  17.533  13.706 -0.2303  0.3479  0.0345
47889W        W48089  17.634  14.080   4.873  0.0203 -0.0747 -0.0225
47890W        W48090  14.853   2.642  10.360 -0.1078 -0.0120  0.3210
47891W        W48091  14.323  12.029   0.013  0.0991  0.0108  0.0796
47892W        W48092  15.440  14.629   2.704  0.4677 -0.0275 -0.0856
47893W        W48093  16.742  12.018  12.681 -0.1105 -0.0883 -0.1946
47894W        W48094  17.621  11.459  15.724 -0.2715  0.2324 -0.2299
47895W        W48095  15.145  12.867   5.367  0.1343 -0.0831 -0.2103
47896W        W48096  16.215  13.988  16.920  0.1648 -0.3236  0.0484
47897W        W48097   7.399  15.357   3.960 -0.0483  0.3607 -0.0799
47898W        W48098  17.188  10.492  14.868  0.0250  0.0032 -0.2391
47899W        W48099  11.139   8.547   3.341 -0.1371  0.0263 -0.1764
47900W        W48100   2.409  12.816  15.081  0.2366 -0.1464  0.1017
47901W        W48101  14.115  11.403  17.024 -0.3838  0.2132  0.3222
47902W        W48102   1.153   7.031  11.380 -0.0321 -0.0585  0.1135
47903W        W48103  13.839  17.027  13.805 -0.0086 -0.2253 -0.0979
47904W        W48104  14.073  12.320   0.329  0.3906  0.2811 -0.1303
47905W        W48105  18.190   0.664   2.082 -0.2165 -0.3850 -0.0624
47906W        W48106  14.998   5.090   1.146  0.1520  0.0099 -0.0676
47907W        W48107   9.197   0.683  12.437  0.0004 -0.1005 -0.0263
47908W        W48108   3.445  16.187   5.272 -0.0590 -0.1111 -0.0938
47909W        W48109  17.455  12.763  12.354  0.3608  0.4217  0.1885
47910W        W48110   6.336  16.814   1.341  0.1543  0.0595  0.1249
47911W        W48111  12.139  12.771  12.753  0.1214 -0.0867 -0.1519
47912W        W48112  10.622  15.149  16.350  0.1942  0.1817  0.0990
47913W        W48113   6.377   8.152   4.457 -0.0352  0.1660 -0.1505
47914W        W48114   8.311   6.841  12.022  0.0106  0.3589 -0.0229
47915W        W48115   0.059   3.658   8.723  0.2731 -0.0616  0.4593
47916W        W48116   2.724  10.217   2.940 -0.2020  0.2482  0.2284
47917W        W48117  14.070   4.596  17.034  0.0292 -0.1128 -0.1535
47918W        W48118   5.085  14.448   2.731  0.1555 -0.0285 -0.2158
47919W        W48119   0.967  14.215  10.383 -0.1541  0.2119  0.1793
47920W        W48120   6.079   1.164  16.401  0.2318  0.2412 -0.3067
47921W        W48121  15.012  13.680   1.411 -0.1076 -0.0394  0.1336
47922W        W48122  17.489  10.744   0.379  0.0582  0.0891 -0.1192
47923W        W48123   1.093  17.248  15.567 -0.3170  0.0151 -0.1242
47924W        W48124  15.164  14.222  17.605  0.3214  0.1619 -0.1022
47925W        W48125  10.984   9.193  14.526  0.0361  0.0387 -0.1999
47926W        W48126  10.140  13.261   2.094  0.1051 -0.1545 -0.0819
47927W        W48127   3.124  12.248   4.076 -0.1630  0.0962 -0.0817
47928W        W48128  14.775   8.471  15.315 -0.1270 -0.1137 -0.1705
47929W        W48129  14.682  14.785   0.767  0.5019  0.0346 -0.1189
47930W        W48130   1.811   0.691  15.319 -0.0153  0.0372  0.0091
47931W        W48131  12.850  10.550  14.036 -0.1352  0.0668  0.0853
47932W        W48132  14.542   8.453  17.816 -0.1401 -0.1268  0.2286
47933W        W48133   9.246  13.085   4.780  0.1886 -0.0478  0.1553
47934W        W48134  17.278   7.581  11.027 -0.0834 -0.1821 -0.1920
47935W        W48135   2.043  15.292  11.469  0.0292  0.3252  0.0040
47936W        W48136   5.210  10.710   3.363  0.1813 -0.2379 -0.3183
47937W        W48137  11.077  13.955   4.483 -0.4215 -0.1157  0.0219
47938W        W48138   6.325  15.472  14.522  0.1677  0.2633  0.0954
47939W        W48139  15.855  11.923  12.797 -0.2341 -0.2393 -0.0314
47940W        W48140  13.187  15.049   2.967 -0.0768 -0.0619  0.1908
47941W        W48141  15.160   1.946   3.181 -0.0824 -0.0581 -0.1503
47942W        W48142   9.409  15.152  17.883  0.1554  0.1542 -0.1404
47943W        W48143   5.030  16.419  13.903 -0.1007  0.1738 -0.0875
47944W        W48144   0.530   2.045   4.685  0.2195 -0.0627 -0.0464
47945W        W48145  15.191  14.033  13.817 -0.4045  0.2466  0.0513
47946W        W48146  14.147  11.663  16.195 -0.1012  0.2027  0.3227
47947W        W48147   6.881   7.841  10.583  0.1608 -0.0710 -0.1291
47948W        W48148   5.554  12.367  13.119 -0.2295 -0.1457 -0.0835
47949W        W48149  14.266   6.588   5.380  0.2501  0.3121  0.0713
47950W        W48150  14.429   7.778  13.507  0.0976 -0.1985 -0.2012
47951W        W48151  12.872   9.562   4.163  0.0716  0.0881 -0.2232
47952W        W48152  15.268  14.346   0.521 -0.1513  0.0195 -0.4333
47953W        W48153  12.972  16.128   6.113  0.0942 -0.0898  0.3231
47954W        W48154  14.972  12.268  13.537  0.2612 -0.0236 -0.1071
47955W        W48155  15.816  12.800   0.926  0.1802 -0.1470  0.2465
47956W        W48156  17.865  12.507  15.945  0.0168  0.0803  0.0772
47957W        W48157  13.348  10.892   3.213  0.0962  0.1127  0.2006
47958W        W48158   4.135   9.585  12.781  0.1641 -0.1589  0.1595
47959W        W48159  12.327  16.208   2.123 -0.2059  0.0691 -0.2042
47960W        W48160  12.006   9.894  15.118  0.0701 -0.6106 -0.0685
47961W        W48161   7.712  10.851   8.371  0.2308  0.2645 -0.0832
47962W        W48162  11.097   7.445  15.870  0.3422  0.1357 -0.1681
47963W        W48163  15.606   3.129   3.618 -0.1392  0.0814  0.0653
47964W        W48164  16.839  16.897  13.216 -0.0761  0.2074  0.1807
47965W        W48165   3.330  15.862   2.613 -0.1569 -0.0922  0.1360
47966W        W48166   1.422   2.270  11.953 -0.0081  0.0672 -0.2174
47967W        W48167  12.773  10.079  17.058  0.1001  0.0190  0.0122
47968W        W48168   3.914  17.271  14.953  0.0648 -0.3574 -0.0897
47969W        W48169  16.813  13.268  16.672  0.1784  0.0398  0.3894
47970W        W48170  16.296  13.446  11.975 -0.1082 -0.1558  0.0978
47971W        W48171  13.295  17.095   4.247  0.0658  0.1781 -0.0621
47972W        W48172   1.202  13.530   0.509  0.1827 -0.1883 -0.1613
47973W        W48173  15.311  13.377   2.262  0.0134  0.2989  0.2498
47974W        W48174   0.909  13.564  15.812 -0.3004  0.0702  0.2829
47975W        W48175  15.220   7.459   9.803  0.0112 -0.4833 -0.0986
47976W        W48176   6.996  16.649   7.586 -0.1338 -0.0569 -0.3184
47977W        W48177   2.501   3.112   7.979 -0.2188  0.0062 -0.1480
47978W        W48178  15.346  15.776  15.141 -0.1621  0.1120  0.1472
47979W        W48179  14.604  15.678   0.854 -0.2101  0.0086  0.0130
47980W        W48180   2.742  14.987  17.546  0.0997  0.1272 -0.0698
47981W        W48181  12.904   1.294  14.554  0.0595 -0.3481  0.0546
47982W        W48182  16.036   5.955  11.708 -0.1902 -0.0679  0.2926
47983W        W48183   4.201   3.441  12.095 -0.1516 -0.1273 -0.0071
47984W        W48184  11.408   8.056  10.253 -0.0593  0.2762  0.0034
47985W        W48185   2.240  13.896   5.018  0.0211  0.1457  0.1000
47986W        W48186   5.386   1.162  15.089  0.0999  0.4287 -0.0762
47987W        W48187   0.810   0.892  14.362  0.0228  0.0078  0.2933
47988W        W48188  17.720   7.283   5.407  0.2062  0.0604  0.2870
47989W        W48189  12.992   7.486   1.556  0.0953 -0.0343 -0.3054
47990W        W48190   7.208   4.261   6.932 -0.0453 -0.0345 -0.3215
47991W        W48191   5.512   1.375   5.578 -0.1848  0.3082 -0.0268
47992W        W48192  15.651  14.638   1.721 -0.0962 -0.0901  0.0638
47993W        W48193  13.871   7.930  13.427  0.1048  0.0708 -0.2800
47994W        W48194  16.247   1.933   0.072 -0.2985 -0.2390  0.0051
47995W        W48195  13.874  13.455   1.545  0.2288  0.3043 -0.1816
47996W        W48196  18.061  14.552  17.197 -0.0702 -0.1624  0.0881
47997W        W48197  17.338  10.808  16.168 -0.0776  0.0342  0.1691
47998W        W48198   0.945   5.966   4.354  0.0351 -0.2260 -0.1560
47999W        W48199  11.481  16.620  15.721  0.3010  0.0889 -0.0165
48000W        W48200  15.712   1.816  13.448 -0.0210  0.1872 -0.1438
48001W        W48201   6.538  17.959   4.120  0.1238  0.0190 -0.1887
48002W        W48202   2.361  16.844   4.241 -0.0277  0.1229 -0.0243
48003W        W48203   0.109  12.861  13.013  0.0771 -0.2994  0.3020
48004W        W48204  12.435  13.270  17.289  0.2953  0.1415  0.1304
48005W        W48205  14.161   2.253  15.583 -0.0259 -0.1700  0.1993
48006W        W48206  18.001  15.462   9.591 -0.1383  0.3214  0.0262
48007W        W48207  18.137   2.910   0.147  0.4163  0.0262  0.2176
48008W        W48208  15.992   0.649   7.728 -0.1127 -0.0215 -0.2156
48009W        W48209  13.286  17.182   2.215  0.1938  0.3144 -0.3582
48010W        W48210  13.412  14.525   6.789 -0.1365  0.1001 -0.2160
48011W        W48211   2.910  14.274   0.232 -0.0744 -0.0943  0.0592
48012W        W48212   0.368  17.433   0.051  0.3881 -0.0281  0.2719
48013W        W48213   1.813  15.255   1.979  0.0723 -0.2157  0.0432
48014W        W48214   5.355   1.956  11.378 -0.3360  0.1216  0.2129
48015W        W48215   1.452  15.682   0.592 -0.2522  0.0748 -0.0086
48016W        W48216   0.999   4.259   3.902  0.1767 -0.0926 -0.3684
48017W        W48217  15.866   0.181  11.044  0.2108 -0.1095 -0.2078
48018W        W48218   9.343   1.282   9.426  0.2736 -0.0521 -0.1592
48019W        W48219  17.155  16.152   9.805  0.0668 -0.1297  0.0551
48020W        W48220  16.826  18.203  17.372 -0.2243  0.0772  0.2899
48021W        W48221   8.992   7.192   5.570  0.0417 -0.4398 -0.0137
48022W        W48222  10.510  11.034   3.688  0.0437 -0.0709  0.0345
48023W        W48223  15.482   6.312   1.987 -0.1694  0.3077  0.2718
48024W        W48224   1.619   2.044   3.604 -0.2583  0.0655 -0.2977
48025W        W48225   6.424   2.089   6.767  0.2129  0.2985 -0.4295
48026W        W48226  15.168  15.766   5.370  0.0270  0.0890  0.0804
48027W        W48227  15.361   2.211   4.863  0.0289 -0.2140  0.1946
48028W        W48228  12.476   9.381   3.942  0.2565 -0.0369  0.0057
48029W        W48229  17.987   7.657  17.531  0.2330  0.0513  0.1289
48030W        W48230   3.620  16.311  14.073 -0.1569  0.0344 -0.0226
48031W        W48231   0.013   0.708   5.171  0.4698  0.0921 -0.0163
48032W        W48232  15.823  14.196   6.844 -0.0590  0.0548 -0.0895
48033W        W48233   5.327   4.887  18.190  0.1968 -0.0862 -0.0637
48034W        W48234  12.229   0.592   4.766  0.0259  0.1850  0.0089
48035W        W48235   2.816   1.042   0.110 -0.1883  0.0095  0.3883
48036W        W48236   9.685   5.487  13.502  0.0884  0.0020 -0.1149
48037W        W48237  16.391   6.373  15.770  0.1955  0.0020  0.0990
48038W        W48238   9.096   0.539  15.229  0.0313  0.3173 -0.1980
48039W        W48239  12.636   8.873   2.219 -0.1014  0.0013  0.0570
48040W        W48240  17.271  14.681   3.341 -0.3121  0.3289  0.0324
48041W        W48241   5.245  17.290  16.952  0.1679  0.0258  0.1557
48042W        W48242  17.364  16.672   0.766 -0.1942  0.1856 -0.1432
48043W        W48243   1.275  15.807  15.827  0.1396  0.0347  0.1363
48044W        W48244  11.701  17.370  16.934  0.0038  0.0847 -0.0005
48045W        W48245  13.803  12.685   4.769  0.0146 -0.1947  0.2735
48046W        W48246  14.576  16.500  17.365 -0.2008  0.0441  0.1805
48047W        W48247   8.916   1.418  16.838  0.0979 -0.2253  0.0433
48048W        W48248  10.456   5.026  16.389  0.1291 -0.2018  0.1041
48049W        W48249  17.167   9.619   0.067 -0.3071 -0.1172 -0.2276
48050W        W48250  15.995  15.318  16.889 -0.1965 -0.2260  0.1361
48051W        W48251  15.426   7.642  11.143 -0.2902  0.1348  0.0243
48052W        W48252  13.817   3.376   5.130  0.0356 -0.5103 -0.0485
48053W        W48253   2.046   5.086   9.144 -0.0841 -0.1375 -0.0506
48054W        W48254   2.031  16.166   9.137  0.0149  0.1796  0.0264
48055W        W48255  12.151   1.218  17.094 -0.0996 -0.0395 -0.0042
48056W        W48256   0.405  14.407   4.641 -0.0777 -0.1502 -0.1371
48057W        W48257   0.834   5.560   8.424  0.1539 -0.2389  0.0387
48058W        W48258   7.499   3.679   4.072  0.2999  0.2126  0.0193
48059W        W48259  13.774   0.254   1.578 -0.0507 -0.3399 -0.2286
48060W        W48260   1.611  13.028   1.796 -0.3436  0.0856  0.2076
48061W        W48261  16.533  15.447   1.167 -0.2938 -0.2469  0.1645
48062W        W48262   4.805  15.214  11.556 -0.3173 -0.1839 -0.1161
48063W        W48263  17.627   2.032  16.376 -0.1067  0.2544  0.3235
48064W        W48264  15.060   5.579   0.813 -0.2549  0.0482 -0.3852
48065W        W48265   9.509   3.000   7.598  0.0362 -0.3318  0.2346
48066W        W48266   6.288   0.024   2.443 -0.0617  0.2464 -0.0503
48067W        W48267  18.162  11.321  15.701 -0.0987  0.1935  0.0132
48068W        W48268  17.764   0.495   7.716  0.3214  0.0182  0.1303
48069W        W48269   6.046  15.644   1.094  0.0830  0.0986  0.2170
48070W        W48270   1.253  10.555   2.030 -0.0133  0.0970 -0.0777
48071W        W48271   1.370  17.613  12.406 -0.2533  0.0829  0.3909
48072W        W48272   7.506   4.956   6.016 -0.0801 -0.2198 -0.0107
48073W        W48273   0.345  11.685   1.026 -0.1368 -0.0842  0.0112
48074W        W48274   4.623   4.811  12.505  0.1273  0.0232  0.2192
48075W        W48275  16.425   4.295  11.373  0.1480 -0.1408 -0.3137
48076W        W48276   1.774  15.507  15.703  0.2138  0.0341 -0.0492
48077W        W48277   1.850  17.943   0.864 -0.4092 -0.4022 -0.0498
48078W        W48278   0.191   8.202  11.322 -0.0688  0.0171 -0.0052
48079W        W48279  15.184  15.982  12.250  0.0266  0.0315 -0.0883
48080W        W48280  16.194  18.119   3.128 -0.0785  0.2835  0.3352
48081W        W48281   2.924  13.787  17.465 -0.0125 -0.2902 -0.1534
48082W        W48282   8.230  14.954   9.213  0.0201  0.0764 -0.3196
48083W        W48283  15.231   4.296   1.321 -0.0607  0.1473  0.2267
48084W        W48284   4.953  10.355   5.360 -0.1331  0.0557 -0.1284
48085W        W48285  11.168  12.709  16.899 -0.1416  0.2805  0.1246
48086W        W48286  13.288  11.377   4.562  0.1107  0.0536 -0.3579
48087W        W48287  16.287  17.959   9.075 -0.2760  0.1823 -0.0743
48088W        W48288  16.905   2.749  15.744 -0.1776 -0.1526 -0.0050
48089W        W48289  17.236   2.977   6.046 -0.0543 -0.1676  0.2758
48090W        W48290  10.220  16.442   4.497  0.3143 -0.0554  0.1264
48091W        W48291  12.642  17.348  16.730  0.0634  0.1188  0.1235
48092W        W48292   0.360  16.698  17.067  0.0258  0.3937 -0.0476
48093W        W48293   6.424   5.361   2.349 -0.1807 -0.0095  0.1164
48094W        W48294   4.171   2.528   2.538 -0.4566  0.0086 -0.0766
48095W        W48295   0.536  14.962   3.242  0.1921  0.0755 -0.1536
48096W        W48296   1.958   0.035   0.421  0.0243  0.0334 -0.2303
48097W        W48297  12.459   1.816   5.853 -0.0013 -0.0073 -0.0485
48098W        W48298   5.763   0.272   9.418  0.2455  0.0652 -0.0829
48099W        W48299   9.172  12.989   0.405 -0.1067  0.0110  0.2426
48100W        W48300   1.558  13.485  14.854 -0.3518  0.4510 -0.0338
48101W        W48301   3.244  10.482  13.783 -0.0786  0.1229  0.2658
48102W        W48302  10.466  12.811   7.728 -0.1315 -0.1931  0.3703
48103W        W48303  16.517   0.067   4.072 -0.3334  0.0848 -0.0166
48104W        W48304  17.532   7.338   2.824 -0.0198  0.1309  0.0182
48105W        W48305   5.187   1.970  12.735  0.1744 -0.2410  0.1032
48106W        W48306  11.730   3.609   2.207 -0.0836  0.3539  0.3002
48107W        W48307   3.716  14.829  17.488  0.2503  0.1364 -0.0722
48108W        W48308  12.683   1.016   1.210  0.1907 -0.0423  0.0956
48109W        W48309   0.225   4.906   1.168  0.1395 -0.0085  0.2658
48110W        W48310   6.621   5.819   4.894  0.1365  0.2577 -0.2047
48111W        W48311  14.451  15.223   0.143 -0.5457  0.0461 -0.0153
48112W        W48312  18.175  17.187   9.925 -0.0066 -0.0022 -0.1287
48113W        W48313   8.642  13.665   5.749  0.2290 -0.0059  0.0782
48114W        W48314  13.691  15.859  17.304 -0.0425 -0.0849  0.0161
48115W        W48315  13.942  16.999   5.013  0.1411  0.1551 -0.1468
48116W        W48316   4.237   6.171  12.774  0.1627 -0.0947  0.0090
48117W        W48317  13.778  17.322  17.612 -0.1362  0.0864 -0.0475
48118W        W48318  14.535  17.555  17.018 -0.1550 -0.0314  0.0146
48119W        W48319  14.289  10.926   2.358 -0.2790 -0.0306  0.0899
48120W        W48320  14.810   4.564  18.176 -0.3095  0.2405 -0.2785
48121W        W48321  18.059   0.318   4.365  0.2180  0.3147  0.1278
48122W        W48322   8.705  12.163  17.651  0.3307  0.0574 -0.0724
48123W        W48323   8.299   6.493  15.295  0.0607  0.1970  0.1330
48124W        W48324   3.542   9.650   0.900 -0.0033 -0.0216  0.0037
48125W        W48325   7.434   3.872  17.317 -0.2026 -0.0424  0.4640
48126W        W48326  13.550  11.437  10.828  0.0506 -0.0633  0.1344
48127W        W48327  14.141  17.628  15.898 -0.1677 -0.1002  0.0287
48128W        W48328   0.034   8.571   4.963  0.0198 -0.0909  0.3418
48129W        W48329  10.897  12.035  17.538  0.0172  0.3156 -0.1047
48130W        W48330   6.765   6.545   4.988 -0.1150  0.1350 -0.0641
48131W        W48331  13.235   3.521   0.907 -0.1011  0.1755 -0.0155
48132W        W48332  15.089  17.416  17.909  0.1597 -0.0772 -0.0597
48133W        W48333  17.566  17.398   0.102  0.0172 -0.2704 -0.1779
48134W        W48334   2.845  12.914  10.276 -0.0246 -0.0975 -0.2491
48135W        W48335  14.407   0.518   0.863  0.0740 -0.2689  0.0119
48136W        W48336   0.372  14.436   3.205 -0.1087 -0.0029  0.4798
48137W        W48337   2.364   4.368   2.742  0.3501 -0.0458  0.2953
48138W        W48338  17.378   3.653   4.087  0.0582  0.1261  0.1742
48139W        W48339   0.739   0.492   6.382 -0.0648 -0.0547  0.2385
48140W        W48340   2.743  15.424   7.849 -0.1455 -0.2976 -0.2136
48141W        W48341  14.004  10.963   4.246 -0.0009 -0.1545 -0.1980
48142W        W48342   4.949  14.860   4.098 -0.0966 -0.2295  0.0978
48143W        W48343  12.541  16.910   4.410  0.1874  0.2152  0.1002
48144W        W48344  14.300   6.957  14.430  0.3347  0.1026 -0.0884
48145W        W48345  13.123  12.794   8.819  0.0913  0.2951 -0.1890
48146W        W48346  14.037  14.889  10.258  0.2253  0.2446  0.2141
48147W        W48347  16.294   2.827  10.360 -0.4122  0.0524 -0.2838
48148W        W48348  15.136   2.507   0.334  0.0510 -0.0158 -0.1255
48149W        W48349  14.444  11.499  10.663 -0.0142 -0.1005  0.3778
48150W        W48350  13.182  16.627  15.121 -0.1517 -0.1691  0.2910
48151W        W48351  14.927   0.717  12.477  0.1358 -0.2163 -0.1638
48152W        W48352  18.075  13.858   0.276  0.0203 -0.2948  0.2503
48153W        W48353   0.501  11.177  15.850  0.0419  0.2194  0.1034
48154W        W48354   1.183  15.344   6.119 -0.0976 -0.0738 -0.0546
48155W        W48355   8.399   0.505  17.563 -0.0987 -0.2030 -0.1963
48156W        W48356   5.307   9.607   3.384  0.0358 -0.1845  0.1160
48157W        W48357   2.862  14.755   3.796  0.0006  0.1999 -0.0204
48158W        W48358  16.293   2.243   4.424 -0.1386 -0.1657  0.1113
48159W        W48359  13.488  11.530   3.803 -0.1572 -0.0353  0.0167
48160W        W48360  14.584   0.119   6.306 -0.4572 -0.0596  0.3821
48161W        W48361   1.792   8.810   1.566 -0.0963  0.3546 -0.1307
48162W        W48362  14.663   3.356   0.453  0.3736 -0.0653  0.1755
48163W        W48363   0.404  11.827  14.803  0.0481 -0.0200  0.0966
48164W        W48364   1.756  18.010   6.873 -0.0002  0.1342  0.1345
48165W        W48365  15.675   0.509   5.350  0.2950  0.2456 -0.4975
48166W        W48366  14.636   2.200  15.277 -0.0088  0.1989 -0.3117
48167W        W48367   3.900  10.284   2.525 -0.1422  0.1136  0.1466
48168W        W48368  12.195  10.553   1.743  0.1848  0.0252  0.1948
48169W        W48369  10.834  10.536   2.060 -0.3168  0.0370 -0.2727
48170W        W48370   3.607   3.047   5.568  0.1963 -0.2128 -0.0218
48171W        W48371   7.541   0.011   1.429  0.0109 -0.0241  0.1674
48172W        W48372  16.371  16.726   8.955  0.3130 -0.2963  0.0302
48173W        W48373  17.882  12.427  11.630 -0.2801  0.1375  0.1375
48174W        W48374   1.897  16.814   6.544 -0.0160 -0.1362 -0.2607
48175W        W48375   5.244  15.306   3.448 -0.4275 -0.1027 -0.0557
48176W        W48376   3.159   8.129   4.188 -0.3026 -0.0796  0.0786
48177W        W48377  16.415  15.248  13.303  0.0805 -0.2368  0.2491
48178W        W48378   3.137  12.607   1.931  0.2421 -0.1667  0.1945
48179W        W48379  11.696  17.828   4.058  0.0949  0.4024  0.0757
48180W        W48380  13.445  16.980  14.873  0.0597 -0.2456 -0.0247
48181W        W48381   5.309  16.246  16.940 -0.3345  0.0867  0.0725
48182W        W48382  17.968  17.601  14.331 -0.0428  0.5363  0.1462
48183W        W48383   0.069   1.675  16.377  0.1783 -0.1436  0.0540
48184W        W48384   2.935   4.109  13.511  0.0591  0.1366 -0.1668
48185W        W48385  16.796  12.629  16.710 -0.0587 -0.1146 -0.2062
48186W        W48386  15.104   5.759   4.054  0.0457 -0.0816 -0.0464
48187W        W48387   9.783  14.697  15.165 -0.2353 -0.1088  0.0751
48188W        W48388  14.145   2.443   0.031  0.0106 -0.0286  0.0782
48189W        W48389   2.813   9.766  10.347  0.1712 -0.0302  0.4125
48190W        W48390  17.351  15.666  13.797 -0.3502 -0.1333 -0.0933
48191W        W48391  12.374   0.312  11.659 -0.1857 -0.1548 -0.2645
48192W        W48392  14.446   5.702  15.268 -0.1731 -0.1723 -0.0758
48193W        W48393  17.340   0.588   5.118  0.1897 -0.0978 -0.0087
48194W        W48394   1.314  14.428   4.866 -0.0831  0.0328  0.3366
48195W        W48395   2.554   0.267   1.785  0.2497 -0.1256  0.0002
48196W        W48396   7.616  11.692   3.134 -0.0190 -0.2868 -0.2186
48197W        W48397   5.370  13.264  15.482 -0.1248 -0.2178  0.0685
48198W        W48398   3.698  16.776  14.921  0.1327  0.1017  0.0389
48199W        W48399   4.084  15.806   8.156  0.2440 -0.3455 -0.1166
48200W        W48400   5.481   3.995  14.563 -0.0740  0.4422 -0.1217
48201W        W48401   0.971  11.861   5.369  0.0708 -0.3857  0.0837
48202W        W48402   4.414  12.341   2.049  0.1403  0.1018 -0.3478
48203W        W48403  17.931  14.664   2.110 -0.2543  0.1626 -0.2087
48204W        W48404   8.007   0.495   5.761 -0.0019  0.2560 -0.2085
48205W        W48405  14.899   0.377  17.122  0.1610  0.0761  0.0825
48206W        W48406  10.019   0.376   4.589 -0.0020 -0.3307 -0.1010
48207W        W48407   1.280   5.108  14.877  0.0355  0.2024 -0.2574
48208W        W48408   4.337  16.548   4.080 -0.2740 -0.0726 -0.1976
48209W        W48409   9.950  14.211  15.373 -0.1236  0.0189  0.1722
48210W        W48410  16.524  11.526   0.868 -0.3370 -0.1609  0.1121
48211W        W48411   1.884  17.013   2.327 -0.1946  0.2484  0.0427
48212W        W48412   6.658  12.138   0.415  0.2896 -0.0941 -0.0556
48213W        W48413  16.235   1.938   6.273 -0.0821 -0.0610 -0.2226
48214W        W48414  11.110   0.771   2.259  0.3422 -0.0710 -0.2597
48215W        W48415   3.880  14.250   0.497  0.0630 -0.1632 -0.3374
48216W        W48416   1.499  13.541  13.948 -0.1484  0.3116  0.2207
48217W        W48417   7.954  15.651  12.385  0.1151  0.1254  0.1826
48218W        W48418  18.053   5.218   1.383  0.0285  0.0842  0.0710
48219W        W48419  16.798  10.732   2.211 -0.0011 -0.0378  0.0932
48220W        W48420  17.775  15.564  16.251  0.0502 -0.0981  0.2168
48221W        W48421   0.537  15.183  10.379 -0.3376  0.1941 -0.1341
48222W        W48422   4.289   6.036   7.198  0.0019  0.1863 -0.1872
48223W        W48423  15.225  16.745  14.748  0.1992 -0.0209 -0.1702
48224W        W48424  15.342  16.590  16.780  0.0728  0.0585  0.1715
48225W        W48425  15.991   0.330   3.412  0.0284 -0.1086  0.0106
48226W        W48426  17.522  13.889  13.461  0.2060  0.2727  0.2608
48227W        W48427   7.347  12.129   3.426  0.0758 -0.0287 -0.2061
48228W        W48428  17.413  16.510   2.577  0.1479  0.0182  0.0306
48229W        W48429  17.779  15.072   9.325 -0.0285 -0.2451 -0.2221
48230W        W48430   0.923  11.070   8.148 -0.3816 -0.1065  0.1637
48231W        W48431   5.111  16.717   0.039  0.2478 -0.1665 -0.2622
48232W        W48432  13.022   8.343   3.926  0.1508 -0.0169 -0.0003
48233W        W48433  15.639  17.771  13.703  0.3048  0.1354 -0.0272
48234W        W48434   3.480   1.649   4.080 -0.3371  0.0891  0.2224
48235W        W48435  14.453   0.005  17.485  0.1370 -0.0291 -0.5002
48236W        W48436   1.600   6.536  16.817  0.1734 -0.0164  0.3092
48237W        W48437  14.198  17.324   5.242 -0.1488 -0.3250  0.1091
48238W        W48438  17.438  16.281   4.888 -0.0838  0.1427  0.1812
48239W        W48439  13.675  12.818   0.737 -0.0696 -0.2026 -0.0120
48240W        W48440   7.887   4.447   3.160  0.1388  0.0986 -0.1209
48241W        W48441   0.712  16.151  17.791 -0.1842  0.1486 -0.1326
48242W        W48442  15.828  14.828   1.295 -0.1287  0.0702 -0.1583
48243W        W48443  15.760   4.058  17.012 -0.2587  0.0247  0.4353
48244W        W48444  11.533   2.382   0.119 -0.1590 -0.0633  0.0610
48245W        W48445  14.097   5.206   2.030 -0.1612  0.0334  0.0499
48246W        W48446   5.141   3.751   6.803 -0.1923  0.0024 -0.0172
48247W        W48447  16.711   5.570  12.108  0.0604 -0.0222  0.1462
48248W        W48448  15.747  10.939   4.204  0.0363  0.1286  0.1402
48249W        W48449  12.996  13.177   1.332  0.1623  0.1115  0.0931
48250W        W48450  15.704  10.006   1.251  0.0053 -0.0270 -0.2336
48251W        W48451  15.063   7.264   7.159 -0.0769  0.1437 -0.1500
48252W        W48452  13.376  17.698   4.770  0.2247  0.0368 -0.2055
48253W        W48453  17.604   7.861   3.540 -0.0972  0.1550 -0.1612
48254W        W48454  13.763   2.386   6.011  0.0598  0.0211 -0.0870
48255W        W48455   3.407  15.979   7.774  0.0565 -0.3780 -0.5070
48256W        W48456  17.076   9.679  17.757 -0.2358 -0.2925 -0.1471
48257W        W48457  14.205   0.568   2.046  0.1230 -0.0056 -0.0436
48258W        W48458   1.428   6.497   6.090  0.1445  0.1191  0.2883
48259W        W48459  14.884   2.038   4.681 -0.2322  0.0630 -0.0588
48260W        W48460   1.326  15.246  13.209 -0.0110  0.0014  0.2201
48261W        W48461  14.822   2.659   6.506 -0.1545  0.1432 -0.0893
48262W        W48462  15.064  13.223  16.549 -0.1024 -0.2337  0.0647
48263W        W48463  12.652   3.629  17.374  0.2055  0.0220 -0.0465
48264W        W48464   8.800   1.312   5.503  0.0324  0.1166 -0.1130
48265W        W48465  10.886  12.110  13.746 -0.0428 -0.1576 -0.3388
48266W        W48466   3.285   1.768   5.895  0.2318 -0.2223 -0.1146
48267W        W48467  16.087   0.942   8.159  0.0766 -0.0938 -0.1565
48268W        W48468   9.576  13.555   8.240 -0.1864 -0.0913 -0.1688
48269W        W48469   1.978  16.930   8.410 -0.1314 -0.3243 -0.1558
48270W        W48470   2.106   0.419   9.100 -0.0194 -0.0566 -0.1545
48271W        W48471   0.407  13.922  16.648  0.0947  0.0455  0.1824
48272W        W48472  14.527   2.964  17.587  0.3082  0.5173  0.1551
48273W        W48473   3.311  11.703   1.958  0.3188  0.0115  0.1268
48274W        W48474  12.097  11.869   2.055 -0.2831 -0.1213 -0.1597
48275W        W48475  12.113  11.170  15.200 -0.1439 -0.4524 -0.0301
48276W        W48476   6.634  13.137  16.217  0.0559  0.0781  0.2273
48277W        W48477  11.206  17.146   4.340  0.2048 -0.1698 -0.0351
48278W        W48478  17.734   1.909   6.864  0.0341 -0.2635  0.0957
48279W        W48479   2.553  10.189  16.824  0.0787 -0.2099  0.0728
48280W        W48480   7.864   0.733  14.536 -0.0561  0.2151 -0.2243
48281W        W48481  16.063   1.451   1.178  0.1313  0.0411 -0.0807
48282W        W48482  15.582  12.477   9.921  0.0968 -0.0627  0.0296
48283W        W48483   4.669  15.886   2.768 -0.2048 -0.3206  0.3741
48284W        W48484  17.407  13.261   1.701 -0.1239 -0.2011  0.1797
48285W        W48485   7.161  11.710  18.207 -0.1326  0.0519  0.1080
48286W        W48486   2.258   2.576   2.198 -0.2391  0.2907  0.6583
48287W        W48487   2.709   0.920   4.270  0.0365  0.0682 -0.0259
48288W        W48488   4.040  12.905   2.057  0.0650 -0.2359  0.0090
48289W        W48489   4.195  16.750   2.689  0.0310 -0.0862 -0.1986
48290W        W48490  15.700   8.067  18.040 -0.1103  0.2773  0.1617
48291W        W48491  15.207   6.897  15.547  0.0134 -0.1135  0.1208
48292W        W48492  11.955   3.993   2.037 -0.0408  0.1306 -0.0751
48293W        W48493   2.469  16.044   5.341 -0.0544  0.0069  0.0406
48294W        W48494   0.730   7.370  14.510  0.2391 -0.0197 -0.2489
48295W        W48495  13.064   1.398  17.400 -0.1306 -0.0642  0.0990
48296W        W48496   5.743   1.907   6.657  0.1272  0.0768 -0.2657
48297W        W48497  11.522  13.949  10.040 -0.1400 -0.1023  0.1755
48298W        W48498   4.052  14.131   6.964 -0.2622 -0.0035  0.1709
48299W        W48499   1.103   1.297  15.227  0.1397  0.3553  0.0669
48300W        W48500  11.066   9.988  11.534 -0.1535  0.2486 -0.1251
48301W        W48501  15.155  14.726  12.704 -0.0422 -0.1392 -0.0737
48302W        W48502   5.390  12.761  14.694 -0.2624  0.0774 -0.1039
48303W        W48503  14.543   2.946  14.566 -0.4315  0.0850 -0.3568
48304W        W48504  11.991  10.992   1.489 -0.0007  0.3580  0.0959
48305W        W48505  13.605  15.710   6.492 -0.2102  0.0013 -0.0664
48306W        W48506  15.634   9.331  12.618 -0.2233  0.3003  0.1180
48307W        W48507   0.028  17.667   0.801 -0.1325  0.4010 -0.0443
48308W        W48508   1.625   4.907   1.717  0.0312  0.0744  0.0226
48309W        W48509  17.776  18.148   4.217 -0.1748 -0.1686  0.0823
48310W        W48510  15.880   4.359   5.964  0.0135  0.1695 -0.0410
48311W        W48511   0.751  16.936   4.722  0.0121 -0.0337  0.0136
48312W        W48512  17.728  16.994  17.734  0.0685 -0.2252  0.2125
48313W        W48513  11.414  14.645   8.213 -0.1937  0.2058 -0.0110
48314W        W48514   3.207  16.279   2.152  0.1988  0.0265  0.0030
48315W        W48515   2.241   0.222  17.749  0.1834  0.0872  0.1053
48316W        W48516  12.937  10.045  12.521  0.0177  0.1504 -0.0788
48317W        W48517  17.357   1.449   4.392 -0.0582  0.0300 -0.2459
48318W        W48518   3.117  16.878   4.777 -0.3363  0.1402 -0.1579
48319W        W48519   0.365  16.730   3.149 -0.0865 -0.3543  0.1348
48320W        W48520  16.566   1.241  15.084 -0.1152  0.2778  0.1561
48321W        W48521  16.967   5.494   3.915 -0.2305 -0.0560 -0.1635
48322W        W48522   9.972  10.752  17.022 -0.0362  0.1264 -0.0053
48323W        W48523  13.083  16.395   3.796  0.0084  0.1133  0.0752
48324W        W48524   1.314  16.423  12.165  0.2653  0.2866 -0.0235
48325W        W48525   9.076   2.609   3.492  0.1550 -0.3479  0.0302
48326W        W48526   3.478   7.504  10.722  0.3428  0.1945 -0.1887
48327W        W48527   0.168  16.623   4.164  0.1550  0.0669 -0.1551
48328W        W48528  10.349  11.534  17.355 -0.1240 -0.1522  0.0148
48329W        W48529  13.413  17.626   4.254 -0.1020 -0.3355 -0.1890
48330W        W48530   3.611   1.940  15.293 -0.0693 -0.2082  0.0049
48331W        W48531   1.472   1.790   4.087  0.2029 -0.1351 -0.1856
48332W        W48532   6.070  15.174   0.316 -0.0632 -0.1124 -0.1678
48333W        W48533   9.615  16.824  17.908  0.0390  0.1541 -0.0193
48334W        W48534  11.625  16.728   7.049  0.2766 -0.2274 -0.2603
48335W        W48535   3.668  14.782   2.315  0.0482  0.2141  0.0211
48336W        W48536   3.072  12.290   1.078 -0.0330 -0.3394  0.1629
48337W        W48537   5.342   3.056   2.510  0.0625 -0.1545  0.2257
48338W        W48538  14.264   8.865   9.499  0.1748  0.0202  0.0288
48339W        W48539  14.801  12.250   8.533  0.1468  0.1628  0.2326
48340W        W48540   8.454  15.826   7.836  0.1018 -0.2315  0.1248
48341W        W48541  13.808  15.060   4.736  0.2300  0.0926 -0.0491
48342W        W48542   7.253  12.538   4.411  0.0123 -0.1500 -0.2024
48343W        W48543  16.815  16.556   0.036  0.0767 -0.1064  0.0573
48344W        W48544  16.561  17.843  15.209 -0.1424 -0.2931  0.1092
48345W        W48545  17.951   6.801   1.947 -0.0023  0.2199 -0.0512
48346W        W48546  17.673   7.997  13.044 -0.2578 -0.2723  0.2178
48347W        W48547   6.827   9.580   5.071  0.1281  0.1602 -0.3387
48348W        W48548  17.785   0.476   3.280  0.2519 -0.0782  0.1911
48349W        W48549   3.541   7.998  16.603 -0.2003 -0.0776 -0.2376
48350W        W48550   1.778  16.926  14.916 -0.0504  0.3198  0.2277
48351W        W48551   7.577  16.972   4.985 -0.0566 -0.0120 -0.0906
48352W        W48552   6.656   0.446   5.399 -0.0283  0.0606 -0.0612
48353W        W48553  16.376  11.509   5.404 -0.2164 -0.2655 -0.1234
48354W        W48554   1.439  15.028   7.030 -0.1988  0.0078 -0.1785
48355W        W48555  11.553  14.941  16.701 -0.1773  0.0365  0.0518
48356W        W48556  16.109  16.871  11.072 -0.1787  0.2373  0.3934
48357W        W48557  12.386   0.806  15.198 -0.2668  0.2849  0.0170
48358W        W48558   1.327   4.384   7.600 -0.1559 -0.4667 -0.2544
48359W        W48559  10.713  14.232   3.188  0.2554 -0.0150 -0.0571
48360W        W48560   8.292  12.993   2.663  0.0521 -0.1046  0.1951
48361W        W48561  17.737  15.576   9.203  0.0439 -0.1390 -0.2327
48362W        W48562  10.824   7.266   2.558 -0.1555  0.2232  0.3226
48363W        W48563   0.409   2.395   2.414  0.1050  0.1090  0.3782
48364W        W48564  15.068  13.169   5.833  0.0803 -0.1627 -0.1947
48365W        W48565   0.520  13.769  14.784  0.3356  0.1365  0.0146
48366W        W48566   6.071  15.957   4.315  0.3064  0.4533  0.1120
48367W        W48567  17.032  12.135   4.332 -0.0638  0.1267  0.0906
48368W        W48568   6.658  14.802   8.901  0.1177 -0.0420 -0.1506
48369W        W48569  13.371   3.348   7.363  0.3113 -0.0281 -0.0406
48370W        W48570  14.655  15.068  15.526 -0.1949  0.3767  0.0928
48371W        W48571  16.573  16.319  17.866 -0.4330 -0.2537 -0.1864
48372W        W48572   5.486   7.045   0.886  0.2903  0.2024 -0.3564
48373W        W48573  12.910   0.387   8.036 -0.1191  0.0300 -0.1641
48374W        W48574   0.882  17.453   4.966 -0.2654 -0.3601  0.0172
48375W        W48575   4.227   1.296   2.942 -0.2425  0.1467 -0.0889
48376W        W48576   1.381   6.090   7.416 -0.1085 -0.1635 -0.0005
48377W        W48577  16.341  17.645   3.286  0.1488 -0.3091 -0.1195
48378W        W48578   0.903   1.115   0.302  0.2420 -0.1850 -0.0808
48379W        W48579  13.967  11.771   2.329  0.2596  0.0364  0.0590
48380W        W48580   4.099  17.781  16.404 -0.1768  0.0182 -0.2533
48381W        W48581  15.681  12.646   0.223  0.0912  0.0305  0.0581
48382W        W48582   5.051  12.494   9.862  0.0313  0.1435  0.1486
48383W        W48583  13.059  15.258   8.110 -0.2525 -0.0250 -0.1885
48384W        W48584   9.444  16.362   0.624  0.0167  0.0258 -0.0119
48385W        W48585  13.316  17.237   6.755  0.0636  0.0103 -0.0802
48386W        W48586  18.164   2.049  17.978  0.1632  0.0598 -0.4252
48387W        W48587  17.446  14.382   5.205  0.0932 -0.1856 -0.0988
48388W        W48588  15.033   8.480   7.034  0.4547  0.2493 -0.0012
48389W        W48589   9.610  17.417   8.612 -0.1480 -0.0556 -0.2892
48390W        W48590   2.105   7.554   0.054  0.1249  0.0212 -0.0000
48391W        W48591  16.131  14.926   6.156 -0.0091  0.1400  0.1960
48392W        W48592   7.426  10.546   6.162 -0.1962  0.0835 -0.3178
48393W        W48593  15.139  13.927   0.699  0.1762 -0.2728 -0.3823
48394W        W48594  12.836   2.181   3.928  0.1431  0.0704  0.1029
48395W        W48595  14.267  16.522  16.004 -0.0527  0.0769  0.1664
48396W        W48596  11.019   8.152   7.883  0.0979  0.0453  0.0541
48397W        W48597  11.468  17.638   0.945 -0.3369 -0.0758 -0.0311
48398W        W48598   7.518  11.973  10.742  0.1317 -0.1893  0.0216
48399W        W48599  10.742  12.302   5.611 -0.0420  0.0509  0.1350
48400W        W48600   1.864  14.130   8.047  0.3156 -0.2321  0.0862
48401W        W48601   0.139   1.432   9.105  0.1468  0.3119  0.2171
48402W        W48602   0.615  14.065   2.549  0.1738  0.1029 -0.1849
48403W        W48603  16.747   1.000   0.026 -0.3094 -0.1215 -0.0968
48404W        W48604   2.088   2.146   1.237  0.1301 -0.1188 -0.1084
48405W        W48605   7.108   0.129  10.391  0.0990  0.2812 -0.1537
48406W        W48606   6.512   2.962   7.265 -0.0122 -0.2095 -0.0542
48407W        W48607  13.174  16.737  12.628  0.0084  0.1285 -0.0158
48408W        W48608   4.240   0.738   4.909 -0.1819  0.3006  0.0195
48409W        W48609   0.511   1.119   9.812  0.2425 -0.0495  0.2961
48410W        W48610   0.739   9.066   6.604  0.1919  0.1179 -0.2069
48411W        W48611  11.568   3.702  10.860 -0.1074  0.2325 -0.0121
48412W        W48612   0.620  14.877   9.260 -0.3783  0.0822 -0.0195
48413W        W48613  13.862   2.320   1.032 -0.0656  0.1449 -0.1380
48414W        W48614   4.635  14.179  17.276 -0.3284 -0.0597  0.0998
48415W        W48615   4.136  17.574   6.837 -0.0723  0.2094 -0.1289
48416W        W48616   3.870  14.670   7.069 -0.1665  0.0696  0.0237
48417W        W48617   1.069  15.756   7.283  0.1838  0.2275 -0.1944
48418W        W48618  14.463   7.096   6.604  0.0322 -0.2678 -0.1864
48419W        W48619   5.487  10.792   9.174 -0.1169  0.3360  0.0400
48420W        W48620   1.857  12.890   0.134  0.2525 -0.1530  0.1918
48421W        W48621   2.162   1.502   0.686 -0.0217  0.0490 -0.0675
48422W        W48622  17.161   7.730   7.570 -0.1278  0.0870  0.0992
48423W        W48623  15.365   7.522  18.123  0.0002 -0.1960 -0.0340
48424W        W48624  16.847  16.079  10.289  0.0741  0.2087 -0.0806
48425W        W48625   9.936  13.010   0.948 -0.2841 -0.0049 -0.2540
48426W        W48626  12.049  14.855   7.083 -0.1556  0.3851 -0.1252
48427W        W48627   5.458   2.893   1.429 -0.1639  0.2834  0.4114
48428W        W48628  17.547   2.870  12.617  0.0142 -0.0567  0.2038
48429W        W48629  17.014  12.193  17.337  0.1641 -0.1897 -0.1310
48430W        W48630  17.125   5.646  17.117 -0.1331  0.1884  0.2804
48431W        W48631   1.560   6.065  10.611  0.1066  0.1811 -0.1456
48432W        W48632   8.179  11.677   2.206 -0.1356  0.2089  0.1518
48433W        W48633   2.401   3.460   9.827 -0.3853 -0.0341 -0.3106
48434W        W48634  17.495   5.096   2.295 -0.1603  0.1140  0.3194
48435W        W48635  13.162   5.642  16.625  0.1892 -0.0109  0.5317
48436W        W48636   6.305  14.226   6.489 -0.1816 -0.0753 -0.0557
48437W        W48637   1.233   7.016  11.902  0.0224 -0.2828  0.0234
48438W        W48638   6.682  15.031  14.432 -0.2409  0.0855  0.1507
48439W        W48639   0.094  14.778  15.478  0.1377  0.0151 -0.3847
48440W        W48640  10.885  12.611   0.640 -0.2557  0.1133  0.0796
48441W        W48641  16.917   6.805   4.449  0.2439  0.1803 -0.0119
48442W        W48642  12.250  16.617  16.929 -0.0000  0.0917  0.1672
48443W        W48643  15.015  17.085   2.123  0.1496 -0.1032 -0.3710
48444W        W48644  13.275   0.626   6.461 -0.0526  0.2869  0.0475
48445W        W48645   9.798  16.194   1.524  0.0536  0.3138 -0.1700
48446W        W48646  17.601  14.193   8.239  0.0182  0.1141 -0.2720
48447W        W48647  17.838  11.034   9.181  0.1412 -0.0379  0.1577
48448W        W48648  17.749   5.759   0.553  0.0229  0.0443 -0.2189
48449W        W48649  10.165  11.699   9.895 -0.1910  0.0827 -0.1279
48450W        W48650   4.655  16.228   1.230 -0.2238 -0.2211  0.3319
48451W        W48651   6.210  17.789  17.219  0.0275 -0.1129 -0.0161
48452W        W48652  14.899   3.072   8.958  0.0655  0.0176  0.1963
48453W        W48653   3.544   1.200   0.560  0.0549  0.0243  0.0358
48454W        W48654  15.101  12.922   4.125  0.1810  0.2692 -0.3226
48455W        W48655  18.025   1.368  17.213  0.2882 -0.1096 -0.0183
48456W        W48656  14.532  14.966   7.390 -0.2265 -0.2027 -0.1232
48457W        W48657  12.452  13.767   6.093  0.1351 -0.0761 -0.0358
48458W        W48658  13.647   9.826  16.712 -0.0094 -0.0557  0.0181
48459W        W48659   6.879  10.758  10.641 -0.1101  0.2144  0.0913
48460W        W48660   1.640  17.229   3.044 -0.1391 -0.3063 -0.2086
48461W        W48661  10.270  10.174  17.894  0.2855 -0.1565 -0.1434
48462W        W48662   5.468  10.603   8.618  0.2139 -0.0316  0.0903
48463W        W48663  15.232   7.766   9.314  0.1038  0.2266  0.1384
48464W        W48664   5.413  10.868  12.489 -0.0674 -0.0987  0.1550
48465W        W48665   4.565   8.778   6.481  0.2870 -0.4414 -0.0610
48466W        W48666  14.828  10.142   8.773 -0.0688  0.0304 -0.0369
48467W        W48667  10.381  12.164   7.858 -0.0685  0.0483 -0.0623
48468W        W48668   4.064  16.672   3.642  0.0526 -0.1919 -0.0228
48469W        W48669   2.801  14.217   9.164 -0.0628  0.0073  0.0698
48470W        W48670  14.131  17.258   7.895 -0.2314 -0.3897 -0.0723
48471W        W48671   0.315  14.036   3.491  0.0567  0.3545  0.0555
48472W        W48672  15.695   0.081  10.578  0.0466  0.1838  0.1043
48473W        W48673  11.946   9.941   2.944  0.0618  0.1091 -0.0685
48474W        W48674   5.901   3.205   9.625 -0.4573  0.2320 -0.1849
48475W        W48675   7.903  10.283   1.083 -0.3650  0.0534  0.0513
48476W        W48676  15.036   5.331   9.636  0.0882 -0.0145  0.1336
48477W        W48677  16.659   3.407   1.413 -0.1864 -0.1442  0.1842
48478W        W48678   1.031   1.572  13.662  0.2003  0.0404 -0.0441
48479W        W48679   5.831   0.920   3.395  0.0379 -0.0800 -0.0736
48480W        W48680  12.950  16.693   5.088  0.0090  0.0122 -0.1713
48481W        W48681   1.345  13.781  17.201 -0.0502 -0.1132 -0.1190
48482W        W48682  17.280   6.676   8.394 -0.2891  0.0282  0.1986
48483W        W48683  13.472  11.378   5.699 -0.0001 -0.1736  0.1002
48484W        W48684  17.204  16.550   3.648  0.2620 -0.0516 -0.1118
48485W        W48685  17.979  16.152   4.788 -0.0156 -0.0822  0.2854
48486W        W48686  15.478   4.190  12.124  0.3602 -0.0067 -0.0968
48487W        W48687  15.076  12.401  15.648 -0.1009  0.0954 -0.1378
48488W        W48688  17.812   4.104  10.905 -0.0810  0.0036  0.0653
48489W        W48689   7.950  14.286  11.614  0.0415 -0.0546 -0.1503
48490W        W48690  14.497  15.033  10.117 -0.1115  0.0263 -0.0294
48491W        W48691   6.555   0.092  11.896 -0.1185  0.0419  0.1749
48492W        W48692   5.331  17.614  16.547  0.2973 -0.4032 -0.1015
48493W        W48693   5.155  14.013  15.730 -0.0162 -0.2375 -0.1050
48494W        W48694  13.648  14.350  11.890 -0.0043 -0.0213  0.0972
48495W        W48695  12.475  13.328   1.766 -0.1530 -0.0670  0.1965
48496W        W48696  12.559  12.647   4.096 -0.3006 -0.1822  0.1111
48497W        W48697   0.109  10.973   8.902  0.3201  0.1792  0.0826
48498W        W48698   9.978   3.727   3.878 -0.0713  0.1510  0.3217
48499W        W48699  11.565  12.692   1.669 -0.0177 -0.1500 -0.1340
48500W        W48700  16.715   4.813   6.415 -0.0412 -0.5244  0.0725
48501W        W48701   2.758  15.535   5.031  0.1519  0.1547 -0.3258
48502W        W48702  16.997   1.643   3.137 -0.0693 -0.0725  0.1924
48503W        W48703  16.206   1.433  10.507  0.2739  0.0807 -0.0955
48504W        W48704   9.942  11.524   5.680  0.0893  0.1805 -0.1976
48505W        W48705  17.480   3.330   3.621  0.3822 -0.0876 -0.1205
48506W        W48706  11.741  12.670   5.165  0.3005 -0.1114  0.1399
48507W        W48707   3.650  18.088   0.946  0.1462  0.0154  0.1242
48508W        W48708   6.350   4.967  10.126 -0.1126 -0.3061  0.0754
48509W        W48709  15.768   2.425  16.155 -0.1283  0.3680  0.0390
48510W        W48710  15.517  15.700   4.257  0.3634  0.0491  0.2096
48511W        W48711  17.254   4.277   2.515  0.1576  0.3125 -0.0788
48512W        W48712   9.971  15.745   7.614 -0.3668  0.2407 -0.1391
48513W        W48713  17.880   3.746   6.170  0.0176  0.0217 -0.1717
48514W        W48714  15.881   6.237   5.320 -0.0384  0.0200  0.1331
48515W        W48715  13.863   7.912   4.910  0.1414  0.0180  0.0362
48516W        W48716  18.141   9.535  16.887  0.0955 -0.0202  0.2170
48517W        W48717  15.849  18.097   1.762  0.1570 -0.0488 -0.2582
48518W        W48718   8.108  16.726   4.166  0.2658 -0.1456  0.0234
48519W        W48719   0.907   1.917  15.990  0.0244 -0.0788  0.0762
48520W        W48720   1.310   2.761   8.549  0.0241  0.0227 -0.0061
48521W        W48721  15.832  14.602  16.957 -0.4452 -0.1280  0.0565
48522W        W48722   2.383  15.805   3.760 -0.2141 -0.0843 -0.3008
48523W        W48723  18.176  16.118   8.028  0.0202 -0.2188  0.0927
48524W        W48724  15.997   0.718   6.146  0.1616 -0.0635 -0.0977
48525W        W48725  15.602   0.342   5.966  0.1405 -0.0159 -0.0211
48526W        W48726  14.584  17.104  15.160 -0.1557  0.3161 -0.3437
48527W        W48727   4.247  17.113   8.583 -0.4418  0.1293 -0.2554
48528W        W48728   0.960   0.132   9.667 -0.1878  0.0839  0.0555
48529W        W48729  12.048  14.533   0.982  0.0071 -0.1649  0.0248
48530W        W48730  18.002  12.177   6.504  0.0633 -0.2750 -0.1279
48531W        W48731  10.348  12.583   5.758 -0.0739 -0.0588  0.1601
48532W        W48732   3.279  13.859  10.482  0.1655  0.0943  0.2009
48533W        W48733   7.539  12.885   5.236 -0.1417  0.2211  0.0937
48534W        W48734   7.081  15.479  17.470  0.1174  0.2603  0.0288
48535W        W48735   0.908  16.005  14.236  0.2994  0.0999  0.1135
48536W        W48736  14.024  10.856  15.562 -0.0673 -0.2321  0.2645
48537W        W48737   6.791  15.941   0.501 -0.1370 -0.2341  0.1576
48538W        W48738   1.231  15.696   1.344  0.1531 -0.0729  0.1644
48539W        W48739  12.872  11.873  18.197  0.1486 -0.0841  0.0889
48540W        W48740  15.616   3.455   3.211 -0.1445  0.0735  0.1148
48541W        W48741   2.271  16.406  16.316  0.1199  0.1146  0.3260
48542W        W48742  17.592  13.811   2.407  0.1600 -0.0879 -0.0857
48543W        W48743  15.478   1.679  16.333 -0.0159  0.1846 -0.1296
48544W        W48744  13.543  13.468  17.884 -0.2987  0.1780 -0.0639
48545W        W48745   9.898   7.244   3.322 -0.1450 -0.2717 -0.1440
48546W        W48746   0.417   5.217   0.627  0.2158 -0.1205 -0.0565
48547W        W48747  13.921   3.489   7.828  0.1595  0.1070 -0.1603
48548W        W48748   1.789  10.606  17.532 -0.1972 -0.2790 -0.3146
48549W        W48749  14.382  13.266  11.078 -0.1025  0.1242 -0.1517
48550W        W48750  17.615  13.616   1.944 -0.0349  0.0307  0.1715
48551W        W48751   3.130  11.824   2.970 -0.4027 -0.2490 -0.0460
48552W        W48752   0.420  16.117  13.766  0.0118  0.2016 -0.3367
48553W        W48753   2.987  11.063   9.202 -0.2507  0.0026  0.0686
48554W        W48754  13.570  13.778   6.240  0.0391  0.2731 -0.1973
48555W        W48755  12.793   5.914  16.901  0.3080  0.0916  0.0485
48556W        W48756   2.636  13.081   3.149 -0.1041  0.2070  0.0600
48557W        W48757  15.042   3.308   7.629 -0.0554  0.3439 -0.3405
48558W        W48758  15.514  15.761   2.878  0.0775 -0.1558  0.5500
48559W        W48759  13.574  15.267   6.323  0.1972 -0.2967  0.0008
48560W        W48760  12.926  14.779   0.821  0.1236  0.0056  0.2027
48561W        W48761   2.219  10.944  15.773 -0.1604 -0.0910  0.0668
48562W        W48762   6.822  17.003   8.878 -0.0865  0.0555 -0.1654
48563W        W48763  17.901  17.074   8.069 -0.0575 -0.0356 -0.0064
48564W        W48764   1.689   0.663   6.750 -0.1162 -0.3979 -0.0844
48565W        W48765  13.157  18.152   4.969  0.0748 -0.1943  0.0287
48566W        W48766   8.156  14.079   0.200  0.1931  0.0116  0.2206
48567W        W48767  16.408   2.135   6.713 -0.2805 -0.1646 -0.0028
48568W        W48768   5.156   2.896   7.036  0.2236  0.0169 -0.0535
48569W        W48769   4.573   2.974   8.272 -0.1762  0.0424  0.0637
48570W        W48770   2.590  18.002  16.596 -0.0095  0.1763  0.0564
48571W        W48771  16.541  15.600  12.528  0.1874 -0.3489 -0.0572
48572W        W48772  10.271   5.662   0.987  0.0624 -0.2330 -0.3324
48573W        W48773  13.032   9.063   9.195 -0.2670  0.2918 -0.0625
48574W        W48774  17.137  12.961  16.079 -0.0354 -0.0189  0.1177
48575W        W48775   2.643  13.774   5.253  0.0731 -0.0092 -0.0617
48576W        W48776   6.266  15.877  11.842  0.2771 -0.0070 -0.1072
48577W        W48777   9.829   3.421  10.622 -0.0864  0.2746  0.0489
48578W        W48778  12.797   5.374  10.855 -0.3214  0.2058 -0.0714
48579W        W48779   0.399   6.581   5.666 -0.2135  0.0013  0.2082
48580W        W48780   6.268   9.038   5.040  0.0008  0.0134  0.3087
48581W        W48781   1.476  15.416  16.845  0.1278 -0.1223  0.0231
48582W        W48782  17.397  15.220   5.915  0.1431 -0.2153 -0.0455
48583W        W48783  11.431  17.085   6.643  0.0200 -0.0020 -0.1494
48584W        W48784   2.008   7.130  12.460 -0.3281 -0.1089  0.1439
48585W        W48785   2.466  17.850   4.742  0.3754  0.1110  0.0765
48586W        W48786   9.767  11.860   5.229 -0.1442  0.2949  0.2172
48587W        W48787  17.778   2.771  11.335  0.2559 -0.2466 -0.2912
48588W        W48788  10.999  17.890   2.846 -0.0382 -0.1525 -0.0514
48589W        W48789  11.409  12.305   5.316  0.0455 -0.2901 -0.0903
48590W        W48790   4.401  16.028   7.755 -0.2036 -0.1421 -0.0913
48591W        W48791   9.525  13.882   6.544 -0.0775  0.1097 -0.2289
48592W        W48792  14.541  13.584  18.100 -0.1365  0.0994 -0.3426
48593W        W48793  17.948  12.214  15.419 -0.0603  0.2082  0.1930
48594W        W48794   0.931  15.771   3.657 -0.0442 -0.3158  0.1227
48595W        W48795   0.045   1.782   9.456 -0.1449  0.0077  0.3627
48596W        W48796  14.745   4.062   4.003 -0.0292 -0.0689  0.1938
48597W        W48797  14.758  14.820   6.124 -0.0355  0.0513  0.0272
48598W        W48798  10.688  15.644   5.895  0.3299 -0.4488  0.1334
48599W        W48799   1.577  17.394  11.977 -0.1092 -0.0747  0.0650
48600W        W48800   3.006  13.773   6.479  0.0491 -0.0468 -0.0463
48601W        W48801   5.124   2.389   7.920 -0.0067  0.0756  0.2104
48602W        W48802  17.931  11.325   6.971 -0.1180 -0.0858  0.2835
48603W        W48803   3.817  13.790   4.840  0.1779 -0.2267 -0.1607
48604W        W48804   8.681   1.020  11.791  0.1490 -0.2212  0.2814
48605W        W48805   4.028  17.601  12.574 -0.3413  0.1395 -0.1050
48606W        W48806   7.347   3.163  10.595  0.1704  0.3180 -0.1933
48607W        W48807   6.911  15.106   4.006 -0.0716  0.0079  0.3097
48608W        W48808  17.052   2.525   6.133  0.0791 -0.0952 -0.4363
48609W        W48809  13.750  14.996   1.912 -0.0812 -0.1067  0.1657
48610W        W48810  15.727   3.250   9.809 -0.1515 -0.1907  0.0360
48611W        W48811  13.984  16.827   3.949  0.2945 -0.2263 -0.0298
48612W        W48812  17.845  15.167   7.734  0.2466  0.1369 -0.2186
48613W        W48813  13.621   0.219   7.929 -0.1693  0.1370  0.0901
48614W        W48814   1.631   9.823   2.481 -0.0201  0.1947 -0.0697
48615W        W48815   9.533  14.850   2.122  0.0687 -0.0385  0.0517
48616W        W48816  10.267  14.933   4.080 -0.1809 -0.5061  0.1216
48617W        W48817   8.739  18.082   4.470 -0.0134 -0.2699  0.0096
48618W        W48818   0.463   1.543   4.845  0.3130  0.1641 -0.1580
48619W        W48819   3.109   1.325  13.420  0.4477  0.0865  0.0420
48620W        W48820   9.482  15.011   6.622  0.0367 -0.2925  0.1735
48621W        W48821   0.735   0.556  12.647  0.1754  0.1138  0.1738
48622W        W48822  17.285  16.283   5.597  0.0309 -0.0150  0.2281
48623W        W48823   8.743  16.137   8.433 -0.2219 -0.0551  0.1468
48624W        W48824  14.192   2.632   4.314  0.0541 -0.3647 -0.0063
48625W        W48825  15.774  12.534   3.850  0.1395  0.0216  0.2928
48626W        W48826   0.053  15.385   3.932 -0.0992 -0.3304 -0.0944
48627W        W48827  17.832   6.504  11.827 -0.1750  0.0041 -0.3187
48628W        W48828   5.382  13.215   3.438 -0.1311 -0.1240  0.0559
48629W        W48829  10.186  17.127  12.905  0.0340 -0.1997 -0.5732
48630W        W48830  10.286   1.398  13.361  0.0915  0.0993  0.2148
48631W        W48831   0.201   8.304   5.763 -0.1092 -0.1340  0.0167
48632W        W48832   9.659   9.036   6.477  0.1782 -0.0492  0.1351
48633W        W48833   9.469  11.941  17.266  0.1102  0.1367 -0.0822
48634W        W48834   3.921   8.227  13.728  0.0142  0.0027 -0.0957
48635W        W48835  17.851  18.039  18.155  0.0122 -0.1061 -0.3422
48636W        W48836  11.204   6.858   5.136 -0.1245 -0.0239  0.2511
48637W        W48837   7.268  13.487   1.458  0.0720  0.1902 -0.1443
48638W        W48838  18.069  12.761   4.914  0.0725 -0.0142 -0.1826
48639W        W48839   2.611  13.140   4.568  0.3405  0.0106  0.1692
48640W        W48840  12.010  10.164  16.432 -0.1711  0.1564  0.0761
48641W        W48841  15.361  12.118   7.128  0.2250 -0.0848 -0.1087
48642W        W48842   6.446  18.069   9.815  0.0682 -0.3300 -0.1620
48643W        W48843  17.585   1.965   5.052 -0.0389 -0.2308  0.0617
48644W        W48844  14.697   6.073   4.170 -0.2113 -0.0368  0.2780
48645W        W48845  12.756  13.582  17.064  0.0108  0.0920 -0.2332
48646W        W48846  17.615  14.845   5.180  0.1126 -0.1505 -0.0699
48647W        W48847   8.946  17.872  11.066  0.4750  0.0763  0.1281
48648W        W48848   5.640  10.572   4.708 -0.4547 -0.0119 -0.2794
48649W        W48849   1.166  15.200   1.587 -0.0862  0.2494 -0.1206
48650W        W48850   8.495   8.255  14.080 -0.4399 -0.0408  0.4117
48651W        W48851  10.193  17.341  13.454  0.1058  0.1213 -0.0398
48652W        W48852  14.649  14.149   3.326  0.2084 -0.1386  0.2393
48653W        W48853   1.964   1.595   1.516 -0.1830 -0.1826 -0.1443
48654W        W48854  17.239  17.331   4.280  0.0302  0.3882 -0.1752
48655W        W48855  11.260  16.930  11.203 -0.0387 -0.0888 -0.0399
48656W        W48856   5.469   3.944   5.702  0.5084  0.3342 -0.0600
48657W        W48857   1.427  15.409   5.262  0.4847  0.1942 -0.1583
48658W        W48858  17.585   2.087   7.624 -0.1457  0.3843 -0.1613
48659W        W48859  15.784  13.466   7.201 -0.0058  0.1317 -0.2141
48660W        W48860  18.164   3.937  10.522  0.0197 -0.0185  0.0919
48661W        W48861  13.814  16.138  14.153  0.1514 -0.1650  0.2474
48662W        W48862  15.004  15.029   9.946 -0.3031 -0.1243  0.1935
48663W        W48863   0.317   0.449   1.712  0.2579 -0.1349 -0.4808
48664W        W48864   0.727   8.795   4.104 -0.1164 -0.0978  0.0263
48665W        W48865  14.908  14.013   4.847  0.1788  0.0874  0.0313
48666W        W48866   0.692   1.718   6.839  0.0082 -0.2388  0.1749
48667W        W48867  12.886  15.549   3.763  0.0957  0.5300  0.2117
48668W        W48868  15.262  14.231   3.972  0.0718 -0.1625  0.2399
48669W        W48869   8.244  12.956   0.082  0.0211  0.2117  0.3108
48670W        W48870   2.932  13.451   5.915  0.0375 -0.0353  0.1158
48671W        W48871  17.721  10.287   4.298  0.1517  0.0393 -0.2655
48672W        W48872   4.977  17.586   3.233  0.1097  0.0496  0.2892
48673W        W48873   1.421  17.726   2.947  0.2126  0.1651  0.2969
48674W        W48874   4.326  13.191   3.402  0.0608 -0.1665  0.1075
48675W        W48875   5.037   0.244   7.601  0.1902  0.0649  0.3477
48676W        W48876   0.218   6.570   3.290 -0.0587 -0.0493 -0.1233
48677W        W48877   6.005  13.355   7.506 -0.2019  0.0403  0.3197
48678W        W48878   0.425  11.255   4.376  0.0924  0.2120  0.1303
48679W        W48879  12.040  15.654  16.667  0.0745  0.1796  0.4964
48680W        W48880   1.023   8.787   8.919  0.1245  0.2896 -0.0669
48681W        W48881   2.033   9.274   5.055  0.2133 -0.0287  0.2218
48682W        W48882  16.273   2.264   3.458 -0.1426  0.0384 -0.1029
48683W        W48883   3.635  12.162   0.962  0.0077 -0.0999  0.2878
48684W        W48884   3.849  12.169   3.195  0.0182 -0.3742 -0.2166
48685W        W48885  17.775   3.698  13.259 -0.1933  0.3414  0.1173
48686W        W48886  15.224   1.434  12.966 -0.0945  0.0759  0.2272
48687W        W48887   0.466   9.459  16.935  0.1762 -0.0609  0.3498
48688W        W48888  16.833   1.128  10.198  0.0577 -0.4373 -0.2325
48689W        W48889  14.964  17.874   3.035  0.0289  0.0176  0.1723
48690W        W48890  13.387   0.796   8.729  0.4189  0.3390  0.1589
48691W        W48891  16.779   9.506   3.807  0.2628  0.1730 -0.0484
48692W        W48892  16.161  14.328   7.701  0.5509  0.0994 -0.0190
48693W        W48893  17.946  14.091  17.429 -0.0127 -0.1832  0.1743
48694W        W48894   4.244   4.426  17.101  0.4540  0.0126 -0.2030
48695W        W48895  13.802   7.581   2.577  0.0110 -0.0185  0.2223
48696W        W48896   0.601   0.217  15.284 -0.1376  0.3838 -0.1221
48697W        W48897   3.343  14.960   3.174 -0.0829 -0.0075 -0.0217
48698W        W48898  17.166   0.112  11.252 -0.2315 -0.0961 -0.0183
48699W        W48899  10.770   7.479  13.666  0.3399 -0.0261  0.0539
48700W        W48900   6.178  16.497   0.854 -0.0538  0.0118  0.2171
48701W        W48901  17.869  10.143   7.837  0.1001 -0.0179 -0.2940
48702W        W48902   9.435   2.754   2.883  0.0568 -0.3942  0.0806
48703W        W48903  13.606  15.391   9.004  0.2456  0.1156  0.0880
48704W        W48904  15.625   8.080  12.532 -0.0493 -0.4203  0.2963
48705W        W48905   2.095  13.591   5.400  0.2358 -0.1452  0.2981
48706W        W48906   2.312  18.043   6.870 -0.5615  0.0207 -0.0124
48707W        W48907  15.736  15.020  13.811  0.0574  0.1606  0.1751
48708W        W48908  17.932  12.468  16.428  0.1598  0.0384 -0.1581
48709W        W48909   2.737  10.393   5.724  0.1714  0.2154 -0.0976
48710W        W48910   1.497  15.484   4.168 -0.1506  0.3678 -0.3476
48711W        W48911  16.580  13.163   7.839 -0.0309 -0.1294  0.1063
48712W        W48912   0.675   3.621  10.417  0.1003  0.0331  0.3960
48713W        W48913   1.020  17.203   7.615 -0.3278  0.0701 -0.0716
48714W        W48914   5.721   2.509   5.222  0.1236  0.1639  0.1650
48715W        W48915  15.095  16.312   1.602  0.0034 -0.0115  0.0586
48716W        W48916  15.243   7.375  10.337  0.0441  0.0543 -0.0481
48717W        W48917  15.009  10.876   5.263 -0.3495  0.0901  0.0909
48718W        W48918  14.702  16.303   6.388  0.0766 -0.0931 -0.0838
48719W        W48919   3.550   6.439   6.813 -0.1647  0.1931 -0.1852
48720W        W48920   9.566   0.949   4.522 -0.2174  0.0529 -0.0310
48721W        W48921   7.070  18.197   1.745  0.1579  0.0885  0.1868
48722W        W48922   5.650   1.857   8.584  0.0965 -0.0199  0.0011
48723W        W48923  15.778  12.233   4.324 -0.0830  0.0639  0.0725
48724W        W48924   3.054  17.905   3.838  0.3013  0.0109  0.3149
48725W        W48925  12.607  15.649  10.183  0.1694 -0.1757 -0.1400
48726W        W48926  14.710  11.109   6.242 -0.1237  0.0940 -0.1855
48727W        W48927  16.484   7.731   9.335 -0.0875 -0.0663 -0.1843
48728W        W48928   3.236   3.579   3.787  0.3137 -0.2056 -0.1840
48729W        W48929   8.971   1.741   7.154 -0.2352 -0.0433 -0.0081
48730W        W48930   8.143  17.341   3.663 -0.2341  0.2429 -0.4094
48731W        W48931   5.277  15.507   0.638 -0.0094 -0.2356  0.0276
48732W        W48932  16.255  13.568  14.277  0.3734  0.0959 -0.2660
48733W        W48933   3.203   3.732  15.513  0.2269  0.0587 -0.0940
48734W        W48934   9.292  17.459  15.861  0.2656  0.0091  0.2280
48735W        W48935   8.434   0.964   6.899 -0.0483  0.4899  0.1472
48736W        W48936  16.328  11.872  13.018  0.0751 -0.1677  0.1665
48737W        W48937  17.548  15.890   1.091 -0.2884 -0.2492  0.1166
48738W        W48938  14.576   4.181   4.639  0.1191  0.0851 -0.0413
48739W        W48939   6.665   1.594   7.919  0.0615 -0.0662  0.0898
48740W        W48940  14.505   9.746   1.683  0.0305 -0.0494  0.0753
48741W        W48941   1.978  18.096   9.155  0.3357  0.3185  0.1699
48742W        W48942  13.062  15.716   2.271 -0.0668  0.1662  0.0447
48743W        W48943   3.456  17.827   5.649 -0.1553  0.1345 -0.0056
48744W        W48944   5.339  14.945  10.411 -0.3819 -0.3912  0.1130
48745W        W48945   3.478   1.202  12.100  0.3678 -0.2272  0.1452
48746W        W48946  12.739   1.370   0.733 -0.2826 -0.1498  0.1025
48747W        W48947   5.095   3.356   6.447 -0.0564  0.1353  0.2123
48748W        W48948  16.309  14.826   4.932 -0.2336  0.0306  0.1842
48749W        W48949   7.273  15.084   2.188  0.0246  0.0239 -0.0220
48750W        W48950   4.264  15.775  17.704  0.3287  0.1942  0.0232
48751W        W48951   4.971   7.575   5.317  0.1004  0.0621  0.2461
48752W        W48952   2.606   7.044   6.029  0.0409  0.1049 -0.0987
48753W        W48953   2.942   3.048  14.981  0.3207 -0.0690 -0.1041
48754W        W48954  12.707   6.177   7.755  0.1290  0.1238  0.1988
48755W        W48955  11.489  15.093   7.775 -0.1101  0.1598  0.1174
48756W        W48956  14.696  16.755  17.820  0.0987 -0.0754 -0.1860
48757W        W48957  18.025  14.714   6.329  0.0624 -0.1348  0.1559
48758W        W48958  13.827  10.461   4.491 -0.4529 -0.0760  0.2026
48759W        W48959  10.381  14.014   0.668  0.5488  0.0230  0.0378
48760W        W48960   2.869  11.581   1.690 -0.1747  0.2316 -0.0293
48761W        W48961   3.206  11.380  13.052  0.0711 -0.1296  0.0166
48762W        W48962  17.597  16.620   1.692  0.1377 -0.0828 -0.0029
48763W        W48963   1.176  13.250   9.337  0.2420  0.0981  0.1984
48764W        W48964   2.973  13.773   9.141  0.0773 -0.1440  0.0436
48765W        W48965   0.114  11.175   3.955 -0.0821 -0.2956  0.2383
48766W        W48966   1.883   4.145   1.759 -0.2655  0.2059 -0.0684
48767W        W48967  17.083  17.070   3.906 -0.0930  0.2120  0.1828
48768W        W48968   9.349  15.378   2.079  0.3310 -0.1993  0.1633
48769W        W48969   0.564  14.577   2.697 -0.2610 -0.0431 -0.0484
48770W        W48970  17.713  18.140   6.025 -0.1222  0.5663  0.0967
48771W        W48971  16.483   1.682   0.450  0.1654 -0.0246 -0.0047
48772W        W48972  15.777   1.418   9.126  0.0029 -0.1277  0.0572
48773W        W48973   7.088  14.530   5.757 -0.0495  0.3068 -0.2095
48774W        W48974  17.678  18.007   8.053 -0.0749 -0.0920  0.1044
48775W        W48975  16.917  17.029   6.580 -0.1697  0.2980  0.3784
48776W        W48976   2.897   0.826   9.530  0.0620  0.1763  0.0450
48777W        W48977   9.412   3.485  15.741  0.4789 -0.1535  0.3586
48778W        W48978  15.382  14.659  14.327 -0.5124 -0.0876 -0.0164
48779W        W48979  16.948  12.674  13.747 -0.2637  0.1732  0.2857
48780W        W48980  11.191   3.138  15.170  0.2190 -0.0735 -0.0744
48781W        W48981   7.905   2.046   7.706 -0.0284  0.4304 -0.3572
48782W        W48982   4.020  18.084  15.201 -0.1864 -0.2054  0.3094
48783W        W48983  12.158   3.480   1.995  0.0841  0.0003 -0.1212
48784W        W48984   7.253   1.079   8.486 -0.3230  0.1424 -0.1837
48785W        W48985  15.750   8.021  14.936 -0.0230  0.1221  0.0665
48786W        W48986   8.995   7.728  10.254 -0.0256  0.0115  0.1880
48787W        W48987  13.546   1.457  13.452 -0.2488 -0.1138  0.0963
48788W        W48988  11.130  13.670  11.503 -0.1519 -0.2355 -0.0353
48789W        W48989  10.232  14.412   9.066  0.0356  0.0224 -0.4494
48790W        W48990  15.070  11.433  11.211 -0.1043 -0.2296 -0.3640
48791W        W48991  13.130   8.042   8.010 -0.0336 -0.2378  0.0657
48792W        W48992   4.032   9.390   3.564 -0.2100 -0.0116  0.3171
48793W        W48993   0.435  15.271  17.634  0.0848 -0.1228 -0.0271
48794W        W48994   2.286  15.552   5.175  0.1632 -0.0250  0.2296
48795W        W48995  10.944  17.351   5.352 -0.0862 -0.1223  0.1700
48796W        W48996   7.614  15.180   3.460 -0.0478 -0.0359 -0.1946
48797W        W48997   1.112  13.103   8.434  0.0167 -0.4088  0.2697
48798W        W48998  13.511  11.230   5.221 -0.3064  0.0400  0.2316
48799W        W48999   3.375   3.122  13.837  0.0638 -0.3133 -0.0247
48800W        W49000  15.736   7.194  10.270  0.0461  0.0886  0.2997
48801W        W49001   1.509   3.900  10.397 -0.2786 -0.2900 -0.1683
48802W        W49002  13.114   8.326  11.654  0.2090 -0.1320  0.3988
48803W        W49003  13.249   5.645  17.669 -0.2824  0.0984  0.1210
48804W        W49004  13.497   2.832  11.690 -0.0062 -0.0747 -0.0427
48805W        W49005   4.381   6.025   8.363 -0.0103  0.3085  0.3077
48806W        W49006   6.173   3.089   6.885  0.0640 -0.2854 -0.0097
48807W        W49007   0.443  17.893  12.346 -0.3435  0.2545  0.2022
48808W        W49008  12.463  14.689   6.487 -0.0400  0.4150 -0.0059
48809W        W49009   1.899   9.617   0.019  0.2722  0.1659 -0.0551
48810W        W49010  14.335  17.790  13.535  0.1263  0.0617  0.1514
48811W        W49011   1.234  18.143   5.519  0.1018 -0.1053 -0.1111
48812W        W49012   1.019  12.429   1.442  0.2987  0.0269 -0.0757
48813W        W49013   2.803  14.560  15.454 -0.0464 -0.2409 -0.0203
48814W        W49014  10.920  18.189  16.825  0.3294  0.0428  0.0130
48815W        W49015  15.245  14.817   7.424 -0.3928 -0.1860  0.0214
48816W        W49016  15.392  11.948   4.099 -0.1275  0.1923  0.1178
48817W        W49017   6.770   2.964   1.511 -0.4449 -0.0609  0.0086
48818W        W49018   0.663  13.668  10.733  0.2770  0.4467  0.1733
48819W        W49019  14.199  12.285   8.501 -0.1852  0.1094 -0.0405
48820W        W49020  16.508   2.092  16.516 -0.1598 -0.0379 -0.1434
48821W        W49021   2.813  14.736   5.704 -0.3289 -0.2606 -0.1067
48822W        W49022   4.367   1.274   6.712  0.3388 -0.0563  0.0598
48823W        W49023   3.580   3.946   9.544 -0.2127 -0.0420  0.1534
48824W        W49024  14.009   5.148  10.675 -0.1238  0.1192  0.0824
48825W        W49025   3.793  16.969   1.065 -0.0861 -0.0463  0.2189
48826W        W49026   8.595  17.634  12.721 -0.0726  0.4112 -0.2297
48827W        W49027  11.509   1.668   3.208  0.1375 -0.1753  0.3863
48828W        W49028  10.721   8.534   5.144  0.2797  0.3247 -0.1625
48829W        W49029  13.365   2.576  10.861  0.0116 -0.2194  0.0554
48830W        W49030  10.030   9.612  10.241 -0.2662 -0.2407  0.0694
48831W        W49031  13.759  13.714   2.421 -0.0342  0.2214  0.0664
48832W        W49032   2.081  12.655   5.936 -0.2773 -0.1302  0.0081
48833W        W49033  10.860  17.676  13.196  0.0661 -0.5598 -0.2022
48834W        W49034   3.505   2.631   9.307 -0.2388 -0.3213 -0.1123
48835W        W49035   9.383   0.686   5.745  0.0217  0.2783  0.2163
48836W        W49036  16.952  12.425  13.210 -0.3822  0.0471  0.0320
48837W        W49037   7.121  10.628   4.049 -0.3774  0.0550  0.3184
48838W        W49038  15.960   7.277   8.266  0.0421 -0.3514  0.1104
48839W        W49039  16.552  16.116  15.004 -0.2730  0.0923  0.3370
48840W        W49040   8.148  13.967   8.784 -0.2726 -0.1698 -0.2697
48841W        W49041  16.179   0.814   1.263  0.0810 -0.0250 -0.2729
48842W        W49042  16.176  15.550   4.495  0.2426  0.1783  0.0849
48843W        W49043  10.144  11.294  11.472  0.0200 -0.3419  0.0605
48844W        W49044   9.101   6.810  11.654 -0.1779  0.1439  0.0573
48845W        W49045  14.222  13.717   6.742 -0.1002 -0.0529  0.2172
48846W        W49046  10.849  11.072  11.956 -0.1530  0.0734  0.0335
48847W        W49047   3.232  10.198   9.623 -0.0319  0.0216 -0.1569
48848W        W49048   6.239   9.630  14.780  0.0496 -0.3706 -0.0602
48849W        W49049   5.600   5.239   7.446 -0.2300  0.2081  0.1590
48850W        W49050   8.148   5.660  12.162 -0.0714 -0.1283 -0.0640
48851W        W49051  13.743   3.934   9.232  0.2839  0.0546  0.1658
48852W        W49052  15.828   5.399  10.329 -0.2229 -0.3006  0.0552
48853W        W49053   1.219  17.122   4.823 -0.0445  0.4431  0.0864
48854W        W49054  13.919  16.129  16.947 -0.2059 -0.0358  0.2050
48855W        W49055   2.217  13.259  11.594  0.0872 -0.2116 -0.0781
48856W        W49056  13.392  15.901  16.073  0.4043  0.2002 -0.3165
48857W        W49057   0.739   2.092   6.441 -0.2524  0.1136 -0.2164
48858W        W49058  13.316  14.385   3.184  0.0344  0.0534 -0.1106
48859W        W49059   2.379  16.144   3.406  0.1468 -0.0929 -0.0485
48860W        W49060  14.687   8.711   4.501 -0.2707 -0.0127  0.0321
48861W        W49061  13.681  16.543   7.516 -0.0123  0.1321 -0.1044
48862W        W49062  16.203  11.928  10.428  0.2027 -0.3037 -0.1258
48863W        W49063  15.133  15.353   9.103 -0.2641  0.1119  0.1097
48864W        W49064  10.961  12.716   5.790  0.1092 -0.1499 -0.0837
48865W        W49065  13.186  15.235  13.625  0.2337  0.0012 -0.1779
48866W        W49066  10.670  11.758   3.973 -0.1203  0.0483 -0.3117
48867W        W49067   6.613  18.094  17.173  0.1714  0.0608  0.0907
48868W        W49068  12.154  16.946  13.575 -0.1311 -0.2207  0.1924
48869W        W49069  13.031   1.194   5.215  0.1325 -0.2832  0.2537
48870W        W49070   3.384  15.102   9.872 -0.2156  0.4816 -0.1478
48871W        W49071   9.950   2.356   5.879 -0.0748  0.2477 -0.1858
48872W        W49072  17.548  17.598  17.306 -0.3323 -0.1858 -0.1351
48873W        W49073  11.108   1.363  11.745 -0.2233  0.0759 -0.0986
48874W        W49074  18.039   4.031  17.134 -0.1270  0.0497 -0.0750
48875W        W49075   2.750  12.643   6.468  0.0880  0.3052 -0.0727
48876W        W49076   9.215   6.437   9.325 -0.2720  0.0634  0.2912
48877W        W49077  14.153  15.166  12.009  0.2254  0.1594 -0.1506
48878W        W49078   2.332   3.148  12.146 -0.2123 -0.0332  0.1586
48879W        W49079   2.094  14.923   9.162 -0.0050 -0.1885  0.0426
48880W        W49080   9.019   5.230  12.236  0.0275 -0.2242  0.3870
48881W        W49081  16.168  12.439   4.158  0.0614  0.0740  0.2394
48882W        W49082  13.848   4.223  13.881  0.1147  0.2772 -0.1744
48883W        W49083   6.117   0.996  11.008  0.0370 -0.2497  0.0323
48884W        W49084   9.076   0.380  11.657  0.1178  0.0974  0.0311
48885W        W49085   1.560   0.538   7.801 -0.1584 -0.1760 -0.0692
48886W        W49086  14.336   1.065  11.918  0.3276 -0.0432 -0.1145
48887W        W49087  17.328  16.400  14.473 -0.2347 -0.2433 -0.2485
48888W        W49088   2.046   2.426  15.244 -0.1332  0.1168  0.0697
48889W        W49089  14.801   2.176  11.640  0.1236  0.1364 -0.2325
48890W        W49090   0.553  12.266   3.361  0.2649  0.0398 -0.0051
48891W        W49091  15.694  12.938   7.858  0.2019  0.2682 -0.0154
48892W        W49092  16.430   0.789  11.985 -0.0970  0.1192 -0.0358
48893W        W49093   6.606  17.770   7.138  0.0968  0.2295  0.0101
48894W        W49094  13.133   3.853   5.928 -0.2436 -0.1192  0.2911
48895W        W49095   2.414   3.029  15.724  0.3411  0.2219  0.0313
48896W        W49096   2.013  16.405  12.594  0.0620  0.2598  0.1301
48897W        W49097  16.968  16.140   5.238 -0.1644  0.5585  0.2565
48898W        W49098   1.234   1.513   0.443  0.1580  0.0827  0.3243
48899W        W49099  16.058  13.848   7.148  0.0825 -0.0557  0.2342
48900W        W49100  13.123   4.758  13.509  0.0013  0.3441 -0.3190
48901W        W49101   6.076  17.994   5.038 -0.0002  0.1255  0.1888
48902W        W49102  18.095   4.495  11.132  0.1989  0.1867 -0.2214
48903W        W49103   2.447   3.387   7.552 -0.2994 -0.0653  0.2886
48904W        W49104  13.996   1.482  15.478  0.2463  0.0884 -0.0726
48905W        W49105   0.016  17.297  17.850  0.1226 -0.2179  0.0056
48906W        W49106   1.053   7.910  13.271  0.2075 -0.0117 -0.1593
48907W        W49107  18.104   4.223  13.968 -0.1163  0.1801 -0.0297
48908W        W49108   9.686  13.439   1.069  0.0045 -0.1130  0.1485
48909W        W49109   0.627   3.828   9.204 -0.2074 -0.0860 -0.0520
48910W        W49110  10.136   0.970  14.346  0.0906 -0.1048 -0.0435
48911W        W49111  18.122  11.958  11.404  0.4646  0.1162  0.0164
48912W        W49112  15.854  13.335  11.682 -0.4295  0.0410 -0.1437
48913W        W49113   7.165  13.540  10.498  0.2314 -0.1422 -0.0042
48914W        W49114  12.616  17.875   7.007  0.2958  0.0774 -0.1117
48915W        W49115  11.342  17.847   4.878  0.0836  0.2536  0.0476
48916W        W49116   8.720  18.101  10.704  0.1460  0.0413  0.0399
48917W        W49117  16.811  15.553   0.095  0.1112 -0.3919  0.1885
48918W        W49118   1.532  17.456   7.291  0.0065  0.0754  0.3921
48919W        W49119   1.360  15.026   2.823  0.1322 -0.0404  0.1227
48920W        W49120  18.125  12.452   6.020  0.1415  0.1476 -0.1644
48921W        W49121  17.600  16.611   9.346 -0.4000  0.1032  0.3732
48922W        W49122  13.865   3.113  13.691  0.1455 -0.3543 -0.2463
48923W        W49123  17.895   2.432  14.143  0.2792  0.2937 -0.0634
48924W        W49124  14.076   3.107   4.334  0.1782 -0.0768 -0.0845
48925W        W49125   0.154   7.017   1.612 -0.1020  0.1300 -0.3109
48926W        W49126   9.808   8.525  11.454  0.1236 -0.1691 -0.3987
48927W        W49127  13.798   0.346   3.116 -0.0648 -0.0324  0.0273
48928W        W49128   3.509   7.159  15.374  0.0892  0.1242  0.3217
48929W        W49129   3.029   8.065   5.790 -0.1973  0.2152 -0.0095
48930W        W49130   7.798  14.654   7.212  0.0408 -0.0948 -0.0138
48931W        W49131  17.466   1.786   8.199 -0.2248  0.0360 -0.2619
48932W        W49132  16.943  16.773   1.795  0.2455  0.0537  0.0375
48933W        W49133  12.115  17.442  13.395 -0.0601  0.2508 -0.1523
48934W        W49134  10.488   6.327   9.509  0.0013  0.0080  0.3282
48935W        W49135  14.097  15.861  11.362 -0.0827  0.0231  0.0194
48936W        W49136  17.170   4.999   0.376  0.0933  0.0636  0.0621
48937W        W49137  13.896  15.886   9.781 -0.1253 -0.2427  0.1111
48938W        W49138   7.453  15.868   7.508 -0.0221  0.2935 -0.1010
48939W        W49139   4.516  14.254   0.515 -0.2596 -0.1636  0.1237
48940W        W49140  17.899   9.182  13.558 -0.1043 -0.2623  0.1400
48941W        W49141  14.124   3.446  17.797  0.3634 -0.2802 -0.1924
48942W        W49142   5.969  11.194   2.269  0.2543  0.1567  0.2741
48943W        W49143  12.326   8.638  10.635  0.0065 -0.0692  0.0148
48944W        W49144   8.901  14.508  13.235  0.4694  0.0353 -0.2735
48945W        W49145   1.271  15.543   6.781 -0.2016  0.1598  0.0428
48946W        W49146  18.192   4.185   8.096  0.1104  0.3549 -0.1275
48947W        W49147  15.472  17.216  11.828  0.0768  0.5933  0.2638
48948W        W49148   0.158  15.050  10.796 -0.1107  0.0500 -0.0211
48949W        W49149   5.920  13.760   2.463 -0.0061 -0.2532  0.0237
48950W        W49150  17.044  15.677   7.422 -0.1595  0.0235  0.4528
48951W        W49151  14.273  10.548   8.181  0.0267  0.0343 -0.1562
48952W        W49152   4.826   3.449   1.949  0.0242  0.0061 -0.3328
48953W        W49153  14.344   0.437  10.563  0.0816  0.0303  0.2118
48954W        W49154   7.118  17.334   5.821  0.0646 -0.2423 -0.1151
48955W        W49155  16.300  16.378  11.169  0.0694 -0.1252 -0.3506
48956W        W49156  14.792   3.420  12.304  0.1068 -0.0304 -0.0141
48957W        W49157  14.140  11.876  13.785  0.1431  0.2812 -0.2172
48958W        W49158  13.732  12.385  10.543 -0.1403 -0.3917 -0.0984
48959W        W49159  17.777   4.270  10.388  0.1681  0.3343  0.0392
48960W        W49160  18.175   0.205   4.859 -0.0771 -0.1213  0.1990
48961W        W49161  16.898  13.967   6.639  0.0734 -0.3104  0.1590
48962W        W49162  16.177  16.283   9.480  0.0782 -0.0616 -0.1197
48963W        W49163  14.623  14.759   8.142  0.0847 -0.1332  0.3514
48964W        W49164   7.960   2.829  13.385  0.0499 -0.3312  0.1500
48965W        W49165  17.505  14.062   0.905  0.1294 -0.1061 -0.1512
48966W        W49166  17.328  12.893   5.500 -0.0537  0.1794  0.1847
48967W        W49167  15.885   0.096   7.650 -0.4009  0.5373  0.0748
48968W        W49168   1.549   4.567   4.320 -0.2276  0.2208  0.0901
48969W        W49169  10.965  15.623  12.243 -0.0937  0.2174 -0.1746
48970W        W49170  17.301   2.545   7.467  0.0217 -0.1370 -0.1674
48971W        W49171   7.472   3.150  14.742  0.1904 -0.2135 -0.0447
48972W        W49172  17.122  16.458  10.957 -0.2919  0.0070  0.1619
48973W        W49173  10.929  15.204  10.626  0.1279  0.0944  0.2280
48974W        W49174   1.490   1.681   6.219  0.1815 -0.2936  0.1618
48975W        W49175  13.121   2.513  13.243 -0.1242 -0.4230  0.1769
48976W        W49176   8.825  14.865  10.116 -0.3538  0.2345  0.0803
48977W        W49177  14.262  13.115   9.083  0.1159  0.0010 -0.0862
48978W        W49178  14.710  10.760  11.760  0.1096  0.1941 -0.0116
48979W        W49179  15.488   1.103   7.725 -0.0985 -0.1287 -0.0343
48980W        W49180   1.917   0.552   6.316 -0.0685 -0.0306 -0.1265
48981W        W49181  12.409  16.846   8.179 -0.1725  0.1416  0.0795
48982W        W49182  16.356  11.394  10.338 -0.0162 -0.2827  0.1638
48983W        W49183   0.066  17.010  11.913 -0.0103  0.0854 -0.0530
48984W        W49184  15.986   4.216   4.509  0.0177 -0.3106  0.1756
48985W        W49185   4.839   1.711  13.004 -0.0136 -0.1853 -0.1583
48986W        W49186  17.948  15.950   6.250 -0.0284 -0.0631  0.3127
48987W        W49187  11.097   0.238  10.139 -0.0404 -0.0203  0.3628
48988W        W49188   8.683  13.387   3.575  0.2589 -0.2148  0.0569
48989W        W49189   7.978   4.749  14.815  0.0019  0.0448 -0.0708
48990W        W49190   3.463   1.709  10.263 -0.0731  0.0311  0.0222
48991W        W49191  12.927   1.728   7.789  0.3833  0.1021 -0.1617
48992W        W49192  14.359  16.443   7.417  0.1030  0.0202  0.0981
48993W        W49193  14.444  18.137  10.779 -0.3294  0.2587 -0.1463
48994W        W49194   6.508  16.866  12.151  0.2625 -0.1752  0.0846
48995W        W49195   6.320   6.827  13.172 -0.1853  0.2913  0.0868
48996W        W49196  14.598  10.543   2.648 -0.0284  0.1461  0.2022
48997W        W49197  12.548  16.061   8.538 -0.1485  0.0636 -0.0346
48998W        W49198   9.599   5.830  15.362  0.1779  0.0240 -0.0510
48999W        W49199  10.531   8.244  15.868 -0.0615  0.1020  0.1756
49000W        W49200  14.582  14.221  14.650  0.1881  0.3620  0.0575
49001W        W49201   4.132   1.441   7.219 -0.3066 -0.0019 -0.0140
49002W        W49202  11.450  11.587  12.466 -0.0643  0.1551  0.3105
49003W        W49203  16.614   1.173   0.470  0.2211 -0.1791  0.0421
49004W        W49204   0.014  14.243  14.494 -0.3652  0.3032 -0.0871
49005W        W49205  17.688   8.059  10.235 -0.0703 -0.3406  0.2832
49006W        W49206   1.260  12.335  10.795 -0.1556  0.1086 -0.0454
49007W        W49207   4.356  14.681   5.337  0.1444  0.0906 -0.0313
49008W        W49208   2.822   5.352   4.663 -0.0547 -0.3061  0.3365
49009W        W49209  17.631  12.828  16.240  0.0130 -0.0788 -0.1281
49010W        W49210  17.561  18.040  16.075  0.0278 -0.1187 -0.0382
49011W        W49211  14.038  15.384  16.450  0.1960 -0.0062  0.0904
49012W        W49212  13.781  16.319  10.349  0.4643  0.1780  0.1396
49013W        W49213  16.267  15.808  14.338  0.1539 -0.4316  0.0626
49014W        W49214   2.216  18.062   2.796 -0.2959  0.1062  0.3018
49015W        W49215  16.350  17.329   1.354  0.2218  0.1658  0.0744
49016W        W49216  12.423  15.293   1.849  0.0293  0.2340  0.2677
49017W        W49217   5.175  13.486  14.377  0.1296 -0.2294 -0.1072
49018W        W49218  13.614  13.543  12.918  0.0448 -0.0515  0.1233
49019W        W49219  16.161   1.934  10.004 -0.0763  0.2569 -0.0585
49020W        W49220  12.766   1.702   3.992 -0.1013 -0.0512  0.1152
49021W        W49221  17.350   0.379  11.639  0.0413  0.1109  0.2611
49022W        W49222  10.051   8.441   5.885 -0.0607  0.0310  0.1460
49023W        W49223  10.306  16.482   9.668 -0.0751 -0.0517 -0.1833
49024W        W49224   4.254  13.010   0.681 -0.6019  0.2355  0.1253
49025W        W49225   1.363   1.369  12.798 -0.0454 -0.0855  0.0618
49026W        W49226   6.190   9.943   2.945 -0.0164  0.2715 -0.1132
49027W        W49227   0.763   3.373   9.374 -0.2827 -0.1989 -0.3621
49028W        W49228   9.747   7.355   2.488 -0.0813  0.1385  0.1237
49029W        W49229   3.758  14.485   2.709 -0.2993 -0.2038  0.1171
49030W        W49230  14.933  11.758   9.710  0.2011 -0.2497  0.0920
49031W        W49231   5.247  11.456  10.823 -0.1335  0.0435  0.2507
49032W        W49232  15.514   3.745  11.814 -0.2429  0.1212  0.0533
49033W        W49233  14.084   9.859  12.854 -0.2423  0.1690  0.0344
49034W        W49234   3.585  16.125   8.319 -0.1682  0.0327  0.1211
49035W        W49235  16.563   4.711   5.928 -0.1416 -0.1531  0.1409
49036W        W49236  15.506  10.125   8.187 -0.0777  0.2784  0.3018
49037W        W49237  17.859  14.430   7.806  0.1745  0.2458  0.1961
49038W        W49238  17.856   1.373  14.800  0.0738 -0.0359  0.1840
49039W        W49239   5.698  13.910  12.258 -0.0869  0.1808 -0.0449
49040W        W49240   0.245   1.648  12.806  0.0801 -0.1021  0.2750
49041W        W49241   0.715   1.794   8.437 -0.2694  0.1873 -0.0988
49042W        W49242  11.400   7.145   1.709 -0.3029  0.1496  0.1017
49043W        W49243   2.834  16.239  10.482  0.3044  0.0043  0.1404
49044W        W49244  16.924  15.425   5.704  0.5121  0.0992  0.2112
49045W        W49245   5.898   4.869   1.296 -0.1918 -0.0985  0.0420
49046W        W49246   0.052  15.196   5.094 -0.0324  0.0226 -0.1472
49047W        W49247  17.564  12.242   6.967  0.0933  0.0432  0.2761
49048W        W49248  16.195  12.553  14.300  0.1057  0.5419 -0.0280
49049W        W49249   0.442  14.485  11.512  0.1441  0.0769  0.0218
49050W        W49250  11.388  12.745  12.108  0.4397  0.1403 -0.1517
49051W        W49251   0.669  10.444  13.472  0.0611 -0.4816 -0.3246
49052W        W49252  12.713   9.364   9.534 -0.0699  0.0555  0.1992
49053W        W49253  11.088   6.455   4.896 -0.0415  0.1614 -0.4769
49054W        W49254  15.230  12.835   7.660 -0.1696  0.1847 -0.1405
49055W        W49255  10.435  14.479   7.677 -0.0512 -0.3881 -0.5815
49056W        W49256  17.834   5.884  10.623 -0.1833  0.0207  0.0500
49057W        W49257  17.307  15.641   3.643  0.0343 -0.1350 -0.3047
49058W        W49258  10.481  18.204  14.351 -0.0043  0.0097  0.3023
49059W        W49259   9.412   0.329   6.711 -0.0155  0.0555  0.1141
49060W        W49260  13.806  13.925  13.210 -0.0342 -0.1315  0.0688
49061W        W49261   0.752  15.813   1.429 -0.0095 -0.2542 -0.0722
49062W        W49262  11.138  17.040  13.399  0.1569  0.1217  0.1075
49063W        W49263  13.628  18.125   4.118 -0.0615  0.2468  0.0353
49064W        W49264  18.119  15.908  13.388  0.1180  0.2103 -0.1549
49065W        W49265  18.104  17.643  12.532  0.0497  0.3026  0.0287
49066W        W49266  13.939   2.443   8.983  0.2927  0.0891 -0.0709
49067W        W49267  13.457   7.802   8.954  0.1649  0.1383  0.0144
49068W        W49268   9.562   3.874  16.048 -0.2381  0.3422 -0.0336
49069W        W49269   8.345   2.960   8.341  0.0310 -0.0793 -0.0475
49070W        W49270  12.081  11.356   0.215  0.2506 -0.1439  0.0896
49071W        W49271   9.471  13.143  10.952  0.1515  0.0947 -0.0208
49072W        W49272  14.500   0.106  12.432 -0.0291 -0.0626  0.0960
49073W        W49273  14.518   7.968  16.177 -0.0208 -0.2438 -0.0908
49074W        W49274  11.207   1.078   9.380 -0.0021 -0.0488 -0.0815
49075W        W49275   3.181  14.069   7.338 -0.2047  0.0421  0.1237
49076W        W49276  12.810  10.287  15.745 -0.4253 -0.1684  0.3389
49077W        W49277  15.594  14.468   7.150  0.1675  0.3051 -0.0846
49078W        W49278   4.247  15.274   8.770  0.1800 -0.3156 -0.0661
49079W        W49279   3.451   1.828   7.405 -0.0846  0.3220 -0.2268
49080W        W49280   4.052  11.994   8.830 -0.3426 -0.3202  0.2360
49081W        W49281  13.946  14.365  10.095 -0.1311 -0.1938 -0.2369
49082W        W49282   6.986  18.112   7.843 -0.0928 -0.1083 -0.0473
49083W        W49283   2.514  15.249   9.266  0.1753  0.0515  0.0405
49084W        W49284  16.142  17.434  11.072 -0.1753  0.1523 -0.1623
49085W        W49285   5.863  10.198   1.754  0.0537  0.3126 -0.0977
49086W        W49286   0.635   9.163   3.761 -0.0163  0.0932  0.0755
49087W        W49287  14.792  16.653   7.708 -0.1143 -0.0944  0.0212
49088W        W49288  12.614   1.803  14.627 -0.1823 -0.0809  0.1195
49089W        W49289  14.390  15.708  16.695  0.0780  0.0023  0.2715
49090W        W49290  12.735  15.226   9.280  0.1440  0.1412 -0.2958
49091W        W49291  17.919  12.855  11.426 -0.0116  0.1842  0.1504
49092W        W49292  11.660  17.847   0.129 -0.3317  0.2120  0.0463
49093W        W49293   3.582  17.524  12.297 -0.2625 -0.1543 -0.0792
49094W        W49294  15.158  17.330   8.491 -0.0903 -0.0983 -0.1146
49095W        W49295   1.001  12.042   3.124 -0.1658  0.0692  0.0398
49096W        W49296   1.569  16.920   9.256 -0.2165  0.2211  0.1519
49097W        W49297  15.250  16.210  11.027  0.1508 -0.1730  0.2866
49098W        W49298   4.483  16.870   0.620  0.0135  0.0121  0.0470
49099W        W49299  16.384   3.127  12.915  0.0948 -0.1899 -0.0526
49100W        W49300   2.615  14.100   7.102  0.0476 -0.1023  0.2188
49101W        W49301   9.765   0.071  10.139  0.4663  0.1481 -0.3593
49102W        W49302  10.881   4.615  14.104 -0.2648 -0.2250 -0.0465
49103W        W49303  14.136   1.008  10.950 -0.3405 -0.1193 -0.0578
49104W        W49304   1.681   4.325   9.656  0.2332 -0.1334  0.0489
49105W        W49305  14.148  15.120  17.072  0.1288 -0.2327  0.2231
49106W        W49306  12.204   7.796   4.761 -0.3269  0.2440  0.1307
49107W        W49307  13.983   1.470   8.609 -0.1150 -0.2640 -0.0403
49108W        W49308  11.813  13.184  11.833  0.2464  0.4342 -0.3505
49109W        W49309   1.802  16.944   7.873  0.2228  0.0575  0.0117
49110W        W49310  14.484  12.061  10.539  0.1313 -0.0582  0.0211
49111W        W49311  15.550  17.462   6.348 -0.1609 -0.2447 -0.0883
49112W        W49312  15.328  10.097   7.287  0.0363 -0.0300  0.3146
49113W        W49313   3.583  16.555   6.927  0.1932  0.2697  0.3056
49114W        W49314   5.115  18.007   4.864  0.0886 -0.0195 -0.0128
49115W        W49315   4.119   2.702   8.048  0.2013  0.0049  0.0415
49116W        W49316   3.321  11.175  12.191 -0.0688  0.2634 -0.0161
49117W        W49317  15.126  14.902   9.415  0.2670  0.0912 -0.3387
49118W        W49318   0.941   2.420   7.183  0.2323  0.1484 -0.3119
49119W        W49319  12.022  17.325  12.376  0.0946  0.1673 -0.1945
49120W        W49320   1.709  11.433  12.844 -0.2203  0.2155  0.2802
49121W        W49321   0.829  11.071  12.670  0.0148 -0.0913  0.1141
49122W        W49322   1.258   7.876  11.050  0.2353  0.2523 -0.1207
49123W        W49323   8.769  14.829   6.915  0.1045 -0.0156  0.2745
49124W        W49324  15.562   0.523   4.884  0.0848 -0.0757  0.3423
49125W        W49325  13.599  10.643  10.316 -0.2786 -0.0157 -0.0868
49126W        W49326   9.658  13.034  14.367 -0.0879  0.3426  0.2571
49127W        W49327   7.060  12.011   6.689  0.1722  0.0989  0.0636
49128W        W49328  17.560   9.638   9.887 -0.1088 -0.0305  0.0875
49129W        W49329  15.779  14.658   7.588 -0.1817 -0.1174  0.0198
49130W        W49330   7.237   1.427   7.092  0.0709  0.1631 -0.0997
49131W        W49331  15.514  15.641   9.831 -0.0444 -0.2824 -0.1763
49132W        W49332   9.325  10.494   5.070 -0.0004  0.4780  0.0255
49133W        W49333  14.378   9.846   2.274 -0.3522 -0.1639 -0.1533
49134W        W49334  13.594  17.036   9.616  0.1762  0.0775  0.0493
49135W        W49335  10.311   7.660  15.156 -0.3361 -0.0570  0.0930
49136W        W49336   5.041  10.415  11.603  0.0085  0.0178 -0.0466
49137W        W49337  16.839   9.427   9.179 -0.0167 -0.3885  0.1371
49138W        W49338  17.236  15.922  13.126  0.2631 -0.0923  0.0282
49139W        W49339   4.075   5.335   1.118 -0.0830  0.1095  0.1165
49140W        W49340   3.264   4.545  15.127  0.0831  0.0189  0.0199
49141W        W49341  14.256  15.058  15.185 -0.0055  0.0297 -0.2962
49142W        W49342   0.630   6.665   6.475  0.1997  0.1009  0.1750
49143W        W49343   2.825   2.083  11.456 -0.0463 -0.0696 -0.2722
49144W        W49344   1.568  10.159   5.339 -0.1500  0.1630 -0.1018
49145W        W49345  16.628  15.242   6.754  0.1118  0.4474 -0.0702
49146W        W49346  18.037  15.589   4.778 -0.0350 -0.0411  0.2057
49147W        W49347   2.497  13.028   6.627  0.0241  0.2387 -0.1109
49148W        W49348  17.974  14.564   9.489  0.1270  0.0676  0.2913
49149W        W49349  14.864  16.515   1.100  0.5205  0.0703 -0.0377
49150W        W49350   5.813   3.839  16.586  0.0346 -0.0828  0.0387
49151W        W49351  16.306  13.374  15.489  0.0950  0.1383 -0.1625
49152W        W49352  17.970   4.635   8.475 -0.0429  0.1482 -0.1150
49153W        W49353   3.235   9.061  10.983  0.0144  0.1358 -0.2332
49154W        W49354  11.526  11.016   7.908  0.1512 -0.1040 -0.0013
49155W        W49355   4.073  15.482   9.532  0.1230  0.2006 -0.2718
49156W        W49356  14.980  18.149  10.697 -0.1930  0.1214  0.1383
49157W        W49357   8.345  15.226  14.411  0.0121  0.1174 -0.2438
49158W        W49358   8.631   0.476  15.921 -0.1712  0.2318  0.3866
49159W        W49359  12.543   0.319   7.710 -0.1347 -0.2192 -0.3136
49160W        W49360  17.041  17.491   7.797  0.1248  0.2164  0.1516
49161W        W49361   0.392  12.061  11.152 -0.1216  0.0033 -0.1243
49162W        W49362   0.125   7.426   6.884  0.3263  0.1448 -0.1606
49163W        W49363  12.895   0.480   5.731 -0.2888 -0.2252  0.1129
49164W        W49364  14.798   3.237  13.511 -0.2080  0.3006 -0.2926
49165W        W49365   8.441  14.295   8.080  0.0474 -0.0808 -0.1433
49166W        W49366   4.690   1.405   9.571  0.2253 -0.0436  0.1170
49167W        W49367   8.562  17.713  10.174 -0.0735  0.0017  0.0828
49168W        W49368   3.267   4.485   9.827  0.0124  0.0510  0.0536
49169W        W49369   5.475   6.141   7.984 -0.0758 -0.0196 -0.4044
49170W        W49370  17.253  16.935   4.631  0.2609 -0.3440 -0.3390
49171W        W49371   5.322  17.498   7.857  0.0183 -0.1259  0.2712
49172W        W49372  15.942  14.821  14.227  0.1871 -0.0831  0.0105
49173W        W49373   0.493  13.598   3.400  0.1491 -0.1478 -0.0548
49174W        W49374  14.695   0.187  15.382 -0.2067  0.3534 -0.2851
49175W        W49375   4.841  11.682  11.697 -0.1746 -0.1761  0.0831
49176W        W49376  13.586  15.973   4.273  0.1067 -0.1246  0.2189
49177W        W49377  15.750  15.507  12.668 -0.0521  0.1159 -0.1068
49178W        W49378   3.420   3.396   7.856 -0.0550 -0.0385 -0.0318
49179W        W49379   1.571  13.090  14.586 -0.0907 -0.5379 -0.0479
49180W        W49380  16.991  17.805   0.199 -0.0684 -0.0667  0.2774
49181W        W49381   3.527  16.704  18.105 -0.1002 -0.2918  0.2321
49182W        W49382   1.966   0.811  17.124 -0.2060 -0.1692  0.1744
49183W        W49383  16.837   6.721  11.385  0.1648  0.2248  0.0714
49184W        W49384   0.468  13.080  17.077  0.1235 -0.0929  0.0882
49185W        W49385  10.758   9.504   9.597 -0.2520 -0.3208  0.0735
49186W        W49386  13.991   0.109   3.542  0.1634 -0.0546 -0.4049
49187W        W49387  16.943  12.662  12.381 -0.2636  0.1051 -0.0923
49188W        W49388  15.947   4.058  13.777  0.2456 -0.0065 -0.0496
49189W        W49389  13.044   7.137   1.186  0.2780  0.0740  0.2605
49190W        W49390  11.920   2.433   7.078 -0.0025 -0.2622  0.3680
49191W        W49391  17.240  13.232  12.089 -0.0301  0.3479 -0.1411
49192W        W49392   2.247   1.752  14.466 -0.4138 -0.0582 -0.0784
49193W        W49393   9.099   2.032  15.335 -0.0455 -0.1641 -0.0882
49194W        W49394  16.098   7.095   9.887  0.0994  0.2368  0.1545
49195W        W49395   7.540  11.162   7.667  0.1833 -0.3622 -0.0802
49196W        W49396  15.310  10.838  11.034 -0.3775  0.1879 -0.1331
49197W        W49397   6.774  13.532   5.663 -0.1199 -0.0410  0.2088
49198W        W49398  14.220   0.641  16.728 -0.0113  0.0309 -0.0254
49199W        W49399   4.073  16.777   8.263  0.0587 -0.2217 -0.0463
49200W        W49400   3.548  15.610   3.086 -0.1916  0.2909  0.2666
49201W        W49401  12.473  15.141  11.959 -0.1532 -0.1398 -0.0163
49202W        W49402   8.326  16.508  10.813 -0.0220 -0.2648  0.1212
49203W        W49403   9.129   8.626  14.339  0.1766  0.1858  0.1010
49204W        W49404   0.854  12.488   0.944 -0.0317  0.0755 -0.0403
49205W        W49405   2.994  15.105   9.488  0.2678  0.1166 -0.2817
49206W        W49406  12.019  13.637   5.899 -0.0776 -0.2437  0.0054
49207W        W49407  15.818  16.844   5.662  0.0896  0.0625 -0.0635
49208W        W49408   5.504  16.340   8.707  0.1018 -0.1159  0.1763
49209W        W49409  11.980   0.736  16.718 -0.0155  0.0684 -0.0450
49210W        W49410  11.264  12.292  15.974  0.1642 -0.1882  0.0227
49211W        W49411  16.165  13.498  13.193 -0.0915 -0.1719  0.0467
49212W        W49412   8.628  15.130   9.758  0.3797  0.1346  0.0582
49213W        W49413  16.686   3.066   1.009  0.1693 -0.3360  0.0133
49214W        W49414  12.970  16.026  17.358 -0.0041  0.0542  0.1568
49215W        W49415  13.219   1.384  14.109  0.1821 -0.1509  0.1511
49216W        W49416  13.691   1.232  13.916 -0.3767 -0.0763  0.0690
49217W        W49417   2.160  14.862  13.540 -0.1195 -0.1162 -0.1250
49218W        W49418  15.689  14.445  10.359 -0.0947  0.1046  0.0866
49219W        W49419  16.773  13.960   1.339 -0.1829 -0.2094  0.0393
49220W        W49420  12.418  13.079  15.735  0.0153  0.2024 -0.1725
49221W        W49421   2.737  17.196  12.904 -0.0454 -0.0814  0.0710
49222W        W49422   8.535   1.982  16.379  0.1848 -0.0961 -0.0726
49223W        W49423  10.748   3.154  15.460  0.1038  0.0432  0.2536
49224W        W49424  13.347   6.988   5.048 -0.0746 -0.0989  0.0951
49225W        W49425  17.550   2.670  14.409  0.1077  0.0563 -0.1092
49226W        W49426   5.321   3.451   7.841 -0.1500  0.0475 -0.3610
49227W        W49427   4.080  15.283   3.837  0.3159 -0.5367 -0.2493
49228W        W49428  10.259   1.113  15.934  0.1547  0.1427  0.1999
49229W        W49429   8.294   7.381  14.444  0.1484 -0.2158  0.1006
49230W        W49430   0.968   5.213  14.427 -0.1422  0.1650  0.1552
49231W        W49431  16.779  13.161  12.278  0.1504 -0.2285 -0.1858
49232W        W49432  15.416   4.680  12.034  0.1444 -0.0172 -0.2096
49233W        W49433   5.368  12.376   9.481  0.1631  0.1049 -0.0638
49234W        W49434  16.412   4.493   8.547 -0.1570 -0.3147  0.1246
49235W        W49435   3.707  17.973   0.390 -0.0965  0.2068 -0.1933
49236W        W49436  17.235   3.405  10.303  0.0956  0.1020 -0.0273
49237W        W49437   0.436   1.620  11.463  0.1238  0.3224  0.2140
49238W        W49438   2.688  16.965   1.982  0.0106  0.0245 -0.0625
49239W        W49439  16.375  15.427   8.594 -0.4130 -0.0885 -0.4105
49240W        W49440  17.741   0.690  15.880 -0.3969 -0.4314 -0.4666
49241W        W49441  14.531  12.675   6.950 -0.1514  0.1461  0.2847
49242W        W49442  16.478  16.912  14.526  0.1237 -0.4380 -0.1244
49243W        W49443   1.764   1.804  14.174 -0.1263 -0.1443  0.5416
49244W        W49444   9.041   7.287  11.631 -0.0111  0.3169 -0.0046
49245W        W49445  14.863  11.901  10.222 -0.3713  0.1300  0.0795
49246W        W49446   3.891  17.176  16.939 -0.0613 -0.2444  0.0231
49247W        W49447  16.203   6.308  14.848  0.2266  0.2505 -0.1759
49248W        W49448   5.598   2.354   9.652  0.0615  0.0759  0.0967
49249W        W49449  12.487   3.098  12.301  0.2034 -0.3082  0.0695
49250W        W49450  17.466  16.483  15.855 -0.3342  0.1110  0.3041
49251W        W49451   6.567  14.428   1.251 -0.0355  0.1893 -0.3440
49252W        W49452   9.950  10.454  15.883  0.3323 -0.0573 -0.0193
49253W        W49453  17.603  15.833  16.692 -0.4483  0.3272  0.0226
49254W        W49454  16.819  11.897   9.719  0.1077 -0.3414  0.0787
49255W        W49455   8.159  15.703  10.898  0.1586  0.0197 -0.1145
49256W        W49456   3.822   2.145  13.324  0.0823  0.0372 -0.0355
49257W        W49457   3.103   2.113  12.508  0.2905  0.0886 -0.0094
49258W        W49458  10.732  13.175  17.723  0.0147 -0.1405  0.0745
49259W        W49459  18.161   8.103   1.893 -0.0586 -0.3460 -0.3130
49260W        W49460  17.181  17.035  15.079  0.2526 -0.2778  0.0617
49261W        W49461  17.125  15.169  10.908 -0.0156  0.2476  0.0146
49262W        W49462   2.737   3.111  16.093 -0.3250  0.0062 -0.2902
49263W        W49463  16.603  18.050   8.705  0.0408  0.1302 -0.2405
49264W        W49464   3.664   7.584  15.124  0.0714 -0.1450 -0.0432
49265W        W49465  18.002  10.784  14.501 -0.0346  0.0831 -0.2610
49266W        W49466   7.023   1.995  17.800  0.0187  0.4103  0.0188
49267W        W49467   7.840   5.617   4.737 -0.0693 -0.2558  0.0618
49268W        W49468  12.906  13.587   1.639 -0.0593  0.0844  0.2119
49269W        W49469   2.470   1.856   9.038  0.0204 -0.0050 -0.1057
49270W        W49470  15.556  18.167   8.905  0.0329 -0.1534 -0.1225
49271W        W49471  10.981   8.846   8.402 -0.2151 -0.1205 -0.0167
49272W        W49472  13.708   0.160  14.735  0.0290 -0.0845  0.0460
49273W        W49473   7.939   1.248   1.962 -0.0538 -0.1876 -0.0328
49274W        W49474  11.330   2.296   1.430 -0.2127  0.1116  0.1308
49275W        W49475   5.438   0.372   6.806  0.1270  0.3516 -0.2139
49276W        W49476  13.274  16.107   6.572  0.0795  0.0720 -0.0141
49277W        W49477   5.693   7.116  14.889  0.2752 -0.1147 -0.0515
49278W        W49478   1.815  14.388  11.210  0.3400  0.0486  0.1228
49279W        W49479   8.636  17.988  16.249  0.0995  0.0695  0.0141
49280W        W49480  15.677  17.892   7.850  0.0661 -0.1478  0.2293
49281W        W49481   0.361   2.950   4.964  0.1662 -0.1607  0.1376
49282W        W49482  12.468   2.919   2.809  0.1973 -0.0527 -0.2150
49283W        W49483  10.695  11.292  13.365 -0.1608 -0.1925 -0.1486
49284W        W49484  14.289  13.200  15.461 -0.1503  0.0761  0.2556
49285W        W49485   2.321  14.935  12.314 -0.1422  0.0435  0.0734
49286W        W49486  10.287   6.496  12.238 -0.0739 -0.3652 -0.2122
49287W        W49487  13.780  11.849  12.346 -0.1010  0.4516 -0.1347
49288W        W49488   1.611   2.694   6.482  0.0323  0.2860 -0.0880
49289W        W49489  15.033   6.191  15.537 -0.0879  0.1336  0.0989
49290W        W49490   1.800  15.226  16.112  0.1948 -0.2820  0.2284
49291W        W49491  12.351  17.856   8.461 -0.4277 -0.0507  0.1636
49292W        W49492  15.007   3.330   1.758  0.0209  0.2359  0.3187
49293W        W49493   8.596   1.693  14.190  0.2664  0.0740  0.1849
49294W        W49494  12.529  15.818  17.405  0.2029  0.5767 -0.1922
49295W        W49495   1.777  15.404  12.909  0.0429  0.1463  0.0143
49296W        W49496   1.601   6.732   0.765  0.4079 -0.0634 -0.4532
49297W        W49497  11.361   5.799  11.264 -0.0393  0.2479 -0.3565
49298W        W49498   9.896   3.519  11.484  0.3352  0.1558  0.0274
49299W        W49499   0.235   2.866  15.779  0.0984 -0.0918 -0.0010
49300W        W49500   7.133  13.166  16.381  0.1347 -0.1437  0.3398
49301W        W49501   0.405  14.322   9.972  0.2216 -0.4090  0.0872
49302W        W49502  14.631  11.687   5.920 -0.0793  0.0190  0.3235
49303W        W49503   0.228  17.311  12.271  0.1152  0.0376  0.0274
49304W        W49504   9.962  17.816  11.582 -0.1076 -0.3022  0.1819
49305W        W49505   1.385  14.342   8.067 -0.1764 -0.0167 -0.2038
49306W        W49506   0.886  17.963   9.296 -0.0725 -0.0894 -0.2885
49307W        W49507   9.745   2.186  14.635 -0.0305  0.1498  0.2586
49308W        W49508  15.060  12.818  11.344 -0.2238 -0.3221 -0.1155
49309W        W49509  13.282   7.741  11.471  0.4203  0.0680 -0.1212
49310W        W49510   4.962   1.819   9.773  0.0407  0.1102  0.1228
49311W        W49511  13.820  14.158  12.298 -0.3621  0.2993 -0.0101
49312W        W49512   3.092  16.479  13.186 -0.0262  0.1045  0.1526
49313W        W49513  13.181   1.915  11.773  0.1211 -0.1666  0.1176
49314W        W49514  15.552  13.887   9.901  0.0079  0.2314  0.1795
49315W        W49515  18.130  12.209   8.737  0.2627  0.2439  0.1278
49316W        W49516   1.696   2.961   0.855  0.2410 -0.5165 -0.3182
49317W        W49517   3.820   9.091  15.763 -0.0768 -0.1327 -0.1167
49318W        W49518  12.971  14.829  16.089  0.1854 -0.3464 -0.0897
49319W        W49519   2.108   8.926  16.599 -0.0242 -0.1152 -0.0208
49320W        W49520   7.596   3.376  11.657  0.1654  0.1192 -0.2130
49321W        W49521  10.097  15.224  17.768 -0.0778 -0.1107 -0.0236
49322W        W49522  16.632   0.246  12.656  0.0975  0.1215 -0.1565
49323W        W49523  14.374  16.482  14.579 -0.3738  0.1295 -0.0717
49324W        W49524   2.149   4.087   0.277  0.0571 -0.0141 -0.1892
49325W        W49525   2.150   0.767  13.602 -0.0342 -0.1675 -0.2228
49326W        W49526  13.972   1.791  12.372  0.2450 -0.2880 -0.3270
49327W        W49527  14.639   9.715  10.923 -0.0299  0.0636 -0.1563
49328W        W49528  11.117  15.295  16.487  0.2883  0.3852  0.1138
49329W        W49529   1.380  11.227   3.421  0.0148  0.2504 -0.2909
49330W        W49530   2.131  16.404   5.547 -0.0200  0.0363  0.0014
49331W        W49531  11.988  14.242  15.296 -0.0800  0.0814 -0.1733
49332W        W49532  14.493  14.547  13.193  0.0059 -0.0476  0.1222
49333W        W49533   0.188  14.544   1.740  0.1208  0.1685 -0.0706
49334W        W49534   6.300   0.053  11.427 -0.0516  0.3053 -0.1027
49335W        W49535   9.134   0.827   8.319  0.1155  0.3202 -0.1988
49336W        W49536  17.075  15.086   9.814  0.0390 -0.2850 -0.2854
49337W        W49537  11.733   2.646   5.702  0.0232 -0.0025 -0.0992
49338W        W49538  15.265  15.314  17.734 -0.0453  0.0083  0.0770
49339W        W49539  14.756  17.767  10.399  0.1377 -0.1284  0.2004
49340W        W49540   3.063  15.371   1.812  0.0792  0.1085 -0.1558
49341W        W49541   1.051   3.456  12.605  0.2786 -0.1369  0.0674
49342W        W49542  11.062  15.797  12.767  0.0204 -0.1538 -0.2731
49343W        W49543  12.926  14.538  15.600  0.1105  0.0294 -0.1108
49344W        W49544  17.982   3.022  12.730  0.0394 -0.3139  0.0106
49345W        W49545  10.571   6.397   6.140  0.1175 -0.2112 -0.0580
49346W        W49546   4.239  16.235  15.666 -0.2261 -0.0616 -0.3249
49347W        W49547  13.132  13.188  12.337 -0.0507  0.3510  0.0638
49348W        W49548   4.502   6.813   3.449 -0.0461  0.2631 -0.1998
49349W        W49549  11.623   1.381   9.079 -0.1478  0.1116  0.1622
49350W        W49550  17.370   1.144  12.101  0.0390 -0.3243 -0.0619
49351W        W49551   9.479  15.658   9.873 -0.1598  0.0605  0.1951
49352W        W49552  13.450  11.354   1.259  0.3852  0.0496 -0.2588
49353W        W49553   3.360   5.146  14.747 -0.1797  0.1205  0.0966
49354W        W49554   1.092   5.267   7.576 -0.1489 -0.1669 -0.3701
49355W        W49555  14.822  15.994  16.535  0.0837 -0.0110  0.1163
49356W        W49556  17.472  10.538  15.680  0.0110 -0.2297  0.1101
49357W        W49557   6.772  15.609  13.712  0.2635 -0.1855  0.0105
49358W        W49558  16.306   9.155  10.660  0.3525 -0.0616 -0.1156
49359W        W49559  14.730  16.438  16.082  0.0624 -0.2954  0.1488
49360W        W49560  11.915   3.387  10.610 -0.0985 -0.0224 -0.0852
49361W        W49561   4.878  16.965  16.766 -0.1122  0.1316 -0.0495
49362W        W49562  16.411  15.228  14.862 -0.1610  0.2946 -0.1874
49363W        W49563  14.221   7.889   0.178  0.0171 -0.0400  0.1411
49364W        W49564   9.843  17.322  12.312  0.0245 -0.1106 -0.1480
49365W        W49565  12.102  11.641   7.078 -0.1605  0.0913 -0.3673
49366W        W49566  16.058   6.517  17.738  0.3123 -0.1169  0.0509
49367W        W49567  13.180   2.425   6.681  0.0066  0.0572  0.2558
49368W        W49568  14.172  17.987  16.309 -0.1579  0.0721  0.3638
49369W        W49569  13.499  10.217  11.969  0.1250  0.0080  0.4172
49370W        W49570   4.208  13.903  14.302  0.0733  0.3713  0.2781
49371W        W49571  10.048  12.642  13.686 -0.3101  0.0901  0.0889
49372W        W49572   1.730  12.074   4.799 -0.1007 -0.2712 -0.1796
49373W        W49573   9.992  10.446  13.742 -0.1159 -0.0193 -0.1144
49374W        W49574   5.724  11.061   4.524  0.0899 -0.0096 -0.2121
49375W        W49575  13.342  13.396   8.596 -0.0809 -0.0786  0.0638
49376W        W49576   0.007   9.212  10.263 -0.1926  0.1523  0.1442
49377W        W49577   5.382  10.290  10.688  0.0176  0.0004 -0.2895
49378W        W49578  11.994   0.966  13.514  0.0512  0.2593 -0.1089
49379W        W49579   1.573  17.182  10.868  0.0099 -0.1489 -0.1847
49380W        W49580   4.884   2.472  15.613 -0.3215  0.2222  0.0043
49381W        W49581   9.137   2.573  12.868  0.1123 -0.0152  0.1254
49382W        W49582   9.728   3.462   7.562 -0.0612  0.0028 -0.1636
49383W        W49583  10.653  14.679  11.279  0.0929 -0.0430 -0.0696
49384W        W49584   9.423  16.119  14.228 -0.0640 -0.0730  0.1943
49385W        W49585  16.299   4.485  14.106 -0.2405  0.0763 -0.2911
49386W        W49586   3.716   8.060  10.816 -0.3261  0.0720  0.1885
49387W        W49587  12.701  16.244  10.677 -0.2445  0.2357  0.2283
49388W        W49588   2.689   1.740   1.786  0.3794 -0.1048  0.4120
49389W        W49589   8.663  15.298  14.960 -0.2318 -0.0772  0.1259
49390W        W49590  15.356  11.519   5.338 -0.0037 -0.2540  0.4862
49391W        W49591  16.403  13.409   7.277  0.2154 -0.1467 -0.1007
49392W        W49592   4.922   1.149  14.899  0.0227 -0.2306  0.1767
49393W        W49593  17.468  15.227   8.864 -0.4884  0.1620 -0.0718
49394W        W49594  13.592   4.447   6.329 -0.0606 -0.0486  0.0937
49395W        W49595   6.241  13.738  12.023  0.2902  0.1758  0.1047
49396W        W49596   9.456  10.592  15.162 -0.2871  0.1409 -0.2542
49397W        W49597  16.074   1.845  17.797 -0.1004 -0.0934  0.0458
49398W        W49598  15.470  12.499  10.365 -0.0791 -0.1886 -0.5483
49399W        W49599  13.701  14.902  16.723 -0.5074 -0.0528 -0.1989
49400W        W49600  13.415   0.843  15.187  0.1282 -0.1694  0.2253
49401W        W49601  17.597  15.947   5.315 -0.0789 -0.0454 -0.0566
49402W        W49602   9.047   2.893   4.373  0.2670 -0.2193 -0.0815
49403W        W49603  15.312  17.712  15.494 -0.0301 -0.1644 -0.3222
49404W        W49604  12.786  17.787   8.179 -0.3000  0.0043  0.0227
49405W        W49605  17.395  15.246  16.300 -0.0836 -0.0351 -0.0515
49406W        W49606  16.172  16.650   7.093  0.0274  0.0978 -0.1763
49407W        W49607  13.230  15.500   5.331  0.0220 -0.3857  0.0245
49408W        W49608   6.140   3.466  16.439 -0.0608 -0.0027  0.0506
49409W        W49609  11.271  17.126  12.297  0.1131  0.0474  0.1435
49410W        W49610  15.340  12.472   6.468 -0.2510  0.2576 -0.2421
49411W        W49611   8.662  12.120   9.781 -0.1123  0.1027 -0.0785
49412W        W49612   8.049  11.635   0.403  0.2092 -0.1123 -0.2347
49413W        W49613  17.517   1.810   4.061  0.1980 -0.0683  0.1007
49414W        W49614  17.853   1.327   8.189 -0.3580  0.1882 -0.1566
49415W        W49615   0.521  17.240   6.516 -0.1459 -0.2552  0.0700
49416W        W49616  16.891  15.413   8.494 -0.1404  0.0073  0.1035
49417W        W49617  15.311   3.273   0.779 -0.0437  0.2309 -0.2446
49418W        W49618   1.073  11.911  12.148  0.1159  0.1396  0.0589
49419W        W49619   7.158  11.915  15.782  0.1180  0.2349  0.0466
49420W        W49620   9.964   9.237  16.791  0.1264  0.2457  0.0163
49421W        W49621   6.530   1.135  12.372  0.1229  0.2210 -0.2107
49422W        W49622   4.690  12.687  11.370  0.1526  0.2352 -0.0204
49423W        W49623  10.908   2.541   5.701 -0.2251  0.0379 -0.1249
49424W        W49624   0.206   0.749  12.744 -0.0229 -0.1986 -0.2011
49425W        W49625   0.785   1.770   8.976  0.0077  0.0323 -0.1810
49426W        W49626   1.775  16.623  17.642  0.0321 -0.0493 -0.1705
49427W        W49627  16.381  10.470  10.579 -0.1822  0.0468 -0.4761
49428W        W49628   5.913  15.069  17.091 -0.0120 -0.0748 -0.0909
49429W        W49629  15.549  12.462  13.064  0.2148 -0.3296  0.3574
49430W        W49630   8.224   5.485  12.681 -0.2569 -0.1876  0.1083
49431W        W49631  16.141   5.425  15.850 -0.1107 -0.0822  0.1528
49432W        W49632   4.391  10.787   0.460  0.2033  0.2114  0.0687
49433W        W49633   0.487  15.281  12.083 -0.2555  0.2582  0.1792
49434W        W49634   4.566   8.750   7.920  0.0457  0.1428  0.4463
49435W        W49635  10.691  16.416   7.209 -0.0604  0.3938  0.0575
49436W        W49636   4.106   6.393   8.136 -0.0292 -0.0837 -0.1468
49437W        W49637  12.944  12.879  17.354  0.1568 -0.0340  0.0076
49438W        W49638  14.355  14.592  15.481 -0.0934  0.3094 -0.0054
49439W        W49639   1.401   5.451   9.046 -0.1413  0.0352 -0.0177
49440W        W49640   0.818   1.438  12.780 -0.1943 -0.1373  0.2521
49441W        W49641   0.211   5.465   8.394  0.0414  0.1425  0.1802
49442W        W49642  11.829  12.028  11.401 -0.4013 -0.0035  0.1315
49443W        W49643  17.097   5.524  10.170 -0.0422  0.0810  0.1647
49444W        W49644  15.097   4.900  12.968 -0.0006 -0.0940  0.0316
49445W        W49645  13.306  10.965  12.183 -0.0700 -0.1992  0.1577
49446W        W49646   9.396  16.435  11.059 -0.3426 -0.0692 -0.1475
49447W        W49647   1.363  11.344   8.751 -0.1406  0.2320 -0.3389
49448W        W49648  12.574   8.673   7.401 -0.2885 -0.2623  0.3586
49449W        W49649  10.466  14.621   3.378  0.0800 -0.3647 -0.1455
49450W        W49650  17.212   3.778   2.744  0.0137 -0.2290 -0.0482
49451W        W49651  13.559  15.685  12.905 -0.0283  0.0281  0.2336
49452W        W49652   1.032   1.031   1.998 -0.2088 -0.1115 -0.0028
49453W        W49653  10.813   8.068   0.584  0.0890 -0.1985 -0.0621
49454W        W49654  17.762  13.601  13.937  0.0040 -0.0486 -0.0439
49455W        W49655  16.594   9.043   8.394  0.0300 -0.1474  0.2456
49456W        W49656   2.670  14.745   8.325  0.0323  0.0993 -0.0354
49457W        W49657   9.705  17.123  12.732 -0.3532 -0.0823 -0.2031
49458W        W49658   0.225   0.200  12.489 -0.0131 -0.3463 -0.0671
49459W        W49659  18.084  12.264  12.067 -0.2241 -0.0046 -0.0781
49460W        W49660  14.376   9.195   3.099  0.1093 -0.0038 -0.0017
49461W        W49661  15.986  14.640  17.462 -0.1754 -0.2072 -0.2625
49462W        W49662  17.153  12.715  11.919  0.0660  0.0031 -0.1177
49463W        W49663  15.755  11.542   1.474  0.0347 -0.0517  0.3043
49464W        W49664   5.301  16.236  12.046  0.1447  0.4195 -0.1324
49465W        W49665   7.248  14.122   7.787 -0.1719  0.2103 -0.1364
49466W        W49666   4.309  16.172  12.605  0.2333 -0.1392 -0.1010
49467W        W49667  14.077  13.931  11.417  0.1670  0.0259  0.0642
49468W        W49668  13.866  15.175  12.471  0.5870 -0.1008 -0.0124
49469W        W49669   2.611  15.660   6.006 -0.2407 -0.2047 -0.3240
49470W        W49670   2.256  10.212  13.700 -0.1123 -0.1114  0.1764
49471W        W49671  15.149   1.272   8.476  0.1541 -0.0431  0.1650
49472W        W49672  13.726  16.453   9.596 -0.2333  0.0289 -0.0312
49473W        W49673  13.655   2.151  11.187 -0.2357  0.0363  0.0111
49474W        W49674  12.684   9.074  10.825 -0.1166  0.1797  0.0159
49475W        W49675  17.903  18.003  13.304 -0.2635 -0.2909  0.0511
49476W        W49676   7.492  12.078   9.476 -0.0257 -0.3268 -0.1293
49477W        W49677   1.668   0.323  11.320 -0.1260 -0.0964  0.2135
49478W        W49678  12.734   8.373  17.818  0.0590  0.0279  0.1053
49479W        W49679   1.532  13.979   5.901  0.0781 -0.3561  0.3484
49480W        W49680  16.417  13.250  10.094  0.1165  0.0493 -0.0821
49481W        W49681   4.379  10.024   6.805  0.3201 -0.0274  0.1346
49482W        W49682  12.532  14.166   9.172 -0.1209 -0.0987  0.2975
49483W        W49683   4.894  17.705  13.075 -0.0530 -0.3948 -0.0667
49484W        W49684   4.996  17.760  13.576  0.0692  0.0394  0.1326
49485W        W49685  13.996  16.660  11.733 -0.1690 -0.2119 -0.2117
49486W        W49686   9.371  15.589  12.420 -0.2312  0.1130 -0.0838
49487W        W49687  18.009   1.742   8.982  0.0368 -0.1160  0.2264
49488W        W49688  10.003   8.015  11.434  0.0881  0.0327  0.3008
49489W        W49689   3.781  15.975  12.424  0.1431  0.1439 -0.1132
49490W        W49690  13.756  17.449   9.820 -0.1049 -0.2604 -0.2672
49491W        W49691   5.684   2.824   8.243  0.2024  0.0390 -0.2594
49492W        W49692   9.748   7.843  10.363  0.1771  0.1615 -0.1251
49493W        W49693   1.795  12.077  11.310  0.1607  0.2096  0.2339
49494W        W49694  16.214  10.533  12.556  0.4657  0.0629 -0.2417
49495W        W49695   8.675  16.201  12.585 -0.1791 -0.0113  0.1059
49496W        W49696   9.024   3.512  16.921 -0.1042 -0.3365 -0.0781
49497W        W49697   9.564   0.958  15.808  0.0950  0.1966  0.1512
49498W        W49698  14.013   2.020  16.798 -0.1309 -0.2947 -0.1018
49499W        W49699  15.395   7.625   7.332 -0.0248 -0.1058  0.1419
49500W        W49700  15.074   4.606  16.873  0.0679  0.0347 -0.0871
49501W        W49701   5.067  17.200  10.703  0.2057  0.6449 -0.1122
49502W        W49702   0.498  14.586  10.422  0.0618  0.1370  0.0684
49503W        W49703  16.328  17.598   5.122 -0.2028  0.1397  0.1190
49504W        W49704   9.448  10.517  11.555  0.0711  0.0472  0.0534
49505W        W49705   1.047  11.465   6.543 -0.1617 -0.1689 -0.0703
49506W        W49706   7.928  16.711   6.463 -0.3372  0.2565  0.0581
49507W        W49707   7.882  12.988  15.800  0.2070 -0.1510  0.1267
49508W        W49708   0.142  12.942  15.829 -0.0966  0.0208  0.0987
49509W        W49709   1.998  16.299  11.067 -0.3549  0.0409 -0.0777
49510W        W49710   2.290  10.415  14.689  0.0612 -0.0485  0.2697
49511W        W49711  12.002   2.431  12.515 -0.0111  0.4213  0.0145
49512W        W49712  14.848   4.748  16.371 -0.1954 -0.4009 -0.1609
49513W        W49713  17.092   2.075  13.848 -0.0207 -0.1763  0.0543
49514W        W49714   0.726   8.098   4.406 -0.3580  0.2497 -0.0960
49515W        W49715  17.953  15.552   8.673  0.0435  0.1533 -0.1725
49516W        W49716  13.882  11.267   8.557  0.0963 -0.1600 -0.0132
49517W        W49717  12.842   7.476   5.977  0.5234  0.1686  0.1185
49518W        W49718  13.945   4.308  11.160 -0.1005 -0.2107 -0.0393
49519W        W49719  17.236   5.561  11.155  0.1397  0.0740  0.0004
49520W        W49720   2.507   7.642  15.164 -0.1131  0.2854  0.1668
49521W        W49721  14.276   9.714   0.294  0.0108 -0.3002 -0.0849
49522W        W49722   0.171  15.622   9.291 -0.2256  0.0584 -0.2047
49523W        W49723  15.984   0.478   0.633  0.1174  0.2040 -0.1040
49524W        W49724   7.322   0.036   5.490  0.0182  0.0237  0.2139
49525W        W49725  15.294  17.234   1.595  0.3201 -0.0836  0.2181
49526W        W49726  15.618  15.674  12.186 -0.3256  0.4022  0.1547
49527W        W49727   2.457  15.418   8.750  0.0881 -0.1397 -0.0566
49528W        W49728  17.706  11.523  16.581 -0.1537 -0.5165  0.1150
49529W        W49729   2.148   7.248   6.920 -0.2498  0.0906 -0.0514
49530W        W49730  16.660   5.585  14.027 -0.0869  0.0285  0.1250
49531W        W49731  15.269  13.070   0.252  0.3407  0.0102 -0.1125
49532W        W49732   3.668   5.941  13.573 -0.0722 -0.1342 -0.1423
49533W        W49733   4.614  12.265  14.681 -0.0246 -0.1388 -0.3163
49534W        W49734  11.792  10.338  14.381 -0.0119 -0.1536 -0.3941
49535W        W49735  17.498   5.123  16.353 -0.2977  0.0884  0.1069
49536W        W49736  13.532  17.388  10.825 -0.0032 -0.2743 -0.2197
49537W        W49737   5.782  15.310   7.802  0.0562 -0.0329 -0.3722
49538W        W49738  16.855  17.891  13.738 -0.1541  0.0866 -0.1047
49539W        W49739   0.145  15.652  13.728  0.1387  0.0785 -0.0861
49540W        W49740   7.499   2.800   0.673 -0.1869 -0.2923  0.0386
49541W        W49741   1.148   0.520   8.749  0.0103  0.2358  0.1791
49542W        W49742   4.579  18.027  11.104  0.2273  0.3463 -0.2357
49543W        W49743  16.520   0.036  14.525  0.0017  0.0196 -0.2131
49544W        W49744   2.440   1.959   4.178  0.1196 -0.2747  0.2392
49545W        W49745   5.833   7.746   9.206 -0.0270  0.0007  0.4136
49546W        W49746  13.347  12.035   8.933 -0.1706 -0.0548  0.0017
49547W        W49747   7.597  17.393   4.327 -0.1902 -0.1438  0.0075
49548W        W49748  17.372  15.554   8.415 -0.1068  0.1778  0.0739
49549W        W49749  16.297  14.120  15.044 -0.1912  0.0788 -0.2002
49550W        W49750   0.116  10.017  10.896  0.1556  0.1261  0.1762
49551W        W49751   2.461  15.424  17.388  0.1507  0.0858 -0.1393
49552W        W49752  16.284  16.561   8.074  0.2421 -0.0995 -0.0895
49553W        W49753  10.383  11.351  14.025 -0.2961 -0.1021  0.2731
49554W        W49754  15.345  13.922  10.390  0.0042  0.0165  0.5703
49555W        W49755  17.377  17.354  14.771  0.0747  0.3410 -0.2693
49556W        W49756  14.843   1.296  13.272  0.0180  0.0079  0.0338
49557W        W49757  15.773  15.695   7.538 -0.0374 -0.0979 -0.3363
49558W        W49758  15.854  17.423  14.740  0.0676  0.1954 -0.1019
49559W        W49759  13.724   0.713  16.565 -0.1472  0.2522 -0.2234
49560W        W49760   3.432   7.933  11.254  0.0056 -0.2090  0.0881
49561W        W49761  16.393   3.873   7.114  0.0772  0.0135  0.2326
49562W        W49762  14.961  14.176   1.449  0.0147  0.1738 -0.1588
49563W        W49763   3.073  16.749   7.565  0.0152  0.0780  0.0368
49564W        W49764  13.722   3.519   8.878 -0.4081 -0.0082  0.3118
49565W        W49765  17.371   0.551   8.635 -0.0740  0.0432 -0.3921
49566W        W49766  17.383  14.601   8.540 -0.1007  0.0803 -0.2312
49567W        W49767  16.043  15.980  13.735 -0.1288  0.1942  0.0493
49568W        W49768   2.480  18.071   0.455 -0.2312  0.1461  0.1027
49569W        W49769   4.642  12.980  11.784 -0.1707  0.1639  0.0531
49570W        W49770  17.442   0.109   8.981 -0.0253 -0.0121  0.2233
49571W        W49771   2.705  15.154  10.451 -0.4329  0.0483  0.0426
49572W        W49772  11.581  15.516  14.884  0.0295  0.0886  0.0126
49573W        W49773  16.153  15.038   3.206  0.0758  0.1089  0.1151
49574W        W49774   5.860   0.418  11.406 -0.1260 -0.2896  0.0129
49575W        W49775  11.699  16.736  15.220 -0.0470 -0.0010  0.0135
49576W        W49776  17.836  17.179   5.943 -0.0514  0.0408  0.2713
49577W        W49777   4.780  17.152  11.360 -0.0466 -0.1456 -0.1050
49578W        W49778   1.871  16.921  11.849 -0.0879 -0.2130 -0.1479
49579W        W49779   5.744  15.200   3.139  0.0274  0.0587  0.0861
49580W        W49780   9.730   3.170   4.489 -0.1150  0.1656 -0.1507
49581W        W49781   4.689  13.534   1.358 -0.1715  0.0779 -0.1555
49582W        W49782   4.074  11.052  14.241 -0.0106  0.1164  0.0883
49583W        W49783   1.347   0.947  16.266  0.0492  0.0101 -0.2254
49584W        W49784  14.954  14.066   1.922  0.0568  0.3532  0.2046
49585W        W49785   1.878  15.618  16.611 -0.0259  0.0119  0.0671
49586W        W49786   0.203  18.162   0.036 -0.0751 -0.0565  0.1935
49587W        W49787   1.932  16.444  14.892 -0.0257  0.1509  0.2411
49588W        W49788  11.924  14.625  15.635  0.1348 -0.2946  0.0596
49589W        W49789  17.743  13.345  16.638  0.1759  0.2466  0.4317
49590W        W49790  18.036  10.233  16.496 -0.0467 -0.0003  0.3552
49591W        W49791  13.313   9.253   0.661  0.1206 -0.2298  0.0225
49592W        W49792   6.699  10.223   6.429 -0.0635  0.0489 -0.2244
49593W        W49793   1.492   0.035   1.703  0.1279 -0.2330 -0.0562
49594W        W49794   6.642  14.436   5.981  0.3169  0.4698  0.0261
49595W        W49795   1.808  17.125   5.619  0.1449 -0.2267  0.2461
49596W        W49796  13.464  10.782  17.599 -0.3831 -0.0270 -0.0858
49597W        W49797   4.956  17.863   9.514 -0.0361  0.0893 -0.0138
49598W        W49798   7.474   2.208   7.474  0.0550 -0.0982 -0.2691
49599W        W49799  15.396   4.313   2.830 -0.0251 -0.1566 -0.1679
49600W        W49800  11.891  15.879  17.071 -0.0341  0.2966  0.0593
49601W        W49801  14.631  15.860  13.959  0.1989  0.1071  0.1805
49602W        W49802  12.650  13.720  13.668 -0.1974  0.2556 -0.2800
49603W        W49803  11.969   9.689  15.592  0.3412  0.2016  0.1361
49604W        W49804   7.114  17.177  12.724  0.0691 -0.1099  0.0635
49605W        W49805  14.820  14.639   9.726  0.2648  0.0225  0.1439
49606W        W49806  11.787  11.361   9.970 -0.0024 -0.0599 -0.1179
49607W        W49807  14.648   9.731  14.277 -0.0693 -0.0271  0.3807
49608W        W49808  12.211  12.200  15.246 -0.1368  0.1572  0.0560
49609W        W49809   2.364   2.691  14.326 -0.0235 -0.0585  0.0131
49610W        W49810  15.095  12.572  12.615 -0.0232  0.0611 -0.1361
49611W        W49811   3.087  17.192   5.223 -0.1152  0.0132 -0.1927
49612W        W49812   5.881  17.804   1.059  0.2102  0.0758  0.2341
49613W        W49813  16.166   5.955  17.230  0.1381  0.0451 -0.0844
49614W        W49814   8.246   9.851  15.268  0.0208 -0.1617 -0.1646
49615W        W49815  16.001  15.537  13.414 -0.0103  0.0682  0.0919
49616W        W49816   1.191  16.419  18.133 -0.0524  0.3924 -0.0359
49617W        W49817  15.324   2.215   2.357 -0.3974 -0.0235 -0.0217
49618W        W49818   3.986  13.865  12.261  0.0105  0.1191  0.4370
49619W        W49819  17.200  15.007   1.463  0.2431 -0.1170  0.1227
49620W        W49820   0.421   1.244  15.433 -0.0570  0.2429 -0.1480
49621W        W49821  18.200  13.447   6.973 -0.0619  0.2841 -0.2469
49622W        W49822   7.119  15.801  14.094  0.0641  0.2581 -0.1992
49623W        W49823   1.929   2.475   3.931 -0.0050  0.1177  0.2590
49624W        W49824  15.311  10.020  13.417 -0.1362  0.1000  0.1951
49625W        W49825   0.331  10.840   0.756 -0.1654  0.4841 -0.0639
49626W        W49826  13.378  14.074   2.481 -0.0925  0.2749  0.1615
49627W        W49827   9.906  17.648  10.797  0.2192  0.0332 -0.1183
49628W        W49828   0.195  17.831  17.308  0.0202 -0.1734 -0.1814
49629W        W49829   2.085  12.765   6.431  0.3429 -0.0849 -0.0439
49630W        W49830   4.622  17.653   5.636  0.1964 -0.0153  0.3028
49631W        W49831  10.249  14.273  14.292 -0.0544  0.0044 -0.1155
49632W        W49832  15.221   6.803  11.932 -0.0172 -0.0538  0.1280
49633W        W49833   7.448   2.413   2.149  0.3539 -0.0464 -0.1499
49634W        W49834  11.995   3.771   0.227  0.1434  0.1613  0.1869
49635W        W49835  15.825   2.685  17.207 -0.0698 -0.0753  0.0927
49636W        W49836  12.467   3.898  10.008 -0.2155 -0.0334 -0.0952
49637W        W49837  16.828  13.736  16.430 -0.2013  0.1615  0.2239
49638W        W49838   3.768  16.506  15.810 -0.1798  0.0535 -0.2130
49639W        W49839  11.010   1.229  13.283 -0.0290 -0.0587  0.0340
49640W        W49840   1.831  16.192  11.610 -0.0175  0.1476 -0.2188
49641W        W49841  16.631  16.660  10.957  0.0392 -0.1699 -0.2523
49642W        W49842  15.219   7.978  15.716 -0.1628 -0.1319 -0.1617
49643W        W49843   3.206  16.580  14.101  0.2394 -0.2362  0.1487
49644W        W49844  15.012  15.313   1.393 -0.0665  0.1721  0.1154
49645W        W49845   8.640  10.252  10.993  0.0890  0.0338  0.0857
49646W        W49846   8.874  13.359   4.661 -0.1214 -0.0555 -0.0192
49647W        W49847   2.043   2.555   7.820 -0.1197 -0.0548 -0.0318
49648W        W49848  17.945  15.554   0.665 -0.1074 -0.1433 -0.0406
49649W        W49849  14.055  16.381  15.516  0.3153  0.2222  0.2737
49650W        W49850   8.633   4.836  13.354 -0.0113  0.0257 -0.1149
49651W        W49851  14.292  15.149  17.636 -0.3564  0.3520  0.1373
49652W        W49852  15.237   1.937  13.685  0.0223 -0.1751 -0.0388
49653W        W49853  10.580   0.956  10.490  0.2662  0.2458  0.1613
49654W        W49854  13.472  17.668   6.997 -0.1390  0.0871 -0.2162
49655W        W49855  11.318   1.595   5.100  0.0576  0.1486  0.0435
49656W        W49856   9.992   3.940  11.199 -0.1708  0.1706 -0.0450
49657W        W49857   0.438  18.155   1.381 -0.2697 -0.1290 -0.0609
49658W        W49858  12.297  14.420  17.983  0.2899  0.0041 -0.2051
49659W        W49859  15.815   1.402  14.258  0.0340  0.3232 -0.2227
49660W        W49860   8.477  15.239  10.577  0.1646 -0.2355  0.2764
49661W        W49861   2.704   0.318  12.758  0.1679 -0.0961 -0.0281
49662W        W49862  13.383  12.695   1.227 -0.0357 -0.1441 -0.0603
49663W        W49863  13.747  10.873  10.800 -0.4127 -0.0457  0.0878
49664W        W49864  17.518  12.926  17.201 -0.1073  0.0022 -0.2632
49665W        W49865  11.555  15.493  16.665  0.0711 -0.2703 -0.0235
49666W        W49866   0.755   5.023   1.912 -0.0572 -0.1135  0.2146
49667W        W49867  17.480   8.328  14.268  0.0966 -0.2963  0.1351
49668W        W49868  17.082  14.922  12.248  0.1016 -0.0246 -0.2931
49669W        W49869   3.612  16.672   2.129 -0.0308  0.0681 -0.0323
49670W        W49870   0.628  11.652  12.745 -0.1210 -0.2401  0.3175
49671W        W49871  11.404  12.653   7.379  0.0956 -0.4708 -0.1094
49672W        W49872  13.630   4.964   4.272  0.0638 -0.0101 -0.1424
49673W        W49873   1.570  15.743  13.332 -0.0126 -0.0719  0.2017
49674W        W49874   1.437  17.569   2.464 -0.0219 -0.0351 -0.1496
49675W        W49875  12.495  17.058   7.713 -0.3079  0.0061 -0.1461
49676W        W49876  12.645  11.592   4.874 -0.0472  0.1137 -0.1139
49677W        W49877  16.871  12.410  16.080  0.4266 -0.1409  0.1042
49678W        W49878  17.290  15.505  17.747  0.0252  0.1205  0.2478
49679W        W49879  13.536  18.184  17.252 -0.4641 -0.0813  0.1188
49680W        W49880   6.325  13.156   5.564 -0.2623 -0.1402  0.2579
49681W        W49881   6.454  15.539  12.378  0.3450 -0.0926  0.0657
49682W        W49882  17.167  14.407  12.160 -0.0191 -0.0105  0.1697
49683W        W49883  15.496  14.068  14.806 -0.0373 -0.0513 -0.1568
49684W        W49884   6.948  17.789  11.070 -0.1875 -0.0177 -0.1405
49685W        W49885  14.163   2.336  16.173  0.2577 -0.1776  0.1096
49686W        W49886   1.175  15.472   3.098  0.0305  0.1686  0.1525
49687W        W49887   1.383  14.927   4.028  0.2302 -0.0157  0.0560
49688W        W49888  14.237   3.155   0.004 -0.1114 -0.0500  0.3815
49689W        W49889   9.249  14.007  16.724  0.1280  0.1371  0.3020
49690W        W49890  15.384  11.576  11.525 -0.1118  0.1869 -0.0863
49691W        W49891   3.415  15.037  14.826 -0.2669  0.0015  0.0004
49692W        W49892  17.262  18.043  15.605  0.0046  0.4781 -0.0929
49693W        W49893  16.349  14.163   1.303  0.0477  0.2682 -0.2179
49694W        W49894  12.130  13.696   0.274 -0.0209 -0.0955  0.1725
49695W        W49895   0.425   0.669   4.822 -0.0498 -0.0247  0.0929
49696W        W49896  13.045   8.498   9.904  0.0708  0.2564  0.1616
49697W        W49897  16.807   2.448  13.541 -0.1228 -0.0994 -0.2101
49698W        W49898  15.328   4.068  15.685  0.1842 -0.1630 -0.0453
49699W        W49899  12.044  17.527  11.214  0.2117 -0.1326 -0.0478
49700W        W49900  15.038  14.853   0.412  0.1037  0.2954  0.5011
49701W        W49901  11.571  10.947   2.961 -0.1366  0.0228 -0.0039
49702W        W49902   3.327  15.212   0.867 -0.1822  0.0753  0.0088
49703W        W49903  12.096  16.651  11.142  0.1022 -0.2603  0.0044
49704W        W49904  10.386   7.448  17.603 -0.3571  0.1995 -0.1735
49705W        W49905  18.124  16.472  17.167  0.0482 -0.0447  0.0644
49706W        W49906  16.061  12.969   9.903 -0.3702 -0.0570 -0.0731
49707W        W49907  15.181  17.872  13.473 -0.2207  0.1025 -0.1452
49708W        W49908   4.050  13.745  17.197  0.0713  0.0997 -0.1952
49709W        W49909  13.838  11.263   2.422  0.1024  0.0806 -0.1299
49710W        W49910   0.093   3.238  16.958  0.0716  0.2366  0.0023
49711W        W49911  17.142  15.078  18.189 -0.0003  0.1897  0.2539
49712W        W49912   7.033  14.432  14.103  0.0045 -0.0356 -0.3940
49713W        W49913  15.255  11.198  10.721 -0.2586 -0.1450 -0.0683
49714W        W49914   7.547   6.928   0.278 -0.2193 -0.2221  0.0799
49715W        W49915  17.018   0.587  16.674  0.1378 -0.1326  0.1308
49716W        W49916  13.732   1.706  17.526 -0.0986  0.0376  0.2489
49717W        W49917  13.613   6.564   4.811 -0.1166  0.3357  0.1666
49718W        W49918  13.312  14.117  17.296  0.2335 -0.3843 -0.0957
49719W        W49919  11.891  15.569  16.125  0.1148  0.0121  0.2299
49720W        W49920  15.719  15.782  15.494  0.0784  0.1556 -0.0187
49721W        W49921   1.647   2.295  14.236  0.3266 -0.1064  0.1049
49722W        W49922  10.899   1.922  16.692  0.2258  0.2884 -0.1382
49723W        W49923   1.956  15.532  14.243  0.1686  0.0858 -0.1556
49724W        W49924   1.908   9.651  12.265 -0.0955  0.2132  0.1923
49725W        W49925   8.088   0.171  10.219 -0.4367  0.1805  0.3331
49726W        W49926  11.507  10.263  13.317  0.0198 -0.2218  0.0698
49727W        W49927   7.700   3.300   5.308  0.2277  0.1040 -0.1089
49728W        W49928   0.728   2.199   2.740  0.3937 -0.0291 -0.1002
49729W        W49929   0.239  17.935   4.904  0.1082  0.3319 -0.1388
49730W        W49930   3.162   2.614   0.323  0.3167 -0.3022 -0.1300
49731W        W49931   1.003  15.235   0.772  0.1521 -0.0004 -0.2750
49732W        W49932  10.918   3.385   2.192  0.0719  0.3182 -0.1105
49733W        W49933   2.870   8.875   1.391 -0.1780 -0.1055 -0.1581
49734W        W49934   6.438   3.923   9.039 -0.2673  0.0815 -0.1940
49735W        W49935   1.771   3.629   6.048 -0.1379  0.0504 -0.1079
49736W        W49936   7.658   1.786  13.666  0.1415 -0.1657 -0.1746
49737W        W49937  15.967   2.475   3.028 -0.0780 -0.1721  0.2334
49738W        W49938  14.918  12.576   2.756 -0.0624 -0.4310  0.1091
49739W        W49939  16.143  12.438   0.071 -0.1213 -0.0155  0.1872
49740W        W49940   3.455  17.502  11.772 -0.0294  0.2552  0.0286
49741W        W49941   2.990   3.699   8.102 -0.1966  0.0122  0.3325
49742W        W49942   9.923  15.344   6.310 -0.2653  0.0597  0.1026
49743W        W49943  14.872   6.633  13.160  0.3449 -0.1335 -0.1394
49744W        W49944  11.561  14.553  13.076 -0.2581 -0.1295  0.2329
49745W        W49945   2.363   8.355  16.955  0.0829  0.3388  0.3654
49746W        W49946  13.365   1.693   3.306 -0.3221  0.0592  0.0523
49747W        W49947  13.917   1.287  13.065  0.0666  0.1940  0.0020
49748W        W49948  16.342   1.663  11.065 -0.0782  0.1288  0.0679
49749W        W49949  15.206   3.333   2.459 -0.1767  0.0864 -0.3200
49750W        W49950  14.986   6.423   4.375  0.2423  0.1758 -0.0938
49751W        W49951  13.611  14.207  16.170 -0.2391 -0.4122 -0.2727
49752W        W49952   0.844  10.630  17.281  0.0057  0.0771  0.0494
49753W        W49953   1.578  11.797  17.690  0.1983 -0.1034 -0.1300
49754W        W49954  16.477  17.612  17.444  0.2015  0.3324  0.1289
49755W        W49955  14.292  16.709   0.667 -0.0050 -0.4714 -0.1319
49756W        W49956   8.666  14.323   6.657  0.0974 -0.1191  0.0351
49757W        W49957   3.940  14.078   7.858  0.1987 -0.0553 -0.1252
49758W        W49958   6.176   0.533  11.775 -0.4828 -0.0550 -0.0365
49759W        W49959   3.508  14.845   4.948  0.4180  0.2743  0.1071
49760W        W49960   0.366  12.987   2.618  0.1641 -0.0247 -0.0541
49761W        W49961   2.309  13.708  17.278  0.1945  0.1354 -0.2187
49762W        W49962  16.115  18.195   7.204 -0.0134  0.1782 -0.0714
49763W        W49963   4.494  12.276  17.336 -0.1485 -0.0753  0.0927
49764W        W49964  14.709  10.300   8.241 -0.1923 -0.2691  0.2055
49765W        W49965  17.771   2.934  13.958 -0.0466 -0.1698  0.2957
49766W        W49966  15.427  14.638  11.445  0.2034 -0.2542 -0.1462
49767W        W49967  16.939  18.140  14.216 -0.1525 -0.1178 -0.1688
49768W        W49968   5.991   1.704   8.094 -0.2114  0.1895 -0.0311
49769W        W49969  18.082  17.670   0.149 -0.1225  0.3225 -0.0822
49770W        W49970  15.520  14.529   6.560  0.0962 -0.1883 -0.2227
49771W        W49971   7.652   0.325  16.348  0.0005  0.0983 -0.0823
49772W        W49972   3.962  15.937  13.358  0.2922  0.3317  0.0117
49773W        W49973  11.143  12.366  18.109  0.0112  0.0866  0.1682
49774W        W49974  12.923   2.654   0.520  0.1168  0.0856 -0.0757
49775W        W49975   5.890  13.357   6.267  0.2137 -0.1498 -0.2252
49776W        W49976  11.083   4.738  17.706  0.2262 -0.0204 -0.0642
49777W        W49977  16.106   8.017   0.134  0.3911 -0.0314  0.0283
49778W        W49978   3.690  16.254  10.386  0.0305  0.1120 -0.2320
49779W        W49979  18.106  11.729   9.444  0.1029  0.2002 -0.0956
49780W        W49980   0.182   2.188  17.189 -0.0784 -0.2563 -0.0267
49781W        W49981  12.252  15.405   2.471 -0.0507 -0.0976 -0.0214
49782W        W49982   6.775   4.063  12.383  0.3937  0.2180 -0.0826
49783W        W49983  16.645  14.924  17.294  0.1919  0.0785 -0.0163
49784W        W49984   1.478  16.367   4.438 -0.0407 -0.2096 -0.1227
49785W        W49985   2.489  15.287  17.868 -0.3525 -0.3621  0.2345
49786W        W49986  17.296  12.696   1.261 -0.0167 -0.1654  0.2466
49787W        W49987  10.443   1.980  16.041  0.2864  0.1642  0.1651
49788W        W49988  18.062   2.523   3.077 -0.1630 -0.3816 -0.1127
49789W        W49989  16.257  14.407  10.306  0.0556  0.2230  0.1083
49790W        W49990  13.326   0.603  17.084 -0.2992 -0.0708  0.3672
49791W        W49991   1.371   7.575  13.815 -0.0848 -0.0939  0.0881
49792W        W49992   1.722   1.522   0.272  0.2134  0.2935  0.0206
49793W        W49993  17.803   2.583  16.401  0.3001 -0.0737  0.0423
49794W        W49994  14.117  15.865  15.524  0.0555  0.0358 -0.0287
49795W        W49995  16.934   1.395  17.885  0.0678  0.0957  0.1098
49796W        W49996   6.827   8.024   4.204 -0.0608  0.3103  0.0903
49797W        W49997  16.632   3.974   6.666  0.1681 -0.1047  0.2460
49798W        W49998  14.371  15.371   4.934  0.1406 -0.0099  0.1622
49799W        W49999  14.623   2.532   1.004  0.0641  0.0172  0.0844
49800W        W50000   5.284  14.607   5.967  0.2992  0.0006 -0.1413
49801W        W50001  15.953  11.816   2.334  0.1298 -0.0186  0.0315
49802W        W50002  15.866   9.184  11.571  0.1124 -0.4135  0.0655
49803W        W50003   5.686  12.919   5.587  0.1863  0.0954 -0.0211
49804W        W50004  10.979  18.158   4.758  0.2586  0.2922  0.1501
49805W        W50005  13.452  17.339  13.422  0.0059  0.0055  0.2180
49806W        W50006   0.463  16.232   0.513  0.2111 -0.0595 -0.0446
49807W        W50007   1.809  14.308  14.933  0.1591  0.1619 -0.0861
49808W        W50008  11.181   2.449  11.425 -0.0191  0.1372  0.0073
49809W        W50009   2.768  17.658  16.301  0.2607 -0.1674  0.0842
49810W        W50010  15.438  16.658  16.271 -0.2183 -0.2789  0.1085
49811W        W50011  17.140  15.477   0.448 -0.0265 -0.0041  0.0891
49812W        W50012   1.975  12.143   2.354  0.0794 -0.0414  0.1211
49813W        W50013   2.982  13.624   0.009 -0.0320 -0.1731  0.2402
49814W        W50014  17.896  13.104   1.964  0.3975  0.0130  0.0167
49815W        W50015   0.615  13.390  18.042  0.0763  0.1353  0.2617
49816W        W50016  12.880   8.071  17.335  0.3517 -0.0628 -0.2447
49817W        W50017   4.951  18.018  15.848  0.0229  0.1158 -0.1397
49818W        W50018  11.798  17.825   6.660  0.2030  0.2115 -0.4483
49819W        W50019   1.688  17.201  17.371 -0.1531 -0.1923 -0.0664
49820W        W50020   3.608   0.444  12.748 -0.1710  0.1751 -0.0598
49821W        W50021  17.951  13.802   0.938  0.0580  0.0238 -0.0650
49822W        W50022  13.166  14.159  15.330 -0.0877 -0.0770 -0.0558
49823W        W50023   3.432  13.527  11.678  0.0182  0.1446  0.1384
49824W        W50024   4.918   6.229  13.808 -0.0273 -0.0803  0.1604
49825W        W50025  17.820  16.192   0.237  0.3427 -0.1751  0.0025
49826W        W50026   8.402  17.245  13.694 -0.0690 -0.1996  0.3193
49827W        W50027  11.944  13.706  10.931 -0.0825  0.1718 -0.3130
49828W        W50028  14.671  17.328   6.552 -0.1210  0.0477  0.3449
49829W        W50029   1.733  11.821  18.184 -0.1213 -0.2922  0.0545
49830W        W50030   3.809   3.719  16.504 -0.0711 -0.2554  0.0048
49831W        W50031  14.619   0.527  12.091  0.1092  0.0935  0.0677
49832W        W50032  14.694   9.218  14.039 -0.1095 -0.2430  0.1557
49833W        W50033   5.013  14.598   1.190 -0.0741  0.0340  0.3190
49834W        W50034   8.856  11.773  16.204  0.1192  0.0943  0.0844
49835W        W50035  11.519  15.534  10.455  0.2594  0.0123 -0.0289
49836W        W50036   0.271   0.526   3.947 -0.0011  0.0033 -0.2986
49837W        W50037  14.408   0.018  13.753  0.2499 -0.2726 -0.1854
49838W        W50038  14.912  13.780  10.026  0.0235 -0.1088 -0.1094
49839W        W50039  16.939  17.631  13.072  0.3819 -0.0864 -0.0586
49840W        W50040   6.253   0.489  17.373  0.0640 -0.0863 -0.3152
49841W        W50041   5.166  13.389  13.052 -0.2874  0.1268  0.0457
49842W        W50042   3.359   6.935   3.590  0.0571  0.2513 -0.1137
49843W        W50043  11.251   3.916  13.747 -0.1000 -0.3490  0.0222
49844W        W50044   0.047  15.645   8.268  0.0038 -0.1429 -0.0043
49845W        W50045   1.166   2.669   6.281  0.0256  0.0771  0.1021
49846W        W50046  12.142  17.083  16.703 -0.0361  0.0001 -0.3708
49847W        W50047   5.148   3.260   3.945 -0.1129 -0.3639 -0.2559
49848W        W50048  10.857   1.510   8.528  0.1144 -0.1868 -0.1432
49849W        W50049  10.354   2.034   1.862 -0.3188 -0.1348 -0.2285
49850W        W50050   9.316  16.973  12.462  0.2203  0.1505 -0.2582
49851W        W50051  12.312   9.919  10.317 -0.0211 -0.1749 -0.2146
49852W        W50052  10.568  15.208   7.151  0.1415  0.3539 -0.0626
49853W        W50053  16.139  17.184   0.761  0.1963 -0.0472  0.2092
49854W        W50054  15.951   4.285   8.192  0.0301 -0.0620  0.1462
49855W        W50055   3.810  16.965  11.397  0.0659  0.2935 -0.1349
49856W        W50056   8.068   7.723   0.364 -0.0914 -0.1738  0.1470
49857W        W50057   2.290  17.597   5.632  0.4350  0.1213  0.0344
49858W        W50058   5.050  14.993   0.733 -0.1739 -0.0489 -0.1825
49859W        W50059  18.174  18.105   3.397  0.1427 -0.0586 -0.2233
49860W        W50060   6.756   2.275   2.704  0.3311  0.1483  0.0255
49861W        W50061  10.419   1.138  17.852 -0.0939 -0.0540  0.1043
49862W        W50062  16.683   1.602  10.440  0.0005 -0.0495 -0.1122
49863W        W50063  17.966   8.121  16.260  0.3269 -0.0545  0.0243
49864W        W50064  15.029   6.634   7.460  0.3295  0.0914 -0.0374
49865W        W50065  11.056   0.571  15.666 -0.0358  0.3869 -0.0559
49866W        W50066  10.504   8.551  12.902  0.1758 -0.1309  0.2797
49867W        W50067   2.902  17.843  14.206 -0.0610 -0.2277  0.2236
49868W        W50068  16.365  15.491   3.215 -0.1050  0.4499  0.3454
49869W        W50069  11.787  14.339   2.291  0.0878  0.2627  0.0555
49870W        W50070   8.130   7.625  15.984  0.1548  0.0213  0.1129
49871W        W50071   4.076   0.932  14.468 -0.2813  0.0384 -0.0741
49872W        W50072  14.442  14.298  14.204  0.0595 -0.0669 -0.0940
49873W        W50073   1.742  10.986  11.943  0.0110 -0.1579  0.0575
49874W        W50074  14.545  12.598  13.328  0.0475  0.1553  0.3220
49875W        W50075   0.223  12.614  18.036 -0.0891 -0.3858  0.0023
49876W        W50076  17.597  17.985  11.301 -0.1091  0.0190 -0.0793
49877W        W50077  15.669   0.239   2.582 -0.0961  0.1866  0.5830
49878W        W50078  13.758  17.475   2.768  0.1565 -0.1274 -0.0658
49879W        W50079   0.174   0.431   7.127  0.0747  0.0853 -0.0802
49880W        W50080   6.989  13.920  14.009  0.0576  0.1280  0.0124
49881W        W50081  15.137   9.903   3.863 -0.1084  0.1367  0.0958
49882W        W50082   2.688  13.747  16.901 -0.0451 -0.1391 -0.1246
49883W        W50083  17.965  16.749  15.898 -0.0315 -0.2414  0.0312
49884W        W50084  17.521  11.394  12.216 -0.1776  0.3501  0.0103
49885W        W50085   0.760   0.552   9.125 -0.0526 -0.1243 -0.1522
49886W        W50086  12.509   2.693  17.100 -0.3235 -0.0352 -0.2322
49887W        W50087   0.306  17.882  13.110 -0.2123  0.0409  0.3507
49888W        W50088  16.992   7.230  14.701 -0.1443  0.0378  0.0713
49889W        W50089  12.600   9.572  17.223  0.0415 -0.0103  0.0387
49890W        W50090  16.587   1.160  16.415  0.0632 -0.1413 -0.2879
49891W        W50091   2.910  13.777  14.574  0.0255 -0.0148 -0.0138
49892W        W50092  13.684  14.257   3.500  0.0963 -0.1283 -0.0505
49893W        W50093   3.121   1.116   2.100 -0.4180 -0.0398  0.3791
49894W        W50094  10.338   7.716   0.451 -0.0105 -0.2063  0.0157
49895W        W50095  13.725  17.423  12.086  0.3122  0.3758 -0.3422
49896W        W50096  12.740  16.856  17.554 -0.3660 -0.1861 -0.3239
49897W        W50097  14.308   0.892   2.448 -0.1631 -0.1741  0.0353
49898W        W50098  10.700  12.861   3.979 -0.0755 -0.4507 -0.1352
49899W        W50099   0.619   8.931  13.478  0.1527 -0.0397 -0.0916
49900W        W50100  17.978   2.383  11.079  0.2876 -0.1239 -0.0308
49901W        W50101  14.851   5.968   3.002  0.0220 -0.0430 -0.0873
49902W        W50102   1.801   8.883   3.695  0.0527  0.0896 -0.2581
49903W        W50103  12.808  14.938   1.491 -0.2345 -0.2753 -0.0878
49904W        W50104  13.216   5.271   0.199  0.6545  0.0809 -0.2323
49905W        W50105  15.754  15.080   0.875 -0.0537 -0.0424  0.3474
49906W        W50106  14.058  11.362   7.667  0.1709  0.0323 -0.0496
49907W        W50107  16.300   9.183  13.134  0.0980  0.1206 -0.2337
49908W        W50108   4.157  10.168   3.866  0.0039  0.2825 -0.1083
49909W        W50109  13.585  13.207   7.520 -0.0826  0.1419 -0.1108
49910W        W50110  13.822  16.849  15.590 -0.4103  0.4838  0.1614
49911W        W50111  16.866   1.176   5.003 -0.1222 -0.0866 -0.0313
49912W        W50112  16.650  17.706   1.620 -0.0566  0.0005  0.4685
49913W        W50113   6.979   3.569   3.114  0.0120 -0.2664  0.0921
49914W        W50114   6.056   0.093   4.614 -0.0966 -0.0167 -0.0036
49915W        W50115  10.790  17.279   9.219  0.0291  0.0490  0.0720
49916W        W50116  16.318  16.634  13.496  0.0753 -0.0484  0.1405
49917W        W50117  17.253   7.489  14.133  0.0580  0.3277  0.4512
49918W        W50118  11.142  15.626  17.270  0.0661 -0.2454  0.0527
49919W        W50119  12.556  14.794  14.431 -0.1801  0.0836 -0.0167
49920W        W50120  12.023  12.299  12.485 -0.0616 -0.0594 -0.0545
49921W        W50121   0.247   5.779  15.967 -0.1032 -0.1058  0.3314
49922W        W50122  17.703  15.844   3.909  0.0639 -0.0844 -0.0676
49923W        W50123  16.273  14.186   2.802  0.0914  0.0519  0.0717
49924W        W50124  10.710   2.568  15.623 -0.2342 -0.0950  0.1354
49925W        W50125  17.595   5.595  10.153 -0.1021 -0.0236 -0.0895
49926W        W50126  16.979   5.522  18.204 -0.0764  0.0779  0.2852
49927W        W50127  11.759  16.115   0.884 -0.1301  0.0402 -0.1116
49928W        W50128  16.852  15.860  15.953 -0.1646  0.2192 -0.3219
49929W        W50129  17.125  14.060  17.721  0.0082 -0.2309  0.1124
49930W        W50130   0.748  17.154   2.482  0.1210  0.0998  0.0863
49931W        W50131   1.390  18.123  16.427  0.0987  0.0652  0.0984
49932W        W50132   0.530   1.240   0.581  0.1115 -0.1518  0.0487
49933W        W50133  11.150   5.654   7.009  0.0684 -0.0358 -0.1133
49934W        W50134  17.393  18.032  11.718  0.3060  0.0937 -0.2983
49935W        W50135  16.545  12.714  13.365  0.1363  0.0145  0.1412
49936W        W50136  12.105  11.378  16.899  0.1715 -0.0406  0.0776
49937W        W50137   0.944  16.161   5.348  0.0582  0.0275 -0.0790
49938W        W50138  14.643  12.754  12.815 -0.0398 -0.1402  0.0454
49939W        W50139   8.526   5.560   0.581 -0.1524  0.0867 -0.3296
49940W        W50140   9.341   1.647  16.737 -0.3813 -0.0476 -0.0785
49941W        W50141  15.200   1.022   0.112  0.0611 -0.1114  0.0620
49942W        W50142  11.577  16.817  16.246  0.1824  0.1693 -0.3367
49943W        W50143   2.547   2.649   0.577 -0.0202 -0.2659 -0.0272
49944W        W50144  17.327  10.880   8.046  0.2357  0.0374 -0.0824
49945W        W50145   1.129  16.082  15.431 -0.2166  0.1753  0.3072
49946W        W50146  11.486  12.669  17.306 -0.3029  0.2248  0.1596
49947W        W50147   6.920  17.076   7.292 -0.4264  0.2360 -0.0271
49948W        W50148   5.362  12.484  12.285  0.1166 -0.1467 -0.2054
49949W        W50149   3.104  14.144   6.784  0.1073 -0.0346 -0.4124
49950W        W50150  14.201   4.010   9.128 -0.1122 -0.0303 -0.1901
49951W        W50151   2.854  12.235   2.709 -0.1152 -0.1287 -0.2168
49952W        W50152  16.781   0.299  11.579  0.1636 -0.1464 -0.0018
49953W        W50153   0.961  11.269  14.487 -0.0864  0.1282 -0.2854
49954W        W50154  17.055  16.685  15.711 -0.1956  0.0572 -0.0527
49955W        W50155  13.177  10.742  16.803 -0.0517  0.0145 -0.1872
49956W        W50156   9.340   1.107  16.734 -0.4932 -0.1519 -0.2015
49957W        W50157   8.251  16.006  13.751  0.1167 -0.0516  0.2114
49958W        W50158   0.110  17.453  13.962 -0.0223  0.1463 -0.0913
49959W        W50159  17.443  17.108   8.392  0.2290 -0.0275 -0.0121
49960W        W50160  13.302  14.075  11.642  0.0165 -0.2232 -0.0126
49961W        W50161   7.564  11.900  17.774 -0.0542 -0.1737 -0.2368
49962W        W50162  13.313  15.223  14.128  0.4274 -0.0420 -0.0895
49963W        W50163  10.461  15.597  13.844 -0.0804  0.2012 -0.0093
49964W        W50164  16.406   3.968  14.091  0.3146  0.0108  0.0155
49965W        W50165   0.114  16.838   0.553  0.1168  0.2984  0.0578
49966W        W50166   2.946   1.221   3.964  0.1830  0.2398 -0.1022
49967W        W50167   1.840  12.894   0.684  0.1695 -0.0619  0.1238
49968W        W50168   9.953  12.320   0.120  0.0842 -0.0639  0.2350
49969W        W50169  17.230   5.104  14.586 -0.1886  0.1379  0.1366
49970W        W50170   0.963  15.980   3.211  0.2923  0.0698 -0.0073
49971W        W50171  15.806  13.983  16.530  0.2941 -0.0454  0.0029
49972W        W50172  17.777  12.186  13.553  0.1387  0.0372  0.0789
49973W        W50173  11.747  13.744  12.736  0.0053 -0.1653  0.2513
49974W        W50174  10.189  13.023  17.812  0.0379 -0.0709  0.0730
49975W        W50175   0.622   2.449  13.776 -0.2669  0.0219  0.1692
49976W        W50176   1.600  16.745   1.022 -0.0345 -0.0778 -0.2260
  18.20753  18.20753  18.20753
