Written by MDAnalysis
   10
    0DIM   BNZ1    1   2.512   2.670   3.458
    0DIM   BNZ2    2   2.484   2.762   3.301
    0DIM   BNZ3    3   2.702   2.642   3.299
    0DIM    BS1    4   2.709   2.532   3.466
    0DIM    BS2    5   2.658   2.748   3.141
    0DIM   BNZ4    6   4.385   2.515   2.790
    0DIM   BNZ5    7   4.437   2.340   2.789
    0DIM   BNZ6    8   4.603   2.486   2.908
    0DIM    BS3    9   4.521   2.669   2.906
    0DIM    BS4   10   4.646   2.290   2.897
   6.75444   6.75444   6.19032
