BDT dimerization
23583
    1BDT   BNZ1    1  11.122   5.879   8.894 -0.0677  0.2648 -0.0692
    1BDT   BNZ2    2  11.171   5.855   9.068 -0.1824  0.3353 -0.0263
    1BDT   BNZ3    3  11.327   5.733   8.911 -0.1956  0.1066  0.1348
    1BDT    BS1    4  11.260   5.769   8.730 -0.0682  0.0467  0.0763
    1BDT    BS2    5  11.365   5.718   9.105 -0.3144  0.1990  0.1665
    2BDT   BNZ1    6   7.970   3.384   9.556 -0.1109 -0.0142  0.1918
    2BDT   BNZ2    7   8.144   3.428   9.522 -0.1351  0.1173  0.2334
    2BDT   BNZ3    8   8.063   3.246   9.367 -0.0031  0.1503  0.1240
    2BDT    BS1    9   7.876   3.211   9.418  0.0145  0.0027  0.0866
    2BDT    BS2   10   8.250   3.306   9.344 -0.0392  0.2840  0.1764
    3BDT   BNZ1   11   6.554  11.236   8.764  0.0368  0.1929  0.0476
    3BDT   BNZ2   12   6.509  11.312   8.924 -0.0406  0.2956 -0.0221
    3BDT   BNZ3   13   6.596  11.078   8.955  0.0643  0.3604  0.1820
    3BDT    BS1   14   6.640  11.012   8.775  0.1416  0.2426  0.2441
    3BDT    BS2   15   6.542  11.175   9.118 -0.0245  0.4621  0.0928
    4BDT   BNZ1   16   6.571   0.399   3.906  0.0530  0.1015  0.0192
    4BDT   BNZ2   17   6.602   0.553   3.812 -0.1398  0.0536 -0.1284
    4BDT   BNZ3   18   6.513   0.603   4.043 -0.0105  0.1651 -0.1017
    4BDT    BS1   19   6.485   0.428   4.129  0.1940  0.2119  0.0583
    4BDT    BS2   20   6.553   0.758   3.927 -0.2206  0.1057 -0.2562
    5BDT   BNZ1   21  11.613  11.415  12.650 -0.0513 -0.2326  0.2688
    5BDT   BNZ2   22  11.668  11.529  12.782 -0.1959 -0.1374  0.2482
    5BDT   BNZ3   23  11.418  11.539  12.750 -0.1483 -0.0614 -0.1195
    5BDT    BS1   24  11.377  11.412  12.605  0.0114 -0.1738 -0.0687
    5BDT    BS2   25  11.495  11.655  12.890 -0.2994  0.0289 -0.1126
    6BDT   BNZ1   26   2.773  10.891  12.886 -0.0851 -0.2215  0.2268
    6BDT   BNZ2   27   2.610  10.938  12.816  0.1175  0.0115 -0.1007
    6BDT   BNZ3   28   2.657  11.062  13.030 -0.1239 -0.0356 -0.0204
    6BDT    BS1   29   2.833  11.000  13.092 -0.3368 -0.2889  0.3335
    6BDT    BS2   30   2.485  11.100  12.940  0.1092  0.2078 -0.3645
    7BDT   BNZ1   31   5.132   3.757   1.537 -0.0441  0.1235  0.1291
    7BDT   BNZ2   32   5.067   3.586   1.544 -0.0221  0.1019 -0.1338
    7BDT   BNZ3   33   5.097   3.682   1.775  0.0017 -0.2621  0.0181
    7BDT    BS1   34   5.167   3.864   1.749 -0.0256 -0.2128  0.2955
    7BDT    BS2   35   5.028   3.497   1.764  0.0231 -0.2538 -0.2691
    8BDT   BNZ1   36   4.884   7.956   4.357  0.0735  0.4245  0.1933
    8BDT   BNZ2   37   4.896   8.110   4.260  0.2646  0.2019 -0.1450
    8BDT   BNZ3   38   4.737   7.946   4.153  0.1918  0.0978  0.1200
    8BDT    BS1   39   4.736   7.788   4.270 -0.0134  0.3599  0.4715
    8BDT    BS2   40   4.762   8.119   4.061  0.3959 -0.1270 -0.2486
    9BDT   BNZ1   41   7.733   8.836   0.413 -0.1818 -0.0523 -0.1131
    9BDT   BNZ2   42   7.819   8.791   0.568 -0.2284 -0.1695 -0.1204
    9BDT   BNZ3   43   7.979   8.793   0.373 -0.1256  0.1913 -0.0378
    9BDT    BS1   44   7.871   8.842   0.216 -0.0824  0.2929 -0.0327
    9BDT    BS2   45   8.054   8.747   0.550 -0.1830  0.0406 -0.0494
   10BDT   BNZ1   46   8.301   2.681  10.015  0.0812 -0.1404  0.0890
   10BDT   BNZ2   47   8.447   2.641   9.912  0.0851  0.0498  0.0196
   10BDT   BNZ3   48   8.240   2.662   9.771  0.0978  0.3505  0.0427
   10BDT    BS1   49   8.093   2.704   9.896  0.0923  0.1167  0.1219
   10BDT    BS2   50   8.408   2.620   9.676  0.0989  0.5237 -0.0257
   11BDT   BNZ1   51  11.398   6.579   3.927 -0.0441  0.4739 -0.1856
   11BDT   BNZ2   52  11.334   6.540   4.094  0.0950  0.1709 -0.1995
   11BDT   BNZ3   53  11.228   6.750   4.002 -0.0946  0.2577  0.2053
   11BDT    BS1   54  11.307   6.777   3.824 -0.2339  0.5834  0.1939
   11BDT    BS2   55  11.171   6.693   4.182  0.0673 -0.0651  0.1566
   12BDT   BNZ1   56   1.953   7.382   2.462 -0.1024 -0.0532 -0.0031
   12BDT   BNZ2   57   1.776   7.415   2.428 -0.1137 -0.1583 -0.0485
   12BDT   BNZ3   58   1.906   7.383   2.214 -0.0317 -0.0416 -0.0166
   12BDT    BS1   59   2.092   7.349   2.268 -0.0265  0.0661  0.0313
   12BDT    BS2   60   1.713   7.419   2.196 -0.0503 -0.1597 -0.0659
   13BDT   BNZ1   61   1.326  11.203  10.654 -0.0186 -0.1858  0.0794
   13BDT   BNZ2   62   1.313  11.284  10.490 -0.1714 -0.0503  0.1568
   13BDT   BNZ3   63   1.325  11.033  10.468 -0.0287 -0.0250 -0.0686
   13BDT    BS1   64   1.338  10.963  10.652  0.1296 -0.1754 -0.1392
   13BDT    BS2   65   1.310  11.137  10.301 -0.1984  0.1137  0.0302
   14BDT   BNZ1   66   1.057   5.447  11.074  0.2032  0.3957 -0.2832
   14BDT   BNZ2   67   0.900   5.476  11.165  0.1030 -0.2176 -0.2379
   14BDT   BNZ3   68   1.100   5.498  11.317  0.0054 -0.2352 -0.1067
   14BDT    BS1   69   1.258   5.464  11.205  0.1179  0.4471 -0.1668
   14BDT    BS2   70   0.922   5.526  11.399 -0.0772 -0.8712 -0.0816
   15BDT   BNZ1   71   5.082  10.366  13.615 -0.0236 -0.0005 -0.0376
   15BDT   BNZ2   72   5.190  10.428  13.750 -0.0637  0.0256 -0.0173
   15BDT   BNZ3   73   5.289  10.477  13.523 -0.0348  0.0524  0.0010
   15BDT    BS1   74   5.162  10.405  13.392  0.0076  0.0215 -0.0227
   15BDT    BS2   75   5.392  10.537  13.681 -0.0786  0.0773  0.0207
   16BDT   BNZ1   76   9.680   7.275   8.459  0.0890 -0.1260  0.1429
   16BDT   BNZ2   77   9.788   7.251   8.605  0.0650  0.0408  0.1887
   16BDT   BNZ3   78   9.658   7.467   8.621  0.0091  0.0258 -0.0460
   16BDT    BS1   79   9.549   7.477   8.457  0.0412 -0.1592 -0.0779
   16BDT    BS2   80   9.780   7.425   8.771 -0.0110  0.1987  0.0198
   17BDT   BNZ1   81   4.890   5.367  13.814  0.1655  0.2162  0.0167
   17BDT   BNZ2   82   5.040   5.402  13.714  0.0301  0.0812 -0.2376
   17BDT   BNZ3   83   5.018   5.156  13.763  0.0215  0.1302  0.0089
   17BDT    BS1   84   4.854   5.136  13.870  0.1767  0.2776  0.2691
   17BDT    BS2   85   5.174   5.212  13.656 -0.1186 -0.0131 -0.2737
   18BDT   BNZ1   86   5.177   7.997   6.687  0.3296  0.0329 -0.0214
   18BDT   BNZ2   87   5.167   7.952   6.864 -0.1797 -0.1217 -0.0822
   18BDT   BNZ3   88   4.970   8.092   6.794  0.1931  0.2337 -0.4517
   18BDT    BS1   89   4.996   8.131   6.603  0.7329  0.3713 -0.3402
   18BDT    BS2   90   4.975   8.033   6.983 -0.3596  0.0426 -0.4855
   19BDT   BNZ1   91   3.402   2.250   5.844  0.1212 -0.3428 -0.2531
   19BDT   BNZ2   92   3.291   2.105   5.829 -0.0198 -0.2672  0.0195
   19BDT   BNZ3   93   3.161   2.320   5.827  0.1833 -0.1431 -0.3195
   19BDT    BS1   94   3.294   2.465   5.844  0.3209 -0.2435 -0.5964
   19BDT    BS2   95   3.057   2.153   5.811  0.0213 -0.0772 -0.0101
   20BDT   BNZ1   96   0.641   4.503  10.121  0.0047 -0.0258  0.1901
   20BDT   BNZ2   97   0.759   4.593  10.229  0.1848  0.0592 -0.0714
   20BDT   BNZ3   98   0.817   4.348  10.215 -0.0240 -0.0138  0.2644
   20BDT    BS1   99   0.682   4.267  10.096 -0.2029 -0.0974  0.5334
   20BDT    BS2  100   0.933   4.461  10.327  0.1802  0.0822 -0.0322
   21BDT   BNZ1  101   0.275   5.582   2.625  0.0894 -0.1687 -0.1194
   21BDT   BNZ2  102   0.202   5.557   2.791 -0.2090  0.1840 -0.1929
   21BDT   BNZ3  103   0.161   5.357   2.643 -0.0544 -0.0794  0.1125
   21BDT    BS1  104   0.246   5.400   2.470  0.2605 -0.4507  0.1819
   21BDT    BS2  105   0.088   5.348   2.826 -0.3748  0.3082  0.0113
   22BDT   BNZ1  106   9.248  13.334  12.791 -0.1519 -0.1516 -0.1247
   22BDT   BNZ2  107   9.329  13.185  12.722 -0.0097 -0.0561 -0.1655
   22BDT   BNZ3  108   9.432  13.397  12.630 -0.1497  0.0679 -0.0388
   22BDT    BS1  109   9.334  13.545  12.715 -0.2968 -0.0489 -0.0031
   22BDT    BS2  110   9.507  13.226  12.566  0.0078  0.1568 -0.0906
   23BDT   BNZ1  111   8.177   3.809   2.808  0.3917  0.2231 -0.0486
   23BDT   BNZ2  112   8.103   3.779   2.644 -0.2171 -0.4360  0.3185
   23BDT   BNZ3  113   7.960   3.935   2.781  0.1065 -0.1677  0.3571
   23BDT    BS1  114   8.053   3.956   2.953  0.7438  0.5366 -0.0849
   23BDT    BS2  115   7.895   3.891   2.600 -0.5404 -0.8685  0.7517
   24BDT   BNZ1  116   1.247   6.369   4.695 -0.0216  0.1896 -0.2100
   24BDT   BNZ2  117   1.173   6.260   4.568  0.0308 -0.1259  0.0227
   24BDT   BNZ3  118   1.011   6.439   4.641  0.0314  0.1188 -0.5442
   24BDT    BS1  119   1.106   6.546   4.777 -0.0287  0.4399 -0.7682
   24BDT    BS2  120   0.948   6.312   4.504  0.0873 -0.2320 -0.2605
   25BDT   BNZ1  121   8.283   7.552   2.033  0.0977 -0.0004  0.0904
   25BDT   BNZ2  122   8.404   7.417   2.059  0.1948  0.0382 -0.1488
   25BDT   BNZ3  123   8.246   7.364   1.869 -0.0245  0.0853  0.0185
   25BDT    BS1  124   8.125   7.518   1.855 -0.1123  0.0362  0.2721
   25BDT    BS2  125   8.384   7.228   1.912  0.0942  0.1215 -0.2419
   26BDT   BNZ1  126   6.813   4.487  12.554 -0.2866  0.0725  0.0286
   26BDT   BNZ2  127   6.914   4.344  12.501  0.0594  0.3338 -0.0333
   26BDT   BNZ3  128   6.785   4.292  12.711  0.0696 -0.1141 -0.1334
   26BDT    BS1  129   6.683   4.455  12.753 -0.3093 -0.3748 -0.0619
   26BDT    BS2  130   6.900   4.149  12.639  0.4263  0.1961 -0.1909
   27BDT   BNZ1  131   2.507   0.669  13.816  0.0410 -0.1001  0.1118
   27BDT   BNZ2  132   2.567   0.586  13.968  0.2304  0.0086  0.0977
   27BDT   BNZ3  133   2.479   0.817  14.018 -0.1347 -0.1306  0.1107
   27BDT    BS1  134   2.419   0.891  13.846 -0.3146 -0.2441  0.1287
   27BDT    BS2  135   2.548   0.712  14.171  0.0920 -0.0090  0.0958
   28BDT   BNZ1  136   0.565   5.972   4.463  0.0224  0.0891 -0.0335
   28BDT   BNZ2  137   0.733   6.037   4.431  0.0598 -0.0584 -0.1444
   28BDT   BNZ3  138   0.732   5.879   4.627  0.0391 -0.0150 -0.1092
   28BDT    BS1  139   0.546   5.819   4.647  0.0003  0.1458  0.0109
   28BDT    BS2  140   0.906   5.959   4.578  0.0786 -0.1713 -0.2267
   29BDT   BNZ1  141   8.916   0.182   7.514  0.2155 -0.1892  0.3340
   29BDT   BNZ2  142   9.005   0.338   7.550  0.1857 -0.1406  0.1981
   29BDT   BNZ3  143   9.155   0.138   7.580  0.3602 -0.0557 -0.0848
   29BDT    BS1  144   9.045  -0.020   7.538  0.3765 -0.1158  0.0870
   29BDT    BS2  145   9.235   0.315   7.615  0.3114 -0.0128 -0.2035
   30BDT   BNZ1  146   2.819   8.617   0.686 -0.1789  0.0545 -0.3452
   30BDT   BNZ2  147   2.879   8.774   0.758  0.4764 -0.1770 -0.3465
   30BDT   BNZ3  148   2.806   8.805   0.519  0.0514  0.2263 -0.1732
   30BDT    BS1  149   2.746   8.628   0.457 -0.6336  0.4744 -0.1722
   30BDT    BS2  150   2.874   8.965   0.613  0.7638 -0.0480 -0.1870
   31BDT   BNZ1  151   0.217   1.194   4.566 -0.0212  0.0862 -0.0062
   31BDT   BNZ2  152   0.227   1.338   4.678 -0.0567  0.1264 -0.0540
   31BDT   BNZ3  153  -0.009   1.251   4.664  0.0174 -0.1257  0.2102
   31BDT    BS1  154  -0.002   1.098   4.540  0.0533 -0.1496  0.2434
   31BDT    BS2  155   0.022   1.407   4.781 -0.0231 -0.0626  0.1395
   32BDT   BNZ1  156   3.455  10.783   9.220 -0.0103 -0.1633 -0.1957
   32BDT   BNZ2  157   3.526  10.783   9.051  0.2614 -0.0719 -0.0836
   32BDT   BNZ3  158   3.530  11.014   9.152 -0.0978 -0.0856 -0.0313
   32BDT    BS1  159   3.451  10.996   9.331 -0.3691 -0.1872 -0.1661
   32BDT    BS2  160   3.604  10.995   8.970  0.2126  0.0087  0.0793
   33BDT   BNZ1  161  12.640  13.980   7.000  0.2717 -0.0366 -0.0547
   33BDT   BNZ2  162  12.588  14.149   6.952  0.0576 -0.1133 -0.1004
   33BDT   BNZ3  163  12.778  14.155   7.118 -0.0587  0.1747  0.0272
   33BDT    BS1  164  12.821  13.967   7.157  0.1858  0.2377  0.0663
   33BDT    BS2  165  12.709  14.329   7.055 -0.2718  0.0691 -0.0315
   34BDT   BNZ1  166   6.784  13.878   4.305  0.0645 -0.0840  0.0653
   34BDT   BNZ2  167   6.863  13.905   4.141  0.3496  0.0608  0.2225
   34BDT   BNZ3  168   6.668  14.061   4.177  0.1260 -0.1437 -0.0771
   34BDT    BS1  169   6.596  14.019   4.355 -0.1681 -0.2882 -0.2366
   34BDT    BS2  170   6.765  14.077   4.005  0.4409  0.0220  0.1082
   35BDT   BNZ1  171   7.506  10.261   2.981 -0.1404  0.0626 -0.1119
   35BDT   BNZ2  172   7.479  10.376   2.841  0.1672  0.2106 -0.0528
   35BDT   BNZ3  173   7.613  10.485   3.025  0.2264 -0.1544  0.1250
   35BDT    BS1  174   7.632  10.349   3.166 -0.1218 -0.2908  0.0414
   35BDT    BS2  175   7.575  10.595   2.865  0.5384  0.0237  0.1726
   36BDT   BNZ1  176   7.950   2.901  12.533 -0.1408 -0.1247  0.3274
   36BDT   BNZ2  177   7.882   2.746  12.463  0.1347 -0.0914 -0.0303
   36BDT   BNZ3  178   8.124   2.777  12.399  0.1922  0.3034  0.3529
   36BDT    BS1  179   8.180   2.947  12.481 -0.1257  0.2292  0.7189
   36BDT    BS2  180   8.034   2.614  12.332  0.4692  0.3092 -0.0451
   37BDT   BNZ1  181   4.064  13.318   0.553  0.0945 -0.1514  0.2622
   37BDT   BNZ2  182   4.056  13.498   0.584 -0.0515 -0.0919 -0.1039
   37BDT   BNZ3  183   4.294  13.420   0.556 -0.0004  0.0823 -0.1571
   37BDT    BS1  184   4.285  13.226   0.524  0.1557  0.0040  0.2536
   37BDT    BS2  185   4.266  13.613   0.589 -0.1572  0.1221 -0.5325
   38BDT   BNZ1  186   0.482  13.917   1.564  0.0314  0.0240 -0.1472
   38BDT   BNZ2  187   0.638  13.828   1.597  0.0557  0.0163 -0.2831
   38BDT   BNZ3  188   0.676  14.077   1.583  0.0011  0.0431  0.0147
   38BDT    BS1  189   0.500  14.157   1.548 -0.0199  0.0474  0.1430
   38BDT    BS2  190   0.835  13.964   1.617  0.0313  0.0312 -0.1498
   39BDT   BNZ1  191   5.823   1.476   4.757  0.1396  0.0813  0.2629
   39BDT   BNZ2  192   5.699   1.487   4.891 -0.0799  0.0375  0.0660
   39BDT   BNZ3  193   5.746   1.247   4.829 -0.0667  0.0608 -0.0154
   39BDT    BS1  194   5.880   1.254   4.685  0.1753  0.1085  0.2101
   39BDT    BS2  195   5.613   1.278   4.973 -0.2918  0.0142 -0.2156
   40BDT   BNZ1  196  10.776   3.401   0.364  0.1959 -0.1046  0.2135
   40BDT   BNZ2  197  10.690   3.261   0.285  0.0102  0.1476 -0.0421
   40BDT   BNZ3  198  10.936   3.259   0.232 -0.0312  0.0471 -0.2365
   40BDT    BS1  199  11.013   3.415   0.324  0.1754 -0.2253  0.0625
   40BDT    BS2  200  10.827   3.113   0.154 -0.2181  0.3233 -0.4804
   41BDT   BNZ1  201   4.514   2.647  10.153 -0.2968 -0.0188 -0.0915
   41BDT   BNZ2  202   4.425   2.574  10.295  0.0585 -0.2712  0.0080
   41BDT   BNZ3  203   4.478   2.400  10.120  0.2081 -0.0930 -0.1266
   41BDT    BS1  204   4.572   2.495   9.976 -0.1998  0.1737 -0.2226
   41BDT    BS2  205   4.381   2.338  10.282  0.5672 -0.3634 -0.0178
   42BDT   BNZ1  206  10.990  11.401  12.930  0.1811 -0.1592  0.1317
   42BDT   BNZ2  207  10.971  11.259  12.816  0.2082  0.1482 -0.2677
   42BDT   BNZ3  208  11.198  11.258  12.926  0.1422 -0.2107 -0.1254
   42BDT    BS1  209  11.202  11.416  13.043  0.1148 -0.5340  0.2984
   42BDT    BS2  210  11.160  11.111  12.799  0.1749  0.1382 -0.5492
   43BDT   BNZ1  211   9.298   4.736   4.145  0.2881  0.0208  0.0237
   43BDT   BNZ2  212   9.277   4.771   4.323  0.4095  0.0236  0.0383
   43BDT   BNZ3  213   9.132   4.578   4.249  0.1922  0.1653  0.0911
   43BDT    BS1  214   9.167   4.555   4.056  0.0746  0.1522  0.0722
   43BDT    BS2  215   9.121   4.630   4.439  0.3360  0.1574  0.1024
   44BDT   BNZ1  216   8.476   8.359   4.303 -0.2676  0.2985 -0.1459
   44BDT   BNZ2  217   8.546   8.210   4.223 -0.2173  0.1195  0.2207
   44BDT   BNZ3  218   8.704   8.405   4.206 -0.1129  0.0244  0.0817
   44BDT    BS1  219   8.615   8.555   4.296 -0.1758  0.2257 -0.3163
   44BDT    BS2  220   8.763   8.235   4.125 -0.0723 -0.1493  0.4748
   45BDT   BNZ1  221   1.548   8.155   8.227 -0.1160  0.1768  0.0582
   45BDT   BNZ2  222   1.523   8.205   8.401  0.0973  0.1562  0.0960
   45BDT   BNZ3  223   1.307   8.130   8.295 -0.0352  0.1765  0.3485
   45BDT    BS1  224   1.351   8.081   8.110 -0.2605  0.1986  0.2889
   45BDT    BS2  225   1.298   8.187   8.484  0.1978  0.1537  0.3663
   46BDT   BNZ1  226   6.115   7.886   0.336 -0.2442 -0.2419 -0.0298
   46BDT   BNZ2  227   6.046   8.055   0.355  0.0092 -0.1233 -0.1421
   46BDT   BNZ3  228   6.115   7.958   0.577 -0.0730 -0.0522 -0.0854
   46BDT    BS1  229   6.186   7.779   0.539 -0.3489 -0.1869  0.0347
   46BDT    BS2  230   6.039   8.140   0.579  0.1967  0.0621 -0.2068
   47BDT   BNZ1  231   8.534   6.695   1.865  0.1269  0.2588 -0.0612
   47BDT   BNZ2  232   8.508   6.852   1.774 -0.0144  0.1809 -0.1571
   47BDT   BNZ3  233   8.621   6.679   1.629  0.0013  0.1438 -0.1006
   47BDT    BS1  234   8.641   6.519   1.742  0.1566  0.2339  0.0010
   47BDT    BS2  235   8.586   6.855   1.547 -0.1460  0.0653 -0.2037
   48BDT   BNZ1  236   6.897   4.247   4.703 -0.0590 -0.2008 -0.2184
   48BDT   BNZ2  237   6.974   4.170   4.850 -0.0760 -0.1591 -0.1876
   48BDT   BNZ3  238   7.118   4.142   4.646  0.1304  0.1153 -0.0831
   48BDT    BS1  239   7.022   4.229   4.498  0.1308  0.0490 -0.1244
   48BDT    BS2  240   7.186   4.064   4.814  0.0935  0.1372 -0.0589
   49BDT   BNZ1  241  13.114   3.676  13.826 -0.0552 -0.0867  0.1092
   49BDT   BNZ2  242  13.002   3.708  13.685  0.1762 -0.1056 -0.0822
   49BDT   BNZ3  243  13.013   3.907  13.838 -0.0843 -0.0882 -0.0832
   49BDT    BS1  244  13.137   3.857  13.983 -0.3237 -0.0683  0.1257
   49BDT    BS2  245  12.896   3.923  13.680  0.1768 -0.1097 -0.2807
   50BDT   BNZ1  246   4.821  12.443  11.599  0.4508 -0.2771 -0.2831
   50BDT   BNZ2  247   4.872  12.448  11.775 -0.1563 -0.1477 -0.1012
   50BDT   BNZ3  248   4.945  12.656  11.654 -0.0938 -0.0493  0.1034
   50BDT    BS1  249   4.883  12.635  11.468  0.5755 -0.2033 -0.1074
   50BDT    BS2  250   4.991  12.644  11.846 -0.7329  0.0732  0.2584
   51BDT   BNZ1  251   0.578   7.200   0.733 -0.1689 -0.1198  0.3433
   51BDT   BNZ2  252   0.435   7.104   0.670 -0.1661  0.2276 -0.2359
   51BDT   BNZ3  253   0.367   7.337   0.737  0.0444  0.2329 -0.0322
   51BDT    BS1  254   0.531   7.425   0.801  0.0151 -0.1616  0.5898
   51BDT    BS2  255   0.225   7.219   0.668  0.0411  0.5971 -0.6437
   52BDT   BNZ1  256   6.415   7.640   4.746 -0.1586 -0.1106 -0.0815
   52BDT   BNZ2  257   6.568   7.739   4.760 -0.1466 -0.1355 -0.0361
   52BDT   BNZ3  258   6.449   7.785   4.543 -0.2926  0.1939  0.1096
   52BDT    BS1  259   6.288   7.672   4.543 -0.2940  0.1950  0.0506
   52BDT    BS2  260   6.617   7.884   4.575 -0.2678  0.1401  0.1474
   53BDT   BNZ1  261   8.243  11.557   9.825  0.0222 -0.1886 -0.1612
   53BDT   BNZ2  262   8.296  11.462   9.972  0.0770 -0.0685 -0.1029
   53BDT   BNZ3  263   8.492  11.518   9.824  0.0808  0.1647 -0.0113
   53BDT    BS1  264   8.419  11.619   9.672  0.0174  0.0143 -0.0840
   53BDT    BS2  265   8.531  11.415   9.989  0.1347  0.2712  0.0401
   54BDT   BNZ1  266   1.523  13.277   2.015  0.1802 -0.0178  0.1423
   54BDT   BNZ2  267   1.415  13.158   1.927  0.1825 -0.0695  0.2095
   54BDT   BNZ3  268   1.658  13.096   1.905  0.2037  0.0787  0.0099
   54BDT    BS1  269   1.759  13.233   2.004  0.1981  0.1243 -0.0496
   54BDT    BS2  270   1.528  12.977   1.816  0.2032  0.0132  0.0956
   55BDT   BNZ1  271   1.090   5.493  12.104 -0.1605 -0.0887 -0.1560
   55BDT   BNZ2  272   1.163   5.540  11.943 -0.1261 -0.0693 -0.1350
   55BDT   BNZ3  273   1.117   5.743  12.085 -0.2800 -0.0767 -0.1736
   55BDT    BS1  274   1.039   5.676  12.252 -0.3059 -0.0978 -0.1945
   55BDT    BS2  275   1.197   5.774  11.906 -0.2318 -0.0564 -0.1490
   56BDT   BNZ1  276   3.197   5.839   5.624 -0.2066 -0.0054  0.0568
   56BDT   BNZ2  277   3.206   5.987   5.515 -0.3910 -0.1063 -0.0988
   56BDT   BNZ3  278   3.062   6.030   5.717 -0.0926  0.0636  0.0822
   56BDT    BS1  279   3.063   5.864   5.822  0.0900  0.1670  0.2362
   56BDT    BS2  280   3.083   6.179   5.589 -0.3067 -0.0533 -0.0958
   57BDT   BNZ1  281   2.214  10.713   2.091  0.2016  0.0945  0.2100
   57BDT   BNZ2  282   2.278  10.552   2.152  0.2266  0.0135 -0.0251
   57BDT   BNZ3  283   2.144  10.524   1.940  0.0971  0.2841  0.0182
   57BDT    BS1  284   2.084  10.704   1.890  0.0811  0.3512  0.2777
   57BDT    BS2  285   2.220  10.360   2.020  0.1337  0.1798 -0.2276
   58BDT   BNZ1  286   2.354   5.448  11.568 -0.0230  0.1085  0.3169
   58BDT   BNZ2  287   2.515   5.465  11.483 -0.1246 -0.2739  0.0352
   58BDT   BNZ3  288   2.546   5.384  11.719  0.1088 -0.1215  0.0586
   58BDT    BS1  289   2.365   5.371  11.796  0.2108  0.2922  0.3645
   58BDT    BS2  290   2.709   5.409  11.612 -0.0204 -0.5295 -0.2332
   59BDT   BNZ1  291   9.216   3.855   4.031 -0.0015  0.1359  0.1279
   59BDT   BNZ2  292   9.252   3.894   3.856 -0.1329  0.1815  0.1110
   59BDT   BNZ3  293   9.020   3.800   3.883 -0.0055 -0.1058  0.2207
   59BDT    BS1  294   8.998   3.763   4.075  0.1324 -0.1332  0.2295
   59BDT    BS2  295   9.075   3.848   3.699 -0.1500 -0.0346  0.1938
   60BDT   BNZ1  296   7.928  13.737   1.431 -0.0810 -0.1745 -0.1764
   60BDT   BNZ2  297   8.077  13.815   1.501 -0.3046  0.0629  0.0438
   60BDT   BNZ3  298   8.083  13.818   1.249  0.0698  0.0470  0.0484
   60BDT    BS1  299   7.916  13.731   1.191  0.2940 -0.2126 -0.1920
   60BDT    BS2  300   8.237  13.899   1.343 -0.1942  0.2926  0.2767
   61BDT   BNZ1  301  11.734   6.272   8.926 -0.1826  0.1074 -0.3980
   61BDT   BNZ2  302  11.561   6.284   8.868 -0.1578 -0.0013 -0.4953
   61BDT   BNZ3  303  11.633   6.043   8.893 -0.0663  0.0442 -0.3191
   61BDT    BS1  304  11.820   6.049   8.956 -0.1020  0.1619 -0.2251
   61BDT    BS2  305  11.448   6.075   8.831 -0.0481 -0.0714 -0.4340
   62BDT   BNZ1  306   9.865   8.300   1.349  0.1809  0.1439 -0.0716
   62BDT   BNZ2  307  10.000   8.187   1.298 -0.0331 -0.1935  0.0978
   62BDT   BNZ3  308   9.975   8.194   1.549 -0.0924  0.1514  0.0845
   62BDT    BS1  309   9.828   8.319   1.586  0.1560  0.4939 -0.1060
   62BDT    BS2  310  10.116   8.076   1.477 -0.3108 -0.2239  0.2603
   63BDT   BNZ1  311   8.995   2.687   9.669  0.3062  0.0852 -0.4385
   63BDT   BNZ2  312   8.916   2.840   9.731 -0.0955 -0.3533  0.1929
   63BDT   BNZ3  313   8.769   2.721   9.565  0.0984 -0.2002 -0.0925
   63BDT    BS1  314   8.868   2.560   9.509  0.5163  0.2994 -0.7612
   63BDT    BS2  315   8.699   2.889   9.642 -0.3265 -0.6781  0.5789
   64BDT   BNZ1  316   1.986   9.640   4.705  0.1383  0.0622  0.0216
   64BDT   BNZ2  317   1.886   9.545   4.825 -0.0619  0.0970 -0.1139
   64BDT   BNZ3  318   2.119   9.589   4.913 -0.2328  0.2032  0.2991
   64BDT    BS1  319   2.211   9.691   4.772 -0.0016  0.1554  0.4163
   64BDT    BS2  320   1.997   9.487   5.030 -0.4284  0.2314  0.1219
   65BDT   BNZ1  321   3.035  10.700   9.161 -0.0456  0.2170 -0.0246
   65BDT   BNZ2  322   2.978  10.634   9.000  0.1018 -0.1331  0.0616
   65BDT   BNZ3  323   2.787  10.657   9.162 -0.0141  0.0292 -0.0952
   65BDT    BS1  324   2.865  10.728   9.328 -0.1706  0.4027 -0.1850
   65BDT    BS2  325   2.744  10.587   8.983  0.1486 -0.3454  0.0082
   66BDT   BNZ1  326  13.671   7.127  13.486  0.0398 -0.1293  0.0339
   66BDT   BNZ2  327  13.507   7.046  13.481 -0.0302  0.0089  0.0470
   66BDT   BNZ3  328  13.687   6.885  13.553 -0.1649 -0.1355  0.0642
   66BDT    BS1  329  13.855   6.988  13.553 -0.0785 -0.2777  0.0480
   66BDT    BS2  330  13.503   6.814  13.542 -0.2263  0.0200  0.0762
   67BDT   BNZ1  331   5.498   1.601   6.080  0.4218  0.2800  0.0810
   67BDT   BNZ2  332   5.521   1.714   5.938  0.2667 -0.1142 -0.2729
   67BDT   BNZ3  333   5.711   1.549   5.955  0.1696 -0.2153 -0.1606
   67BDT    BS1  334   5.670   1.436   6.111  0.3477  0.2340  0.2204
   67BDT    BS2  335   5.720   1.680   5.807  0.0133 -0.6219 -0.5249
   68BDT   BNZ1  336   5.001   6.557  10.487  0.0144 -0.0458 -0.2201
   68BDT   BNZ2  337   5.085   6.703  10.416  0.3648 -0.1295  0.0102
   68BDT   BNZ3  338   5.117   6.500  10.270  0.2682 -0.0827 -0.0769
   68BDT    BS1  339   5.021   6.354  10.360 -0.1104  0.0118 -0.3280
   68BDT    BS2  340   5.201   6.668  10.209  0.6364 -0.1765  0.1703
   69BDT   BNZ1  341   7.630   0.454   0.047  0.0752 -0.1875 -0.1407
   69BDT   BNZ2  342   7.540   0.475  -0.111 -0.0594  0.0280 -0.0369
   69BDT   BNZ3  343   7.484   0.659   0.052  0.1393 -0.1479  0.2341
   69BDT    BS1  344   7.589   0.621   0.214  0.2729 -0.3751  0.0945
   69BDT    BS2  345   7.395   0.666  -0.125 -0.0144  0.0872  0.3196
   70BDT   BNZ1  346   8.078   3.095   9.806 -0.2343  0.1720  0.0114
   70BDT   BNZ2  347   8.202   3.011   9.700 -0.2582  0.0287  0.0968
   70BDT   BNZ3  348   8.285   3.236   9.776 -0.1208  0.0073  0.0113
   70BDT    BS1  349   8.141   3.312   9.887 -0.1046  0.1673 -0.0774
   70BDT    BS2  350   8.406   3.131   9.661 -0.1573 -0.1393  0.1068
   71BDT   BNZ1  351   9.788  10.038   3.618 -0.2250  0.0337 -0.1694
   71BDT   BNZ2  352   9.640   9.935   3.586 -0.1484 -0.1100 -0.0676
   71BDT   BNZ3  353   9.838   9.855   3.451 -0.1332  0.0101 -0.1167
   71BDT    BS1  354   9.987   9.976   3.497 -0.2211  0.1592 -0.2262
   71BDT    BS2  355   9.669   9.755   3.430 -0.0546 -0.1478 -0.0072
   72BDT   BNZ1  356   0.718   9.951  10.150 -0.1185 -0.0577 -0.0505
   72BDT   BNZ2  357   0.754  10.115  10.222 -0.0601 -0.0629 -0.0673
   72BDT   BNZ3  358   0.822  10.105   9.980  0.0146 -0.1392 -0.0437
   72BDT    BS1  359   0.776   9.924   9.918 -0.0561 -0.1275 -0.0265
   72BDT    BS2  360   0.854  10.276  10.075  0.0687 -0.1390 -0.0629
   73BDT   BNZ1  361   0.077   8.251  12.263  0.0375  0.3972 -0.1236
   73BDT   BNZ2  362   0.083   8.210  12.441 -0.1549 -0.2088 -0.2467
   73BDT   BNZ3  363   0.314   8.244  12.348 -0.0420 -0.0878  0.0727
   73BDT    BS1  364   0.291   8.287  12.157  0.1613  0.5721  0.1982
   73BDT    BS2  365   0.301   8.198  12.540 -0.2525 -0.7222 -0.0907
   74BDT   BNZ1  366   3.986   3.975   5.221  0.0550  0.1318  0.2765
   74BDT   BNZ2  367   4.112   3.843   5.211  0.0657  0.1392  0.3125
   74BDT   BNZ3  368   4.212   4.070   5.162  0.0328  0.1258  0.1797
   74BDT    BS1  369   4.064   4.198   5.177  0.0234  0.1182  0.1501
   74BDT    BS2  370   4.335   3.915   5.156  0.0464  0.1342  0.2278
   75BDT   BNZ1  371   3.680  10.528   5.479 -0.0227 -0.1123 -0.1697
   75BDT   BNZ2  372   3.597  10.496   5.640  0.0555  0.0608 -0.0940
   75BDT   BNZ3  373   3.496  10.357   5.455  0.1218 -0.3179  0.1505
   75BDT    BS1  374   3.596  10.402   5.292  0.0305 -0.4790  0.0519
   75BDT    BS2  375   3.419  10.336   5.636  0.1990 -0.1059  0.2108
   76BDT   BNZ1  376   2.215   8.459   0.778  0.2580  0.1957  0.2309
   76BDT   BNZ2  377   2.240   8.553   0.623 -0.0739 -0.1040 -0.0152
   76BDT   BNZ3  378   2.383   8.346   0.628  0.0531 -0.0136  0.1556
   76BDT    BS1  379   2.344   8.257   0.800  0.4130  0.3175  0.4067
   76BDT    BS2  380   2.398   8.460   0.468 -0.3012 -0.3334 -0.1085
   77BDT   BNZ1  381   4.323  12.865   3.170 -0.1113 -0.1112  0.1655
   77BDT   BNZ2  382   4.360  12.774   3.323 -0.0918  0.0739  0.2727
   77BDT   BNZ3  383   4.555  12.918   3.254  0.0209 -0.2515 -0.1049
   77BDT    BS1  384   4.498  13.009   3.088 -0.0114 -0.4362 -0.1899
   77BDT    BS2  385   4.578  12.811   3.418  0.0295 -0.0366  0.0392
   78BDT   BNZ1  386   5.258   3.255   5.087 -0.2303  0.1698 -0.0985
   78BDT   BNZ2  387   5.236   3.104   5.188 -0.2295  0.0579 -0.2637
   78BDT   BNZ3  388   5.318   3.297   5.328  0.2368 -0.2247 -0.1390
   78BDT    BS1  389   5.337   3.449   5.205  0.1978 -0.0820  0.0294
   78BDT    BS2  390   5.288   3.125   5.421  0.1980 -0.3189 -0.3266
   79BDT   BNZ1  391   9.185   1.874  10.069  0.0261 -0.1030 -0.0904
   79BDT   BNZ2  392   9.214   1.695  10.043  0.0288 -0.1127 -0.0227
   79BDT   BNZ3  393   9.042   1.785   9.882  0.0881 -0.1578 -0.1122
   79BDT    BS1  394   9.023   1.977   9.924  0.0806 -0.1439 -0.1803
   79BDT    BS2  395   9.085   1.593   9.868  0.0863 -0.1643 -0.0348
   80BDT   BNZ1  396   7.079   6.048   3.644  0.0303  0.0623  0.2212
   80BDT   BNZ2  397   6.966   6.174   3.575  0.1085  0.0256  0.0215
   80BDT   BNZ3  398   7.207   6.246   3.555  0.1583 -0.1935 -0.1757
   80BDT    BS1  399   7.313   6.100   3.632  0.0665 -0.1389  0.0626
   80BDT    BS2  400   7.070   6.371   3.485  0.2356 -0.2185 -0.3639
   81BDT   BNZ1  401   4.042   2.574  10.349 -0.1425 -0.0960  0.1996
   81BDT   BNZ2  402   4.024   2.756  10.364  0.0829 -0.0739  0.2149
   81BDT   BNZ3  403   3.977   2.678  10.129  0.0877  0.0169  0.1840
   81BDT    BS1  404   4.000   2.483  10.130 -0.1628 -0.0139  0.1699
   81BDT    BS2  405   3.963   2.872  10.163  0.3207  0.0301  0.2025
   82BDT   BNZ1  406   9.455   9.947   3.232 -0.1505 -0.1635  0.1297
   82BDT   BNZ2  407   9.332   9.842   3.319 -0.1252 -0.1365  0.1980
   82BDT   BNZ3  408   9.392  10.045   3.456 -0.2136 -0.0047  0.0433
   82BDT    BS1  409   9.524  10.146   3.349 -0.2351 -0.0456 -0.0210
   82BDT    BS2  410   9.261   9.921   3.534 -0.1804  0.0118  0.1259
   83BDT   BNZ1  411   8.315   3.308  13.744  0.0088 -0.0544  0.1417
   83BDT   BNZ2  412   8.145   3.367  13.712 -0.0576 -0.3001  0.0234
   83BDT   BNZ3  413   8.145   3.171  13.870  0.1165 -0.2957  0.0298
   83BDT    BS1  414   8.334   3.120  13.893  0.1751 -0.0222  0.1597
   83BDT    BS2  415   7.969   3.249  13.824  0.0363 -0.5506 -0.0930
   84BDT   BNZ1  416  11.253  11.529  11.818 -0.2397 -0.1877  0.0937
   84BDT   BNZ2  417  11.238  11.355  11.874  0.1350 -0.2771 -0.0707
   84BDT   BNZ3  418  11.478  11.432  11.877  0.0089  0.1392 -0.2958
   84BDT    BS1  419  11.475  11.619  11.814 -0.4022  0.2012 -0.0949
   84BDT    BS2  420  11.443  11.246  11.934  0.4025  0.0174 -0.4496
   85BDT   BNZ1  421   4.567   2.356   0.073  0.1202 -0.4303 -0.1772
   85BDT   BNZ2  422   4.502   2.259   0.213 -0.1202  0.0417  0.0480
   85BDT   BNZ3  423   4.315   2.354   0.073  0.1120  0.0463 -0.2623
   85BDT    BS1  424   4.402   2.455  -0.072  0.3584 -0.4846 -0.4784
   85BDT    BS2  425   4.263   2.246   0.230 -0.1509  0.5375 -0.0092
   86BDT   BNZ1  426  11.735   5.642   3.112 -0.0747 -0.1849 -0.0212
   86BDT   BNZ2  427  11.729   5.819   3.066  0.0013 -0.1876 -0.0411
   86BDT   BNZ3  428  11.947   5.761   3.178 -0.0898 -0.2323  0.1143
   86BDT    BS1  429  11.937   5.569   3.221 -0.1676 -0.2254  0.1240
   86BDT    BS2  430  11.924   5.949   3.121 -0.0042 -0.2311  0.0808
   87BDT   BNZ1  431  12.304   2.996   7.509 -0.1674 -0.0674  0.1856
   87BDT   BNZ2  432  12.420   2.895   7.608  0.0139  0.0461  0.0916
   87BDT   BNZ3  433  12.389   2.797   7.378  0.1151  0.1492  0.0335
   87BDT    BS1  434  12.262   2.917   7.286 -0.0947  0.0167  0.1428
   87BDT    BS2  435  12.511   2.701   7.500  0.2917  0.2612 -0.0600
   88BDT   BNZ1  436   3.914  12.225   0.245 -0.3287 -0.3026  0.0770
   88BDT   BNZ2  437   3.859  12.383   0.321  0.1832 -0.2028  0.2607
   88BDT   BNZ3  438   3.711  12.191   0.392 -0.5946  0.2176 -0.1534
   88BDT    BS1  439   3.784  12.031   0.302 -1.1018  0.1030 -0.3195
   88BDT    BS2  440   3.666  12.369   0.465  0.0039  0.3002  0.0687
   89BDT   BNZ1  441   0.591   1.930   4.988 -0.1287 -0.3410  0.0603
   89BDT   BNZ2  442   0.586   1.930   4.806 -0.2113 -0.3278  0.0628
   89BDT   BNZ3  443   0.754   1.764   4.892  0.0556 -0.1107 -0.0322
   89BDT    BS1  444   0.747   1.777   5.089  0.1251 -0.1406 -0.0285
   89BDT    BS2  445   0.734   1.777   4.696 -0.0530 -0.1131 -0.0226
   90BDT   BNZ1  446   4.707   9.373   0.906  0.1585  0.0356  0.1251
   90BDT   BNZ2  447   4.605   9.503   0.827  0.0377 -0.1475 -0.0246
   90BDT   BNZ3  448   4.848   9.571   0.840 -0.0396  0.1316 -0.0150
   90BDT    BS1  449   4.941   9.422   0.927  0.0977  0.3149  0.1491
   90BDT    BS2  450   4.723   9.700   0.757 -0.1589 -0.0815 -0.1702
   91BDT   BNZ1  451  12.577   0.480  13.896  0.3156  0.1893 -0.2014
   91BDT   BNZ2  452  12.501   0.497  13.730 -0.0637 -0.1138 -0.0680
   91BDT   BNZ3  453  12.553   0.256  13.782  0.3310  0.0104  0.1396
   91BDT    BS1  454  12.633   0.255  13.962  0.7161  0.3406 -0.0355
   91BDT    BS2  455  12.470   0.294  13.606 -0.0926 -0.3111  0.2631
   92BDT   BNZ1  456   3.954   0.122  13.248  0.0700 -0.0360 -0.0186
   92BDT   BNZ2  457   3.875   0.285  13.269 -0.0948 -0.0778 -0.2894
   92BDT   BNZ3  458   3.705   0.108  13.214  0.0669 -0.3679  0.1240
   92BDT    BS1  459   3.806  -0.060  13.195  0.2369 -0.2903  0.3942
   92BDT    BS2  460   3.637   0.291  13.240 -0.1146 -0.3842 -0.1887
   93BDT   BNZ1  461   6.276   1.362   0.497 -0.0583  0.0984  0.1763
   93BDT   BNZ2  462   6.290   1.290   0.329  0.0899  0.2046  0.1419
   93BDT   BNZ3  463   6.182   1.129   0.490 -0.0265  0.0910 -0.0484
   93BDT    BS1  464   6.175   1.222   0.663 -0.1814 -0.0180  0.0025
   93BDT    BS2  465   6.206   1.067   0.304  0.1366  0.2110 -0.0686
   94BDT   BNZ1  466   3.692   9.113  12.443 -0.1304  0.1290  0.1013
   94BDT   BNZ2  467   3.794   9.221  12.337  0.1182 -0.0601  0.1430
   94BDT   BNZ3  468   3.769   9.318  12.568  0.0242  0.0906  0.0702
   94BDT    BS1  469   3.657   9.190  12.669 -0.2422  0.2911  0.0272
   94BDT    BS2  470   3.876   9.422  12.439  0.2880 -0.1183  0.1202
   95BDT   BNZ1  471   3.103  11.623   6.760 -0.0742  0.0611  0.0271
   95BDT   BNZ2  472   2.932  11.679   6.794 -0.1186 -0.1361  0.1338
   95BDT   BNZ3  473   2.938  11.438   6.720  0.1215 -0.1613  0.2296
   95BDT    BS1  474   3.127  11.395   6.688  0.1519  0.0613  0.1044
   95BDT    BS2  475   2.760  11.514   6.760  0.0587 -0.3624  0.3322
   96BDT   BNZ1  476  13.625   1.534   3.062  0.0526  0.3567  0.0453
   96BDT   BNZ2  477  13.530   1.685   3.104 -0.1721  0.1748  0.2065
   96BDT   BNZ3  478  13.687   1.621   3.290 -0.0886  0.2007  0.1450
   96BDT    BS1  479  13.780   1.458   3.229  0.1524  0.4035 -0.0284
   96BDT    BS2  480  13.577   1.782   3.318 -0.3263  0.0080  0.3160
   97BDT   BNZ1  481   6.027  12.253   4.530  0.0823  0.0048 -0.2932
   97BDT   BNZ2  482   5.942  12.115   4.446  0.0442 -0.0733 -0.1273
   97BDT   BNZ3  483   6.145  12.034   4.571 -0.0063  0.0114  0.0105
   97BDT    BS1  484   6.224  12.194   4.654  0.0394  0.0926 -0.1844
   97BDT    BS2  485   6.040  11.898   4.474 -0.0411 -0.0736  0.1716
   98BDT   BNZ1  486   3.215   5.515   5.904  0.3370  0.0285  0.0904
   98BDT   BNZ2  487   3.145   5.369   5.819  0.3172  0.0231  0.1162
   98BDT   BNZ3  488   3.168   5.328   6.067  0.2201  0.0994  0.1380
   98BDT    BS1  489   3.244   5.493   6.142  0.2496  0.0997  0.1074
   98BDT    BS2  490   3.093   5.180   5.959  0.2075  0.0878  0.1626
   99BDT   BNZ1  491   1.529  13.470   8.456  0.0579 -0.0171  0.1825
   99BDT   BNZ2  492   1.441  13.499   8.298  0.0298 -0.1470  0.1738
   99BDT   BNZ3  493   1.547  13.711   8.385  0.0104 -0.0664  0.0022
   99BDT    BS1  494   1.636  13.663   8.553  0.0425  0.0710  0.0244
   99BDT    BS2  495   1.448  13.724   8.214 -0.0172 -0.2080  0.0073
  100BDT   BNZ1  496   9.146   9.540   3.315 -0.1521 -0.0261  0.1060
  100BDT   BNZ2  497   9.168   9.572   3.494  0.1280  0.0053  0.0670
  100BDT   BNZ3  498   9.093   9.335   3.451  0.1936 -0.0435  0.2179
  100BDT    BS1  499   9.073   9.319   3.256 -0.1218 -0.0731  0.2505
  100BDT    BS2  500   9.123   9.387   3.640  0.4778 -0.0065  0.1616
  101BDT   BNZ1  501  11.187   7.337  11.400  0.0550  0.1321 -0.4124
  101BDT   BNZ2  502  11.336   7.234  11.424 -0.1353 -0.0698 -0.0730
  101BDT   BNZ3  503  11.214   7.170  11.213  0.2048  0.0357 -0.3053
  101BDT    BS1  504  11.059   7.290  11.202  0.3993  0.2456 -0.6614
  101BDT    BS2  505  11.378   7.068  11.256 -0.0190 -0.1814  0.0658
  102BDT   BNZ1  506   4.872   2.289  10.306 -0.2213  0.0148 -0.0967
  102BDT   BNZ2  507   4.719   2.388  10.301 -0.0997  0.2190  0.1336
  102BDT   BNZ3  508   4.812   2.375  10.535  0.1533 -0.0288  0.0218
  102BDT    BS1  509   4.975   2.266  10.522 -0.0047 -0.2344 -0.2274
  102BDT    BS2  510   4.646   2.479  10.511  0.2603  0.2008  0.2671
  103BDT   BNZ1  511   1.097   5.315   3.185 -0.0608 -0.2183  0.1166
  103BDT   BNZ2  512   0.938   5.225   3.195 -0.1373 -0.0875  0.0849
  103BDT   BNZ3  513   0.951   5.408   3.369  0.0627 -0.2290  0.2206
  103BDT    BS1  514   1.127   5.493   3.344  0.1305 -0.3650  0.2447
  103BDT    BS2  515   0.786   5.300   3.365 -0.0333 -0.0832  0.1761
  104BDT   BNZ1  516  12.814   5.032   1.638  0.0367 -0.1275 -0.1217
  104BDT   BNZ2  517  12.808   5.055   1.820  0.0039  0.1986 -0.1597
  104BDT   BNZ3  518  12.576   5.039   1.723  0.0205  0.0738 -0.1796
  104BDT    BS1  519  12.601   5.015   1.529  0.0555 -0.2780 -0.1322
  104BDT    BS2  520  12.590   5.063   1.918 -0.0145  0.4208 -0.2199
  105BDT   BNZ1  521   8.391   2.681   3.352 -0.3721  0.1343  0.0063
  105BDT   BNZ2  522   8.444   2.846   3.293  0.0081  0.1059  0.2542
  105BDT   BNZ3  523   8.421   2.683   3.102  0.4124  0.2346  0.0901
  105BDT    BS1  524   8.364   2.513   3.182 -0.0415  0.2570 -0.1649
  105BDT    BS2  525   8.479   2.866   3.056  0.7686  0.1846  0.3711
  106BDT   BNZ1  526  10.163   3.663   4.847 -0.1827 -0.0953 -0.0859
  106BDT   BNZ2  527  10.298   3.588   4.749 -0.1170  0.0162 -0.0818
  106BDT   BNZ3  528  10.188   3.776   4.623  0.0091  0.2020  0.0821
  106BDT    BS1  529  10.046   3.845   4.741 -0.0739  0.0630  0.0671
  106BDT    BS2  530  10.337   3.683   4.532  0.0658  0.3016  0.0757
  107BDT   BNZ1  531   4.142  12.502   5.391 -0.0055  0.1048 -0.1055
  107BDT   BNZ2  532   4.058  12.436   5.539 -0.0088  0.1444 -0.0897
  107BDT   BNZ3  533   3.892  12.502   5.362 -0.0032  0.0612 -0.1261
  107BDT    BS1  534   3.998  12.570   5.211  0.0000  0.0236 -0.1405
  107BDT    BS2  535   3.818  12.428   5.530 -0.0070  0.1088 -0.1066
  108BDT   BNZ1  536   0.615   2.499   6.685 -0.1863  0.4325  0.0541
  108BDT   BNZ2  537   0.613   2.431   6.515  0.1118  0.3334  0.0860
  108BDT   BNZ3  538   0.385   2.419   6.622  0.0623 -0.2204 -0.0659
  108BDT    BS1  539   0.405   2.495   6.803 -0.2572 -0.0661 -0.0904
  108BDT    BS2  540   0.401   2.349   6.438  0.3822 -0.2742 -0.0158
  109BDT   BNZ1  541   9.676   9.960  10.583 -0.0275 -0.0510 -0.1608
  109BDT   BNZ2  542   9.826  10.061  10.558 -0.0115 -0.0755 -0.1642
  109BDT   BNZ3  543   9.619  10.187  10.490 -0.0185  0.0596  0.0984
  109BDT    BS1  544   9.468  10.064  10.522 -0.0349  0.0751  0.0823
  109BDT    BS2  545   9.791  10.282  10.470 -0.0005  0.0220  0.0741
  110BDT   BNZ1  546   6.638   4.313   4.428 -0.1089  0.0051  0.0666
  110BDT   BNZ2  547   6.665   4.489   4.385 -0.0103 -0.0070  0.0787
  110BDT   BNZ3  548   6.525   4.466   4.593 -0.1148  0.0560  0.0157
  110BDT    BS1  549   6.505   4.272   4.624 -0.2160  0.0652  0.0069
  110BDT    BS2  550   6.564   4.650   4.533 -0.0042  0.0385  0.0333
  111BDT   BNZ1  551  11.172   2.416   4.777 -0.1212  0.1350  0.1075
  111BDT   BNZ2  552  11.000   2.474   4.801 -0.1769 -0.0015  0.0443
  111BDT   BNZ3  553  11.038   2.397   4.564 -0.0211  0.0515  0.0515
  111BDT    BS1  554  11.226   2.339   4.556  0.0277  0.1994  0.1216
  111BDT    BS2  555  10.857   2.464   4.608 -0.0912 -0.0941 -0.0142
  112BDT   BNZ1  556   9.221  13.697   2.385  0.0806  0.0618 -0.1783
  112BDT   BNZ2  557   9.251  13.842   2.278  0.0965  0.0848 -0.1431
  112BDT   BNZ3  558   9.103  13.673   2.164  0.0976  0.1176 -0.1936
  112BDT    BS1  559   9.081  13.525   2.293  0.0799  0.0897 -0.2289
  112BDT    BS2  560   9.146  13.836   2.062  0.1139  0.1388 -0.1531
  113BDT   BNZ1  561   0.487   1.635   4.430 -0.0726  0.0419  0.0610
  113BDT   BNZ2  562   0.569   1.776   4.347  0.0193 -0.0091  0.0639
  113BDT   BNZ3  563   0.434   1.851   4.547 -0.2624  0.1244 -0.1723
  113BDT    BS1  564   0.354   1.688   4.623 -0.3408  0.1706 -0.1597
  113BDT    BS2  565   0.530   1.992   4.446 -0.1430  0.0602 -0.1521
  114BDT   BNZ1  566   2.750  11.668   0.997  0.0655 -0.0468 -0.3013
  114BDT   BNZ2  567   2.923  11.616   0.975  0.2063  0.3126 -0.0907
  114BDT   BNZ3  568   2.848  11.766   0.787  0.1285  0.1763 -0.1693
  114BDT    BS1  569   2.661  11.813   0.827 -0.0149 -0.2140 -0.3978
  114BDT    BS2  570   3.034  11.700   0.779  0.2765  0.5603  0.0554
  115BDT   BNZ1  571   2.852   6.148  11.140  0.2748  0.1451  0.0269
  115BDT   BNZ2  572   2.702   6.238  11.085  0.0801 -0.1799  0.0123
  115BDT   BNZ3  573   2.731   6.251  11.336  0.0932 -0.0208  0.0032
  115BDT    BS1  574   2.895   6.150  11.377  0.3040  0.3302  0.0183
  115BDT    BS2  575   2.574   6.343  11.259 -0.1067 -0.3715 -0.0105
  116BDT   BNZ1  576  11.184   6.411   8.877 -0.2578  0.2100 -0.2850
  116BDT   BNZ2  577  11.254   6.359   8.716  0.1493 -0.0010 -0.0489
  116BDT   BNZ3  578  11.116   6.175   8.818  0.0611  0.0579 -0.0618
  116BDT    BS1  579  11.049   6.247   8.989 -0.3808  0.2859 -0.3293
  116BDT    BS2  580  11.200   6.137   8.643  0.4863 -0.1623  0.1909
  117BDT   BNZ1  581  11.917  10.665   4.333 -0.0081  0.1314  0.2415
  117BDT   BNZ2  582  11.750  10.696   4.265  0.0879 -0.1019 -0.1173
  117BDT   BNZ3  583  11.742  10.534   4.458 -0.1205  0.0599  0.0129
  117BDT    BS1  584  11.929  10.512   4.518 -0.2188  0.3082  0.3974
  117BDT    BS2  585  11.570  10.579   4.373 -0.0014 -0.1946 -0.3682
  118BDT   BNZ1  586  10.767   6.092   9.200  0.1882 -0.1196 -0.1084
  118BDT   BNZ2  587  10.880   6.160   9.327  0.2057 -0.2011 -0.0801
  118BDT   BNZ3  588  10.936   5.921   9.273  0.0717 -0.2298 -0.0954
  118BDT    BS1  589  10.807   5.864   9.136  0.0626 -0.1367 -0.1255
  118BDT    BS2  590  11.048   6.010   9.409  0.1002 -0.3116 -0.0651
  119BDT   BNZ1  591   9.045   8.157  12.638 -0.0226 -0.2418 -0.0206
  119BDT   BNZ2  592   9.228   8.161  12.643 -0.0256  0.1288 -0.0181
  119BDT   BNZ3  593   9.144   7.999  12.468  0.3132  0.3456 -0.3892
  119BDT    BS1  594   8.948   8.008  12.476  0.2882 -0.0769 -0.3574
  119BDT    BS2  595   9.340   8.016  12.488  0.2725  0.7165 -0.3510
  120BDT   BNZ1  596   9.360  12.697   1.590 -0.0647 -0.0295 -0.2781
  120BDT   BNZ2  597   9.250  12.779   1.469  0.0862 -0.1577 -0.5053
  120BDT   BNZ3  598   9.490  12.850   1.437  0.0614  0.2050  0.0577
  120BDT    BS1  599   9.594  12.754   1.574 -0.1151  0.3211  0.2617
  120BDT    BS2  600   9.356  12.929   1.315  0.2117  0.0424 -0.2242
  121BDT   BNZ1  601   1.168  13.472   1.966  0.0021 -0.1894 -0.2381
  121BDT   BNZ2  602   1.071  13.448   1.813 -0.3406  0.1445 -0.0809
  121BDT   BNZ3  603   1.056  13.686   1.895 -0.0686 -0.0013  0.4105
  121BDT    BS1  604   1.164  13.694   2.059  0.2885 -0.3680  0.1915
  121BDT    BS2  605   0.957  13.642   1.730 -0.4396  0.3505  0.5390
  122BDT   BNZ1  606   7.900   9.433   2.892  0.2830 -0.0988 -0.2259
  122BDT   BNZ2  607   7.730   9.430   2.824  0.0306  0.1512  0.3546
  122BDT   BNZ3  608   7.804   9.200   2.897 -0.0776  0.0524  0.1591
  122BDT    BS1  609   7.986   9.222   2.967  0.1980 -0.2165 -0.4754
  122BDT    BS2  610   7.622   9.215   2.821 -0.3175  0.3203  0.7802
  123BDT   BNZ1  611   3.452   1.431   7.967  0.1392  0.0764 -0.0543
  123BDT   BNZ2  612   3.633   1.421   7.942  0.1643  0.0530  0.1290
  123BDT   BNZ3  613   3.576   1.570   8.137 -0.0118  0.0203  0.1028
  123BDT    BS1  614   3.379   1.570   8.150 -0.0251  0.0484 -0.0991
  123BDT    BS2  615   3.768   1.548   8.096  0.0273 -0.0016  0.2941
  124BDT   BNZ1  616  12.820   9.146   6.905  0.0659  0.1666 -0.1274
  124BDT   BNZ2  617  12.713   9.102   6.763  0.0308  0.0615 -0.0688
  124BDT   BNZ3  618  12.682   9.343   6.830 -0.0888  0.0606 -0.1216
  124BDT    BS1  619  12.803   9.373   6.982 -0.0404  0.1770 -0.1826
  124BDT    BS2  620  12.574   9.278   6.678 -0.1147 -0.0481 -0.0560
  125BDT   BNZ1  621   7.223   2.573   8.455  0.3616 -0.0878  0.1402
  125BDT   BNZ2  622   7.159   2.737   8.502 -0.0859 -0.2205  0.0151
  125BDT   BNZ3  623   7.266   2.742   8.274  0.1297 -0.0519  0.1179
  125BDT    BS1  624   7.329   2.559   8.240  0.6058  0.0920  0.2517
  125BDT    BS2  625   7.191   2.912   8.340 -0.3497 -0.2056 -0.0205
  126BDT   BNZ1  626  10.035  12.141   8.376  0.1264  0.0086  0.0850
  126BDT   BNZ2  627   9.904  12.172   8.499  0.1487  0.0009  0.1107
  126BDT   BNZ3  628  10.133  12.191   8.602  0.1628 -0.2801  0.1345
  126BDT    BS1  629  10.261  12.155   8.457  0.1360 -0.2501  0.1031
  126BDT    BS2  630   9.978  12.221   8.722  0.1837 -0.2654  0.1580
  127BDT   BNZ1  631  12.872   7.041   9.423  0.0134 -0.0200  0.2044
  127BDT   BNZ2  632  12.829   6.871   9.369 -0.2213  0.0813  0.0648
  127BDT   BNZ3  633  12.659   6.962   9.531 -0.0863  0.1774  0.1539
  127BDT    BS1  634  12.720   7.143   9.578  0.1633  0.0544  0.3006
  127BDT    BS2  635  12.628   6.779   9.463 -0.3392  0.2760  0.0026
  128BDT   BNZ1  636   7.680   3.219   9.690  0.2645 -0.0513  0.1346
  128BDT   BNZ2  637   7.652   3.084   9.811  0.1444 -0.1362  0.0139
  128BDT   BNZ3  638   7.467   3.256   9.820  0.3357  0.0621  0.2194
  128BDT    BS1  639   7.513   3.392   9.685  0.4545  0.1374  0.3398
  128BDT    BS2  640   7.453   3.103   9.945  0.1966 -0.0437  0.0788
  129BDT   BNZ1  641   3.880  13.164   0.282 -0.1097  0.0100 -0.0187
  129BDT   BNZ2  642   4.050  13.153   0.216 -0.1859  0.2002 -0.2564
  129BDT   BNZ3  643   3.917  12.945   0.164  0.0042  0.0008  0.0334
  129BDT    BS1  644   3.738  12.974   0.241  0.0817 -0.1941  0.2725
  129BDT    BS2  645   4.104  12.950   0.100 -0.0879  0.2147 -0.2363
  130BDT   BNZ1  646   6.380   4.458  12.369  0.0868  0.2397  0.0341
  130BDT   BNZ2  647   6.550   4.393  12.354 -0.0187  0.0023 -0.1673
  130BDT   BNZ3  648   6.404   4.237  12.488 -0.0530  0.2599  0.1017
  130BDT    BS1  649   6.227   4.321  12.494  0.0741  0.5017  0.3032
  130BDT    BS2  650   6.592   4.182  12.461 -0.1578 -0.0061 -0.1292
  131BDT   BNZ1  651   0.844   9.068  13.262 -0.1766  0.0747 -0.0647
  131BDT   BNZ2  652   0.857   8.973  13.106 -0.1808  0.0583 -0.0551
  131BDT   BNZ3  653   0.751   8.835  13.288  0.1271 -0.0355  0.0545
  131BDT    BS1  654   0.746   8.950  13.448  0.1090 -0.0081  0.0344
  131BDT    BS2  655   0.773   8.748  13.112  0.0987 -0.0429  0.0545
  132BDT   BNZ1  656  11.778  10.110   5.546  0.1278  0.1272  0.0483
  132BDT   BNZ2  657  11.694  10.244   5.454  0.1853  0.0354 -0.1401
  132BDT   BNZ3  658  11.694  10.029   5.323 -0.0977 -0.2100  0.2509
  132BDT    BS1  659  11.787   9.896   5.435 -0.1405 -0.0835  0.4316
  132BDT    BS2  660  11.607  10.185   5.239 -0.0150 -0.2809  0.0271
  133BDT   BNZ1  661   0.569   3.614   9.092 -0.0924 -0.0736  0.1059
  133BDT   BNZ2  662   0.631   3.442   9.105  0.0467 -0.0453 -0.1415
  133BDT   BNZ3  663   0.451   3.462   8.929 -0.1170  0.0250  0.0316
  133BDT    BS1  664   0.397   3.651   8.928 -0.2570 -0.0161  0.2933
  133BDT    BS2  665   0.529   3.282   8.957  0.0403  0.0487 -0.2382
  134BDT   BNZ1  666  11.884   1.141  10.812  0.0910  0.0404  0.2000
  134BDT   BNZ2  667  11.855   1.321  10.817  0.2815  0.0737  0.1549
  134BDT   BNZ3  668  12.023   1.261  10.639  0.3058 -0.1362  0.2475
  134BDT    BS1  669  12.042   1.066  10.647  0.0916 -0.1561  0.2912
  134BDT    BS2  670  11.979   1.453  10.659  0.5003 -0.0861  0.1941
  135BDT   BNZ1  671   3.446   5.583   4.854  0.0849  0.1367  0.0271
  135BDT   BNZ2  672   3.300   5.504   4.931  0.0879 -0.0545 -0.1586
  135BDT   BNZ3  673   3.245   5.734   4.843 -0.0077  0.0181  0.0869
  135BDT    BS1  674   3.411   5.803   4.764 -0.0066  0.2223  0.2759
  135BDT    BS2  675   3.098   5.634   4.930  0.0034 -0.1862 -0.1249
  136BDT   BNZ1  676   2.085   7.700   2.866 -0.2428  0.3160  0.1879
  136BDT   BNZ2  677   2.045   7.832   2.746  0.1439  0.0981 -0.1942
  136BDT   BNZ3  678   1.987   7.605   2.653  0.2976 -0.0627  0.0977
  136BDT    BS1  679   2.035   7.476   2.794 -0.1435  0.1993  0.4973
  136BDT    BS2  680   1.951   7.761   2.537  0.6893 -0.2817 -0.3101
  137BDT   BNZ1  681  12.752   1.992  13.204 -0.2286 -0.1009 -0.1627
  137BDT   BNZ2  682  12.785   2.024  13.027  0.2738 -0.1241 -0.0811
  137BDT   BNZ3  683  12.800   1.778  13.080  0.0952 -0.1205 -0.0105
  137BDT    BS1  684  12.762   1.761  13.272 -0.4470 -0.0931 -0.1150
  137BDT    BS2  685  12.833   1.831  12.892  0.6282 -0.1456  0.0742
  138BDT   BNZ1  686   7.205   7.037   3.237  0.1268  0.1513  0.0588
  138BDT   BNZ2  687   7.081   7.172   3.232  0.0078  0.0423  0.0353
  138BDT   BNZ3  688   6.980   6.959   3.321  0.2018 -0.0242  0.0986
  138BDT    BS1  689   7.125   6.826   3.320  0.3186  0.1032  0.1195
  138BDT    BS2  690   6.861   7.116   3.308  0.0635 -0.1312  0.0689
  139BDT   BNZ1  691  11.876   0.805  10.451  0.1590 -0.3022 -0.1140
  139BDT   BNZ2  692  11.713   0.783  10.369  0.1066  0.1071 -0.1332
  139BDT   BNZ3  693  11.903   0.731  10.212 -0.0013 -0.2328 -0.1547
  139BDT    BS1  694  12.068   0.760  10.314  0.0559 -0.6618 -0.1357
  139BDT    BS2  695  11.720   0.712  10.140 -0.0465  0.2184 -0.1720
  140BDT   BNZ1  696  12.147   5.584   9.815 -0.0107 -0.1374  0.0569
  140BDT   BNZ2  697  12.317   5.575   9.881 -0.0270 -0.0327  0.1146
  140BDT   BNZ3  698  12.166   5.407   9.994  0.0360 -0.1219  0.0674
  140BDT    BS1  699  11.988   5.431   9.911  0.0503 -0.2311  0.0074
  140BDT    BS2  700  12.354   5.412  10.053  0.0140 -0.0063  0.1308
  141BDT   BNZ1  701  12.687  10.717   7.251  0.1676  0.0407  0.2101
  141BDT   BNZ2  702  12.605  10.567   7.185 -0.0961  0.2143  0.1340
  141BDT   BNZ3  703  12.854  10.560   7.146 -0.1123 -0.1756  0.0800
  141BDT    BS1  704  12.925  10.727   7.222  0.1774 -0.3412  0.1675
  141BDT    BS2  705  12.749  10.406   7.081 -0.3851  0.0377  0.0070
  142BDT   BNZ1  706   0.874   5.805  14.004  0.2409 -0.0966 -0.2858
  142BDT   BNZ2  707   0.962   5.965  13.987  0.1524  0.0181  0.2437
  142BDT   BNZ3  708   1.116   5.784  14.073  0.1662 -0.0960 -0.0164
  142BDT    BS1  709   1.007   5.621  14.085  0.2695 -0.2031 -0.5851
  142BDT    BS2  710   1.194   5.964  14.048  0.0712  0.0279  0.5528
  143BDT   BNZ1  711   3.199   4.789  13.503 -0.2688  0.3959 -0.0022
  143BDT   BNZ2  712   3.154   4.871  13.660 -0.1509  0.1478  0.1636
  143BDT   BNZ3  713   2.962   4.875  13.498 -0.3427  0.2268  0.3888
  143BDT    BS1  714   3.027   4.784  13.335 -0.4571  0.4965  0.1902
  143BDT    BS2  715   2.932   4.959  13.674 -0.2020 -0.0385  0.5392
  144BDT   BNZ1  716  12.237   7.451   2.411  0.0331  0.0114  0.2091
  144BDT   BNZ2  717  12.273   7.618   2.345  0.0374 -0.0746 -0.0102
  144BDT   BNZ3  718  12.396   7.440   2.216  0.0018 -0.2520  0.1964
  144BDT    BS1  719  12.347   7.268   2.299 -0.0004 -0.1402  0.4236
  144BDT    BS2  720  12.422   7.627   2.158  0.0083 -0.3266 -0.0462
  145BDT   BNZ1  721   4.597   9.012   0.921 -0.0093 -0.0403  0.0429
  145BDT   BNZ2  722   4.756   9.025   0.831  0.1471  0.3070  0.3588
  145BDT   BNZ3  723   4.565   9.112   0.692  0.2380 -0.0460  0.0044
  145BDT    BS1  724   4.403   9.090   0.802  0.0718 -0.4039 -0.3247
  145BDT    BS2  725   4.745   9.119   0.611  0.3942  0.3412  0.3609
  146BDT   BNZ1  726  10.729   3.700  11.129  0.2236  0.3770  0.1307
  146BDT   BNZ2  727  10.846   3.582  11.052 -0.2950 -0.0419 -0.0435
  146BDT   BNZ3  728  10.740   3.731  10.879 -0.4327 -0.0455  0.0372
  146BDT    BS1  729  10.619   3.851  10.978  0.1577  0.4145  0.2254
  146BDT    BS2  730  10.869   3.597  10.814 -0.9712 -0.4656 -0.1367
  147BDT   BNZ1  731   6.834   3.333   9.613  0.1221 -0.1616  0.0398
  147BDT   BNZ2  732   6.919   3.472   9.698 -0.0376 -0.0523  0.0231
  147BDT   BNZ3  733   6.678   3.454   9.769 -0.1394 -0.0390 -0.3107
  147BDT    BS1  734   6.603   3.302   9.669  0.0479 -0.1625 -0.2682
  147BDT    BS2  735   6.785   3.599   9.851 -0.2949  0.0702 -0.3035
  148BDT   BNZ1  736   7.384   8.589  12.217  0.0765  0.1307  0.0282
  148BDT   BNZ2  737   7.419   8.409  12.221 -0.1067  0.0877 -0.2173
  148BDT   BNZ3  738   7.578   8.530  12.067 -0.0086  0.1321 -0.0825
  148BDT    BS1  739   7.527   8.720  12.074  0.1879  0.1723  0.1796
  148BDT    BS2  740   7.601   8.334  12.083 -0.2063  0.0852 -0.3473
  149BDT   BNZ1  741   2.481   2.611   2.566 -0.2893 -0.0243 -0.0786
  149BDT   BNZ2  742   2.611   2.573   2.443 -0.0761  0.0339  0.1261
  149BDT   BNZ3  743   2.583   2.822   2.474 -0.1606  0.0203  0.1616
  149BDT    BS1  744   2.441   2.845   2.608 -0.3893 -0.0440 -0.0697
  149BDT    BS2  745   2.720   2.762   2.344  0.0645  0.0817  0.3726
  150BDT   BNZ1  746   1.662   6.119   5.496 -0.1562 -0.0855 -0.4417
  150BDT   BNZ2  747   1.689   6.013   5.349 -0.1416 -0.3445 -0.2564
  150BDT   BNZ3  748   1.730   5.885   5.562  0.1370  0.1095 -0.0302
  150BDT    BS1  749   1.698   6.012   5.709  0.0986  0.3631 -0.2610
  150BDT    BS2  750   1.754   5.786   5.392  0.1281 -0.1906  0.1402
  151BDT   BNZ1  751  10.709   2.785   0.646 -0.1320 -0.0853 -0.1333
  151BDT   BNZ2  752  10.560   2.714   0.725 -0.1086 -0.0403 -0.0484
  151BDT   BNZ3  753  10.648   2.912   0.855  0.1287 -0.1759  0.0014
  151BDT    BS1  754  10.806   2.975   0.757  0.0844 -0.2165 -0.0979
  151BDT    BS2  755  10.486   2.823   0.926  0.1339 -0.1193  0.0837
  152BDT   BNZ1  756   0.401   1.497   4.106 -0.0101 -0.1214  0.3273
  152BDT   BNZ2  757   0.574   1.508   4.047 -0.1250 -0.2208 -0.0447
  152BDT   BNZ3  758   0.435   1.696   3.956 -0.2149 -0.1361  0.2603
  152BDT    BS1  759   0.254   1.670   4.028 -0.0723 -0.0324  0.6471
  152BDT    BS2  760   0.625   1.692   3.903 -0.3272 -0.2465 -0.1485
  153BDT   BNZ1  761  12.031  13.710  11.568 -0.2262 -0.2312  0.1791
  153BDT   BNZ2  762  11.926  13.756  11.425  0.0317  0.0602  0.0799
  153BDT   BNZ3  763  11.797  13.770  11.641 -0.2012  0.1819 -0.0660
  153BDT    BS1  764  11.922  13.718  11.783 -0.4693 -0.1504  0.0516
  153BDT    BS2  765  11.700  13.817  11.475  0.0899  0.4713 -0.1533
  154BDT   BNZ1  766   4.785  11.990   1.554 -0.0091  0.0131  0.1530
  154BDT   BNZ2  767   4.953  12.011   1.624  0.0531 -0.3917  0.1396
  154BDT   BNZ3  768   4.960  11.889   1.403 -0.2310 -0.0629 -0.0570
  154BDT    BS1  769   4.773  11.875   1.343 -0.2696  0.3633 -0.0211
  154BDT    BS2  770   5.133  11.921   1.493 -0.1439 -0.5072 -0.0528
  155BDT   BNZ1  771  10.599  11.724  12.854 -0.1844  0.0910 -0.0842
  155BDT   BNZ2  772  10.716  11.649  12.974 -0.2324  0.2539  0.0662
  155BDT   BNZ3  773  10.824  11.838  12.847 -0.0036 -0.2741 -0.5563
  155BDT    BS1  774  10.686  11.907  12.724  0.0311 -0.4252 -0.6652
  155BDT    BS2  775  10.935  11.746  12.982 -0.0746 -0.0726 -0.3423
  156BDT   BNZ1  776   1.091   8.584  13.148  0.2299 -0.1257  0.1687
  156BDT   BNZ2  777   1.182   8.624  12.994  0.1115 -0.0968  0.1055
  156BDT   BNZ3  778   1.193   8.814  13.158 -0.2229  0.0939 -0.0863
  156BDT    BS1  779   1.092   8.756  13.316 -0.0679  0.0423 -0.0015
  156BDT    BS2  780   1.286   8.840  12.986 -0.3211  0.1032 -0.1349
  157BDT   BNZ1  781   7.656   8.919  12.464 -0.1213 -0.0603 -0.3092
  157BDT   BNZ2  782   7.790   8.822  12.387 -0.2612 -0.0314 -0.5944
  157BDT   BNZ3  783   7.579   8.686  12.407 -0.1682 -0.1077 -0.0583
  157BDT    BS1  784   7.446   8.805  12.491 -0.0107 -0.1368  0.2127
  157BDT    BS2  785   7.735   8.597  12.325 -0.3153 -0.0717 -0.3986
  158BDT   BNZ1  786   8.991   5.419   0.414 -0.0773  0.0841 -0.0691
  158BDT   BNZ2  787   9.003   5.257   0.497 -0.1592  0.1046 -0.0169
  158BDT   BNZ3  788   9.038   5.445   0.660  0.1248  0.1359 -0.1125
  158BDT    BS1  789   9.023   5.611   0.556  0.1936  0.1089 -0.1635
  158BDT    BS2  790   9.047   5.262   0.733  0.0168  0.1532 -0.0514
  159BDT   BNZ1  791  11.288   6.481   8.392  0.1289 -0.0886 -0.0394
  159BDT   BNZ2  792  11.456   6.421   8.432  0.1213 -0.1771 -0.1379
  159BDT   BNZ3  793  11.307   6.232   8.358 -0.0747 -0.1281  0.1244
  159BDT    BS1  794  11.132   6.313   8.320 -0.0487 -0.0327  0.2143
  159BDT    BS2  795  11.493   6.185   8.405 -0.0654 -0.2222  0.0017
  160BDT   BNZ1  796   4.233   4.292  11.375  0.0516  0.0186 -0.1899
  160BDT   BNZ2  797   4.277   4.448  11.290 -0.1129  0.1668 -0.0080
  160BDT   BNZ3  798   4.047   4.462  11.392 -0.1307 -0.1979  0.0062
  160BDT    BS1  799   4.016   4.287  11.478  0.0560 -0.3316 -0.1992
  160BDT    BS2  800   4.111   4.622  11.296 -0.2978 -0.0167  0.1932
  161BDT   BNZ1  801   1.494   5.604  12.089  0.1293  0.1307 -0.1583
  161BDT   BNZ2  802   1.514   5.422  12.072 -0.3826  0.0601 -0.0937
  161BDT   BNZ3  803   1.549   5.496  12.310 -0.3828  0.0165 -0.0801
  161BDT    BS1  804   1.524   5.691  12.311  0.1855  0.0938 -0.1548
  161BDT    BS2  805   1.567   5.303  12.273 -0.9137 -0.0417 -0.0147
  162BDT   BNZ1  806   2.913   0.117   7.983  0.0242  0.2099 -0.3238
  162BDT   BNZ2  807   2.929  -0.045   7.899 -0.1229  0.1123 -0.1679
  162BDT   BNZ3  808   2.691  -0.000   7.966 -0.0157  0.2047  0.1630
  162BDT    BS1  809   2.691   0.176   8.054  0.1425  0.3065 -0.0359
  162BDT    BS2  810   2.727  -0.171   7.874 -0.1737  0.1000  0.2987
  163BDT   BNZ1  811   7.894   1.671   8.608 -0.0551 -0.1148  0.1370
  163BDT   BNZ2  812   7.874   1.553   8.470 -0.2510 -0.1370  0.1826
  163BDT   BNZ3  813   7.727   1.755   8.439  0.3848  0.3000 -0.1060
  163BDT    BS1  814   7.760   1.871   8.594  0.5592  0.2791 -0.1360
  163BDT    BS2  815   7.718   1.616   8.298  0.1368  0.2314 -0.0352
  164BDT   BNZ1  816   1.198   6.106  12.364 -0.2051  0.0736 -0.2339
  164BDT   BNZ2  817   1.289   5.966  12.289  0.0894  0.1417 -0.0109
  164BDT   BNZ3  818   1.410   6.185  12.254 -0.0346  0.2468  0.2057
  164BDT    BS1  819   1.299   6.323  12.340 -0.3529  0.1604 -0.0583
  164BDT    BS2  820   1.495   6.023  12.179  0.2749  0.3122  0.4222
  165BDT   BNZ1  821   1.909   0.476   9.698  0.0582 -0.0070  0.0091
  165BDT   BNZ2  822   1.822   0.637   9.685 -0.0262 -0.0421  0.1330
  165BDT   BNZ3  823   1.865   0.538   9.457 -0.0557  0.1115  0.0598
  165BDT    BS1  824   1.958   0.367   9.489  0.0396  0.1398 -0.0717
  165BDT    BS2  825   1.772   0.712   9.463 -0.1406  0.0627  0.1945
  166BDT   BNZ1  826  13.202   0.042   6.597  0.0592  0.1379  0.1331
  166BDT   BNZ2  827  13.218  -0.013   6.770 -0.1305  0.0540  0.1248
  166BDT   BNZ3  828  13.040  -0.144   6.648  0.1168 -0.0037 -0.1817
  166BDT    BS1  829  13.036  -0.072   6.465  0.3104  0.0950 -0.1459
  166BDT    BS2  830  13.071  -0.191   6.838 -0.0975 -0.0841 -0.1650
  167BDT   BNZ1  831   5.611   2.363  11.704  0.0467 -0.1523  0.0032
  167BDT   BNZ2  832   5.515   2.497  11.624  0.2581  0.0440  0.0737
  167BDT   BNZ3  833   5.589   2.325  11.456 -0.0426 -0.0029 -0.0132
  167BDT    BS1  834   5.690   2.189  11.558 -0.2569 -0.2127 -0.0864
  167BDT    BS2  835   5.485   2.477  11.387  0.2003  0.2045  0.0675
  168BDT   BNZ1  836   1.578   4.934  11.746 -0.2079 -0.2340 -0.0822
  168BDT   BNZ2  837   1.553   5.082  11.850  0.0868 -0.1213 -0.1652
  168BDT   BNZ3  838   1.338   4.954  11.818 -0.1124  0.1301  0.1439
  168BDT    BS1  839   1.382   4.800  11.705 -0.4215 -0.0099  0.2144
  168BDT    BS2  840   1.329   5.118  11.929  0.2121  0.2256  0.0317
  169BDT   BNZ1  841   6.489   1.878   0.826  0.5251  0.1895 -0.2786
  169BDT   BNZ2  842   6.507   1.762   0.686  0.2190 -0.0209 -0.1485
  169BDT   BNZ3  843   6.287   1.885   0.676  0.1566 -0.0998  0.1899
  169BDT    BS1  844   6.284   2.004   0.832  0.5053  0.1393  0.0220
  169BDT    BS2  845   6.323   1.754   0.531 -0.1516 -0.3057  0.3065
  170BDT   BNZ1  846   6.856  10.717   3.784 -0.0964  0.1850  0.1443
  170BDT   BNZ2  847   6.700  10.725   3.687  0.0325  0.0073 -0.0840
  170BDT   BNZ3  848   6.818  10.948   3.690 -0.0487  0.0521 -0.2106
  170BDT    BS1  849   6.981  10.922   3.797 -0.1868  0.2451  0.0521
  170BDT    BS2  850   6.648  10.938   3.590  0.0949 -0.1365 -0.4338
  171BDT   BNZ1  851   8.869  10.784   6.534 -0.0340 -0.0561  0.1563
  171BDT   BNZ2  852   8.964  10.733   6.682  0.2136 -0.0405  0.0052
  171BDT   BNZ3  853   9.033  10.601   6.479 -0.1148 -0.0517 -0.1019
  171BDT    BS1  854   8.923  10.668   6.330 -0.3626 -0.0684  0.0787
  171BDT    BS2  855   9.126  10.559   6.648  0.1672 -0.0337 -0.2487
  172BDT   BNZ1  856   5.507  12.241   8.367 -0.1570  0.1557  0.1138
  172BDT   BNZ2  857   5.345  12.163   8.400 -0.1361  0.1251  0.1434
  172BDT   BNZ3  858   5.536  12.011   8.466 -0.0941  0.1007 -0.0317
  172BDT    BS1  859   5.700  12.110   8.424 -0.1212  0.1369 -0.0511
  172BDT    BS2  860   5.353  11.942   8.494 -0.0765  0.0714  0.0130
  173BDT   BNZ1  861  13.038   7.022  10.942 -0.1552  0.0645 -0.0168
  173BDT   BNZ2  862  13.133   7.056  10.789 -0.2936  0.1842 -0.0777
  173BDT   BNZ3  863  13.179   7.230  10.966  0.0082 -0.0579  0.0857
  173BDT    BS1  864  13.070   7.179  11.122  0.1398 -0.1729  0.1362
  173BDT    BS2  865  13.274   7.250  10.794 -0.1589  0.0844  0.0064
  174BDT   BNZ1  866   8.687  13.821   1.120  0.1250  0.0841 -0.1326
  174BDT   BNZ2  867   8.756  13.988   1.154  0.1768  0.0320  0.0246
  174BDT   BNZ3  868   8.848  13.816   1.314  0.0298 -0.1252 -0.0578
  174BDT    BS1  869   8.764  13.645   1.264 -0.0162 -0.0534 -0.2263
  174BDT    BS2  870   8.912  14.002   1.336  0.0945 -0.1668  0.1105
  175BDT   BNZ1  871   1.985   2.079  13.551 -0.0067  0.1250 -0.0675
  175BDT   BNZ2  872   1.996   2.126  13.375  0.0358 -0.0901 -0.1230
  175BDT   BNZ3  873   1.766   2.172  13.467  0.0281  0.0702 -0.2200
  175BDT    BS1  874   1.772   2.116  13.656 -0.0180  0.2970 -0.1532
  175BDT    BS2  875   1.796   2.216  13.277  0.0730 -0.1655 -0.2692
  176BDT   BNZ1  876   7.872   3.534   2.525  0.1071  0.0178  0.0076
  176BDT   BNZ2  877   7.789   3.441   2.659 -0.0127  0.2073  0.0675
  176BDT   BNZ3  878   7.699   3.375   2.432  0.0087  0.0711  0.0983
  176BDT    BS1  879   7.798   3.484   2.301  0.1390 -0.1298  0.0312
  176BDT    BS2  880   7.621   3.284   2.589 -0.1164  0.2787  0.1572
  177BDT   BNZ1  881   8.424  10.270   7.748  0.0042  0.3194  0.1281
  177BDT   BNZ2  882   8.480  10.233   7.918 -0.1884 -0.1126  0.1042
  177BDT   BNZ3  883   8.295  10.404   7.918 -0.0345  0.0565  0.3086
  177BDT    BS1  884   8.247  10.432   7.730  0.1707  0.5205  0.3277
  177BDT    BS2  885   8.368  10.351   8.094 -0.2470 -0.4038  0.2634
  178BDT   BNZ1  886  11.169   9.152   0.482  0.1136  0.0435 -0.1135
  178BDT   BNZ2  887  11.262   9.073   0.346  0.1324  0.0260 -0.0906
  178BDT   BNZ3  888  11.087   8.917   0.439 -0.0145  0.1086 -0.2267
  178BDT    BS1  889  10.997   9.017   0.583 -0.0233  0.1223 -0.2419
  178BDT    BS2  890  11.197   8.849   0.290  0.0176  0.0845 -0.1923
  179BDT   BNZ1  891  10.990   2.858   2.305  0.1366  0.0062 -0.0366
  179BDT   BNZ2  892  10.841   2.962   2.326  0.1594  0.0189  0.0632
  179BDT   BNZ3  893  10.845   2.774   2.493  0.0883 -0.1796 -0.1556
  179BDT    BS1  894  11.010   2.673   2.457  0.0678 -0.1768 -0.2503
  179BDT    BS2  895  10.691   2.897   2.501  0.1172 -0.1491 -0.0356
  180BDT   BNZ1  896   3.895   8.523   6.668  0.3083 -0.0059  0.1016
  180BDT   BNZ2  897   3.898   8.692   6.739  0.4741  0.0012  0.0814
  180BDT   BNZ3  898   3.853   8.697   6.491 -0.0290 -0.0180  0.1665
  180BDT    BS1  899   3.854   8.509   6.432 -0.1734 -0.0213  0.1874
  180BDT    BS2  900   3.859   8.871   6.584  0.1840 -0.0079  0.1431
  181BDT   BNZ1  901  11.264   5.894   7.161  0.0089  0.0775 -0.2281
  181BDT   BNZ2  902  11.190   6.057   7.122  0.0238  0.1898  0.1910
  181BDT   BNZ3  903  11.033   5.915   7.259  0.0557 -0.1073 -0.0760
  181BDT    BS1  904  11.128   5.745   7.291  0.0334 -0.1991 -0.5232
  181BDT    BS2  905  10.969   6.094   7.208  0.0695  0.0332  0.3786
  182BDT   BNZ1  906  11.612   0.887   2.110 -0.1514 -0.0403  0.1192
  182BDT   BNZ2  907  11.519   1.017   2.199 -0.0326  0.0418  0.1251
  182BDT   BNZ3  908  11.668   1.116   2.022 -0.1959 -0.1130 -0.1030
  182BDT    BS1  909  11.760   0.965   1.937 -0.3169 -0.1918 -0.0900
  182BDT    BS2  910  11.559   1.242   2.129 -0.0609 -0.0160 -0.0770
  183BDT   BNZ1  911   2.387  11.670   1.207 -0.2724 -0.0907  0.0823
  183BDT   BNZ2  912   2.313  11.630   1.370 -0.0640 -0.3174  0.1243
  183BDT   BNZ3  913   2.391  11.422   1.251  0.2299 -0.1122 -0.0504
  183BDT    BS1  914   2.467  11.482   1.079 -0.0251  0.1270 -0.0818
  183BDT    BS2  915   2.308  11.398   1.429  0.4226 -0.3588  0.0040
  184BDT   BNZ1  916   6.960   3.414   4.907 -0.0751 -0.1595  0.0081
  184BDT   BNZ2  917   6.811   3.468   4.998 -0.0337  0.1911 -0.1224
  184BDT   BNZ3  918   7.008   3.444   5.153 -0.1160  0.1654 -0.0208
  184BDT    BS1  919   7.159   3.386   5.040 -0.1592 -0.2206  0.1177
  184BDT    BS2  920   6.837   3.501   5.234 -0.0632  0.5288 -0.1667
  185BDT   BNZ1  921   8.777   6.462   4.745  0.4069 -0.0309 -0.2851
  185BDT   BNZ2  922   8.808   6.637   4.790  0.3513 -0.0528 -0.1602
  185BDT   BNZ3  923   8.836   6.485   4.990  0.3236 -0.1774 -0.2509
  185BDT    BS1  924   8.800   6.303   4.924  0.3875 -0.1428 -0.3827
  185BDT    BS2  925   8.865   6.678   5.020  0.2682 -0.1903 -0.1149
  186BDT   BNZ1  926   0.002   2.646   4.460 -0.1474  0.1063 -0.2634
  186BDT   BNZ2  927   0.180   2.636   4.503 -0.2210 -0.0377  0.0205
  186BDT   BNZ3  928   0.130   2.842   4.366  0.1386  0.0806  0.0626
  186BDT    BS1  929  -0.063   2.837   4.329  0.1954  0.2287 -0.2535
  186BDT    BS2  930   0.318   2.815   4.421  0.0301 -0.0802  0.3536
  187BDT   BNZ1  931   3.543   0.038  14.004  0.1180 -0.1486 -0.0121
  187BDT   BNZ2  932   3.366   0.022  13.963  0.1226  0.0509 -0.1133
  187BDT   BNZ3  933   3.435  -0.147  14.136 -0.1493 -0.0754 -0.1259
  187BDT    BS1  934   3.627  -0.117  14.168 -0.1355 -0.2860 -0.0141
  187BDT    BS2  935   3.245  -0.149  14.080 -0.1216  0.1424 -0.2304
  188BDT   BNZ1  936   4.696  13.888   2.435 -0.0219  0.0582  0.1137
  188BDT   BNZ2  937   4.781  13.954   2.583  0.1246  0.0417  0.0371
  188BDT   BNZ3  938   4.701  13.718   2.621  0.3579 -0.0424  0.0158
  188BDT    BS1  939   4.612  13.664   2.454  0.1768 -0.0165  0.1000
  188BDT    BS2  940   4.796  13.806   2.771  0.4892 -0.0520 -0.0652
  189BDT   BNZ1  941  10.931  11.727  12.178  0.0059  0.0289  0.0422
  189BDT   BNZ2  942  10.929  11.592  12.055 -0.1893  0.1422 -0.0801
  189BDT   BNZ3  943  10.701  11.626  12.158 -0.0252  0.0396  0.3242
  189BDT    BS1  944  10.722  11.773  12.287  0.1809 -0.0823  0.4241
  189BDT    BS2  945  10.717  11.483  12.022 -0.2382  0.1636  0.1628
  190BDT   BNZ1  946   1.081   5.571   2.701 -0.0994 -0.1578 -0.0041
  190BDT   BNZ2  947   0.951   5.444   2.722 -0.0092 -0.2776 -0.1605
  190BDT   BNZ3  948   1.165   5.375   2.835 -0.0709 -0.0936  0.0723
  190BDT    BS1  949   1.293   5.521   2.804 -0.1696  0.0228  0.2279
  190BDT    BS2  950   1.013   5.249   2.847  0.0260 -0.2330 -0.1086
  191BDT   BNZ1  951   1.017   5.183   1.858  0.0769 -0.1681  0.1256
  191BDT   BNZ2  952   1.007   5.107   1.692 -0.1683 -0.1315  0.1205
  191BDT   BNZ3  953   0.979   4.934   1.873  0.0354 -0.1620  0.1240
  191BDT    BS1  954   0.992   5.031   2.043  0.2916 -0.2017  0.1259
  191BDT    BS2  955   0.972   4.869   1.686 -0.2348 -0.1215  0.1185
  192BDT   BNZ1  956   8.340  13.131   5.089 -0.0728  0.1822  0.2288
  192BDT   BNZ2  957   8.348  13.180   4.913 -0.1122 -0.0782  0.1525
  192BDT   BNZ3  958   8.487  13.333   5.057 -0.1880  0.2186 -0.0848
  192BDT    BS1  959   8.468  13.267   5.241 -0.1395  0.4841  0.0137
  192BDT    BS2  960   8.484  13.371   4.863 -0.2239 -0.0766 -0.1450
  193BDT   BNZ1  961   7.767  11.917  11.149  0.0274 -0.1164 -0.2496
  193BDT   BNZ2  962   7.677  11.923  10.989  0.2890 -0.3363 -0.4107
  193BDT   BNZ3  963   7.819  11.715  11.007  0.7029 -0.0390 -0.1320
  193BDT    BS1  964   7.908  11.725  11.182  0.3762  0.1885  0.0249
  193BDT    BS2  965   7.714  11.738  10.841  0.9399 -0.2843 -0.3142
  194BDT   BNZ1  966   1.590   5.175   2.876  0.0837  0.1405  0.0013
  194BDT   BNZ2  967   1.603   5.218   2.698 -0.0369 -0.2342 -0.1040
  194BDT   BNZ3  968   1.811   5.102   2.780 -0.0554 -0.2279 -0.0474
  194BDT    BS1  969   1.780   5.063   2.970  0.0794  0.1885  0.0618
  194BDT    BS2  970   1.808   5.156   2.590 -0.1798 -0.6171 -0.1548
  195BDT   BNZ1  971   7.853   1.037   4.531 -0.3969 -0.2356 -0.4865
  195BDT   BNZ2  972   7.797   0.905   4.645  0.1668  0.1143  0.2330
  195BDT   BNZ3  973   7.640   1.102   4.649 -0.1096 -0.0971 -0.0301
  195BDT    BS1  974   7.714   1.233   4.522 -0.7251 -0.4965 -0.7846
  195BDT    BS2  975   7.595   0.950   4.767  0.5017  0.2949  0.7240
  196BDT   BNZ1  976  11.125   2.942   0.429 -0.0038  0.0728 -0.2477
  196BDT   BNZ2  977  11.291   2.936   0.506  0.0271  0.1648 -0.3060
  196BDT   BNZ3  978  11.156   3.129   0.596 -0.1480 -0.0689 -0.0601
  196BDT    BS1  979  10.982   3.121   0.504 -0.1658 -0.1547 -0.0144
  196BDT    BS2  980  11.338   3.107   0.668 -0.0999  0.0435 -0.1409
  197BDT   BNZ1  981   4.442   6.731   0.363 -0.0503 -0.1928  0.0575
  197BDT   BNZ2  982   4.407   6.620   0.221 -0.2162  0.0038 -0.0590
  197BDT   BNZ3  983   4.253   6.573   0.415 -0.0714 -0.1827  0.0123
  197BDT    BS1  984   4.304   6.699   0.557  0.1007 -0.3893  0.1321
  197BDT    BS2  985   4.230   6.462   0.253 -0.2547  0.0359 -0.1142
  198BDT   BNZ1  986   2.197   4.547   7.311  0.1424 -0.0842  0.3256
  198BDT   BNZ2  987   2.305   4.406   7.268  0.0198 -0.1103  0.0955
  198BDT   BNZ3  988   2.062   4.346   7.240 -0.0310  0.1670 -0.0768
  198BDT    BS1  989   1.961   4.508   7.290  0.1112  0.1769  0.1927
  198BDT    BS2  990   2.194   4.205   7.198 -0.1539  0.1230 -0.2990
  199BDT   BNZ1  991   3.571   8.132   7.516  0.1470 -0.2168 -0.1913
  199BDT   BNZ2  992   3.694   8.065   7.634 -0.2116  0.0102  0.3291
  199BDT   BNZ3  993   3.754   8.299   7.562 -0.0193 -0.1098  0.0904
  199BDT    BS1  994   3.613   8.355   7.437  0.3766 -0.3594 -0.4563
  199BDT    BS2  995   3.876   8.211   7.690 -0.4108  0.1374  0.6433
  200BDT   BNZ1  996   8.102   0.737   6.824  0.1702 -0.0151  0.0847
  200BDT   BNZ2  997   8.052   0.568   6.774  0.2428  0.0034 -0.0524
  200BDT   BNZ3  998   7.925   0.644   6.978  0.2459 -0.2355  0.0402
  200BDT    BS1  999   7.990   0.826   7.018  0.1655 -0.2387  0.1840
  200BDT    BS2 1000   7.885   0.463   6.910  0.3215 -0.1968 -0.1100
  201BDT   BNZ1 1001  13.629   9.911  12.560 -0.1182  0.0511  0.0512
  201BDT   BNZ2 1002  13.809   9.928  12.536 -0.1217 -0.1256 -0.1151
  201BDT   BNZ3 1003  13.751   9.703  12.632 -0.2478 -0.0369  0.0187
  201BDT    BS1 1004  13.555   9.701  12.651 -0.2315  0.1529  0.1925
  201BDT    BS2 1005  13.942   9.739  12.599 -0.2418 -0.2266 -0.1642
  202BDT   BNZ1 1006  11.679   2.045   9.496  0.2254 -0.1412  0.0658
  202BDT   BNZ2 1007  11.748   2.212   9.525 -0.2704  0.0939 -0.0538
  202BDT   BNZ3 1008  11.832   2.115   9.308 -0.0141  0.2056 -0.0062
  202BDT    BS1 1009  11.749   1.937   9.293  0.5199 -0.0539  0.1254
  202BDT    BS2 1010  11.896   2.295   9.356 -0.5512  0.4326 -0.1342
  203BDT   BNZ1 1011  13.762   8.213  11.321  0.1369  0.0616 -0.0847
  203BDT   BNZ2 1012  13.755   8.396  11.319 -0.3747  0.0484 -0.1212
  203BDT   BNZ3 1013  13.792   8.304  11.087  0.0472  0.1064 -0.0793
  203BDT    BS1 1014  13.798   8.108  11.107  0.5816  0.1323 -0.0416
  203BDT    BS2 1015  13.782   8.500  11.104 -0.5163  0.0882 -0.1199
  204BDT   BNZ1 1016  12.272   2.114  12.860 -0.0789 -0.0647 -0.2039
  204BDT   BNZ2 1017  12.427   2.020  12.887 -0.0724  0.0090  0.0211
  204BDT   BNZ3 1018  12.225   1.871  12.905 -0.0371 -0.0541 -0.1030
  204BDT    BS1 1019  12.069   1.986  12.873 -0.0452 -0.1321 -0.3427
  204BDT    BS2 1020  12.402   1.786  12.932 -0.0338  0.0276  0.1397
  205BDT   BNZ1 1021   3.697   8.838   7.179  0.1654  0.0809  0.0851
  205BDT   BNZ2 1022   3.874   8.833   7.226  0.2047  0.0489 -0.0632
  205BDT   BNZ3 1023   3.845   8.917   6.991  0.0283 -0.0265 -0.0692
  205BDT    BS1 1024   3.651   8.917   6.957 -0.0014  0.0145  0.0967
  205BDT    BS2 1025   4.030   8.905   7.059  0.0823 -0.0538 -0.2215
  206BDT   BNZ1 1026   7.349   6.603   3.015 -0.0422 -0.2003 -0.1393
  206BDT   BNZ2 1027   7.344   6.680   2.849  0.0161  0.0207 -0.0399
  206BDT   BNZ3 1028   7.465   6.826   3.015 -0.0102 -0.2140  0.1902
  206BDT    BS1 1029   7.461   6.729   3.186 -0.0739 -0.4416  0.0591
  206BDT    BS2 1030   7.450   6.894   2.830  0.0513  0.0317  0.2747
  207BDT   BNZ1 1031   1.449  13.313  13.929  0.0747 -0.0454  0.0773
  207BDT   BNZ2 1032   1.354  13.235  13.793 -0.0666 -0.2050  0.2638
  207BDT   BNZ3 1033   1.495  13.065  13.915  0.1864 -0.0330  0.2149
  207BDT    BS1 1034   1.589  13.165  14.056  0.3206  0.1293  0.0078
  207BDT    BS2 1035   1.386  12.999  13.764  0.0192 -0.2115  0.4113
  208BDT   BNZ1 1036   9.012   5.496   3.503 -0.2564 -0.1608  0.1429
  208BDT   BNZ2 1037   8.844   5.562   3.476 -0.1047  0.2235  0.1044
  208BDT   BNZ3 1038   8.932   5.627   3.703  0.1820  0.4543 -0.0703
  208BDT    BS1 1039   9.112   5.548   3.715 -0.0051  0.0057 -0.0196
  208BDT    BS2 1040   8.751   5.690   3.656  0.3286  0.8250 -0.1000
  209BDT   BNZ1 1041   3.252   2.929  12.668 -0.2548  0.0082  0.0832
  209BDT   BNZ2 1042   3.292   2.854  12.830 -0.3352 -0.1558  0.0273
  209BDT   BNZ3 1043   3.043   2.862  12.792 -0.3277  0.1432  0.0338
  209BDT    BS1 1044   3.018   2.945  12.615 -0.2375  0.3010  0.0976
  209BDT    BS2 1045   3.104   2.783  12.962 -0.4103 -0.0511 -0.0237
  210BDT   BNZ1 1046  10.815  11.508  12.515  0.1318  0.0282 -0.2063
  210BDT   BNZ2 1047  10.869  11.407  12.372  0.1720 -0.2355 -0.0083
  210BDT   BNZ3 1048  11.066  11.490  12.504  0.1254 -0.3519  0.1368
  210BDT    BS1 1049  10.992  11.596  12.652  0.0817 -0.0501 -0.0938
  210BDT    BS2 1050  11.105  11.379  12.345  0.1662 -0.6112  0.3351
  211BDT   BNZ1 1051   7.456   9.782   3.092  0.0834  0.1785 -0.0975
  211BDT   BNZ2 1052   7.461   9.940   3.184 -0.0597  0.2557 -0.2195
  211BDT   BNZ3 1053   7.664   9.799   3.232 -0.1422  0.2842  0.2303
  211BDT    BS1 1054   7.643   9.635   3.127  0.0200  0.1997  0.3311
  211BDT    BS2 1055   7.653   9.974   3.324 -0.2865  0.3629  0.0663
  212BDT   BNZ1 1056   6.854   4.082   2.630 -0.1241  0.3387  0.1332
  212BDT   BNZ2 1057   6.852   3.905   2.673  0.0494  0.2846 -0.0692
  212BDT   BNZ3 1058   6.899   4.047   2.875 -0.0659  0.1003  0.0900
  212BDT    BS1 1059   6.899   4.234   2.811 -0.2497  0.1711  0.3023
  212BDT    BS2 1060   6.893   3.852   2.904  0.1227  0.0600 -0.1335
  213BDT   BNZ1 1061  11.875  11.068   5.075  0.0413  0.0861  0.0049
  213BDT   BNZ2 1062  11.830  11.208   5.184 -0.0268  0.0616  0.0086
  213BDT   BNZ3 1063  12.076  11.154   5.200  0.0233  0.2608 -0.0850
  213BDT    BS1 1064  12.106  11.004   5.077  0.0940  0.2730 -0.0818
  213BDT    BS2 1065  12.009  11.303   5.312 -0.0521  0.2193 -0.0738
  214BDT   BNZ1 1066  13.808   8.372  12.755  0.0746 -0.1017  0.1365
  214BDT   BNZ2 1067  13.651   8.449  12.701 -0.0569 -0.1664  0.4179
  214BDT   BNZ3 1068  13.659   8.204  12.641  0.1921 -0.0317 -0.1223
  214BDT    BS1 1069  13.832   8.138  12.705  0.3099  0.0379 -0.3948
  214BDT    BS2 1070  13.496   8.304  12.590  0.0323 -0.1041  0.2124
  215BDT   BNZ1 1071   8.754   7.328   9.015 -0.2337 -0.0926 -0.1024
  215BDT   BNZ2 1072   8.723   7.498   9.075 -0.0121 -0.0810 -0.0169
  215BDT   BNZ3 1073   8.758   7.493   8.825 -0.2547 -0.0349 -0.0527
  215BDT    BS1 1074   8.789   7.305   8.778 -0.4826 -0.0480 -0.1430
  215BDT    BS2 1075   8.723   7.670   8.907 -0.0058 -0.0263  0.0393
  216BDT   BNZ1 1076  12.297   6.118  10.433  0.1150 -0.0564  0.0171
  216BDT   BNZ2 1077  12.216   6.230  10.553 -0.0015  0.1191 -0.2215
  216BDT   BNZ3 1078  12.374   6.356  10.402  0.3752 -0.1495 -0.0598
  216BDT    BS1 1079  12.451   6.221  10.280  0.4702 -0.3203  0.1993
  216BDT    BS2 1080  12.278   6.462  10.538  0.2216  0.0533 -0.3170
  217W        W 1081   2.039  13.760   2.355  0.2698  0.1926 -0.6865
  218W        W 1082   2.593   3.080   4.256 -0.1079  0.5283 -0.1729
  219W        W 1083   3.905   3.335   0.151  0.4296 -0.4843  0.1710
  220W        W 1084   4.025   3.449   1.843 -0.0809  0.0486 -0.0773
  221W        W 1085  12.773   6.422   0.269  0.1714  0.0717 -0.0531
  222W        W 1086   1.019   2.289   1.070  0.2732  0.0109 -0.0800
  223W        W 1087   0.499   2.223   0.571  0.0262  0.3713 -0.1969
  224W        W 1088   0.966   3.505   1.481  0.1171  0.0693  0.1986
  225W        W 1089  12.830   5.860   6.315 -0.1612 -0.1280  0.0932
  226W        W 1090   0.281  13.791   1.892 -0.0661 -0.3004 -0.0004
  227W        W 1091   1.497  11.861   2.476 -0.0309  0.1191 -0.2945
  228W        W 1092   3.849   2.457   2.761  0.0837  0.1007  0.2273
  229W        W 1093   2.044   3.192   3.143 -0.1700  0.1183 -0.4602
  230W        W 1094   1.597  13.472   2.323 -0.2395  0.0019  0.0096
  231W        W 1095   0.701   1.124   3.132 -0.0323  0.2910 -0.0232
  232W        W 1096   1.483   4.297   0.554  0.1379  0.0134  0.0071
  233W        W 1097   1.599   2.615   3.521  0.2864  0.2062 -0.2447
  234W        W 1098   1.962   1.408   2.580  0.0720  0.0435  0.1020
  235W        W 1099   1.617   3.023   1.857  0.1193 -0.1877 -0.0671
  236W        W 1100   1.152   3.595   2.737  0.0933 -0.1704 -0.0821
  237W        W 1101   1.707   0.557   2.690  0.1159 -0.0457 -0.0121
  238W        W 1102   2.301   3.889   3.992 -0.1270  0.3093 -0.0020
  239W        W 1103   1.060   1.507   4.174  0.0041  0.1182  0.0339
  240W        W 1104   2.844  13.870   3.226  0.2593 -0.0005 -0.2185
  241W        W 1105   0.201   3.260   3.535  0.0457 -0.0939 -0.1656
  242W        W 1106   1.090   3.484   3.281 -0.1354  0.2250 -0.0337
  243W        W 1107   1.425   3.402  13.321  0.1279  0.1441  0.0516
  244W        W 1108   1.339   3.083   3.540  0.0010  0.0203 -0.4192
  245W        W 1109   1.763   0.973   1.848  0.0368 -0.2947  0.1185
  246W        W 1110   0.846   2.673   2.847 -0.2385 -0.1553  0.0704
  247W        W 1111   2.808   1.999   4.552 -0.0772  0.0584  0.2631
  248W        W 1112   2.243   3.191   2.417  0.0010 -0.1686  0.3270
  249W        W 1113   2.402   2.308   3.735 -0.2436 -0.1513 -0.3167
  250W        W 1114   0.231  13.806   3.296  0.3061  0.1357 -0.0489
  251W        W 1115   0.794   3.781   1.015 -0.0939 -0.1117  0.1462
  252W        W 1116   0.199   1.651   0.486  0.0166  0.1494  0.4676
  253W        W 1117   1.991   0.965  13.871  0.1471  0.0307 -0.1798
  254W        W 1118   1.932   5.974   2.261  0.0110 -0.2955 -0.0031
  255W        W 1119   5.153   2.019   3.979 -0.0924  0.1281  0.0307
  256W        W 1120   0.759   1.417   2.124 -0.0116 -0.1243  0.1424
  257W        W 1121   5.179   5.130   1.308 -0.3703  0.0584  0.1404
  258W        W 1122   0.999   2.796   1.080 -0.3441 -0.1198  0.3168
  259W        W 1123   2.975   3.529  13.373 -0.0024  0.0585  0.1745
  260W        W 1124  13.762   4.126   1.224  0.0431 -0.0318 -0.3252
  261W        W 1125  12.910   3.074   0.462  0.1119  0.1220  0.4299
  262W        W 1126   1.848  13.633   1.888  0.3425 -0.0999 -0.2838
  263W        W 1127   0.960   2.060   1.551 -0.0571  0.1722  0.0466
  264W        W 1128   2.205   4.056   1.303  0.0380 -0.0406  0.0111
  265W        W 1129   1.544   3.921   3.134  0.1380 -0.1691  0.1951
  266W        W 1130   2.212   3.993   1.826 -0.4505 -0.3064 -0.2062
  267W        W 1131   3.828   4.200   1.587  0.0066 -0.0978 -0.2780
  268W        W 1132   2.096   2.824   2.024 -0.1917  0.1379  0.1185
  269W        W 1133   4.208   6.434   0.775  0.0252  0.3073  0.2111
  270W        W 1134   2.092   2.455   2.362 -0.2001 -0.2371  0.0582
  271W        W 1135   2.258   3.633   1.007  0.0474 -0.3168 -0.0420
  272W        W 1136  11.908   1.629   0.886 -0.1910 -0.1239  0.2133
  273W        W 1137   3.327   0.636   1.657  0.1191 -0.2371  0.0751
  274W        W 1138  12.628   1.770   0.725 -0.0552  0.0087  0.4021
  275W        W 1139   0.419   2.789   0.908 -0.4754 -0.1121  0.0099
  276W        W 1140   3.041   1.261  12.363 -0.0232 -0.1558 -0.0402
  277W        W 1141  13.408   1.031   1.439  0.1243 -0.1808 -0.1974
  278W        W 1142   2.700   2.591   1.237 -0.0626 -0.0808  0.1000
  279W        W 1143   1.228   2.536   2.497 -0.0286 -0.0192  0.2077
  280W        W 1144   2.124  13.220   2.183 -0.4630  0.1051  0.0708
  281W        W 1145   4.182   3.283   2.574  0.0351 -0.0816 -0.0016
  282W        W 1146  13.649   4.390  13.855  0.1574  0.2470  0.4205
  283W        W 1147  12.987   1.289   0.034 -0.1196  0.2053 -0.1867
  284W        W 1148  11.858   3.270   4.047  0.3200  0.3103  0.1130
  285W        W 1149   0.315   0.807   3.280  0.0225 -0.2041 -0.2061
  286W        W 1150   2.849   2.730   2.762 -0.2591 -0.2860  0.2190
  287W        W 1151   1.286   6.506   0.776  0.0027 -0.0986 -0.3618
  288W        W 1152   0.141   3.962   1.444 -0.0556 -0.1642  0.0909
  289W        W 1153   2.961   0.844   3.109 -0.2727  0.0295  0.0329
  290W        W 1154   2.351   4.650   0.622 -0.1203  0.1477 -0.2496
  291W        W 1155   4.127   3.562   3.000 -0.3309 -0.1527 -0.1160
  292W        W 1156  11.983   2.706  12.558  0.1686 -0.1975 -0.4208
  293W        W 1157   0.356   4.346   2.231 -0.2952  0.0768 -0.1753
  294W        W 1158   2.344   6.155   2.420 -0.1127  0.1150  0.0196
  295W        W 1159   0.222   3.133   1.729 -0.2306  0.0811 -0.0887
  296W        W 1160   1.524   0.402   3.158  0.0131  0.3819  0.0995
  297W        W 1161   3.195   1.362   2.251  0.1866  0.0482  0.2119
  298W        W 1162  13.381   2.332   1.879 -0.1151  0.1283  0.0205
  299W        W 1163   1.637   1.418   2.988  0.2997  0.0701  0.0613
  300W        W 1164   4.512   0.889   5.628  0.2622  0.0196 -0.1796
  301W        W 1165   3.175   0.294   0.534 -0.1991  0.4661  0.0362
  302W        W 1166   2.740   4.519   4.732 -0.0315  0.2000 -0.2724
  303W        W 1167   3.052  13.728   4.566  0.2348  0.1245  0.0419
  304W        W 1168   3.507   3.626   0.989  0.2595 -0.1652  0.0950
  305W        W 1169   2.300   4.154   4.451 -0.2899  0.1663 -0.0480
  306W        W 1170   1.000   4.987  13.972 -0.0915 -0.3156 -0.0186
  307W        W 1171   2.200   0.158   0.723 -0.2698 -0.4628 -0.0861
  308W        W 1172   0.812   1.110   2.609 -0.2259  0.0841 -0.1904
  309W        W 1173   1.691   3.583   3.464 -0.0780 -0.2809 -0.0469
  310W        W 1174   1.223  13.889   1.265 -0.4286 -0.1189  0.0698
  311W        W 1175   3.438   4.776   0.566  0.4132 -0.0317 -0.1148
  312W        W 1176   3.613   3.828   2.017  0.0604  0.0728 -0.3069
  313W        W 1177  13.345   1.704   2.370  0.1390 -0.0141 -0.0572
  314W        W 1178   3.205   0.408  13.573  0.1042 -0.0029 -0.0145
  315W        W 1179   2.227   3.218   1.614 -0.0282 -0.1923  0.0307
  316W        W 1180   4.631   6.296   0.391 -0.2579  0.1772 -0.3744
  317W        W 1181  12.626   0.680   1.961 -0.1096 -0.0428 -0.1371
  318W        W 1182   1.738   1.270   3.502  0.0807  0.0184 -0.0152
  319W        W 1183   4.097   6.231  13.976 -0.0551  0.0663  0.1294
  320W        W 1184   2.254   1.794   3.626 -0.0416 -0.0685  0.2144
  321W        W 1185   3.897   2.490   4.971 -0.1902 -0.1352  0.0739
  322W        W 1186   0.308   3.321   0.913 -0.1460 -0.2538  0.0031
  323W        W 1187   3.786   1.951   3.263  0.2303 -0.1664  0.1450
  324W        W 1188   1.173   0.629   0.893 -0.1746  0.2689  0.0246
  325W        W 1189  13.686   1.782   1.288  0.2381 -0.1343  0.1505
  326W        W 1190   2.815   1.933   2.994  0.1314  0.0446 -0.1353
  327W        W 1191   6.176   4.366   0.860 -0.1933  0.1094 -0.0404
  328W        W 1192   3.863   1.931   1.796 -0.0884 -0.4189  0.3392
  329W        W 1193   2.348   4.520   3.593  0.0517  0.0951 -0.0999
  330W        W 1194   4.474   5.581   0.526 -0.2742  0.0593  0.1258
  331W        W 1195   4.049   4.573   0.523 -0.5435 -0.1353  0.0840
  332W        W 1196   3.591   4.308   3.583  0.1786  0.1912 -0.2399
  333W        W 1197   4.064   0.356   2.473  0.0316 -0.0700  0.3641
  334W        W 1198   0.717   0.626   2.850 -0.2211  0.0583 -0.0466
  335W        W 1199   2.432   6.693   0.017  0.2074 -0.1290  0.0807
  336W        W 1200   3.361   2.173   1.911 -0.1340 -0.2763 -0.2400
  337W        W 1201   5.154   4.926   2.178  0.1304  0.0120  0.2321
  338W        W 1202   1.790   3.791   1.042  0.1246 -0.2715  0.1307
  339W        W 1203   0.026   3.044   2.616  0.0557  0.1302 -0.1325
  340W        W 1204   4.783   2.869   3.845 -0.0921  0.0671  0.0368
  341W        W 1205   1.940   2.406   1.877 -0.1349 -0.0971 -0.0646
  342W        W 1206   0.187   1.845   1.812  0.2482  0.1275  0.1945
  343W        W 1207   3.230   4.491   3.218  0.2573 -0.3443  0.0154
  344W        W 1208   3.049   6.264   0.821 -0.0350 -0.1693 -0.0912
  345W        W 1209   1.766   2.425   3.126  0.2924 -0.0452  0.0303
  346W        W 1210   3.729   2.666   3.277 -0.5845 -0.0380 -0.1247
  347W        W 1211   3.139   0.066   2.875  0.0503 -0.0153 -0.0452
  348W        W 1212   0.682   4.123   2.676  0.2129 -0.2084 -0.0182
  349W        W 1213   1.330   1.403   1.129 -0.1166 -0.0333 -0.0428
  350W        W 1214   3.644   4.736  13.643  0.0235  0.1299 -0.0196
  351W        W 1215   0.908  13.471   1.386  0.0787  0.1494  0.0697
  352W        W 1216  13.797   0.552   2.077 -0.0719  0.3319  0.1622
  353W        W 1217   4.224   0.166   0.815 -0.1338  0.1898  0.5241
  354W        W 1218   1.462   3.045   1.037 -0.2545 -0.1565  0.1258
  355W        W 1219   1.329   4.172  13.546 -0.0707  0.0002  0.1360
  356W        W 1220   1.038  11.840   2.765  0.1671  0.0640  0.0343
  357W        W 1221   1.739   2.115   2.273 -0.2604  0.2245 -0.0311
  358W        W 1222   1.000   5.789   0.446 -0.1013 -0.2577 -0.0657
  359W        W 1223  13.759   1.364   1.642  0.3197 -0.3259 -0.1383
  360W        W 1224   3.234   5.634   4.345 -0.0930  0.5239  0.0075
  361W        W 1225   0.719   0.608   0.606  0.1273 -0.0630 -0.0068
  362W        W 1226   2.642   3.900   1.589 -0.1352  0.5071  0.2077
  363W        W 1227   5.671   7.286   0.409  0.2765 -0.0434 -0.1200
  364W        W 1228   4.460   2.387   4.465  0.0209 -0.3453  0.2623
  365W        W 1229   0.605   1.746   1.564  0.4017 -0.1007 -0.2699
  366W        W 1230   3.595   5.254   4.000  0.0911 -0.0851 -0.2489
  367W        W 1231   2.149   0.284  13.798  0.0356 -0.3183 -0.1224
  368W        W 1232   2.011   1.948   2.741  0.1914  0.1025 -0.2096
  369W        W 1233   3.444   2.150  13.011 -0.0786  0.0893 -0.0130
  370W        W 1234   3.818   1.275   4.376 -0.3663 -0.3004 -0.0354
  371W        W 1235   5.454  13.964   2.505 -0.5116 -0.0526  0.1171
  372W        W 1236  10.727   1.456   2.855 -0.0545 -0.1962  0.1843
  373W        W 1237  13.131   6.104   1.010 -0.1928 -0.0324 -0.0995
  374W        W 1238   2.702  12.454   0.173 -0.0529 -0.1205  0.0296
  375W        W 1239   1.194   2.976   0.630 -0.0028 -0.4390  0.0362
  376W        W 1240   4.302   1.759   2.240  0.0337 -0.0573 -0.0969
  377W        W 1241   0.976   3.432   3.853 -0.0834  0.1299  0.1807
  378W        W 1242   2.423   5.299   3.990 -0.0761  0.0137 -0.1579
  379W        W 1243   3.675   4.919   1.021  0.2305 -0.1677 -0.2555
  380W        W 1244   3.122  12.459   5.018 -0.1387 -0.0302  0.0234
  381W        W 1245   1.440   1.937  12.373 -0.4358  0.1592 -0.1455
  382W        W 1246  12.708   2.178   1.922  0.2898 -0.1957 -0.1824
  383W        W 1247  13.679   3.770   2.524  0.3366 -0.2282  0.3255
  384W        W 1248   3.372   1.639   5.114  0.1688  0.3405  0.1231
  385W        W 1249  13.621   4.629   1.068 -0.1034 -0.0240  0.1111
  386W        W 1250   3.205   5.243  13.827  0.0901 -0.0294 -0.1324
  387W        W 1251   2.362   1.478   2.029  0.0423  0.0293 -0.0964
  388W        W 1252   1.045  12.719   2.844  0.2334 -0.0835  0.0661
  389W        W 1253   2.704   4.531   3.210 -0.4144 -0.0190  0.2418
  390W        W 1254   3.351   2.570   3.706  0.1066 -0.0258 -0.0157
  391W        W 1255   3.543   1.525   1.867  0.1085  0.0531 -0.1075
  392W        W 1256  13.887   0.692   3.137 -0.1135 -0.0967 -0.1711
  393W        W 1257   1.935   2.575   4.770  0.1890  0.1410 -0.0537
  394W        W 1258  13.218   1.415   1.038  0.1591  0.1334  0.0542
  395W        W 1259   1.280   1.295   2.681 -0.1951  0.1348  0.2489
  396W        W 1260   2.568   2.372  12.705 -0.0504 -0.2153  0.1803
  397W        W 1261   3.260   7.918  13.347  0.1388 -0.1821 -0.0458
  398W        W 1262   1.231   1.816   0.279 -0.0029  0.2596  0.1495
  399W        W 1263   0.702   2.973   1.854 -0.0341 -0.1398  0.1299
  400W        W 1264  13.518   1.007   0.797 -0.2874  0.0713 -0.2667
  401W        W 1265   3.236   3.384   3.380 -0.1073 -0.0863  0.1071
  402W        W 1266  13.585   4.182   2.089 -0.2641  0.1941 -0.0366
  403W        W 1267   0.792   2.780   0.010  0.2965  0.0651  0.1464
  404W        W 1268   2.303   2.370   2.823  0.0989 -0.3054  0.2896
  405W        W 1269   2.190   0.761   2.524  0.0065 -0.2942 -0.2254
  406W        W 1270  12.672   1.769   1.577 -0.3598  0.1807 -0.5400
  407W        W 1271  13.799   4.939   1.577  0.3153  0.0281 -0.1183
  408W        W 1272   1.888   2.834   1.493  0.3422  0.1429 -0.1927
  409W        W 1273   3.351   1.074   0.086 -0.1876  0.1461 -0.2289
  410W        W 1274   3.393  12.359   5.555  0.4758 -0.1149 -0.2882
  411W        W 1275   0.697   1.791  13.005 -0.0961  0.2456 -0.1053
  412W        W 1276   0.580   3.546   0.591 -0.0624 -0.0588 -0.1047
  413W        W 1277   1.281  12.815   0.060  0.1538 -0.1490  0.2014
  414W        W 1278   1.228   0.727   4.054 -0.0280 -0.1218 -0.0604
  415W        W 1279   0.986   1.736   1.154 -0.2576 -0.0378  0.1373
  416W        W 1280   1.355  12.326  11.358 -0.3333  0.0976 -0.0676
  417W        W 1281   2.039   1.169   0.726  0.2443  0.1040  0.0162
  418W        W 1282   1.474   1.882   1.182 -0.3137 -0.0170 -0.0714
  419W        W 1283   0.481   1.983   2.744 -0.0484 -0.0249  0.1931
  420W        W 1284   2.295  13.295   3.114 -0.2201  0.1333  0.0315
  421W        W 1285  13.041  13.568  12.796 -0.1315  0.0942 -0.2561
  422W        W 1286   0.389   0.719   6.522 -0.0047 -0.0074 -0.2168
  423W        W 1287   1.038   1.617   3.006 -0.0051 -0.1170 -0.0811
  424W        W 1288   2.908   2.577   1.678  0.0431 -0.0942  0.0779
  425W        W 1289  12.450   0.154   0.506 -0.0847  0.2297 -0.0101
  426W        W 1290   2.359   2.987   5.674  0.1935 -0.0418  0.0350
  427W        W 1291   1.415   2.086   2.825  0.0462  0.0100  0.1144
  428W        W 1292   2.337   0.963   3.828  0.3804 -0.2129 -0.1605
  429W        W 1293   6.885   2.287   4.186 -0.1149 -0.1317  0.2417
  430W        W 1294   3.873   4.155   4.079 -0.0664  0.2476  0.0601
  431W        W 1295   5.100   5.852  13.309  0.0348 -0.0452 -0.0273
  432W        W 1296   3.631   7.973   0.115 -0.2096 -0.2216 -0.0160
  433W        W 1297   4.030   6.515   1.311 -0.1655 -0.1912  0.0131
  434W        W 1298   2.758   1.488   6.248  0.0752 -0.0168  0.0524
  435W        W 1299  13.521   3.958   4.162 -0.0301 -0.2696 -0.0467
  436W        W 1300   2.826   1.610   4.314 -0.0634  0.1942  0.0825
  437W        W 1301   2.713   4.229   0.637 -0.0980 -0.3077 -0.0092
  438W        W 1302   0.918   4.222   3.585 -0.0088 -0.0974 -0.1040
  439W        W 1303  13.121  13.366   3.019 -0.1846  0.0369 -0.2890
  440W        W 1304   0.395   3.571   1.323  0.2934 -0.1114 -0.2173
  441W        W 1305   2.257  13.386   4.201 -0.1245  0.0297  0.0574
  442W        W 1306   4.245   2.126   3.652 -0.1120 -0.4391 -0.0423
  443W        W 1307   2.072   1.461   3.975  0.1345  0.1161  0.0320
  444W        W 1308   2.735   5.355  13.657 -0.0370 -0.1169  0.1374
  445W        W 1309  12.860   1.898   1.120 -0.2935 -0.3267  0.2074
  446W        W 1310  14.006  13.748   4.996 -0.0616 -0.0383  0.0958
  447W        W 1311   3.241   1.803   3.193 -0.1081 -0.3638 -0.1707
  448W        W 1312  11.323   1.996   0.189 -0.3666 -0.0079 -0.0247
  449W        W 1313   2.170   4.521   1.861  0.0178 -0.2895  0.0970
  450W        W 1314   2.230   0.864   1.639  0.0052 -0.1764 -0.1406
  451W        W 1315  13.889   4.847   0.630 -0.1032 -0.0344  0.0560
  452W        W 1316   3.765   3.382   2.308  0.0866  0.2477  0.1037
  453W        W 1317   4.273  13.893   2.335 -0.1053 -0.0713  0.0032
  454W        W 1318   5.168   5.505   0.142  0.1465  0.1931  0.3908
  455W        W 1319   3.542   3.283   1.935  0.0640  0.0367 -0.2257
  456W        W 1320   0.204   3.127  13.693  0.3203 -0.0227  0.0580
  457W        W 1321  11.708   4.982   3.740 -0.1877 -0.3172 -0.1290
  458W        W 1322   2.635   0.567   3.912 -0.1075 -0.0680 -0.0784
  459W        W 1323  12.249   1.356   0.738  0.3798 -0.2820  0.0776
  460W        W 1324   3.705   2.326   1.528  0.0176  0.2453  0.2879
  461W        W 1325  13.933   2.808  12.693 -0.1912 -0.0708 -0.4948
  462W        W 1326   7.897   3.770   1.104  0.0151  0.1376 -0.3874
  463W        W 1327  12.013   4.714   4.018 -0.1226 -0.1030 -0.1678
  464W        W 1328   2.414   3.351   0.076  0.2136 -0.1135 -0.2530
  465W        W 1329   1.196  13.025   0.653 -0.0543  0.1871  0.3242
  466W        W 1330  14.007   0.107   4.608 -0.0713  0.1407  0.5301
  467W        W 1331  12.947   3.419   1.886  0.1107  0.0583  0.1871
  468W        W 1332   2.291   5.063   5.282  0.0978  0.1678 -0.1832
  469W        W 1333   2.252   2.768   4.483 -0.2134 -0.2235  0.2880
  470W        W 1334  11.957   0.355   0.280 -0.0306  0.1321 -0.5289
  471W        W 1335   3.780   6.203   0.855 -0.4028 -0.2456  0.0497
  472W        W 1336   3.879  13.810   1.003  0.4034  0.0620 -0.2184
  473W        W 1337   2.915  12.851   4.827 -0.1586 -0.2441 -0.2016
  474W        W 1338   2.835   3.215   3.854 -0.1036 -0.0241  0.1641
  475W        W 1339   1.787   3.325   1.242 -0.1739 -0.0636  0.1692
  476W        W 1340  12.283   1.977   2.347  0.0440 -0.2812 -0.2229
  477W        W 1341   1.821   3.004   4.328 -0.3916  0.0550 -0.1718
  478W        W 1342   0.714   6.255  13.148 -0.0122 -0.0942  0.1174
  479W        W 1343   2.985   0.762   0.759  0.1774  0.0807  0.2700
  480W        W 1344  13.052   2.584   2.595 -0.1343  0.4456  0.0816
  481W        W 1345   0.635   3.752   3.657 -0.2057 -0.1067 -0.0967
  482W        W 1346  11.153   2.146   1.746 -0.0729  0.3607  0.1051
  483W        W 1347   1.073   3.591   0.635  0.1478 -0.0384  0.3930
  484W        W 1348   0.506  13.439   3.340 -0.2788  0.4453 -0.0650
  485W        W 1349   4.435   3.750   2.543  0.4799 -0.2485  0.0197
  486W        W 1350   1.432   3.314   0.327  0.1813 -0.1188  0.1016
  487W        W 1351   2.347   2.187   1.698 -0.1025  0.1432 -0.1121
  488W        W 1352   4.294   0.321  13.173 -0.0761  0.0970 -0.0552
  489W        W 1353   3.415   1.025   4.484  0.0129 -0.1559 -0.2403
  490W        W 1354   4.827   5.449   1.520 -0.2270 -0.0990  0.0193
  491W        W 1355   1.999  13.999   6.471 -0.0960 -0.3876 -0.2024
  492W        W 1356   2.425   0.396   2.967  0.3450 -0.0214  0.0598
  493W        W 1357  14.011   1.259   4.113  0.1006  0.1247 -0.1924
  494W        W 1358  13.390   2.486  13.699  0.0572  0.5461 -0.4463
  495W        W 1359  12.989   1.436   2.470 -0.0093 -0.1342  0.1874
  496W        W 1360   2.239  13.792   2.877 -0.0558 -0.2512  0.2193
  497W        W 1361   1.033   0.378   0.250  0.1521 -0.2990  0.1881
  498W        W 1362   0.347   1.022   2.784 -0.0446 -0.2904 -0.2888
  499W        W 1363  11.988   3.341   3.152 -0.3699  0.2474 -0.1447
  500W        W 1364   2.515   5.828   1.473  0.1970 -0.0854 -0.3156
  501W        W 1365   2.956   2.209   0.852 -0.0219 -0.1814  0.2139
  502W        W 1366   3.874   4.437   1.005 -0.4352 -0.2047  0.2263
  503W        W 1367  13.796   1.080   2.144  0.1129  0.4876 -0.3438
  504W        W 1368   3.196   2.898   1.384 -0.0850  0.3435 -0.3772
  505W        W 1369   3.855   5.495   1.203 -0.0533 -0.0818  0.2386
  506W        W 1370   0.367   1.358  12.686  0.2263 -0.0202 -0.0618
  507W        W 1371   3.997   3.235   1.067 -0.0323  0.2109  0.2038
  508W        W 1372   3.564   1.516   3.416  0.2716 -0.0852  0.0935
  509W        W 1373   1.302   1.675  12.889  0.1328 -0.2465  0.1013
  510W        W 1374   0.323   1.260   2.303 -0.0633  0.2010  0.2785
  511W        W 1375   2.647   1.899   2.035  0.0703 -0.0087  0.0571
  512W        W 1376   0.813   2.601   0.674 -0.0847  0.0985 -0.1867
  513W        W 1377   2.410   2.863   2.997  0.0588 -0.0722 -0.3493
  514W        W 1378   4.197   5.874   0.933  0.1511  0.2921 -0.0008
  515W        W 1379  12.466   3.740   0.383  0.0025  0.2471 -0.1638
  516W        W 1380  12.272   2.526   0.053  0.0332 -0.3169  0.0597
  517W        W 1381   1.581  13.386   6.273  0.0064  0.1611  0.2113
  518W        W 1382   1.314   3.547   1.082 -0.1123 -0.0614  0.2347
  519W        W 1383   2.636   2.431   4.292  0.0606 -0.1138  0.1504
  520W        W 1384   2.414   1.453   1.085  0.0670 -0.0506  0.2334
  521W        W 1385   2.686   3.520   1.246  0.1188 -0.0506  0.4355
  522W        W 1386   1.655   5.673   1.947  0.0799 -0.2406  0.1629
  523W        W 1387   4.203   0.175   1.442  0.2161 -0.3896 -0.1181
  524W        W 1388   3.446   1.899   3.789 -0.2883 -0.2705 -0.0240
  525W        W 1389   1.509  12.993   2.666 -0.0142  0.2404  0.3047
  526W        W 1390   3.668   0.268   2.856 -0.0708  0.1760 -0.3484
  527W        W 1391   1.791   0.065   2.775  0.1213  0.2625 -0.0007
  528W        W 1392   1.662   1.629   0.676 -0.1818 -0.0288  0.1250
  529W        W 1393   2.766   6.589   0.511  0.1507  0.0473  0.0891
  530W        W 1394  11.356   1.663   2.086  0.1338 -0.2963 -0.0039
  531W        W 1395  11.729   1.593   2.470 -0.0039 -0.1373  0.4237
  532W        W 1396  13.386   3.762  12.777 -0.1134 -0.2110 -0.1380
  533W        W 1397   2.912   3.206   2.348 -0.0733 -0.1443  0.1045
  534W        W 1398   2.554   1.989   1.141  0.1603 -0.1489  0.4333
  535W        W 1399   4.264   4.074   5.608 -0.2728  0.1729 -0.1230
  536W        W 1400   2.254   5.202   0.067 -0.2105  0.1412  0.2888
  537W        W 1401   2.918   1.165   3.538  0.0793  0.0063  0.3894
  538W        W 1402   0.172   2.071   1.356  0.0175  0.0280  0.1973
  539W        W 1403  13.878   2.888   0.824 -0.0352 -0.3462 -0.0311
  540W        W 1404   1.351   1.347   3.779 -0.1505  0.1782 -0.2685
  541W        W 1405   0.621   3.636   2.470 -0.1029 -0.1370  0.1536
  542W        W 1406  13.807   5.277  14.012 -0.1114 -0.2686  0.1350
  543W        W 1407   0.078   1.818   3.003  0.0208 -0.2063  0.2032
  544W        W 1408   3.354   0.884   2.291 -0.0805  0.0145  0.2915
  545W        W 1409   2.784   2.410   3.106  0.0017  0.2494  0.0421
  546W        W 1410   6.372   4.453   1.323 -0.1392 -0.1657  0.3189
  547W        W 1411   1.631   2.730   2.260  0.0993 -0.1990 -0.2160
  548W        W 1412   4.639   1.144   1.433 -0.1447  0.1108  0.3526
  549W        W 1413   7.628   3.941   6.502  0.3192 -0.0800 -0.1550
  550W        W 1414   1.076   1.523   1.580  0.1574  0.1501 -0.1596
  551W        W 1415   4.329   3.481   0.766 -0.1251 -0.1098  0.0080
  552W        W 1416  12.140   0.773   2.078 -0.1109  0.1362 -0.0482
  553W        W 1417   1.320  13.835   1.723  0.2538  0.1275 -0.2393
  554W        W 1418   0.260   1.304   0.874  0.0492 -0.0706 -0.2870
  555W        W 1419   2.780  13.380   2.994 -0.0410 -0.1192  0.0205
  556W        W 1420   2.800   1.022   4.024  0.2571 -0.1432 -0.0860
  557W        W 1421   0.885   1.752   2.510  0.0282  0.0208  0.0663
  558W        W 1422   3.401   1.007   0.863  0.0614  0.0791  0.3767
  559W        W 1423   1.767   1.741   3.691  0.0553 -0.1853  0.0845
  560W        W 1424   0.933   2.112   2.888  0.0532 -0.4287 -0.2332
  561W        W 1425  12.843   1.498   1.973 -0.0631 -0.1034 -0.3987
  562W        W 1426   2.637   4.019   1.087  0.1442  0.0469 -0.2682
  563W        W 1427  14.000  13.787  13.676  0.1863  0.2267 -0.1928
  564W        W 1428   2.299   0.612   0.798 -0.1158  0.1005  0.0094
  565W        W 1429   0.906   3.661   0.149 -0.0243  0.1209 -0.4625
  566W        W 1430   4.091   5.316   0.168 -0.0187  0.0445 -0.0716
  567W        W 1431  13.599   4.484   3.973 -0.0681  0.0384  0.0643
  568W        W 1432   0.968   0.533   2.335  0.3609  0.0700 -0.0982
  569W        W 1433   3.744   0.986   1.947 -0.1501  0.2407 -0.0899
  570W        W 1434   1.799   6.265   0.807  0.0943  0.5172  0.0770
  571W        W 1435   2.501  13.544   2.007 -0.0757  0.0213 -0.0074
  572W        W 1436   0.170   2.594   4.090  0.1059 -0.2927 -0.2100
  573W        W 1437   1.681  13.482   0.222  0.0213 -0.1836  0.2410
  574W        W 1438  13.158   4.143   3.782  0.3020  0.1197 -0.3114
  575W        W 1439   2.379   2.669   0.833  0.2445  0.1006  0.0717
  576W        W 1440   2.162   2.374   4.176  0.1132  0.0757 -0.0415
  577W        W 1441   0.169   3.006   0.415  0.1761  0.0380 -0.2888
  578W        W 1442   1.873   4.021   0.369 -0.1939 -0.1139  0.3537
  579W        W 1443   2.028   5.023   1.046 -0.1008  0.0972  0.1438
  580W        W 1444   3.357   3.182   2.455 -0.0491 -0.1998  0.1538
  581W        W 1445  13.937   2.588   2.433 -0.0406  0.3653 -0.2134
  582W        W 1446   1.534   2.280   0.079  0.3359  0.0718 -0.1788
  583W        W 1447   1.610   1.508   1.626 -0.0907 -0.2274 -0.0227
  584W        W 1448   0.437   3.918   0.176 -0.0930  0.1748  0.1225
  585W        W 1449   1.818   3.344   2.608  0.0414 -0.1406 -0.2225
  586W        W 1450   3.259   6.231   2.667 -0.3440 -0.0603 -0.2673
  587W        W 1451   1.629   3.860   2.573  0.1904 -0.1004 -0.2762
  588W        W 1452   1.779   1.218  12.265  0.2678 -0.1716  0.0891
  589W        W 1453   3.630  13.565   5.453 -0.1412  0.0725  0.1864
  590W        W 1454   1.184   1.199   3.246  0.2793 -0.0693  0.1620
  591W        W 1455   1.927   3.360   2.013  0.0306 -0.3349  0.0712
  592W        W 1456   4.147   0.534   2.955  0.0564  0.1466  0.2574
  593W        W 1457   2.044   1.589   5.097  0.0747 -0.0719  0.0365
  594W        W 1458   0.989   2.120   3.353  0.1929 -0.0153 -0.1717
  595W        W 1459   0.483   1.485   2.799 -0.2593  0.0114  0.0870
  596W        W 1460   2.587   1.427   3.896  0.4342 -0.1821 -0.0738
  597W        W 1461   3.056   2.839   4.131  0.0673 -0.0466  0.0311
  598W        W 1462   4.522   2.636   5.012 -0.2618  0.1740  0.2978
  599W        W 1463   2.291   1.322   3.385 -0.0480  0.2739 -0.3689
  600W        W 1464   3.915   6.701   0.296  0.0554  0.1281 -0.1483
  601W        W 1465   3.867   2.940   2.703 -0.0544  0.1167  0.1956
  602W        W 1466   0.872   2.015   4.179 -0.0596  0.2126  0.1429
  603W        W 1467   1.213   4.728   2.038 -0.0240  0.2489  0.1414
  604W        W 1468   0.161   2.081   3.939 -0.2353 -0.0724 -0.0453
  605W        W 1469  13.132   2.921   3.598  0.0966  0.2856 -0.1544
  606W        W 1470   3.607   8.632  12.718  0.0327 -0.0016 -0.0081
  607W        W 1471   2.330   6.460   2.026 -0.3753 -0.1176 -0.1100
  608W        W 1472   1.181   2.960   2.127  0.1434  0.0500 -0.1984
  609W        W 1473   2.083   2.158   5.013 -0.2415 -0.1479 -0.4431
  610W        W 1474   2.128   5.183   0.549 -0.0618  0.0871 -0.1452
  611W        W 1475   1.455  13.554   4.981 -0.0512  0.1154  0.0832
  612W        W 1476  13.892   3.915   0.545 -0.1938  0.1442  0.1668
  613W        W 1477  13.973   4.031   0.059 -0.2993 -0.0366  0.0611
  614W        W 1478   2.054   3.531   6.758  0.0095  0.3641 -0.3038
  615W        W 1479   2.537   0.593   5.325  0.0209  0.0458  0.0815
  616W        W 1480   3.348   1.725   6.899 -0.0527 -0.2378  0.2496
  617W        W 1481   1.232   3.845   7.103  0.1074  0.2036  0.0374
  618W        W 1482   0.344   2.481   3.556  0.0978 -0.1716 -0.0246
  619W        W 1483  13.295   3.563   3.989  0.0072  0.1204  0.2553
  620W        W 1484   1.930   3.089   4.861 -0.2269 -0.2258 -0.0586
  621W        W 1485   3.512   3.383   6.258 -0.1652  0.1545 -0.0380
  622W        W 1486   1.413   1.241   7.388 -0.2343 -0.0081  0.1562
  623W        W 1487  12.372   3.801   6.235  0.3041 -0.1490 -0.2319
  624W        W 1488   1.686  14.007   6.837 -0.1516 -0.1665 -0.3159
  625W        W 1489   3.764  11.761   6.148 -0.0094  0.2253 -0.0535
  626W        W 1490   4.719   0.224   4.300  0.0606  0.1320  0.0655
  627W        W 1491   4.268   1.231   6.067 -0.1139 -0.1248 -0.1333
  628W        W 1492   1.903   2.133   4.524 -0.2695  0.0169 -0.2460
  629W        W 1493  13.940   4.030   7.130 -0.3310  0.0328 -0.0346
  630W        W 1494   0.714   3.443   2.948  0.0161  0.2568 -0.0636
  631W        W 1495  13.749   2.115   2.324 -0.1267 -0.0526 -0.3540
  632W        W 1496   3.132   1.585   4.714  0.0498 -0.3996 -0.2027
  633W        W 1497   3.016   1.253   9.052  0.1876 -0.0410  0.3579
  634W        W 1498   2.685   3.045   6.070 -0.0876  0.1492  0.1605
  635W        W 1499   2.032   1.835   5.892  0.0751 -0.0914  0.1503
  636W        W 1500   1.502   4.174   5.271  0.0864  0.0799 -0.0783
  637W        W 1501   1.763   0.406   6.183 -0.0996 -0.3624 -0.3246
  638W        W 1502   1.006   2.055   4.702 -0.0886 -0.2947 -0.2026
  639W        W 1503   0.732   1.544   5.476 -0.2239  0.2093 -0.0282
  640W        W 1504   5.464   1.720   6.490  0.1841 -0.1260  0.2111
  641W        W 1505   3.573   5.123   6.792  0.1278 -0.2416  0.0654
  642W        W 1506  13.802   3.622   3.843  0.1432 -0.1782 -0.3480
  643W        W 1507   2.181   2.697   6.039 -0.3326  0.1012 -0.0472
  644W        W 1508   3.297  13.988   6.515 -0.2493 -0.2760  0.0180
  645W        W 1509   1.171   1.993   6.211  0.0291 -0.2328 -0.6071
  646W        W 1510   1.374   1.887   6.737  0.0360 -0.3751  0.4294
  647W        W 1511   1.822   0.145   8.888  0.0226 -0.2655  0.0081
  648W        W 1512  12.362   0.816   5.683  0.3318  0.2268  0.0416
  649W        W 1513   3.243   3.399   5.374  0.2982 -0.1202 -0.3580
  650W        W 1514   0.549  12.739   4.009  0.0859 -0.3189  0.2548
  651W        W 1515   1.487   2.857   4.694 -0.2672 -0.3705  0.2248
  652W        W 1516   3.490   2.431   2.296 -0.0263 -0.2516 -0.0886
  653W        W 1517   4.053   1.530   2.582 -0.0216 -0.2555  0.0875
  654W        W 1518   4.084   0.311   5.081  0.2699  0.2953  0.0522
  655W        W 1519   0.812   2.040   5.613  0.0118  0.2102 -0.1920
  656W        W 1520   0.510   6.038   7.347 -0.1013 -0.1087  0.1374
  657W        W 1521   3.937   2.226   4.090  0.0577  0.1391 -0.3160
  658W        W 1522   1.577   4.094   3.905 -0.0398 -0.0043  0.1861
  659W        W 1523  13.119   5.741   5.921  0.0579 -0.1187  0.1067
  660W        W 1524  13.473   3.035   5.204 -0.2142  0.2396 -0.0053
  661W        W 1525   4.621   0.619   5.194 -0.2608  0.0822 -0.1626
  662W        W 1526   3.847   2.645   4.476  0.0892 -0.0878  0.1243
  663W        W 1527   2.236   2.368   1.271  0.0963  0.2392 -0.0470
  664W        W 1528   0.742   1.343   7.411 -0.1736  0.0437 -0.0056
  665W        W 1529   2.233   0.663   4.857 -0.0531 -0.0067 -0.1259
  666W        W 1530   2.031   4.083   9.630 -0.1205 -0.0318  0.1370
  667W        W 1531   2.327  13.501   5.649 -0.2473 -0.0079  0.1093
  668W        W 1532   1.229   0.207   2.060  0.0490  0.1320 -0.0421
  669W        W 1533   1.586   2.129   3.921  0.1998 -0.0992  0.0799
  670W        W 1534   0.695  13.489   4.988  0.3887 -0.0632 -0.1902
  671W        W 1535   4.542   3.845   3.369 -0.2916 -0.4239 -0.2521
  672W        W 1536  13.279   3.060   4.604 -0.5396 -0.1408 -0.0229
  673W        W 1537   2.969   6.917   7.849 -0.0395  0.1964  0.1377
  674W        W 1538   3.586   1.572   2.912 -0.1002 -0.0194  0.1036
  675W        W 1539  13.531   4.989   4.813 -0.0387  0.0042  0.0151
  676W        W 1540   1.683   4.268   9.296  0.2505  0.1602 -0.2822
  677W        W 1541   0.526   2.405   4.571  0.1573 -0.1586  0.1795
  678W        W 1542  13.131   4.819   5.069  0.0643  0.2894  0.1493
  679W        W 1543   3.191   1.141   4.927  0.2073  0.2385 -0.2232
  680W        W 1544   3.010   0.574   2.171 -0.0852 -0.2468  0.0128
  681W        W 1545   2.685  13.879   2.726 -0.3162 -0.2150 -0.2448
  682W        W 1546  12.151   4.205   4.187 -0.1239  0.1063  0.1956
  683W        W 1547   0.228   6.216   4.424 -0.1961  0.0479 -0.3074
  684W        W 1548   2.563   1.553   5.779 -0.0928  0.2006  0.1424
  685W        W 1549   2.717  13.679   1.102 -0.3423 -0.0032 -0.0258
  686W        W 1550   2.973   2.053   6.747  0.2185 -0.0966  0.0659
  687W        W 1551   3.001   2.566   6.556 -0.1924  0.0774  0.1029
  688W        W 1552   2.837   2.494   6.047  0.2485 -0.0604  0.2710
  689W        W 1553   1.924   0.291   4.993 -0.4045 -0.0968 -0.1245
  690W        W 1554   0.496   2.368   3.078 -0.0615 -0.1662  0.3333
  691W        W 1555   0.131  12.909   4.472  0.0318 -0.2009  0.2912
  692W        W 1556   2.401   0.110   5.173  0.1022  0.1233 -0.0596
  693W        W 1557   3.482   1.003   3.558 -0.0253 -0.0792 -0.1736
  694W        W 1558   0.865   2.619   3.454  0.2208 -0.0698  0.2664
  695W        W 1559  13.489   1.561   7.544 -0.1465  0.2199 -0.0055
  696W        W 1560   1.363  12.864   6.124  0.0851  0.1656  0.0457
  697W        W 1561   2.019   1.356   6.632 -0.0279  0.3017 -0.0160
  698W        W 1562   3.771   1.407   5.860 -0.2535  0.0117 -0.2204
  699W        W 1563   1.468   2.816   3.944  0.1289 -0.1795 -0.1192
  700W        W 1564   1.264   2.372   8.924  0.0281  0.2490 -0.0960
  701W        W 1565   4.071   0.471   9.662  0.1172  0.0234  0.1079
  702W        W 1566   1.023   2.451   6.817 -0.1234  0.0481  0.1195
  703W        W 1567   3.698   2.272   7.066 -0.3001 -0.3816 -0.0048
  704W        W 1568  13.230   1.386   4.882  0.0526  0.0328  0.1816
  705W        W 1569   4.310   2.162   6.139  0.1710 -0.0500 -0.1898
  706W        W 1570   0.173   3.149   5.703 -0.3303 -0.0389 -0.3392
  707W        W 1571   3.284  13.154   3.399 -0.0168  0.0038  0.1582
  708W        W 1572   0.024   0.769   7.584 -0.0945  0.2132 -0.0668
  709W        W 1573   4.597  12.630   2.987 -0.1542  0.2466  0.0397
  710W        W 1574   4.230   1.585   5.750 -0.0383 -0.0617  0.3686
  711W        W 1575   0.617   3.164   7.858  0.0272  0.3464  0.0466
  712W        W 1576   2.320   1.509   2.943 -0.0034 -0.0768 -0.3636
  713W        W 1577   2.691   0.963   4.902  0.0341  0.0721  0.0714
  714W        W 1578   4.480  13.825   4.634  0.0764  0.1784  0.0598
  715W        W 1579   2.360   2.021   3.249  0.1160 -0.2326 -0.0326
  716W        W 1580   0.688  12.723   6.188 -0.2453  0.1953 -0.1471
  717W        W 1581   1.064   1.088   5.623  0.1033  0.2305  0.0714
  718W        W 1582   1.760  13.414   7.494 -0.0225  0.0741  0.2166
  719W        W 1583   0.389  12.673   9.609  0.1945  0.0570 -0.1146
  720W        W 1584   4.023   2.777   5.332 -0.1137  0.1014 -0.3218
  721W        W 1585   3.768   3.333   5.678 -0.1072 -0.0946  0.0998
  722W        W 1586   1.913  13.686   4.329 -0.0028  0.1645 -0.2348
  723W        W 1587   1.295   0.067   3.507 -0.2221  0.2918 -0.2368
  724W        W 1588   1.746   4.422   4.488 -0.2382  0.3044 -0.3018
  725W        W 1589   3.735  13.864   5.111 -0.0431  0.0274  0.0319
  726W        W 1590   4.963   0.584   8.497  0.3229  0.0860 -0.0414
  727W        W 1591   2.359   2.499   7.292  0.0327  0.1689  0.0287
  728W        W 1592   2.903   3.309   4.544 -0.1871  0.1620  0.2344
  729W        W 1593   0.988   2.942   3.921 -0.1548  0.0695 -0.1169
  730W        W 1594   4.225   0.794   6.365 -0.3547 -0.0403  0.2541
  731W        W 1595   0.793   0.679   5.738  0.2828 -0.0753 -0.2835
  732W        W 1596   2.275   1.656   6.301  0.0499 -0.0380 -0.1667
  733W        W 1597  13.428   0.841   4.748 -0.0830  0.1395  0.2439
  734W        W 1598   2.162  13.417   7.101 -0.2576 -0.1810  0.2727
  735W        W 1599   3.230   3.785   6.190 -0.0905 -0.1790 -0.4247
  736W        W 1600   3.332   2.280   3.139 -0.0089 -0.1541 -0.0786
  737W        W 1601   1.125   0.822   8.668 -0.2261 -0.2816  0.0307
  738W        W 1602   4.183   0.581   5.898 -0.1662  0.1683  0.1961
  739W        W 1603  13.557   0.215   4.870 -0.2203 -0.2095 -0.2899
  740W        W 1604   3.772   1.196   4.915  0.0837  0.1293  0.0371
  741W        W 1605   3.865   4.872   7.060  0.0803  0.0779 -0.1788
  742W        W 1606   1.251   4.339   4.810  0.1839 -0.0060 -0.0265
  743W        W 1607   1.801   5.238   7.682 -0.2667  0.1993 -0.0293
  744W        W 1608   4.326   0.481   4.671 -0.1169  0.0702  0.0370
  745W        W 1609   0.457   7.567   8.039  0.1471  0.0526  0.1697
  746W        W 1610   2.627  13.592   7.229  0.1188 -0.2638  0.1784
  747W        W 1611   2.810  12.835   6.486 -0.0220  0.1406  0.1053
  748W        W 1612   0.481   0.481   6.054  0.1178  0.1376  0.0625
  749W        W 1613   1.514  13.905   6.268  0.0576 -0.2725  0.1074
  750W        W 1614   3.326   0.119   8.119 -0.2544  0.1620  0.0427
  751W        W 1615   2.596   3.590   4.235 -0.2204 -0.0708  0.0557
  752W        W 1616   1.354   3.374   6.880  0.1401  0.1881 -0.1703
  753W        W 1617   1.601  13.680   3.882  0.0327 -0.0026 -0.1661
  754W        W 1618   1.413  11.254   6.892 -0.0523 -0.2575  0.1531
  755W        W 1619  12.266   4.343   4.706 -0.3207  0.4581  0.3565
  756W        W 1620   2.341   1.907   4.645  0.0719 -0.0772 -0.2313
  757W        W 1621   0.541   1.153   7.839 -0.2520  0.0020  0.1438
  758W        W 1622   4.677   2.991   5.678  0.1932 -0.2079 -0.0292
  759W        W 1623   4.626  11.763   5.486 -0.0464  0.1220  0.2079
  760W        W 1624   1.422   2.334   4.730  0.0773  0.0807  0.0020
  761W        W 1625   1.970   2.625   7.032  0.4113  0.1467 -0.1567
  762W        W 1626   1.734   4.091   7.235  0.1602  0.1790 -0.1485
  763W        W 1627   1.401   5.159   5.508  0.1381  0.1739 -0.0191
  764W        W 1628  10.958  13.357   5.453 -0.0676  0.1709 -0.1348
  765W        W 1629   2.704  13.702   5.932  0.0848 -0.0211  0.0184
  766W        W 1630   1.311   0.576   4.595  0.0968  0.0311  0.0770
  767W        W 1631   1.606   1.037   5.532  0.1410 -0.4248 -0.1704
  768W        W 1632   3.565   1.392   3.885  0.0460 -0.0575 -0.1858
  769W        W 1633   2.909   1.461   5.331  0.1354 -0.4145 -0.2233
  770W        W 1634   0.772   3.153   3.498 -0.1525 -0.1080  0.1900
  771W        W 1635   1.649  12.906   2.194  0.2048 -0.0184 -0.1457
  772W        W 1636   2.692   1.625   2.566  0.0028  0.1958 -0.1040
  773W        W 1637   5.782   1.907   6.163 -0.0728  0.0970  0.2379
  774W        W 1638   1.806   5.367   5.839  0.1008 -0.2296 -0.0803
  775W        W 1639   1.704   3.184   5.353 -0.0663 -0.2410  0.0342
  776W        W 1640   1.677   1.787   6.272  0.2157  0.1672  0.1015
  777W        W 1641   0.892  13.694   7.113  0.0917  0.4155  0.3080
  778W        W 1642  13.619   0.007   4.260  0.0806  0.1378 -0.2333
  779W        W 1643  13.129   3.276   3.269 -0.3881  0.3139  0.4298
  780W        W 1644  12.974   5.105   3.633  0.5184 -0.1826  0.1285
  781W        W 1645   1.873   0.682   9.034  0.0699 -0.1251  0.0366
  782W        W 1646  10.472   4.521   4.205  0.2040  0.3990 -0.0802
  783W        W 1647   4.356   2.629   3.988  0.2085 -0.0353  0.1795
  784W        W 1648   3.117  13.806   5.088  0.1848  0.0171 -0.1443
  785W        W 1649   2.111   2.178   6.232 -0.2492 -0.2339  0.0269
  786W        W 1650   3.068   3.715   4.348 -0.0230 -0.1797  0.4208
  787W        W 1651   0.917   0.385   4.909 -0.0231 -0.3872  0.2069
  788W        W 1652   4.807  11.683   6.395 -0.0168 -0.0032 -0.1277
  789W        W 1653  12.455   5.872   5.792 -0.2797  0.1730 -0.2144
  790W        W 1654  13.129   4.739   4.544 -0.2732 -0.4663  0.1904
  791W        W 1655   0.586   4.892   4.205  0.1625  0.5784  0.0366
  792W        W 1656   1.070   1.717   7.600  0.2468 -0.1746  0.1067
  793W        W 1657   0.068   6.384   3.345  0.0885 -0.1092  0.1182
  794W        W 1658   4.378   3.917   4.758 -0.0264 -0.0913  0.1901
  795W        W 1659   5.717   2.411   3.970 -0.3675 -0.1775  0.1786
  796W        W 1660   2.884   0.151   1.872 -0.1062 -0.2044 -0.2337
  797W        W 1661   2.853   0.372   3.218 -0.0701  0.3501 -0.2471
  798W        W 1662   3.459   2.125   8.223  0.1516 -0.1415  0.4139
  799W        W 1663   5.911   1.488   6.415 -0.1169  0.3081  0.1460
  800W        W 1664   0.922  13.651   3.083 -0.2727  0.0083  0.0853
  801W        W 1665   1.283   0.801   6.026  0.0412 -0.2555 -0.1182
  802W        W 1666   3.881   1.443   5.309  0.1665 -0.0014  0.2654
  803W        W 1667   2.226   3.277   5.229  0.0494 -0.0287  0.1690
  804W        W 1668  12.729   2.329   5.399  0.2499  0.0519 -0.0604
  805W        W 1669   1.583  12.555   7.466  0.2588 -0.0370 -0.1495
  806W        W 1670   1.342   0.764   6.522  0.0504  0.4493 -0.3338
  807W        W 1671   3.835  13.196   6.223 -0.2876 -0.0831 -0.0744
  808W        W 1672   1.508  13.771   7.310 -0.2315  0.2586 -0.2792
  809W        W 1673   2.663  13.839   3.790 -0.0722  0.0706  0.0711
  810W        W 1674  13.796  13.437   6.045  0.0113  0.2195 -0.0830
  811W        W 1675   0.159   3.154   4.480  0.1392  0.0161  0.0925
  812W        W 1676   1.929   1.393   6.083  0.2097 -0.0525  0.1123
  813W        W 1677   1.478   1.372   5.864 -0.3762  0.4045  0.0190
  814W        W 1678   5.498  13.996   4.959 -0.0162 -0.1846 -0.2726
  815W        W 1679   4.253   0.656   4.157 -0.0839 -0.0413 -0.0867
  816W        W 1680   1.674   2.340   6.081 -0.0115 -0.0474  0.4104
  817W        W 1681   2.521   1.786   6.696 -0.2664  0.0044  0.1029
  818W        W 1682   1.246  12.720   3.559  0.0480  0.0981  0.1517
  819W        W 1683   1.521   3.055   8.460 -0.0360  0.1594 -0.0962
  820W        W 1684   3.503   0.547   3.752  0.3662 -0.1875 -0.2084
  821W        W 1685   0.094   3.495   2.333 -0.1270 -0.1708 -0.0412
  822W        W 1686   3.104   2.425   4.536 -0.1718 -0.0878 -0.2065
  823W        W 1687   0.960  13.963   7.610  0.0156  0.1918  0.1826
  824W        W 1688   4.019  13.988   4.713 -0.2339  0.1209 -0.1986
  825W        W 1689   2.781   0.922   7.422  0.1883 -0.1982  0.1479
  826W        W 1690   3.368   1.074   6.523 -0.0896 -0.4023 -0.0479
  827W        W 1691   3.134   0.098   8.651 -0.0105 -0.2878 -0.1204
  828W        W 1692   4.689  13.231   2.700  0.1462  0.1421  0.1231
  829W        W 1693   4.752   0.944   7.502  0.4623 -0.0481  0.1145
  830W        W 1694   5.388   4.242   3.135 -0.0340  0.1797  0.4244
  831W        W 1695   1.609   2.622  10.667  0.4392 -0.0927  0.0093
  832W        W 1696   0.918   1.076   6.981  0.3368  0.3200 -0.0586
  833W        W 1697   3.904   0.011   9.880 -0.2475 -0.2233 -0.0927
  834W        W 1698   1.943   1.258   7.267  0.1937 -0.0199  0.0090
  835W        W 1699  13.276   3.328   7.729 -0.0465 -0.0911  0.3472
  836W        W 1700   1.334   0.221   4.159  0.0399 -0.2110  0.0563
  837W        W 1701   4.485  13.743   4.145 -0.2840  0.0853  0.0709
  838W        W 1702   2.851   0.964   6.485  0.0729  0.0712 -0.1196
  839W        W 1703   2.187   3.049   6.816 -0.1337  0.1150 -0.0609
  840W        W 1704   5.617   0.078   8.697  0.3594 -0.0994 -0.0371
  841W        W 1705   2.721   4.597   8.629 -0.0403  0.0607 -0.1126
  842W        W 1706   3.560  13.501   4.471  0.1055  0.0086  0.2895
  843W        W 1707   3.093  12.772   5.619  0.0387  0.0809 -0.1157
  844W        W 1708   1.963   1.703   7.602  0.1928  0.0367 -0.3835
  845W        W 1709  13.519   5.040   3.305  0.1942 -0.0514  0.0992
  846W        W 1710   2.949   1.789   3.877 -0.1300 -0.2402  0.0596
  847W        W 1711  13.746   1.619   7.976  0.1198  0.3376  0.2539
  848W        W 1712   4.959   1.955   4.552  0.0590 -0.0247  0.2062
  849W        W 1713   5.983   2.455   6.247 -0.0229  0.2788 -0.3787
  850W        W 1714   0.069  11.805   7.257  0.0636  0.0216  0.1989
  851W        W 1715   3.270   1.477   4.274 -0.1405 -0.2197  0.3074
  852W        W 1716   3.349   1.076   7.754 -0.3888 -0.0569 -0.1923
  853W        W 1717   0.794   2.289   2.451  0.0841  0.0828  0.2795
  854W        W 1718   2.511   1.243   6.697 -0.0574 -0.2931  0.1725
  855W        W 1719  13.683  12.958   4.723 -0.0735  0.3637  0.3405
  856W        W 1720  12.524   2.284   7.665 -0.2810 -0.2208  0.3814
  857W        W 1721   0.363  13.924   7.249 -0.2554 -0.1919 -0.2087
  858W        W 1722   0.983   2.427   2.013 -0.1426 -0.1592 -0.1286
  859W        W 1723   2.774   0.802   6.944  0.0648 -0.1033  0.0683
  860W        W 1724  13.915   4.227   4.334 -0.2934  0.0309  0.0662
  861W        W 1725   4.108   2.945   4.754 -0.0281 -0.1277 -0.0035
  862W        W 1726  12.475   1.646   6.763  0.0499  0.1611  0.0735
  863W        W 1727   2.519   1.945   4.056 -0.1721  0.1231  0.1588
  864W        W 1728   1.982   5.449   5.396  0.1768 -0.2833 -0.0264
  865W        W 1729   5.930   3.744   9.899 -0.0222 -0.1974 -0.1122
  866W        W 1730   2.759   1.968   6.289  0.1713  0.0825 -0.0592
  867W        W 1731   1.236   2.376   3.750  0.0546 -0.1367 -0.4785
  868W        W 1732   5.606   1.018   3.284  0.0829 -0.3957  0.0960
  869W        W 1733   4.048  13.890   2.884  0.1484  0.0051 -0.0476
  870W        W 1734   3.189  13.103   8.173  0.0708 -0.1305  0.3158
  871W        W 1735   2.606   1.484   4.788  0.0565  0.0776  0.0975
  872W        W 1736   5.667   2.668   4.407  0.1073  0.1682  0.1607
  873W        W 1737   1.120   3.495   5.446  0.0076  0.3351 -0.1239
  874W        W 1738   2.385   1.340   4.384 -0.2851 -0.2539  0.3328
  875W        W 1739   3.461   2.422   6.640 -0.0861  0.0982  0.1539
  876W        W 1740   0.019   3.053   5.106  0.0801 -0.0277 -0.2228
  877W        W 1741   0.949   5.143   4.632  0.3774 -0.1708 -0.1489
  878W        W 1742   0.212   0.242   8.277 -0.0258 -0.0310 -0.1516
  879W        W 1743   0.300   4.388   2.853  0.0620  0.1044 -0.0430
  880W        W 1744   4.231   1.202   4.007  0.3218  0.1579  0.1101
  881W        W 1745  13.684   2.596   5.214 -0.1776 -0.0464 -0.2375
  882W        W 1746   3.095   3.257   2.846  0.1621  0.1058 -0.2315
  883W        W 1747   2.451   2.394   5.452  0.1686 -0.1619  0.4026
  884W        W 1748   4.333   2.943   6.680  0.4728 -0.0710 -0.3847
  885W        W 1749   0.789   0.118   9.300 -0.3186  0.1383  0.1717
  886W        W 1750   1.029   3.929   6.363 -0.0638  0.0492  0.0603
  887W        W 1751  13.475   4.303   7.093 -0.1792  0.0733  0.1412
  888W        W 1752   3.857   2.837   7.908 -0.1078 -0.1410  0.0632
  889W        W 1753  13.819   0.204   5.343 -0.4196 -0.0294  0.1354
  890W        W 1754  13.966   1.936   5.810  0.1692 -0.2234 -0.1441
  891W        W 1755   0.840  13.963   3.440  0.0629 -0.2399 -0.0713
  892W        W 1756  11.085   0.933   7.455  0.0366  0.1721  0.3312
  893W        W 1757   3.775  12.625   4.579  0.2535  0.2339 -0.1753
  894W        W 1758   2.102  12.645   2.127  0.0230 -0.2007  0.2377
  895W        W 1759   1.304   3.925   5.634 -0.0797 -0.1682  0.0758
  896W        W 1760   0.368   2.252   8.960 -0.0960 -0.0867 -0.0688
  897W        W 1761   2.708   1.256   3.041  0.0354  0.3367  0.2400
  898W        W 1762   3.819   1.681   6.826  0.0838  0.0351  0.3457
  899W        W 1763   1.541   0.508   5.655  0.0626  0.1023  0.0271
  900W        W 1764   0.537   2.398   5.136  0.0634  0.0521 -0.1653
  901W        W 1765   2.070  13.060   5.477  0.1018 -0.1850  0.3470
  902W        W 1766   2.483   0.837   4.431 -0.0631 -0.0115 -0.1225
  903W        W 1767   3.542   0.939   5.759 -0.0920  0.4273  0.1998
  904W        W 1768   4.642  11.370   5.137 -0.0705  0.0923  0.1229
  905W        W 1769   2.491  13.471   2.516  0.0332  0.0114 -0.1039
  906W        W 1770   3.624   1.715   4.698 -0.0018  0.2443  0.1138
  907W        W 1771   2.360   1.856   5.425 -0.1977  0.0670  0.0137
  908W        W 1772   6.083   1.774   4.422  0.0802  0.1458  0.0568
  909W        W 1773   0.966  12.811   4.643 -0.0609 -0.1099 -0.0600
  910W        W 1774   3.725   0.719   7.768 -0.2029 -0.0989  0.0333
  911W        W 1775   3.931  13.112   4.501  0.0634 -0.0859 -0.1001
  912W        W 1776  10.565   1.546   7.710 -0.3608 -0.2174  0.0864
  913W        W 1777   2.763   0.874   8.432  0.0299 -0.1121  0.1213
  914W        W 1778   1.645   3.200   9.370 -0.0506  0.2837  0.1215
  915W        W 1779   6.651   1.676   7.158 -0.3964  0.1072 -0.2906
  916W        W 1780   5.056   2.393   3.626 -0.0548 -0.1657  0.2194
  917W        W 1781   3.221   4.206   6.744 -0.0760 -0.3246 -0.0364
  918W        W 1782   1.587  13.127   9.568 -0.1364  0.0294 -0.1585
  919W        W 1783   1.430   0.600   0.474  0.1625  0.2738  0.1830
  920W        W 1784   3.977   0.750   6.797  0.2748 -0.0167  0.1524
  921W        W 1785   0.916   3.106   4.726 -0.1041  0.2583  0.0205
  922W        W 1786   0.605  12.658   1.181 -0.2865  0.3888 -0.0927
  923W        W 1787   1.107   2.092   7.194  0.2876  0.1563 -0.0127
  924W        W 1788   2.726   1.584   3.453  0.4059 -0.1043  0.2916
  925W        W 1789   1.924   2.698   6.434  0.0686 -0.1622 -0.0515
  926W        W 1790   1.495   2.986   6.077 -0.1199  0.3054  0.1739
  927W        W 1791   3.726   2.035   5.058 -0.0960  0.1637  0.2590
  928W        W 1792   3.160   1.671   2.647 -0.2500 -0.2021 -0.1354
  929W        W 1793   2.232   1.161   4.820  0.1867  0.0967 -0.1040
  930W        W 1794   2.507   3.970   9.394  0.0207 -0.1094 -0.1901
  931W        W 1795   0.898   0.315   3.862 -0.1938 -0.2004  0.0738
  932W        W 1796   1.018   3.623   5.971  0.0318  0.0539 -0.2118
  933W        W 1797   2.177   4.961   2.116 -0.1439  0.0806 -0.0835
  934W        W 1798   1.047   1.240   6.185  0.0581 -0.2160 -0.2030
  935W        W 1799   1.799   5.135   5.043 -0.3230  0.4132 -0.1190
  936W        W 1800  12.863   3.409   5.661 -0.4056  0.1351  0.1030
  937W        W 1801   1.240   3.702   8.912 -0.3462  0.0165 -0.1699
  938W        W 1802   1.998  12.246   2.755 -0.0799  0.2427 -0.0685
  939W        W 1803  13.625   2.158   3.153 -0.1951 -0.2979 -0.0990
  940W        W 1804   0.916   2.550   5.420  0.0899 -0.2263 -0.1289
  941W        W 1805  12.389   1.908   6.364  0.0021  0.0797 -0.1077
  942W        W 1806   3.175   1.059   7.056 -0.1072 -0.0005 -0.1228
  943W        W 1807   6.936  11.652   6.652 -0.3209  0.1905 -0.1183
  944W        W 1808   3.697   0.521   5.990 -0.2197  0.2410 -0.0622
  945W        W 1809   2.514   2.060   7.108 -0.2463  0.1519 -0.3226
  946W        W 1810   3.603   3.061   5.009 -0.0379  0.2627  0.3239
  947W        W 1811   4.183   3.076   5.699 -0.0775  0.1432  0.1932
  948W        W 1812   2.507   2.157   5.865 -0.0076 -0.1767 -0.0638
  949W        W 1813   3.732   1.730   4.212 -0.0189 -0.0896  0.0637
  950W        W 1814   0.473   2.378   5.662  0.1288 -0.0670 -0.1597
  951W        W 1815  13.140   5.509   4.068 -0.2441 -0.0440 -0.0672
  952W        W 1816   3.098   0.508   6.691 -0.0002  0.2835 -0.0903
  953W        W 1817  13.944   0.703   4.721  0.2306  0.1961 -0.1251
  954W        W 1818  13.257   2.602   4.962  0.1948 -0.0670  0.0468
  955W        W 1819   3.022   2.334   3.999  0.0360 -0.3690  0.2922
  956W        W 1820   1.660   4.776   3.293 -0.0759  0.2755 -0.0329
  957W        W 1821   3.727  13.758   3.420 -0.3212  0.1416 -0.0484
  958W        W 1822   1.741   1.085   4.922 -0.0410  0.0239  0.1568
  959W        W 1823   3.602   0.589   6.465 -0.0933  0.0639 -0.0460
  960W        W 1824  13.660   0.560   5.766  0.0119  0.4522 -0.1327
  961W        W 1825   1.457   0.706   7.279  0.1263  0.0546  0.1556
  962W        W 1826   4.558   1.624   4.842 -0.2231 -0.0983 -0.0971
  963W        W 1827   4.549   2.865   4.529  0.0397 -0.1097  0.1856
  964W        W 1828  13.373   4.836   7.993 -0.2405 -0.0210 -0.0383
  965W        W 1829   3.170   3.744   2.980 -0.0729 -0.0383  0.3035
  966W        W 1830   2.917  13.488   6.761  0.1061  0.4384  0.0416
  967W        W 1831  12.164   4.721   4.976 -0.1167  0.0259  0.0417
  968W        W 1832   3.047   0.927   5.494  0.2892  0.2397  0.0428
  969W        W 1833   0.105   2.559   4.891  0.0218  0.2935  0.1544
  970W        W 1834   1.524   1.303   6.412 -0.0985 -0.2443 -0.0660
  971W        W 1835   3.431   0.620   3.262  0.2426  0.1034 -0.3095
  972W        W 1836   3.318   1.156   8.644  0.2080  0.2619  0.0723
  973W        W 1837   1.741   2.238   6.556 -0.0297 -0.0208 -0.1101
  974W        W 1838   3.229  12.092   4.535  0.2723  0.0683 -0.0299
  975W        W 1839   2.656   4.881   4.332  0.1807 -0.0806 -0.4216
  976W        W 1840   3.445   2.924   6.541  0.2808 -0.0373 -0.0679
  977W        W 1841   1.783   3.197   6.543 -0.0497 -0.0422 -0.0922
  978W        W 1842   4.219   1.803   5.182 -0.0310 -0.1867 -0.0775
  979W        W 1843   3.641   0.582   4.305 -0.0889 -0.1367  0.0856
  980W        W 1844   2.232   0.113   4.590 -0.0016 -0.0600 -0.2027
  981W        W 1845   2.703  13.916   4.848  0.2365 -0.1221  0.0226
  982W        W 1846   6.284   0.171   6.318  0.0418 -0.0328  0.4370
  983W        W 1847   5.918   3.507   3.067 -0.1806 -0.0318  0.1774
  984W        W 1848   4.034  13.629   4.349  0.1232  0.1927  0.4360
  985W        W 1849   3.202   2.064   4.927  0.2956 -0.0225 -0.0508
  986W        W 1850   0.457   0.487   4.634 -0.0340  0.1403  0.1164
  987W        W 1851   3.011   0.697   3.572  0.0497 -0.1439 -0.2723
  988W        W 1852   4.795   3.164   6.627  0.0287  0.2016 -0.1012
  989W        W 1853   2.520   0.079   7.220  0.1643 -0.0250 -0.0846
  990W        W 1854   1.844   3.802   6.296 -0.3445 -0.1540  0.0130
  991W        W 1855   1.924   0.882   6.391  0.0704  0.1587 -0.1387
  992W        W 1856  13.022   1.888   5.439 -0.0971  0.2264 -0.1037
  993W        W 1857   3.188   4.885   5.628 -0.0260  0.0390 -0.2699
  994W        W 1858   2.582   4.727   5.638  0.1261  0.0667 -0.1055
  995W        W 1859   3.023   1.212   8.158  0.0050  0.0951  0.0143
  996W        W 1860   2.389   5.503   4.428  0.1732 -0.3888  0.0169
  997W        W 1861   1.311   3.398   7.380 -0.0624  0.1598  0.0174
  998W        W 1862   3.256   1.987   4.269 -0.1362  0.2173 -0.0243
  999W        W 1863   3.591   0.962   5.263  0.1509  0.1153  0.0444
 1000W        W 1864   3.615   1.893   7.333  0.2478  0.3729  0.0195
 1001W        W 1865   2.362   3.080   3.501  0.1144 -0.1214 -0.1162
 1002W        W 1866   1.510   1.521   7.786 -0.2457  0.3608  0.0774
 1003W        W 1867   0.632   5.355   4.997 -0.0432  0.5303 -0.5131
 1004W        W 1868   0.517   5.843   2.852 -0.0197 -0.2484  0.1164
 1005W        W 1869   1.078   1.321   7.876  0.0854  0.0758  0.0949
 1006W        W 1870   4.126   0.961   5.166 -0.0022  0.0263 -0.2583
 1007W        W 1871   1.653   4.030   8.189 -0.0313 -0.0405 -0.0216
 1008W        W 1872   0.568   2.575   6.166  0.1148  0.0656 -0.0601
 1009W        W 1873   1.366  13.311   1.067 -0.3453  0.3856  0.3354
 1010W        W 1874   2.579   2.649  13.202  0.0245 -0.2643 -0.0617
 1011W        W 1875   1.832   3.451  10.787  0.0074  0.1625  0.0620
 1012W        W 1876   2.978   0.734   8.983  0.2343 -0.0678 -0.1775
 1013W        W 1877   1.499   2.848   7.452  0.1897 -0.1036 -0.3920
 1014W        W 1878   0.659   4.510  10.663  0.2299  0.1954 -0.0935
 1015W        W 1879   1.396   0.047   8.469 -0.0481 -0.1644  0.0851
 1016W        W 1880   3.289   0.751  10.036  0.2360  0.2613  0.1709
 1017W        W 1881   3.447   3.707   6.874  0.0061 -0.0231 -0.0112
 1018W        W 1882   3.873   6.297   9.405 -0.1496  0.0300  0.1902
 1019W        W 1883  11.771   0.815  10.942 -0.0866  0.2128 -0.3678
 1020W        W 1884  13.880   0.706   9.781  0.0324 -0.0938  0.0066
 1021W        W 1885   0.527   0.345   9.692 -0.2102 -0.2704 -0.0771
 1022W        W 1886   2.800  13.796  10.062  0.1406  0.0729 -0.2419
 1023W        W 1887   4.014   3.586  10.030 -0.1259 -0.0369  0.0879
 1024W        W 1888   1.166   0.356  11.325  0.1610 -0.1963 -0.0203
 1025W        W 1889  11.402   4.885  12.204  0.1761 -0.0963 -0.4365
 1026W        W 1890  13.788   2.063   7.680  0.2362 -0.0224 -0.1822
 1027W        W 1891   1.392   1.815  10.468  0.4597  0.2000 -0.0664
 1028W        W 1892   0.293   2.538  10.488 -0.0690 -0.1448  0.0087
 1029W        W 1893   1.378   2.131   8.384 -0.2982  0.2750  0.2353
 1030W        W 1894   1.842   2.819  11.889 -0.0702 -0.0148 -0.0783
 1031W        W 1895   0.769   2.365   9.444 -0.0209 -0.0443  0.0533
 1032W        W 1896   1.745   1.429   8.553 -0.3303 -0.0096  0.2598
 1033W        W 1897  12.989   2.449   9.171 -0.0117  0.5119 -0.0601
 1034W        W 1898   0.115   3.335   8.792 -0.0591  0.1487 -0.0894
 1035W        W 1899   4.181   2.744  12.858  0.1839  0.3452  0.1919
 1036W        W 1900   4.390   1.867  10.964  0.2694  0.0119  0.2300
 1037W        W 1901   0.213   1.561   9.658 -0.0305 -0.0055  0.0604
 1038W        W 1902   1.904   2.018  12.904  0.1160 -0.0752 -0.1935
 1039W        W 1903   2.363  13.506   8.566 -0.1956 -0.0975  0.2736
 1040W        W 1904  13.896   1.702   9.310  0.1626  0.2273  0.2468
 1041W        W 1905   2.906   3.769  12.091  0.2644  0.2982 -0.1919
 1042W        W 1906   3.632   0.936  11.484  0.2789  0.0450  0.1001
 1043W        W 1907   5.980   0.608  10.550  0.1283  0.4226  0.1454
 1044W        W 1908   1.250  13.951  10.924 -0.0596  0.1690  0.1080
 1045W        W 1909   4.669   3.752  10.740  0.2303  0.1264 -0.2369
 1046W        W 1910  12.554  11.915   7.865  0.1427  0.0867 -0.4733
 1047W        W 1911   2.173   2.578  12.345  0.1894  0.2385  0.1783
 1048W        W 1912   2.953   1.858   8.984 -0.3480 -0.1216  0.2752
 1049W        W 1913   2.688  13.270   8.155  0.1602  0.2411 -0.5759
 1050W        W 1914   2.559   1.072   8.823 -0.2771 -0.0079  0.2142
 1051W        W 1915   5.146   2.622  10.398 -0.2538  0.2276 -0.1357
 1052W        W 1916   1.979   3.792  11.148 -0.2564 -0.2205  0.2346
 1053W        W 1917   4.382   3.825   8.315  0.1641  0.3135 -0.0405
 1054W        W 1918  11.683   5.785   9.800 -0.1221  0.1778  0.1167
 1055W        W 1919   2.010   3.239   9.044  0.1410  0.1989 -0.1406
 1056W        W 1920   3.976   2.765   9.362  0.0291  0.0587 -0.2254
 1057W        W 1921   3.992  13.671  10.700 -0.0458  0.1155  0.0859
 1058W        W 1922   2.004   3.266   8.479 -0.0662 -0.1728  0.1157
 1059W        W 1923   2.363   1.923   9.364 -0.1323 -0.2473  0.0807
 1060W        W 1924   3.231   5.523   7.604  0.0298  0.0380 -0.3011
 1061W        W 1925   3.558   0.332   8.733 -0.0423  0.0815  0.1096
 1062W        W 1926   2.486   3.428   9.313 -0.0475  0.1595  0.0597
 1063W        W 1927   1.782   2.420   7.507  0.0137 -0.2885  0.2419
 1064W        W 1928   2.886  13.489   7.781 -0.1019 -0.0224 -0.0686
 1065W        W 1929  12.294   4.260   7.996  0.2931  0.1429  0.0925
 1066W        W 1930  13.123  12.279   9.202 -0.0385  0.2764 -0.2697
 1067W        W 1931   1.939   1.076   9.830 -0.2442  0.0837  0.3826
 1068W        W 1932  13.856   6.503  10.142  0.2415  0.0639  0.1508
 1069W        W 1933   1.716   2.362   8.613  0.1625 -0.2045 -0.0563
 1070W        W 1934   1.831   0.922   6.868 -0.3783 -0.0496 -0.0908
 1071W        W 1935  13.591   4.232   8.667  0.2699  0.0753  0.1091
 1072W        W 1936   0.285   6.099  11.769 -0.2288  0.1337 -0.1239
 1073W        W 1937   3.056   0.381   9.871  0.4075  0.0075 -0.2603
 1074W        W 1938  13.853   3.130  10.013  0.3103  0.1882 -0.0295
 1075W        W 1939   3.425   1.838   7.835 -0.0031 -0.0848 -0.2697
 1076W        W 1940   2.690   2.167   7.549 -0.2596 -0.0972  0.1417
 1077W        W 1941   0.782   0.285   6.355 -0.0834 -0.0795 -0.1949
 1078W        W 1942   1.052   4.161  10.051 -0.0303  0.0552 -0.1425
 1079W        W 1943   1.202   3.261  10.120 -0.1335 -0.0377  0.0045
 1080W        W 1944   2.571   4.256  12.778 -0.0658 -0.0404  0.0262
 1081W        W 1945   1.407   0.117   4.892  0.0397  0.0031  0.2960
 1082W        W 1946   1.842   1.856   8.227 -0.2039 -0.0298  0.3490
 1083W        W 1947   1.309  13.473   9.295 -0.0465 -0.0822 -0.0350
 1084W        W 1948   2.565   1.822   9.808  0.2425 -0.0816  0.0162
 1085W        W 1949   3.909   2.054  10.461 -0.2561 -0.2759 -0.0746
 1086W        W 1950   2.328   0.763   7.652  0.0393 -0.2277  0.0402
 1087W        W 1951   5.075   1.877  10.906  0.1846  0.0752  0.0584
 1088W        W 1952  13.957   1.966   8.212 -0.0947 -0.0287 -0.2320
 1089W        W 1953   1.715  13.513   6.967 -0.3214  0.0236  0.0399
 1090W        W 1954   0.435   2.766   8.219 -0.0426 -0.0052 -0.0847
 1091W        W 1955   1.471  13.315  10.765  0.1598 -0.0287 -0.1043
 1092W        W 1956   1.280  13.270   7.271  0.0077  0.1799  0.0761
 1093W        W 1957   0.708   3.144  10.165  0.1037  0.0234  0.1031
 1094W        W 1958   5.230   1.265  10.130  0.0781 -0.0953  0.1416
 1095W        W 1959   2.461   0.659   9.080 -0.1828 -0.0071  0.0465
 1096W        W 1960   4.700   3.081  12.656 -0.0338  0.0396  0.0533
 1097W        W 1961   2.743   0.775  10.856  0.0338 -0.1873 -0.1502
 1098W        W 1962   5.606   3.225  10.947 -0.2014 -0.0017 -0.0794
 1099W        W 1963   3.271   0.834  12.291  0.3701  0.0927  0.0023
 1100W        W 1964   2.415   1.499  11.528  0.0621  0.0579 -0.1808
 1101W        W 1965   2.104   2.388   9.612 -0.0179  0.0996 -0.0360
 1102W        W 1966   1.739   4.806  10.170  0.1899  0.1035 -0.3509
 1103W        W 1967   0.805   0.256   7.212 -0.1506  0.0467  0.1599
 1104W        W 1968  12.793  11.961   8.800 -0.3189  0.0667  0.0060
 1105W        W 1969   1.747   0.531   7.757 -0.0778 -0.2285 -0.1815
 1106W        W 1970   4.619  13.452   7.940 -0.2143 -0.0201 -0.3532
 1107W        W 1971  13.691   3.531  11.460 -0.0049 -0.3382 -0.3417
 1108W        W 1972  13.791  11.181   7.725 -0.1027  0.0778  0.0973
 1109W        W 1973   4.253   0.469  10.126 -0.2270  0.1079 -0.1060
 1110W        W 1974   1.984   0.689   7.295  0.1585 -0.2342 -0.0971
 1111W        W 1975  13.444   1.276   9.173  0.0187 -0.0865  0.0403
 1112W        W 1976   2.372   1.074   7.155 -0.0116 -0.2780 -0.0749
 1113W        W 1977   2.576   2.260   8.013 -0.0680  0.2681  0.0947
 1114W        W 1978   3.213  12.751  10.226 -0.1767 -0.1947  0.1214
 1115W        W 1979   2.415   1.109   9.889 -0.1275 -0.2027 -0.0438
 1116W        W 1980   1.522   4.836   7.996  0.0293 -0.0092  0.2616
 1117W        W 1981   2.907   2.442  11.278  0.2398 -0.2500 -0.2950
 1118W        W 1982   2.323  13.492  10.306 -0.0324  0.3386 -0.1513
 1119W        W 1983  13.641  13.811  11.205 -0.0293 -0.0496  0.1788
 1120W        W 1984   0.549   2.096  11.410 -0.0104  0.2678 -0.1647
 1121W        W 1985   1.772   1.403  13.059  0.5566  0.0606  0.0872
 1122W        W 1986   4.760   2.086   9.986 -0.1091 -0.1410  0.1847
 1123W        W 1987   1.064   4.534  11.444  0.3083  0.4960  0.0314
 1124W        W 1988   3.635   1.290   9.061  0.3156 -0.0409  0.0519
 1125W        W 1989  13.437   2.395   7.808  0.2292  0.3058 -0.1891
 1126W        W 1990   6.090   0.077   8.950 -0.2218 -0.0592  0.2717
 1127W        W 1991   2.718   1.365  10.160  0.0996  0.1131 -0.0525
 1128W        W 1992   3.364   2.162  10.218 -0.1165  0.0116  0.0975
 1129W        W 1993   2.845   0.263   9.095  0.1245 -0.1010  0.1629
 1130W        W 1994   2.185   0.309   7.534 -0.0291 -0.0579  0.1786
 1131W        W 1995   2.507   4.939   8.126 -0.2004 -0.0789  0.0940
 1132W        W 1996   0.474   2.899   9.257 -0.0700  0.0301  0.1569
 1133W        W 1997   2.824   1.945   5.491  0.0171  0.0195  0.0600
 1134W        W 1998  13.802   2.642  10.429  0.1695  0.1465  0.0964
 1135W        W 1999   3.733   1.235  10.570  0.3293  0.1314 -0.3520
 1136W        W 2000  12.676   2.315  10.310  0.0362 -0.0087 -0.1278
 1137W        W 2001   3.785   1.731   9.228 -0.0169  0.3226  0.0228
 1138W        W 2002   2.010   2.062  12.390  0.2015  0.0303  0.2069
 1139W        W 2003   2.664   2.560  10.839  0.1302 -0.1312  0.1668
 1140W        W 2004  13.608   4.135  10.504  0.4307 -0.0816  0.2729
 1141W        W 2005   1.678   1.586  10.852 -0.0523 -0.4006  0.3076
 1142W        W 2006   1.123   1.699  11.420  0.2052 -0.2164 -0.0744
 1143W        W 2007   2.737   0.849  12.198 -0.4236 -0.0202 -0.2814
 1144W        W 2008   1.677   0.088  10.628  0.1368  0.0944 -0.1321
 1145W        W 2009   1.585   1.163  10.202 -0.1167  0.1603 -0.1224
 1146W        W 2010   2.314  12.523   9.679 -0.0290 -0.1080 -0.3025
 1147W        W 2011   2.218   1.028  12.222  0.0791 -0.2325 -0.0564
 1148W        W 2012   1.432   4.650   8.973  0.3213  0.0260 -0.1334
 1149W        W 2013   1.174   4.257   9.074  0.1017  0.0869  0.4985
 1150W        W 2014  13.080   0.408   6.817  0.2212 -0.0274 -0.0723
 1151W        W 2015   2.693   9.969  12.734  0.0944 -0.0298 -0.3623
 1152W        W 2016   1.149   2.922   7.772 -0.2776 -0.2331 -0.0284
 1153W        W 2017   0.004  13.896   6.744 -0.2038  0.2059  0.1609
 1154W        W 2018   0.851   4.264  11.092  0.0373 -0.0641  0.1445
 1155W        W 2019   3.939   0.299   8.349  0.0215  0.2970  0.2392
 1156W        W 2020   0.102  13.551   7.331  0.2825 -0.0608  0.2192
 1157W        W 2021   1.838   5.122   8.912  0.0768  0.1021 -0.0067
 1158W        W 2022   1.204   5.032  11.049  0.4053  0.2189  0.2691
 1159W        W 2023   0.719   3.668   9.994  0.2123 -0.1653 -0.0312
 1160W        W 2024   1.920   3.640   8.140 -0.1648 -0.0740 -0.0721
 1161W        W 2025   1.047   0.534   9.333  0.0252 -0.0375  0.0558
 1162W        W 2026   2.839   2.913  11.724 -0.1301  0.0150  0.0787
 1163W        W 2027  11.909   0.788   5.995 -0.0449  0.0190  0.0734
 1164W        W 2028   3.195   0.877  11.217  0.2586 -0.1008 -0.0633
 1165W        W 2029   1.211  13.928   9.408  0.2486  0.1072  0.1744
 1166W        W 2030   0.593   4.979  10.388  0.2466  0.1658 -0.3268
 1167W        W 2031  13.764   3.850   4.905 -0.2325 -0.0316 -0.1312
 1168W        W 2032   1.483  13.000   7.675 -0.0854 -0.0988 -0.1172
 1169W        W 2033   2.400  13.872   7.675  0.2531 -0.2830 -0.0478
 1170W        W 2034   4.282   0.918   9.877  0.3298 -0.2420  0.2336
 1171W        W 2035   2.410   2.163  11.054  0.0211 -0.0151 -0.1214
 1172W        W 2036   2.232   1.523  10.033 -0.1407  0.1646 -0.5879
 1173W        W 2037   0.258   3.321   9.286 -0.1440 -0.0677  0.2461
 1174W        W 2038   1.002   0.339  13.156  0.3677 -0.3483 -0.0770
 1175W        W 2039  13.247  13.179  10.982 -0.1167 -0.1550  0.3951
 1176W        W 2040  13.532   1.900   8.508 -0.2143 -0.2312  0.0985
 1177W        W 2041  13.656   5.769   8.908  0.0522 -0.1789 -0.2794
 1178W        W 2042   2.935   4.518  13.670  0.2603 -0.1173 -0.1810
 1179W        W 2043   0.236   5.561   9.185  0.2196 -0.2090 -0.2206
 1180W        W 2044   0.261   1.387   7.221  0.1278  0.0237 -0.2680
 1181W        W 2045   4.478  13.245  10.887  0.1047  0.0319  0.1492
 1182W        W 2046   3.123   0.419  10.978  0.1970  0.1553 -0.0281
 1183W        W 2047   3.365   1.407   5.533  0.4419  0.0003 -0.1567
 1184W        W 2048   3.992   1.302  10.018 -0.2870 -0.2281 -0.0170
 1185W        W 2049   2.909   1.357   7.699 -0.0045  0.1391  0.1828
 1186W        W 2050  13.129   6.660  10.766  0.2274 -0.0838 -0.2104
 1187W        W 2051   1.074   3.268   8.590 -0.1602 -0.3119  0.1501
 1188W        W 2052  12.787   6.429   7.313 -0.0699  0.0916 -0.1239
 1189W        W 2053   1.949  13.037  10.915  0.0743 -0.1045  0.0900
 1190W        W 2054   1.635   3.438  10.317 -0.1642 -0.0916  0.0531
 1191W        W 2055   3.706   2.662   9.841 -0.2932 -0.0779  0.0179
 1192W        W 2056   0.284  13.930   5.487 -0.1039  0.2579 -0.3318
 1193W        W 2057   1.157   2.753   8.669  0.0188  0.1618 -0.0548
 1194W        W 2058   1.854  13.823   7.790 -0.0851 -0.2692  0.2310
 1195W        W 2059   0.824   1.955  11.839 -0.1161  0.2643 -0.0424
 1196W        W 2060   2.968   0.207   3.689  0.0330 -0.0751 -0.0477
 1197W        W 2061  12.329   1.380   7.689 -0.0665 -0.1204  0.3340
 1198W        W 2062   3.638   3.122  10.122  0.1924 -0.3013  0.1392
 1199W        W 2063   3.979   2.062  11.033 -0.0222  0.3622 -0.2030
 1200W        W 2064   0.738   4.580   9.141 -0.3455 -0.1690 -0.0721
 1201W        W 2065   1.974   3.804  10.185 -0.0471  0.3265 -0.2523
 1202W        W 2066   0.280   1.750   9.001  0.0823 -0.0140  0.1746
 1203W        W 2067   0.484   0.752  10.508  0.0784  0.3411 -0.0354
 1204W        W 2068   2.205  13.182   8.075 -0.2963  0.0792 -0.0473
 1205W        W 2069   0.599  13.496   7.476  0.2065 -0.0309 -0.1267
 1206W        W 2070   1.997  12.829   7.714 -0.4836 -0.1795 -0.1299
 1207W        W 2071   0.181   1.399   6.748 -0.2849  0.1686 -0.1051
 1208W        W 2072  13.331   0.949   8.317  0.1041  0.0911  0.0949
 1209W        W 2073   3.233  12.532  10.670 -0.4101 -0.1861 -0.0925
 1210W        W 2074   3.542   1.103   8.245  0.1087  0.0626  0.1442
 1211W        W 2075   2.099   1.964  10.062 -0.1999  0.1192  0.0135
 1212W        W 2076   1.615   2.608   9.801 -0.1182 -0.3745 -0.0537
 1213W        W 2077  12.957   0.031   9.280 -0.1136 -0.0982 -0.1767
 1214W        W 2078   3.356   1.216  10.884 -0.1053  0.0005 -0.0318
 1215W        W 2079  12.594  12.014   7.300 -0.2594  0.1247  0.1714
 1216W        W 2080   1.505   3.038  11.588 -0.1664 -0.1262 -0.1884
 1217W        W 2081   2.650   0.404   8.672  0.0767 -0.2684 -0.0120
 1218W        W 2082   2.854   2.857   7.932 -0.0076 -0.0526 -0.0554
 1219W        W 2083   0.495   2.975  11.300  0.1107 -0.1188 -0.0607
 1220W        W 2084   0.650   1.555  11.551  0.2269 -0.1382  0.1686
 1221W        W 2085   4.370   2.197  11.377 -0.0702  0.0204 -0.0213
 1222W        W 2086   1.417   3.178  10.672 -0.0218  0.3721 -0.0951
 1223W        W 2087   4.068  13.446   9.838  0.3109 -0.1986 -0.0395
 1224W        W 2088   5.766  13.961   9.344 -0.2486 -0.0471  0.0080
 1225W        W 2089   3.288   1.601   9.261 -0.2028  0.1379 -0.1864
 1226W        W 2090   1.958   2.047   7.133  0.0808 -0.1010  0.0724
 1227W        W 2091   2.474   2.428   4.743 -0.1578 -0.2194 -0.0943
 1228W        W 2092   2.810  13.491  10.973 -0.0213 -0.3232  0.2912
 1229W        W 2093   0.371   2.795   8.730  0.1512 -0.1419 -0.0561
 1230W        W 2094   3.890   0.870  11.068 -0.1029 -0.0207 -0.0546
 1231W        W 2095   2.783   1.031   9.412  0.1252  0.1201 -0.0083
 1232W        W 2096   3.798   2.154   9.972 -0.2213 -0.0672 -0.0749
 1233W        W 2097   2.196  10.384   7.615  0.1053  0.1195 -0.0043
 1234W        W 2098   1.584   0.486   6.840 -0.1019 -0.2036 -0.0186
 1235W        W 2099   3.297   2.494  10.727 -0.2518 -0.1164 -0.0365
 1236W        W 2100   3.946   1.281  11.372 -0.5258 -0.4198  0.0971
 1237W        W 2101   2.844   3.462   7.627  0.3536  0.1052 -0.0403
 1238W        W 2102   0.131   2.978   9.596 -0.5396  0.0310 -0.3017
 1239W        W 2103   0.625   1.779   9.820  0.0790  0.1329  0.3080
 1240W        W 2104   4.269   2.235   9.912 -0.1941  0.0475 -0.3211
 1241W        W 2105   0.305   4.832   9.998  0.1072 -0.0260 -0.1233
 1242W        W 2106   2.528   1.338   8.114 -0.0575 -0.0165  0.4866
 1243W        W 2107  12.338   6.385  10.936 -0.1228  0.1943 -0.1319
 1244W        W 2108   2.617   2.747   9.874 -0.2046  0.3059 -0.0330
 1245W        W 2109   2.058   3.288   9.661 -0.1344  0.1645  0.0517
 1246W        W 2110   2.232   0.896  10.904 -0.0588  0.1493 -0.0430
 1247W        W 2111   5.671   1.291   9.740 -0.0462  0.1239  0.1203
 1248W        W 2112   0.652   3.028   0.527 -0.1866  0.2994 -0.1384
 1249W        W 2113   2.492   3.298   8.409 -0.0778 -0.0392 -0.0177
 1250W        W 2114   1.019  13.342   9.734  0.4633  0.2175  0.0278
 1251W        W 2115  13.539   1.765   8.960 -0.4520 -0.2532  0.0290
 1252W        W 2116   0.473  13.304   9.972  0.1325 -0.1275  0.1302
 1253W        W 2117   1.542  11.845   9.101  0.1328  0.2255  0.0621
 1254W        W 2118   1.559   2.311   7.000 -0.1159  0.1425 -0.1203
 1255W        W 2119   2.083   2.873   7.413  0.3763 -0.0087 -0.5918
 1256W        W 2120  13.343   2.667  10.439 -0.1315 -0.2407 -0.1336
 1257W        W 2121   1.024   5.561   9.795 -0.1092  0.0884 -0.0458
 1258W        W 2122  13.730   2.811   7.924  0.3154  0.0345 -0.0724
 1259W        W 2123  12.976   3.791   7.583 -0.1216  0.0934 -0.1824
 1260W        W 2124  13.821   4.274   9.248  0.2656  0.1416 -0.1027
 1261W        W 2125   2.629   3.294  12.334 -0.1300 -0.2485  0.2091
 1262W        W 2126   2.005  13.454   9.361 -0.0159 -0.0403  0.2606
 1263W        W 2127   1.322   3.463   6.281 -0.1666 -0.0911  0.0281
 1264W        W 2128   1.477   3.252   7.990 -0.2992  0.0540  0.0241
 1265W        W 2129   2.425   0.542   7.190  0.3332  0.0693 -0.2197
 1266W        W 2130   2.600   3.097  10.369  0.1484 -0.0812 -0.1661
 1267W        W 2131   5.092   1.577   6.060 -0.1655 -0.1031 -0.1198
 1268W        W 2132   2.980  13.764   9.091 -0.0378 -0.2637  0.3357
 1269W        W 2133   3.598  13.561   7.328 -0.0479  0.3465  0.1297
 1270W        W 2134   1.201   1.991   9.201  0.1543 -0.0620 -0.0465
 1271W        W 2135   2.632   3.766  12.497  0.0138 -0.0311  0.0699
 1272W        W 2136   1.982   1.377   8.050 -0.1451 -0.3147 -0.2386
 1273W        W 2137   0.104   6.180   9.905 -0.0373  0.1239  0.1184
 1274W        W 2138   0.870   4.646  11.954 -0.0863 -0.0710  0.2222
 1275W        W 2139  13.736   5.469   5.159 -0.0339  0.1586 -0.1686
 1276W        W 2140   1.406   1.109   6.930  0.0988  0.1646 -0.2522
 1277W        W 2141  13.785   3.100   0.150 -0.1057  0.1817 -0.2833
 1278W        W 2142   2.108   0.291   6.900  0.1902  0.0947 -0.1407
 1279W        W 2143   1.880   3.322  11.287  0.0480  0.2572 -0.2925
 1280W        W 2144   2.350   1.823   8.049  0.1364 -0.1499  0.0877
 1281W        W 2145   2.456   1.577  10.986  0.0810 -0.0295 -0.0175
 1282W        W 2146   1.651   2.970  11.020  0.0279  0.0978  0.4821
 1283W        W 2147   2.759   1.393   7.138  0.0200 -0.1474  0.3875
 1284W        W 2148   3.503  13.843  10.935 -0.0453  0.2120  0.2926
 1285W        W 2149   1.008   2.119  11.164 -0.0904  0.1965  0.3161
 1286W        W 2150   0.742   2.630  10.192  0.1212  0.0429 -0.2432
 1287W        W 2151   2.252   0.096   8.483 -0.1079  0.4782  0.0498
 1288W        W 2152  13.558   3.627  10.525  0.2694 -0.1296 -0.2143
 1289W        W 2153   0.723   1.663   6.331  0.2352 -0.1429  0.3212
 1290W        W 2154   3.454   0.647   7.059  0.2011  0.0411  0.0244
 1291W        W 2155   1.123   1.077   9.858  0.4316  0.2602 -0.0568
 1292W        W 2156   0.843   6.298   8.794  0.1160  0.0086 -0.0946
 1293W        W 2157  13.396   4.580   9.015  0.0007 -0.2335 -0.1914
 1294W        W 2158   2.966   0.778  13.305 -0.0026  0.1977 -0.1492
 1295W        W 2159   3.191   2.365   7.051  0.2990  0.3050 -0.2836
 1296W        W 2160   0.231   1.209   9.950  0.1225 -0.2371 -0.4292
 1297W        W 2161   2.408   3.561   7.930 -0.2214 -0.1104  0.0495
 1298W        W 2162   1.677   1.080   9.419 -0.0605  0.1960 -0.0322
 1299W        W 2163   1.589   0.379   9.286 -0.0101  0.1246 -0.0955
 1300W        W 2164   0.491   3.548  10.416  0.0717 -0.2263  0.1220
 1301W        W 2165   1.881   1.007   7.686 -0.3524 -0.1204 -0.0622
 1302W        W 2166   0.306   3.357   9.925 -0.0175  0.2858 -0.0289
 1303W        W 2167   3.638   2.008   6.486 -0.2870  0.2645  0.0485
 1304W        W 2168   1.938   2.295   8.093 -0.0178  0.1076  0.2100
 1305W        W 2169   2.104   2.078   8.845 -0.0195 -0.1487 -0.0318
 1306W        W 2170   4.907   1.938   8.496 -0.1018 -0.3171  0.1339
 1307W        W 2171  11.723   3.322   9.262  0.0149 -0.0218 -0.1141
 1308W        W 2172   2.337   1.236   7.643  0.2053 -0.1859 -0.1121
 1309W        W 2173   0.951   1.332  12.824  0.0449  0.2164  0.2557
 1310W        W 2174   0.487   4.841  11.689  0.1643 -0.0886 -0.0699
 1311W        W 2175   2.217   5.064   8.538  0.1486  0.1420 -0.3138
 1312W        W 2176   1.803  13.511   5.498  0.0497  0.0230 -0.0318
 1313W        W 2177   1.771   2.836   7.884 -0.0677  0.0417 -0.1663
 1314W        W 2178   4.804   2.761  10.880 -0.4211  0.0002  0.1466
 1315W        W 2179   0.525  11.827   6.706 -0.2217  0.2153 -0.0783
 1316W        W 2180   1.610   0.461  11.082 -0.0673 -0.0401  0.0112
 1317W        W 2181   0.147   4.980   8.529 -0.0814 -0.3010 -0.0317
 1318W        W 2182   1.812   0.224   8.173  0.2672  0.0186  0.0259
 1319W        W 2183   4.709   3.714   8.643 -0.4399  0.0974 -0.1523
 1320W        W 2184   1.291  12.921   9.193 -0.2059 -0.1798  0.1197
 1321W        W 2185   2.518   2.927   9.366 -0.2903 -0.0214  0.0160
 1322W        W 2186   0.185   5.821  10.622 -0.1292  0.1974 -0.1958
 1323W        W 2187   1.789   2.195   9.174 -0.0724 -0.3186  0.2192
 1324W        W 2188   1.194   1.297   9.414 -0.2437  0.2279  0.1157
 1325W        W 2189   1.708   0.216   7.364  0.3625  0.2040  0.1547
 1326W        W 2190   5.920   2.125  11.864  0.3369 -0.2009 -0.1550
 1327W        W 2191  12.462   0.279   9.214 -0.1521 -0.0539  0.2327
 1328W        W 2192   0.699   4.008  10.445 -0.0325 -0.0867 -0.0854
 1329W        W 2193   4.549   2.547   6.422  0.1621 -0.0659  0.3548
 1330W        W 2194  13.684   3.606   8.414 -0.0125  0.0598 -0.0676
 1331W        W 2195   4.990   2.298   8.855  0.0329 -0.2418  0.1549
 1332W        W 2196   1.606  13.655   9.626  0.1612  0.3801 -0.1455
 1333W        W 2197   1.608   3.180   9.872  0.1346  0.2696 -0.0256
 1334W        W 2198   3.419  13.065   8.948 -0.1984  0.2165  0.1924
 1335W        W 2199  12.754   3.374   6.847 -0.1122  0.2190  0.1854
 1336W        W 2200   5.436  13.926  10.408 -0.0663  0.3370 -0.1131
 1337W        W 2201   0.168  13.951   8.696 -0.2268  0.3196  0.2737
 1338W        W 2202   3.694  13.038  12.418  0.0457  0.1695  0.0457
 1339W        W 2203   3.882  13.616   9.356  0.0527  0.1959 -0.1823
 1340W        W 2204   2.343   2.357   8.473 -0.4320  0.1986 -0.1951
 1341W        W 2205   5.289   4.447  10.500 -0.0639  0.0773 -0.1658
 1342W        W 2206   4.461   4.534   8.998 -0.0018 -0.1050 -0.1270
 1343W        W 2207   4.145   3.428  10.572 -0.0667  0.4532 -0.0361
 1344W        W 2208   0.319   2.012   9.472 -0.1762 -0.0018  0.0900
 1345W        W 2209   6.962   1.439   5.664 -0.1399  0.0897 -0.5022
 1346W        W 2210   1.940   0.736   8.141 -0.0297 -0.0238 -0.1293
 1347W        W 2211   1.699  12.974   7.227 -0.1174  0.0201  0.1479
 1348W        W 2212  12.552   2.697   9.005  0.1456 -0.1482 -0.1923
 1349W        W 2213   1.542   1.701   9.325 -0.0412 -0.1229  0.3077
 1350W        W 2214   3.317  13.830  11.441 -0.0285  0.0652 -0.2068
 1351W        W 2215  13.157   4.708   6.995  0.1478  0.1072 -0.0970
 1352W        W 2216   2.305   0.741   6.712 -0.0404 -0.0328  0.2268
 1353W        W 2217   3.955   1.965   8.488  0.1419  0.2669  0.0643
 1354W        W 2218   1.139   1.965   8.017 -0.0069  0.1403  0.1388
 1355W        W 2219  13.412   2.432  11.050 -0.1712 -0.1917 -0.1495
 1356W        W 2220   0.783   1.721  10.616  0.0416  0.1182 -0.1640
 1357W        W 2221  12.322  14.007   7.863 -0.3130  0.2797 -0.2305
 1358W        W 2222   3.979   0.173  10.444 -0.1473  0.0790  0.1286
 1359W        W 2223   3.779   1.423   7.529  0.0617 -0.1594  0.0007
 1360W        W 2224   5.290   4.612  10.017 -0.2142 -0.2446 -0.2122
 1361W        W 2225  12.244   4.712  10.302  0.1002 -0.0419 -0.1155
 1362W        W 2226   0.328   3.507   7.599  0.3622 -0.0439 -0.1910
 1363W        W 2227   0.234   2.163   7.472  0.1613 -0.1928  0.0014
 1364W        W 2228  12.078   3.104  10.375 -0.1912  0.2992 -0.1589
 1365W        W 2229   2.927  13.545  12.489  0.2431 -0.1155 -0.0423
 1366W        W 2230  13.775   2.587   9.472 -0.0610 -0.2093 -0.0477
 1367W        W 2231   0.146   2.057   3.404 -0.0927 -0.0419  0.0398
 1368W        W 2232   1.544   2.868  10.199  0.0138  0.6684 -0.4038
 1369W        W 2233   0.349   4.713   9.457  0.2085 -0.0183  0.0416
 1370W        W 2234   3.370  11.347   8.995  0.0996  0.5879 -0.2238
 1371W        W 2235   0.640   4.186   8.503  0.0687 -0.0122 -0.3328
 1372W        W 2236   0.047   4.779  12.233  0.0047  0.0029 -0.0492
 1373W        W 2237   0.533   5.640   9.597  0.0566 -0.4886 -0.0440
 1374W        W 2238   2.059  13.898   9.800 -0.3084 -0.2517 -0.2903
 1375W        W 2239   1.029  13.052   7.842  0.1783  0.1673  0.3373
 1376W        W 2240   2.069   0.506  10.548 -0.1487 -0.0003  0.0622
 1377W        W 2241  13.773   1.805   6.818 -0.0749 -0.0289 -0.0176
 1378W        W 2242   1.590  11.803   9.605  0.0262  0.2599  0.0330
 1379W        W 2243   1.309   2.365   7.756  0.2381  0.2524  0.1197
 1380W        W 2244   3.152   2.950  10.527  0.4375  0.0611 -0.0562
 1381W        W 2245   4.685   2.501   6.878 -0.2813  0.1063  0.0789
 1382W        W 2246   1.439   2.383   9.416  0.0614 -0.1377 -0.0982
 1383W        W 2247   0.701   1.736  11.098  0.0291 -0.0572  0.0010
 1384W        W 2248   3.461   4.526   9.146 -0.0139 -0.1111 -0.1531
 1385W        W 2249   1.124   3.154  12.891 -0.0151 -0.1970 -0.1148
 1386W        W 2250   1.669   2.457  11.596  0.2200  0.0239  0.3318
 1387W        W 2251   1.684   1.579   7.008  0.0539  0.4594  0.2261
 1388W        W 2252  13.782   2.232  10.051 -0.1082  0.0411  0.0290
 1389W        W 2253   3.011   4.158   9.364 -0.1036 -0.2149 -0.4390
 1390W        W 2254   2.113   1.102   8.979 -0.3462  0.0002 -0.1289
 1391W        W 2255   1.334   4.614   9.935  0.0608 -0.0617 -0.0223
 1392W        W 2256   5.271   2.664   9.451 -0.0864 -0.0595  0.1458
 1393W        W 2257   3.116   2.406   7.910  0.5762 -0.0028 -0.3125
 1394W        W 2258  12.332   4.499  11.996 -0.0486 -0.0649  0.1401
 1395W        W 2259  12.324   4.753   8.464 -0.0240 -0.5097 -0.4645
 1396W        W 2260   3.368   3.664   8.449 -0.1046  0.3555 -0.5599
 1397W        W 2261   2.009   0.973  11.442 -0.2500  0.0624  0.3461
 1398W        W 2262   0.486   3.304  10.889 -0.0920 -0.2141 -0.4144
 1399W        W 2263   3.899  13.495   7.770  0.5315  0.0288  0.2540
 1400W        W 2264   0.001   3.758   8.010 -0.0004 -0.0427  0.2107
 1401W        W 2265  12.950   2.075  11.453 -0.0821  0.1040  0.1272
 1402W        W 2266   1.866   2.146  10.915  0.0692 -0.1760 -0.0354
 1403W        W 2267   3.677   0.279   9.351 -0.0918  0.0591 -0.0837
 1404W        W 2268   3.213   1.354  13.101 -0.0899  0.3095 -0.1390
 1405W        W 2269   0.915   1.796   8.429  0.0515  0.1289  0.3301
 1406W        W 2270   1.784   2.794   5.609  0.0678 -0.3148  0.1816
 1407W        W 2271   0.654   3.539  13.724 -0.1145  0.0817 -0.1225
 1408W        W 2272   3.346   3.549   8.926  0.0179  0.1800 -0.1401
 1409W        W 2273   1.601   6.532  13.506 -0.0852  0.3498 -0.1436
 1410W        W 2274   0.950   3.928   9.482 -0.3560  0.0960  0.0866
 1411W        W 2275   0.736   3.438  12.800  0.1045  0.1647  0.1678
 1412W        W 2276   1.537   1.357  11.896  0.1585 -0.1425 -0.1437
 1413W        W 2277   4.496   0.880   0.479  0.1065 -0.2787  0.0042
 1414W        W 2278   1.061   4.510   0.809 -0.2351 -0.0280 -0.3501
 1415W        W 2279   1.499   1.111   0.751  0.0085 -0.2231  0.1293
 1416W        W 2280   4.100   1.603  10.615  0.2089  0.2702  0.0002
 1417W        W 2281  12.046  13.443  12.797  0.3889 -0.1185 -0.1843
 1418W        W 2282  12.678   1.034  11.483  0.2125 -0.2343 -0.0871
 1419W        W 2283  11.284   1.564   2.950 -0.0099 -0.0535  0.3953
 1420W        W 2284   0.136  12.266   0.539 -0.2530 -0.3572  0.0430
 1421W        W 2285   4.706   1.187   1.909 -0.4133 -0.0283 -0.2244
 1422W        W 2286   2.323   4.660   0.129  0.0093 -0.1717  0.0565
 1423W        W 2287   0.576   0.664   1.673  0.1975  0.1807  0.0681
 1424W        W 2288  13.727   5.446  11.410 -0.0626  0.0334  0.0648
 1425W        W 2289   1.540   0.680  10.614 -0.1236 -0.3731  0.0421
 1426W        W 2290   1.749   2.990  13.353  0.1632  0.2367 -0.0455
 1427W        W 2291   0.082   1.187  10.900  0.0067  0.1778 -0.0041
 1428W        W 2292   1.326   1.427  12.340  0.0525  0.1865 -0.2112
 1429W        W 2293   0.528   3.190   0.087 -0.0253  0.2043  0.1605
 1430W        W 2294   1.090   5.473  13.342 -0.3315  0.0171  0.0659
 1431W        W 2295   0.240  13.778  12.558 -0.0891 -0.1721 -0.2979
 1432W        W 2296   0.848   5.271  12.892 -0.3344  0.0541 -0.1306
 1433W        W 2297   3.004   2.370  13.102 -0.0012  0.4358  0.0517
 1434W        W 2298   2.840   3.858  11.203  0.1921 -0.0870 -0.1706
 1435W        W 2299   1.652   1.817   8.830  0.2470 -0.0860 -0.1133
 1436W        W 2300   3.317   2.672  13.932 -0.0111  0.1238  0.1131
 1437W        W 2301  13.292   2.545  11.485  0.1692  0.1802  0.0305
 1438W        W 2302   3.896   4.014  12.295 -0.1169 -0.1229  0.0883
 1439W        W 2303   0.645   3.088  11.801 -0.3822 -0.0076  0.0129
 1440W        W 2304   1.100   2.790  12.475 -0.1094  0.1711 -0.0062
 1441W        W 2305   1.175  13.318   0.171  0.4446 -0.0998  0.3615
 1442W        W 2306   3.511   5.435   2.592 -0.1349  0.0105  0.4270
 1443W        W 2307   1.994  13.358  11.922  0.2224 -0.0666  0.0816
 1444W        W 2308   3.619   1.518   0.023  0.1369 -0.1677 -0.1289
 1445W        W 2309   2.591   1.641  13.305  0.0121  0.1624  0.2001
 1446W        W 2310   0.321   1.205  13.630 -0.0400 -0.0361  0.0410
 1447W        W 2311  13.571   5.523  13.669 -0.5245 -0.0172  0.2310
 1448W        W 2312   1.724   1.599  12.590 -0.2817 -0.0345  0.0181
 1449W        W 2313   2.827   2.430  13.896  0.0097  0.0431  0.1757
 1450W        W 2314  12.416   3.596  13.095 -0.1035  0.1758 -0.1738
 1451W        W 2315   0.565  12.972  12.865 -0.0015 -0.1657 -0.4166
 1452W        W 2316   0.550   1.094   0.548  0.0106 -0.0395 -0.3010
 1453W        W 2317   0.202   3.716  13.751 -0.0603 -0.1887 -0.0953
 1454W        W 2318   4.998   1.877  12.109  0.3984  0.1684  0.1888
 1455W        W 2319   3.366   1.687  12.697  0.0298  0.0886  0.3867
 1456W        W 2320  13.562   3.930   1.651 -0.4801  0.0146 -0.0806
 1457W        W 2321   2.262   2.353  11.876 -0.1161  0.2408 -0.3002
 1458W        W 2322   2.128   0.622  12.480 -0.1160 -0.0653  0.2099
 1459W        W 2323   2.327   3.048   1.190 -0.2214 -0.3154  0.2373
 1460W        W 2324   2.546  13.895  13.155  0.0125 -0.2609 -0.2520
 1461W        W 2325  13.508   3.095  11.431 -0.0262 -0.3814  0.2134
 1462W        W 2326   1.594   2.371  12.099  0.1555 -0.0522  0.0192
 1463W        W 2327   0.287   6.622   9.698  0.2515  0.0570 -0.2125
 1464W        W 2328   2.922   1.344  13.507  0.0317 -0.1105 -0.1767
 1465W        W 2329   3.865   5.734  13.162 -0.1276 -0.1548  0.1771
 1466W        W 2330   2.081  13.680  13.411  0.0734 -0.2990 -0.1183
 1467W        W 2331   5.237   2.342  10.879 -0.0487 -0.0013  0.1438
 1468W        W 2332   3.085   3.895   0.783  0.4772 -0.1955  0.2951
 1469W        W 2333   5.382   0.855   0.523 -0.0230 -0.3858 -0.2584
 1470W        W 2334   2.244   3.790  12.896 -0.3466  0.2238  0.2595
 1471W        W 2335  13.550  13.950  11.742 -0.0753 -0.0330  0.1216
 1472W        W 2336  12.081   4.317   3.237 -0.1059 -0.4155 -0.0191
 1473W        W 2337   3.134   1.490  11.895  0.1007  0.0067  0.0398
 1474W        W 2338   1.359  12.870  10.016  0.1127 -0.0265  0.1967
 1475W        W 2339   0.208   3.239  12.618  0.0026  0.1587  0.0691
 1476W        W 2340   0.977   0.872  11.948 -0.3754  0.1752  0.2523
 1477W        W 2341   3.270   0.123  13.174  0.2379  0.0501 -0.2081
 1478W        W 2342   4.271   0.780  11.383  0.2211 -0.2229 -0.2140
 1479W        W 2343   4.073   0.963   1.196 -0.0661 -0.1439 -0.0761
 1480W        W 2344   0.454   2.076  12.696  0.1927  0.3169  0.1127
 1481W        W 2345  11.676   2.775   9.224  0.0674 -0.3110 -0.1344
 1482W        W 2346  11.688   2.490  13.939  0.1419  0.2085  0.1617
 1483W        W 2347   2.562   1.262  12.539  0.0749 -0.0514  0.0189
 1484W        W 2348   3.129   4.379   1.457 -0.0454 -0.1690  0.0395
 1485W        W 2349   2.658   1.291   0.090 -0.3887  0.1018  0.3625
 1486W        W 2350   4.884   0.259  13.373  0.1605 -0.0092  0.2466
 1487W        W 2351   4.126   4.503   8.548 -0.1665 -0.1901 -0.1808
 1488W        W 2352   0.591   2.169  12.243 -0.0052 -0.0738  0.0008
 1489W        W 2353   1.390   0.661   9.641  0.2183 -0.1253  0.0825
 1490W        W 2354   2.724   3.598  11.575 -0.0650  0.3247  0.2380
 1491W        W 2355   2.881  13.105  13.588 -0.1105  0.1462  0.0101
 1492W        W 2356  13.554   3.846  13.734  0.2178  0.1010  0.1892
 1493W        W 2357   3.364   1.356   1.246  0.2592 -0.0852  0.2085
 1494W        W 2358  12.987   0.421  13.976 -0.0422 -0.2358 -0.1384
 1495W        W 2359   1.777   1.572  11.504  0.2302  0.2082  0.0172
 1496W        W 2360   1.513   2.564   1.214 -0.0720 -0.1262  0.2962
 1497W        W 2361   3.421   6.051   1.160  0.0826  0.2751  0.0361
 1498W        W 2362   0.042   3.712  12.508 -0.1916  0.0523  0.0575
 1499W        W 2363   1.341   2.369  10.338 -0.2302 -0.0592 -0.0001
 1500W        W 2364   2.766  13.528  13.429  0.0169  0.0298  0.1331
 1501W        W 2365   2.703   3.545   0.739 -0.0758  0.2480 -0.1869
 1502W        W 2366  13.375   3.354  12.446  0.1382  0.0628 -0.1170
 1503W        W 2367   3.717   1.137  13.119  0.3505 -0.0431  0.3167
 1504W        W 2368   3.497   3.715   1.534  0.1841  0.1302  0.0587
 1505W        W 2369   4.024   3.761  13.392 -0.0195 -0.0051  0.3765
 1506W        W 2370   3.944   4.754  10.397 -0.2522  0.3632  0.0147
 1507W        W 2371  13.803   3.116  12.316  0.0442 -0.0107  0.1253
 1508W        W 2372   2.323   3.695   9.786 -0.2522 -0.1016 -0.2471
 1509W        W 2373  13.049   3.321   0.974 -0.0279 -0.0787  0.0377
 1510W        W 2374   1.596   1.747  13.400 -0.0299  0.4138 -0.1491
 1511W        W 2375   1.926   3.172   0.118  0.0022  0.1400 -0.0752
 1512W        W 2376   4.480   4.724  11.034 -0.0079  0.1469  0.3047
 1513W        W 2377   3.820   3.948   8.699 -0.4238 -0.1225  0.2827
 1514W        W 2378   0.734   4.755  11.092 -0.1342 -0.1569  0.4639
 1515W        W 2379   1.961   0.477  12.945  0.1352 -0.1465  0.2242
 1516W        W 2380   2.541   2.487   2.077 -0.0114 -0.0109  0.2433
 1517W        W 2381   4.208   1.032  13.639  0.1011 -0.2276  0.0825
 1518W        W 2382   4.145   3.302  13.677  0.4500  0.1683  0.1277
 1519W        W 2383   0.241   0.220  13.564  0.0794 -0.3054  0.0170
 1520W        W 2384   2.383   2.114  13.565  0.0246 -0.1046 -0.0436
 1521W        W 2385   2.076   0.866  10.242  0.1500 -0.4571  0.0906
 1522W        W 2386  13.767   5.408  11.936  0.0244 -0.1609  0.1603
 1523W        W 2387   1.817  12.611  11.278  0.1304 -0.0951 -0.1218
 1524W        W 2388  13.675   1.476   0.637  0.1304 -0.1144  0.1053
 1525W        W 2389  13.312   4.666  11.262  0.0056  0.1065  0.6223
 1526W        W 2390   1.330  12.102   1.307  0.0782 -0.0219 -0.2008
 1527W        W 2391   1.737   3.625  12.790 -0.3498  0.0375  0.1199
 1528W        W 2392   1.228   2.066   2.279  0.1058 -0.2175  0.3661
 1529W        W 2393   4.399   1.652   0.095  0.1340  0.1113  0.0692
 1530W        W 2394   2.702   4.714  12.297 -0.2044 -0.2013 -0.3817
 1531W        W 2395   3.481   1.140  11.922  0.1255 -0.1120  0.1465
 1532W        W 2396  13.937   1.346  12.445 -0.2349 -0.0139  0.2536
 1533W        W 2397   2.423   2.647  13.689 -0.0050 -0.1457  0.4087
 1534W        W 2398   2.364   0.580  11.521 -0.0902 -0.0067 -0.0472
 1535W        W 2399  13.130   3.037  11.745 -0.1129 -0.1580  0.0763
 1536W        W 2400   2.676   1.370  12.046  0.0923 -0.0128  0.1905
 1537W        W 2401  13.184   0.248  11.796 -0.0364 -0.1313 -0.0164
 1538W        W 2402   1.671   2.903   0.550 -0.0448  0.0989  0.0035
 1539W        W 2403  13.108   2.279  10.672 -0.2764 -0.0126  0.0445
 1540W        W 2404   5.578  12.882  12.849 -0.1198 -0.0930  0.0322
 1541W        W 2405   1.773  10.729  12.097  0.0708 -0.0373  0.0092
 1542W        W 2406   1.019   3.219  12.180  0.0885 -0.0685  0.4717
 1543W        W 2407   4.428   0.107  13.617  0.0873 -0.2884 -0.0833
 1544W        W 2408   0.374   1.733   2.261 -0.1905  0.3698  0.0209
 1545W        W 2409   1.390  14.009  11.989 -0.0799  0.2929 -0.1072
 1546W        W 2410  14.003   0.194  11.764  0.1387 -0.1084  0.2213
 1547W        W 2411   0.703   0.886  12.675  0.4015 -0.2208 -0.0052
 1548W        W 2412   2.891   1.565  12.787  0.1078 -0.2683 -0.0142
 1549W        W 2413   0.774   2.490  12.723 -0.1307 -0.0368 -0.1429
 1550W        W 2414   1.525   0.258   1.690 -0.0176  0.1201 -0.3198
 1551W        W 2415   1.234   1.598   2.158  0.1129 -0.3557  0.1468
 1552W        W 2416   1.252   3.656  13.749  0.2775  0.0733 -0.4570
 1553W        W 2417   1.064   0.788   0.021  0.0379  0.2276  0.2174
 1554W        W 2418   1.491   1.308   8.913  0.0669  0.2187  0.0395
 1555W        W 2419   1.950   2.943  12.731  0.0320  0.1366  0.1380
 1556W        W 2420   1.592   3.285  13.811 -0.5220  0.1251 -0.0092
 1557W        W 2421  13.278   5.898  12.331  0.1071 -0.0537 -0.2937
 1558W        W 2422   2.630   2.954   2.007  0.0358 -0.0415 -0.1612
 1559W        W 2423   1.159   2.225  12.629  0.0386  0.2016  0.0976
 1560W        W 2424   2.694   2.729  12.157 -0.2847 -0.1609  0.0724
 1561W        W 2425   0.616   2.458  13.626  0.0817  0.3688 -0.0855
 1562W        W 2426   2.647   3.119  13.467  0.2772 -0.0204 -0.0443
 1563W        W 2427   3.323   1.360  11.433  0.2529  0.1677  0.2851
 1564W        W 2428   3.915   1.962  12.808  0.3263  0.1274  0.1640
 1565W        W 2429   0.278  12.365  13.362  0.0104  0.0537  0.1484
 1566W        W 2430   2.526   5.624   2.321 -0.0736 -0.1391  0.2117
 1567W        W 2431   0.087   2.674   9.993 -0.1639 -0.2647  0.1068
 1568W        W 2432   0.169   0.612  10.919 -0.3404 -0.0545  0.1307
 1569W        W 2433   1.524   0.815  11.448  0.0612 -0.4272 -0.0805
 1570W        W 2434   4.420  13.551  13.731  0.1947  0.0420  0.0190
 1571W        W 2435  12.896   0.613  11.583 -0.2286 -0.0316 -0.3917
 1572W        W 2436   0.816   4.209  13.357 -0.1021  0.1466  0.3725
 1573W        W 2437  12.304   2.767  13.091  0.3591  0.0257  0.1899
 1574W        W 2438   1.077   1.584  11.963  0.1366 -0.0434  0.0422
 1575W        W 2439   4.697  13.058  12.518  0.1398  0.0399 -0.1620
 1576W        W 2440   0.604   2.832  10.743 -0.4579  0.3524  0.2249
 1577W        W 2441   2.481   2.120   0.679 -0.0381  0.0005 -0.0648
 1578W        W 2442   1.103   2.746  10.611 -0.0903 -0.2165 -0.0749
 1579W        W 2443   2.450   2.244   0.182  0.0868 -0.0373 -0.2421
 1580W        W 2444   0.797   0.047  11.613  0.0857 -0.1439 -0.1030
 1581W        W 2445   0.727   2.500   1.416 -0.1031  0.1065 -0.0234
 1582W        W 2446   1.719   3.680   9.760  0.0499  0.1793  0.1608
 1583W        W 2447   1.907  13.870  12.121 -0.0095 -0.3435 -0.0924
 1584W        W 2448   0.915   3.201   2.470 -0.0633  0.0746  0.0977
 1585W        W 2449  12.857   6.393  11.685  0.0335  0.0156 -0.0816
 1586W        W 2450   3.049   4.696   2.287  0.1905 -0.0391 -0.0725
 1587W        W 2451   4.457  11.410   2.344  0.2969 -0.1875  0.2504
 1588W        W 2452   3.198   4.720  12.697 -0.0779  0.1310 -0.2299
 1589W        W 2453   1.146   2.335  11.607 -0.1203 -0.1278  0.1751
 1590W        W 2454   3.866   2.511  10.810  0.0257 -0.2014 -0.2285
 1591W        W 2455   1.875   2.196   0.918  0.2455 -0.1046 -0.0962
 1592W        W 2456   2.198  12.826  12.919 -0.0903 -0.2488  0.0353
 1593W        W 2457   3.139   2.047  11.496  0.2560 -0.0739  0.0427
 1594W        W 2458   1.513   2.493  13.386 -0.0953  0.2524  0.0204
 1595W        W 2459   4.808   4.094  10.432 -0.0575  0.3127 -0.1654
 1596W        W 2460   0.942   3.646  12.447  0.0153 -0.2925  0.0624
 1597W        W 2461  13.801  13.624  13.274  0.0773 -0.1989 -0.2483
 1598W        W 2462   2.657   5.252  12.540  0.0965 -0.3062  0.2610
 1599W        W 2463   1.002   2.276   0.253  0.0189  0.2856 -0.0191
 1600W        W 2464   0.660   0.051  13.368 -0.0340  0.2987 -0.1539
 1601W        W 2465   2.541   2.887  12.709  0.3611  0.1246 -0.2071
 1602W        W 2466   4.965   2.820  13.056 -0.1409 -0.0366  0.0708
 1603W        W 2467   2.190  12.369   1.395  0.1036  0.3733 -0.0365
 1604W        W 2468  12.942   3.618   0.234 -0.0996 -0.0643 -0.0749
 1605W        W 2469   3.767   3.477   0.619 -0.0794 -0.1244 -0.0667
 1606W        W 2470   1.950   1.183  10.586  0.0387  0.0113  0.1023
 1607W        W 2471  12.517   4.098  12.923  0.1725 -0.1527 -0.0505
 1608W        W 2472  13.573   3.291  13.279 -0.1136 -0.1812 -0.0719
 1609W        W 2473   1.694   0.371  12.082  0.1389 -0.0984  0.1506
 1610W        W 2474   3.122   3.617  13.835 -0.2063 -0.1980 -0.3982
 1611W        W 2475   1.865   2.489  10.253  0.0174  0.0288 -0.1612
 1612W        W 2476   1.971   2.583   0.318  0.1039  0.1315 -0.0259
 1613W        W 2477   2.151   5.282  11.231 -0.0204 -0.2005 -0.0551
 1614W        W 2478   0.229   1.457  11.725 -0.0665  0.2121 -0.0106
 1615W        W 2479   2.051   1.866  11.222 -0.0804 -0.1808 -0.5076
 1616W        W 2480   2.410   2.777   3.894 -0.0970  0.2089 -0.2612
 1617W        W 2481   0.198   0.668  11.477 -0.2041 -0.0557 -0.3956
 1618W        W 2482   0.273   1.575  13.250  0.0468 -0.2737 -0.0630
 1619W        W 2483   3.454   3.238  11.078  0.3722  0.3135  0.0321
 1620W        W 2484   2.572   1.010   0.903  0.3368  0.1522 -0.0243
 1621W        W 2485   3.075   5.036   0.299 -0.0802 -0.2259  0.0443
 1622W        W 2486   2.726   3.077   1.561  0.1990  0.0953 -0.3076
 1623W        W 2487   1.739   0.885  13.078  0.3030 -0.2085 -0.2534
 1624W        W 2488   0.930   3.305  13.323 -0.2153  0.0671  0.1147
 1625W        W 2489   4.087   3.110   0.557  0.1206 -0.3324 -0.1410
 1626W        W 2490   3.387   2.328  13.526 -0.0500 -0.1682  0.0904
 1627W        W 2491   0.754   4.444  12.848 -0.1439 -0.0172  0.0884
 1628W        W 2492   3.108   4.264  12.579 -0.0995 -0.1106  0.2017
 1629W        W 2493   2.730   0.745   9.992 -0.1035  0.0366  0.2313
 1630W        W 2494   2.874   2.005  11.021  0.4163  0.3170  0.1036
 1631W        W 2495   1.298   2.758   0.146 -0.0788  0.2467  0.0965
 1632W        W 2496   0.950   4.546  13.717  0.0284  0.0748 -0.1292
 1633W        W 2497   0.555   2.067   1.053 -0.4906  0.2876 -0.0876
 1634W        W 2498   0.351   2.804  12.901  0.0446 -0.0370  0.1131
 1635W        W 2499   3.103   4.116  13.980 -0.1401  0.2309  0.0358
 1636W        W 2500   0.611  11.411  13.758  0.2465 -0.2092 -0.1269
 1637W        W 2501   1.667   0.751  12.490  0.0548 -0.0657 -0.1259
 1638W        W 2502   1.102   2.410   9.932 -0.3310 -0.1979  0.3043
 1639W        W 2503  12.633   4.922  13.231  0.0072 -0.1009  0.3684
 1640W        W 2504  13.876   4.652  11.551 -0.0960 -0.0175  0.1769
 1641W        W 2505   2.204  13.144  11.388 -0.1891 -0.4414 -0.1601
 1642W        W 2506   0.507   2.329   0.074 -0.0100 -0.1272  0.3697
 1643W        W 2507  11.858   5.914  13.710 -0.2353 -0.4983  0.2023
 1644W        W 2508   5.559   2.089  11.228  0.2848  0.0999  0.1165
 1645W        W 2509   4.008   2.899   1.759 -0.3309 -0.1492  0.5193
 1646W        W 2510   2.000   0.693  11.851  0.2239 -0.5195 -0.2033
 1647W        W 2511   2.906   1.969  13.661 -0.0633  0.1993 -0.1575
 1648W        W 2512   0.686   2.705  12.156  0.2871 -0.1502  0.0641
 1649W        W 2513   2.085   1.656  10.589 -0.0826 -0.1365  0.1047
 1650W        W 2514   2.834   0.907  13.741  0.2137  0.0640  0.1408
 1651W        W 2515   0.266   4.857  11.254 -0.0958  0.2139 -0.1185
 1652W        W 2516   1.880   3.410  13.189  0.2195 -0.0479  0.0812
 1653W        W 2517   2.477   1.777   0.325 -0.1171  0.0411 -0.0429
 1654W        W 2518   0.731   1.044  13.146 -0.2014  0.2475 -0.1032
 1655W        W 2519   2.166   3.187  13.660 -0.3393 -0.0304  0.0125
 1656W        W 2520   3.099  13.392  11.910 -0.0695 -0.0432 -0.0194
 1657W        W 2521   2.258   5.654  13.763  0.1518 -0.0576  0.4094
 1658W        W 2522  13.354   0.783  13.383 -0.1556 -0.0028  0.0108
 1659W        W 2523   3.517   3.424  12.802  0.1683 -0.0514  0.0434
 1660W        W 2524   3.656   0.176   0.737 -0.0640  0.2206  0.0548
 1661W        W 2525   0.014   4.875  13.070 -0.0177 -0.1018 -0.2152
 1662W        W 2526   2.640   1.172  13.127 -0.0205 -0.1492  0.2148
 1663W        W 2527   2.336  13.688  11.873  0.2215  0.0048  0.0908
 1664W        W 2528   0.055   2.046  11.242 -0.4002 -0.0208  0.2444
 1665W        W 2529   1.870  13.750  11.618  0.0306 -0.1730 -0.2679
 1666W        W 2530   3.155   3.573   2.087 -0.1081 -0.1148  0.1736
 1667W        W 2531   0.279   5.127   0.753 -0.0428 -0.0796  0.0447
 1668W        W 2532   0.621   5.281   0.188  0.2033  0.0324  0.0648
 1669W        W 2533   0.296   2.758  13.398  0.2481 -0.1132  0.0921
 1670W        W 2534   1.480   1.170  12.746 -0.2148  0.1424 -0.0423
 1671W        W 2535   4.198   6.379   1.801  0.2169  0.0469 -0.1071
 1672W        W 2536  12.966   4.064  13.001 -0.1969 -0.1268 -0.0479
 1673W        W 2537  13.491   3.386  10.960  0.1909 -0.4050 -0.0526
 1674W        W 2538   4.896   2.822   9.199 -0.2373  0.2533 -0.1631
 1675W        W 2539  13.948   1.514  13.620  0.0155 -0.1554  0.0839
 1676W        W 2540   3.469   5.681   1.529 -0.1255 -0.0776  0.0311
 1677W        W 2541   1.255   2.813   9.333  0.3960 -0.2010 -0.0874
 1678W        W 2542   0.256   2.510  11.279  0.3616  0.0497 -0.0898
 1679W        W 2543   0.880   0.442  12.677  0.0664 -0.1398 -0.0789
 1680W        W 2544   1.352   4.105  11.069 -0.1553 -0.0600 -0.1001
 1681W        W 2545  13.257   0.322  11.321 -0.0672 -0.3053  0.2014
 1682W        W 2546   3.918   0.510   0.413 -0.1115 -0.0686  0.1687
 1683W        W 2547   3.859  13.530   8.810  0.2147 -0.1209 -0.1674
 1684W        W 2548   3.555   0.468  11.253 -0.1961  0.1565 -0.1050
 1685W        W 2549   1.087   2.439  13.734  0.0695 -0.1836 -0.0133
 1686W        W 2550   2.187   3.369  12.664  0.1681 -0.1640 -0.3159
 1687W        W 2551   3.591   4.117   0.669 -0.0639 -0.1465  0.0716
 1688W        W 2552   2.100   1.740  13.411 -0.3880 -0.0527  0.0369
 1689W        W 2553  11.253   2.953  13.187 -0.0329 -0.1668  0.1699
 1690W        W 2554   0.480   5.371  13.388 -0.1986  0.2023  0.3933
 1691W        W 2555   2.479   2.076  13.067  0.0083  0.2314 -0.0632
 1692W        W 2556   3.752   3.285  11.855 -0.3772  0.2239  0.2580
 1693W        W 2557  13.885   1.318  12.972 -0.3708  0.2093 -0.2224
 1694W        W 2558  12.817   6.623   0.830  0.0287 -0.0503 -0.0231
 1695W        W 2559   2.911   0.822  12.717 -0.0187  0.1719 -0.2130
 1696W        W 2560   0.540   3.525  12.261  0.2919 -0.1034  0.1294
 1697W        W 2561   3.799   2.963  10.692 -0.2608 -0.2936 -0.1722
 1698W        W 2562   1.185   0.759  12.885  0.1088 -0.0251 -0.2920
 1699W        W 2563   4.680   1.924  13.344 -0.1634 -0.0819  0.0035
 1700W        W 2564   1.248   2.920  13.450 -0.0841  0.1914  0.2073
 1701W        W 2565   0.675   4.282  11.625 -0.1527 -0.1499  0.0405
 1702W        W 2566   1.226   3.689   9.903  0.0298 -0.0694 -0.0260
 1703W        W 2567   3.697  13.997  12.303  0.1503 -0.0122  0.5099
 1704W        W 2568   1.438   1.887  11.806  0.1186  0.0462 -0.1432
 1705W        W 2569   0.314  13.347  12.843 -0.0301 -0.0739  0.0809
 1706W        W 2570  13.468   1.178   0.235  0.1120  0.4389  0.0126
 1707W        W 2571  13.863   0.821  11.208  0.2066  0.3146  0.1053
 1708W        W 2572   2.910   2.012   0.303  0.2165  0.0114  0.1039
 1709W        W 2573   3.727   2.943  13.701 -0.2995 -0.2018 -0.0886
 1710W        W 2574   2.307   1.532  12.954  0.0839  0.1222  0.4321
 1711W        W 2575   3.078   6.138  12.662  0.1513  0.4879 -0.1497
 1712W        W 2576   0.157   3.470   0.218  0.0506  0.2465 -0.0103
 1713W        W 2577   1.242   3.706  12.867  0.0874  0.1518 -0.4028
 1714W        W 2578   2.927   2.721  13.514 -0.1276  0.3168 -0.0469
 1715W        W 2579   0.859   1.820  12.494  0.0607 -0.1607  0.2573
 1716W        W 2580   4.074   1.231   0.205 -0.2273 -0.0673 -0.1073
 1717W        W 2581   2.880   1.636  11.434  0.0471 -0.0544 -0.2136
 1718W        W 2582   3.621   8.028   2.107 -0.1423  0.1215 -0.1365
 1719W        W 2583   3.981   2.353  12.473  0.2256 -0.2164 -0.1798
 1720W        W 2584   2.468   4.232  12.253 -0.0874 -0.1211  0.1969
 1721W        W 2585   2.753   4.770  12.875 -0.0109 -0.1618 -0.0057
 1722W        W 2586  13.362   1.886   0.908 -0.0408 -0.1349  0.1523
 1723W        W 2587   1.598   2.504  12.653 -0.0586  0.0468  0.0652
 1724W        W 2588  13.398   0.612  12.549  0.0805  0.2191  0.0100
 1725W        W 2589   0.418   1.073  11.280  0.0676  0.1155 -0.2993
 1726W        W 2590   3.834   4.290  13.397 -0.0306 -0.1346 -0.1198
 1727W        W 2591   5.414   3.013  13.368 -0.3588  0.0410 -0.0003
 1728W        W 2592   3.212   2.278  12.155  0.0257 -0.0862 -0.0789
 1729W        W 2593   2.993   4.066  13.437  0.0910 -0.1621 -0.1617
 1730W        W 2594   1.990   3.245  11.783  0.0350 -0.0731 -0.1273
 1731W        W 2595   3.080   3.521  12.568 -0.0403 -0.0678  0.5613
 1732W        W 2596  13.811   2.672  11.359 -0.0714  0.4132 -0.0553
 1733W        W 2597   2.339  13.296  13.334  0.0747 -0.2207 -0.5625
 1734W        W 2598   0.304   3.682  12.914 -0.0940 -0.0623 -0.1205
 1735W        W 2599  12.107   3.051  13.453 -0.3334 -0.3966 -0.1089
 1736W        W 2600   2.072   3.632   9.343  0.0190 -0.1534 -0.1498
 1737W        W 2601   0.648   3.015  12.563  0.1004 -0.1748 -0.2495
 1738W        W 2602   4.386   3.209  11.995 -0.0957  0.0391  0.1414
 1739W        W 2603   0.647   8.061   2.251 -0.0868  0.0045 -0.0778
 1740W        W 2604   0.420   4.350   1.651 -0.0234  0.2645  0.2794
 1741W        W 2605   1.179   7.218  13.893  0.2540  0.1306 -0.0497
 1742W        W 2606   0.504   7.908   0.885  0.1288  0.0129  0.1342
 1743W        W 2607   4.308   7.124  13.088  0.2403 -0.2177  0.0046
 1744W        W 2608   3.053   6.712   1.032  0.1676  0.1682 -0.0626
 1745W        W 2609   1.057   6.957   2.843  0.0968 -0.0871  0.0282
 1746W        W 2610   1.966   5.289  11.871 -0.0579 -0.1133  0.2268
 1747W        W 2611  12.165   6.351   3.261 -0.0227  0.0610  0.0598
 1748W        W 2612  12.236   5.591   3.475 -0.0360 -0.0226 -0.1260
 1749W        W 2613   2.540   4.982   0.942 -0.1942 -0.0419 -0.0536
 1750W        W 2614   2.209   6.748  13.589  0.1281 -0.0133 -0.1628
 1751W        W 2615  11.715   4.611   0.270 -0.0079 -0.0457 -0.1864
 1752W        W 2616   2.594   5.081   0.456 -0.0152  0.1207 -0.2410
 1753W        W 2617  11.616   4.105   4.100  0.0816 -0.0972 -0.0746
 1754W        W 2618   1.176   4.178  12.961 -0.0077 -0.0394 -0.0911
 1755W        W 2619   0.293   5.038   2.233 -0.0019 -0.2325 -0.1197
 1756W        W 2620   2.025   3.644   2.933  0.0046  0.0362 -0.1447
 1757W        W 2621   5.516   6.746   0.400  0.1443  0.0436 -0.3214
 1758W        W 2622   4.273   6.047  13.057  0.3140 -0.0775 -0.0996
 1759W        W 2623  12.820   4.522   3.018 -0.1781  0.1497  0.1581
 1760W        W 2624   0.160   6.896   0.224  0.0277 -0.0107  0.0093
 1761W        W 2625  12.319   7.262   4.109 -0.0700  0.0690 -0.2057
 1762W        W 2626  12.537   5.806   0.170  0.2822 -0.0014 -0.3655
 1763W        W 2627   1.040   7.483   2.918  0.0107  0.0253 -0.1407
 1764W        W 2628   2.801   5.340   3.660  0.3007 -0.1680  0.0726
 1765W        W 2629  13.957   5.982   0.491 -0.1906  0.1952  0.3094
 1766W        W 2630   2.343   7.231   2.980 -0.4537 -0.3058 -0.1054
 1767W        W 2631   2.191   6.034   1.026  0.0059  0.0023  0.0512
 1768W        W 2632   3.243   6.064  13.676 -0.1321  0.0793  0.0416
 1769W        W 2633   3.899   5.783   0.052  0.0252  0.1784  0.1013
 1770W        W 2634   2.718   3.890   5.494  0.1919 -0.0308  0.0846
 1771W        W 2635   0.896   8.009   3.427 -0.2050  0.2135 -0.0849
 1772W        W 2636  12.516   6.954   3.717  0.1062  0.2629 -0.0151
 1773W        W 2637   2.857   7.178   1.288  0.1287 -0.2344  0.0234
 1774W        W 2638   1.450   6.302  13.926  0.3544  0.1041  0.0507
 1775W        W 2639  12.691   5.709   2.559  0.2632 -0.0137  0.0636
 1776W        W 2640   2.431   6.032   0.538 -0.0044  0.0777  0.2519
 1777W        W 2641   4.758   8.382   1.535 -0.1780 -0.0663  0.0848
 1778W        W 2642   3.919   7.233  13.589 -0.0638 -0.1840  0.0187
 1779W        W 2643   3.881   6.400   2.241  0.0162 -0.0016  0.0311
 1780W        W 2644   1.940   8.274   0.434 -0.3197  0.0294  0.3761
 1781W        W 2645   4.900   7.135  13.466  0.2299  0.1486  0.0398
 1782W        W 2646   0.338   6.396   0.068  0.0829 -0.0675  0.2327
 1783W        W 2647  12.381   5.210   0.151  0.2208 -0.0887  0.1654
 1784W        W 2648   1.383   1.954   4.400  0.0336  0.0658  0.0695
 1785W        W 2649   4.476   6.216   2.253  0.1310 -0.0420  0.2051
 1786W        W 2650   1.290   5.390   0.832 -0.1899  0.0662 -0.1235
 1787W        W 2651   0.977   6.356  13.804 -0.1955 -0.3243 -0.1256
 1788W        W 2652   1.357   4.394   1.328  0.2723  0.0997  0.0334
 1789W        W 2653  13.761   4.272   2.853  0.1720  0.2492 -0.0433
 1790W        W 2654   1.496   6.146   3.756 -0.3017 -0.1442 -0.1436
 1791W        W 2655   2.761   4.426   0.122  0.2824 -0.2988  0.0405
 1792W        W 2656   0.293   5.996  12.340  0.0285 -0.0632  0.2503
 1793W        W 2657  12.566   6.838   1.690  0.3817  0.2149  0.0944
 1794W        W 2658   0.309   4.908   1.723 -0.1275 -0.1950  0.1176
 1795W        W 2659   2.952   4.697   0.665 -0.1620 -0.1733 -0.1631
 1796W        W 2660   1.862   4.177   2.196 -0.0806 -0.0720 -0.0946
 1797W        W 2661   2.493   6.521  13.072  0.0549  0.1326  0.2687
 1798W        W 2662   4.672   5.502  12.650 -0.0012  0.1878 -0.2626
 1799W        W 2663   0.437   6.881   2.764 -0.0991  0.0032  0.1893
 1800W        W 2664  13.918   5.679   2.264  0.0031 -0.1560  0.2979
 1801W        W 2665   0.779   6.628   2.409 -0.0303  0.0100  0.1504
 1802W        W 2666   1.133   3.864   1.783 -0.1076 -0.1419 -0.0500
 1803W        W 2667   2.632   7.746   1.732 -0.0777 -0.2579 -0.1433
 1804W        W 2668  13.858   6.881   9.702 -0.0284  0.0029 -0.0094
 1805W        W 2669   1.377   5.964   9.588 -0.0107 -0.1723 -0.0005
 1806W        W 2670   0.131   5.991   2.570  0.0586  0.1943 -0.2186
 1807W        W 2671  12.433   7.043   4.554  0.3730  0.1670 -0.1003
 1808W        W 2672   3.071   8.322  13.638  0.0807 -0.3856  0.0295
 1809W        W 2673   0.846   6.618   1.450  0.0162 -0.1088  0.1511
 1810W        W 2674   6.277   8.525   2.159  0.0708 -0.0324 -0.0953
 1811W        W 2675   2.485   5.798   4.962  0.0694 -0.0561 -0.0301
 1812W        W 2676   3.488   5.479  13.464 -0.1887  0.2467  0.2063
 1813W        W 2677   3.874   5.324   2.207  0.2274 -0.1256 -0.2322
 1814W        W 2678  13.492   4.469   1.698 -0.0995 -0.1832  0.2929
 1815W        W 2679   0.774   2.758   2.347  0.0272  0.0735  0.1029
 1816W        W 2680   3.075   6.731   1.539 -0.1368  0.5542 -0.1772
 1817W        W 2681   0.384   6.522  12.413  0.0583  0.1830  0.3628
 1818W        W 2682   0.221   4.737   1.142 -0.1152  0.2247 -0.2188
 1819W        W 2683   1.831   0.939   3.843  0.0265  0.0223  0.2330
 1820W        W 2684  13.960   3.027   3.139 -0.0564 -0.0949 -0.5047
 1821W        W 2685   1.366   5.789   1.490  0.0775 -0.1757  0.0998
 1822W        W 2686   2.194   3.541   3.480 -0.0016  0.0419 -0.1987
 1823W        W 2687   1.251   6.186   0.335 -0.0562  0.0837  0.0700
 1824W        W 2688   4.142   8.508   2.423  0.1342  0.0113 -0.0239
 1825W        W 2689   4.566   0.382   6.715 -0.0035  0.0822 -0.0820
 1826W        W 2690   2.653   7.614   1.207  0.0557 -0.2144  0.0465
 1827W        W 2691   6.623   6.672   2.278 -0.2044 -0.2588 -0.0740
 1828W        W 2692   0.347   1.670  12.259 -0.2304 -0.0659 -0.0308
 1829W        W 2693   1.339   4.901   2.906 -0.0692 -0.0103 -0.2382
 1830W        W 2694   1.414   7.521   0.710 -0.0435  0.3138 -0.0845
 1831W        W 2695   2.281   6.314   3.214  0.0411 -0.1454  0.1561
 1832W        W 2696   1.915   4.339   5.983 -0.2056  0.0792  0.0314
 1833W        W 2697   2.695   6.313   0.077  0.0056  0.0887  0.1174
 1834W        W 2698   2.007   6.930   0.315  0.1425  0.0345  0.2313
 1835W        W 2699   1.808   8.639   2.066  0.1616 -0.0957 -0.0686
 1836W        W 2700  13.608   4.766  12.635 -0.2099  0.0806 -0.1268
 1837W        W 2701   3.419   5.610   2.015 -0.1625 -0.1255 -0.1833
 1838W        W 2702   0.209   4.585  12.705 -0.3834  0.2633 -0.0401
 1839W        W 2703   0.793   3.421  11.302 -0.0288  0.1490 -0.1730
 1840W        W 2704  13.935   5.265   1.972  0.2196 -0.0045 -0.1284
 1841W        W 2705   4.468   5.258  13.877  0.1946  0.4087 -0.2893
 1842W        W 2706   2.204   3.664   0.526  0.0732 -0.0423 -0.3790
 1843W        W 2707   0.790   5.522  13.756 -0.2471  0.0744 -0.0729
 1844W        W 2708   3.689   5.499   4.398  0.1262 -0.1555  0.2612
 1845W        W 2709   5.347   5.219   2.614  0.2752  0.0218 -0.0591
 1846W        W 2710  12.528   6.078   2.277  0.3243 -0.2345  0.0454
 1847W        W 2711   0.537   6.740   4.767 -0.0213  0.0439 -0.1363
 1848W        W 2712   1.927   5.833  11.425 -0.0809  0.3773 -0.1140
 1849W        W 2713   2.355   5.066   3.364 -0.1545 -0.0631  0.0753
 1850W        W 2714   1.099   6.250   3.333  0.1375  0.0071  0.2889
 1851W        W 2715   0.366   6.012  13.725 -0.1145  0.0576 -0.1672
 1852W        W 2716   2.923   5.675  12.920  0.1994  0.0781  0.0402
 1853W        W 2717   2.073   3.744   2.355 -0.1464 -0.1453 -0.2428
 1854W        W 2718   0.831   7.213   4.526 -0.2233 -0.3366  0.0624
 1855W        W 2719   4.500   6.456   1.305 -0.2420  0.1189  0.2862
 1856W        W 2720  12.710   6.485   1.364 -0.0283  0.3335  0.0071
 1857W        W 2721   4.475   7.909  13.039  0.3696 -0.0347  0.0869
 1858W        W 2722   1.138  10.745   0.676 -0.1443  0.2305  0.0007
 1859W        W 2723   2.687   6.780   1.881 -0.1155  0.0666 -0.2267
 1860W        W 2724   2.136   4.142  13.667 -0.3653 -0.1797  0.1754
 1861W        W 2725   5.163   5.995   1.094  0.1617  0.0110  0.1557
 1862W        W 2726   3.423   5.307   0.637 -0.0735  0.3204  0.2052
 1863W        W 2727   0.223   2.701   5.363 -0.0555  0.2251 -0.0461
 1864W        W 2728   5.315   5.863   4.077  0.1538 -0.0126  0.1525
 1865W        W 2729   5.086   9.698  12.172 -0.0530  0.0457  0.0988
 1866W        W 2730   0.114   8.217   0.998 -0.1009 -0.1587  0.3627
 1867W        W 2731   1.395   9.098   0.439 -0.0123 -0.0576 -0.1321
 1868W        W 2732  13.751   4.402   0.348 -0.1275  0.0618  0.0693
 1869W        W 2733   0.599   6.159   2.400 -0.1866 -0.4809  0.1809
 1870W        W 2734   4.585   7.472  13.871  0.2262  0.1862  0.0798
 1871W        W 2735   3.774   5.165   5.183  0.2683 -0.0396 -0.0385
 1872W        W 2736  13.002   1.765   4.177  0.1623 -0.0545  0.0686
 1873W        W 2737   1.670   6.196   4.307  0.1172  0.1270 -0.0425
 1874W        W 2738   2.839   7.289   3.835 -0.4421  0.1118  0.0597
 1875W        W 2739  10.052   3.535   2.237 -0.1295  0.0465 -0.0811
 1876W        W 2740  13.080   2.511   1.462 -0.2421  0.0518  0.0331
 1877W        W 2741   3.278   4.174   2.226 -0.0030  0.3440  0.0839
 1878W        W 2742   1.412   6.898  12.599  0.0760 -0.3789  0.0083
 1879W        W 2743  13.950   6.464   0.368  0.0566 -0.2977 -0.0859
 1880W        W 2744   2.283   5.890   1.917 -0.0605  0.2285 -0.3838
 1881W        W 2745   1.529   3.759   0.576  0.1061 -0.1106 -0.3623
 1882W        W 2746   4.266   4.193   1.210 -0.3028 -0.0394  0.1247
 1883W        W 2747   6.904   8.121   1.700  0.3276  0.0642  0.3198
 1884W        W 2748   1.645   5.299   0.542 -0.1261 -0.0941 -0.0788
 1885W        W 2749   0.780   6.831   0.992 -0.2796 -0.0615  0.0620
 1886W        W 2750   2.933   4.625   2.778  0.0398 -0.1139  0.2337
 1887W        W 2751   1.781   4.256   1.093  0.0429 -0.1017 -0.0247
 1888W        W 2752   0.455   7.922   2.703 -0.3000  0.2886 -0.0122
 1889W        W 2753   1.774   3.947  11.983  0.2091 -0.0061 -0.0786
 1890W        W 2754   4.337   4.571   3.181 -0.0489 -0.3254  0.1010
 1891W        W 2755   2.543   4.440   1.545 -0.0053 -0.0372  0.0297
 1892W        W 2756   1.007   5.737   1.051  0.1627 -0.2459  0.2523
 1893W        W 2757   2.081   2.471  13.360  0.2393 -0.2384  0.0986
 1894W        W 2758   1.453   3.453   2.235  0.1205  0.0830 -0.0602
 1895W        W 2759  13.713   3.399  12.763 -0.1794  0.0427  0.3154
 1896W        W 2760   4.746   5.171   0.991  0.2001  0.0287 -0.0694
 1897W        W 2761   1.839   4.316   3.201  0.0537  0.1154 -0.1141
 1898W        W 2762  12.345   4.412   3.719 -0.0653  0.0286 -0.2774
 1899W        W 2763   2.886   7.546   3.436 -0.2500 -0.2193 -0.0883
 1900W        W 2764   3.653   2.924   4.118 -0.2686 -0.2070 -0.4616
 1901W        W 2765   1.145   3.933   2.250 -0.2328 -0.0788 -0.0429
 1902W        W 2766   1.405   4.623   0.053  0.0553  0.2213  0.3162
 1903W        W 2767   1.348   4.867   0.529 -0.1470 -0.0134  0.2256
 1904W        W 2768   0.227   9.107   2.674 -0.2612 -0.3573 -0.1957
 1905W        W 2769   2.190   8.103  13.367 -0.1683 -0.2026  0.0165
 1906W        W 2770   5.070   8.122   0.250  0.1959 -0.2030 -0.1468
 1907W        W 2771   3.014   5.820   1.340  0.1415 -0.0444 -0.0975
 1908W        W 2772   0.312   6.708   1.434 -0.2339  0.5345 -0.2002
 1909W        W 2773   3.406   7.116  13.696 -0.1697 -0.1561  0.0196
 1910W        W 2774   2.093   7.460   1.894 -0.1707 -0.1292  0.2443
 1911W        W 2775   4.721   4.603  13.470 -0.1060 -0.0672  0.0053
 1912W        W 2776  11.380   7.378   2.406  0.1007 -0.2311  0.5429
 1913W        W 2777   0.443   6.143   1.567  0.0917  0.0426  0.0920
 1914W        W 2778   0.817   6.540  10.198  0.1494  0.0651  0.1761
 1915W        W 2779   1.991   1.920   4.063 -0.2551 -0.0212 -0.1373
 1916W        W 2780  13.439   5.631   0.118  0.2798  0.0844 -0.0533
 1917W        W 2781   0.827   5.011  13.511 -0.1036  0.0427 -0.3625
 1918W        W 2782   1.132   6.066   2.082  0.3714  0.0548 -0.2201
 1919W        W 2783   0.283   3.697   1.813  0.0956  0.1041 -0.0591
 1920W        W 2784   0.294   4.213  13.101 -0.0814 -0.0941 -0.1523
 1921W        W 2785   4.000   5.441  13.698  0.2509  0.1584 -0.0595
 1922W        W 2786   3.642   3.407   2.767  0.1027 -0.1645 -0.2272
 1923W        W 2787   1.880   4.393   0.039 -0.0196 -0.2714 -0.1965
 1924W        W 2788  13.539   4.997   0.294  0.0365  0.1476  0.1524
 1925W        W 2789  12.641   3.302   1.361 -0.3416  0.1628 -0.0310
 1926W        W 2790  13.427   8.413  13.540  0.1420 -0.2000  0.3496
 1927W        W 2791  12.936   3.426   2.826 -0.2611  0.0425 -0.0126
 1928W        W 2792   1.749   6.186   1.722 -0.4816  0.0386 -0.0168
 1929W        W 2793   1.821   4.561   0.724 -0.0980 -0.0328  0.2233
 1930W        W 2794   4.913   0.283   3.580  0.1607 -0.2429 -0.0441
 1931W        W 2795   1.064   5.037   1.264  0.0113 -0.0343  0.2390
 1932W        W 2796   2.940   6.782   0.048  0.3296 -0.0770  0.0284
 1933W        W 2797   0.005   3.100   1.281  0.0949 -0.0599 -0.2305
 1934W        W 2798   1.814   3.369   0.723 -0.0262 -0.3305  0.1469
 1935W        W 2799  12.737   6.065   0.674 -0.3070  0.0662  0.0238
 1936W        W 2800   2.648   4.903   1.914  0.1935  0.0880  0.3836
 1937W        W 2801   4.201   3.871  11.442  0.0646  0.2650 -0.0442
 1938W        W 2802  13.604   4.622   2.478  0.1228 -0.1997 -0.3314
 1939W        W 2803   2.877   5.851  13.935 -0.4339  0.0973 -0.2236
 1940W        W 2804  12.932   4.655   1.767 -0.1140  0.0098 -0.0093
 1941W        W 2805  13.758   6.361   2.762 -0.1137 -0.1646  0.0278
 1942W        W 2806   1.682   1.056   2.362 -0.2764 -0.1891  0.1344
 1943W        W 2807   4.570   9.171   1.282 -0.0090 -0.0714  0.0551
 1944W        W 2808   0.522   6.368   1.120  0.0490  0.3323 -0.1210
 1945W        W 2809   1.910   7.513  13.266 -0.0240 -0.1798 -0.1851
 1946W        W 2810   0.894   4.983   0.763 -0.3314  0.1157  0.1980
 1947W        W 2811   2.021   5.825   1.475  0.0158 -0.0205  0.0272
 1948W        W 2812   7.562   5.203   0.337 -0.0229 -0.0816 -0.2191
 1949W        W 2813   5.441   5.685   2.206  0.1938  0.1418  0.2433
 1950W        W 2814   4.708   4.864   0.071 -0.0300  0.1902  0.2418
 1951W        W 2815   0.311   6.560   2.379  0.3656  0.0849 -0.2245
 1952W        W 2816   2.813   9.814  13.623  0.1079 -0.4528 -0.0339
 1953W        W 2817   0.658   3.964   1.991 -0.1870  0.1314 -0.2934
 1954W        W 2818  13.831   6.013   4.976 -0.1895 -0.2271 -0.2294
 1955W        W 2819   2.301   4.960   1.446 -0.1342 -0.0826  0.2335
 1956W        W 2820   1.868   4.641   3.696  0.0624  0.2999  0.2020
 1957W        W 2821   1.708   7.043   2.190  0.0219  0.0678 -0.3842
 1958W        W 2822   4.773   4.663   0.830  0.2010  0.1465  0.1020
 1959W        W 2823   0.929   4.246   1.187  0.1353 -0.1036  0.2960
 1960W        W 2824   0.042   4.137   1.909 -0.1064  0.4218  0.0439
 1961W        W 2825   2.733   5.413   3.177 -0.0663  0.2020 -0.1495
 1962W        W 2826   3.109   3.049   1.880 -0.1776 -0.1020  0.0605
 1963W        W 2827   2.857   7.114  13.679  0.1924 -0.1864 -0.0760
 1964W        W 2828   2.876   4.244   2.453 -0.0193 -0.1873 -0.3896
 1965W        W 2829   0.378   4.179   3.684  0.0259 -0.2309  0.1142
 1966W        W 2830  12.956   3.883   4.251  0.1945 -0.1651 -0.1266
 1967W        W 2831   1.255   5.475  13.843 -0.1482 -0.0062  0.2290
 1968W        W 2832   2.245   3.798   0.036 -0.1235  0.3919 -0.0929
 1969W        W 2833  12.845   3.767   3.273 -0.0928 -0.1169  0.0221
 1970W        W 2834   4.117   4.850  14.013  0.1890  0.3693  0.1322
 1971W        W 2835   3.248   1.259   3.147 -0.0176  0.0398 -0.0036
 1972W        W 2836   6.116   8.838   0.632  0.1237 -0.0088  0.0288
 1973W        W 2837   3.644   6.393  13.478 -0.3283 -0.2250  0.3501
 1974W        W 2838   0.575   6.503  13.550 -0.2089  0.0886 -0.0187
 1975W        W 2839  12.765   4.307   4.567  0.2244 -0.0402  0.1294
 1976W        W 2840   0.432   3.127   2.327 -0.1009 -0.0502  0.2182
 1977W        W 2841   0.592   5.664   1.317  0.2628 -0.1837 -0.0974
 1978W        W 2842   0.684   4.431   3.169 -0.0500  0.1384 -0.1250
 1979W        W 2843   0.598   7.143  12.967 -0.1251  0.5434  0.1611
 1980W        W 2844   2.011   6.216  13.606 -0.0168  0.1079 -0.5928
 1981W        W 2845   0.317   7.188   4.268 -0.0454 -0.2986 -0.0546
 1982W        W 2846   1.536   9.825   2.275  0.2980  0.1031 -0.1253
 1983W        W 2847  13.128   4.439   2.176  0.2223 -0.1169  0.0906
 1984W        W 2848   2.604   6.913   0.879 -0.3525 -0.0586  0.0116
 1985W        W 2849   0.733   8.528   3.233  0.0502  0.0233  0.1777
 1986W        W 2850   1.269   7.965   4.696 -0.3036  0.0561 -0.1372
 1987W        W 2851   4.335   8.670   0.928  0.3402  0.3113 -0.1402
 1988W        W 2852  12.706   5.165  13.787 -0.1218  0.2281 -0.2835
 1989W        W 2853   4.700   7.892   1.248 -0.0313 -0.5303  0.1738
 1990W        W 2854   3.453   3.904  13.090 -0.1415  0.2682  0.2013
 1991W        W 2855  13.707   2.877   5.602  0.0839  0.2245  0.1894
 1992W        W 2856   3.396   8.948   3.166 -0.2996  0.2956 -0.1548
 1993W        W 2857   3.086   6.914   0.589 -0.0066  0.0056 -0.0749
 1994W        W 2858   1.900   4.824   0.347 -0.1113 -0.1313 -0.2607
 1995W        W 2859  14.001   6.482   1.667  0.0073  0.1941 -0.0260
 1996W        W 2860   5.206   4.328   1.584  0.2803 -0.3841  0.0571
 1997W        W 2861   0.499   5.380   1.858 -0.3147  0.2136 -0.2019
 1998W        W 2862   0.372   7.225   1.120 -0.0510  0.1859 -0.2993
 1999W        W 2863  14.013   7.379   2.038 -0.1590  0.2422 -0.0353
 2000W        W 2864   2.336   6.004  12.359  0.0701 -0.0851  0.2763
 2001W        W 2865   1.335   8.507   0.188  0.3401  0.0481  0.1129
 2002W        W 2866   2.267   6.623   0.581 -0.0275  0.1213 -0.0377
 2003W        W 2867   4.595   4.079  12.120  0.2261 -0.1164  0.2433
 2004W        W 2868   2.263   4.499   1.134 -0.2216 -0.2733  0.2029
 2005W        W 2869   1.994   5.530   2.570  0.0683  0.1797 -0.2921
 2006W        W 2870   3.378   4.370  13.479 -0.1657 -0.2713  0.1225
 2007W        W 2871  13.486   7.999   3.870  0.0035  0.1110  0.1109
 2008W        W 2872   5.721   6.688   0.816 -0.1099 -0.1704 -0.0306
 2009W        W 2873   2.146   5.043   2.655  0.1900 -0.0954  0.3074
 2010W        W 2874  13.296   5.510   3.162 -0.0607  0.1413  0.1062
 2011W        W 2875   2.148   4.891   4.053 -0.0853 -0.0197 -0.3128
 2012W        W 2876   1.864   5.726  13.427 -0.1997  0.1213  0.1053
 2013W        W 2877   2.629   7.042   0.390  0.0847  0.2878  0.2783
 2014W        W 2878   2.500   5.522   0.695  0.1180 -0.1702  0.2443
 2015W        W 2879   0.874   4.375   2.270 -0.3516  0.0233  0.1010
 2016W        W 2880  12.981   3.735   1.440 -0.0939  0.0549  0.1512
 2017W        W 2881  13.574   7.354   1.713  0.0982  0.2875 -0.0880
 2018W        W 2882   0.509   5.881   0.208  0.0993 -0.0158  0.0822
 2019W        W 2883   1.967   5.883   3.320  0.0796 -0.0224  0.1392
 2020W        W 2884   2.381   8.606  11.852 -0.0507 -0.0208 -0.2434
 2021W        W 2885   1.661   2.486   4.296 -0.1069 -0.1000 -0.2467
 2022W        W 2886   4.727   7.184   0.628 -0.2544 -0.0411 -0.0024
 2023W        W 2887   1.428   6.751  13.053 -0.3531 -0.4174  0.1045
 2024W        W 2888   2.633   6.492  10.009  0.1285 -0.3022 -0.0265
 2025W        W 2889   0.536   3.807  13.348 -0.0747  0.0573  0.1865
 2026W        W 2890   1.580   4.401   2.832  0.0434  0.1616 -0.2692
 2027W        W 2891  13.420   5.859   4.281  0.2978  0.2694  0.1638
 2028W        W 2892   3.345   6.014  13.140 -0.1646  0.0079  0.0193
 2029W        W 2893   2.186   4.168   0.771 -0.0195 -0.0083  0.2822
 2030W        W 2894   0.580   4.717   2.456  0.1565 -0.2623 -0.0413
 2031W        W 2895   1.959   6.542   2.341  0.3399 -0.0202  0.2661
 2032W        W 2896  12.200   6.293   2.599  0.0793 -0.2208  0.0004
 2033W        W 2897   1.304   5.508   3.790 -0.0292 -0.1938  0.0350
 2034W        W 2898   1.785   7.882   0.109  0.0888 -0.1274 -0.1090
 2035W        W 2899   4.587   5.024   1.522 -0.0784 -0.1415  0.1025
 2036W        W 2900   3.668   5.325   3.080 -0.0584 -0.3759  0.1514
 2037W        W 2901   0.071   6.315   0.843  0.0802  0.1940 -0.0095
 2038W        W 2902  13.938   5.795  14.011  0.0685  0.2343 -0.3947
 2039W        W 2903   2.609   4.849   2.472  0.0332 -0.3281  0.2857
 2040W        W 2904   0.033   7.716   3.014  0.1221  0.3569  0.1042
 2041W        W 2905   2.257   5.193  13.495  0.1229  0.1654 -0.1767
 2042W        W 2906   1.438   2.976   2.674 -0.1806 -0.1271 -0.1092
 2043W        W 2907   4.012   4.867  12.410  0.3905  0.0580 -0.0671
 2044W        W 2908   1.691   8.155  13.225  0.1462 -0.1225 -0.0905
 2045W        W 2909   1.903   5.184   1.666  0.1864  0.2993 -0.2198
 2046W        W 2910   1.824   7.768   2.151 -0.1088 -0.3643  0.2909
 2047W        W 2911   0.278   6.790   0.907  0.4390  0.3014 -0.1651
 2048W        W 2912   3.564   5.095   0.139 -0.0590 -0.1166  0.1021
 2049W        W 2913   1.710   6.556   1.300 -0.0404  0.0417  0.2537
 2050W        W 2914  13.516   5.728   1.117 -0.0444 -0.0286 -0.1091
 2051W        W 2915   0.440   5.913   0.814  0.1626 -0.1128 -0.0923
 2052W        W 2916   5.678   9.583   0.122 -0.0650  0.4637  0.2090
 2053W        W 2917  13.955   5.295   4.738 -0.3600 -0.2550 -0.3051
 2054W        W 2918   3.191   7.603   0.999  0.3316  0.1104 -0.0174
 2055W        W 2919   0.628   6.992  13.496 -0.0035  0.0303  0.1390
 2056W        W 2920   0.295   7.420   3.598  0.0962 -0.0694 -0.1123
 2057W        W 2921   1.276   1.053   1.593  0.0505 -0.0496  0.1406
 2058W        W 2922   0.975   4.976   2.434  0.1781 -0.0624  0.1568
 2059W        W 2923   1.635   4.674  13.117 -0.2972 -0.1117 -0.0138
 2060W        W 2924  13.098   4.841   2.532 -0.2326  0.3310  0.0032
 2061W        W 2925   3.596   0.083   4.379 -0.2313 -0.1436  0.0484
 2062W        W 2926   3.425   6.495   0.520  0.2244  0.4062 -0.2506
 2063W        W 2927  13.310   6.924   4.135  0.4127 -0.2741 -0.0776
 2064W        W 2928   0.449   7.279   1.674  0.3040  0.4138 -0.0806
 2065W        W 2929   3.546   3.087   3.150 -0.0080  0.1154  0.1981
 2066W        W 2930   4.010   8.933   1.202 -0.3734  0.0599  0.0475
 2067W        W 2931   2.691   5.924   0.995 -0.0294  0.0906  0.0956
 2068W        W 2932   5.763   7.614  11.751  0.0491  0.0249 -0.0742
 2069W        W 2933   1.531   5.621  13.077 -0.2016 -0.1229  0.1455
 2070W        W 2934   0.157   5.493   0.377 -0.2057  0.2930  0.0470
 2071W        W 2935  12.928   5.155   1.073  0.0048 -0.0681 -0.0445
 2072W        W 2936  12.759   5.847   3.891  0.2801 -0.0230 -0.0664
 2073W        W 2937   1.804   3.096   3.600 -0.0243  0.2556  0.1899
 2074W        W 2938  13.611   7.893  12.138  0.2174  0.0409  0.0665
 2075W        W 2939   0.594   7.347   2.766  0.0106 -0.1982 -0.0989
 2076W        W 2940   1.692   5.717   1.137  0.4722  0.0252  0.1887
 2077W        W 2941  13.511   4.974  12.154  0.1105 -0.1727 -0.0648
 2078W        W 2942   1.309   4.069   0.115  0.1803  0.4330  0.1274
 2079W        W 2943   1.345   5.893  13.554 -0.1227  0.0376  0.2342
 2080W        W 2944  12.527   4.241   1.025  0.0179 -0.3200  0.2723
 2081W        W 2945   2.536   6.757   1.351 -0.0331 -0.2755 -0.2052
 2082W        W 2946   2.572   3.558  13.688  0.1746 -0.0146  0.1391
 2083W        W 2947   4.730   4.273   3.114 -0.0247  0.3412 -0.1023
 2084W        W 2948   3.462   6.855  13.259 -0.3031 -0.1792 -0.1807
 2085W        W 2949   1.736   5.860  13.888  0.0730  0.2039  0.0861
 2086W        W 2950   1.522   5.102   0.100 -0.0363 -0.1747 -0.2254
 2087W        W 2951  13.127   8.554   0.702 -0.1832  0.0101 -0.2547
 2088W        W 2952   1.656   5.181   2.157 -0.1809  0.0352 -0.2168
 2089W        W 2953  13.835   5.116   1.060 -0.1114 -0.0688  0.1767
 2090W        W 2954   0.739   4.780   0.315  0.1202  0.0501 -0.0274
 2091W        W 2955  13.470   6.168   1.458  0.1077 -0.0669  0.0731
 2092W        W 2956   1.597   5.591   5.073 -0.1691 -0.0194 -0.0699
 2093W        W 2957   0.194   3.817   2.699  0.3152  0.3260  0.1041
 2094W        W 2958   3.229   5.475   2.998  0.0455  0.0626  0.2423
 2095W        W 2959   1.432   7.659   2.384  0.0844 -0.2573 -0.0381
 2096W        W 2960  13.757   6.739   0.725  0.2076 -0.1820 -0.2790
 2097W        W 2961   1.625   6.636   0.348 -0.0972 -0.1590 -0.0518
 2098W        W 2962   2.903   7.541  13.213 -0.1397 -0.0675 -0.0407
 2099W        W 2963   0.361   3.950   0.751 -0.1992  0.1974 -0.1585
 2100W        W 2964   2.527   7.261   1.710  0.1034 -0.1192 -0.0047
 2101W        W 2965   2.254   8.095   1.546 -0.0375 -0.2851  0.3548
 2102W        W 2966   2.729   7.591  13.686  0.0068 -0.1153  0.0640
 2103W        W 2967  13.868   5.425   3.136  0.1030  0.0822  0.2995
 2104W        W 2968   3.323   5.903  11.755  0.1481  0.0724  0.2917
 2105W        W 2969   2.537   6.382   0.903 -0.0266  0.2167 -0.0127
 2106W        W 2970  13.360   4.173   2.529 -0.0130 -0.0332  0.0652
 2107W        W 2971   1.513   4.754   1.043  0.2231  0.0244  0.0462
 2108W        W 2972   3.028   5.723   3.391  0.2022 -0.1740 -0.0213
 2109W        W 2973  13.289   5.323   2.282 -0.0385 -0.0121  0.0688
 2110W        W 2974   3.877   7.520   0.351  0.1905  0.2694 -0.0336
 2111W        W 2975  11.978   7.365   3.277  0.1459  0.1678 -0.0011
 2112W        W 2976   0.763   7.661   1.991 -0.1223 -0.0994 -0.1432
 2113W        W 2977   1.369   5.982   0.764  0.0171 -0.0010  0.0319
 2114W        W 2978   1.002   5.865   3.703 -0.1666 -0.0451  0.0800
 2115W        W 2979   0.585   5.312   2.573  0.2847  0.0674 -0.3408
 2116W        W 2980   2.811   8.573   1.136  0.2208  0.3075  0.3048
 2117W        W 2981  12.408   6.839   1.132 -0.2858  0.0806 -0.2307
 2118W        W 2982   2.227   6.081   0.070  0.2130 -0.0286 -0.1619
 2119W        W 2983   3.432   8.164   1.591 -0.0451 -0.2713  0.0022
 2120W        W 2984   3.068   6.006   4.082  0.2660  0.3639  0.0298
 2121W        W 2985  12.951   5.803   2.124  0.1569 -0.4627  0.0641
 2122W        W 2986   4.511   8.133   0.086  0.2882  0.5418 -0.2131
 2123W        W 2987   3.565   7.799   0.621  0.0545 -0.0437 -0.4084
 2124W        W 2988  11.913   4.752   0.720 -0.0193  0.2277  0.1356
 2125W        W 2989   0.091   4.990   4.251  0.1041 -0.1311  0.4581
 2126W        W 2990   0.222   8.512  13.969  0.0749 -0.1641 -0.1343
 2127W        W 2991   1.432   7.241   2.585  0.2888  0.1980 -0.0040
 2128W        W 2992   0.181   6.159  13.286 -0.2679  0.0804  0.1350
 2129W        W 2993  13.437   5.712  12.829 -0.0199  0.1442  0.1611
 2130W        W 2994  13.011   5.080   7.346 -0.2556 -0.0445  0.2575
 2131W        W 2995   1.730   7.734   6.444  0.2635 -0.0792 -0.3543
 2132W        W 2996   3.002   7.330   5.503  0.3360 -0.3683  0.4518
 2133W        W 2997   4.376   6.071   5.332  0.0852  0.0197 -0.4294
 2134W        W 2998   1.513   9.877   4.459 -0.0186  0.1266 -0.1369
 2135W        W 2999   0.335   4.514   4.457  0.1139  0.3653 -0.2012
 2136W        W 3000  13.515   2.704   3.891  0.0464 -0.0206 -0.2826
 2137W        W 3001   1.358   5.872   4.693  0.1712 -0.0055  0.0410
 2138W        W 3002   3.502   6.225   5.033  0.0589 -0.0453  0.4925
 2139W        W 3003   2.205   4.034   8.017 -0.1155 -0.2899  0.1949
 2140W        W 3004  12.590   4.214   8.713 -0.1571 -0.2297  0.0143
 2141W        W 3005   2.196   4.674   4.478  0.1950  0.0396  0.1630
 2142W        W 3006   2.877   4.300   5.763  0.2648  0.2211 -0.0850
 2143W        W 3007   5.136   5.941   9.024 -0.0833 -0.3296 -0.3838
 2144W        W 3008   0.230   4.540   3.347  0.0026 -0.0085  0.1937
 2145W        W 3009  12.401   6.184   4.214 -0.0169 -0.2218 -0.1669
 2146W        W 3010  13.547   2.683   3.282  0.3072 -0.1601  0.1230
 2147W        W 3011   0.695   5.886   1.892  0.1650  0.1544 -0.0371
 2148W        W 3012   0.833   6.597   6.561 -0.1451  0.0318 -0.1597
 2149W        W 3013   4.019   5.232   4.701 -0.1123  0.0268 -0.0589
 2150W        W 3014   3.656   5.234   7.390 -0.1750 -0.2163 -0.1140
 2151W        W 3015  13.879   3.706   4.452  0.0551 -0.0392 -0.0521
 2152W        W 3016   2.673   6.327   7.909  0.3921  0.0764 -0.1551
 2153W        W 3017  12.588   6.672   7.745  0.0189 -0.4713 -0.1962
 2154W        W 3018   0.745   5.371   5.559  0.2213  0.0876  0.0023
 2155W        W 3019   2.548   6.736   6.923 -0.1984 -0.1908 -0.0984
 2156W        W 3020   4.345   4.571   5.321 -0.2323 -0.1517  0.3301
 2157W        W 3021   0.927   2.635   4.943 -0.0076  0.2188  0.0110
 2158W        W 3022   1.921   4.398   5.471 -0.2072  0.0405 -0.0053
 2159W        W 3023   3.593   5.846   8.627  0.0805 -0.3725 -0.2799
 2160W        W 3024   2.187   6.088   3.817  0.0329  0.1041 -0.1877
 2161W        W 3025   3.905   6.112   7.744 -0.7238 -0.0171 -0.1825
 2162W        W 3026   1.707   4.427   6.406 -0.0977  0.2381  0.1109
 2163W        W 3027   3.598   4.033   9.560  0.0802  0.1715  0.0559
 2164W        W 3028   0.343   1.953   6.523  0.0077  0.0252  0.0552
 2165W        W 3029   3.040   7.561   7.678 -0.0373  0.1191 -0.0011
 2166W        W 3030   1.250   4.214   4.331  0.1079  0.0408  0.0393
 2167W        W 3031   2.737   4.295   6.291 -0.2550  0.0071 -0.1217
 2168W        W 3032   3.954   6.127   4.247 -0.2033  0.0632 -0.1218
 2169W        W 3033   2.143   2.650   3.372 -0.0833 -0.1962 -0.1450
 2170W        W 3034   2.145   5.554   8.088  0.1438  0.1973  0.0224
 2171W        W 3035   3.057   8.326   8.670 -0.2000 -0.1825  0.0850
 2172W        W 3036   1.741   7.638   1.115  0.4438  0.0796 -0.1418
 2173W        W 3037   0.567   8.603   4.874  0.2093 -0.2252 -0.1371
 2174W        W 3038   0.604   7.737   3.127  0.2182  0.1434  0.0384
 2175W        W 3039   0.118   3.229   8.151  0.0992  0.1369  0.0363
 2176W        W 3040   3.675   4.745   7.569 -0.1503  0.0344  0.1911
 2177W        W 3041   2.517   4.484   4.110  0.0575 -0.3349 -0.1639
 2178W        W 3042   2.042   4.129   2.712  0.1425  0.1865 -0.0255
 2179W        W 3043  12.237   5.143   7.080 -0.1744  0.2391  0.2091
 2180W        W 3044   0.021   5.568   7.615  0.0761  0.2370 -0.0608
 2181W        W 3045   0.673   3.967   4.996  0.0126 -0.0681 -0.1894
 2182W        W 3046   2.987   5.214   2.120 -0.1243  0.0452  0.1433
 2183W        W 3047   2.236   3.870   5.954 -0.1340  0.0015 -0.2428
 2184W        W 3048   0.759   6.441   2.913 -0.0285  0.2592  0.0944
 2185W        W 3049   0.823   3.816   4.164  0.2152  0.1776 -0.1670
 2186W        W 3050   3.667   3.067   7.532  0.0648 -0.0134 -0.1369
 2187W        W 3051   1.270   6.196   7.097  0.0517 -0.0889 -0.0537
 2188W        W 3052   3.152   5.038   3.977 -0.4132 -0.0972 -0.0400
 2189W        W 3053   1.463   3.455   1.637  0.1605 -0.2266  0.3332
 2190W        W 3054   1.109   6.507   6.081  0.1501  0.0309 -0.0271
 2191W        W 3055   2.956   9.267   8.200  0.1081  0.1496  0.3094
 2192W        W 3056  13.753   7.296   3.012 -0.1415  0.2459 -0.0871
 2193W        W 3057   4.271   3.257   8.218 -0.2355 -0.1930 -0.0022
 2194W        W 3058   2.361   4.258   5.714  0.1373  0.3708 -0.0884
 2195W        W 3059   1.722   5.786   2.913  0.0472 -0.1036 -0.1223
 2196W        W 3060   2.773   1.082   2.242 -0.1443 -0.1673 -0.3520
 2197W        W 3061   0.337   7.728   5.125 -0.0756  0.0292  0.0957
 2198W        W 3062   1.431   5.881   2.382 -0.0125  0.1410  0.0178
 2199W        W 3063   2.843   6.845   4.643 -0.0323  0.0222 -0.1759
 2200W        W 3064   0.101   6.761   4.212  0.0896  0.4242 -0.1799
 2201W        W 3065   5.503   5.781   4.563 -0.0705 -0.2605 -0.1725
 2202W        W 3066   2.479   5.025   4.771 -0.0257 -0.0094  0.0110
 2203W        W 3067   2.610   2.873   5.219 -0.1356 -0.1651 -0.0157
 2204W        W 3068   0.030   6.943   4.770 -0.0150  0.1550 -0.0845
 2205W        W 3069  13.616   8.479   6.301  0.1766 -0.3472 -0.2431
 2206W        W 3070   2.009   4.554   2.461  0.1476  0.2477  0.1466
 2207W        W 3071   0.534   3.357   4.010 -0.0775  0.0812 -0.1875
 2208W        W 3072  13.720   5.806   3.908  0.1796 -0.0793 -0.0114
 2209W        W 3073   0.737   7.775   4.757  0.0767 -0.0129  0.2763
 2210W        W 3074  12.523   2.904   5.666  0.2007  0.0542  0.0811
 2211W        W 3075   2.260   5.169   5.828  0.1120 -0.0760  0.4546
 2212W        W 3076  12.504   3.808   6.726  0.0222 -0.1435 -0.0289
 2213W        W 3077   0.694   2.939   4.344 -0.5022 -0.2691 -0.0204
 2214W        W 3078   2.582   5.154   6.199  0.1303 -0.0063  0.2985
 2215W        W 3079   0.908   3.099   9.046 -0.1629  0.2863 -0.0016
 2216W        W 3080   3.171   4.736   6.587 -0.0406  0.3271  0.3834
 2217W        W 3081   4.781   4.710   6.140  0.0527  0.0982 -0.0552
 2218W        W 3082   1.552   4.696   4.142  0.1048 -0.1143  0.2560
 2219W        W 3083   0.972   4.575   8.657 -0.0452 -0.1494  0.0344
 2220W        W 3084  13.929   6.480   7.035 -0.0009  0.3437 -0.0524
 2221W        W 3085  13.357   5.189   5.681  0.1209  0.0317 -0.3013
 2222W        W 3086   2.540   3.040   7.596 -0.2758  0.0372 -0.3619
 2223W        W 3087   4.932   6.177   3.731 -0.3147  0.0535  0.1028
 2224W        W 3088   2.285   6.842   3.295 -0.1451  0.1029  0.1544
 2225W        W 3089   2.205   6.451   7.221  0.1932 -0.0774 -0.1445
 2226W        W 3090  12.662   2.442   5.873 -0.0670  0.1630  0.0796
 2227W        W 3091   3.668   4.899   4.379  0.0740  0.1161 -0.1535
 2228W        W 3092   5.229   5.317   3.849  0.0159  0.0242 -0.1669
 2229W        W 3093  12.969   5.322   6.335 -0.3221  0.0576 -0.2219
 2230W        W 3094   1.811   2.152   1.452  0.3380  0.2465 -0.0507
 2231W        W 3095   1.786   6.330   6.808 -0.0452 -0.3433  0.0998
 2232W        W 3096   5.450   3.121   4.402  0.2447  0.0182 -0.0646
 2233W        W 3097   3.578   4.102   7.683  0.1199  0.3261  0.0664
 2234W        W 3098   2.775   9.427   1.719 -0.0587  0.1674 -0.6248
 2235W        W 3099   4.000   4.325   9.630  0.2461 -0.0862  0.2801
 2236W        W 3100   3.050   5.208   6.383  0.1933  0.0862  0.0046
 2237W        W 3101  12.382   3.976   3.480  0.0436 -0.0456  0.4049
 2238W        W 3102  10.774   7.488   8.949  0.1434 -0.0232  0.2156
 2239W        W 3103   3.806   7.508   7.954  0.1106  0.3411  0.0590
 2240W        W 3104   3.311   7.739   5.673  0.1859  0.1131  0.1483
 2241W        W 3105   3.469   9.284   8.251 -0.0892  0.0730 -0.2700
 2242W        W 3106   1.901   6.502   3.604 -0.1881 -0.0492  0.0186
 2243W        W 3107   2.938   4.244   7.848 -0.0353 -0.1725  0.0919
 2244W        W 3108   1.839   5.685   4.670 -0.0125 -0.4031 -0.0546
 2245W        W 3109   2.064   5.814   5.734 -0.5374 -0.2003  0.0828
 2246W        W 3110   1.532   3.393   3.053  0.0425  0.3956  0.1487
 2247W        W 3111   2.873   7.189   3.097 -0.1213  0.0222 -0.3512
 2248W        W 3112   1.515   8.001   2.735  0.1779 -0.3639  0.0547
 2249W        W 3113   4.620   8.393   4.350  0.1415  0.1820 -0.0181
 2250W        W 3114   1.558   6.291   2.158  0.0062 -0.0496  0.2366
 2251W        W 3115   1.439   7.412   4.557  0.4451 -0.1582 -0.1802
 2252W        W 3116   2.870   5.386   4.189  0.1436  0.1515  0.0140
 2253W        W 3117   3.693   3.717   5.334 -0.3219  0.0955 -0.1715
 2254W        W 3118   2.446   6.211   6.851  0.1671 -0.2131  0.0210
 2255W        W 3119   2.783   4.087   4.521  0.1719 -0.0297  0.2073
 2256W        W 3120   1.924   7.040   4.196  0.3527 -0.0346 -0.4847
 2257W        W 3121   3.963   8.169   6.156 -0.2275  0.0700  0.3670
 2258W        W 3122   2.091   6.053   8.124 -0.3565 -0.0320 -0.0890
 2259W        W 3123   0.594   5.183   6.145  0.0431  0.1993 -0.2587
 2260W        W 3124   5.593   5.084   3.623 -0.0863  0.0032  0.0149
 2261W        W 3125   3.532   5.193   4.775  0.2613  0.1207 -0.0614
 2262W        W 3126   0.340   4.027   3.160  0.1919 -0.0144 -0.1795
 2263W        W 3127   4.535   3.586   5.253  0.1833 -0.2263  0.2644
 2264W        W 3128   2.235   2.584   7.810 -0.1658 -0.3015 -0.2058
 2265W        W 3129   1.275   6.533   2.960 -0.1236  0.0442 -0.1640
 2266W        W 3130   0.599   7.932   7.632  0.1930 -0.0616 -0.0596
 2267W        W 3131   3.001   4.844   3.463 -0.0252 -0.1768  0.0154
 2268W        W 3132   2.996   5.060   6.901 -0.3973  0.0717  0.3483
 2269W        W 3133   2.309   8.534   2.278  0.3146  0.0710  0.0826
 2270W        W 3134   1.646   3.820   1.951 -0.0905 -0.1034 -0.1879
 2271W        W 3135   0.628   6.567   5.287 -0.2123 -0.0628 -0.1873
 2272W        W 3136   1.991   5.166   4.566 -0.1516  0.1148  0.3310
 2273W        W 3137  13.700   3.954   3.256 -0.1481  0.1290  0.1476
 2274W        W 3138   1.698   6.945   5.397  0.0468 -0.3964  0.4503
 2275W        W 3139   3.538   5.431   5.567  0.0154 -0.0986 -0.0628
 2276W        W 3140   2.044   4.354   4.063  0.0833 -0.1538  0.1574
 2277W        W 3141   2.722   9.260   3.463 -0.2269 -0.0454 -0.1978
 2278W        W 3142   2.268   3.381   7.217  0.0526 -0.3311  0.1501
 2279W        W 3143   3.286   6.090   6.029  0.0433 -0.0770 -0.1028
 2280W        W 3144   0.845   5.708   3.213  0.2827 -0.2295  0.0479
 2281W        W 3145   0.200   4.726   6.178 -0.0083  0.1014 -0.1201
 2282W        W 3146   0.010   4.509   5.307  0.2115  0.0307  0.0790
 2283W        W 3147  13.154   5.885   5.064  0.3337 -0.1619  0.0531
 2284W        W 3148  13.484   2.642   1.123  0.1083  0.0564  0.1061
 2285W        W 3149   0.695   5.479   4.039  0.2344  0.1183  0.2570
 2286W        W 3150   3.893   3.675   4.303 -0.4107  0.1317 -0.1977
 2287W        W 3151   0.970   4.353   5.765  0.1292  0.1101  0.1183
 2288W        W 3152  12.928   6.902   7.336  0.0410 -0.1379  0.1103
 2289W        W 3153   1.553   4.081   8.743 -0.2420 -0.1282  0.4072
 2290W        W 3154   1.846   6.454   5.339 -0.2165  0.1074  0.0516
 2291W        W 3155   4.971   3.341   5.442 -0.0427  0.0033 -0.1638
 2292W        W 3156   1.833   5.249   6.348 -0.1003 -0.3641  0.0219
 2293W        W 3157   1.654   3.453   4.566  0.0044  0.1133  0.0317
 2294W        W 3158   2.159   6.901   1.594 -0.1718  0.1137 -0.2666
 2295W        W 3159   2.386   4.658   6.078  0.1984 -0.2423 -0.0331
 2296W        W 3160   1.246   3.813   3.667 -0.2218  0.2032  0.0002
 2297W        W 3161   3.121   3.407   5.813 -0.2612 -0.1433  0.4713
 2298W        W 3162   4.302   3.510   7.316  0.2401 -0.2836 -0.0396
 2299W        W 3163   2.881   5.615   6.127  0.0527  0.2322  0.0393
 2300W        W 3164   1.947   3.708   1.541  0.2249  0.0117  0.1516
 2301W        W 3165   0.171   5.251   8.067  0.0644  0.0342 -0.3202
 2302W        W 3166   1.138   6.338   2.474 -0.6364 -0.2842 -0.3278
 2303W        W 3167   0.216   7.597   5.645  0.0445  0.0644 -0.1167
 2304W        W 3168   2.541   6.111   7.313  0.0479  0.0374 -0.2347
 2305W        W 3169   2.013   9.067   4.947 -0.0781  0.0551 -0.2208
 2306W        W 3170   0.326   4.619   8.237 -0.1644  0.1464 -0.2302
 2307W        W 3171  12.909   8.084   4.521  0.0945  0.3845  0.2715
 2308W        W 3172   2.839   8.961   5.085  0.4251 -0.0246 -0.0063
 2309W        W 3173   1.220   4.354   3.201 -0.1747 -0.0388  0.0527
 2310W        W 3174   1.068   3.678   4.604  0.2679  0.0372  0.2601
 2311W        W 3175   0.133   3.744   3.510  0.1009  0.0981 -0.3862
 2312W        W 3176   3.455   4.844   8.312 -0.1299  0.1738  0.0513
 2313W        W 3177   3.818   6.718   4.160  0.0589  0.2641 -0.1633
 2314W        W 3178  12.456   3.801   1.276 -0.1542  0.0594  0.2087
 2315W        W 3179   0.428   6.954   3.692 -0.1265  0.3190  0.0451
 2316W        W 3180   0.958   4.345   5.195 -0.1065 -0.0004 -0.1335
 2317W        W 3181   0.486   6.459   6.284 -0.1616  0.2122 -0.1817
 2318W        W 3182   1.477   6.709   2.529 -0.2172 -0.5837  0.1958
 2319W        W 3183   0.232   3.361   6.584  0.0218 -0.0930  0.2356
 2320W        W 3184   0.593   3.430   5.837 -0.1709  0.0046 -0.1891
 2321W        W 3185   1.341   5.296   7.471 -0.2183 -0.1005 -0.0882
 2322W        W 3186   1.731   5.150   4.117  0.3955 -0.1763 -0.1521
 2323W        W 3187   2.741   7.121   2.613 -0.0620  0.0020 -0.2035
 2324W        W 3188   0.431   3.843   6.463 -0.1848  0.0173  0.0158
 2325W        W 3189   1.239   2.900   5.681 -0.2004  0.1504  0.1096
 2326W        W 3190   5.440   3.265   3.878 -0.3084 -0.2623 -0.0096
 2327W        W 3191   0.768   4.809   2.892 -0.0988 -0.0553 -0.0986
 2328W        W 3192   4.083   2.088   5.735  0.0104 -0.1758 -0.0963
 2329W        W 3193   6.198   5.805   5.154  0.0510  0.0366  0.1060
 2330W        W 3194  13.570   6.128   5.727  0.0368  0.0278 -0.2586
 2331W        W 3195   2.934   1.831   7.194 -0.5459  0.1846 -0.1736
 2332W        W 3196   0.939   5.193   3.714  0.2111 -0.0274 -0.1090
 2333W        W 3197  12.810   5.303   5.813 -0.2445  0.1268 -0.2159
 2334W        W 3198   2.326   5.646   7.435  0.0335 -0.3050 -0.1506
 2335W        W 3199   3.237   5.554   3.892  0.0287  0.1284  0.1546
 2336W        W 3200   0.790   7.063   5.085 -0.3508  0.3011  0.0754
 2337W        W 3201   1.417   4.941   3.712 -0.0260 -0.0717 -0.0797
 2338W        W 3202  11.466   6.293   6.690  0.2214  0.1050 -0.1667
 2339W        W 3203   1.987   4.182   5.031 -0.0701 -0.1575  0.0948
 2340W        W 3204   1.961   3.620   4.947 -0.2812  0.3230 -0.0861
 2341W        W 3205   4.030   8.184   9.150 -0.1677 -0.1288 -0.2491
 2342W        W 3206   1.054   6.104   4.204 -0.2160  0.1933  0.0715
 2343W        W 3207   3.263   7.062   2.706  0.1151  0.0311 -0.0875
 2344W        W 3208   1.284   6.358   1.703  0.2057  0.2467 -0.1976
 2345W        W 3209   2.576   6.011   8.369  0.0304  0.2406  0.0036
 2346W        W 3210  12.637   6.433   6.856 -0.1929 -0.3874 -0.1177
 2347W        W 3211   3.313   1.011   4.016 -0.4454  0.1345  0.2583
 2348W        W 3212   2.992   5.165   2.688  0.1694 -0.0449  0.0795
 2349W        W 3213   1.977   7.735   7.845  0.0414 -0.1834 -0.3639
 2350W        W 3214  12.479   4.145   2.955  0.1429 -0.1138  0.3923
 2351W        W 3215   3.234   9.989   1.200 -0.0477 -0.1545 -0.0941
 2352W        W 3216   2.966   5.787   6.735  0.2847 -0.2543 -0.2265
 2353W        W 3217   0.562   6.037   4.022  0.0220 -0.0229 -0.1165
 2354W        W 3218   3.763   4.332   4.975 -0.0735 -0.0640 -0.1432
 2355W        W 3219   1.518   6.990   3.039 -0.0106  0.3225  0.0535
 2356W        W 3220   4.447   4.373   6.007  0.0079  0.0447 -0.1920
 2357W        W 3221   1.044   1.491   6.655  0.0444  0.0200  0.0895
 2358W        W 3222  13.434   5.397   6.183 -0.2631  0.1358  0.1054
 2359W        W 3223   2.213   6.026   4.319  0.0323 -0.2623 -0.2236
 2360W        W 3224   2.002   3.443   5.617  0.1848  0.0568 -0.0726
 2361W        W 3225   3.297   4.447   5.343 -0.0630 -0.1952  0.2045
 2362W        W 3226   3.213   6.956   8.408  0.1214  0.2508  0.2401
 2363W        W 3227   2.853   5.486   4.671  0.2463  0.1050 -0.2642
 2364W        W 3228   1.528   1.855   7.380 -0.1115 -0.2753 -0.0498
 2365W        W 3229   0.502   6.557   7.812  0.1459 -0.2037 -0.0496
 2366W        W 3230   2.547   5.569   5.637  0.2699 -0.0736 -0.0004
 2367W        W 3231   1.933   6.330   5.854  0.2701  0.1500 -0.1880
 2368W        W 3232   0.872   5.781   6.554 -0.0951 -0.2227  0.2311
 2369W        W 3233  13.862   4.894   7.764  0.2217  0.2030  0.0957
 2370W        W 3234  13.820   3.446   2.873 -0.2069  0.2798 -0.1246
 2371W        W 3235   2.765   5.164   5.741  0.1056 -0.0196 -0.0757
 2372W        W 3236   1.234   5.911   2.883 -0.2645  0.0562  0.1029
 2373W        W 3237   1.757   6.208   7.317  0.2865  0.3193  0.2854
 2374W        W 3238   0.280   5.000   5.673 -0.1915 -0.0540  0.0497
 2375W        W 3239   4.940   4.983   4.348 -0.0061  0.2925 -0.3454
 2376W        W 3240   2.177   2.287   6.721 -0.0960 -0.2710  0.2344
 2377W        W 3241   1.148   4.477   6.393 -0.0378 -0.1389 -0.0081
 2378W        W 3242   3.939   8.906   5.337  0.0203  0.0613  0.0259
 2379W        W 3243   2.897   3.967   7.133 -0.2879  0.0579 -0.0723
 2380W        W 3244   5.189   4.946   5.069 -0.1668  0.0544  0.0949
 2381W        W 3245   0.933   5.441   2.153 -0.3203  0.0600 -0.2781
 2382W        W 3246   1.030   6.801   5.638  0.4595 -0.0971 -0.0117
 2383W        W 3247   2.908   5.321   0.726 -0.1104  0.2645  0.1423
 2384W        W 3248   0.622   5.007   8.442  0.3197 -0.1881 -0.0037
 2385W        W 3249   3.976  11.509   4.789  0.2110 -0.2056 -0.0925
 2386W        W 3250   3.591   2.204   4.572  0.1266 -0.1405  0.2323
 2387W        W 3251   1.197   6.125   6.546  0.0191  0.1617 -0.0905
 2388W        W 3252   2.534   3.415   6.705  0.1491  0.0992 -0.2444
 2389W        W 3253   2.158   7.789   5.662  0.0588  0.0440 -0.0777
 2390W        W 3254  13.936   6.428   5.345 -0.2184  0.2762  0.3382
 2391W        W 3255   4.020   6.784   5.130  0.1575  0.1258 -0.1959
 2392W        W 3256   1.776   6.753   7.585  0.0427 -0.3499 -0.3325
 2393W        W 3257   2.154   7.323   5.504 -0.0141 -0.1910  0.2382
 2394W        W 3258   3.529   6.998   4.903 -0.0905  0.3166  0.1027
 2395W        W 3259   0.786   4.221   6.680  0.2538  0.1604 -0.5436
 2396W        W 3260   3.236   3.570   3.868 -0.4739 -0.0039  0.3257
 2397W        W 3261  13.642   4.908   4.277  0.3040 -0.1064 -0.0503
 2398W        W 3262   1.258   4.380   7.846  0.1662 -0.0698  0.1690
 2399W        W 3263   3.406   5.071   7.811 -0.0109 -0.0732 -0.0301
 2400W        W 3264   0.068   5.887   3.098 -0.3429  0.0107  0.0070
 2401W        W 3265   3.060   7.546   6.736  0.0860  0.0181  0.4058
 2402W        W 3266   3.371   4.756   4.998 -0.0828  0.1165  0.0777
 2403W        W 3267  13.256   5.239   8.255  0.0136  0.0562 -0.1202
 2404W        W 3268   0.219   3.966   5.204 -0.0685 -0.0631  0.0675
 2405W        W 3269   0.906   3.925   3.130 -0.1791 -0.2124  0.0080
 2406W        W 3270  11.827   4.310   7.676 -0.1233 -0.0272  0.2532
 2407W        W 3271   1.233   6.259   5.605  0.0710 -0.1507 -0.1398
 2408W        W 3272   2.136   4.700   3.071  0.1463 -0.3435  0.1122
 2409W        W 3273   2.554   7.969   5.318  0.0691 -0.0032 -0.1803
 2410W        W 3274   1.138   5.544   5.279  0.0648 -0.0927 -0.4115
 2411W        W 3275   2.714   6.085   5.562 -0.0771 -0.0855  0.1607
 2412W        W 3276   2.845   2.708   5.618 -0.0013 -0.1130  0.2002
 2413W        W 3277   2.614   5.926   6.408 -0.0745 -0.1322  0.2783
 2414W        W 3278   1.398   2.413   5.591  0.1300 -0.2374  0.1015
 2415W        W 3279   3.022   3.001   5.048 -0.0733  0.0287 -0.0595
 2416W        W 3280   3.283   7.528   4.113  0.3472 -0.1024  0.0146
 2417W        W 3281   1.986   7.229   6.406 -0.0372  0.1643  0.2502
 2418W        W 3282   2.841   3.964   3.982  0.1353  0.0339 -0.0751
 2419W        W 3283   4.130   4.550   4.353  0.1122 -0.0735 -0.0507
 2420W        W 3284   0.306   8.141   3.207  0.1951  0.4063 -0.0464
 2421W        W 3285   2.992   6.893   6.059 -0.0891  0.3009  0.0501
 2422W        W 3286   4.246   4.910   2.672  0.2736 -0.0556  0.0878
 2423W        W 3287   0.434   5.484   8.686 -0.2751 -0.0168 -0.2231
 2424W        W 3288   3.602   5.833   4.044 -0.1490  0.1584  0.4433
 2425W        W 3289   3.535   4.069   3.140  0.0800 -0.0226 -0.2059
 2426W        W 3290   1.633   5.870   6.650  0.0619 -0.2304  0.2697
 2427W        W 3291   0.002   7.854   3.699  0.1358  0.1000 -0.2033
 2428W        W 3292   1.193   3.852   5.086 -0.0116 -0.2299  0.0307
 2429W        W 3293   2.272   4.585   8.504 -0.0164 -0.0908  0.0316
 2430W        W 3294   4.273   6.387   3.681  0.1360  0.1156 -0.0586
 2431W        W 3295   0.940   5.825   2.461 -0.2001  0.1347 -0.3886
 2432W        W 3296   2.474   8.949   5.724  0.0867 -0.2165 -0.1087
 2433W        W 3297   2.716   4.067   8.368 -0.0829  0.0396 -0.1416
 2434W        W 3298   2.746   6.822   4.166  0.3331 -0.1622  0.0128
 2435W        W 3299   2.159   3.354   4.506  0.2295 -0.0802 -0.2240
 2436W        W 3300   2.145   6.297   6.342  0.0448  0.0061  0.0067
 2437W        W 3301   2.158   5.422   4.929 -0.0501  0.1535 -0.1537
 2438W        W 3302  13.834   4.629   8.278  0.2640 -0.1012 -0.3240
 2439W        W 3303   0.960   6.318   5.024  0.0702 -0.2219 -0.1696
 2440W        W 3304   0.889   6.449   7.354 -0.0207  0.0454 -0.0847
 2441W        W 3305   0.726   6.384   5.705 -0.1996 -0.0872  0.1115
 2442W        W 3306   1.986   8.161   8.231 -0.0376 -0.0051  0.0771
 2443W        W 3307   1.061   4.669   3.926  0.4983  0.0639 -0.0614
 2444W        W 3308   3.396   3.707   2.519 -0.0417  0.3039 -0.1395
 2445W        W 3309   1.802   5.861   6.149 -0.2755  0.1555 -0.1804
 2446W        W 3310   4.763   8.847   1.780 -0.1508 -0.2167 -0.1042
 2447W        W 3311   0.230   6.092   7.728 -0.2382  0.2785 -0.0803
 2448W        W 3312   3.289   8.668   1.760 -0.1880  0.0349  0.0217
 2449W        W 3313   1.101   5.299   7.028  0.2790  0.1264  0.2946
 2450W        W 3314   2.647   6.299   2.805 -0.1549  0.0552 -0.1126
 2451W        W 3315  13.794   4.837   2.959  0.0544 -0.0522  0.2853
 2452W        W 3316   2.213   6.826   5.457  0.1675  0.1695  0.0313
 2453W        W 3317   1.302   3.177   4.377  0.2679  0.3296 -0.0406
 2454W        W 3318  13.653   5.785   3.380  0.1282  0.3331  0.0300
 2455W        W 3319   0.499   5.640   3.584  0.2576 -0.2192  0.0115
 2456W        W 3320  13.955   7.289   5.170  0.3633 -0.1587 -0.0544
 2457W        W 3321   1.311   5.500   9.385  0.3367  0.0111 -0.1215
 2458W        W 3322   3.980   4.124   4.548 -0.0090 -0.0043 -0.0735
 2459W        W 3323   1.873   4.922   5.525 -0.1123 -0.1113  0.3973
 2460W        W 3324   1.627   5.774   8.135 -0.1376 -0.0053  0.3826
 2461W        W 3325   2.007   5.893   7.036 -0.0888 -0.0036 -0.1472
 2462W        W 3326   3.522   6.217   5.589  0.3259 -0.1373 -0.3185
 2463W        W 3327   2.591   7.463   5.259 -0.2311 -0.2148  0.2446
 2464W        W 3328   2.259   6.326   1.512  0.0949 -0.1698  0.0517
 2465W        W 3329   1.342   3.721   4.199 -0.0296 -0.2965 -0.0054
 2466W        W 3330   4.949   4.192   4.741  0.0476 -0.2106  0.0899
 2467W        W 3331   1.844   3.648   3.924 -0.3661 -0.1795  0.1456
 2468W        W 3332   3.897   5.422   8.850 -0.2394  0.3509  0.0168
 2469W        W 3333   1.907   4.847   6.078 -0.1845 -0.1744  0.0055
 2470W        W 3334  13.196   6.184   3.920  0.2367 -0.3761  0.2823
 2471W        W 3335   1.126   3.052   3.078 -0.0639 -0.1318 -0.3886
 2472W        W 3336   1.122   4.819   3.350  0.0853  0.2171 -0.0089
 2473W        W 3337  12.484   3.926   2.489 -0.1453 -0.0433 -0.0245
 2474W        W 3338  13.981   4.581   6.864 -0.1220  0.3439  0.3695
 2475W        W 3339   1.097   5.554   4.285  0.2301  0.2220  0.3209
 2476W        W 3340   1.511   3.328   3.934 -0.1154  0.0813  0.0524
 2477W        W 3341   3.221   1.725   6.314  0.0119  0.1994 -0.1739
 2478W        W 3342   3.743   5.820   2.420 -0.2332  0.2311 -0.1197
 2479W        W 3343   3.694   7.210   6.280  0.0360  0.0514 -0.1664
 2480W        W 3344   3.072   4.393   4.273  0.2909 -0.4382 -0.1099
 2481W        W 3345   1.536   8.612   1.206  0.0255  0.1223  0.3064
 2482W        W 3346   1.089   5.307   0.355 -0.2713 -0.2191 -0.1355
 2483W        W 3347   1.558   6.361   4.862  0.0440 -0.0364 -0.0980
 2484W        W 3348   2.698   5.096   8.635 -0.0001  0.2833  0.0238
 2485W        W 3349   0.296   5.149   7.605  0.2055  0.0725  0.1443
 2486W        W 3350  13.631   6.222   3.624 -0.2333 -0.1237 -0.1056
 2487W        W 3351  13.704   4.565   3.407  0.0374 -0.0785 -0.1388
 2488W        W 3352   3.681   5.591   3.474 -0.0220  0.2638  0.0762
 2489W        W 3353   1.812   4.999   6.824 -0.3227 -0.0486 -0.3959
 2490W        W 3354   1.552   2.743   6.783  0.1503  0.2473  0.2523
 2491W        W 3355   1.773   6.690   7.117  0.2562 -0.3503  0.4525
 2492W        W 3356   2.026   5.502   8.576 -0.2457 -0.0622 -0.0241
 2493W        W 3357   2.609   6.677   7.446 -0.2512  0.1884 -0.0787
 2494W        W 3358   4.125   5.093   4.189  0.0861  0.0567  0.1739
 2495W        W 3359   2.441   3.088   4.835  0.0119 -0.0773 -0.2613
 2496W        W 3360   4.005   3.200   3.367  0.0833  0.1817 -0.0287
 2497W        W 3361   0.597   4.890   3.345 -0.0577  0.2112 -0.0356
 2498W        W 3362   3.400   3.357   4.350  0.1425 -0.0981  0.1879
 2499W        W 3363   2.967   8.513   3.496  0.0009  0.2068  0.1427
 2500W        W 3364   2.822   5.620   7.373  0.1851  0.2306  0.3346
 2501W        W 3365   1.877   7.268   3.293 -0.0318  0.0702 -0.1195
 2502W        W 3366  13.510   5.529   7.088 -0.0986  0.3508  0.1777
 2503W        W 3367   1.015   4.797   5.454 -0.0740 -0.3701 -0.0207
 2504W        W 3368   3.863   8.821   4.805 -0.0855  0.0740 -0.1810
 2505W        W 3369   3.879   4.364   7.268 -0.0601 -0.0712  0.0370
 2506W        W 3370   2.364   4.535   5.247  0.0037  0.1250 -0.2771
 2507W        W 3371   2.033   4.961   8.032 -0.1376  0.0949  0.1689
 2508W        W 3372   0.558   5.480   4.493 -0.1450  0.2116  0.1075
 2509W        W 3373   2.535   4.784   7.132 -0.2355  0.2519 -0.0692
 2510W        W 3374   5.416   5.014   5.476 -0.0965  0.0252  0.0376
 2511W        W 3375   4.800   9.792   6.746 -0.0547 -0.2447 -0.2635
 2512W        W 3376   0.195   5.000   6.573  0.2279 -0.2469 -0.4893
 2513W        W 3377   2.648   4.840   3.810  0.1043  0.5566 -0.1081
 2514W        W 3378   3.922   6.621   7.652 -0.1157  0.0253  0.1089
 2515W        W 3379   1.508   5.384   6.668  0.3172  0.3143 -0.0372
 2516W        W 3380   4.266   5.054   3.716 -0.3361  0.2653  0.0686
 2517W        W 3381   2.723   6.793   8.251 -0.1068  0.0950  0.1782
 2518W        W 3382   0.845   8.857   5.207  0.0587  0.2106  0.0381
 2519W        W 3383   1.389   4.468   3.638  0.0828  0.1947 -0.0249
 2520W        W 3384   3.261   6.101   9.030  0.3524  0.2271 -0.0782
 2521W        W 3385   3.084   7.410   6.102  0.1617  0.2069  0.2792
 2522W        W 3386   0.889   5.003   8.863  0.1558 -0.0716  0.1967
 2523W        W 3387   1.439   6.710   4.495 -0.0467 -0.2488  0.0815
 2524W        W 3388   2.090   5.419   6.722  0.1388 -0.0011 -0.0649
 2525W        W 3389  13.755   8.456   5.366  0.2159 -0.2406 -0.2593
 2526W        W 3390   1.712   4.740   1.980 -0.0027  0.2809 -0.1201
 2527W        W 3391   2.297   7.774  10.239  0.0547 -0.0413 -0.0072
 2528W        W 3392   9.954   7.124  10.598 -0.1453  0.0267 -0.2646
 2529W        W 3393   4.805   4.346   7.942  0.1810  0.2060  0.2335
 2530W        W 3394   3.785   3.753  10.450 -0.2679  0.0930 -0.1268
 2531W        W 3395   0.047   8.039   5.461 -0.0702  0.1011 -0.0677
 2532W        W 3396  12.716   6.056   8.990  0.1550 -0.1133 -0.0652
 2533W        W 3397   2.394   3.991  10.814 -0.0290  0.1953 -0.2353
 2534W        W 3398   0.611   5.103   7.051 -0.1137 -0.1499 -0.0551
 2535W        W 3399   1.056  10.040   8.819 -0.0422 -0.0571 -0.0842
 2536W        W 3400   0.066   4.478   9.742 -0.2152  0.0018 -0.0067
 2537W        W 3401   1.543   5.770  11.086 -0.0726 -0.0853 -0.0575
 2538W        W 3402   1.075   3.239  11.661  0.0466 -0.0719  0.0120
 2539W        W 3403   1.375   4.443   8.436  0.1107 -0.0336  0.0546
 2540W        W 3404   5.114   5.978   8.453 -0.0220 -0.0504 -0.2032
 2541W        W 3405  13.429   5.396  10.732 -0.1370 -0.0120 -0.3500
 2542W        W 3406  12.853   8.449  11.827 -0.1536  0.0869 -0.0892
 2543W        W 3407   2.654   7.968   9.169 -0.4475  0.2165  0.1105
 2544W        W 3408  13.628   7.543  11.131 -0.1469 -0.0326  0.0658
 2545W        W 3409   1.629   6.616   9.357 -0.1475 -0.1773  0.0860
 2546W        W 3410   4.228   5.971   9.988  0.0603  0.1711  0.3960
 2547W        W 3411   4.940   4.542  11.232  0.1062 -0.1089 -0.0525
 2548W        W 3412   0.025   6.636   9.256  0.0236  0.0209  0.0869
 2549W        W 3413   3.405   6.501   9.252  0.0567  0.1245 -0.3916
 2550W        W 3414   1.868   6.458   8.384 -0.3305 -0.0834  0.0654
 2551W        W 3415  10.168   5.655  10.275 -0.0109 -0.0900  0.0241
 2552W        W 3416   1.916   6.720   9.818  0.1058 -0.3881 -0.2788
 2553W        W 3417  13.975   3.186  11.283 -0.1165  0.0416 -0.0124
 2554W        W 3418  12.762   4.217   7.788 -0.2142 -0.0862  0.0293
 2555W        W 3419   1.657   6.096   9.189  0.2251  0.0719  0.0370
 2556W        W 3420   1.789   7.370   6.850  0.0170  0.0079  0.2202
 2557W        W 3421  13.732   6.847   8.317  0.1479  0.0046  0.0107
 2558W        W 3422   4.468   6.016  10.483  0.0388  0.1330  0.1083
 2559W        W 3423   2.340   4.191  10.349 -0.1630 -0.2133 -0.1176
 2560W        W 3424   1.446   4.516  10.419  0.1422  0.3220 -0.0175
 2561W        W 3425   1.009   5.535  10.373  0.0119  0.2292 -0.0205
 2562W        W 3426   3.411   6.640   8.759  0.2959  0.1184 -0.0082
 2563W        W 3427   2.114   6.523  10.261 -0.1720 -0.0961  0.0205
 2564W        W 3428   1.244   7.112   8.270  0.0514 -0.1744 -0.0570
 2565W        W 3429   4.154   5.754   8.046 -0.1052 -0.2832 -0.0921
 2566W        W 3430   0.888   5.542   6.017 -0.2290 -0.3661 -0.0598
 2567W        W 3431   2.853   3.829   6.613  0.0585 -0.0016  0.0111
 2568W        W 3432   3.507   2.657   9.330 -0.1319 -0.0725  0.3809
 2569W        W 3433  13.680   8.230  10.104 -0.1937 -0.3177 -0.0822
 2570W        W 3434   4.164   3.582   5.612  0.1734  0.0158  0.1517
 2571W        W 3435  13.000   4.449   9.241  0.0767 -0.0992  0.0216
 2572W        W 3436   0.375   6.811   6.835 -0.1931  0.1742 -0.1958
 2573W        W 3437   0.378   6.191  10.321 -0.1148  0.4656 -0.1515
 2574W        W 3438   1.409   3.877  12.376  0.0256  0.0477 -0.0456
 2575W        W 3439   4.216   5.642   7.533  0.1399  0.0240  0.1114
 2576W        W 3440   0.630   5.846  10.097  0.2365  0.1407  0.0204
 2577W        W 3441   4.342   4.311   8.089  0.1245 -0.0575 -0.3531
 2578W        W 3442   2.753   5.035  10.313  0.1482  0.0921  0.0731
 2579W        W 3443   3.816   7.498  11.099 -0.1105  0.0711 -0.0221
 2580W        W 3444   1.311   6.951   9.538 -0.0735  0.0430  0.0737
 2581W        W 3445   2.890   3.612   8.598  0.1958  0.1169 -0.2103
 2582W        W 3446   0.482  10.387   9.458 -0.0244 -0.2236 -0.0987
 2583W        W 3447  12.945   4.675   7.703 -0.0095 -0.1600 -0.1683
 2584W        W 3448   0.659   4.052   8.971  0.0966  0.0431  0.3587
 2585W        W 3449  13.718   7.237  10.554  0.2416  0.2381 -0.0068
 2586W        W 3450   1.382   6.837   8.952  0.1657 -0.0570 -0.1493
 2587W        W 3451   5.987   4.352   6.295 -0.0217 -0.0295 -0.1452
 2588W        W 3452  13.107   7.788   9.587 -0.1300  0.0570 -0.0503
 2589W        W 3453   0.449   8.624   9.074 -0.1546  0.0040  0.0215
 2590W        W 3454   1.345   5.500   6.121 -0.1888 -0.1897  0.0316
 2591W        W 3455   0.900   5.938  11.091 -0.0472  0.1014 -0.0688
 2592W        W 3456   3.011   1.404   6.702 -0.3545  0.3168  0.2351
 2593W        W 3457   1.353   5.275   8.932 -0.1424  0.1852  0.2836
 2594W        W 3458   0.550   4.744   7.397  0.0434 -0.1920 -0.0919
 2595W        W 3459   2.608   6.449   6.366 -0.1250  0.1536 -0.0559
 2596W        W 3460  12.506   6.406   8.681 -0.2081  0.2406 -0.1242
 2597W        W 3461   1.606   5.088   9.361 -0.0518 -0.1310  0.1239
 2598W        W 3462   0.658   7.959  10.563  0.2650 -0.0208  0.2739
 2599W        W 3463   1.904   3.668   8.808  0.0036 -0.0822  0.1140
 2600W        W 3464   3.984   6.737   6.441 -0.1561 -0.0606  0.1592
 2601W        W 3465   1.335   5.875  10.639  0.3442  0.0417  0.2073
 2602W        W 3466  11.894   2.669   8.413 -0.1034  0.3815 -0.4693
 2603W        W 3467   0.419   6.936   9.424 -0.1674 -0.0133 -0.1431
 2604W        W 3468  12.525   5.382  10.813 -0.3430  0.0069  0.0079
 2605W        W 3469  13.537   7.845  11.574 -0.1199 -0.2282 -0.3163
 2606W        W 3470  13.305   4.108  12.066  0.1897  0.2178 -0.0307
 2607W        W 3471  12.837   4.468   8.334 -0.3153 -0.3838 -0.0824
 2608W        W 3472   2.524   4.105  11.789  0.0287 -0.0199  0.1005
 2609W        W 3473   1.970   5.862   9.447 -0.1972  0.1113  0.1079
 2610W        W 3474  12.634   7.204   8.368  0.2477 -0.1350 -0.0687
 2611W        W 3475   3.538   5.077  11.107 -0.0840  0.1306  0.0941
 2612W        W 3476   4.633   6.011   8.321 -0.0264  0.1559  0.1027
 2613W        W 3477   2.722   9.211   8.942 -0.0156  0.1041  0.1231
 2614W        W 3478   4.222   5.214   9.634  0.3430  0.0070 -0.4136
 2615W        W 3479   2.606   5.651   8.846  0.0410  0.0001  0.1766
 2616W        W 3480   3.043   8.121  10.590  0.0345  0.0885  0.0125
 2617W        W 3481   2.892   6.483   8.642 -0.0570  0.1373  0.0235
 2618W        W 3482   0.574   6.833   8.798  0.1124 -0.0749 -0.1123
 2619W        W 3483  12.935   4.034  11.754  0.0440 -0.0212  0.1742
 2620W        W 3484   3.399   2.275   8.726 -0.1012 -0.0007  0.0890
 2621W        W 3485   5.139   4.646   6.458 -0.1664  0.0001  0.0048
 2622W        W 3486   2.048   9.379   9.833 -0.1493  0.1829 -0.0372
 2623W        W 3487   0.427   1.908   8.497  0.1688 -0.0775  0.0970
 2624W        W 3488   1.380   6.157   8.345  0.0810  0.2582  0.0181
 2625W        W 3489   3.555   7.672   7.564  0.0997  0.0636 -0.1529
 2626W        W 3490   0.180   5.669  10.139 -0.2411 -0.0669 -0.0372
 2627W        W 3491   2.296   4.725   7.637  0.3879 -0.0286  0.1095
 2628W        W 3492   2.644   7.046   9.273 -0.1589  0.0025  0.0546
 2629W        W 3493   3.080   5.711   9.758  0.0708 -0.3247  0.0374
 2630W        W 3494  13.315   4.974   9.328 -0.1108  0.0748  0.1994
 2631W        W 3495   1.646   7.232   7.341 -0.2030 -0.1123 -0.1044
 2632W        W 3496   2.590  10.074   9.586  0.0397  0.1360  0.0207
 2633W        W 3497  13.127   0.950   8.839 -0.1493  0.0559  0.2529
 2634W        W 3498  11.926   6.293   7.357 -0.1441  0.1382  0.1573
 2635W        W 3499  12.969   5.457   8.702  0.0928 -0.2034 -0.2870
 2636W        W 3500   1.574   7.378   8.523  0.2683  0.0443 -0.2235
 2637W        W 3501   3.708   4.520  11.220 -0.1565  0.0014  0.0050
 2638W        W 3502   3.180   6.503   8.117 -0.0816 -0.2054 -0.1289
 2639W        W 3503   4.738   3.968   7.400  0.1819 -0.1364 -0.0751
 2640W        W 3504   2.068   6.723   6.732  0.0724  0.0891 -0.0574
 2641W        W 3505   2.820   3.713  10.740  0.1919 -0.1752  0.1095
 2642W        W 3506   1.923   5.848  10.040  0.2159 -0.2333 -0.1048
 2643W        W 3507  12.815   5.114   9.857 -0.0323  0.0081  0.2364
 2644W        W 3508   1.278   4.931   6.703 -0.1304 -0.0537 -0.2549
 2645W        W 3509   2.146   4.278   7.616  0.3772 -0.0034 -0.0343
 2646W        W 3510   3.056   7.480   8.489  0.1900  0.1547 -0.2572
 2647W        W 3511   0.057   6.280   8.196  0.2099 -0.1059 -0.1593
 2648W        W 3512   4.779   5.640   7.771 -0.2000 -0.0707  0.1093
 2649W        W 3513  13.929   5.874   5.438 -0.0434  0.1431  0.0647
 2650W        W 3514   2.141   5.873   6.569  0.1265 -0.0241 -0.2844
 2651W        W 3515  11.655   4.585   8.582  0.0662 -0.0912  0.1407
 2652W        W 3516   4.873   4.801  10.715 -0.0416  0.0005 -0.0298
 2653W        W 3517   2.326   5.299   8.973  0.4353 -0.1898  0.0566
 2654W        W 3518  12.844   4.261   7.268 -0.2047  0.1688  0.1781
 2655W        W 3519   1.296   7.807  10.683 -0.3719 -0.0655 -0.0638
 2656W        W 3520   4.219   5.652   9.131 -0.3341  0.3867 -0.1688
 2657W        W 3521   4.250   3.961  10.571  0.0615  0.1034 -0.0108
 2658W        W 3522   2.319   5.578   6.126  0.2208  0.2371 -0.0690
 2659W        W 3523   3.172   3.858  10.384 -0.0654 -0.2413 -0.0082
 2660W        W 3524  11.554   6.236   9.296  0.0063  0.2905 -0.0908
 2661W        W 3525   4.640   3.205   8.618  0.1430 -0.0744 -0.1859
 2662W        W 3526   1.086   3.964  11.501 -0.0082  0.0221 -0.2442
 2663W        W 3527   0.961   5.722   7.230  0.0613 -0.1065 -0.0311
 2664W        W 3528   1.672   8.279   6.661  0.1732  0.0097 -0.1724
 2665W        W 3529   0.537   5.390   6.577 -0.2986 -0.1377  0.1206
 2666W        W 3530  13.828   5.103  10.857 -0.0813 -0.2062 -0.0244
 2667W        W 3531   4.309   6.106   9.160  0.3377  0.3424  0.0198
 2668W        W 3532  13.049   6.281   6.071 -0.1966 -0.2960  0.1418
 2669W        W 3533   0.367   8.578   9.883  0.3051 -0.1140 -0.2274
 2670W        W 3534   2.790   4.594   9.568 -0.2851 -0.0579 -0.0048
 2671W        W 3535   0.677   1.178   6.553 -0.0547 -0.1257  0.2220
 2672W        W 3536   0.396   5.064   8.969  0.0577 -0.2120 -0.1178
 2673W        W 3537   0.577   5.660   7.687  0.0403 -0.1605 -0.2002
 2674W        W 3538   1.489   5.903  12.669 -0.1529  0.0181  0.0700
 2675W        W 3539   4.339   4.704   9.484 -0.1018  0.1588  0.1194
 2676W        W 3540  13.799   2.540   7.483 -0.0533  0.2125 -0.0120
 2677W        W 3541   1.995   8.344  10.318  0.0864  0.2201 -0.2251
 2678W        W 3542   1.342   4.978   8.531 -0.1086  0.1051 -0.0031
 2679W        W 3543   0.280   2.468   9.383  0.0337 -0.3448  0.0601
 2680W        W 3544   3.638   2.833   6.989 -0.0586 -0.0844 -0.1600
 2681W        W 3545   1.698   9.033   8.635 -0.0587 -0.0253  0.0504
 2682W        W 3546   0.573   6.548   8.380 -0.1997 -0.0858  0.2014
 2683W        W 3547  12.851   5.711   8.179 -0.0339  0.1993 -0.1078
 2684W        W 3548   1.260   5.979  11.537  0.2970 -0.3608  0.2860
 2685W        W 3549   2.366   2.346  10.054 -0.2440  0.0419  0.1397
 2686W        W 3550  13.136   6.903   9.065  0.0963  0.1548  0.3946
 2687W        W 3551   1.724   5.615   9.035  0.3939 -0.0880 -0.1709
 2688W        W 3552   3.179   7.647  10.482  0.3215 -0.0327  0.1907
 2689W        W 3553   1.703   4.708   9.593  0.1006 -0.0923 -0.2578
 2690W        W 3554  12.817   4.462  12.124  0.0809  0.1400 -0.1206
 2691W        W 3555  11.474   5.192   8.803 -0.2326  0.1261  0.3832
 2692W        W 3556  14.011   6.551   7.782  0.1143 -0.0098 -0.2306
 2693W        W 3557  13.171   5.446   9.563 -0.0805 -0.3258 -0.1730
 2694W        W 3558  12.703   6.188   7.925 -0.0509 -0.2012 -0.0139
 2695W        W 3559   3.978   4.532   5.803  0.2015 -0.1295  0.3096
 2696W        W 3560   2.661   2.305   9.626  0.0176 -0.1307 -0.0214
 2697W        W 3561  13.758   5.979   7.957  0.0077  0.1369  0.3105
 2698W        W 3562   1.654   7.442   5.516 -0.0476  0.0323  0.0604
 2699W        W 3563   1.647   2.687   9.013 -0.0201  0.1916  0.0287
 2700W        W 3564   4.187   2.539   6.930  0.1434 -0.0344  0.1187
 2701W        W 3565  12.262   5.655  10.349 -0.2016  0.2218 -0.2004
 2702W        W 3566   2.419   6.935  10.143 -0.0766  0.0364  0.2031
 2703W        W 3567  12.344   6.495   8.207 -0.0449  0.0404  0.1390
 2704W        W 3568   0.213   3.078  10.388 -0.0233  0.0839  0.0758
 2705W        W 3569  13.322   6.551   8.424  0.2833  0.0927 -0.1151
 2706W        W 3570   1.016   7.975  10.203 -0.3203 -0.2081  0.2916
 2707W        W 3571  13.833   5.044  10.007  0.1144 -0.1204 -0.0847
 2708W        W 3572   1.465   3.569   8.426  0.4570 -0.2369  0.1073
 2709W        W 3573   0.789   3.295   9.567 -0.0088 -0.1442 -0.1193
 2710W        W 3574   1.943   6.922  10.660  0.1924 -0.0619 -0.0972
 2711W        W 3575   3.069   3.102   7.459 -0.1845  0.1635 -0.2643
 2712W        W 3576   0.807   3.406   6.387  0.0873  0.1475 -0.0833
 2713W        W 3577   1.931   8.274   9.630  0.1121 -0.0494  0.0980
 2714W        W 3578   1.473   7.907   8.717  0.1041 -0.2274 -0.0383
 2715W        W 3579  13.891   6.419   4.673 -0.1377  0.0713 -0.0982
 2716W        W 3580   0.273   6.069   6.779  0.0710 -0.2798  0.0587
 2717W        W 3581   1.510   4.544  12.664  0.1088 -0.2736 -0.0273
 2718W        W 3582  13.110   3.099  10.532  0.0989 -0.0852  0.0022
 2719W        W 3583   0.745   5.949  10.572 -0.2578  0.3021 -0.0857
 2720W        W 3584  13.580   2.673   9.960 -0.2040  0.0934 -0.0851
 2721W        W 3585   2.233   2.138   7.705  0.3229  0.0806 -0.2227
 2722W        W 3586  12.656   4.920   9.405  0.3758 -0.2744  0.1245
 2723W        W 3587  12.711   2.859   9.646 -0.0560 -0.0640 -0.1045
 2724W        W 3588   3.906   3.427   7.871  0.0996  0.1520  0.2002
 2725W        W 3589   0.026   4.678   9.005  0.0394  0.0158  0.3381
 2726W        W 3590   1.751   3.792   5.833  0.0684  0.3745  0.0025
 2727W        W 3591   1.815   6.794   6.258 -0.1413  0.2037 -0.0316
 2728W        W 3592  13.362   5.003   9.836 -0.4069 -0.1297  0.0992
 2729W        W 3593   1.253   5.907   8.916  0.2143 -0.1465  0.1432
 2730W        W 3594   0.876   4.599   8.169 -0.2311  0.3014  0.0489
 2731W        W 3595  11.388   4.115   8.533  0.2303  0.3218 -0.1399
 2732W        W 3596   2.175   5.801   8.972 -0.3491 -0.1279  0.0279
 2733W        W 3597   3.012   8.931   8.558 -0.0347 -0.1033  0.0018
 2734W        W 3598   1.063   5.771   8.039  0.1289  0.1329 -0.1261
 2735W        W 3599  12.459   8.472  11.452 -0.0940 -0.1110  0.2119
 2736W        W 3600   0.859   6.543  12.218 -0.2530  0.0878  0.0361
 2737W        W 3601   1.136   7.261  10.904 -0.1628 -0.0214  0.1456
 2738W        W 3602   3.703   1.881  11.417  0.0932  0.2314  0.1120
 2739W        W 3603   5.403   5.172   9.879 -0.0581 -0.0393 -0.1199
 2740W        W 3604   2.642   3.019   7.158 -0.1137 -0.4567 -0.0323
 2741W        W 3605   0.503   6.017   8.267  0.0307  0.0723  0.3043
 2742W        W 3606   0.997   7.199   8.715 -0.4237  0.1640 -0.0700
 2743W        W 3607   4.744   3.213  11.626 -0.1411  0.1085 -0.0695
 2744W        W 3608   2.017   5.353   9.358 -0.0525 -0.1942 -0.1337
 2745W        W 3609   5.191   3.138  10.236  0.1569 -0.0427 -0.1906
 2746W        W 3610   3.791   7.366   7.185  0.0524  0.1114 -0.2452
 2747W        W 3611   2.607   4.605  11.735 -0.0478  0.1393 -0.2491
 2748W        W 3612   2.140   2.580  10.926  0.0625  0.0423  0.0906
 2749W        W 3613   3.667   3.661   7.442 -0.0200 -0.0293 -0.0832
 2750W        W 3614  12.755   6.454  10.506 -0.0769 -0.1603  0.4882
 2751W        W 3615   2.846   8.911  11.064 -0.0732 -0.1230 -0.1673
 2752W        W 3616   4.226   2.547  12.016 -0.1735  0.2677  0.1318
 2753W        W 3617   3.555   7.548   6.652 -0.0889 -0.1681 -0.0863
 2754W        W 3618   1.043   6.077  10.125  0.1725  0.0273  0.2586
 2755W        W 3619  13.942   5.835   9.584  0.1442 -0.0380  0.0191
 2756W        W 3620   1.095   4.834   7.610  0.4096 -0.1352 -0.2059
 2757W        W 3621  11.702   8.661   6.758  0.1125 -0.0086  0.3269
 2758W        W 3622   3.867   4.940   8.597  0.0854  0.0367  0.0373
 2759W        W 3623  13.827   4.625  10.485  0.1034  0.0001  0.0992
 2760W        W 3624  13.982   7.550   9.889  0.0895 -0.1124 -0.0730
 2761W        W 3625   3.233   5.035   9.324 -0.2770  0.1211 -0.4972
 2762W        W 3626   2.566   3.262   9.853 -0.0085  0.2609 -0.0831
 2763W        W 3627   2.120   7.486   9.843  0.0461  0.1100  0.2942
 2764W        W 3628   2.373   6.920   6.361  0.0949  0.2678 -0.0421
 2765W        W 3629   3.179   8.070   7.675  0.1163  0.2389  0.1032
 2766W        W 3630  13.352   4.255  10.938  0.1417 -0.1901  0.2814
 2767W        W 3631   0.643   6.516   9.298 -0.1312  0.0377 -0.0264
 2768W        W 3632   0.487   3.700   9.562  0.0194 -0.3215 -0.0593
 2769W        W 3633   1.058   3.716  10.393 -0.0750  0.0154  0.2304
 2770W        W 3634   2.509   7.023   7.803  0.1581 -0.1136 -0.1378
 2771W        W 3635   2.255   3.071  10.898  0.3709 -0.0155 -0.0422
 2772W        W 3636  12.243   6.703   7.410  0.2134  0.1906 -0.3516
 2773W        W 3637   2.293   7.309   8.205 -0.3134 -0.2336  0.1817
 2774W        W 3638   2.185   4.942  10.338 -0.4354 -0.2777  0.1630
 2775W        W 3639   1.511   6.405   8.761 -0.1641  0.3960  0.1095
 2776W        W 3640   2.914   5.772   9.227 -0.1296 -0.0657 -0.1888
 2777W        W 3641   3.941   5.032   9.946 -0.1822  0.1401  0.1827
 2778W        W 3642   2.026   4.950   7.302  0.0517 -0.0966  0.0123
 2779W        W 3643   2.278   3.144   6.350  0.0519  0.0939 -0.1179
 2780W        W 3644   2.966   5.685   5.359  0.1628 -0.0905  0.0723
 2781W        W 3645   0.168   4.526   7.774 -0.2219  0.0098  0.2144
 2782W        W 3646   1.382   3.393  11.096  0.3715  0.0469 -0.0983
 2783W        W 3647   4.270   7.329   8.873 -0.2535 -0.1633 -0.0012
 2784W        W 3648   2.842   5.395   7.926 -0.0789  0.0694  0.1034
 2785W        W 3649   3.251   3.478   9.910  0.0272  0.3943  0.1064
 2786W        W 3650   0.990   6.815   7.840  0.0900  0.1614  0.1416
 2787W        W 3651   1.447   7.631  11.093 -0.1942  0.0685  0.1685
 2788W        W 3652  12.162   4.907  13.316  0.3564 -0.1987 -0.4148
 2789W        W 3653   1.335   7.321   9.072 -0.2058  0.1715  0.0653
 2790W        W 3654   0.164   6.553  11.938 -0.1907  0.3355  0.2649
 2791W        W 3655   0.250   6.700   5.786  0.1225  0.0262  0.1031
 2792W        W 3656   2.065   6.843   9.233 -0.1357 -0.1043 -0.0833
 2793W        W 3657  12.766   3.218   9.241  0.0544 -0.0846 -0.3751
 2794W        W 3658   3.068   5.933   8.143 -0.1518 -0.0425 -0.1042
 2795W        W 3659   0.788   6.160   6.907  0.2758 -0.1048  0.1186
 2796W        W 3660  13.927   4.200  10.918  0.1825  0.0618  0.0083
 2797W        W 3661   1.098   4.030   8.556 -0.0795  0.0617 -0.1847
 2798W        W 3662   0.332   6.745  10.167 -0.0908 -0.0316  0.1547
 2799W        W 3663   3.804   5.324   9.389 -0.0879  0.1256 -0.0919
 2800W        W 3664   2.564   4.470  10.750 -0.3569 -0.1294 -0.1852
 2801W        W 3665   1.464   7.335  10.471  0.3652  0.0596 -0.2301
 2802W        W 3666  12.158   4.961  10.806 -0.1247 -0.0013  0.3271
 2803W        W 3667  12.998   7.404   8.092 -0.2001 -0.1844  0.2779
 2804W        W 3668  13.535   6.698  11.549  0.0924 -0.0867  0.1991
 2805W        W 3669  12.981   5.633  10.527  0.1079  0.2521 -0.0171
 2806W        W 3670  13.318   4.391   8.227 -0.0510 -0.0400  0.0005
 2807W        W 3671  13.212   6.125   8.844  0.0462 -0.1347 -0.0894
 2808W        W 3672   0.859   8.380  12.879  0.2832 -0.2611  0.2497
 2809W        W 3673  13.990   3.508   9.632  0.0140  0.1234 -0.2697
 2810W        W 3674   4.881   6.125  10.685 -0.2244  0.0177 -0.2008
 2811W        W 3675   1.227   6.411   7.713  0.4162 -0.0019  0.2462
 2812W        W 3676   1.635   6.504  10.552 -0.0479 -0.1432  0.0795
 2813W        W 3677   0.738   3.656   8.636  0.0827  0.1940  0.0270
 2814W        W 3678   3.256   8.240   7.214 -0.0945 -0.4722 -0.2087
 2815W        W 3679  11.646   4.982  10.114 -0.0195  0.1865  0.1781
 2816W        W 3680   2.566   5.867   7.834 -0.1101 -0.0838  0.2313
 2817W        W 3681   3.455   4.566   7.011 -0.1014  0.1193  0.1679
 2818W        W 3682  12.592   4.701   7.347  0.0215  0.2129 -0.0438
 2819W        W 3683  13.703   7.402   7.365  0.3222 -0.0995 -0.4325
 2820W        W 3684   0.830   5.251   7.516 -0.1696  0.1748  0.0314
 2821W        W 3685   0.130   7.000   8.981 -0.2336 -0.1275  0.0024
 2822W        W 3686   4.375   7.746   9.860  0.0544  0.1275  0.0762
 2823W        W 3687   4.359   7.347  11.179  0.1676  0.0934 -0.0265
 2824W        W 3688  12.895   6.123   8.468 -0.2446  0.1250 -0.3096
 2825W        W 3689  11.497   7.433   9.385 -0.1952  0.0106 -0.0347
 2826W        W 3690  12.378   4.543  11.231  0.0312  0.1484  0.2927
 2827W        W 3691   2.907   5.175   9.732 -0.2339  0.2725 -0.1785
 2828W        W 3692   4.077   6.203   8.188  0.3203  0.3208  0.1562
 2829W        W 3693   3.251   7.122   6.481  0.1363  0.0878  0.3753
 2830W        W 3694   0.909   6.956   9.171 -0.1889 -0.1453 -0.1223
 2831W        W 3695   2.254   7.234   8.854 -0.2857  0.1363  0.2136
 2832W        W 3696   0.540   5.338   9.939 -0.0281  0.2388  0.2476
 2833W        W 3697   3.057   6.749   9.527 -0.0985 -0.0122  0.2226
 2834W        W 3698  12.448   6.602  10.016 -0.1290 -0.0457 -0.2917
 2835W        W 3699   2.497  12.911   7.815  0.1020  0.2013 -0.1368
 2836W        W 3700  12.050   6.344   9.176  0.1167 -0.1544  0.0221
 2837W        W 3701   0.121   4.311   8.543 -0.1116  0.0607  0.0225
 2838W        W 3702   3.074   5.668   8.658  0.1067  0.0475 -0.0810
 2839W        W 3703  11.440   5.263   7.915  0.1138  0.1936  0.3044
 2840W        W 3704  13.030   5.064  10.683  0.0452  0.0095 -0.0281
 2841W        W 3705   1.293   4.396   7.338 -0.2081 -0.0043  0.1441
 2842W        W 3706   3.878   2.642   7.395 -0.0631  0.0562 -0.1953
 2843W        W 3707   0.429   4.600  13.403  0.0757  0.0350  0.2653
 2844W        W 3708  13.887   4.505   7.376  0.1793 -0.3914 -0.0781
 2845W        W 3709   0.519   7.773   8.925 -0.0170 -0.0975 -0.2337
 2846W        W 3710   4.917   5.063   7.106 -0.1019 -0.1293 -0.1137
 2847W        W 3711   1.817   6.955   8.731  0.0853  0.0734 -0.2303
 2848W        W 3712   3.246   4.832   8.794  0.0213 -0.1956 -0.2300
 2849W        W 3713  11.737   7.718   9.698 -0.1152  0.0885 -0.0498
 2850W        W 3714   1.384   5.666   8.530  0.1490  0.1237 -0.0178
 2851W        W 3715   0.914   2.983   6.098  0.0420  0.0007 -0.2300
 2852W        W 3716  11.666   3.930   9.328 -0.1338  0.1108  0.1092
 2853W        W 3717   2.974   4.572   8.229  0.1147 -0.0072  0.0348
 2854W        W 3718   0.468   4.654   6.867  0.0601  0.3398 -0.3140
 2855W        W 3719   2.923   2.600   7.446  0.0756 -0.1906 -0.1502
 2856W        W 3720   2.444   6.080   5.970 -0.0109  0.1866 -0.3721
 2857W        W 3721   0.819   5.968  13.503 -0.0209  0.0328  0.1644
 2858W        W 3722   2.687   6.011   9.885  0.0299  0.1993 -0.0005
 2859W        W 3723   3.300   5.188  10.679  0.0432 -0.0134  0.0790
 2860W        W 3724   2.769   7.042   9.785 -0.1000 -0.0330 -0.1399
 2861W        W 3725   3.825   6.696   9.052 -0.0468 -0.0382 -0.0299
 2862W        W 3726   2.148   3.344  10.143  0.2953  0.1289 -0.0348
 2863W        W 3727   0.837   7.868   9.433  0.0586 -0.1501 -0.2225
 2864W        W 3728   3.873   2.232   8.958 -0.2694  0.1517 -0.1679
 2865W        W 3729   0.595   5.492   8.226 -0.0274 -0.1716  0.1284
 2866W        W 3730   0.543   5.166   9.419  0.0485 -0.1442 -0.0137
 2867W        W 3731   1.466   3.776  10.687  0.1850 -0.4239  0.0952
 2868W        W 3732  12.612   7.550   7.402  0.0662  0.2227 -0.0121
 2869W        W 3733  13.753   6.371   9.594 -0.0655  0.0272  0.3264
 2870W        W 3734  13.376   6.394  10.278 -0.1297  0.0980 -0.2941
 2871W        W 3735  13.180   5.177   6.760  0.0590 -0.1351  0.0479
 2872W        W 3736  13.749   4.003  11.832 -0.2015 -0.0880  0.2828
 2873W        W 3737   2.370   5.256   7.744 -0.1722  0.2290 -0.1380
 2874W        W 3738   0.182   3.827   9.185  0.1416  0.0111  0.2465
 2875W        W 3739   1.116   4.191  10.581  0.2959  0.0199 -0.1883
 2876W        W 3740   4.146   2.618   5.849  0.2313  0.1104 -0.2363
 2877W        W 3741   3.611   4.454   8.674 -0.2347 -0.1274  0.1673
 2878W        W 3742   2.508   5.987   9.411  0.1832 -0.1637 -0.2749
 2879W        W 3743   2.249   7.652   6.701 -0.3030 -0.0241  0.0455
 2880W        W 3744   3.229   4.375   7.480  0.2195 -0.1725  0.1227
 2881W        W 3745  12.434   7.806   8.957 -0.2305  0.1276 -0.2867
 2882W        W 3746   1.957   6.059  10.487  0.2604 -0.4120 -0.1262
 2883W        W 3747   1.223   2.795  11.966 -0.2217 -0.0763  0.1151
 2884W        W 3748   0.220   5.442   5.380 -0.2860 -0.1474 -0.1724
 2885W        W 3749   2.066   4.045   9.077 -0.0190  0.1706  0.0733
 2886W        W 3750   1.173   5.182   8.101 -0.2161 -0.0086  0.1715
 2887W        W 3751  13.916   5.194   8.959  0.1469  0.2201  0.0210
 2888W        W 3752   3.636   2.700   8.742 -0.0558  0.1386 -0.0187
 2889W        W 3753   0.284   7.274   8.593 -0.0102  0.0546  0.0448
 2890W        W 3754   2.511   8.335   9.442 -0.0305  0.0384  0.0647
 2891W        W 3755   1.414   4.612   5.746 -0.2165 -0.0679  0.3400
 2892W        W 3756   4.329   9.261   7.128  0.0656  0.2938  0.2669
 2893W        W 3757   1.872   4.338  10.098  0.1816  0.0042 -0.1687
 2894W        W 3758   0.437   2.268   9.844 -0.0475  0.0081  0.2427
 2895W        W 3759   1.795   4.799   8.470 -0.1830  0.1350 -0.2800
 2896W        W 3760   4.028   5.518   5.629  0.2104  0.0413 -0.0557
 2897W        W 3761   3.209   4.129   8.322 -0.0343  0.2338 -0.1323
 2898W        W 3762   3.026   4.752  10.590 -0.1832 -0.2185 -0.0912
 2899W        W 3763   2.550   5.439   8.356  0.0947 -0.2269  0.1211
 2900W        W 3764   2.725   4.914  10.976 -0.1094 -0.1112  0.1322
 2901W        W 3765   0.300   6.632  11.085 -0.2494  0.0918 -0.0234
 2902W        W 3766   3.629   5.006   9.048  0.0954 -0.0537 -0.1544
 2903W        W 3767   1.086   4.964  10.523 -0.1445 -0.2089  0.0362
 2904W        W 3768  10.778   5.751   9.528 -0.0834  0.1285 -0.0748
 2905W        W 3769   2.855   4.762   9.041  0.1059 -0.1482 -0.1282
 2906W        W 3770   0.359   6.367   8.947  0.0632 -0.0460  0.3123
 2907W        W 3771   0.923   4.695   7.003 -0.2856 -0.1554  0.1148
 2908W        W 3772  13.703   4.104   8.238 -0.1400 -0.1656  0.3708
 2909W        W 3773   4.699   6.380  10.052  0.1963 -0.1319 -0.0084
 2910W        W 3774   1.378   4.100   9.678 -0.5107 -0.1580 -0.2055
 2911W        W 3775   2.287   7.174   6.795 -0.1865 -0.0431 -0.1118
 2912W        W 3776   4.128   6.705   9.588 -0.1000 -0.0036  0.0547
 2913W        W 3777  13.704   7.055   9.288 -0.2061 -0.2434  0.0595
 2914W        W 3778   0.088   6.057   8.692 -0.2965  0.1974 -0.2600
 2915W        W 3779   0.309   5.526  13.881 -0.0307  0.1899  0.0690
 2916W        W 3780  11.623   7.872   8.079 -0.0849  0.1712  0.0320
 2917W        W 3781   4.795   5.514   7.276 -0.1608  0.1819  0.1898
 2918W        W 3782   1.990   4.814   9.242  0.0445 -0.0669  0.0018
 2919W        W 3783   0.400   7.674   9.504  0.0512  0.1447 -0.3803
 2920W        W 3784   1.191   6.339  10.572  0.0960  0.1506  0.1068
 2921W        W 3785   1.017   5.840   5.658  0.1258 -0.1733 -0.2625
 2922W        W 3786   0.571   4.877  12.949  0.4706  0.0078  0.0683
 2923W        W 3787   1.535   5.732   7.118  0.2548  0.3294 -0.1008
 2924W        W 3788  13.645   4.986   5.325 -0.2657  0.0594  0.4218
 2925W        W 3789   2.691   6.692  12.603 -0.2715 -0.0965  0.0260
 2926W        W 3790   4.177   5.945   8.662  0.2663 -0.1294  0.1719
 2927W        W 3791   1.910   5.804   0.631 -0.2104  0.2377 -0.0553
 2928W        W 3792   1.785   9.086  13.127 -0.4617  0.1476 -0.0162
 2929W        W 3793   0.879   1.995  13.867 -0.4023 -0.0780 -0.0539
 2930W        W 3794   0.094   5.133  13.570 -0.0768  0.2820  0.1468
 2931W        W 3795   1.102   6.189  11.947 -0.3638  0.0936  0.0943
 2932W        W 3796   0.769   6.130  12.535  0.0011  0.1219 -0.0574
 2933W        W 3797   2.524   6.457  11.606 -0.0890  0.1809  0.0646
 2934W        W 3798   1.202   6.896  10.473 -0.1696 -0.0962  0.1531
 2935W        W 3799   0.773   2.522  11.121  0.3082 -0.1797 -0.5106
 2936W        W 3800   2.123   8.011  10.717 -0.0788 -0.0210 -0.0282
 2937W        W 3801   1.952   5.957  12.703  0.4282  0.0221  0.0844
 2938W        W 3802   3.330   3.677  11.456 -0.2066 -0.0285 -0.1145
 2939W        W 3803   1.969   5.002  12.878 -0.0674 -0.1304 -0.0436
 2940W        W 3804   4.161   5.645  12.742 -0.2702  0.1076  0.0789
 2941W        W 3805   3.174   6.596  12.448 -0.2893 -0.4068 -0.2923
 2942W        W 3806   0.791   8.685  11.910 -0.1986 -0.1249  0.3053
 2943W        W 3807   0.681   5.911  12.045  0.1272 -0.2638  0.0658
 2944W        W 3808   0.371   7.343  11.565 -0.1198  0.2201 -0.0101
 2945W        W 3809   1.154   6.350  13.341  0.1757  0.0417  0.2578
 2946W        W 3810   1.872   3.484  12.238 -0.1486 -0.1180  0.0575
 2947W        W 3811   3.460   4.972  13.120  0.1112  0.0416  0.1743
 2948W        W 3812  13.824   4.831   9.448  0.2230  0.3606  0.1018
 2949W        W 3813  13.873   7.386  12.206  0.4834  0.0628 -0.0011
 2950W        W 3814   6.761   6.490  12.743  0.1001  0.2995  0.0173
 2951W        W 3815   3.986   5.216  12.760  0.2128  0.1058 -0.3255
 2952W        W 3816   3.643   3.504   9.656  0.0198 -0.0413 -0.1733
 2953W        W 3817   2.280   6.063  13.130  0.0809  0.0047 -0.2304
 2954W        W 3818   3.565   8.318  13.825 -0.1938  0.0122 -0.1742
 2955W        W 3819   5.060   6.790   9.302  0.3708  0.0141  0.1653
 2956W        W 3820  13.995   9.800   0.611 -0.1673  0.1110 -0.0439
 2957W        W 3821   3.072   7.099  10.473 -0.1224  0.1436 -0.0393
 2958W        W 3822  14.005   4.146  12.345  0.0109 -0.0539 -0.0600
 2959W        W 3823   1.698   6.900  11.777 -0.2792  0.2666  0.0477
 2960W        W 3824  13.523   5.010  11.590  0.0300 -0.0217 -0.2006
 2961W        W 3825   3.910   3.559   8.370  0.1328  0.3564  0.2739
 2962W        W 3826   2.088   7.228  12.003  0.0257 -0.2043 -0.4164
 2963W        W 3827   0.902   6.458  11.196  0.1230  0.1285 -0.1186
 2964W        W 3828   0.871   6.753  13.079 -0.0383 -0.1287 -0.0904
 2965W        W 3829   4.352   2.607  11.113 -0.1656 -0.1138  0.1582
 2966W        W 3830   0.997   2.980  11.023 -0.2402  0.0600 -0.3791
 2967W        W 3831  12.359   8.254  11.011 -0.2586  0.1860  0.0027
 2968W        W 3832   0.156   4.948   0.249 -0.1625 -0.0939  0.0841
 2969W        W 3833   2.489   3.259  11.887  0.0659  0.0236  0.0110
 2970W        W 3834   1.519   6.517  12.065  0.0031  0.1202 -0.2365
 2971W        W 3835   1.703   7.595  12.210 -0.0130  0.2244  0.0691
 2972W        W 3836   1.585   7.106  11.053  0.3383 -0.0673  0.1007
 2973W        W 3837   0.405   7.390  12.063  0.1572  0.0072  0.0027
 2974W        W 3838   0.825   8.290   0.757 -0.2254  0.2185  0.0944
 2975W        W 3839   1.754   4.327  12.301  0.1455  0.3520 -0.2147
 2976W        W 3840   3.559   3.722   0.144 -0.0381 -0.1056 -0.1068
 2977W        W 3841   4.492   4.712  11.533 -0.2287 -0.3168  0.0969
 2978W        W 3842   0.541   5.499  10.413  0.2902  0.0206  0.2035
 2979W        W 3843   0.681   2.454  11.739 -0.0493  0.0945  0.3259
 2980W        W 3844   1.944   7.618  10.990 -0.1708  0.1643 -0.0777
 2981W        W 3845  13.647   8.699  10.297  0.1328 -0.3752  0.1393
 2982W        W 3846   1.893   6.221  12.246  0.3030 -0.0347 -0.3032
 2983W        W 3847   2.144   3.086  12.242  0.0638  0.0235  0.2323
 2984W        W 3848   3.800   5.899  11.345 -0.1064  0.2363 -0.0405
 2985W        W 3849   2.451   5.965  11.330 -0.2708 -0.1052 -0.0065
 2986W        W 3850   2.423   5.642  12.810  0.3130  0.3917 -0.0011
 2987W        W 3851  13.116   6.309   3.446 -0.0271  0.1438 -0.1206
 2988W        W 3852  13.660   3.092   9.577  0.0977 -0.0881 -0.0815
 2989W        W 3853   3.055   4.773  11.777 -0.1360 -0.1805  0.0785
 2990W        W 3854   3.578   7.901  10.266  0.0563 -0.3260 -0.1158
 2991W        W 3855   2.362   6.031  10.254 -0.1363 -0.0671 -0.0824
 2992W        W 3856   1.830   5.342  13.819 -0.0770 -0.2299 -0.4120
 2993W        W 3857  13.719   5.441  12.424 -0.0071  0.2742 -0.1501
 2994W        W 3858  13.064   5.004  14.006  0.0351  0.1155 -0.1857
 2995W        W 3859   3.423   5.271   8.632  0.0897 -0.3205  0.3629
 2996W        W 3860   2.816   4.918   1.396  0.2856  0.1140 -0.1516
 2997W        W 3861   1.927   4.291  11.086 -0.1098  0.0119  0.0102
 2998W        W 3862  13.066   9.367   0.698 -0.0086 -0.1486  0.0585
 2999W        W 3863   0.520   5.137  12.472 -0.0848 -0.2857  0.3445
 3000W        W 3864   4.515   4.881  12.487  0.1277 -0.0222 -0.0528
 3001W        W 3865   3.188   2.619  10.048 -0.1943  0.0912 -0.2024
 3002W        W 3866   3.011   4.146   9.875 -0.3342 -0.1372 -0.0359
 3003W        W 3867   5.471   7.156  13.449  0.3278  0.4858  0.0931
 3004W        W 3868   5.141   8.279  12.542  0.0350 -0.1621  0.3903
 3005W        W 3869  12.961   5.884  11.409  0.2562  0.0777 -0.1994
 3006W        W 3870   3.676   3.445  13.736  0.0302 -0.1400  0.1723
 3007W        W 3871   4.053   8.849  12.631 -0.0201 -0.0268 -0.0194
 3008W        W 3872   4.645   6.118  13.413 -0.0920 -0.0466  0.0229
 3009W        W 3873   0.755   4.343   0.146 -0.2559 -0.1851  0.1372
 3010W        W 3874   3.025   6.756  11.909  0.2436 -0.1627 -0.2079
 3011W        W 3875   3.497   2.311  11.174 -0.0611 -0.1388  0.0483
 3012W        W 3876   1.428   3.342  12.526 -0.0555  0.2142 -0.1305
 3013W        W 3877   3.157   5.228  11.578 -0.2358 -0.1105  0.1238
 3014W        W 3878   2.634   7.738  10.589 -0.0714 -0.1330 -0.2148
 3015W        W 3879   3.455   5.380  11.922  0.2063 -0.1661 -0.1126
 3016W        W 3880  13.773   6.372  13.112  0.2726  0.0334 -0.2513
 3017W        W 3881   2.117   2.350  11.402 -0.1799 -0.2441  0.2855
 3018W        W 3882   1.727   5.153  13.317 -0.0899 -0.4333  0.0673
 3019W        W 3883   4.504   2.276   1.044 -0.1508 -0.1860  0.1196
 3020W        W 3884   0.388   3.208  13.220  0.0218  0.0686  0.0809
 3021W        W 3885   2.328   4.899  12.572 -0.1438 -0.1707 -0.1733
 3022W        W 3886   1.545   4.874  10.683 -0.0889 -0.3364 -0.2604
 3023W        W 3887   4.985   8.481  13.021 -0.0157  0.2127 -0.1501
 3024W        W 3888   1.953   3.637  13.639  0.2514 -0.5660  0.0251
 3025W        W 3889   3.359   7.147   0.954 -0.1176  0.1872 -0.1502
 3026W        W 3890   1.712   4.478  13.615 -0.0492 -0.1930  0.0791
 3027W        W 3891   2.792   4.349  11.314 -0.1661 -0.1996  0.1163
 3028W        W 3892   2.831   6.179  13.202 -0.0126 -0.0393  0.2083
 3029W        W 3893   2.460   4.182   9.875  0.1033 -0.0356  0.0861
 3030W        W 3894   1.752   4.119  12.790  0.0896  0.0867 -0.2976
 3031W        W 3895   2.810   8.388   9.849 -0.3682  0.2421  0.0158
 3032W        W 3896   2.234   6.296   9.818 -0.1837 -0.1995  0.1044
 3033W        W 3897   3.709   6.356  11.807 -0.0230  0.1169 -0.0550
 3034W        W 3898   1.846   4.237   1.591 -0.1037  0.0069 -0.2960
 3035W        W 3899   3.219   8.502  13.088  0.2531  0.3110 -0.0622
 3036W        W 3900   5.956   5.420  12.122  0.2675  0.0547 -0.1847
 3037W        W 3901   3.214   6.208  12.149 -0.1482 -0.3307 -0.0630
 3038W        W 3902   0.915   7.304  11.801 -0.1756 -0.2433 -0.3526
 3039W        W 3903   3.167   4.978   0.956 -0.1648 -0.1147  0.0055
 3040W        W 3904   3.978   8.415   1.714 -0.1046  0.0414  0.1165
 3041W        W 3905   2.058   8.299  11.603  0.2996 -0.0963 -0.0175
 3042W        W 3906   1.183   4.543  10.871 -0.0794  0.2706 -0.0004
 3043W        W 3907   1.308   4.278  11.800  0.3489  0.0014 -0.2053
 3044W        W 3908   0.577   2.755   9.751  0.0773 -0.3414 -0.0331
 3045W        W 3909   0.168   5.327  11.174  0.3374 -0.0588  0.1991
 3046W        W 3910   2.208   7.665  13.741  0.1366 -0.3177  0.2564
 3047W        W 3911   0.256   1.563  11.229 -0.0714 -0.0439 -0.2208
 3048W        W 3912   2.535   4.400  13.255 -0.2700  0.1715 -0.1903
 3049W        W 3913   4.028   6.745  11.747 -0.0784  0.2136  0.2535
 3050W        W 3914   1.646   6.128  13.102  0.1451 -0.1292 -0.0880
 3051W        W 3915   3.383   4.443  11.678 -0.1445 -0.0467 -0.0109
 3052W        W 3916   2.699   6.494  13.614  0.1605 -0.0949  0.0490
 3053W        W 3917   0.217   4.762  10.729 -0.0928  0.1166 -0.1353
 3054W        W 3918   1.689   5.519   9.726 -0.2062 -0.2139  0.0310
 3055W        W 3919   0.106   5.251   9.612 -0.0204  0.1219 -0.0973
 3056W        W 3920  13.486   6.795   0.336 -0.2137  0.1860  0.0880
 3057W        W 3921   0.924   4.046  12.037  0.1011  0.0594 -0.4976
 3058W        W 3922   1.125   5.948  13.075  0.2142  0.0590 -0.0488
 3059W        W 3923  12.559   6.660  11.333 -0.2195  0.2443  0.3298
 3060W        W 3924   4.633   1.511  10.437  0.0901  0.0099  0.1003
 3061W        W 3925   2.706   3.889   0.250  0.1693 -0.1329 -0.2493
 3062W        W 3926  13.126   6.820  12.478 -0.0296  0.2280  0.2472
 3063W        W 3927   2.307   6.993  12.440  0.1245 -0.1824  0.3828
 3064W        W 3928   1.056   4.673  13.230 -0.1619 -0.0620 -0.1992
 3065W        W 3929   1.372   8.129  11.114 -0.1805  0.3249  0.2399
 3066W        W 3930   3.091   5.227  12.687  0.2262  0.3198 -0.0174
 3067W        W 3931   2.248   4.925  11.637  0.0274 -0.1046  0.4088
 3068W        W 3932   1.497   6.261  10.111  0.2402 -0.1568  0.0942
 3069W        W 3933   0.176   4.415  11.888  0.0030  0.1289 -0.1100
 3070W        W 3934   3.919   3.701  12.888  0.0764 -0.3089  0.1207
 3071W        W 3935   5.893   3.105   0.123 -0.0385 -0.1988  0.0792
 3072W        W 3936  12.601   9.195   0.467 -0.0812  0.3528 -0.4260
 3073W        W 3937   3.148   7.119  12.250  0.0941 -0.0339 -0.2225
 3074W        W 3938   0.825   6.926  10.859 -0.2418  0.3373  0.1488
 3075W        W 3939   2.048   3.921  12.428  0.0014  0.0304 -0.2578
 3076W        W 3940   1.133   5.108  12.378 -0.1069  0.1603  0.1901
 3077W        W 3941   4.390   6.514  10.481 -0.2522  0.4160 -0.4576
 3078W        W 3942   2.555   5.472   9.360 -0.1822  0.1832 -0.3475
 3079W        W 3943   0.883   4.046  13.813  0.1659 -0.0571  0.0252
 3080W        W 3944  13.844   3.602  10.138 -0.0912 -0.2980  0.0106
 3081W        W 3945   1.906   4.463  11.692 -0.1287  0.1171 -0.1931
 3082W        W 3946   1.043   4.822  12.742 -0.0824  0.4119  0.0456
 3083W        W 3947   2.412   7.110  12.972 -0.0764 -0.4341 -0.2264
 3084W        W 3948  13.292   3.708   0.612  0.1702 -0.0812  0.2931
 3085W        W 3949  13.245   6.283  11.967  0.1701 -0.3113 -0.1545
 3086W        W 3950  13.674   5.520   9.916 -0.0398  0.1885 -0.0479
 3087W        W 3951   2.172   1.504  12.401  0.1957  0.0681 -0.2836
 3088W        W 3952  13.594   3.809  12.270 -0.0602  0.0232  0.1371
 3089W        W 3953   3.054   4.649  10.049  0.0991  0.1551  0.1793
 3090W        W 3954   2.390   6.121  10.855  0.1230  0.0906 -0.0471
 3091W        W 3955  13.052   5.965   0.275 -0.1390 -0.1037 -0.0707
 3092W        W 3956   3.259   4.664   0.006 -0.1144  0.4399 -0.2394
 3093W        W 3957   0.395   2.362  13.130  0.3252 -0.2786  0.0635
 3094W        W 3958   2.504   5.594  13.318  0.0252 -0.2201 -0.0387
 3095W        W 3959   3.775   3.588  10.895 -0.2592  0.0510  0.0993
 3096W        W 3960   2.347   4.202   0.293 -0.1081 -0.1730  0.1758
 3097W        W 3961   0.056   6.383  11.428  0.3201  0.0633  0.0582
 3098W        W 3962   2.363   4.617  13.654 -0.1893  0.0447  0.1893
 3099W        W 3963   2.104   6.507  10.809  0.0449 -0.1954 -0.0035
 3100W        W 3964   0.800   6.873   9.758  0.0394 -0.1324 -0.1272
 3101W        W 3965  13.868   7.477  13.555  0.1043  0.2613 -0.1388
 3102W        W 3966  12.762   6.557  12.227  0.0484 -0.0605 -0.0256
 3103W        W 3967   1.532   3.950  10.206 -0.0255 -0.2450  0.2324
 3104W        W 3968   3.196   7.139  12.941  0.0545 -0.0687 -0.1960
 3105W        W 3969   3.778   5.234  10.499  0.1403 -0.0685  0.1735
 3106W        W 3970   1.783   5.334  10.878 -0.1203  0.2149  0.4245
 3107W        W 3971   3.598   7.380   9.582  0.1845 -0.0557 -0.2225
 3108W        W 3972   5.185   5.741  10.803 -0.0639 -0.0421  0.0237
 3109W        W 3973   2.994   3.397  10.380 -0.0703 -0.1454  0.1592
 3110W        W 3974   2.499   6.676  11.088  0.2853  0.2462  0.0514
 3111W        W 3975  13.398   4.813   2.045 -0.1326  0.0530  0.1965
 3112W        W 3976   2.237   3.670  11.577  0.1047  0.0662  0.1506
 3113W        W 3977   1.916   6.774  12.206 -0.2862 -0.0486  0.1277
 3114W        W 3978   2.343   3.742  12.072  0.2158 -0.1301 -0.2665
 3115W        W 3979   0.230   4.327   0.390  0.2233  0.1045 -0.2087
 3116W        W 3980   2.194   2.980  13.166  0.0312 -0.1849 -0.1052
 3117W        W 3981   1.837   7.314  11.478  0.2842  0.1895 -0.0599
 3118W        W 3982  13.027   6.283  12.569 -0.1242  0.0186  0.2338
 3119W        W 3983   2.697   5.045  11.435 -0.0303  0.0626  0.1919
 3120W        W 3984   4.181   6.043   0.443  0.3258 -0.0114 -0.0324
 3121W        W 3985   4.256   1.397   0.665 -0.1738  0.0678 -0.0104
 3122W        W 3986   4.071   7.144  10.790  0.3635  0.0130  0.2847
 3123W        W 3987  13.343   7.222  11.504 -0.2055 -0.1264 -0.3469
 3124W        W 3988   0.881   7.615   9.930  0.3910 -0.1574  0.3554
 3125W        W 3989  12.466   6.222  11.968  0.0405  0.3163  0.4021
 3126W        W 3990   0.079   2.546   1.169  0.3261 -0.0802 -0.1306
 3127W        W 3991  12.057   6.839  13.458  0.0072  0.2974 -0.2564
 3128W        W 3992   1.698   6.483  12.686 -0.0332 -0.1775 -0.0045
 3129W        W 3993  11.763   5.184  11.094 -0.0781  0.0330 -0.0545
 3130W        W 3994   4.292   5.297  12.341 -0.1261 -0.1452  0.0327
 3131W        W 3995   1.677   6.900  10.262 -0.0253 -0.2416 -0.0119
 3132W        W 3996   1.603   2.882  12.322  0.0734 -0.0355  0.0599
 3133W        W 3997   0.661   8.018  13.145 -0.0208 -0.2121 -0.2574
 3134W        W 3998   0.389   4.227  13.681 -0.1278 -0.0049  0.2606
 3135W        W 3999   0.287   5.476  12.844  0.1654  0.1371 -0.1445
 3136W        W 4000   2.112   6.344  11.284 -0.1434 -0.0927  0.1214
 3137W        W 4001   1.464   7.729  10.106  0.2317 -0.1107  0.0978
 3138W        W 4002   2.824   4.242  10.350 -0.2340  0.1729 -0.2513
 3139W        W 4003   3.428   3.903  13.594 -0.0121 -0.3763 -0.0477
 3140W        W 4004   2.976   5.562  11.976  0.0386  0.6939  0.1085
 3141W        W 4005  13.121   5.615   0.819  0.0640  0.0289  0.0861
 3142W        W 4006   4.411   6.602  12.488 -0.0473  0.1850  0.0124
 3143W        W 4007  13.372   5.769  11.127  0.0327 -0.0608  0.0730
 3144W        W 4008   2.843   6.010  10.350  0.0454  0.2173  0.1862
 3145W        W 4009   3.150   7.803  12.852 -0.1006 -0.1109  0.2013
 3146W        W 4010   1.942   6.883  12.817 -0.1561 -0.0145  0.0006
 3147W        W 4011   4.019   4.366   7.745  0.0660 -0.1234 -0.1454
 3148W        W 4012   1.028   3.775  13.360  0.1723 -0.1286  0.0885
 3149W        W 4013   3.311   5.609  12.364  0.0476  0.0259  0.1275
 3150W        W 4014   2.246   5.472   1.143  0.1559 -0.2930  0.2836
 3151W        W 4015   0.981   7.049  12.352  0.1924 -0.2904 -0.1954
 3152W        W 4016   3.871   8.229  10.666  0.2531  0.0606 -0.0365
 3153W        W 4017   1.911   6.514  13.977  0.0508  0.0561  0.0715
 3154W        W 4018   2.041   4.488  10.665  0.0821  0.0887  0.2444
 3155W        W 4019   1.647   7.842  11.489 -0.0413 -0.2449 -0.0929
 3156W        W 4020   3.221   6.608  13.648  0.0723  0.1504 -0.0864
 3157W        W 4021   2.759   6.283  12.300  0.2522 -0.1571 -0.0997
 3158W        W 4022   4.346   6.104  11.413  0.1120 -0.3034 -0.1034
 3159W        W 4023   0.119   5.862  11.345  0.3205  0.0913  0.1154
 3160W        W 4024   0.590   8.326  10.230 -0.1490 -0.0999 -0.2175
 3161W        W 4025   2.375   4.582  11.231  0.4574  0.1188  0.1259
 3162W        W 4026   2.373   4.124  11.353 -0.0195 -0.0030  0.0012
 3163W        W 4027   3.664   5.876  12.129  0.1821 -0.3315  0.0484
 3164W        W 4028   2.962   5.230   8.985  0.0371 -0.2411 -0.2231
 3165W        W 4029   2.467   4.966   9.416 -0.0651  0.2671 -0.1233
 3166W        W 4030   2.483   3.909  13.328 -0.1390  0.0374  0.3407
 3167W        W 4031  13.575   7.090  11.964  0.0574  0.0118 -0.0656
 3168W        W 4032   2.681   4.878  13.381  0.1302  0.2081 -0.3354
 3169W        W 4033   3.510   3.860  12.569  0.0512  0.0016  0.2236
 3170W        W 4034   0.478   4.976  13.862  0.3031  0.0794  0.0911
 3171W        W 4035   0.481   4.034  12.323 -0.0274  0.1088 -0.0222
 3172W        W 4036   2.994   4.399  13.089  0.0469  0.1536 -0.4923
 3173W        W 4037   0.031   7.789  12.429  0.0806  0.1062  0.1349
 3174W        W 4038  11.094   5.641  10.016 -0.0758 -0.1576  0.0725
 3175W        W 4039   2.984   6.752  11.393 -0.1272  0.3152  0.1795
 3176W        W 4040   3.820   6.256  13.008 -0.3108  0.0494  0.1336
 3177W        W 4041   3.839   7.646  10.595 -0.1767  0.3214  0.0243
 3178W        W 4042   0.949   3.231  10.595  0.0872  0.3144  0.1594
 3179W        W 4043   2.108   2.503  12.856  0.2382 -0.1412  0.3823
 3180W        W 4044  12.889   6.950   1.250 -0.0861  0.1463  0.0689
 3181W        W 4045   2.864   3.914  12.974 -0.1447 -0.1158 -0.4095
 3182W        W 4046   2.635   2.256  12.243  0.2650 -0.3103 -0.2486
 3183W        W 4047   4.743   6.425  12.921 -0.1159  0.1129  0.1968
 3184W        W 4048   1.682   6.237  11.022 -0.1197  0.3567  0.0370
 3185W        W 4049   0.934   3.818  10.845 -0.0555 -0.0304  0.1029
 3186W        W 4050   3.311   4.324  10.380  0.1749 -0.1564 -0.2530
 3187W        W 4051   1.255   3.685  11.931  0.1463  0.1579 -0.1179
 3188W        W 4052   0.007   5.693  13.477 -0.1734  0.1350 -0.1630
 3189W        W 4053   1.831   6.747  11.250  0.2851  0.1472 -0.2744
 3190W        W 4054   2.316   5.193  10.743 -0.1404 -0.1883  0.0141
 3191W        W 4055  13.358   3.898  11.599 -0.1275 -0.2177  0.2066
 3192W        W 4056   4.033   8.014  12.710  0.0244  0.1708 -0.0172
 3193W        W 4057  13.622   2.798  11.803  0.1523  0.1506 -0.2825
 3194W        W 4058   2.561   6.046  13.590 -0.2462 -0.2807  0.0080
 3195W        W 4059   0.048   6.948  12.889  0.1530  0.0830 -0.1165
 3196W        W 4060  13.851   3.825   8.826  0.1624  0.0045  0.2164
 3197W        W 4061   2.106   5.764  10.980  0.0340  0.1291 -0.1078
 3198W        W 4062   0.827   3.475   2.002  0.0696  0.0057  0.1170
 3199W        W 4063   4.803   1.765  11.317 -0.1822  0.0897  0.0045
 3200W        W 4064   3.894   5.161  13.225  0.4607 -0.0338 -0.0584
 3201W        W 4065   0.583   6.846  12.003  0.1722  0.2367 -0.2340
 3202W        W 4066   5.207  10.128  11.256  0.0584 -0.1246 -0.1621
 3203W        W 4067   2.263   4.718  12.087  0.0342 -0.0625 -0.4538
 3204W        W 4068   2.463   3.585  11.101 -0.0442 -0.3245 -0.1698
 3205W        W 4069   2.476   8.965  11.415  0.0866  0.0924  0.1076
 3206W        W 4070   2.451   5.207  13.043  0.2312  0.0766 -0.2689
 3207W        W 4071  13.971   4.119   2.391  0.0304 -0.1893 -0.3065
 3208W        W 4072  12.932   9.045  11.121  0.2739 -0.1418  0.1062
 3209W        W 4073  13.285   4.471  12.873  0.2185 -0.4644 -0.0263
 3210W        W 4074   0.479   7.747  11.224 -0.0438  0.1954  0.0125
 3211W        W 4075   1.939   5.506  10.391 -0.2583 -0.2286  0.0969
 3212W        W 4076  13.933   3.150  11.775 -0.1639  0.1760  0.0662
 3213W        W 4077   3.438   7.339  10.780 -0.0393  0.0889 -0.2672
 3214W        W 4078  12.833   6.067  13.829 -0.1961 -0.0096 -0.0610
 3215W        W 4079   1.141   5.591  12.669  0.0825 -0.1437 -0.3418
 3216W        W 4080   0.746   4.477   9.701  0.1619  0.0826 -0.2552
 3217W        W 4081   4.782   4.316  12.980  0.1965  0.2253 -0.0406
 3218W        W 4082   2.562   9.614  11.181 -0.0219 -0.0369  0.0293
 3219W        W 4083   4.013   9.409  11.074 -0.2509 -0.0353  0.3842
 3220W        W 4084   1.502   3.531  11.555 -0.2380 -0.1411 -0.0009
 3221W        W 4085   2.261   8.182  12.060 -0.0152 -0.0075 -0.1625
 3222W        W 4086   0.629   5.298  12.044 -0.1168 -0.2481 -0.3294
 3223W        W 4087   3.002   5.727  13.411 -0.3342 -0.3846  0.0491
 3224W        W 4088  13.600   5.903  13.322  0.1176  0.1271 -0.1371
 3225W        W 4089   2.787   5.406   1.156  0.0132 -0.0215  0.1379
 3226W        W 4090   2.825   7.312  10.816  0.0281  0.0975  0.0146
 3227W        W 4091   3.780   8.365   1.220 -0.2108 -0.0426  0.0626
 3228W        W 4092   5.027   6.718   1.980 -0.1340  0.1689  0.2547
 3229W        W 4093   0.855   7.422  11.243 -0.2220 -0.0041  0.1587
 3230W        W 4094   0.958   2.792  11.516 -0.0961  0.0596  0.0071
 3231W        W 4095   3.035   3.120  13.139  0.1199  0.1540  0.0772
 3232W        W 4096   0.998   4.338  12.404  0.1164 -0.0575  0.0028
 3233W        W 4097   2.697   5.132  11.971  0.3431  0.2469  0.1173
 3234W        W 4098   1.919   3.989  10.624  0.0068 -0.1525 -0.2814
 3235W        W 4099   5.637   8.177  10.461  0.2945  0.0644  0.3634
 3236W        W 4100   2.859   6.896  13.196 -0.0772 -0.0990 -0.0806
 3237W        W 4101  13.368   7.425  12.436 -0.1030 -0.2225  0.0383
 3238W        W 4102   3.382   7.592  12.023 -0.4195  0.0376  0.0714
 3239W        W 4103  11.245   4.884   2.304  0.2301  0.0412  0.0195
 3240W        W 4104   0.137   5.766   1.771  0.1194 -0.1066  0.2003
 3241W        W 4105   0.007   7.915  11.426 -0.2946  0.0723  0.1040
 3242W        W 4106   0.091   7.466  12.837 -0.3060  0.0569  0.3342
 3243W        W 4107   3.191   6.258   0.124 -0.0070 -0.1578 -0.0412
 3244W        W 4108   2.735   4.925  13.976  0.1389 -0.0820  0.0409
 3245W        W 4109   3.172   7.217  11.752 -0.0937 -0.0835 -0.1517
 3246W        W 4110   2.030   5.484  13.045 -0.0690 -0.0671 -0.0891
 3247W        W 4111   2.086   5.363  12.562 -0.1858  0.1619 -0.2678
 3248W        W 4112   3.351   7.759  11.503 -0.1348  0.1089 -0.2674
 3249W        W 4113   1.143   6.454  12.700 -0.3099  0.2275  0.1410
 3250W        W 4114   4.920   3.333  13.036  0.2960 -0.1610  0.4319
 3251W        W 4115   1.564   6.923  13.820 -0.2413  0.0303  0.1726
 3252W        W 4116   3.684   7.817  13.639  0.3339  0.0362  0.2450
 3253W        W 4117   1.325   7.162  11.489 -0.4274 -0.0264  0.1288
 3254W        W 4118   1.672   6.033  11.807  0.2283 -0.0740 -0.1725
 3255W        W 4119   0.493   4.612   8.718 -0.2527 -0.0255  0.2984
 3256W        W 4120   0.129  11.142  13.889 -0.0467 -0.0782  0.3726
 3257W        W 4121  13.522  10.899   2.705  0.1975  0.1378 -0.0521
 3258W        W 4122   3.346   9.056  12.993 -0.2392  0.1195  0.0529
 3259W        W 4123   0.494  12.228   2.665  0.0967 -0.0962 -0.0391
 3260W        W 4124   0.397  11.947   0.925 -0.0492 -0.2213  0.1891
 3261W        W 4125   4.997   9.937   0.673  0.1982 -0.1985 -0.0567
 3262W        W 4126  12.276   8.037   0.384 -0.0739 -0.2448  0.2285
 3263W        W 4127   4.161   8.911  13.378  0.1409 -0.2122 -0.4699
 3264W        W 4128   0.893  11.171   3.592  0.0712 -0.0680  0.3752
 3265W        W 4129   1.076   8.392   1.230 -0.1708 -0.1763 -0.0658
 3266W        W 4130   1.298   7.578   3.835 -0.3012  0.0139  0.1291
 3267W        W 4131   3.400   5.726  13.956 -0.0595 -0.2995 -0.1034
 3268W        W 4132   3.216   8.678   0.530 -0.1430 -0.1346 -0.2487
 3269W        W 4133   1.532   9.025   2.243  0.3417 -0.3196 -0.0594
 3270W        W 4134   0.022   7.508   1.467 -0.1226  0.0464 -0.1690
 3271W        W 4135   2.847   8.207   1.539 -0.0331  0.3062 -0.2187
 3272W        W 4136   3.252  12.971   0.696 -0.0914 -0.2363 -0.1247
 3273W        W 4137  11.752   9.104   2.634 -0.1733 -0.1758 -0.2112
 3274W        W 4138   0.902  10.858   2.975 -0.0665 -0.3780  0.1049
 3275W        W 4139   7.196   8.395   1.982  0.0137 -0.0275  0.0028
 3276W        W 4140   1.962   8.765   2.554 -0.1687 -0.0333 -0.0751
 3277W        W 4141   1.601   8.912   2.811 -0.0746  0.0034  0.0008
 3278W        W 4142   3.385  11.444   1.195 -0.1140 -0.1247  0.0078
 3279W        W 4143  10.972   6.478   1.638 -0.1453 -0.2178 -0.0320
 3280W        W 4144  13.295   7.029  13.862  0.2216 -0.3985 -0.0334
 3281W        W 4145   0.479   8.414   2.792  0.0630 -0.0099  0.0977
 3282W        W 4146  13.912   6.993   1.566  0.0255  0.1554  0.3603
 3283W        W 4147   0.913   7.618  12.929  0.0544  0.1041 -0.1424
 3284W        W 4148   2.784  11.221   5.370  0.0025  0.0025  0.1099
 3285W        W 4149   0.443   8.823   0.330  0.0554 -0.0473 -0.2630
 3286W        W 4150   4.663  10.147   1.511  0.0536 -0.0916 -0.0386
 3287W        W 4151   2.920  11.713   5.992 -0.0366 -0.2174  0.0115
 3288W        W 4152   1.294   7.379   3.361 -0.0327 -0.1535 -0.1710
 3289W        W 4153   1.898   9.331   1.666  0.3796 -0.1093 -0.2745
 3290W        W 4154   0.998   6.641   4.341 -0.1252 -0.2460  0.0068
 3291W        W 4155   2.676  10.362   4.272  0.0908 -0.2385  0.0238
 3292W        W 4156   2.831   8.043  13.239  0.3110  0.0175  0.2492
 3293W        W 4157   2.479   9.617   3.790 -0.1604 -0.1465 -0.2124
 3294W        W 4158   3.972  12.359   1.052 -0.0714 -0.3252  0.1398
 3295W        W 4159   4.586   9.493   1.730 -0.0690  0.0044 -0.4919
 3296W        W 4160   4.061   8.211  13.942  0.1504  0.1676  0.0549
 3297W        W 4161   3.560  13.285   2.431  0.2064  0.2929 -0.2716
 3298W        W 4162  13.689  11.800   2.592 -0.0228 -0.3418  0.0801
 3299W        W 4163   5.751  10.386   0.700 -0.0274  0.1130 -0.0948
 3300W        W 4164   0.627  11.590   2.519 -0.2012  0.3675 -0.2054
 3301W        W 4165   3.016   7.512   2.169 -0.2522 -0.3471 -0.1561
 3302W        W 4166   0.989   7.256   0.307  0.4640  0.0389 -0.0580
 3303W        W 4167   4.446   7.792   3.262 -0.1497  0.0386  0.0238
 3304W        W 4168   1.230  10.249   0.588 -0.2340  0.2413  0.2479
 3305W        W 4169   6.250   8.960   2.399  0.3050 -0.3403 -0.2209
 3306W        W 4170   2.664  12.358   1.132  0.1570  0.2521  0.0375
 3307W        W 4171   0.928   7.348   0.839 -0.1161 -0.0670 -0.3066
 3308W        W 4172   2.107  10.219   3.117 -0.0393 -0.0337 -0.0349
 3309W        W 4173   4.509  10.815  13.939 -0.2469 -0.1372 -0.0821
 3310W        W 4174   1.638   7.423  13.927  0.1281  0.2373  0.1399
 3311W        W 4175   3.931   8.708  13.927 -0.0234  0.2060  0.0995
 3312W        W 4176   2.483   7.332  14.006 -0.1636  0.2165 -0.3640
 3313W        W 4177   3.095  10.541   1.039 -0.1529 -0.1697 -0.1703
 3314W        W 4178   0.435   7.951   0.117  0.0712  0.2269 -0.1746
 3315W        W 4179   0.916   9.923   0.676  0.3178 -0.0725  0.1301
 3316W        W 4180   2.085  10.692   0.874 -0.0769  0.0928 -0.0972
 3317W        W 4181   0.353  13.132   2.985 -0.0101 -0.1634 -0.0234
 3318W        W 4182   3.597   8.315   4.479 -0.1266  0.2446 -0.0407
 3319W        W 4183   1.655   9.409   0.815 -0.0612 -0.2206 -0.0237
 3320W        W 4184   1.201   9.475   0.022  0.0144 -0.2186  0.1061
 3321W        W 4185   3.499   7.490   0.012  0.1159 -0.1281  0.3589
 3322W        W 4186   0.823   7.754   0.456 -0.0420  0.1666  0.1630
 3323W        W 4187  13.051  10.924   1.610  0.2090  0.1811 -0.0846
 3324W        W 4188   1.857   9.110   1.243  0.4300 -0.2617  0.0073
 3325W        W 4189   0.649  12.042   3.507  0.0310 -0.4909 -0.0843
 3326W        W 4190   4.324  10.656   3.002 -0.2230  0.2648 -0.2820
 3327W        W 4191   3.523   8.951   1.290 -0.4575  0.0430 -0.1748
 3328W        W 4192   2.800  11.705   2.375  0.1248  0.0015  0.1263
 3329W        W 4193   4.444  10.218   0.482  0.1631  0.0184  0.2461
 3330W        W 4194   3.116  10.848   2.155  0.1721  0.1537 -0.1430
 3331W        W 4195   0.327   6.529  12.922 -0.2717  0.0294 -0.0952
 3332W        W 4196   1.580  11.264   4.241 -0.0829 -0.1694 -0.0540
 3333W        W 4197   3.828   9.530   2.828  0.1149  0.2312 -0.2440
 3334W        W 4198   3.039   8.051   1.109 -0.2295  0.4314 -0.1224
 3335W        W 4199   0.363   8.701   0.890 -0.3419  0.0949  0.3324
 3336W        W 4200   0.726   9.203   4.213  0.0897  0.1557  0.2028
 3337W        W 4201  12.213  10.428   0.442  0.2165  0.0229 -0.0627
 3338W        W 4202   0.870   6.273   0.790 -0.0943 -0.0701  0.3146
 3339W        W 4203   3.912   6.622  10.650 -0.3000  0.1445 -0.1770
 3340W        W 4204   2.364  10.557   1.557 -0.1273  0.0896 -0.1124
 3341W        W 4205   3.852  11.789   2.433 -0.0698 -0.0518 -0.0128
 3342W        W 4206   1.896   7.013   2.644 -0.2296  0.2240  0.1098
 3343W        W 4207   2.479  12.363   3.253  0.1068  0.3734  0.1091
 3344W        W 4208   4.773   9.891   4.997 -0.0381  0.0636  0.1775
 3345W        W 4209   4.200   9.696  13.248 -0.0135 -0.0716  0.0309
 3346W        W 4210   2.699   9.981   2.768 -0.0242 -0.1165 -0.0753
 3347W        W 4211   1.330  11.186   2.926 -0.0632  0.0499  0.0163
 3348W        W 4212   3.652   9.915   1.529  0.3260 -0.2171  0.0339
 3349W        W 4213   1.344   6.247   1.189  0.3223 -0.1663 -0.2175
 3350W        W 4214   2.351   9.507   0.138  0.3512  0.2012 -0.2736
 3351W        W 4215   2.528   9.866   0.418  0.1903  0.2678 -0.2522
 3352W        W 4216   1.825  11.350   3.846  0.2043  0.1406 -0.2125
 3353W        W 4217  13.228   6.565   1.326  0.1711  0.1607 -0.0768
 3354W        W 4218   3.002   7.368   0.092  0.1323  0.2673 -0.0772
 3355W        W 4219   4.479  11.116   0.416 -0.2571  0.1351  0.0332
 3356W        W 4220   1.440  10.583   4.086  0.0619 -0.1671 -0.2414
 3357W        W 4221   3.102   7.770   1.501 -0.2191 -0.3470 -0.1899
 3358W        W 4222   4.790  10.794   1.740 -0.0174 -0.0865  0.0300
 3359W        W 4223   1.822   6.667   1.868 -0.1311 -0.1157  0.0443
 3360W        W 4224   2.008   7.913  12.950 -0.0065  0.0806  0.0309
 3361W        W 4225   6.187   9.614   0.183 -0.3714 -0.1978 -0.1558
 3362W        W 4226   0.863   9.676   5.030 -0.0542  0.2436  0.5040
 3363W        W 4227   3.717   6.169   0.322  0.2451 -0.0255  0.2059
 3364W        W 4228  13.087   8.952   3.886  0.1989 -0.3268 -0.1649
 3365W        W 4229   0.823   8.507   0.178 -0.1831  0.3939  0.1482
 3366W        W 4230   0.388   9.760   0.348  0.1049 -0.3107  0.0666
 3367W        W 4231   3.477   7.433   1.414  0.1697  0.2488  0.1661
 3368W        W 4232   4.064  12.027   7.068  0.0636  0.1668  0.1456
 3369W        W 4233   4.032   9.773   1.114  0.2602  0.0504 -0.2181
 3370W        W 4234   3.250   9.296  12.389 -0.3977  0.0487 -0.0862
 3371W        W 4235   7.093   8.907   2.082  0.1015 -0.3095  0.0074
 3372W        W 4236   2.896   9.025   2.596 -0.1457 -0.0798  0.1522
 3373W        W 4237   3.455   7.664   1.863 -0.2192  0.0539 -0.1986
 3374W        W 4238   0.358   8.283   0.492  0.1406 -0.1808  0.0151
 3375W        W 4239   3.072   7.985   1.978 -0.1297 -0.0273  0.2080
 3376W        W 4240   3.748  11.908   1.521  0.0542 -0.0399  0.5489
 3377W        W 4241   1.791   9.987   2.710  0.0816  0.3244 -0.3853
 3378W        W 4242   4.538   9.663  13.800 -0.0017 -0.0205 -0.2533
 3379W        W 4243   1.488  12.559   4.003 -0.0675  0.0485  0.1413
 3380W        W 4244   4.600   9.890   1.985 -0.3121 -0.5749  0.0704
 3381W        W 4245  12.326   7.339   1.891 -0.4049 -0.0717 -0.0546
 3382W        W 4246   4.012   7.895   2.580  0.2874 -0.0249 -0.2913
 3383W        W 4247   0.677   8.909   2.756 -0.0883 -0.2049 -0.0678
 3384W        W 4248   1.745  11.774   4.149 -0.2698  0.3025  0.1569
 3385W        W 4249   4.076   7.153   1.403 -0.2003  0.0260  0.2570
 3386W        W 4250   1.392  11.343   3.508  0.0394  0.4520  0.1858
 3387W        W 4251   3.314   9.204   0.024 -0.1617  0.0022 -0.4568
 3388W        W 4252   1.511  10.241   1.962 -0.2460  0.3169  0.2569
 3389W        W 4253   0.417   7.079   2.314  0.2399 -0.3308  0.0220
 3390W        W 4254   3.781  10.011   4.025  0.2732  0.0852  0.1741
 3391W        W 4255   1.963   8.616   1.524  0.3955  0.0778 -0.2245
 3392W        W 4256   3.648  12.264  13.960 -0.0383 -0.0512 -0.0461
 3393W        W 4257   2.250  11.789   2.262 -0.2534  0.0560  0.0323
 3394W        W 4258   4.196   8.507   0.354  0.0085 -0.0159  0.1608
 3395W        W 4259   2.220   8.645  13.741 -0.4812 -0.0245 -0.3400
 3396W        W 4260   1.705  12.412   1.164 -0.1812 -0.0027 -0.0113
 3397W        W 4261   3.698   9.711  13.336  0.1034 -0.1747  0.0340
 3398W        W 4262   2.282   9.758   0.904  0.3434 -0.0530 -0.1351
 3399W        W 4263   2.270   7.451   0.698  0.2097  0.1646 -0.1702
 3400W        W 4264   7.101   7.043   1.315  0.2739 -0.1069  0.2509
 3401W        W 4265   0.566  11.850   3.011  0.1097 -0.1263  0.0202
 3402W        W 4266   1.378   9.376   1.450  0.0606 -0.0455 -0.1701
 3403W        W 4267  13.731   9.182   1.773  0.0408 -0.0296 -0.1623
 3404W        W 4268   3.580  11.477   3.425  0.1171 -0.1780 -0.0340
 3405W        W 4269  11.656   6.839   1.428 -0.0862 -0.3181  0.0096
 3406W        W 4270   3.518  10.863   3.109  0.2434  0.0025  0.4014
 3407W        W 4271   3.161   9.526   0.974  0.0793  0.2850 -0.1230
 3408W        W 4272   0.583   6.111   3.306 -0.2485 -0.0523 -0.2784
 3409W        W 4273   2.860   8.469   1.973  0.4332  0.1218 -0.0393
 3410W        W 4274  13.450  10.147   4.560  0.2120 -0.0611 -0.4653
 3411W        W 4275   2.123   8.585  13.170  0.0925  0.0924  0.0614
 3412W        W 4276   0.507   7.577  13.218  0.2215 -0.1369 -0.2768
 3413W        W 4277   2.171   7.854   1.090 -0.0144 -0.0945 -0.1377
 3414W        W 4278   1.784   6.132   0.326  0.2677 -0.0411  0.1716
 3415W        W 4279   1.180   8.650   2.126 -0.0923  0.1606 -0.2262
 3416W        W 4280   0.704  10.586   2.619 -0.1971 -0.0469  0.0276
 3417W        W 4281   2.676  11.182   3.507 -0.0119  0.1849 -0.1008
 3418W        W 4282   3.857   7.338   1.030  0.1042  0.0186 -0.0248
 3419W        W 4283   0.675   9.174   0.629 -0.1501 -0.1299 -0.0458
 3420W        W 4284   0.111   7.864   0.552  0.2508 -0.2709  0.0192
 3421W        W 4285   1.479  11.765   4.555 -0.0616 -0.0715  0.4731
 3422W        W 4286  13.610  11.067   4.736 -0.0207 -0.0633 -0.0296
 3423W        W 4287   1.068   9.054   1.867 -0.2675 -0.0744 -0.0308
 3424W        W 4288   2.862   9.579   0.125 -0.1915 -0.3384  0.1260
 3425W        W 4289   1.344   9.747   2.884 -0.0120  0.2561  0.0934
 3426W        W 4290   1.998   9.588  13.827 -0.0847  0.1600  0.1686
 3427W        W 4291   2.840   7.545  11.462  0.3035 -0.2750 -0.0221
 3428W        W 4292   1.986   8.746   0.900 -0.0956  0.1040  0.0235
 3429W        W 4293   2.641  10.370   1.952 -0.0687  0.2217  0.1440
 3430W        W 4294  11.535  12.036   3.600 -0.0330  0.0425  0.2233
 3431W        W 4295   1.671  10.492   0.733  0.1326 -0.1072 -0.0020
 3432W        W 4296   2.717   4.102   3.499  0.0982 -0.3582 -0.1255
 3433W        W 4297   2.094  10.585   2.771 -0.2621 -0.0720 -0.0491
 3434W        W 4298   4.781  12.117   2.910 -0.0881  0.0091  0.0967
 3435W        W 4299   2.743  10.187  13.228 -0.4582  0.1201  0.0141
 3436W        W 4300   2.072   9.125  14.011 -0.3024 -0.0185  0.2285
 3437W        W 4301   3.555   6.434  11.298 -0.2897  0.1667  0.1919
 3438W        W 4302   0.063   9.791   5.648  0.0036 -0.2778  0.4186
 3439W        W 4303   1.816   7.820   0.592 -0.0195  0.0840 -0.2325
 3440W        W 4304  13.658   9.805   0.988 -0.3220 -0.2054 -0.0412
 3441W        W 4305   1.945  13.332  13.751  0.1570  0.0372 -0.0925
 3442W        W 4306   0.981   9.719   1.618 -0.0445  0.0209  0.0500
 3443W        W 4307   1.936   9.703   0.415 -0.2803 -0.0096 -0.1230
 3444W        W 4308  12.867  12.455   1.276 -0.2094  0.0824 -0.0454
 3445W        W 4309  13.388   8.284   1.479  0.1613 -0.0693 -0.3341
 3446W        W 4310  13.774   7.948   0.854  0.0649 -0.3713  0.2302
 3447W        W 4311   1.889   8.247   0.959  0.2054 -0.1784 -0.3408
 3448W        W 4312   0.042   5.108  12.633  0.0683 -0.0714  0.2576
 3449W        W 4313   0.442   7.490   0.370  0.2687 -0.2031  0.0802
 3450W        W 4314  13.237   6.366   0.600 -0.0304  0.1615 -0.3255
 3451W        W 4315   0.417   9.804   3.695  0.2609  0.2650 -0.3673
 3452W        W 4316   3.467   9.957   2.067 -0.2666  0.0452  0.5104
 3453W        W 4317  13.573   6.601   1.795 -0.4360  0.0144  0.0209
 3454W        W 4318   3.965   8.288   0.751  0.1373  0.1072 -0.0953
 3455W        W 4319   5.621   8.251   0.535  0.0417  0.0857  0.0247
 3456W        W 4320  11.979   8.857   3.411  0.2477  0.0092 -0.0132
 3457W        W 4321   1.888   8.829   3.255  0.0753 -0.0182 -0.1177
 3458W        W 4322  13.688   7.285  14.003  0.3240  0.2721 -0.3104
 3459W        W 4323  13.015   6.452   4.796 -0.1131  0.0169 -0.0803
 3460W        W 4324   2.839   7.362   0.796 -0.1878 -0.1419  0.2575
 3461W        W 4325   2.841  12.098  13.808 -0.1030  0.0519 -0.0206
 3462W        W 4326  13.306   9.487  13.399 -0.3795 -0.0737  0.2789
 3463W        W 4327   0.269   8.408   3.611 -0.2135 -0.0419 -0.1829
 3464W        W 4328   3.573   7.852   2.876  0.2506 -0.1598  0.1310
 3465W        W 4329   4.989   7.926   2.363 -0.2123  0.0889  0.0285
 3466W        W 4330   3.591  10.502   4.196 -0.2165 -0.2147  0.1002
 3467W        W 4331   3.613  10.014  12.925 -0.1546  0.1301 -0.0558
 3468W        W 4332   1.257   8.023   0.575  0.1009  0.0369  0.2033
 3469W        W 4333   2.922   0.424   1.351  0.1628  0.1875  0.4743
 3470W        W 4334   2.907   8.041   5.715  0.1557 -0.0049  0.0443
 3471W        W 4335   0.019   9.973   2.816 -0.0586 -0.2162  0.0111
 3472W        W 4336   1.377   7.900   3.246 -0.2893  0.2287 -0.1376
 3473W        W 4337   2.388   8.088   2.108  0.1365  0.1047  0.0082
 3474W        W 4338  13.279  10.775   4.359 -0.1777 -0.1640  0.1614
 3475W        W 4339   1.069   8.894  10.768  0.1633  0.1695  0.1866
 3476W        W 4340   5.094   9.710   1.149  0.1517  0.0135  0.1128
 3477W        W 4341   2.630   5.341   6.662 -0.0886 -0.3278 -0.2378
 3478W        W 4342   0.359  10.850   2.350  0.0289 -0.1914 -0.2094
 3479W        W 4343   3.192   8.650   2.736 -0.2519 -0.2715 -0.1200
 3480W        W 4344   4.346   6.874   1.027 -0.0722 -0.2448  0.0983
 3481W        W 4345   2.059   8.340   3.651 -0.1964  0.1931  0.1342
 3482W        W 4346   0.373   9.537   3.019  0.0809 -0.2223  0.0428
 3483W        W 4347   1.079   6.555   3.865 -0.2425 -0.0176 -0.0781
 3484W        W 4348   2.855   7.965   2.423  0.1130 -0.1653  0.0053
 3485W        W 4349   4.533  10.216  13.970 -0.0387 -0.2484 -0.2363
 3486W        W 4350  13.612   7.228   0.679  0.0616  0.1359 -0.0581
 3487W        W 4351   1.538  10.880   1.005  0.0123  0.1843  0.0788
 3488W        W 4352   5.039   9.802   1.616  0.1717  0.0121  0.0174
 3489W        W 4353  13.279   8.397   5.682 -0.2040  0.1934 -0.1136
 3490W        W 4354   1.860  12.164   2.287  0.4702 -0.2075 -0.0113
 3491W        W 4355   3.145  13.232   4.430  0.1059  0.3989 -0.1599
 3492W        W 4356   3.429  13.606   1.231 -0.1959  0.0192 -0.2241
 3493W        W 4357   1.164  12.815   2.331 -0.1491 -0.1657 -0.2239
 3494W        W 4358   2.178   9.240   0.895 -0.0267  0.3535  0.1383
 3495W        W 4359  12.415   6.654  13.908  0.1862  0.3141  0.1434
 3496W        W 4360   0.802   8.540   2.383 -0.3073 -0.1252 -0.0358
 3497W        W 4361   1.427   9.826  13.167  0.0408  0.1115  0.2149
 3498W        W 4362   1.310  12.667   1.856 -0.2775 -0.3746  0.0632
 3499W        W 4363   0.620   9.570   2.083  0.1429  0.3583 -0.1972
 3500W        W 4364   1.599  10.788   2.874 -0.0921  0.2292  0.2400
 3501W        W 4365   3.336  10.318   2.485 -0.0485 -0.0135 -0.0610
 3502W        W 4366   1.320   7.639   0.234  0.1692 -0.2875  0.0842
 3503W        W 4367   1.466  11.554   1.200 -0.2173  0.1475  0.0516
 3504W        W 4368   3.380   0.213   1.880 -0.0685 -0.1656  0.0984
 3505W        W 4369   0.686   7.679   4.091  0.0809  0.2873 -0.0446
 3506W        W 4370   1.916   9.834   1.807  0.0796 -0.0625  0.0768
 3507W        W 4371   4.166  11.232   1.336  0.0960 -0.0071  0.0161
 3508W        W 4372   3.548   6.276  12.525  0.3829 -0.0436 -0.0312
 3509W        W 4373  12.657   4.904   2.780  0.0913 -0.0853  0.0984
 3510W        W 4374   3.742  11.329   2.679 -0.2249 -0.0156 -0.0024
 3511W        W 4375   4.160   9.788   1.609  0.1239  0.3272 -0.0144
 3512W        W 4376   1.421   8.229  13.720  0.2176 -0.0840  0.1693
 3513W        W 4377   1.954   8.214   1.902 -0.0398 -0.0692  0.1813
 3514W        W 4378   2.540   7.851   0.771 -0.2739  0.0566  0.0272
 3515W        W 4379   2.483   8.797   0.862  0.0456  0.0160  0.0817
 3516W        W 4380   1.533  11.315   4.796 -0.1363  0.0707 -0.3453
 3517W        W 4381   0.029   9.600   3.915 -0.0679 -0.0854 -0.0567
 3518W        W 4382   1.191  10.507   3.683  0.0983 -0.0674 -0.2540
 3519W        W 4383   2.436   9.406  13.650  0.1478  0.0311 -0.1114
 3520W        W 4384   1.187   7.556   1.453  0.2253  0.1721  0.1333
 3521W        W 4385   4.105  10.177  13.173 -0.0040 -0.0427  0.0687
 3522W        W 4386   4.333  10.555   0.806  0.3672  0.0248  0.3164
 3523W        W 4387   3.578  10.373   2.945 -0.1652 -0.0354  0.4667
 3524W        W 4388   2.742   9.746   1.358 -0.2514  0.2962  0.1833
 3525W        W 4389   1.346  10.975   3.833  0.3336  0.1749  0.2142
 3526W        W 4390   2.540  10.737   5.631 -0.1691  0.1480 -0.2149
 3527W        W 4391   5.192   7.179   2.297 -0.4461 -0.3666  0.2160
 3528W        W 4392   0.713   7.175   3.237 -0.2338 -0.0677  0.0162
 3529W        W 4393   0.295   6.736   1.909  0.0258  0.1773 -0.0760
 3530W        W 4394   1.470   8.048  12.410  0.1043  0.0331 -0.3667
 3531W        W 4395   0.764  11.130   1.418  0.0804  0.1991  0.0468
 3532W        W 4396   4.319   9.724   0.646 -0.0363 -0.0361  0.1178
 3533W        W 4397   0.374   9.309   0.026  0.0004  0.1352 -0.2028
 3534W        W 4398  12.618   8.786  13.983 -0.1460  0.1543 -0.2247
 3535W        W 4399  13.470   8.812   3.475 -0.0761 -0.1149  0.3009
 3536W        W 4400   2.612   7.749   0.289 -0.1716  0.2333 -0.1751
 3537W        W 4401   4.163   9.153   4.282 -0.1250 -0.1185  0.3995
 3538W        W 4402   3.030  10.973   1.254  0.2190 -0.1246 -0.0232
 3539W        W 4403  13.327   7.768   1.501  0.2632 -0.2487  0.1692
 3540W        W 4404   3.510   4.430  12.998 -0.1291 -0.0460  0.1849
 3541W        W 4405   0.830   8.195  13.703  0.1356  0.2217  0.1496
 3542W        W 4406   2.909   5.922   0.458  0.0782 -0.0178 -0.0608
 3543W        W 4407   1.710   7.820  13.570  0.0477  0.0265 -0.0038
 3544W        W 4408   4.327   8.235   1.270  0.1269 -0.2197 -0.0416
 3545W        W 4409  13.082   7.134   2.509 -0.1799  0.9022 -0.0455
 3546W        W 4410   0.247  10.847   2.858  0.1113  0.1776  0.1879
 3547W        W 4411   3.885  10.605   3.296 -0.1870 -0.1443  0.3614
 3548W        W 4412   2.033   7.105  13.878  0.1502 -0.2151  0.1819
 3549W        W 4413   3.235  10.854   0.539 -0.2051 -0.2430 -0.2764
 3550W        W 4414   6.395  10.488   0.805 -0.2147 -0.0581 -0.1859
 3551W        W 4415   1.363  13.883   2.394  0.0935  0.3479 -0.2407
 3552W        W 4416   0.570  12.189   0.205 -0.0674  0.1013  0.2079
 3553W        W 4417   3.265   6.113   1.718 -0.1130 -0.6850  0.0234
 3554W        W 4418  13.965   8.799   3.510 -0.0311 -0.0283  0.1131
 3555W        W 4419   2.296   8.276   0.102  0.0432  0.1721 -0.0895
 3556W        W 4420   1.827   9.100  13.613  0.1942 -0.0327 -0.0310
 3557W        W 4421   2.322  12.164   3.734 -0.0273 -0.1807  0.1263
 3558W        W 4422   5.005  10.245   4.155 -0.0462  0.1041 -0.1968
 3559W        W 4423   1.758   6.798   0.797 -0.1291 -0.0441 -0.0142
 3560W        W 4424   1.813   7.809   1.670  0.0042  0.3549 -0.0524
 3561W        W 4425   0.111  10.510  13.804 -0.2593  0.4581 -0.0808
 3562W        W 4426   1.537   5.509  11.629 -0.2724  0.0991 -0.3189
 3563W        W 4427   3.483   8.782   3.603  0.0144 -0.2580 -0.2757
 3564W        W 4428   3.200   9.729   1.713 -0.1831  0.1309 -0.1137
 3565W        W 4429   0.404  10.513   4.257 -0.1020  0.1292  0.0206
 3566W        W 4430   0.478  11.215   3.842 -0.1555  0.3979  0.1729
 3567W        W 4431  13.784   8.224   4.843  0.1343  0.1018  0.4413
 3568W        W 4432   2.905   7.562  12.271 -0.2391  0.3122 -0.1466
 3569W        W 4433  13.946   8.729   1.201 -0.2130 -0.3540 -0.0890
 3570W        W 4434   2.731  11.952   3.098 -0.3789 -0.2306 -0.0418
 3571W        W 4435   3.573   9.485   1.310  0.2346  0.2765 -0.0577
 3572W        W 4436  13.154   7.304   0.927  0.1072  0.1196 -0.0706
 3573W        W 4437   1.160  12.147   0.262 -0.1940  0.0961 -0.0429
 3574W        W 4438  12.788   9.729   2.150  0.1312 -0.0662 -0.0950
 3575W        W 4439  12.915  11.385   2.103  0.0476  0.1070  0.0412
 3576W        W 4440  13.231   7.708   3.063  0.2529  0.0840  0.1828
 3577W        W 4441  13.313  10.079   2.823  0.0839 -0.2210 -0.3063
 3578W        W 4442  13.577   6.261   0.940 -0.0323  0.1144 -0.3542
 3579W        W 4443  13.106   8.493   0.099 -0.0853 -0.0119  0.2854
 3580W        W 4444   1.587   7.097   1.176  0.1885 -0.0026 -0.1675
 3581W        W 4445  13.989   8.857   0.201 -0.0840 -0.0553 -0.1658
 3582W        W 4446   2.088   9.200   2.835 -0.1193  0.3080 -0.1342
 3583W        W 4447   3.583   9.793   0.785 -0.0522  0.0176  0.0975
 3584W        W 4448   3.674   9.334   7.081 -0.0677  0.0509  0.0219
 3585W        W 4449   3.988  10.263   5.177  0.1021 -0.3468  0.1427
 3586W        W 4450   6.241  10.993   0.374 -0.0863 -0.0553 -0.0627
 3587W        W 4451   4.353  10.020   4.680 -0.3080 -0.3688  0.0059
 3588W        W 4452   2.809  11.738   5.422 -0.0151  0.3535  0.1535
 3589W        W 4453   2.717  12.756   1.401  0.1607  0.4577 -0.1409
 3590W        W 4454   3.837  13.363   1.119 -0.2650 -0.1057 -0.0064
 3591W        W 4455   2.154   7.059   1.073  0.0267 -0.3361  0.4110
 3592W        W 4456   4.218   9.216   2.575  0.2357  0.0506 -0.2405
 3593W        W 4457   2.014   6.499  13.127 -0.1244 -0.1006 -0.2938
 3594W        W 4458  13.415   5.129   2.784 -0.0563  0.1040  0.2684
 3595W        W 4459   0.838  11.121   0.623  0.1593  0.0368  0.0263
 3596W        W 4460   1.716   9.916   4.925 -0.1928  0.0024  0.1130
 3597W        W 4461   0.785  10.185   3.343 -0.0396  0.1336 -0.1097
 3598W        W 4462   1.388   8.024  11.913 -0.0788  0.0605 -0.2846
 3599W        W 4463  13.601   7.962   3.225  0.0533  0.0462  0.1603
 3600W        W 4464   1.674  12.819   0.839 -0.2001  0.0602 -0.1907
 3601W        W 4465  12.928   8.645  13.558 -0.0908  0.0468 -0.1368
 3602W        W 4466   4.540  10.626   1.319 -0.1608 -0.0839 -0.0315
 3603W        W 4467   5.461   8.320   0.039 -0.0996 -0.5230 -0.0807
 3604W        W 4468   0.249  10.135   3.346  0.2098  0.3598  0.0553
 3605W        W 4469   1.591   9.379   2.625  0.0181  0.2404  0.2218
 3606W        W 4470   1.148   9.774  13.553 -0.1885  0.1387 -0.3125
 3607W        W 4471   5.193   8.592   0.359 -0.0437  0.1031  0.0101
 3608W        W 4472   1.543   8.110   3.728 -0.2781 -0.0519 -0.0699
 3609W        W 4473   1.706   8.063   5.609  0.0693  0.2452  0.0239
 3610W        W 4474   1.110   9.956   0.141 -0.0865 -0.0167  0.0578
 3611W        W 4475  13.108   8.596   1.200 -0.1300  0.3944 -0.0510
 3612W        W 4476   1.741  10.959   1.736  0.0445  0.2824 -0.0724
 3613W        W 4477   0.413   7.583   2.353  0.0387 -0.3055 -0.0727
 3614W        W 4478   0.792   9.192   1.492  0.0138 -0.1202 -0.1900
 3615W        W 4479  13.611   9.820   2.582 -0.4556 -0.2440  0.2982
 3616W        W 4480   2.519  10.064   2.315  0.3057  0.0927 -0.0755
 3617W        W 4481   3.426   9.905   3.627  0.1737  0.3816  0.0518
 3618W        W 4482   1.875   9.423   2.199 -0.0659  0.0006  0.0254
 3619W        W 4483   3.848  12.773  13.861 -0.2268 -0.3612  0.1684
 3620W        W 4484   2.693   7.764  12.699  0.2178  0.1747  0.1229
 3621W        W 4485   2.334   8.450   1.210  0.4344 -0.0269 -0.2602
 3622W        W 4486   3.243   8.698  13.983 -0.0830  0.0007  0.0915
 3623W        W 4487   3.778   7.786  11.805  0.2035  0.0310  0.0268
 3624W        W 4488   4.858  11.239   1.958 -0.0097 -0.0227  0.1629
 3625W        W 4489   3.718  11.117   1.420 -0.0921  0.1434 -0.2956
 3626W        W 4490   0.268   7.766   4.490  0.0055  0.4140 -0.0786
 3627W        W 4491  12.928   8.073   3.995  0.1003  0.1044 -0.3618
 3628W        W 4492   3.144  10.156   5.423  0.2992  0.1211  0.1020
 3629W        W 4493   3.142  10.587   3.121 -0.0014 -0.0217 -0.0701
 3630W        W 4494   0.801   7.443   3.621 -0.1348 -0.2491 -0.0936
 3631W        W 4495  13.916   8.270   1.861 -0.2721 -0.0600 -0.1280
 3632W        W 4496   0.526   8.780   1.415  0.3365  0.0987  0.0564
 3633W        W 4497  12.224   6.962   5.271 -0.2021  0.0801  0.3049
 3634W        W 4498   6.209  10.308   3.803 -0.0481  0.0002 -0.1373
 3635W        W 4499   2.868  10.446   5.807  0.0942 -0.1293 -0.0010
 3636W        W 4500   2.744   9.876   1.865  0.2913 -0.1264  0.0570
 3637W        W 4501   4.924   9.990  13.742 -0.0417 -0.2889 -0.0920
 3638W        W 4502   2.214  11.004   3.664 -0.2025 -0.1251 -0.2282
 3639W        W 4503   2.599  11.588   0.480 -0.0126  0.4130 -0.2076
 3640W        W 4504   2.650  11.524   4.436 -0.0114  0.0545  0.0644
 3641W        W 4505   1.307   8.852   3.261  0.1470  0.0037 -0.0260
 3642W        W 4506   2.740   9.535   2.221 -0.2885  0.2673 -0.0282
 3643W        W 4507   3.980  11.050   3.151 -0.2041  0.0615  0.3219
 3644W        W 4508   2.413  10.852   3.207  0.1567  0.3618  0.2295
 3645W        W 4509  13.616   7.264   2.508  0.1063 -0.2808  0.0901
 3646W        W 4510   2.155   9.665   3.004  0.0733  0.0190  0.1773
 3647W        W 4511   1.491  10.379   2.591  0.0630  0.0626  0.2377
 3648W        W 4512   0.552   9.993   2.863 -0.0097  0.2140  0.3068
 3649W        W 4513   1.691  11.763   3.635 -0.0126 -0.0894  0.2362
 3650W        W 4514   0.212   9.707  10.164  0.4006  0.3317  0.1107
 3651W        W 4515   0.008   9.171   7.458  0.2253 -0.2802  0.3979
 3652W        W 4516  13.845   9.711   7.726 -0.1140 -0.0716  0.2207
 3653W        W 4517   4.371   9.470   5.890  0.1488 -0.1223  0.3247
 3654W        W 4518   3.113  12.589   6.109 -0.0507 -0.4108 -0.0619
 3655W        W 4519   1.180  12.095   4.820  0.0149 -0.0811 -0.0293
 3656W        W 4520   1.062   8.030   3.892 -0.2883 -0.0780  0.1046
 3657W        W 4521   0.943   7.172   2.435 -0.0690 -0.0758 -0.0617
 3658W        W 4522  12.997  10.096   6.787 -0.1159  0.0847 -0.0958
 3659W        W 4523  12.037   4.583   5.751  0.0058  0.0090  0.1524
 3660W        W 4524   1.844  10.851   7.655 -0.2744 -0.5017 -0.2245
 3661W        W 4525   3.049   6.527   3.873  0.1552 -0.0858 -0.2283
 3662W        W 4526   2.576   9.823   4.739 -0.0500 -0.2222 -0.0106
 3663W        W 4527   4.816   9.859   4.431  0.2520  0.1704 -0.0971
 3664W        W 4528  13.573   6.525   7.990  0.2711 -0.3723 -0.0659
 3665W        W 4529   1.742  10.909   9.647  0.1654 -0.1440 -0.0023
 3666W        W 4530   3.342  10.958   4.235  0.3045  0.1191  0.0062
 3667W        W 4531   1.331   6.013   6.035 -0.0616  0.2994  0.4791
 3668W        W 4532  13.881  12.949   8.538  0.0031  0.1761 -0.1550
 3669W        W 4533   4.210   7.031   4.704  0.1912 -0.0432 -0.0961
 3670W        W 4534   5.997  11.121   5.766  0.2120 -0.0317  0.4062
 3671W        W 4535   5.618   9.132   3.201  0.0923  0.0232  0.1002
 3672W        W 4536   4.089  11.338   6.138 -0.0274  0.3276 -0.3333
 3673W        W 4537   2.900   8.489   7.691  0.1100 -0.2148  0.1098
 3674W        W 4538  13.910   8.715   4.843  0.0107 -0.1764 -0.4140
 3675W        W 4539   1.423   8.460   7.551  0.0812  0.0521  0.0608
 3676W        W 4540   4.109   7.570   7.531 -0.0017  0.1014 -0.4040
 3677W        W 4541   2.547  11.066   4.791  0.2906 -0.1165 -0.1806
 3678W        W 4542   1.768  10.423   7.338  0.0244 -0.2412  0.1359
 3679W        W 4543   2.142  10.495   3.523 -0.4911 -0.2485 -0.0128
 3680W        W 4544   2.050  12.600   7.203 -0.2179 -0.0824 -0.3053
 3681W        W 4545   3.034  11.045   8.456 -0.3889 -0.0175  0.1391
 3682W        W 4546   0.575  11.880  10.180  0.1455 -0.2958  0.0194
 3683W        W 4547   3.674   8.979   9.278  0.1774 -0.0156  0.2762
 3684W        W 4548   1.544  10.349  10.401 -0.1048  0.1059  0.1546
 3685W        W 4549   4.300   9.832   6.958  0.0845 -0.1597 -0.3420
 3686W        W 4550   2.838   7.961   4.359 -0.0910 -0.0969 -0.1480
 3687W        W 4551   1.585   9.501   7.756  0.1596  0.1723 -0.0489
 3688W        W 4552   4.290   8.040   5.556  0.1659  0.0557 -0.1462
 3689W        W 4553   2.953   8.745   7.240  0.0395 -0.0700 -0.0020
 3690W        W 4554   2.156  10.364   4.084 -0.0214 -0.0678  0.2253
 3691W        W 4555   2.723   5.897   4.486  0.2559  0.1128  0.0779
 3692W        W 4556   1.242  12.265   7.148  0.0188 -0.0851 -0.1291
 3693W        W 4557   1.953  11.257   2.915 -0.0047 -0.0963  0.0511
 3694W        W 4558   1.184   8.907   2.571  0.2698 -0.2079 -0.1568
 3695W        W 4559   1.539   8.165   6.147 -0.2881  0.3111 -0.1502
 3696W        W 4560   1.043   8.665   6.814  0.0480 -0.0640 -0.1605
 3697W        W 4561   1.970   8.155   2.407 -0.0358  0.3186 -0.2483
 3698W        W 4562   2.605   9.170   7.166  0.1988 -0.0027 -0.0521
 3699W        W 4563   2.698   7.908   4.850  0.1280  0.1447  0.1208
 3700W        W 4564   0.527   8.428   6.543 -0.2105  0.0990  0.0688
 3701W        W 4565   2.968  11.566   7.617  0.1162 -0.2421  0.1075
 3702W        W 4566   2.786  12.254   6.003  0.1038  0.0911  0.1845
 3703W        W 4567   4.734   8.065   4.789  0.2271 -0.0548 -0.0461
 3704W        W 4568   0.408   7.396   6.546  0.1563  0.0451  0.2419
 3705W        W 4569  13.675  11.687   3.976  0.1311 -0.2248 -0.3663
 3706W        W 4570   1.034   8.091   6.886 -0.1531 -0.1720  0.1316
 3707W        W 4571   0.100  12.609   7.589 -0.1541 -0.0754 -0.2712
 3708W        W 4572   2.208   8.997   1.848 -0.0001  0.0997  0.4717
 3709W        W 4573   1.717  10.327   3.723 -0.0671 -0.2102 -0.1092
 3710W        W 4574  13.838  10.807   7.399  0.0578 -0.1347  0.0199
 3711W        W 4575  13.888   9.336   5.641 -0.1165 -0.0266  0.0164
 3712W        W 4576  12.656   5.588   4.987 -0.2314 -0.0337 -0.0897
 3713W        W 4577   3.456   7.320   5.302  0.0795  0.4183  0.0541
 3714W        W 4578   3.486   8.467   3.068 -0.1735 -0.2087 -0.0432
 3715W        W 4579  12.695  10.708   2.748 -0.1469 -0.1806 -0.0740
 3716W        W 4580   0.232   7.249   3.141  0.1131 -0.3503  0.2953
 3717W        W 4581   1.597   9.711   3.696 -0.1708  0.0123  0.1697
 3718W        W 4582   2.314   6.882   4.583 -0.3848 -0.0183  0.0552
 3719W        W 4583   4.933  11.071   7.277 -0.0479 -0.3643  0.0251
 3720W        W 4584   2.025   7.020   5.865  0.1033 -0.0424 -0.4370
 3721W        W 4585   3.103  12.525   7.049  0.3099 -0.0776  0.1986
 3722W        W 4586   5.122  10.643   8.541  0.0117 -0.2602 -0.1240
 3723W        W 4587   1.272  10.907   3.323  0.0832  0.0385 -0.1059
 3724W        W 4588   1.161  11.512   5.077 -0.2222 -0.0441 -0.0562
 3725W        W 4589   1.843   8.792   5.311  0.2760  0.3248 -0.2232
 3726W        W 4590   1.139   7.534   4.981 -0.1633  0.2193 -0.1732
 3727W        W 4591   1.573   9.306   6.208  0.4170 -0.1270  0.0530
 3728W        W 4592  12.515  11.156   5.345  0.0489 -0.1877  0.1971
 3729W        W 4593   0.402   7.304   4.799  0.0823 -0.0870  0.3122
 3730W        W 4594   2.205  10.710   6.750  0.1053  0.3755  0.0733
 3731W        W 4595   0.214   5.669   4.903  0.1425  0.0810  0.1196
 3732W        W 4596   2.343   8.762   6.206  0.0136 -0.1052 -0.0003
 3733W        W 4597   3.118  10.969   6.980 -0.0479 -0.0476  0.1382
 3734W        W 4598   1.619   6.211   3.216  0.0722  0.1329  0.2511
 3735W        W 4599   4.040  10.495   7.579 -0.0068  0.0337 -0.1905
 3736W        W 4600   3.129   7.312   9.490 -0.0738  0.0003  0.1470
 3737W        W 4601   4.292  10.356   8.548  0.0433 -0.0107  0.2745
 3738W        W 4602   4.641   8.240   5.317 -0.3745 -0.3284  0.0719
 3739W        W 4603   3.287   8.623   4.045  0.2868 -0.0446 -0.1966
 3740W        W 4604   4.731   8.289   6.322 -0.0267 -0.0236  0.1793
 3741W        W 4605   2.930   9.542   2.669  0.3407 -0.0389  0.0436
 3742W        W 4606   1.399   6.663   3.486  0.0396  0.0879 -0.1429
 3743W        W 4607   3.219   9.188   9.191 -0.3446 -0.0598  0.1481
 3744W        W 4608   2.968   6.381   4.462  0.0017 -0.0744 -0.0832
 3745W        W 4609   4.677   9.109   3.301  0.1841 -0.0666  0.2095
 3746W        W 4610   0.295   8.758   6.785 -0.2004 -0.0331  0.0289
 3747W        W 4611  13.556   6.030   2.476 -0.1121 -0.0698  0.0159
 3748W        W 4612   2.033   8.323   7.035 -0.1071 -0.0447 -0.2529
 3749W        W 4613   5.523  10.048   2.993  0.0692 -0.2296  0.0996
 3750W        W 4614  13.081   9.609   5.327  0.0247 -0.1079 -0.1756
 3751W        W 4615   3.580   9.903   3.164  0.0313  0.0240 -0.1876
 3752W        W 4616   2.215   9.907   6.063 -0.0522  0.0290 -0.1043
 3753W        W 4617   5.222   6.555   4.527  0.1098 -0.0572  0.0517
 3754W        W 4618   3.989  10.914   7.163  0.2525  0.0165 -0.0112
 3755W        W 4619   2.433   9.513   5.762 -0.1147  0.2505  0.0104
 3756W        W 4620   4.166   8.833   7.956  0.0554 -0.1921 -0.2430
 3757W        W 4621   2.997   7.917   6.236 -0.2020  0.1587  0.1048
 3758W        W 4622   0.976   8.898   3.738 -0.0388 -0.0864 -0.2585
 3759W        W 4623  11.348  10.435   3.391  0.0763  0.0239  0.2496
 3760W        W 4624   1.859   9.948   7.594 -0.1243 -0.1702  0.1397
 3761W        W 4625   3.031   6.420   7.550 -0.0406  0.0959 -0.4190
 3762W        W 4626   2.347   8.473   7.614 -0.1410  0.1171 -0.0558
 3763W        W 4627   2.862  10.434   2.459 -0.1129  0.3722 -0.0686
 3764W        W 4628   2.046   8.296   5.251 -0.2459 -0.0690 -0.3175
 3765W        W 4629   4.949   7.605   8.450  0.2231 -0.3086  0.1176
 3766W        W 4630   2.061  10.220   6.439  0.2881 -0.1287 -0.0705
 3767W        W 4631   2.948   7.484   4.446  0.3809  0.1419  0.1190
 3768W        W 4632   1.668  10.247   5.267 -0.1031  0.1720  0.0527
 3769W        W 4633   2.975   8.936   3.774  0.3350  0.0584  0.4685
 3770W        W 4634   1.718   9.934   3.186 -0.2672  0.0817  0.1653
 3771W        W 4635   4.235  11.566   4.220  0.2024  0.1888  0.0844
 3772W        W 4636   3.413   9.086   5.461  0.3080 -0.0908 -0.2818
 3773W        W 4637   2.738   9.786   5.285 -0.3944 -0.0176  0.0439
 3774W        W 4638   2.379   9.449   5.025 -0.2620  0.2438  0.1815
 3775W        W 4639   2.384   7.990   7.113 -0.0722 -0.0181  0.0158
 3776W        W 4640   1.649  10.629   8.132 -0.0986 -0.0978 -0.0663
 3777W        W 4641   5.484   9.231   4.984  0.1834  0.2757  0.1410
 3778W        W 4642  13.554  11.611   8.290 -0.1411 -0.1337 -0.3521
 3779W        W 4643   1.282   9.889   8.087  0.3673 -0.2044 -0.0506
 3780W        W 4644   3.859   8.238   4.036 -0.0396  0.0514 -0.2103
 3781W        W 4645   2.180  10.463   5.967 -0.2523  0.0533 -0.1329
 3782W        W 4646   4.018   6.312   5.045 -0.0447  0.1620  0.2222
 3783W        W 4647   4.438   9.506   6.399 -0.0908  0.2726 -0.2016
 3784W        W 4648  12.476   7.830   4.635 -0.2274  0.1173  0.2168
 3785W        W 4649   1.063   9.418   7.442  0.0304  0.1937  0.0350
 3786W        W 4650   3.888   8.936   6.123 -0.2526  0.1445 -0.0410
 3787W        W 4651   0.668  11.756   4.997  0.0683  0.0055 -0.0672
 3788W        W 4652   4.081  12.525   7.194 -0.1650  0.2208  0.1081
 3789W        W 4653   5.218   9.582   6.376 -0.1209  0.1773 -0.1846
 3790W        W 4654   2.742   9.631   8.587  0.2672  0.2992 -0.2017
 3791W        W 4655   1.103   9.140   4.918  0.2084  0.1908 -0.2841
 3792W        W 4656   0.694   7.622   1.209 -0.0566 -0.0021 -0.2173
 3793W        W 4657   4.457   8.177   6.904 -0.0542  0.1201 -0.4265
 3794W        W 4658   1.794   6.953   4.798 -0.2012  0.0377 -0.1128
 3795W        W 4659   2.621   6.318   4.091  0.0691 -0.0076 -0.0665
 3796W        W 4660   3.229   8.410   6.299 -0.1040 -0.2021  0.1794
 3797W        W 4661   2.377  11.236   6.678 -0.3102 -0.0804  0.4005
 3798W        W 4662   3.055  10.118   6.069 -0.2905 -0.4163 -0.1526
 3799W        W 4663   3.188   9.232   7.307 -0.0233 -0.4573  0.4218
 3800W        W 4664   0.942   6.731   3.298 -0.0858 -0.0052  0.0796
 3801W        W 4665  13.627  13.179   3.740  0.0786  0.3909  0.0040
 3802W        W 4666   2.439   8.571   1.746  0.1073 -0.1993  0.1143
 3803W        W 4667   3.958  10.053   6.575  0.3368  0.0494 -0.0511
 3804W        W 4668   1.284   6.768   7.333  0.0056 -0.1313 -0.0918
 3805W        W 4669   2.452  13.227   6.677 -0.1376  0.0993  0.0489
 3806W        W 4670   1.366   7.118   4.197  0.0634  0.1126 -0.0779
 3807W        W 4671   0.515   7.934   3.694 -0.3030 -0.1561  0.1628
 3808W        W 4672   1.648   9.155   3.641  0.2381  0.0363 -0.3000
 3809W        W 4673   3.873   9.641   3.469  0.0717 -0.5827  0.2051
 3810W        W 4674   2.586  11.190   7.240  0.0633  0.1325 -0.3311
 3811W        W 4675   3.620   9.627   7.572  0.1752 -0.0468 -0.0287
 3812W        W 4676   3.293   8.060   6.728  0.0793  0.1300 -0.0053
 3813W        W 4677   3.027   8.700   9.512 -0.2163 -0.2483  0.0400
 3814W        W 4678   1.639   8.527   5.752  0.2330  0.3221 -0.0439
 3815W        W 4679   0.259   6.945   6.345 -0.3563 -0.1569  0.0294
 3816W        W 4680   1.440  12.956   4.281  0.3538  0.4843  0.1495
 3817W        W 4681   2.700  10.867   6.636 -0.0562 -0.0203  0.3051
 3818W        W 4682   0.870  10.243   4.170 -0.2233  0.1583 -0.0070
 3819W        W 4683   2.270   8.746   4.164 -0.3803 -0.1803  0.1450
 3820W        W 4684   1.399   8.417   4.459  0.3304 -0.2212  0.0269
 3821W        W 4685   2.002  11.306   7.236 -0.2012  0.1896  0.1531
 3822W        W 4686   2.937   9.945   4.399 -0.0647  0.0202 -0.1050
 3823W        W 4687   5.447   8.775   5.081  0.2215 -0.3538  0.1105
 3824W        W 4688   3.684   8.783   2.571  0.2496 -0.1084 -0.2497
 3825W        W 4689   0.183  11.916   7.953  0.1482 -0.0057  0.1638
 3826W        W 4690  13.689  10.108   7.464  0.1053 -0.0130 -0.0273
 3827W        W 4691  13.047  12.012   3.175  0.1969 -0.0233  0.0621
 3828W        W 4692   1.955   9.038   6.377 -0.1135  0.0121 -0.0317
 3829W        W 4693   0.147   8.644   4.047  0.2283 -0.0479  0.1767
 3830W        W 4694   3.800   7.690   5.243  0.1338  0.2032 -0.2373
 3831W        W 4695   1.555   9.325   5.651  0.0422  0.1321  0.0433
 3832W        W 4696   2.229  10.255   6.946 -0.0445  0.3050 -0.0617
 3833W        W 4697   2.361   6.630   5.883 -0.3435 -0.0067 -0.0070
 3834W        W 4698   2.886   9.402   4.124 -0.1732  0.0307  0.0557
 3835W        W 4699   3.372   7.453   3.658 -0.0415 -0.2223 -0.2786
 3836W        W 4700   0.315   7.901   1.442  0.2309  0.2382 -0.3560
 3837W        W 4701   1.249  10.309   7.392  0.0809  0.1281  0.1636
 3838W        W 4702  13.244   9.088   6.169  0.2077  0.1978  0.0660
 3839W        W 4703   1.693   7.540   4.131  0.3265  0.2584 -0.2912
 3840W        W 4704  13.648  11.250   7.267 -0.2949  0.2003 -0.0291
 3841W        W 4705   0.519   7.449   7.518 -0.1703 -0.2460 -0.1409
 3842W        W 4706   1.625   8.069   7.791 -0.1280  0.2718 -0.0815
 3843W        W 4707   2.117   8.605   5.710  0.2023  0.3815 -0.0183
 3844W        W 4708   2.241   6.950   7.289 -0.0949 -0.2219 -0.5084
 3845W        W 4709   3.725   7.112   0.586 -0.2097  0.1556  0.2726
 3846W        W 4710   2.616   6.945   5.119 -0.0010 -0.1473 -0.1781
 3847W        W 4711   3.752   8.112   6.572  0.1559 -0.0061  0.0169
 3848W        W 4712   3.404   8.627   8.396 -0.0672  0.1423  0.0805
 3849W        W 4713  13.844   9.281   8.131 -0.1680  0.2512 -0.3923
 3850W        W 4714   1.647   7.332   5.048 -0.0191 -0.0432 -0.0186
 3851W        W 4715   4.008   6.605   3.277 -0.0911  0.0854 -0.0551
 3852W        W 4716   0.943   8.982   7.227 -0.2534  0.0137  0.0161
 3853W        W 4717   2.513   8.459   5.479 -0.2493  0.0336 -0.1624
 3854W        W 4718  12.536   6.114   3.463 -0.2354 -0.1450  0.3654
 3855W        W 4719   1.472   8.664   7.058 -0.4617 -0.1813 -0.0240
 3856W        W 4720   1.870   8.780   6.775  0.0161 -0.1316 -0.2441
 3857W        W 4721   2.989   9.969   2.337  0.0165 -0.1820 -0.0255
 3858W        W 4722   1.358   9.563   4.864  0.1146  0.2232 -0.0163
 3859W        W 4723  13.777   8.466   6.774  0.0599  0.2338 -0.0112
 3860W        W 4724  13.262  10.953   3.518 -0.1905 -0.1134 -0.0667
 3861W        W 4725   1.982   7.224   7.773 -0.1790  0.0359  0.2459
 3862W        W 4726   1.439   7.168   5.948  0.0574  0.1891 -0.2706
 3863W        W 4727   4.928   9.249   4.454 -0.1581 -0.0335 -0.0627
 3864W        W 4728   2.286   7.430   6.020  0.0857 -0.0822  0.1230
 3865W        W 4729   3.526  11.216   4.803 -0.0074 -0.1082 -0.1037
 3866W        W 4730   3.706  10.889   4.540 -0.1041 -0.0400  0.0844
 3867W        W 4731   3.236   8.004   4.699 -0.0311  0.1906  0.1189
 3868W        W 4732   2.495  11.700   9.221  0.1442 -0.1075 -0.0464
 3869W        W 4733   3.132   6.886   5.308  0.2271 -0.1703 -0.0241
 3870W        W 4734   4.784   8.675   5.549  0.1172 -0.0831  0.2288
 3871W        W 4735   1.343  10.768   7.175  0.3086  0.0641 -0.3383
 3872W        W 4736  12.125   5.805   2.620 -0.4670  0.1862 -0.0027
 3873W        W 4737   2.810  11.175   4.009  0.0351  0.0123  0.2099
 3874W        W 4738   3.889   8.656   7.586 -0.2437  0.0200  0.1820
 3875W        W 4739   3.229   9.733   8.352  0.0522  0.0506 -0.1777
 3876W        W 4740   4.003   6.377   5.557 -0.0034  0.1207  0.1229
 3877W        W 4741   4.704  11.283   4.221  0.1147 -0.0056  0.0306
 3878W        W 4742   1.711  11.335   5.771  0.0666 -0.1074 -0.6881
 3879W        W 4743   0.195   9.453   5.253  0.0127 -0.1180  0.0998
 3880W        W 4744   4.303  10.338   6.796 -0.2393  0.1568 -0.0522
 3881W        W 4745   0.433   9.046   7.244  0.0592 -0.1809 -0.3130
 3882W        W 4746   1.945  10.808   4.034 -0.0777  0.0494 -0.0672
 3883W        W 4747   1.596  10.147   9.054 -0.3068 -0.1875 -0.0678
 3884W        W 4748   1.539   9.371   8.303 -0.4351  0.3876  0.3196
 3885W        W 4749   2.796  12.082   3.702 -0.1158 -0.0299  0.3596
 3886W        W 4750   3.408   5.463   9.085  0.2783 -0.0201 -0.0385
 3887W        W 4751   2.780   8.987   6.302  0.1313 -0.2336 -0.0638
 3888W        W 4752   1.947   9.119   7.647  0.1518 -0.0851  0.1973
 3889W        W 4753   2.786  12.431   4.496  0.2777  0.4230 -0.1569
 3890W        W 4754   2.066   9.992   8.783  0.0105  0.2556 -0.2179
 3891W        W 4755   0.592   8.547   6.013  0.0671 -0.1085  0.1352
 3892W        W 4756   0.472   6.678   3.235  0.1029  0.1124 -0.1283
 3893W        W 4757   1.961   8.008   3.126  0.0954 -0.0583 -0.4287
 3894W        W 4758   3.345  11.802   3.752  0.2933 -0.1328 -0.1681
 3895W        W 4759   2.565   9.306   4.555  0.1870  0.0526 -0.3254
 3896W        W 4760  13.619   9.184   7.004 -0.2019 -0.0369  0.1622
 3897W        W 4761   4.315  11.124   5.547  0.0789 -0.0012 -0.1774
 3898W        W 4762   3.415   6.674   6.312 -0.0724 -0.0244  0.1278
 3899W        W 4763   2.047   8.049   7.488  0.0724 -0.1165  0.2422
 3900W        W 4764  13.309  11.538   6.766 -0.0002  0.2490  0.2493
 3901W        W 4765   2.729   9.406   6.574  0.4947  0.0432  0.0965
 3902W        W 4766   1.804   9.710   9.107  0.0537 -0.0422 -0.1477
 3903W        W 4767   3.743   9.450   1.812 -0.3323  0.1159 -0.1321
 3904W        W 4768   3.660  11.303   5.899 -0.0680  0.1471 -0.1713
 3905W        W 4769   3.677   6.233   3.322 -0.2650  0.0525  0.5176
 3906W        W 4770   0.544   6.477   3.682  0.0779 -0.1748  0.3676
 3907W        W 4771  13.262  11.521   4.667 -0.2449 -0.0855  0.1514
 3908W        W 4772   0.353   4.316   7.320 -0.1412 -0.4125 -0.2757
 3909W        W 4773   3.272   6.582   5.753 -0.3203  0.1183 -0.3255
 3910W        W 4774   2.489  11.514   7.621  0.2702  0.0299 -0.1296
 3911W        W 4775   2.717   7.500   9.067 -0.1664 -0.3683 -0.0661
 3912W        W 4776   2.669   8.263   6.357 -0.0514  0.1847  0.5422
 3913W        W 4777   3.410  12.889   6.404  0.1534 -0.1234  0.1739
 3914W        W 4778   1.131  11.138   8.419 -0.0070 -0.0784 -0.0863
 3915W        W 4779   1.193  10.393   4.497 -0.0865 -0.0058  0.0928
 3916W        W 4780   2.529   8.659   3.669 -0.0369  0.1723  0.1990
 3917W        W 4781   1.117   9.380   8.010  0.0321  0.2960  0.2734
 3918W        W 4782   5.996   8.285   3.777 -0.3442 -0.0424 -0.2106
 3919W        W 4783   1.494   8.173   2.169  0.2691 -0.0341  0.1139
 3920W        W 4784   4.159   9.832   8.153 -0.0413 -0.2658 -0.2010
 3921W        W 4785   2.401   8.995   6.698  0.1208 -0.1137  0.1202
 3922W        W 4786  13.188  11.781   6.204 -0.0346 -0.2411  0.2128
 3923W        W 4787   1.390  12.148   6.680 -0.0803 -0.1581 -0.3905
 3924W        W 4788   3.188   7.233   8.860  0.1051  0.0705  0.1359
 3925W        W 4789   0.672   7.818   7.164  0.2360 -0.1175  0.2283
 3926W        W 4790   2.272   7.821   4.332 -0.0678 -0.1432  0.0871
 3927W        W 4791   2.023   9.319   3.974  0.2734  0.2289  0.0985
 3928W        W 4792  13.767  10.975   3.760 -0.0270 -0.3320  0.0384
 3929W        W 4793   3.201  10.778   6.008  0.4523  0.0725  0.1299
 3930W        W 4794   2.322  10.625   4.537  0.1172  0.1551  0.1070
 3931W        W 4795   1.370  10.486   6.145 -0.1165 -0.0615  0.0820
 3932W        W 4796   3.789   7.953   4.794  0.1738  0.1138 -0.0161
 3933W        W 4797   3.638   6.871   7.228  0.1371 -0.2456  0.0806
 3934W        W 4798   1.771  11.677   2.057  0.1984 -0.0508 -0.2777
 3935W        W 4799   2.141  10.771   8.038 -0.2649 -0.2642 -0.0134
 3936W        W 4800   4.754   7.745   5.814  0.1204  0.1461 -0.1741
 3937W        W 4801   3.158  10.434   4.470 -0.0093 -0.1012 -0.1906
 3938W        W 4802   2.646  10.221   3.214  0.1636  0.1112  0.0225
 3939W        W 4803   3.956  10.209   4.417 -0.0541 -0.3935 -0.0849
 3940W        W 4804   3.889   8.725   3.902 -0.3364  0.1151 -0.1368
 3941W        W 4805   1.997   8.030   6.035 -0.1453  0.0121 -0.0679
 3942W        W 4806   1.625   8.323   3.240  0.0626 -0.2376  0.2866
 3943W        W 4807   4.679   7.573   3.735 -0.3772  0.2344  0.0852
 3944W        W 4808   0.250   8.020   7.283 -0.0321 -0.1507 -0.0102
 3945W        W 4809   3.926  10.303   5.750 -0.1534  0.1027  0.0912
 3946W        W 4810   4.202   7.122   5.915  0.2113 -0.1522  0.0414
 3947W        W 4811   1.484   8.906   6.481 -0.1297 -0.1290 -0.2695
 3948W        W 4812   1.378   7.666   7.036 -0.1393  0.2277 -0.2425
 3949W        W 4813   1.492   8.144   7.147 -0.3758 -0.0139 -0.1765
 3950W        W 4814   0.567   9.533   7.249  0.0320  0.0105  0.3450
 3951W        W 4815   4.779   6.836   4.412 -0.3086 -0.0792  0.0806
 3952W        W 4816   1.577   8.911   1.664  0.0906  0.1296 -0.0275
 3953W        W 4817   0.615  10.819   7.227 -0.2767  0.0138 -0.0703
 3954W        W 4818   5.011   9.230   8.323 -0.3002 -0.1349 -0.1272
 3955W        W 4819   1.301   6.607   5.234  0.0666  0.0432  0.0007
 3956W        W 4820   0.439   7.263   6.005 -0.0024  0.2381 -0.2810
 3957W        W 4821   1.830   8.957   5.873 -0.0309 -0.3372 -0.5600
 3958W        W 4822   1.153   8.831   1.386 -0.1310 -0.2054 -0.1541
 3959W        W 4823  14.003   9.744   7.245  0.1312 -0.0641 -0.0771
 3960W        W 4824   4.044   8.362   7.079  0.0463  0.1489 -0.3401
 3961W        W 4825   0.998   8.357   4.927  0.1074 -0.0944  0.0106
 3962W        W 4826   0.314  12.129   7.529  0.1846  0.4411  0.1482
 3963W        W 4827   1.838   8.594   6.224 -0.0481  0.0161  0.1564
 3964W        W 4828   0.593   8.333   7.006  0.0078  0.0127  0.0705
 3965W        W 4829   4.856   8.751   1.267  0.0541 -0.0150 -0.1162
 3966W        W 4830   1.219  11.497   8.957 -0.0870  0.0551  0.3671
 3967W        W 4831   3.513  10.176   6.849  0.0865 -0.0885  0.4769
 3968W        W 4832   0.166  10.762   4.716  0.0434  0.0447  0.2698
 3969W        W 4833   4.371  13.589   3.047 -0.2086  0.3874  0.0561
 3970W        W 4834   1.794   7.551   5.952  0.1318  0.0544  0.0948
 3971W        W 4835   2.032   9.785   5.583 -0.2650 -0.0874  0.2473
 3972W        W 4836   2.579  10.210   3.759 -0.1154  0.0204 -0.3108
 3973W        W 4837   4.538  11.279   6.483 -0.3298 -0.0957 -0.2410
 3974W        W 4838   0.910   5.690   4.843  0.0052  0.1756  0.0795
 3975W        W 4839   1.179   9.365   2.381 -0.1600  0.2387 -0.2456
 3976W        W 4840   0.856   7.990   1.578 -0.0530  0.3105  0.2808
 3977W        W 4841   0.530  10.298   4.806  0.0018 -0.1794 -0.3612
 3978W        W 4842   3.116   9.566   7.792 -0.1762 -0.2488  0.5812
 3979W        W 4843   4.294   9.808   2.670  0.2658  0.0026 -0.0611
 3980W        W 4844   4.250   9.045   6.691 -0.0033 -0.3077 -0.1782
 3981W        W 4845   3.816   9.852   7.078  0.0162  0.0069  0.1762
 3982W        W 4846   4.612   9.599   8.152  0.0194 -0.2029  0.0618
 3983W        W 4847   3.898  13.889   7.465 -0.2579  0.0676  0.0214
 3984W        W 4848   3.505   9.994   6.370 -0.5420  0.4755  0.1927
 3985W        W 4849   4.684   9.312   5.042 -0.1832 -0.1427 -0.0552
 3986W        W 4850   2.356  10.737   5.059  0.1986  0.3031 -0.1341
 3987W        W 4851   2.062   8.845   3.690 -0.1662  0.0815 -0.2146
 3988W        W 4852   1.086   9.270   6.439  0.1880 -0.1872 -0.0825
 3989W        W 4853   1.658   9.557   7.235  0.0307 -0.1468 -0.0818
 3990W        W 4854   0.302   9.057   8.173  0.0459 -0.1864  0.2778
 3991W        W 4855  13.545  11.966   3.036  0.1671 -0.0267 -0.1528
 3992W        W 4856   2.065   9.285   5.461  0.1148  0.0734  0.1778
 3993W        W 4857   2.488   7.675   3.839 -0.0047 -0.3841  0.1067
 3994W        W 4858   1.257   6.604   6.821 -0.1629  0.0526  0.0135
 3995W        W 4859   2.145  10.328   5.432 -0.0857 -0.0382 -0.0112
 3996W        W 4860   1.174   8.315   6.455 -0.2381 -0.4185  0.4274
 3997W        W 4861   2.969   6.719   6.574  0.3012 -0.0879 -0.2941
 3998W        W 4862   1.977   7.895   3.953 -0.0768  0.1080  0.4971
 3999W        W 4863   2.831  10.768   5.192  0.1712 -0.0555 -0.1181
 4000W        W 4864   1.754  10.578   5.732 -0.1982  0.1802  0.0205
 4001W        W 4865   2.791   8.550   5.965  0.3440  0.1828 -0.1092
 4002W        W 4866   2.115   8.218   4.564  0.1500  0.1778 -0.1042
 4003W        W 4867   0.405  11.431   5.186  0.0909 -0.3569  0.0499
 4004W        W 4868   3.877   9.160   7.479  0.0562 -0.2456 -0.0974
 4005W        W 4869   1.083  11.668   7.527 -0.1436 -0.1036 -0.0989
 4006W        W 4870   1.697   6.216   7.827  0.1174  0.1893 -0.1492
 4007W        W 4871   1.601   9.203   5.163  0.2545  0.0664  0.1179
 4008W        W 4872   2.723   9.775   8.138 -0.0340  0.0015 -0.0127
 4009W        W 4873   1.574   9.004   7.974  0.2580 -0.0612  0.2099
 4010W        W 4874  13.494   7.379   3.954 -0.1034 -0.0513 -0.1955
 4011W        W 4875   0.978  11.158   7.343 -0.0969  0.3160 -0.1761
 4012W        W 4876   2.442   8.454   6.766 -0.1731  0.0080  0.0477
 4013W        W 4877   1.477  10.564   4.898  0.0142 -0.2003  0.2726
 4014W        W 4878   1.514  11.574   8.331 -0.2243 -0.0992 -0.0320
 4015W        W 4879   2.704   6.222   1.759 -0.4353  0.1938 -0.0499
 4016W        W 4880   3.379   7.092   5.808 -0.0181 -0.1027 -0.1175
 4017W        W 4881   1.749   8.941   4.112 -0.0582  0.2375 -0.4287
 4018W        W 4882   1.509   6.619   5.771 -0.1584  0.0788 -0.3371
 4019W        W 4883   2.368   8.918   3.228 -0.3029 -0.1866  0.1186
 4020W        W 4884   3.450   8.881   6.440 -0.1286  0.2155  0.2590
 4021W        W 4885   1.500   8.018   4.227 -0.0569  0.2300  0.2462
 4022W        W 4886   0.971  10.949   6.842 -0.2524  0.0897 -0.3857
 4023W        W 4887   0.591   8.608   7.424 -0.1367  0.1022  0.3002
 4024W        W 4888   5.506   7.734   6.252 -0.1469 -0.0466  0.3119
 4025W        W 4889   3.070   9.942   4.939 -0.1068 -0.2152  0.0957
 4026W        W 4890   0.066   8.241   6.317 -0.0289 -0.1131  0.0598
 4027W        W 4891   2.441  11.882   6.161  0.0855 -0.2882  0.2043
 4028W        W 4892   1.314   8.888   5.490  0.0149  0.2489 -0.3519
 4029W        W 4893   2.422   9.076   7.618 -0.1135  0.3249  0.0243
 4030W        W 4894   5.685  11.799   6.728 -0.0928  0.0698 -0.1793
 4031W        W 4895   1.925  12.393   7.888  0.2498  0.2711 -0.1346
 4032W        W 4896   3.020   7.756   5.237 -0.0181 -0.2079 -0.1512
 4033W        W 4897   0.825   9.721   7.733 -0.1039 -0.1501 -0.0882
 4034W        W 4898   1.701  12.307   4.908 -0.0569 -0.0537  0.2085
 4035W        W 4899   0.798   9.651   6.200 -0.0139  0.0290  0.1075
 4036W        W 4900   2.264   9.789   8.380 -0.1365 -0.0673 -0.0555
 4037W        W 4901   2.606   9.974   5.700 -0.1690  0.0157 -0.0340
 4038W        W 4902   1.130   8.493   4.049 -0.2625  0.2573  0.0569
 4039W        W 4903   2.382   8.210   4.070  0.1993  0.3135  0.1977
 4040W        W 4904   2.275  10.845   6.279 -0.0646  0.1017 -0.2277
 4041W        W 4905  13.188   9.438   3.500  0.0064  0.0553 -0.0732
 4042W        W 4906   3.035   8.356   8.185  0.1910 -0.0247 -0.0074
 4043W        W 4907   3.592  10.760   5.118 -0.1707  0.2656  0.1174
 4044W        W 4908  12.424  12.410   6.287 -0.2451 -0.0503 -0.0449
 4045W        W 4909   0.504   9.610   6.690 -0.1701  0.0577 -0.1872
 4046W        W 4910   0.958   9.893   3.734 -0.0955  0.0547  0.2048
 4047W        W 4911   1.865  11.201  10.897  0.2587  0.0115 -0.1558
 4048W        W 4912   1.207  10.561  12.963  0.1269  0.2442 -0.1515
 4049W        W 4913   0.614  11.175   8.302 -0.1391 -0.1389  0.0980
 4050W        W 4914   5.704  12.618   0.437  0.1520 -0.1393 -0.0331
 4051W        W 4915   1.668  13.191   5.862 -0.0346 -0.2210  0.1527
 4052W        W 4916   1.277  10.500   8.880  0.1794  0.1096  0.0536
 4053W        W 4917   2.075   6.605   7.922 -0.1808  0.0017 -0.2831
 4054W        W 4918   1.810   7.480   8.991 -0.1492  0.0099  0.3178
 4055W        W 4919   0.336  12.327  10.800  0.1020  0.1417 -0.3291
 4056W        W 4920   2.185  10.655   8.505  0.0522 -0.1212  0.1616
 4057W        W 4921   1.316   6.705  10.001 -0.1968  0.0624  0.1541
 4058W        W 4922   1.429   9.040   7.381  0.0281  0.2210  0.0504
 4059W        W 4923   3.503   9.013   8.784  0.0989 -0.2004  0.0363
 4060W        W 4924   5.045   9.180   8.853  0.0220 -0.0535  0.2100
 4061W        W 4925  13.305   6.931   9.571 -0.0469 -0.2782 -0.2472
 4062W        W 4926   2.741  12.508   8.588 -0.1045 -0.0428 -0.2900
 4063W        W 4927   1.360  10.592   6.711  0.0325  0.1613  0.1368
 4064W        W 4928   3.606   7.538   9.052 -0.0412  0.1375  0.0851
 4065W        W 4929   4.250   9.953  11.662 -0.0401  0.1710 -0.0753
 4066W        W 4930   4.356   9.930  11.154 -0.2635 -0.0545  0.0813
 4067W        W 4931   3.106  12.671   9.012  0.0879  0.2440 -0.1163
 4068W        W 4932   5.235   9.799  10.272  0.0567  0.2503 -0.0878
 4069W        W 4933   1.603  10.693  10.773 -0.0715  0.0382  0.0063
 4070W        W 4934   2.241   8.280   9.012  0.0263  0.0669 -0.1608
 4071W        W 4935   1.608  10.851  10.326  0.1174 -0.1758  0.0573
 4072W        W 4936   3.742   9.894  11.290  0.0986 -0.0808 -0.0963
 4073W        W 4937   3.315  10.341  10.013 -0.1961  0.1937  0.0605
 4074W        W 4938   2.611   0.160  11.157 -0.3568  0.4106  0.2620
 4075W        W 4939   4.487   6.338   8.746 -0.0039  0.1981  0.0720
 4076W        W 4940   1.762   9.814   8.120  0.3106  0.3779 -0.1762
 4077W        W 4941   1.777  10.343  11.437  0.1462  0.2817  0.0194
 4078W        W 4942   2.534   8.182  13.674  0.2310  0.1380  0.1311
 4079W        W 4943   1.098   6.783  13.572 -0.0602  0.0620 -0.1055
 4080W        W 4944   1.062   9.644   8.466  0.1672  0.1059 -0.1691
 4081W        W 4945   2.736  12.166   9.636 -0.1063  0.0561 -0.4075
 4082W        W 4946  13.201   8.053  10.134  0.0635  0.1026 -0.2709
 4083W        W 4947   1.772  13.115  10.353 -0.0038  0.0923 -0.0052
 4084W        W 4948   4.315  10.647   9.514  0.1536  0.0735 -0.0877
 4085W        W 4949   4.597   6.699   9.651 -0.1991  0.0785 -0.0533
 4086W        W 4950   5.299   8.941   7.961 -0.0680  0.1178  0.1179
 4087W        W 4951   3.991   9.582  11.509 -0.0919 -0.0020  0.1883
 4088W        W 4952   0.909   8.006   8.502  0.1630  0.0679 -0.3513
 4089W        W 4953   4.339  10.913   6.260  0.2966 -0.1514 -0.1732
 4090W        W 4954   3.128  11.311   5.736  0.0688  0.1683  0.1611
 4091W        W 4955   1.392  12.346   8.944  0.3710 -0.1992  0.2020
 4092W        W 4956  13.731   8.367   7.922 -0.3728  0.1054  0.1549
 4093W        W 4957   0.594   8.645  11.332 -0.2774  0.0481 -0.3226
 4094W        W 4958   4.478   7.958   9.050 -0.2121  0.4642 -0.2151
 4095W        W 4959   3.564   8.462   9.260  0.1372  0.0453 -0.1080
 4096W        W 4960   1.158  12.280   9.507 -0.1866 -0.2924  0.3828
 4097W        W 4961   3.412   8.088   8.978 -0.0997 -0.1367  0.0465
 4098W        W 4962   4.344  10.240   9.878  0.1787 -0.0426  0.0275
 4099W        W 4963   3.774  10.911   7.798  0.1745 -0.0354  0.0608
 4100W        W 4964   3.593   8.497   6.932 -0.0312 -0.1191  0.3438
 4101W        W 4965  13.608  10.891   8.734 -0.1165 -0.1101  0.0682
 4102W        W 4966   4.147   8.686   8.856  0.1844  0.1970  0.0168
 4103W        W 4967   4.089   6.592  11.263  0.0933 -0.1230  0.2605
 4104W        W 4968  11.651  10.077  10.105 -0.2035 -0.2768 -0.1046
 4105W        W 4969  13.205  12.180   8.708  0.4148 -0.2694 -0.1160
 4106W        W 4970   4.335   7.307   7.111 -0.2468 -0.0097 -0.0564
 4107W        W 4971  11.276  11.417   9.504  0.0906 -0.0535 -0.0043
 4108W        W 4972   1.376  13.079  11.171 -0.2936 -0.1277 -0.4515
 4109W        W 4973  13.554   7.323   8.343 -0.2834 -0.0479  0.1346
 4110W        W 4974   1.702   7.225   9.905 -0.0969  0.1207  0.1066
 4111W        W 4975   1.663  10.207  10.912  0.0028 -0.2470  0.0735
 4112W        W 4976   2.033  11.167   8.481  0.0025 -0.0127 -0.1097
 4113W        W 4977   0.649   9.467   8.186 -0.2686 -0.3454  0.3403
 4114W        W 4978   2.106  13.741   8.909  0.0560  0.0036  0.3540
 4115W        W 4979   1.483  10.815   8.559  0.1785  0.0126  0.1255
 4116W        W 4980   2.482   6.762  10.598 -0.1929  0.2309 -0.1422
 4117W        W 4981   3.509  11.346   9.579 -0.5006  0.1175 -0.0451
 4118W        W 4982   2.801  10.494  10.245 -0.2728 -0.0212  0.0369
 4119W        W 4983   5.207   9.945   7.796  0.1557  0.2834 -0.0992
 4120W        W 4984   3.071  11.369  11.275  0.0283  0.3614 -0.4012
 4121W        W 4985  12.231   6.703   9.556 -0.0848  0.1818 -0.1774
 4122W        W 4986   2.258  10.411  11.315  0.3105  0.0429  0.0341
 4123W        W 4987   2.465   8.796   9.692 -0.0424 -0.2051 -0.1302
 4124W        W 4988   1.050   8.943   7.735 -0.2422  0.0191 -0.1695
 4125W        W 4989   3.160   8.252  11.553  0.0810 -0.0204 -0.0623
 4126W        W 4990   1.187   8.985   9.541 -0.0564  0.3046 -0.1312
 4127W        W 4991  13.970   7.048  10.921  0.0043  0.1129 -0.3248
 4128W        W 4992   0.647   6.937   7.439 -0.5450 -0.0580  0.0449
 4129W        W 4993   2.586   9.466   9.814 -0.0617  0.1384 -0.1475
 4130W        W 4994   2.560   7.957   7.634 -0.0876 -0.2600 -0.0073
 4131W        W 4995   6.243  12.240  13.332 -0.2541  0.3435  0.0920
 4132W        W 4996   1.759   6.260   9.639 -0.1954 -0.1829 -0.1258
 4133W        W 4997   2.194  10.832  12.228 -0.1848 -0.1448 -0.1388
 4134W        W 4998   4.311   7.273   9.676  0.2785  0.0152  0.0544
 4135W        W 4999   5.055   6.125   7.939 -0.0599  0.0481  0.1781
 4136W        W 5000   3.166  10.488  13.175 -0.3731  0.1517 -0.0790
 4137W        W 5001   1.402  11.482  11.197  0.2235 -0.1034  0.1201
 4138W        W 5002   2.237   7.893   9.489 -0.1226 -0.1697 -0.0905
 4139W        W 5003  13.551   8.011   9.681  0.0181  0.2181 -0.0955
 4140W        W 5004   1.138   7.230   9.982  0.0589  0.2943  0.2794
 4141W        W 5005   2.886  10.449   9.721 -0.1524  0.0102 -0.2263
 4142W        W 5006   1.304  10.271  12.428  0.0392  0.0379  0.0948
 4143W        W 5007   2.854   7.105   6.903  0.0433 -0.0131 -0.4542
 4144W        W 5008   2.142   8.661   9.335  0.0300 -0.2538 -0.2057
 4145W        W 5009   2.420  11.149  11.938  0.0837  0.0647  0.1984
 4146W        W 5010   2.066   9.570   6.490 -0.2156  0.0146  0.2509
 4147W        W 5011   2.473   7.476   7.779  0.0523 -0.4853 -0.3045
 4148W        W 5012   2.311  11.223  11.328  0.0405  0.1584  0.1146
 4149W        W 5013   2.563  10.166   8.448  0.0148  0.2001 -0.0972
 4150W        W 5014   1.426   7.708  13.152  0.1785  0.1049  0.0969
 4151W        W 5015   3.325  10.002   7.896 -0.0198 -0.1296 -0.0428
 4152W        W 5016   6.024   8.387  11.359  0.0272 -0.0526 -0.0334
 4153W        W 5017   5.728   8.511   8.817 -0.0868  0.2784  0.0708
 4154W        W 5018   2.043   7.558   8.532  0.3989  0.2382  0.0634
 4155W        W 5019  12.459  12.193   6.827  0.2236 -0.1043 -0.1671
 4156W        W 5020   3.900  10.898   8.697  0.0973 -0.0232  0.1081
 4157W        W 5021   3.029   9.997   9.793  0.0553 -0.1031  0.1903
 4158W        W 5022   2.170  12.320  11.667 -0.1975 -0.1317 -0.1573
 4159W        W 5023   1.914   9.862   6.934  0.0086 -0.1878 -0.0543
 4160W        W 5024   1.013  10.275   7.860 -0.0664  0.0874  0.1340
 4161W        W 5025   1.424   5.698  10.120  0.0170 -0.1790 -0.0615
 4162W        W 5026   1.924   9.493   8.574 -0.0188  0.1261 -0.0315
 4163W        W 5027   2.248   8.967   8.891 -0.0863  0.0872  0.0783
 4164W        W 5028   3.105   8.726   8.996 -0.0890 -0.2952  0.0403
 4165W        W 5029   4.077   7.944   7.888 -0.1080  0.1557  0.1520
 4166W        W 5030   3.704   9.486   6.271 -0.3625  0.2192 -0.2299
 4167W        W 5031   3.541   8.555   5.399  0.1996  0.1448 -0.0555
 4168W        W 5032   4.451   8.661   8.332 -0.0948 -0.2015  0.0646
 4169W        W 5033   2.674   9.428  11.608 -0.0892 -0.0093  0.1405
 4170W        W 5034   0.242   5.458   7.124  0.0993  0.0633 -0.0343
 4171W        W 5035   1.582  10.056  10.002  0.1989 -0.0939  0.0947
 4172W        W 5036   4.130  10.531  10.432 -0.0643 -0.4017  0.0721
 4173W        W 5037   3.029   5.066   8.241 -0.1808 -0.2457  0.2894
 4174W        W 5038   2.608  12.189  10.975  0.1060 -0.1029 -0.1277
 4175W        W 5039   2.357   7.835   8.224 -0.2345 -0.1142 -0.0609
 4176W        W 5040   4.050   8.672   9.336  0.0201  0.0375 -0.0237
 4177W        W 5041   1.280   8.247   9.157  0.0529  0.1309  0.2129
 4178W        W 5042   4.924   7.463   7.928  0.2700  0.1278 -0.0482
 4179W        W 5043   4.714   7.862   7.226 -0.0054  0.0107  0.1324
 4180W        W 5044   2.847  12.146   7.414 -0.1098  0.0704  0.1096
 4181W        W 5045   2.254   9.174   9.402  0.0291  0.1081  0.1804
 4182W        W 5046   0.013  10.218   5.965  0.1905 -0.1168 -0.0216
 4183W        W 5047   2.531   6.739   8.908 -0.0224 -0.1426  0.2947
 4184W        W 5048   0.513   9.146   6.096  0.0750 -0.1470  0.2632
 4185W        W 5049   0.040   9.946   8.789 -0.2365 -0.0351  0.1997
 4186W        W 5050   3.450  11.071   8.166 -0.0951  0.0712  0.1361
 4187W        W 5051  13.788   8.957   6.627 -0.2050 -0.0257 -0.0169
 4188W        W 5052   1.763   5.737   7.596 -0.3877  0.2603  0.0426
 4189W        W 5053   3.531   9.542   9.732  0.1509  0.1285 -0.0667
 4190W        W 5054   1.339  11.340   9.891 -0.5629 -0.1679 -0.2224
 4191W        W 5055   3.148   8.810   7.986  0.1851 -0.3446  0.1218
 4192W        W 5056   4.456   9.693  10.697 -0.1166 -0.1915  0.0157
 4193W        W 5057  13.582   7.458   6.868  0.0718 -0.2310 -0.1858
 4194W        W 5058   4.794   8.948   7.928 -0.0420 -0.1324  0.1058
 4195W        W 5059   3.058  10.751   8.039 -0.0402  0.2842  0.3345
 4196W        W 5060   2.376  10.381   9.978 -0.1467 -0.0439 -0.0299
 4197W        W 5061   1.854  12.344   8.956 -0.4754 -0.2160 -0.1171
 4198W        W 5062  12.979  10.151   9.350  0.0291 -0.1068 -0.2687
 4199W        W 5063   0.979  11.588   8.146 -0.0358  0.1243 -0.1692
 4200W        W 5064   0.159   8.772   6.216  0.0666  0.0883  0.1218
 4201W        W 5065   1.865   7.012   8.220 -0.0467  0.0965  0.0718
 4202W        W 5066   4.155   6.145   7.308 -0.0190  0.1202 -0.1128
 4203W        W 5067   2.349  11.791  11.315 -0.0704  0.0641 -0.2747
 4204W        W 5068   3.474  10.139  13.435  0.0922 -0.2312 -0.1708
 4205W        W 5069   1.329  10.341   9.474  0.1296  0.1469 -0.0909
 4206W        W 5070   3.590   9.167  10.137 -0.0010  0.0624  0.2005
 4207W        W 5071   1.422   7.138  12.147 -0.2821 -0.0891 -0.0810
 4208W        W 5072   1.786  10.560   9.950  0.2494 -0.1462  0.2080
 4209W        W 5073   0.334  11.448   8.871  0.2839 -0.0169  0.0568
 4210W        W 5074   0.996  10.144  13.193  0.0500  0.0815  0.2743
 4211W        W 5075   1.174  11.131   7.876 -0.1368 -0.0188 -0.2121
 4212W        W 5076   0.810   7.543   6.210  0.1500  0.3065  0.2106
 4213W        W 5077   2.649   7.358  10.257 -0.1319  0.0769 -0.3126
 4214W        W 5078   2.002   8.797  11.141  0.0815  0.2748  0.1909
 4215W        W 5079   3.087  10.507   7.104 -0.0164 -0.0765 -0.2539
 4216W        W 5080   4.956   6.472   8.835 -0.2461 -0.0791 -0.0928
 4217W        W 5081   4.429   9.321   7.716 -0.1123  0.0534  0.2420
 4218W        W 5082  11.679  11.763  10.387  0.0643 -0.1521  0.1604
 4219W        W 5083   2.375  10.655  10.454 -0.0378  0.0821 -0.1515
 4220W        W 5084  13.124  10.121   8.496  0.3522 -0.0384 -0.0558
 4221W        W 5085   0.475  11.319  10.205  0.0746 -0.1329 -0.0145
 4222W        W 5086   3.035  11.561   9.461  0.0048  0.1426  0.1475
 4223W        W 5087   1.917  10.852   8.892 -0.0565  0.0149 -0.1722
 4224W        W 5088   0.896   6.857   7.037  0.1206  0.1473 -0.1859
 4225W        W 5089   2.862  11.507   8.533  0.0730 -0.0616  0.1222
 4226W        W 5090   5.746  12.270  12.431 -0.0984 -0.1442 -0.2201
 4227W        W 5091   3.425   6.705   7.718 -0.0925 -0.0289 -0.2878
 4228W        W 5092  13.138   9.153   7.168  0.0069  0.0722 -0.2809
 4229W        W 5093   1.679  12.250   9.961  0.2312  0.0130  0.0367
 4230W        W 5094   3.458  11.797   9.281 -0.0851  0.0292  0.3463
 4231W        W 5095   1.765  11.169   6.216  0.1415 -0.2157 -0.0242
 4232W        W 5096   2.978  10.502   8.606  0.0043 -0.0574  0.0272
 4233W        W 5097   3.663  11.929   9.939 -0.1320  0.2692  0.0967
 4234W        W 5098   2.927   7.946   9.622  0.3573  0.1028 -0.2630
 4235W        W 5099   1.491   9.447   9.597  0.0538 -0.2153  0.1161
 4236W        W 5100   1.139   7.399   7.360  0.2724 -0.0751 -0.1365
 4237W        W 5101   1.460   8.036   9.692 -0.1633 -0.0377 -0.0449
 4238W        W 5102   2.021   7.333  10.292 -0.1067  0.0041 -0.0285
 4239W        W 5103   1.688   7.688   7.426  0.1363  0.1724  0.1745
 4240W        W 5104   3.250   7.186   7.485  0.1464  0.0437 -0.1532
 4241W        W 5105   1.886   7.984  10.023  0.1814 -0.2410 -0.0673
 4242W        W 5106   1.502   9.564  10.111 -0.0206 -0.2981 -0.2377
 4243W        W 5107   4.423  11.034   8.126  0.1815 -0.2356 -0.1301
 4244W        W 5108   2.133   7.169  11.087  0.2833 -0.0888  0.1383
 4245W        W 5109   1.894   8.191  11.164  0.1320  0.1773  0.0006
 4246W        W 5110  12.034   8.053   6.212 -0.0586 -0.2625 -0.1045
 4247W        W 5111   2.121  11.393   8.039 -0.2006  0.3002 -0.0530
 4248W        W 5112   2.840   9.311   5.471  0.0611  0.0690 -0.3900
 4249W        W 5113   0.884  10.711   7.624 -0.1675 -0.1462  0.1830
 4250W        W 5114  13.952  10.367   9.701  0.0140  0.0126 -0.0146
 4251W        W 5115   2.913   9.392  12.749  0.1691 -0.2108  0.2866
 4252W        W 5116   0.083   8.063   8.967 -0.3886 -0.0803 -0.1028
 4253W        W 5117   2.857  11.359  10.008  0.0668 -0.1232 -0.0376
 4254W        W 5118   3.510  10.045   9.590  0.1621 -0.0650 -0.0241
 4255W        W 5119   3.890  10.304  11.495  0.2704  0.2720 -0.0263
 4256W        W 5120   2.063   9.443   8.023 -0.3314 -0.1988 -0.0689
 4257W        W 5121   2.981   7.867   8.800  0.2009  0.2510 -0.4884
 4258W        W 5122   1.127  13.094  10.334  0.2452  0.2587  0.0676
 4259W        W 5123   3.761  10.317  13.837 -0.1157 -0.1891  0.3860
 4260W        W 5124   1.072  10.120  10.839 -0.7096  0.0248 -0.3705
 4261W        W 5125   8.330   8.266   8.771 -0.0818 -0.3062 -0.0021
 4262W        W 5126   2.051   8.952   8.190  0.2281 -0.2844  0.2142
 4263W        W 5127   4.672   8.500  11.005  0.0714  0.3847  0.3815
 4264W        W 5128  13.851   8.170   8.451  0.0358  0.0076  0.1506
 4265W        W 5129   7.329  12.192   5.626 -0.2997  0.0266 -0.1953
 4266W        W 5130   3.339   9.718  11.959  0.1002  0.2107  0.3392
 4267W        W 5131   0.975  10.718  12.477  0.0790 -0.1664 -0.1169
 4268W        W 5132   5.349   6.801   8.736 -0.0123  0.1798 -0.2824
 4269W        W 5133   1.876  11.951  11.911 -0.2106 -0.0657 -0.0187
 4270W        W 5134   0.468  12.141   7.049 -0.2325  0.0139  0.0947
 4271W        W 5135  13.477   8.810  11.319  0.2109  0.2453 -0.0264
 4272W        W 5136   1.736   9.530  12.809  0.0204  0.1294  0.3154
 4273W        W 5137   0.857   8.320   7.824  0.0358  0.0215  0.0665
 4274W        W 5138   3.120   8.080  10.085  0.0553 -0.1856  0.2585
 4275W        W 5139   2.080  10.104   9.390 -0.2037 -0.3112 -0.0424
 4276W        W 5140   4.201   9.750   9.007  0.1496 -0.1010 -0.2923
 4277W        W 5141   6.164   9.389   9.263  0.0321  0.1249 -0.1956
 4278W        W 5142   1.399   7.539   7.871  0.4768  0.0688 -0.1236
 4279W        W 5143   2.669  11.169  11.040 -0.2441  0.0876  0.1406
 4280W        W 5144   2.105  11.540   9.488 -0.2941  0.3030  0.1048
 4281W        W 5145   3.180   9.752   7.313  0.1367 -0.0197  0.1035
 4282W        W 5146  13.922   9.194  10.360  0.0917  0.0177 -0.0832
 4283W        W 5147   1.000   7.468  10.414  0.0164 -0.1057 -0.0016
 4284W        W 5148   0.795   6.134   7.795  0.0767 -0.0046  0.3985
 4285W        W 5149   6.139   6.757   8.163 -0.3669  0.3413 -0.0329
 4286W        W 5150   0.726   9.010   9.338 -0.0311 -0.1329  0.1677
 4287W        W 5151   4.640   9.283  10.296 -0.0283 -0.0007  0.2133
 4288W        W 5152  13.996  11.021  12.045  0.2737 -0.0382  0.0072
 4289W        W 5153  13.876  11.284   9.844  0.0140  0.0290  0.0976
 4290W        W 5154  11.537   8.334  10.381  0.0218 -0.3819 -0.0022
 4291W        W 5155   0.749   8.797  10.411 -0.2290  0.1349 -0.1917
 4292W        W 5156  13.677  13.630   8.750  0.3370  0.0239  0.2907
 4293W        W 5157   4.670  12.000  11.254  0.2865  0.0859 -0.2040
 4294W        W 5158   2.772   9.113   9.473 -0.1239 -0.0638  0.0411
 4295W        W 5159   1.064  11.144   9.457 -0.1694  0.3622  0.0357
 4296W        W 5160   2.108  11.631   8.450  0.2255 -0.1999 -0.1673
 4297W        W 5161   1.308   5.921   7.645 -0.1406  0.2235  0.1102
 4298W        W 5162  13.687   8.840   9.235  0.0128 -0.1033 -0.2050
 4299W        W 5163   2.894  12.548   7.802  0.1476  0.1413 -0.1033
 4300W        W 5164   3.299   6.202   8.537 -0.0132  0.1239 -0.1170
 4301W        W 5165   1.772   5.913   8.638 -0.2170  0.1651 -0.0796
 4302W        W 5166   2.013   6.518   8.852  0.3363 -0.0024 -0.2115
 4303W        W 5167   5.231   9.339   9.941  0.0160  0.3230  0.0883
 4304W        W 5168   2.200  10.846   9.807 -0.0152 -0.2347  0.0135
 4305W        W 5169   1.000  12.258   7.862 -0.0316  0.0168 -0.2772
 4306W        W 5170   3.067  11.088   9.359  0.0215 -0.0420 -0.1896
 4307W        W 5171  13.638  12.200   8.271 -0.1193  0.2777  0.4816
 4308W        W 5172   2.942  11.887   7.960  0.1359 -0.3003  0.0175
 4309W        W 5173   1.145   9.513  12.119  0.1319  0.2290  0.1811
 4310W        W 5174   2.875   9.137   7.697 -0.0264 -0.1328 -0.1969
 4311W        W 5175   0.253   0.020   9.234  0.0329 -0.0310 -0.0505
 4312W        W 5176   3.373  10.335   8.993  0.1577 -0.0271  0.0487
 4313W        W 5177  12.834   6.636   8.366  0.1127  0.0800  0.0375
 4314W        W 5178   2.298  10.960   7.622 -0.0200 -0.2148  0.1217
 4315W        W 5179   2.200  10.507  13.296  0.4701 -0.1019 -0.0820
 4316W        W 5180   3.270   5.764  10.184  0.2080  0.2719 -0.0845
 4317W        W 5181  12.639  11.399   7.218 -0.1323  0.2764  0.1569
 4318W        W 5182   1.098   7.813  11.460  0.1066  0.0825 -0.2613
 4319W        W 5183   3.514  11.463   6.865  0.1646 -0.0233 -0.0672
 4320W        W 5184  12.651  10.953  10.150  0.1302  0.1665 -0.3090
 4321W        W 5185   1.208   8.480   8.709 -0.1251 -0.1001 -0.1650
 4322W        W 5186  13.026  11.917   8.315 -0.1419  0.2298  0.3524
 4323W        W 5187   3.002   6.763   9.043  0.1093 -0.2615  0.0209
 4324W        W 5188   1.840  11.416   9.890 -0.0834 -0.3167 -0.4266
 4325W        W 5189   3.045   8.279   9.238 -0.1313  0.1697  0.2780
 4326W        W 5190   5.028   9.831   9.469 -0.0701  0.2936  0.0393
 4327W        W 5191   5.563  10.627  10.291 -0.0889  0.1480  0.4622
 4328W        W 5192   0.315  12.157  11.375  0.1258 -0.1678 -0.0470
 4329W        W 5193   3.138   7.648   7.213  0.0071 -0.1453 -0.1227
 4330W        W 5194   4.168  12.603   7.755  0.2173 -0.0986  0.3258
 4331W        W 5195   3.469   7.897   8.034  0.1304 -0.1808  0.1475
 4332W        W 5196   2.275   6.882   8.509 -0.1104 -0.2099  0.0959
 4333W        W 5197   3.964   9.203   9.720  0.1996  0.2624 -0.0053
 4334W        W 5198   2.080   9.053   7.187 -0.1554  0.1333  0.2320
 4335W        W 5199   2.364  11.308   9.905 -0.1121  0.1201  0.1834
 4336W        W 5200   3.343   9.062   9.659 -0.0273  0.1267 -0.0065
 4337W        W 5201  13.564   7.405   9.569  0.1130 -0.3160 -0.1172
 4338W        W 5202   5.676  10.055  10.422 -0.1789  0.2727 -0.0252
 4339W        W 5203   2.819   8.986   9.977  0.0145 -0.1235 -0.0066
 4340W        W 5204   1.588   9.027  10.046 -0.1429 -0.1074 -0.2418
 4341W        W 5205   1.143  12.345   8.452 -0.0465 -0.2981  0.1363
 4342W        W 5206   2.114   9.292  11.162  0.3340 -0.2001  0.4467
 4343W        W 5207   2.276  10.262  12.858  0.0831  0.0225  0.1582
 4344W        W 5208   3.530   9.847   5.764  0.0101 -0.0190 -0.1052
 4345W        W 5209   4.676   7.771   9.447 -0.1016 -0.0113  0.2331
 4346W        W 5210   2.119  11.632  10.265  0.1070  0.1784  0.0832
 4347W        W 5211   3.332   8.668  11.314  0.1349  0.0387 -0.3393
 4348W        W 5212   2.368   3.524  10.572  0.2177 -0.0808 -0.3328
 4349W        W 5213   3.041   9.977   6.556 -0.0655  0.3325  0.1215
 4350W        W 5214  13.692   7.704   8.710 -0.0058 -0.0170  0.0874
 4351W        W 5215   0.572   5.906   9.023  0.0010 -0.2465 -0.0907
 4352W        W 5216   0.952   9.949  11.397 -0.0898 -0.4519  0.0880
 4353W        W 5217   2.674   9.586   7.579  0.1015  0.0052 -0.1692
 4354W        W 5218   3.083  12.227  11.055  0.0953  0.2998  0.1971
 4355W        W 5219   3.275  13.240  10.204  0.0782  0.1678  0.0970
 4356W        W 5220   2.961  10.347  12.355 -0.1899  0.0662 -0.0296
 4357W        W 5221   2.147   8.537   8.562  0.1352  0.0090 -0.0973
 4358W        W 5222   3.010   9.740   5.753 -0.0723  0.0690 -0.2473
 4359W        W 5223   6.334   9.979   8.403  0.1403 -0.0437 -0.2442
 4360W        W 5224   1.431  10.988  11.125  0.0934  0.1081 -0.0507
 4361W        W 5225   1.789  12.065  11.416 -0.2815 -0.2406  0.0689
 4362W        W 5226   4.758  13.902   7.543 -0.2034 -0.1348  0.0352
 4363W        W 5227   1.262   9.216  11.218 -0.1607 -0.0887  0.0890
 4364W        W 5228   1.319  11.204  11.607 -0.0360  0.0125  0.0037
 4365W        W 5229   0.292   8.278   9.406  0.0472  0.2350 -0.0374
 4366W        W 5230   1.442  13.356  10.070 -0.0636 -0.0682 -0.3696
 4367W        W 5231   0.046   7.151  10.203  0.1470 -0.4180  0.0683
 4368W        W 5232   3.145   9.406   8.760  0.1534 -0.0058  0.2277
 4369W        W 5233   0.969   8.823   6.309  0.2157 -0.1353  0.2441
 4370W        W 5234   0.610   8.994   9.883 -0.1317  0.1417  0.1133
 4371W        W 5235   5.402   9.385  10.709 -0.1194 -0.2776  0.2479
 4372W        W 5236   0.568   7.298   9.093  0.0520 -0.3195 -0.1897
 4373W        W 5237   4.034   9.459  10.326 -0.0432  0.1914  0.0304
 4374W        W 5238   3.869  10.264  10.015  0.0543  0.0544  0.3334
 4375W        W 5239   4.326  11.200  10.999  0.0076  0.0580 -0.2697
 4376W        W 5240   4.541   7.965  11.324 -0.3385 -0.2329  0.0297
 4377W        W 5241  13.645  11.597   9.570 -0.0970  0.0964  0.1904
 4378W        W 5242   4.396   5.154  11.399 -0.2315 -0.0646  0.0729
 4379W        W 5243  13.798   9.140   6.121 -0.1789  0.1208 -0.1953
 4380W        W 5244   3.343   8.731  10.038 -0.1183  0.0537 -0.2835
 4381W        W 5245   1.390   8.874   6.001 -0.3029  0.1087  0.0548
 4382W        W 5246   0.038   7.116   6.764 -0.0037 -0.3315 -0.0788
 4383W        W 5247   3.342   6.091   7.718  0.0472  0.0488  0.1746
 4384W        W 5248  12.854  10.300   7.848  0.0643 -0.3648  0.0249
 4385W        W 5249   2.545   8.875   8.124 -0.3526 -0.1739 -0.2491
 4386W        W 5250   1.615  11.591  11.674  0.1693  0.1540  0.0850
 4387W        W 5251   2.173   9.475   7.423  0.1665  0.1082  0.0752
 4388W        W 5252  13.130   7.582   8.586  0.2731  0.2441 -0.0386
 4389W        W 5253   1.317   7.165   6.956  0.2096  0.1965 -0.4132
 4390W        W 5254   0.559   8.118   8.151  0.0409  0.0857  0.4099
 4391W        W 5255   5.260   8.549  11.648 -0.3625  0.0472 -0.3074
 4392W        W 5256   3.643   6.050   9.975 -0.2369  0.2018 -0.0433
 4393W        W 5257   4.721  10.317   9.397  0.2542 -0.1259  0.0826
 4394W        W 5258   1.677  13.243   9.026  0.1149  0.0607 -0.1387
 4395W        W 5259   2.501  11.147   8.499 -0.2837  0.0774 -0.0413
 4396W        W 5260   3.470   8.366   7.922 -0.0505  0.1290  0.1979
 4397W        W 5261   1.983  10.219  10.272 -0.1575 -0.3983  0.1284
 4398W        W 5262   2.307   7.321  10.651  0.0957 -0.0129 -0.0335
 4399W        W 5263   2.474   8.367   8.094 -0.1427  0.0325 -0.1449
 4400W        W 5264  13.553   6.722   8.836 -0.0458 -0.1370  0.0063
 4401W        W 5265   1.931   8.041   8.680  0.1261  0.0964  0.4488
 4402W        W 5266   1.406  11.985  11.066  0.0924 -0.0652  0.4754
 4403W        W 5267   4.166   8.696  10.694 -0.1766 -0.3076 -0.1858
 4404W        W 5268   4.147   6.864   8.628  0.1136 -0.2190 -0.2179
 4405W        W 5269   1.737  11.366  10.415 -0.1156  0.3230 -0.3018
 4406W        W 5270   2.794  12.627   9.452  0.1500 -0.3314 -0.2393
 4407W        W 5271   3.669   9.755   8.194  0.1081  0.0054  0.2896
 4408W        W 5272   0.829  11.537   8.642 -0.1156 -0.3910  0.0833
 4409W        W 5273   0.797   6.042   6.072 -0.1484 -0.1235 -0.1278
 4410W        W 5274   3.787   5.959   9.055  0.0400 -0.0501  0.1342
 4411W        W 5275  13.652   7.978   7.654  0.0026  0.2896  0.0314
 4412W        W 5276   4.517   4.373   7.555 -0.1668  0.2317  0.0370
 4413W        W 5277   2.806  12.802   8.201 -0.0563  0.1069 -0.1695
 4414W        W 5278   2.868  10.891  10.678  0.1144 -0.0907  0.1241
 4415W        W 5279   4.665   9.673  11.499  0.2280 -0.0963  0.0090
 4416W        W 5280   0.455   6.207  11.256 -0.1662 -0.0632  0.0607
 4417W        W 5281   0.032   8.079   9.817  0.0723  0.0655 -0.0562
 4418W        W 5282   3.779  10.691  10.747  0.2510  0.0167  0.0155
 4419W        W 5283   4.425   9.169   8.243  0.0081 -0.0521  0.1971
 4420W        W 5284  13.707   8.189  10.650 -0.1222 -0.0208  0.1123
 4421W        W 5285   1.331   8.646  10.385  0.2928  0.1224 -0.0702
 4422W        W 5286   1.598  11.293   8.704  0.0180 -0.2828 -0.2061
 4423W        W 5287   3.357  11.909   7.746  0.0444  0.0391  0.2137
 4424W        W 5288   3.028  10.224   8.222  0.1932 -0.1586  0.3424
 4425W        W 5289   3.806  12.623  13.390 -0.1493  0.2321 -0.3204
 4426W        W 5290   2.683   7.112  11.221 -0.1913 -0.0518  0.0535
 4427W        W 5291   5.550   9.699   9.837 -0.3046 -0.0694  0.2014
 4428W        W 5292   1.083  12.010   9.058 -0.3086 -0.1613 -0.1407
 4429W        W 5293   1.287   8.465   8.066  0.2903  0.1381 -0.0229
 4430W        W 5294   3.714  10.716  10.211  0.1575  0.0369  0.0442
 4431W        W 5295   3.008   9.857  11.551 -0.3330  0.0617  0.0411
 4432W        W 5296   1.675   8.416  10.778  0.1476 -0.3001  0.0476
 4433W        W 5297   3.342  10.484   9.474 -0.2666 -0.3238  0.1271
 4434W        W 5298   3.220  12.805   9.685 -0.0713  0.2119  0.1010
 4435W        W 5299   2.152  10.984   9.317  0.0747 -0.0540 -0.0764
 4436W        W 5300   2.969  10.134   9.295  0.0926  0.0390 -0.2841
 4437W        W 5301   1.798  10.689   6.323  0.1321  0.2460 -0.1432
 4438W        W 5302   1.568   9.748  12.184  0.0410 -0.1200 -0.0715
 4439W        W 5303   3.538  11.245  11.385  0.0856 -0.1774  0.1808
 4440W        W 5304   0.227   6.905   8.269  0.2747 -0.0946 -0.0821
 4441W        W 5305   1.136   8.647  13.707 -0.0748  0.0541 -0.1486
 4442W        W 5306   1.371   6.649  10.968 -0.1426  0.0706 -0.2320
 4443W        W 5307   0.905   9.048   0.161  0.2058 -0.0394  0.2441
 4444W        W 5308   0.802   9.355  11.489 -0.0092  0.0530 -0.0557
 4445W        W 5309   4.089   7.682  13.909  0.2431 -0.0596 -0.2845
 4446W        W 5310  13.871  10.566  11.618  0.0830  0.0405 -0.1520
 4447W        W 5311   2.927   9.213  13.750 -0.1194  0.4510 -0.1391
 4448W        W 5312  12.804   7.689  13.498 -0.0280 -0.0824  0.1535
 4449W        W 5313   2.847  11.272  12.794 -0.1964 -0.1184 -0.1803
 4450W        W 5314   3.426   8.850  12.295 -0.1670 -0.3075 -0.2235
 4451W        W 5315   0.447   6.446   0.585  0.0232 -0.2493 -0.1414
 4452W        W 5316   0.947  11.816  11.107  0.0551  0.1381  0.0090
 4453W        W 5317   0.883  11.126  10.441  0.0023 -0.2466 -0.3132
 4454W        W 5318   3.724   8.194  11.421  0.3407 -0.2154 -0.1271
 4455W        W 5319   3.683  11.908  13.469 -0.2488 -0.0219 -0.1380
 4456W        W 5320   2.114  10.002  12.270  0.0424 -0.1016  0.1299
 4457W        W 5321   2.680  12.679  12.830  0.1972 -0.1560 -0.1163
 4458W        W 5322   2.950   9.442  10.949 -0.1189  0.0126 -0.2399
 4459W        W 5323  13.592   7.559  13.062  0.0162 -0.1282  0.0025
 4460W        W 5324   2.370  10.059   1.657 -0.1355  0.0389 -0.2908
 4461W        W 5325   0.675  11.058  13.307 -0.0051  0.4129 -0.0965
 4462W        W 5326   4.203   8.189  11.633  0.0295 -0.3408  0.0534
 4463W        W 5327   2.426   7.520  12.319 -0.2128 -0.0763  0.0791
 4464W        W 5328   0.737  10.687  12.980  0.2286  0.0666 -0.0856
 4465W        W 5329  13.792   8.442   9.609  0.2976 -0.1057 -0.1919
 4466W        W 5330  13.994  12.664   0.797  0.2197 -0.3274 -0.0682
 4467W        W 5331   2.864  11.135   2.537 -0.0221  0.4406  0.2074
 4468W        W 5332   3.717   7.167  12.088 -0.0576  0.1488 -0.5077
 4469W        W 5333   4.765   8.968   9.911  0.1170  0.0050 -0.2742
 4470W        W 5334   4.575   7.354  12.087  0.0145  0.0386 -0.1481
 4471W        W 5335   0.996  10.262   1.456 -0.1823 -0.0609 -0.1885
 4472W        W 5336   0.781   7.576  13.929 -0.2012 -0.1718  0.2020
 4473W        W 5337   0.571  10.925  12.291 -0.0207  0.1664  0.0673
 4474W        W 5338   0.223  11.177  11.655 -0.2019 -0.2749  0.0072
 4475W        W 5339   2.923   7.787  11.011  0.0237 -0.1121 -0.0919
 4476W        W 5340   3.987  10.312  12.024  0.3791  0.0710 -0.1212
 4477W        W 5341   5.083   7.466  10.389  0.0102 -0.0737  0.3154
 4478W        W 5342   3.944   9.942   8.623 -0.1454 -0.0132  0.0605
 4479W        W 5343   1.687  10.227  12.075  0.0385  0.1081  0.0408
 4480W        W 5344   1.559   9.843  13.873 -0.0513 -0.1139 -0.0280
 4481W        W 5345   2.058  12.445  13.181 -0.1610 -0.0433 -0.2377
 4482W        W 5346   1.910   8.206  13.796  0.1882  0.4650 -0.3023
 4483W        W 5347   1.406   9.776  11.186  0.3948 -0.0391  0.2352
 4484W        W 5348  13.361  10.212  10.406 -0.1452  0.4613  0.1069
 4485W        W 5349   0.596   6.851  13.998  0.1528  0.0290 -0.1546
 4486W        W 5350   2.214   8.506  10.716  0.2969  0.0752 -0.2910
 4487W        W 5351  13.971  11.658   0.867  0.0352 -0.0919 -0.0937
 4488W        W 5352   0.775  12.074  11.981  0.4144  0.3080  0.2156
 4489W        W 5353   2.226   7.831  11.427 -0.1802  0.0435 -0.3955
 4490W        W 5354  12.342   8.072   1.533  0.0840 -0.0892  0.1763
 4491W        W 5355   2.729   8.480  10.748  0.0666 -0.2020 -0.4854
 4492W        W 5356   3.856   8.926   1.684 -0.3493 -0.2973 -0.2857
 4493W        W 5357   2.692   7.175  11.975 -0.1159  0.0877  0.1144
 4494W        W 5358   2.175   8.922  12.206  0.2918 -0.0691  0.6111
 4495W        W 5359   3.666   8.848  10.508 -0.0188 -0.0952 -0.0197
 4496W        W 5360   0.455  11.583  12.889 -0.2503 -0.0297 -0.1074
 4497W        W 5361  13.949  10.072  13.864 -0.0125 -0.3094 -0.1545
 4498W        W 5362   2.553  11.247  13.921  0.0277  0.3306 -0.4422
 4499W        W 5363   1.472   8.745  11.060  0.1331 -0.1680 -0.3320
 4500W        W 5364   4.912  11.174   0.132 -0.0045  0.0071  0.4285
 4501W        W 5365   3.885  11.590   1.114 -0.3445  0.0767 -0.0053
 4502W        W 5366   4.673   8.426   0.515  0.0669  0.1118 -0.2482
 4503W        W 5367   1.556  10.210   0.233 -0.1667 -0.0107 -0.3314
 4504W        W 5368   0.520   9.265  12.969 -0.0428  0.2423  0.3048
 4505W        W 5369   1.607   7.671  12.690  0.1370 -0.0984  0.1776
 4506W        W 5370   1.791   9.894  11.749 -0.0412 -0.4645  0.0949
 4507W        W 5371   0.623  12.518  13.010  0.1795  0.0279 -0.0897
 4508W        W 5372   0.023   8.928  11.204 -0.0625  0.1516  0.3540
 4509W        W 5373  13.546  10.466  12.952 -0.0645 -0.1648  0.0874
 4510W        W 5374   3.509   6.967  12.540 -0.0788 -0.0640 -0.0658
 4511W        W 5375   1.549   8.446  11.444 -0.1858  0.2950  0.3422
 4512W        W 5376   2.886   8.978   0.199  0.0083  0.1218  0.0235
 4513W        W 5377   0.741   7.004   8.232 -0.4235 -0.1592  0.0716
 4514W        W 5378   0.071  13.169  10.297  0.0279 -0.0542 -0.0368
 4515W        W 5379   3.005   8.869  12.647  0.1345 -0.1773 -0.4768
 4516W        W 5380   3.569   4.731  10.740  0.1093  0.0071 -0.1056
 4517W        W 5381   5.140   7.344  11.888 -0.0574  0.2901  0.3901
 4518W        W 5382   4.288   8.419  13.115 -0.1994 -0.2485 -0.0185
 4519W        W 5383   5.192   9.616  13.173 -0.1032 -0.1817 -0.0560
 4520W        W 5384   5.556  10.897  13.708  0.2243 -0.0365  0.0501
 4521W        W 5385  13.909  10.422  12.519  0.4545 -0.1752  0.1208
 4522W        W 5386   6.175   7.062  10.920 -0.0142  0.0685  0.1633
 4523W        W 5387   2.724  10.928   0.822  0.0608 -0.1433 -0.2860
 4524W        W 5388   5.582   7.995  12.685  0.2525 -0.1669 -0.0462
 4525W        W 5389   1.505   7.219   0.315 -0.2277  0.1370 -0.0846
 4526W        W 5390   3.864  10.773  14.000 -0.1601  0.2442 -0.3329
 4527W        W 5391   2.402   9.310  10.716 -0.1918  0.3430  0.2328
 4528W        W 5392   3.384   9.114  11.006  0.1149  0.3097 -0.1211
 4529W        W 5393   0.783   9.729  12.913 -0.0947  0.0863 -0.2161
 4530W        W 5394   0.640  10.814   0.959 -0.1654  0.0762  0.0818
 4531W        W 5395   2.119   8.467  12.412  0.0432  0.3162 -0.2713
 4532W        W 5396   2.176  12.238   0.002 -0.1291 -0.3295 -0.1503
 4533W        W 5397   4.497   9.890   9.495 -0.1871  0.2555  0.1657
 4534W        W 5398  13.999   9.177  12.733 -0.1036  0.2006  0.1795
 4535W        W 5399   4.605   5.940  12.006 -0.2597 -0.0738 -0.2698
 4536W        W 5400  12.070   8.528  13.954  0.0226 -0.3612 -0.1955
 4537W        W 5401   0.710   9.681  13.885  0.1488 -0.4712  0.1985
 4538W        W 5402   4.065  11.175  11.459 -0.2192  0.0312 -0.3234
 4539W        W 5403   1.993   7.737  11.846 -0.1316 -0.2720 -0.0286
 4540W        W 5404   2.214   9.743  12.818  0.2568  0.1385 -0.1352
 4541W        W 5405   4.844  12.268  12.577 -0.4282 -0.1745  0.2830
 4542W        W 5406   1.143   8.475  12.396  0.0824  0.0982  0.2162
 4543W        W 5407   3.147  10.188  12.784 -0.3413  0.2055 -0.1407
 4544W        W 5408   5.193  11.692  11.764  0.0690  0.0062 -0.2555
 4545W        W 5409  13.050  10.004   0.089 -0.2104  0.0945  0.2093
 4546W        W 5410   2.220   6.073  11.872  0.1468  0.2491 -0.0500
 4547W        W 5411   2.289  10.734  12.742 -0.0900  0.0563 -0.0489
 4548W        W 5412  13.766  12.123  12.645 -0.1002  0.2977  0.3331
 4549W        W 5413   2.316  11.115   1.116 -0.0808  0.0587  0.3112
 4550W        W 5414   2.416   8.636  10.238 -0.0883  0.2541 -0.0208
 4551W        W 5415  13.323  11.694  11.911  0.3093  0.0874 -0.1447
 4552W        W 5416   2.700   7.835  10.037  0.3379 -0.0904 -0.0606
 4553W        W 5417   3.766   8.458  12.289 -0.1535  0.0071  0.1292
 4554W        W 5418   0.719  11.164  11.396 -0.0850  0.1165 -0.1070
 4555W        W 5419   2.624   8.522  13.279  0.0420  0.1223 -0.1528
 4556W        W 5420   5.669  12.990   0.766  0.0447 -0.2029  0.1521
 4557W        W 5421   0.128  10.163  13.410  0.2009  0.0955 -0.0801
 4558W        W 5422   1.307   8.591  11.877 -0.1939 -0.1003 -0.0448
 4559W        W 5423   1.138   6.709   0.201 -0.1050  0.1309 -0.1800
 4560W        W 5424   0.110   8.243  10.349  0.0819  0.2898  0.2252
 4561W        W 5425   0.924   8.838  12.680  0.2969  0.1017  0.0414
 4562W        W 5426   2.974   7.833  11.879 -0.1768  0.0563  0.0197
 4563W        W 5427   3.653   7.360  11.585  0.1011  0.1566  0.1969
 4564W        W 5428   0.492  12.747   0.273  0.2056  0.5020  0.0075
 4565W        W 5429   3.192   8.808  13.508  0.3423 -0.3091  0.0163
 4566W        W 5430  13.494   9.187   0.177 -0.1738  0.0311 -0.2564
 4567W        W 5431   4.859  10.640   0.279  0.1967  0.0738 -0.0307
 4568W        W 5432   4.688   6.269  11.098 -0.0387 -0.0519  0.0239
 4569W        W 5433   3.731   8.776   0.787  0.0582 -0.0132  0.0299
 4570W        W 5434  13.726   8.778  10.833 -0.1114 -0.0209  0.0614
 4571W        W 5435   0.883  10.190  13.748 -0.3535  0.0577 -0.1688
 4572W        W 5436   3.397   8.628  11.847  0.0078 -0.3463  0.0148
 4573W        W 5437  11.594  10.450  11.003  0.2170  0.0838  0.1141
 4574W        W 5438   0.416  10.523  12.594 -0.0916  0.3277  0.1266
 4575W        W 5439   3.152   9.071  10.390 -0.1378  0.0882  0.2621
 4576W        W 5440   3.171   5.239  10.161  0.3571  0.1831  0.2425
 4577W        W 5441   2.525   8.749  12.788 -0.2029  0.1485  0.2013
 4578W        W 5442   0.026   9.425   0.978 -0.0803 -0.0836  0.0449
 4579W        W 5443   0.409   7.906  12.741 -0.0072  0.0132  0.0677
 4580W        W 5444  11.905   9.678   0.552  0.2406  0.0827  0.1010
 4581W        W 5445   0.432   9.556   1.366 -0.0513  0.0746  0.1757
 4582W        W 5446   1.937  10.821  11.184 -0.2373  0.2413  0.1340
 4583W        W 5447   1.465  10.760   0.298  0.0973 -0.2990  0.1825
 4584W        W 5448   0.628   9.894  13.434  0.2361 -0.0926  0.2383
 4585W        W 5449   4.405   8.119   0.810  0.4207  0.1541  0.1015
 4586W        W 5450   4.550   8.202  10.130  0.1432  0.1029 -0.0945
 4587W        W 5451   4.271   5.527  10.538  0.0443 -0.3184 -0.2385
 4588W        W 5452  13.089  13.714   0.998 -0.0238 -0.0612  0.1191
 4589W        W 5453  13.470   9.775  13.839  0.1488  0.2983 -0.3143
 4590W        W 5454   2.380  12.742  12.409 -0.0772  0.0606  0.1623
 4591W        W 5455   3.679  10.541  13.233  0.0650 -0.3573  0.2517
 4592W        W 5456   4.485  11.423  12.765 -0.2647 -0.0370 -0.1821
 4593W        W 5457   0.549  12.849  13.431  0.5814  0.5156 -0.1956
 4594W        W 5458  13.618   8.252   9.029 -0.2156 -0.4945 -0.0571
 4595W        W 5459   1.656   8.554   9.971  0.3681  0.0022 -0.1093
 4596W        W 5460   3.206   7.338  11.265  0.0636  0.0367 -0.1239
 4597W        W 5461   0.738   9.071  11.069  0.1355 -0.1829 -0.1427
 4598W        W 5462   3.041  10.582   0.105 -0.0081  0.0301  0.0205
 4599W        W 5463  13.613   9.865   0.289 -0.0151  0.1125 -0.2604
 4600W        W 5464   1.394   8.977  13.945 -0.1619 -0.1609  0.2406
 4601W        W 5465  13.463   9.355  10.518 -0.1545  0.4024  0.1850
 4602W        W 5466  13.591   9.268   1.248  0.2191 -0.2063  0.0233
 4603W        W 5467  12.492   7.526  10.341 -0.0397  0.2894  0.1536
 4604W        W 5468   2.383   9.142  10.222 -0.0221 -0.5323  0.1690
 4605W        W 5469   2.653   8.103  12.311  0.1286  0.0914  0.0194
 4606W        W 5470   1.528   8.937  11.512  0.0010  0.0562  0.0448
 4607W        W 5471   0.839   6.931  11.368 -0.0834 -0.0065 -0.2037
 4608W        W 5472   1.681   8.862  12.091  0.1092 -0.2641 -0.3332
 4609W        W 5473   4.380   8.485  12.026  0.1595  0.1324  0.2013
 4610W        W 5474   2.791   8.402   0.074 -0.3233 -0.0483  0.0591
 4611W        W 5475   1.702   9.862  10.533 -0.0762  0.0805 -0.2482
 4612W        W 5476   1.898   9.408  10.398  0.0766  0.2351  0.1976
 4613W        W 5477   1.166  11.115  13.308 -0.0797  0.0492 -0.1114
 4614W        W 5478   2.164   0.406  11.095 -0.1173 -0.3033 -0.0472
 4615W        W 5479   1.986  12.814   8.732 -0.1256 -0.2528  0.0704
 4616W        W 5480   0.856   8.858   0.997 -0.0676 -0.0323 -0.2658
 4617W        W 5481   1.142   9.404   0.739  0.1441  0.4844 -0.3156
 4618W        W 5482  13.746  13.972  12.855  0.0131 -0.1665  0.6268
 4619W        W 5483   5.690   6.694  12.625  0.1413 -0.0320 -0.1408
 4620W        W 5484   4.935   9.635  10.648 -0.2909  0.0392 -0.0373
 4621W        W 5485   3.302  11.382  12.418  0.0484 -0.0239  0.0293
 4622W        W 5486   0.063  11.098  12.941 -0.0130 -0.0063  0.0218
 4623W        W 5487   2.519   8.191  10.374  0.2389 -0.0935 -0.0441
 4624W        W 5488   2.874  10.309  10.723 -0.1522  0.5651 -0.0030
 4625W        W 5489   4.258   7.792  10.891  0.1656 -0.0411  0.1205
 4626W        W 5490   1.095   8.078   0.112  0.1009  0.0352 -0.0636
 4627W        W 5491   2.313   9.651   2.481  0.0720 -0.1278 -0.1812
 4628W        W 5492   4.159  10.057  10.371 -0.0044  0.1521 -0.2331
 4629W        W 5493   3.464   6.816  11.613  0.0119  0.0015 -0.0246
 4630W        W 5494   1.619  10.481  13.798 -0.0206  0.3086 -0.2690
 4631W        W 5495   1.961  12.964  12.190  0.1439  0.0841  0.2728
 4632W        W 5496   2.683   9.583  13.199  0.1957 -0.0523  0.0681
 4633W        W 5497   2.958   8.332  12.722 -0.0332 -0.0187 -0.0687
 4634W        W 5498   2.745  10.124   0.115 -0.1921  0.1077 -0.1513
 4635W        W 5499   4.824   6.821  12.342 -0.1115 -0.3719  0.1414
 4636W        W 5500   2.219  12.141   1.876 -0.0459  0.2893  0.3550
 4637W        W 5501   4.842  10.087  11.743 -0.0415  0.0901 -0.1516
 4638W        W 5502   2.475  12.405   0.570 -0.0900  0.2014  0.1741
 4639W        W 5503   3.208  13.079  12.292 -0.1537  0.2581  0.3262
 4640W        W 5504  13.768  10.217   1.293  0.0694 -0.0667 -0.4891
 4641W        W 5505  12.895   7.469   2.125 -0.0855 -0.1206  0.0840
 4642W        W 5506  12.900  10.593  12.500  0.0061  0.1226  0.1373
 4643W        W 5507   2.492   7.753  11.838 -0.0695  0.0187  0.0308
 4644W        W 5508  13.519  10.351   9.895  0.1424 -0.2194 -0.0154
 4645W        W 5509   7.086  10.759  12.108 -0.1217  0.2227 -0.4919
 4646W        W 5510   2.054   9.959  11.298  0.0374  0.2815  0.0767
 4647W        W 5511   0.878   9.455  13.284  0.1109  0.2225 -0.1272
 4648W        W 5512   1.180   9.797  12.554 -0.0752 -0.1705  0.0796
 4649W        W 5513   1.172  11.519  13.714  0.1117  0.0002  0.2628
 4650W        W 5514   5.681   9.550   0.629 -0.2164  0.0962  0.0281
 4651W        W 5515  13.805  12.325  11.288 -0.2336 -0.0857  0.2630
 4652W        W 5516   5.032  11.015  13.277 -0.0022 -0.3238  0.1639
 4653W        W 5517   2.064   8.791   9.967 -0.1749 -0.1583  0.0360
 4654W        W 5518   5.495  10.441  11.466  0.1197 -0.0610  0.1157
 4655W        W 5519   3.132   7.968  12.404  0.2174  0.1503  0.0814
 4656W        W 5520   2.375   8.230  12.831 -0.0292 -0.1010 -0.0650
 4657W        W 5521   2.631  10.535   1.091  0.0919  0.0879  0.2843
 4658W        W 5522   2.813   9.559   0.613 -0.1758  0.0730  0.0859
 4659W        W 5523   1.258   7.723  13.715 -0.0883  0.0044 -0.4535
 4660W        W 5524   1.869  13.888   0.516  0.0317 -0.2290 -0.0991
 4661W        W 5525   1.644   9.949   9.529  0.1260  0.1100 -0.0601
 4662W        W 5526   4.555  10.205  13.464  0.3024  0.0893  0.0547
 4663W        W 5527   7.379   9.012  11.525  0.0794  0.3042  0.1553
 4664W        W 5528   0.478   9.235  13.529 -0.1269 -0.0013  0.0893
 4665W        W 5529   5.490  10.873   0.899  0.1096  0.3717  0.0002
 4666W        W 5530   1.664   9.364   0.131  0.0689 -0.0552 -0.0395
 4667W        W 5531   0.918   7.962  11.049 -0.1336 -0.0823  0.2597
 4668W        W 5532   2.840  12.598  13.684  0.2026 -0.3532 -0.1953
 4669W        W 5533  13.820  10.056  11.552 -0.0030 -0.1393  0.0943
 4670W        W 5534   2.899   9.364  12.055 -0.1155  0.1537  0.1684
 4671W        W 5535   2.101  10.979  13.145 -0.0327 -0.0993 -0.3601
 4672W        W 5536  13.903  11.562  12.764 -0.1925 -0.0759 -0.1534
 4673W        W 5537   1.845  10.272   1.147 -0.1219 -0.3475 -0.4298
 4674W        W 5538   2.686   8.936  10.591 -0.0853 -0.3606 -0.1999
 4675W        W 5539   1.523   9.270  12.420  0.1108  0.0543 -0.1508
 4676W        W 5540   3.156   9.843  13.114 -0.3321 -0.0978  0.1453
 4677W        W 5541   2.504   8.111  11.002 -0.3456 -0.2920 -0.1184
 4678W        W 5542   2.935  10.306  13.677 -0.3470 -0.2569  0.0173
 4679W        W 5543   2.269   7.024   9.652 -0.3323 -0.0356  0.1730
 4680W        W 5544   3.014  10.018   8.746 -0.0788  0.1463  0.2329
 4681W        W 5545   3.923   8.487  10.174 -0.1925 -0.0829  0.3040
 4682W        W 5546   2.873   6.044  11.838  0.0278  0.1017  0.1970
 4683W        W 5547   2.277   9.526   1.978  0.1575 -0.0318  0.0858
 4684W        W 5548   1.510   8.433   0.711 -0.0949 -0.1326 -0.1965
 4685W        W 5549   2.989   9.892  11.058 -0.0457 -0.0565 -0.1668
 4686W        W 5550   2.938   6.591  10.412  0.0459  0.1107  0.0067
 4687W        W 5551   3.081   8.310  11.069 -0.1174  0.0596 -0.0138
 4688W        W 5552   0.901   8.185  11.980  0.1350  0.1925  0.0934
 4689W        W 5553   4.261   9.474   9.426 -0.1814  0.1335 -0.1162
 4690W        W 5554  12.169  11.599  10.352 -0.2364  0.0641  0.0205
 4691W        W 5555   0.730   9.771  11.813 -0.0134  0.0027 -0.2148
 4692W        W 5556   4.437   6.205   9.642  0.1094  0.4272 -0.0467
 4693W        W 5557   2.735   8.744  13.727 -0.2156  0.1434  0.0637
 4694W        W 5558   3.508  11.917   1.029 -0.1797  0.1097  0.0590
 4695W        W 5559   0.399   7.903  10.055 -0.1357  0.0035  0.0967
 4696W        W 5560   4.173   6.476  10.021  0.1397 -0.0729 -0.2501
 4697W        W 5561  13.273   9.125  13.122  0.1556 -0.0964 -0.3972
 4698W        W 5562   0.771   7.022  10.299  0.0694 -0.1782  0.0577
 4699W        W 5563   4.340   9.204  10.715  0.1334  0.0096  0.3071
 4700W        W 5564   4.536  11.362  13.854 -0.2202  0.0025 -0.2266
 4701W        W 5565   1.575  12.405   0.075 -0.0279  0.1299 -0.4634
 4702W        W 5566   2.526   9.387   7.976  0.3205 -0.1381  0.1396
 4703W        W 5567   4.844   9.892  11.075 -0.3308 -0.0087 -0.0508
 4704W        W 5568   1.822   8.719   0.221  0.1113 -0.1480  0.2845
 4705W        W 5569   1.744   8.314  12.016 -0.0802 -0.2474  0.2694
 4706W        W 5570   2.042  13.691  12.865  0.2065  0.1652 -0.1535
 4707W        W 5571   5.278  11.516  12.968  0.0720 -0.0858 -0.0119
 4708W        W 5572   0.641  10.419   2.052  0.1007 -0.1807 -0.1307
 4709W        W 5573   3.218  11.112  13.506  0.2321 -0.1468 -0.1651
 4710W        W 5574  12.656  10.153  11.811  0.3004  0.0009  0.1438
 4711W        W 5575  13.701   9.503   2.170 -0.4220 -0.3387  0.0380
 4712W        W 5576   4.963   6.722  10.856  0.0096  0.0868 -0.0018
 4713W        W 5577   0.764   8.242   9.813 -0.1607 -0.0762  0.0090
 4714W        W 5578   3.384  10.199  11.413 -0.0212  0.1366  0.0260
 4715W        W 5579  13.305  10.068  11.701 -0.1440  0.0683  0.1964
 4716W        W 5580  13.425   8.195   0.448 -0.2654  0.0026 -0.2888
 4717W        W 5581   2.075   7.947  12.434  0.3523 -0.1427 -0.2774
 4718W        W 5582   4.277  12.542  13.988 -0.1728  0.0416 -0.0397
 4719W        W 5583  13.749   0.110  13.380 -0.1382 -0.0192  0.1754
 4720W        W 5584   2.370   8.526  11.274 -0.2650 -0.3013 -0.1794
 4721W        W 5585   1.627  11.054  13.024 -0.3597 -0.0191 -0.0511
 4722W        W 5586   2.796   7.207  12.579 -0.0478  0.0381  0.0668
 4723W        W 5587  13.557  11.152  10.172  0.2911  0.2590  0.0980
 4724W        W 5588  13.909   9.550   0.083  0.0026 -0.1808  0.1909
 4725W        W 5589   3.308   8.349   9.677  0.1512  0.0438  0.0532
 4726W        W 5590  13.036  10.191  12.173  0.0738  0.2037 -0.2145
 4727W        W 5591   0.734   9.857  12.388  0.0587 -0.0890 -0.0796
 4728W        W 5592   0.400  10.075  13.856 -0.1122  0.0459 -0.1890
 4729W        W 5593   2.617  10.060  12.079  0.0058  0.1825 -0.3702
 4730W        W 5594   1.099   8.734  11.411 -0.0528 -0.0788 -0.3297
 4731W        W 5595   0.596  11.169  12.745  0.3673 -0.0777 -0.1493
 4732W        W 5596   1.156   9.116  11.797  0.0307  0.1498 -0.1171
 4733W        W 5597   5.028  11.271  12.600 -0.2451 -0.5237 -0.2364
 4734W        W 5598   0.500   8.204  11.051  0.1080  0.1583 -0.1625
 4735W        W 5599   3.310  10.986  14.014 -0.2781  0.1656 -0.0129
 4736W        W 5600   0.112   9.295   0.429 -0.1818  0.3852 -0.1213
 4737W        W 5601   0.819   9.291  10.560  0.3495  0.0679  0.0409
 4738W        W 5602   3.747   5.498   7.822  0.0547 -0.0770  0.1389
 4739W        W 5603   0.960   9.420   9.542  0.0660 -0.2499 -0.0621
 4740W        W 5604  13.698   9.439   9.923  0.0619  0.1584  0.0146
 4741W        W 5605   2.272   9.008  13.412 -0.0340 -0.0581 -0.1493
 4742W        W 5606   2.438   5.593  12.050 -0.2707  0.2173  0.0834
 4743W        W 5607   0.529  10.490   1.561 -0.0229 -0.0464  0.2466
 4744W        W 5608   3.350   7.511  12.499  0.0101  0.2939 -0.0730
 4745W        W 5609   3.282  10.235   1.599 -0.0590  0.3269 -0.2505
 4746W        W 5610   2.111  10.588   0.299 -0.1206  0.0359 -0.2102
 4747W        W 5611   4.505   6.798  10.992  0.0259  0.1678  0.4460
 4748W        W 5612   4.694   7.599  11.630  0.1882 -0.0270  0.1164
 4749W        W 5613   2.480   9.939   7.291 -0.1714 -0.1248 -0.3609
 4750W        W 5614   3.518  10.499  11.847  0.1562 -0.2082  0.0227
 4751W        W 5615   2.165   9.742  10.839  0.0297  0.0985 -0.0037
 4752W        W 5616   3.433  10.249   0.726 -0.3349 -0.0828  0.2094
 4753W        W 5617   5.279  11.545   9.794 -0.1148 -0.0524 -0.0449
 4754W        W 5618   2.446   8.766   0.157 -0.1451 -0.1834  0.1222
 4755W        W 5619   1.006   7.936   1.023  0.4000  0.0414  0.3117
 4756W        W 5620   0.095   8.509  10.829 -0.0098 -0.1168  0.3873
 4757W        W 5621   1.178   7.491  12.509 -0.1984 -0.0262  0.1181
 4758W        W 5622   0.301  10.390   1.111 -0.1777 -0.1972 -0.2146
 4759W        W 5623   2.040   9.362  12.384  0.1790 -0.1558 -0.1005
 4760W        W 5624   0.111   7.625   0.936  0.1289  0.0348 -0.0684
 4761W        W 5625   4.255   9.869   0.139  0.0042  0.2125  0.0583
 4762W        W 5626   3.086  11.260   0.771  0.0006 -0.0046 -0.0160
 4763W        W 5627   1.758  12.981  11.677 -0.1216 -0.1505  0.3316
 4764W        W 5628   2.923  10.372   0.587 -0.1500 -0.2153 -0.0424
 4765W        W 5629   2.799   8.971  13.157 -0.2073  0.1309 -0.1107
 4766W        W 5630   1.045   9.911   2.045 -0.0026 -0.1456  0.0334
 4767W        W 5631   1.786  10.557  13.004 -0.2131  0.1192  0.0122
 4768W        W 5632   4.186  10.570  13.535  0.0090  0.1864 -0.1807
 4769W        W 5633  13.211  11.440   0.086 -0.1550 -0.0478 -0.0664
 4770W        W 5634   1.830  11.262   1.109  0.1104  0.0685 -0.1124
 4771W        W 5635   0.545  10.556  13.985 -0.1686  0.3562  0.2084
 4772W        W 5636   0.940   7.985  12.464  0.1902 -0.4425 -0.0604
 4773W        W 5637   1.512   1.716   2.545  0.1119  0.3892  0.0815
 4774W        W 5638   4.736   0.447  13.882 -0.0643 -0.1114 -0.1566
 4775W        W 5639   0.393   2.699   2.713  0.0749  0.0438 -0.0144
 4776W        W 5640  13.705  12.718   2.506  0.2708 -0.0288 -0.0357
 4777W        W 5641   2.484  11.969   1.472 -0.1964 -0.0331  0.2333
 4778W        W 5642  12.727  11.169   3.005 -0.0304  0.0850  0.2941
 4779W        W 5643   3.583  12.426   4.194  0.0840 -0.1315  0.2711
 4780W        W 5644   1.025  12.639   1.433 -0.0311  0.0237 -0.3644
 4781W        W 5645   2.425  13.448  13.919 -0.2330 -0.1492  0.5309
 4782W        W 5646   3.809  11.229   5.253  0.1169 -0.2207  0.0788
 4783W        W 5647  12.707  10.674   4.221 -0.2547  0.0891 -0.1487
 4784W        W 5648   0.636  12.773   2.575  0.0017  0.0379  0.1970
 4785W        W 5649   1.309  10.868   4.477  0.0804 -0.0097  0.1467
 4786W        W 5650   3.879  11.891   5.053 -0.2654  0.4112  0.1875
 4787W        W 5651   6.931   9.779   2.492 -0.0480 -0.2292 -0.1895
 4788W        W 5652   4.769  11.609   2.721 -0.2204 -0.0440 -0.1247
 4789W        W 5653   3.581   0.861   1.322  0.1650 -0.4373 -0.2170
 4790W        W 5654   3.957   1.435   2.045  0.2331 -0.0691  0.1688
 4791W        W 5655  13.189   0.241  13.435 -0.1926 -0.4047 -0.0503
 4792W        W 5656   1.077  11.008   4.889 -0.1739  0.1371  0.1658
 4793W        W 5657   0.278  10.279   3.853  0.0245 -0.0404 -0.2905
 4794W        W 5658   4.082  11.916   3.837 -0.2936 -0.2990  0.0266
 4795W        W 5659  12.809   0.053   2.583  0.2140 -0.0625  0.1171
 4796W        W 5660   2.890  13.803   2.234 -0.2443 -0.0772  0.1355
 4797W        W 5661  11.963   0.456   1.271 -0.4468  0.0899 -0.0483
 4798W        W 5662   2.873  13.221   2.258 -0.0443  0.1093 -0.0424
 4799W        W 5663   2.696  13.721   5.348 -0.1465 -0.0751  0.3212
 4800W        W 5664   5.431  13.655   6.030  0.1181 -0.1592 -0.0172
 4801W        W 5665   2.385  12.269   2.356 -0.3906 -0.3232  0.2114
 4802W        W 5666   1.378  10.722   7.674  0.1724  0.0842 -0.0163
 4803W        W 5667   1.833  13.217   1.167  0.1359  0.1236 -0.0555
 4804W        W 5668   1.071  11.196   0.172 -0.1914 -0.1328  0.2562
 4805W        W 5669   0.546   0.168  12.891 -0.0542  0.0228 -0.1782
 4806W        W 5670   4.770  13.115  13.638 -0.0495  0.1519 -0.1229
 4807W        W 5671   3.563  13.760   1.698 -0.0333  0.0149 -0.0214
 4808W        W 5672   4.455  10.443  12.794  0.2665  0.0408 -0.2640
 4809W        W 5673   3.299  13.265   1.954 -0.0257  0.2507 -0.2679
 4810W        W 5674   1.830   1.434   1.090  0.0343 -0.0835  0.1461
 4811W        W 5675   1.262  10.050   3.377 -0.1030 -0.0255  0.0582
 4812W        W 5676   3.198  12.034   2.273 -0.0855  0.2413  0.0054
 4813W        W 5677   3.704   1.080   3.089  0.1558  0.0643 -0.2176
 4814W        W 5678   3.035   3.452   1.624 -0.1729 -0.0866  0.0980
 4815W        W 5679   2.086   1.361   1.543  0.2578  0.0318 -0.0956
 4816W        W 5680   0.019  11.025   3.310  0.0326 -0.0446  0.2644
 4817W        W 5681   5.800  13.625   6.442 -0.0645  0.0454 -0.2245
 4818W        W 5682   1.362   1.894   1.696 -0.2227  0.0357  0.0494
 4819W        W 5683   4.373   8.809   2.966 -0.2565 -0.1704 -0.0600
 4820W        W 5684  13.554  13.448  12.078  0.1707 -0.2242  0.0694
 4821W        W 5685   1.152  11.220   1.034  0.2448  0.1326  0.1526
 4822W        W 5686   1.503  11.862   5.175  0.1475  0.1219 -0.0987
 4823W        W 5687   2.584  13.880   1.590 -0.2199 -0.1171  0.0913
 4824W        W 5688   0.421   0.054   3.689 -0.0792  0.0630  0.1869
 4825W        W 5689   0.866  11.611   0.897  0.0223 -0.0982 -0.2313
 4826W        W 5690   0.659   0.356   1.238 -0.0456 -0.0158  0.2226
 4827W        W 5691   3.505  13.667  13.733 -0.2299  0.3907 -0.0755
 4828W        W 5692   5.325  12.080   1.080  0.0753  0.2387  0.0623
 4829W        W 5693   0.391  12.520  11.711  0.1428  0.0379  0.0970
 4830W        W 5694   0.712  13.578   0.094  0.2602 -0.1468  0.0110
 4831W        W 5695   2.006   0.760   3.397  0.1830 -0.2845  0.2868
 4832W        W 5696   0.686   1.848   0.298 -0.0296  0.3116 -0.0992
 4833W        W 5697   2.698  12.945   0.405 -0.1006  0.0661 -0.1484
 4834W        W 5698   4.896  13.877   2.034 -0.0761 -0.0068  0.0390
 4835W        W 5699   0.342  11.338   2.970  0.0533 -0.1030  0.0685
 4836W        W 5700  12.507  13.427  13.135  0.0558  0.0332 -0.0059
 4837W        W 5701  13.903  13.568   2.888 -0.0397  0.1239  0.0041
 4838W        W 5702   2.388  11.926   2.759 -0.1695  0.2764 -0.1125
 4839W        W 5703  12.011   2.908   0.889  0.1413 -0.1581 -0.2011
 4840W        W 5704   1.134  11.822   3.401 -0.2280 -0.2601  0.0384
 4841W        W 5705  13.162  13.083   3.956 -0.1456 -0.2920  0.2817
 4842W        W 5706  13.386  12.268   2.594  0.0144  0.2815 -0.0276
 4843W        W 5707   1.952  11.420   4.538  0.1263 -0.3463 -0.2281
 4844W        W 5708   0.395  11.926   2.231 -0.2298 -0.2420  0.3331
 4845W        W 5709  14.002  13.355   2.073 -0.0954  0.1093  0.2418
 4846W        W 5710   4.219  11.509   5.292 -0.0431 -0.1357  0.2931
 4847W        W 5711   4.180  11.770   2.038 -0.2151  0.1101  0.1374
 4848W        W 5712   5.411   0.071   4.378  0.0521  0.4936  0.0907
 4849W        W 5713   4.361  13.323   5.395 -0.3015 -0.2668  0.3294
 4850W        W 5714   4.639  11.891   2.234  0.2155  0.0195  0.0431
 4851W        W 5715   4.408  13.015   3.698 -0.0795  0.0955  0.0180
 4852W        W 5716   2.522   1.708  13.794 -0.0475 -0.0331  0.2249
 4853W        W 5717   1.057   9.804   5.607 -0.0900  0.1597  0.1471
 4854W        W 5718   2.867  12.164   2.629 -0.2038  0.2545 -0.0146
 4855W        W 5719   1.519   1.330   0.257 -0.1722 -0.0283 -0.2181
 4856W        W 5720   1.358  12.208   2.127 -0.1157  0.0748 -0.3112
 4857W        W 5721   1.093  13.083   1.633 -0.2778 -0.4044 -0.0738
 4858W        W 5722   1.783   0.165   1.113  0.4005 -0.2523  0.2378
 4859W        W 5723   2.688   0.309   2.486 -0.2458 -0.1582  0.2097
 4860W        W 5724   0.113  10.397   5.088  0.1262  0.4860  0.1358
 4861W        W 5725   3.498  10.904   0.986  0.2286  0.6769  0.0170
 4862W        W 5726  13.865  10.518   3.997 -0.1307 -0.2644 -0.2096
 4863W        W 5727   1.103   3.196  13.889 -0.1892  0.2369 -0.1291
 4864W        W 5728   2.262  11.600   5.704 -0.2014  0.0846  0.1398
 4865W        W 5729   2.570  10.840   2.227  0.0228 -0.0798 -0.1246
 4866W        W 5730   0.801  10.912   2.193 -0.0844 -0.2058 -0.1482
 4867W        W 5731   0.541  13.343   1.028  0.1800 -0.2001  0.1978
 4868W        W 5732   4.623   0.659   2.163 -0.3721  0.0249  0.1586
 4869W        W 5733   4.298  12.342   0.456 -0.3141  0.2604  0.0317
 4870W        W 5734   1.097  10.419   2.280  0.2946 -0.0823 -0.1116
 4871W        W 5735   4.015  13.466   2.640 -0.0340 -0.3060 -0.2166
 4872W        W 5736   3.021  12.471   3.511  0.1335 -0.1819  0.0416
 4873W        W 5737   3.404  13.130  13.826  0.3164  0.1079  0.0372
 4874W        W 5738   0.202   0.474   1.327  0.1482 -0.1186  0.2852
 4875W        W 5739   3.109  13.509   2.564  0.1253  0.1330  0.1877
 4876W        W 5740   4.177   0.780   2.321  0.1598  0.0325 -0.0629
 4877W        W 5741   3.306   1.743   0.969 -0.1857  0.2418  0.1283
 4878W        W 5742   2.510   0.652   2.172  0.2719  0.0413 -0.1292
 4879W        W 5743   1.752  13.738   1.301 -0.3572  0.0348 -0.2530
 4880W        W 5744   1.901   2.716   3.910 -0.1097  0.1168  0.0051
 4881W        W 5745   0.745   1.104   1.666  0.2697 -0.0645  0.1237
 4882W        W 5746   1.658  11.262   2.372  0.1891  0.0556 -0.1753
 4883W        W 5747   4.624  11.215   3.004 -0.0037  0.1894  0.0415
 4884W        W 5748   4.837   1.694   5.220  0.4140  0.1910 -0.1123
 4885W        W 5749  13.757  12.214   4.062  0.0147 -0.0631  0.1292
 4886W        W 5750   3.720  10.858   1.851 -0.0292 -0.0624  0.2541
 4887W        W 5751   2.518  12.819   2.274 -0.1820  0.2400 -0.1091
 4888W        W 5752   4.753   0.247   2.364 -0.1066 -0.0037  0.1956
 4889W        W 5753   2.671  13.467   0.376  0.2131 -0.0068  0.0078
 4890W        W 5754   2.199  10.135   4.566 -0.3216 -0.2696 -0.0379
 4891W        W 5755   0.516  11.554   3.407  0.5284  0.0796 -0.2420
 4892W        W 5756   2.645  11.231   5.906  0.0930  0.1722 -0.0200
 4893W        W 5757   1.779  12.888  13.857  0.2246 -0.0583 -0.1089
 4894W        W 5758   4.291  12.252   1.923  0.2214  0.1225  0.0404
 4895W        W 5759   3.223   0.132   2.403  0.0361  0.1046 -0.0750
 4896W        W 5760   2.637   1.224   1.496 -0.0367 -0.2455  0.1389
 4897W        W 5761   3.013  11.543   3.338  0.1027 -0.2246 -0.0742
 4898W        W 5762   1.222  13.519  13.184  0.2556 -0.0649  0.2333
 4899W        W 5763  13.235  11.701   1.589  0.3095 -0.2190  0.0109
 4900W        W 5764   3.945   1.226   3.605  0.2097 -0.3387  0.2092
 4901W        W 5765   1.414  13.536   0.644  0.1653 -0.1402 -0.2488
 4902W        W 5766   1.218   0.754   2.652  0.1292 -0.1780 -0.0305
 4903W        W 5767   1.536  12.458   2.623 -0.0973  0.1029 -0.0379
 4904W        W 5768   0.996  12.300   2.556  0.0103  0.1530 -0.3011
 4905W        W 5769   3.780   9.569   2.357  0.3541 -0.1216 -0.0480
 4906W        W 5770   4.242  10.227   1.290  0.0574 -0.2877 -0.2423
 4907W        W 5771   3.110   0.088   4.204 -0.1983 -0.0239  0.0836
 4908W        W 5772   4.898  12.108   5.152  0.2385 -0.0577  0.2486
 4909W        W 5773   2.834   0.802   1.793 -0.1017 -0.0799 -0.1897
 4910W        W 5774   3.581  10.865   2.337 -0.0633 -0.3182 -0.0515
 4911W        W 5775   0.913  11.376   3.118 -0.2634 -0.2634 -0.0878
 4912W        W 5776   1.790  12.178   4.463  0.2070 -0.1613 -0.2361
 4913W        W 5777   3.467  11.710   4.740  0.0535  0.1145  0.3237
 4914W        W 5778   0.309  11.321   1.659 -0.0726  0.0541 -0.0325
 4915W        W 5779   2.845  11.020   0.281  0.4207  0.1741  0.2714
 4916W        W 5780   6.212  13.345   1.481  0.1098  0.3273  0.0451
 4917W        W 5781   0.108   1.575   1.358 -0.2389  0.2119  0.3316
 4918W        W 5782   1.313   0.284  13.767  0.1120 -0.1448 -0.0271
 4919W        W 5783   2.542  11.686   3.482 -0.2643  0.1612  0.1198
 4920W        W 5784   1.942  10.755   1.332  0.0046  0.2462 -0.0005
 4921W        W 5785   0.163   0.232   2.323 -0.3244 -0.1453 -0.2262
 4922W        W 5786   2.317   0.056   2.033  0.0530  0.1887 -0.4536
 4923W        W 5787   3.147   1.340   0.481 -0.2476 -0.0563  0.2638
 4924W        W 5788   2.148   1.399   0.129 -0.1646 -0.0614  0.0838
 4925W        W 5789   0.977  13.793   0.447  0.1401 -0.1113  0.0169
 4926W        W 5790  13.008  12.646  11.688 -0.0973 -0.1089 -0.1368
 4927W        W 5791   0.505  13.626  13.594 -0.0828  0.0001  0.0753
 4928W        W 5792   2.163  13.548   1.510  0.0302  0.2389 -0.2710
 4929W        W 5793   3.086   0.908   1.316 -0.0685  0.1417  0.0021
 4930W        W 5794   0.607  12.020  13.142 -0.2540  0.2057 -0.0890
 4931W        W 5795   4.122  13.227   4.065  0.0049 -0.0715 -0.0531
 4932W        W 5796   0.798   2.781  13.148  0.1802  0.3265 -0.1374
 4933W        W 5797   2.945   1.639   1.377  0.0525  0.1475  0.0187
 4934W        W 5798  11.949  12.823  12.185 -0.1196  0.1344 -0.0924
 4935W        W 5799   0.367   0.423   5.487 -0.2202 -0.0894  0.0695
 4936W        W 5800   1.682   0.612   4.204 -0.1697  0.2797 -0.3899
 4937W        W 5801   3.161  13.157   3.892  0.1946  0.1103 -0.0385
 4938W        W 5802   1.557  11.626   3.065  0.1272  0.3392  0.3795
 4939W        W 5803   2.365  11.020   0.505 -0.1456  0.1679 -0.1907
 4940W        W 5804   2.376  11.598   4.007  0.2065 -0.1845 -0.0502
 4941W        W 5805   0.640   1.553  13.710 -0.0763  0.2926 -0.1013
 4942W        W 5806   3.301  11.084   1.653 -0.1760 -0.1054  0.0105
 4943W        W 5807  12.592  12.917   1.200 -0.3466 -0.1384 -0.0617
 4944W        W 5808   2.937  11.657   3.989 -0.0188 -0.0271 -0.2002
 4945W        W 5809   2.978  13.313   1.396 -0.0831 -0.0874 -0.0284
 4946W        W 5810   2.101  11.082   2.225  0.0823  0.2385 -0.0548
 4947W        W 5811   0.794  10.661   4.568  0.1330  0.0891  0.3373
 4948W        W 5812   1.386  12.469   4.517  0.0228  0.1403 -0.1649
 4949W        W 5813   1.965   2.232   3.612 -0.4368  0.0407  0.2436
 4950W        W 5814   2.961  11.785   0.132 -0.0990  0.0226 -0.1164
 4951W        W 5815  13.480   0.574   1.134  0.1494  0.2076 -0.0528
 4952W        W 5816  12.858   0.322   5.443  0.1543 -0.0149 -0.1961
 4953W        W 5817   2.375  13.404   0.837  0.2675 -0.1815 -0.3145
 4954W        W 5818  11.382  12.023   4.148 -0.3137 -0.2297 -0.1759
 4955W        W 5819   3.659  10.417   4.729  0.1870 -0.2815  0.0855
 4956W        W 5820   4.459   0.386   0.341 -0.4657  0.0588 -0.0862
 4957W        W 5821   4.280  13.520   0.202 -0.1232  0.2457 -0.1431
 4958W        W 5822   2.701   0.775   2.712 -0.1307  0.1687 -0.1799
 4959W        W 5823   4.887  13.985   3.902  0.1260  0.5341  0.0351
 4960W        W 5824   2.122  12.807   3.086 -0.0866 -0.2156  0.1591
 4961W        W 5825   4.309  12.837   4.855  0.0331  0.1012 -0.1385
 4962W        W 5826   2.916  12.872   3.167 -0.0708 -0.2079  0.1377
 4963W        W 5827   0.608   9.990   1.228  0.0449 -0.2419 -0.0349
 4964W        W 5828   2.898   4.404   1.933  0.1007  0.1014  0.0116
 4965W        W 5829   2.923  11.465   4.906 -0.3893  0.0492 -0.1108
 4966W        W 5830   3.518  10.379   6.063  0.1105 -0.0141  0.1105
 4967W        W 5831   2.784  13.384   3.540  0.0678  0.0063  0.0646
 4968W        W 5832   6.284   3.246   4.206  0.0996  0.0956  0.1565
 4969W        W 5833   2.779  12.897   3.708 -0.1298  0.1261  0.1115
 4970W        W 5834   0.969  11.835   6.396  0.1482  0.0438  0.2651
 4971W        W 5835   1.344   2.507   0.610  0.0614  0.0621 -0.2393
 4972W        W 5836   1.369  12.121   3.043 -0.2083 -0.2334 -0.1640
 4973W        W 5837   1.767  10.739   5.260  0.0213 -0.3140 -0.0110
 4974W        W 5838   4.061  12.218   4.258  0.2862 -0.0001 -0.0837
 4975W        W 5839   1.509   0.420  13.165 -0.0020  0.1691  0.1229
 4976W        W 5840   1.350  13.458   2.874 -0.1572  0.0657 -0.0714
 4977W        W 5841   3.651  12.734   5.432  0.1437 -0.0395  0.2395
 4978W        W 5842   4.976  13.389   1.894  0.1492  0.1784 -0.1184
 4979W        W 5843   0.864  11.673   3.836  0.4781 -0.1470 -0.0010
 4980W        W 5844   0.703   0.627  10.919 -0.0749  0.2177  0.1579
 4981W        W 5845   3.531  12.960   4.260  0.0002 -0.2473  0.1170
 4982W        W 5846   1.577   0.447   3.742 -0.0697  0.2614  0.0378
 4983W        W 5847   0.923  10.770   4.067  0.2851  0.0667  0.0174
 4984W        W 5848   0.241   0.470   2.876  0.0964  0.0750 -0.3040
 4985W        W 5849   4.566  13.418   1.532  0.1282  0.1090 -0.4133
 4986W        W 5850   2.447   0.994  11.796  0.0826 -0.1852  0.2263
 4987W        W 5851   4.840  12.456   0.286  0.0443 -0.4000  0.2403
 4988W        W 5852   0.997  10.420   5.044 -0.0620  0.1364 -0.0498
 4989W        W 5853   3.875   2.447   1.970  0.0564  0.1454 -0.2983
 4990W        W 5854   2.445  13.058   1.809 -0.0361  0.0735 -0.0458
 4991W        W 5855   1.356  11.692   1.745  0.0277 -0.1427  0.0383
 4992W        W 5856   1.843  12.523   1.664  0.2439 -0.0646  0.1274
 4993W        W 5857   3.201   0.538   2.807  0.1455 -0.0054 -0.0959
 4994W        W 5858   3.450  11.292   2.108 -0.0391  0.3395  0.0723
 4995W        W 5859  13.917  12.218   0.930  0.3357 -0.1963 -0.3171
 4996W        W 5860   1.817   0.881   0.353 -0.0802  0.1397 -0.1333
 4997W        W 5861   1.321  12.086   4.155 -0.2565 -0.1675  0.3306
 4998W        W 5862   4.246  12.335  13.325  0.2085  0.1910  0.0052
 4999W        W 5863   1.120  13.356   2.425  0.0268 -0.2427  0.0790
 5000W        W 5864  12.392  13.754   3.585 -0.0435 -0.0438  0.1642
 5001W        W 5865   2.098   0.486   3.775  0.0155 -0.0439  0.0244
 5002W        W 5866   2.776  13.366   6.300 -0.2809 -0.0446 -0.0614
 5003W        W 5867   3.332  12.691   3.863 -0.3864 -0.0089  0.0242
 5004W        W 5868   1.087   2.086   5.191  0.0584  0.1624  0.2481
 5005W        W 5869   1.851  13.390   3.549  0.1661  0.0831 -0.0488
 5006W        W 5870   1.633  11.843  12.651 -0.0115  0.1325  0.1320
 5007W        W 5871  13.016   2.124   0.440  0.0393  0.2086 -0.0681
 5008W        W 5872   2.352   0.933   0.380 -0.2771 -0.1350 -0.0201
 5009W        W 5873   0.685   0.240   1.958  0.0046  0.1266  0.0038
 5010W        W 5874   2.585  11.161  13.396 -0.1103 -0.0317 -0.2310
 5011W        W 5875   3.803  12.341   2.143 -0.1722  0.0900 -0.2018
 5012W        W 5876   4.054  13.898   3.875  0.0764  0.1767 -0.1079
 5013W        W 5877   3.675   0.268   1.466  0.0605  0.1487 -0.0980
 5014W        W 5878   0.223  12.383   4.245  0.0153 -0.2567  0.0166
 5015W        W 5879   2.437  11.807   0.054  0.0358  0.1578 -0.3791
 5016W        W 5880   4.544   1.174  14.006  0.2596  0.1118  0.0038
 5017W        W 5881   2.825  11.755   1.816 -0.1766  0.3251  0.0471
 5018W        W 5882   3.390  13.733   2.162  0.0662  0.0903  0.1004
 5019W        W 5883   2.829  11.529   2.848 -0.0788 -0.0363  0.0484
 5020W        W 5884  11.921  10.070   4.578 -0.0393  0.1372 -0.0155
 5021W        W 5885   0.593  13.081   1.465  0.1355  0.1187 -0.3185
 5022W        W 5886   3.332   0.450   1.086 -0.2538 -0.0054 -0.0297
 5023W        W 5887   2.984  11.366   2.048 -0.0603  0.3489  0.2731
 5024W        W 5888   3.227  13.587   3.073 -0.0103 -0.1236  0.1590
 5025W        W 5889   3.879  12.979   3.312 -0.1938 -0.0534 -0.2141
 5026W        W 5890  13.141  12.154  13.899  0.4015 -0.0469 -0.1240
 5027W        W 5891   0.222  10.825   3.966  0.0148 -0.1687  0.3573
 5028W        W 5892   2.170  13.792   1.110  0.2250 -0.0168 -0.1423
 5029W        W 5893   3.059  13.671  13.012  0.2470  0.0146  0.1457
 5030W        W 5894   3.943  13.374  13.862  0.1055 -0.1577  0.0286
 5031W        W 5895   2.180   1.839   2.296 -0.2752  0.0923  0.1310
 5032W        W 5896   0.477  12.915   0.762 -0.2871  0.0753 -0.2236
 5033W        W 5897   2.872  12.065   0.543 -0.1062 -0.1403 -0.3762
 5034W        W 5898  13.103  13.552   5.049 -0.0726  0.1100  0.0748
 5035W        W 5899   0.451  10.877   1.842  0.0505 -0.2863 -0.1748
 5036W        W 5900   3.373  14.012   5.445  0.3531  0.2102  0.0357
 5037W        W 5901   1.546   8.267   1.649  0.2454  0.0070 -0.0478
 5038W        W 5902   5.030  13.758   1.571  0.1532 -0.0789  0.0895
 5039W        W 5903   0.990  11.696   1.367 -0.0748 -0.1352  0.1077
 5040W        W 5904   0.333  13.721   2.393 -0.0719  0.0583 -0.5292
 5041W        W 5905   0.956   1.176  13.582  0.0641 -0.1634 -0.0542
 5042W        W 5906   1.622  12.169  13.095  0.0234 -0.1528 -0.0974
 5043W        W 5907   2.047   0.505   1.949  0.2387 -0.1783 -0.1779
 5044W        W 5908   1.406  12.215   3.626  0.1134  0.0927  0.0541
 5045W        W 5909  13.759  12.823   3.419 -0.3422  0.0777 -0.2802
 5046W        W 5910   2.021   0.248   3.203  0.1084 -0.0605  0.0363
 5047W        W 5911   0.176  12.758   2.306 -0.0470  0.1762  0.0286
 5048W        W 5912   1.383  13.583   3.375  0.0958 -0.0970 -0.2876
 5049W        W 5913   0.879   9.711   3.192 -0.0890 -0.2498  0.0535
 5050W        W 5914  13.705   0.720   0.194  0.0300  0.0706 -0.2710
 5051W        W 5915   1.011  12.191   1.733 -0.2526 -0.1267 -0.2381
 5052W        W 5916   1.774   0.668   0.858  0.1016 -0.2413  0.0512
 5053W        W 5917   3.002  11.974   1.084  0.0810 -0.1552 -0.3366
 5054W        W 5918   4.274  11.131   3.910 -0.0352 -0.3022 -0.1286
 5055W        W 5919   4.943   0.546   0.343 -0.1244  0.2277  0.0731
 5056W        W 5920   6.137  11.396   5.351 -0.0306 -0.2314  0.0097
 5057W        W 5921   1.903  13.837  13.953  0.1431  0.0480 -0.2087
 5058W        W 5922   1.003  12.342   3.873 -0.0253 -0.0399 -0.0090
 5059W        W 5923   0.050   8.536   3.133 -0.1452 -0.2000 -0.0989
 5060W        W 5924   0.428   9.919   1.785  0.1826  0.3803 -0.4217
 5061W        W 5925  12.784  12.883   4.149  0.1086  0.0136 -0.1410
 5062W        W 5926  13.005  11.945   5.349  0.0265 -0.0436 -0.0099
 5063W        W 5927  13.696   1.945   1.790  0.1183 -0.1733 -0.0786
 5064W        W 5928   1.086  11.355   4.575  0.1895  0.3184  0.0563
 5065W        W 5929   0.181  13.997   1.355 -0.1716 -0.0723 -0.1466
 5066W        W 5930   0.116  11.914   3.405 -0.2675 -0.2560 -0.1527
 5067W        W 5931  13.293   1.548   1.555  0.0182  0.0447  0.0406
 5068W        W 5932   0.194   0.535   0.171 -0.2040  0.1059 -0.0620
 5069W        W 5933   3.866  11.492   3.789 -0.0194  0.3190 -0.0389
 5070W        W 5934   3.079  12.617   1.026 -0.1007 -0.2727  0.0754
 5071W        W 5935   1.898   0.592   1.398  0.1293  0.2685  0.0435
 5072W        W 5936  13.986   8.221  13.491 -0.2182  0.2579  0.0521
 5073W        W 5937   2.294  12.360   6.070 -0.2171 -0.3545  0.1389
 5074W        W 5938  13.062  11.993   4.563 -0.0554 -0.1247 -0.0369
 5075W        W 5939   0.821  13.194   2.913 -0.1355 -0.3426 -0.2548
 5076W        W 5940   0.318  11.627   0.081  0.1617 -0.0059  0.1488
 5077W        W 5941   2.707  11.957   4.717  0.1837 -0.2146 -0.3531
 5078W        W 5942   1.895  12.352   3.376  0.2231 -0.1741  0.1921
 5079W        W 5943   0.001  10.088   2.244 -0.0626 -0.1050 -0.2170
 5080W        W 5944   4.037  13.291   5.740  0.0069  0.1159 -0.2183
 5081W        W 5945   4.682   1.943   1.408  0.0721 -0.1063 -0.2951
 5082W        W 5946   1.965   0.418   0.342  0.0177 -0.0483  0.1668
 5083W        W 5947   2.754  10.519  12.811  0.1123  0.2016  0.0974
 5084W        W 5948   1.986  12.399   0.493 -0.2529  0.1307 -0.4050
 5085W        W 5949   2.956  12.572   2.364 -0.0553 -0.3865  0.2400
 5086W        W 5950   1.174   1.528  13.856 -0.4500 -0.1402 -0.2222
 5087W        W 5951   2.550  12.315   6.493 -0.0187 -0.0670  0.0733
 5088W        W 5952   2.943   3.400   0.235  0.1796 -0.0766 -0.2140
 5089W        W 5953   2.008  13.137   4.551  0.0658 -0.2231 -0.2669
 5090W        W 5954  10.409  12.198   5.151 -0.1407  0.1132 -0.0582
 5091W        W 5955   3.055  10.291   3.527  0.2540 -0.0054  0.0982
 5092W        W 5956  12.618   0.684   5.239  0.0571 -0.2172  0.2421
 5093W        W 5957   1.739   0.143   2.132 -0.0226  0.0263  0.1323
 5094W        W 5958   2.015  12.150   5.240 -0.2634  0.0316  0.2036
 5095W        W 5959   1.979  11.715   2.711 -0.5534  0.1820  0.3361
 5096W        W 5960   2.456  12.541   1.781 -0.1694  0.0239  0.3129
 5097W        W 5961   4.650  12.980   1.951  0.0245  0.1614  0.0457
 5098W        W 5962   4.115   2.342   3.245  0.0269 -0.0678 -0.0268
 5099W        W 5963   5.090  13.286   6.950  0.0759  0.1017  0.1833
 5100W        W 5964   0.602  12.905   2.026  0.1128 -0.0668 -0.0504
 5101W        W 5965   0.038   3.572  13.305  0.2709 -0.1648 -0.0468
 5102W        W 5966   4.137   0.942   4.584 -0.2420  0.3456 -0.0786
 5103W        W 5967   1.363  11.159   1.469 -0.1386  0.2140 -0.1210
 5104W        W 5968   1.575  12.645   3.093  0.1572  0.3516  0.1588
 5105W        W 5969   3.362  12.417   1.877  0.2197  0.1935  0.1598
 5106W        W 5970  12.563   2.672  12.652  0.0168  0.2883 -0.0563
 5107W        W 5971   1.265  12.030   0.710 -0.0923 -0.2254 -0.0732
 5108W        W 5972   0.230  13.577   5.784 -0.3100  0.0230 -0.1185
 5109W        W 5973   4.276  11.956   4.604 -0.2156 -0.1041 -0.1882
 5110W        W 5974   1.536  13.359   4.533  0.1851  0.0637  0.2143
 5111W        W 5975   0.727  12.293   5.923 -0.0218  0.1405  0.0647
 5112W        W 5976   3.707  13.208   6.716 -0.0424  0.2045  0.1096
 5113W        W 5977   1.470  13.202   5.358  0.1150  0.1616 -0.0440
 5114W        W 5978   0.494  10.567   6.007 -0.0116 -0.0907  0.2140
 5115W        W 5979   3.186  11.405   4.412  0.2721  0.1293  0.1172
 5116W        W 5980   3.308  12.889   2.317  0.0728 -0.0231  0.1016
 5117W        W 5981   4.501  10.046   6.395  0.1518  0.1504 -0.2485
 5118W        W 5982  13.449  11.588   5.668  0.0150  0.1532  0.0792
 5119W        W 5983   0.015   0.779   7.098 -0.1124  0.0827  0.1424
 5120W        W 5984   3.752  13.103   3.815  0.0897  0.0191  0.1246
 5121W        W 5985   1.945  12.791   4.124 -0.0624 -0.1098  0.1440
 5122W        W 5986   4.869  13.184   6.069 -0.0306 -0.2020  0.1274
 5123W        W 5987   6.547  13.170   8.010 -0.0865 -0.0190 -0.1417
 5124W        W 5988   1.275  13.077   8.269 -0.1857 -0.2980 -0.0093
 5125W        W 5989   1.717  10.073   5.820 -0.0737  0.1801  0.0535
 5126W        W 5990   1.272   0.310   6.012 -0.0846 -0.2408 -0.2166
 5127W        W 5991   2.633  13.901   8.724 -0.1685 -0.0255  0.0081
 5128W        W 5992   9.965  12.829   4.459  0.1507 -0.0729 -0.2498
 5129W        W 5993   2.786  13.001   7.024 -0.0860  0.0045  0.0884
 5130W        W 5994   3.814  10.256   8.247 -0.0352 -0.1590  0.0245
 5131W        W 5995  13.743   1.625   4.954  0.1078  0.0523 -0.0011
 5132W        W 5996   1.014   0.935   7.420 -0.0239  0.1554 -0.0150
 5133W        W 5997   0.307  11.102   6.009 -0.0227 -0.0747  0.1037
 5134W        W 5998   0.720  11.663   5.471 -0.0364  0.0670  0.1657
 5135W        W 5999   3.803  12.175   7.417  0.2662 -0.4137  0.0813
 5136W        W 6000   0.345  12.960   8.115  0.3031 -0.1346 -0.0811
 5137W        W 6001   0.961  12.718   5.677  0.0651  0.2364  0.1263
 5138W        W 6002   2.062  12.495   6.738 -0.0227  0.1198 -0.1367
 5139W        W 6003   5.361  10.725   6.205 -0.0346  0.0401 -0.3403
 5140W        W 6004   0.007  12.224   4.674 -0.0176 -0.3577  0.1806
 5141W        W 6005   0.447  13.324   5.355  0.2722 -0.0522 -0.0433
 5142W        W 6006   3.271  13.812   7.786 -0.3061 -0.0501 -0.0902
 5143W        W 6007   1.749  10.357   6.807 -0.1817  0.2408  0.4118
 5144W        W 6008   2.034  11.941   3.180 -0.0481  0.0247 -0.0878
 5145W        W 6009   3.552  12.562   5.987  0.0139 -0.2252  0.3355
 5146W        W 6010   4.438  10.467   5.035  0.0703  0.0522  0.0148
 5147W        W 6011   2.000   9.445   5.951 -0.4410 -0.0239 -0.0246
 5148W        W 6012   1.758   9.230   6.769 -0.0951 -0.0401 -0.2583
 5149W        W 6013   2.401  13.029   2.701  0.1134 -0.1223 -0.1975
 5150W        W 6014   3.868  13.028   5.036 -0.0739  0.3473  0.1685
 5151W        W 6015   0.778  13.948   5.274 -0.4266  0.0859  0.0933
 5152W        W 6016   2.695   0.330   4.371  0.0427  0.0110 -0.1560
 5153W        W 6017   3.665   2.438   5.655  0.0611  0.0616 -0.0010
 5154W        W 6018   3.708  13.582   3.985  0.0727  0.2285 -0.1574
 5155W        W 6019  13.805   8.860   2.873 -0.1994 -0.0278 -0.0785
 5156W        W 6020   0.624  12.052   4.078 -0.2718  0.0761 -0.1142
 5157W        W 6021   0.191   9.128   4.078 -0.0283 -0.0778 -0.2496
 5158W        W 6022   4.119  13.790   5.767  0.2285 -0.0610 -0.4723
 5159W        W 6023   2.469   1.714   1.553  0.1054  0.2692  0.0602
 5160W        W 6024  12.840  12.768   5.170  0.2970  0.0071 -0.0692
 5161W        W 6025   3.096   0.587   4.047 -0.0316  0.3241 -0.4602
 5162W        W 6026   0.855  12.415   4.383  0.0657  0.1719 -0.0970
 5163W        W 6027   2.204  12.242   4.742 -0.1010  0.1266 -0.3444
 5164W        W 6028   4.190  11.685   5.793  0.0495  0.0964 -0.0623
 5165W        W 6029   0.899  13.856   2.657  0.1818  0.0694  0.0499
 5166W        W 6030   1.436   0.609   1.345 -0.0928  0.0659 -0.0468
 5167W        W 6031   2.943  13.032   7.626  0.0035 -0.2547  0.2329
 5168W        W 6032   2.421   1.348   5.268 -0.1379  0.0353  0.1128
 5169W        W 6033   2.672  12.481   3.981 -0.0907  0.0823 -0.2827
 5170W        W 6034   5.402  10.798   5.263 -0.0130 -0.0142  0.0230
 5171W        W 6035   0.016  11.498   8.102 -0.1282  0.0506 -0.3048
 5172W        W 6036   1.433  12.022   6.181 -0.2244  0.1328  0.1245
 5173W        W 6037   0.744  12.542   7.224  0.2004  0.0987 -0.0196
 5174W        W 6038   2.595  12.580   2.815 -0.0450 -0.2059  0.1250
 5175W        W 6039   4.194  11.122   4.979 -0.0008  0.2527  0.0143
 5176W        W 6040  13.792  11.698   6.820  0.2553 -0.2008  0.1663
 5177W        W 6041   1.501  11.151   7.443 -0.2511 -0.1780  0.0286
 5178W        W 6042   0.791  10.199   5.497  0.1131 -0.3014 -0.5590
 5179W        W 6043   2.605  13.774   4.321  0.1353  0.2841 -0.0461
 5180W        W 6044   4.848  10.767   7.867 -0.0914 -0.2150 -0.2350
 5181W        W 6045   3.262   9.102   6.838  0.1331  0.0631  0.0322
 5182W        W 6046   3.981   1.187   7.910  0.0746  0.1514  0.1266
 5183W        W 6047   3.145  10.480   6.633 -0.0821 -0.0810 -0.2189
 5184W        W 6048   2.736  12.621   7.343 -0.2413  0.0245 -0.2800
 5185W        W 6049   2.199  11.372   6.185  0.2611 -0.1313  0.2476
 5186W        W 6050   1.213  12.258   5.795  0.0023  0.1162  0.0799
 5187W        W 6051   2.174  11.822   4.457 -0.1844  0.1082 -0.2117
 5188W        W 6052   0.639   9.329   5.345 -0.0090 -0.3424  0.0809
 5189W        W 6053   3.295  11.386   6.235  0.2550 -0.0170  0.1951
 5190W        W 6054   3.329  11.975   2.794  0.0088 -0.0953  0.0029
 5191W        W 6055   1.762  13.129   3.129  0.1428  0.2619  0.0647
 5192W        W 6056   4.248  10.081   7.388 -0.0209 -0.1905 -0.2962
 5193W        W 6057   5.065   1.242   3.403 -0.2146 -0.1433  0.0862
 5194W        W 6058   0.718   0.139   5.760  0.1635  0.1110 -0.0260
 5195W        W 6059   4.500  11.579   3.775  0.1044 -0.0425  0.1979
 5196W        W 6060   0.641   9.524   5.767 -0.1884 -0.3865 -0.0064
 5197W        W 6061   5.048  12.552   8.566  0.1836 -0.1956 -0.0702
 5198W        W 6062   2.276  13.620   5.137 -0.2698 -0.2586  0.0557
 5199W        W 6063   1.102  11.634   9.396 -0.0266 -0.0425  0.1332
 5200W        W 6064   3.769  12.112   5.752  0.2466  0.2644 -0.0597
 5201W        W 6065   0.340  12.585   5.874 -0.0180  0.0105  0.0190
 5202W        W 6066  12.471   1.223   4.592  0.2563  0.1539 -0.0375
 5203W        W 6067   6.594   9.893   7.128  0.0440 -0.2105  0.0498
 5204W        W 6068   3.967   0.288   7.830 -0.1854  0.1849  0.0307
 5205W        W 6069   2.362  12.095   5.678  0.2973 -0.0514 -0.3202
 5206W        W 6070   6.403   8.813   6.779  0.0668 -0.1162  0.0069
 5207W        W 6071   2.049  12.490   5.563 -0.1291 -0.2403  0.1287
 5208W        W 6072   2.366  13.715   6.311 -0.3451  0.1260 -0.0685
 5209W        W 6073   3.979  10.833   5.881 -0.1344  0.0715 -0.0841
 5210W        W 6074   3.489  12.666   3.354 -0.0912 -0.0790  0.0160
 5211W        W 6075  13.882   1.119   5.097 -0.1155 -0.3735 -0.1339
 5212W        W 6076   5.037  12.674   5.111 -0.0128  0.0120  0.2128
 5213W        W 6077   2.317  12.762   6.388  0.4676 -0.0265 -0.0845
 5214W        W 6078   6.704  10.423   5.445  0.4758  0.1821  0.1325
 5215W        W 6079   1.075  12.362   6.278 -0.1454 -0.1720  0.2788
 5216W        W 6080   2.927   0.251   5.310  0.3481  0.0322  0.1175
 5217W        W 6081   0.135   1.653   6.200 -0.1926  0.0808  0.4014
 5218W        W 6082  12.493   9.826   2.729  0.0090  0.1535  0.0918
 5219W        W 6083   1.985  12.764   2.603 -0.0578 -0.1051 -0.0746
 5220W        W 6084   1.022  13.122   6.395  0.0134 -0.0678 -0.0884
 5221W        W 6085  13.817  12.184   5.187  0.0674  0.0292 -0.0527
 5222W        W 6086   6.357  12.947   6.652 -0.1536  0.1618  0.0832
 5223W        W 6087   6.574  13.266   7.507 -0.0527  0.1344  0.3359
 5224W        W 6088   3.398   0.025   7.234 -0.0265 -0.0259 -0.2058
 5225W        W 6089   1.093  12.618   6.689  0.0202  0.0114  0.1489
 5226W        W 6090  13.582  11.327   5.195 -0.2642  0.2301 -0.0288
 5227W        W 6091   0.169  12.526   5.402 -0.1303 -0.2337  0.2305
 5228W        W 6092   1.167  13.205   5.774 -0.2392  0.0420 -0.1206
 5229W        W 6093   0.825  13.802   2.201  0.1858  0.0851  0.0887
 5230W        W 6094   4.801  13.013   6.581 -0.0328  0.2495  0.2481
 5231W        W 6095   1.978   1.047   4.363 -0.2601  0.0237  0.3947
 5232W        W 6096   3.070   0.644   4.580 -0.3217 -0.0931  0.0846
 5233W        W 6097   2.894  13.375   4.944  0.2647 -0.0303  0.1055
 5234W        W 6098   1.763  12.883   8.196 -0.0490 -0.0390 -0.0434
 5235W        W 6099   1.209  11.382   5.571  0.2806  0.1048  0.2188
 5236W        W 6100  12.762   1.961   5.938 -0.1049  0.2911 -0.1610
 5237W        W 6101   0.968  11.804   5.875  0.1091 -0.2146  0.0811
 5238W        W 6102   1.074   0.691   3.237 -0.2223 -0.1712 -0.1575
 5239W        W 6103  13.774  13.771   3.461 -0.2581 -0.0349  0.1457
 5240W        W 6104   4.834  11.130   2.509  0.2841 -0.1361 -0.4138
 5241W        W 6105  13.020  12.330   6.144  0.0047 -0.0471  0.1244
 5242W        W 6106   2.574  12.543   5.532  0.1813 -0.0889 -0.0328
 5243W        W 6107  13.681  13.808   7.386 -0.0232  0.1874 -0.0058
 5244W        W 6108   1.858  11.821   8.004  0.1678 -0.4236 -0.1351
 5245W        W 6109   4.017  12.736   5.903  0.0156 -0.0145 -0.0347
 5246W        W 6110   3.597  10.437   7.865 -0.3838  0.1871 -0.0678
 5247W        W 6111   3.630  12.670   2.867  0.0919  0.5473  0.3215
 5248W        W 6112   1.264  10.300   5.589 -0.0501 -0.0456  0.3540
 5249W        W 6113   3.417  13.258   7.682  0.4111  0.0446  0.0213
 5250W        W 6114   2.538   0.076   5.648 -0.0974  0.0894 -0.0650
 5251W        W 6115   1.712  12.449   5.944 -0.3352 -0.1595  0.0986
 5252W        W 6116   0.890  12.201   6.771  0.0781  0.0409  0.3057
 5253W        W 6117   1.704   0.074   5.823 -0.0330  0.0979 -0.3633
 5254W        W 6118   0.606  13.296   2.470  0.1656 -0.2044  0.3533
 5255W        W 6119   1.887  12.002   5.732 -0.1192 -0.0962 -0.1558
 5256W        W 6120   4.693   9.544   3.028 -0.3282 -0.0004  0.0252
 5257W        W 6121  10.915   2.135   6.975 -0.1347  0.2563  0.0976
 5258W        W 6122   3.579  11.755   7.316 -0.0522 -0.1876  0.0614
 5259W        W 6123   2.305  13.239   6.128 -0.0594  0.1817 -0.0525
 5260W        W 6124   6.217  13.406   4.076 -0.0105  0.1418  0.0276
 5261W        W 6125   2.296   0.939   3.010  0.1594  0.3002 -0.0579
 5262W        W 6126   0.617   9.083   6.776 -0.0000 -0.0346  0.0869
 5263W        W 6127   2.486  11.997   5.165  0.2738  0.3021 -0.3298
 5264W        W 6128   5.057  12.659   7.602 -0.0962 -0.3555  0.3848
 5265W        W 6129  13.908  10.361   4.463  0.0440  0.0035 -0.2561
 5266W        W 6130   1.332  11.461   6.121  0.0485  0.0815  0.0750
 5267W        W 6131   3.301  12.314   7.450  0.0004  0.1278 -0.3872
 5268W        W 6132   1.563  10.111   6.433  0.0068 -0.0303 -0.0965
 5269W        W 6133   2.291  13.634   4.665 -0.1320 -0.1502 -0.0861
 5270W        W 6134  12.304  13.213   3.525  0.0269  0.1800  0.1221
 5271W        W 6135   2.746   0.510   6.369  0.3611 -0.0320 -0.0635
 5272W        W 6136   0.645  11.274   6.984  0.0303 -0.2996  0.2554
 5273W        W 6137   2.918  12.205   5.477  0.1061 -0.0841 -0.0361
 5274W        W 6138   0.720  10.432   6.452 -0.2423 -0.2013 -0.2338
 5275W        W 6139   2.888  13.889   7.500 -0.1148 -0.1065 -0.1182
 5276W        W 6140   1.558  11.258   5.276  0.1069 -0.1953 -0.1023
 5277W        W 6141   2.695  13.278   4.001  0.1566 -0.0169  0.0953
 5278W        W 6142   4.738  12.558   4.714  0.2400  0.0891  0.2416
 5279W        W 6143   2.066  11.172   4.936 -0.4014  0.2253  0.1594
 5280W        W 6144   1.972  10.425   4.897  0.0415 -0.0620 -0.0928
 5281W        W 6145   5.009  12.792   2.709  0.3334  0.3097  0.1293
 5282W        W 6146   1.398  12.009   8.071 -0.0939  0.2094  0.2799
 5283W        W 6147   2.820  12.977   5.263  0.0700 -0.0257  0.1907
 5284W        W 6148   2.617  13.204   4.578 -0.0143 -0.0529  0.3750
 5285W        W 6149   0.155  13.319   4.101  0.2535  0.0768 -0.1540
 5286W        W 6150   1.401   9.939   6.984  0.0229  0.0274 -0.1151
 5287W        W 6151   0.289  11.777   3.855  0.3123  0.1574  0.2720
 5288W        W 6152   1.095  13.523   5.301 -0.0587 -0.1881 -0.2793
 5289W        W 6153   1.920   0.894   5.842  0.1153  0.2081 -0.2560
 5290W        W 6154   3.299  12.873   7.352  0.0406 -0.1719  0.0756
 5291W        W 6155   3.703  10.985   6.308  0.0823 -0.3162 -0.0775
 5292W        W 6156   1.266  13.684   6.808 -0.0040 -0.0524 -0.0218
 5293W        W 6157   3.136  11.914   5.118 -0.1068 -0.1282 -0.0089
 5294W        W 6158   4.327   0.843   3.696  0.0989 -0.0093 -0.0092
 5295W        W 6159   0.828  13.042   7.361  0.1433  0.0496  0.1871
 5296W        W 6160  13.814  11.535   4.580 -0.0365  0.0105 -0.0687
 5297W        W 6161   4.439  10.602   5.810  0.2013  0.0439  0.1563
 5298W        W 6162   1.889  13.789   8.277  0.0404 -0.1543 -0.3090
 5299W        W 6163   1.287   9.458   3.462 -0.0024  0.0821  0.1484
 5300W        W 6164   2.028   2.324   5.683 -0.2101  0.0795  0.0445
 5301W        W 6165   3.380  11.473   8.513 -0.2623  0.1026 -0.0964
 5302W        W 6166   1.808  12.968   6.428 -0.0118  0.0825 -0.4526
 5303W        W 6167   1.869  11.611   5.415 -0.1267  0.1993  0.1409
 5304W        W 6168   1.720  13.404   8.006  0.3200 -0.3787 -0.0445
 5305W        W 6169  13.844  10.684   6.684  0.0531  0.1616 -0.1944
 5306W        W 6170   2.373  11.994   7.786  0.3270 -0.1138  0.1393
 5307W        W 6171  13.855  13.512   4.553  0.1219 -0.1490  0.2181
 5308W        W 6172   3.158  13.495   5.692 -0.2638 -0.2534  0.2223
 5309W        W 6173  13.280  12.830   7.003  0.0862 -0.1539 -0.2643
 5310W        W 6174   4.312  13.073   6.281 -0.2220  0.2221  0.0268
 5311W        W 6175   2.462  11.776   6.688 -0.2148  0.1550  0.0524
 5312W        W 6176   2.298   1.107   6.161 -0.0498 -0.0319 -0.1141
 5313W        W 6177   3.188   0.167   4.765  0.1884 -0.0849 -0.0089
 5314W        W 6178  12.270   0.439   7.005 -0.1634 -0.0370 -0.0252
 5315W        W 6179   2.070  10.271   8.091  0.0776 -0.0426  0.0573
 5316W        W 6180   2.667  10.614   2.860  0.3452  0.1893 -0.0180
 5317W        W 6181   4.532  12.683   6.843  0.1134  0.2103  0.0917
 5318W        W 6182   1.781  13.942   3.503  0.0783 -0.0411 -0.1703
 5319W        W 6183   0.560  12.837   7.685 -0.3575 -0.0063 -0.1052
 5320W        W 6184   0.790   0.607   4.289  0.0243 -0.0405 -0.1014
 5321W        W 6185   1.147   9.368   5.938  0.0320 -0.0522  0.1628
 5322W        W 6186   0.181   0.823   5.845  0.0880 -0.1420  0.1950
 5323W        W 6187   4.416  12.906   4.285  0.0294 -0.0230  0.0016
 5324W        W 6188  13.462  11.040   5.577 -0.1014  0.0431  0.0916
 5325W        W 6189   2.427  11.573   4.896  0.2098  0.0542 -0.0635
 5326W        W 6190   1.616  12.611   6.909  0.2191 -0.0574 -0.0276
 5327W        W 6191   2.330  13.408   7.638  0.2117 -0.0241 -0.0373
 5328W        W 6192   4.488  11.521   4.721  0.2775  0.1575  0.0343
 5329W        W 6193   0.601  13.053   5.692 -0.0358 -0.1158 -0.4476
 5330W        W 6194   4.180  12.052   5.459  0.0934  0.0444 -0.2175
 5331W        W 6195   2.737   0.404   4.894 -0.0412 -0.0257  0.0397
 5332W        W 6196   1.897  11.053   6.658 -0.0349 -0.0808  0.0335
 5333W        W 6197   0.556   0.402   3.377 -0.2138 -0.0374 -0.1946
 5334W        W 6198   3.638  12.316   5.117 -0.1419 -0.2674  0.0304
 5335W        W 6199   0.247   0.223   6.404 -0.2428  0.2716  0.0321
 5336W        W 6200   5.054  12.396   4.027  0.0806  0.3549 -0.1427
 5337W        W 6201   3.830  10.962   4.088  0.1499  0.1675 -0.0505
 5338W        W 6202   1.520  11.515   7.771  0.1679 -0.2348  0.0135
 5339W        W 6203   1.493   0.629   5.126  0.1655  0.3085  0.1184
 5340W        W 6204   4.383  11.194   7.008  0.3159  0.0320  0.2330
 5341W        W 6205  11.614  11.566   6.426 -0.2179  0.0911 -0.0645
 5342W        W 6206   1.017  12.626   7.621 -0.3030 -0.0943 -0.2174
 5343W        W 6207   1.390  13.900   3.046 -0.1415  0.2356 -0.0082
 5344W        W 6208   0.745  13.614   5.696 -0.2304  0.0015  0.0216
 5345W        W 6209   1.530   1.099   4.189 -0.1590 -0.1864  0.2176
 5346W        W 6210   3.219  12.035   3.280  0.5627  0.1991 -0.1198
 5347W        W 6211   2.422   9.927   4.190 -0.4228  0.1965  0.2187
 5348W        W 6212   4.056  11.760   3.324  0.1567 -0.0871  0.0298
 5349W        W 6213   4.520   7.821   8.565 -0.3371  0.1135  0.2899
 5350W        W 6214   1.873   0.040   4.008  0.0107 -0.0284  0.1085
 5351W        W 6215  13.552   0.165   6.725 -0.1187  0.1247 -0.3578
 5352W        W 6216   2.893  12.021   8.432 -0.1361 -0.0911 -0.2563
 5353W        W 6217   5.594   0.609   4.180 -0.1778  0.0088  0.2871
 5354W        W 6218   4.511  13.461   5.890  0.1183 -0.1531 -0.0108
 5355W        W 6219   3.320  11.620   1.646  0.0315  0.1178  0.2285
 5356W        W 6220   1.443  13.102   6.752  0.0747 -0.2024  0.0086
 5357W        W 6221  12.659  11.364   4.861 -0.0549  0.0995  0.1645
 5358W        W 6222  13.949  11.253   5.545  0.2719  0.3828 -0.0662
 5359W        W 6223   4.058  11.279   6.640 -0.0723  0.3228 -0.2107
 5360W        W 6224   0.623   0.761   5.270 -0.0567 -0.3536 -0.2183
 5361W        W 6225   2.702  10.246   6.776 -0.1379  0.0457 -0.0075
 5362W        W 6226   2.423   9.899   6.646  0.0049 -0.2878  0.0629
 5363W        W 6227   1.250  10.739   5.308 -0.1755  0.0497  0.2633
 5364W        W 6228  13.892  10.729  11.136  0.2860  0.2269  0.0064
 5365W        W 6229   0.719   1.293   9.733 -0.0958 -0.0780  0.1948
 5366W        W 6230   0.871   1.236   5.153 -0.3201 -0.4940  0.0359
 5367W        W 6231   3.800   0.905   3.915 -0.1843  0.3685 -0.1014
 5368W        W 6232   1.545  13.746   8.946 -0.0556 -0.2540 -0.0167
 5369W        W 6233   0.047  11.253   4.899 -0.1567  0.0315  0.0975
 5370W        W 6234  13.360  12.036   3.768  0.0173 -0.0904 -0.0504
 5371W        W 6235   1.856  13.258   5.019 -0.1060 -0.1494 -0.1413
 5372W        W 6236   1.541  12.509   6.427  0.1881  0.2860 -0.1738
 5373W        W 6237   0.890  10.875   6.216 -0.0238 -0.0344  0.0951
 5374W        W 6238   4.810  10.991   3.823  0.2813 -0.0257  0.0046
 5375W        W 6239   2.092  12.818   5.954 -0.0103  0.4373 -0.3017
 5376W        W 6240   0.091  13.059   9.694 -0.1067  0.1565 -0.1227
 5377W        W 6241  10.653   1.009   4.326 -0.1432 -0.1009 -0.0776
 5378W        W 6242   2.286  12.374   4.268  0.0123 -0.1668 -0.1691
 5379W        W 6243   3.259  12.584   4.538 -0.0218  0.0387 -0.0471
 5380W        W 6244   0.364  10.041   6.325 -0.0399  0.1478 -0.1189
 5381W        W 6245   0.582  11.037   4.882 -0.0061  0.2126 -0.2909
 5382W        W 6246  13.520  11.390   8.976 -0.1573 -0.2706 -0.0463
 5383W        W 6247   1.460  12.791   5.634 -0.0496  0.0621 -0.0767
 5384W        W 6248  12.015  11.898   5.529 -0.3482 -0.1176 -0.1103
 5385W        W 6249  12.660   0.697   4.590  0.2247  0.1177  0.0372
 5386W        W 6250   1.438  11.795   5.675  0.0271 -0.4080 -0.0846
 5387W        W 6251   0.080  13.181   2.554  0.0766  0.2695  0.1560
 5388W        W 6252   3.338  12.819   1.593  0.0037  0.1042 -0.1064
 5389W        W 6253   0.561  12.795   5.295  0.2575  0.0729 -0.2010
 5390W        W 6254   0.906  10.484   7.034  0.1002 -0.2040  0.0668
 5391W        W 6255   2.317  11.135   4.301 -0.0724 -0.2206  0.0694
 5392W        W 6256   3.981  11.484   7.096 -0.0706  0.0494  0.0760
 5393W        W 6257   6.338   0.468   6.886  0.1819  0.1370 -0.1111
 5394W        W 6258   3.796   0.790  10.111  0.0104  0.1887  0.2314
 5395W        W 6259   4.568   2.060   6.589  0.0196  0.2067  0.0382
 5396W        W 6260   3.284  12.087   6.099  0.1570 -0.1679  0.0823
 5397W        W 6261   3.192  10.662   5.497 -0.0882  0.1824 -0.1079
 5398W        W 6262   1.625   0.043   5.322  0.2240  0.2995  0.1336
 5399W        W 6263   0.961  10.705   8.154  0.0609  0.0142  0.1381
 5400W        W 6264   2.738  10.826   6.151 -0.2669  0.0356  0.1270
 5401W        W 6265   3.831   0.120   5.564  0.3056  0.3824  0.1081
 5402W        W 6266   2.000   1.526   4.553  0.1189 -0.2304 -0.4146
 5403W        W 6267   2.175   0.523   4.269 -0.3298  0.0889 -0.3599
 5404W        W 6268   2.195   9.378   3.462 -0.2349  0.0816 -0.2726
 5405W        W 6269   2.610  11.996   4.192 -0.3789  0.2272  0.0607
 5406W        W 6270   1.121  10.161   6.625 -0.0103 -0.0518  0.0023
 5407W        W 6271   2.296  12.134   7.165  0.0239  0.1546 -0.2050
 5408W        W 6272   2.761  13.141   5.724 -0.0733  0.0845 -0.1163
 5409W        W 6273   5.514  13.449   7.294  0.0883  0.1927  0.3072
 5410W        W 6274   3.598   0.316   5.158 -0.3069  0.1344 -0.1635
 5411W        W 6275   4.017  12.649   3.608 -0.0456  0.0454 -0.0023
 5412W        W 6276   0.406  10.860   6.468 -0.1016  0.2106  0.2849
 5413W        W 6277   0.381   1.019   6.926  0.1358 -0.0512 -0.0551
 5414W        W 6278  12.644   9.958   6.179  0.0288 -0.2488 -0.0861
 5415W        W 6279   2.322  13.193   3.669  0.3954  0.0719 -0.1551
 5416W        W 6280   5.562  13.167   6.736 -0.2554 -0.2622  0.0924
 5417W        W 6281   2.852   9.302   5.944 -0.0348 -0.0776  0.0615
 5418W        W 6282   2.804  12.253   2.009  0.1391  0.3938  0.0777
 5419W        W 6283   3.088   0.568   7.947  0.2448  0.2013  0.4369
 5420W        W 6284   2.931  12.914   2.683  0.1853  0.1501 -0.1688
 5421W        W 6285   2.101   9.223   4.505 -0.4960  0.0741  0.0858
 5422W        W 6286   2.212  12.634   3.744 -0.2959 -0.0231  0.1100
 5423W        W 6287   5.234  11.761   4.837 -0.1630 -0.4264  0.1095
 5424W        W 6288   2.504  10.752   3.986  0.2052  0.2383  0.4108
 5425W        W 6289   0.853  12.262   3.054 -0.0644  0.0257  0.0007
 5426W        W 6290   4.203  13.852   8.393 -0.0640  0.2405  0.3748
 5427W        W 6291   3.449   0.085   5.949 -0.0051 -0.0872  0.2478
 5428W        W 6292   1.409  10.948   5.826 -0.0728 -0.0517 -0.3240
 5429W        W 6293  13.595  13.865   5.785 -0.0503 -0.1248  0.1144
 5430W        W 6294   4.472  13.373   8.431 -0.2772  0.0343  0.3847
 5431W        W 6295   0.276  12.678   6.416 -0.0117 -0.2844  0.0111
 5432W        W 6296   0.575  10.652   5.187  0.2529 -0.2123  0.1576
 5433W        W 6297  11.889  12.410   4.949 -0.0399 -0.0943 -0.1023
 5434W        W 6298  12.800  13.242   5.295  0.6399  0.0791 -0.2507
 5435W        W 6299   0.196  11.004   8.045 -0.1628 -0.0636 -0.0297
 5436W        W 6300   1.619   0.477   8.614  0.1138 -0.0638  0.3043
 5437W        W 6301   2.626  12.712   5.951  0.3340 -0.0738  0.0619
 5438W        W 6302   3.244  12.290   8.200 -0.2462  0.2336 -0.1268
 5439W        W 6303   0.876   0.620   6.813  0.2282 -0.2523  0.0312
 5440W        W 6304   3.715  12.276   3.684 -0.0179 -0.0055  0.2106
 5441W        W 6305   0.452   2.897   4.807 -0.3029  0.0831 -0.0641
 5442W        W 6306   2.038  12.995   6.857  0.2301 -0.1509 -0.0927
 5443W        W 6307   1.798  12.203   9.445 -0.0084 -0.0224  0.1164
 5444W        W 6308   2.800   1.010   5.957  0.0066  0.5146 -0.1204
 5445W        W 6309   2.025  11.507   3.419  0.0954  0.0781  0.1822
 5446W        W 6310   0.033  13.252  10.823 -0.0542 -0.1547 -0.0797
 5447W        W 6311   5.540  13.225   7.725  0.2148 -0.0038  0.0148
 5448W        W 6312  13.938  11.231   9.266  0.3429  0.1033  0.1472
 5449W        W 6313   4.012  13.421   8.220 -0.2367  0.0631 -0.1925
 5450W        W 6314   1.279   9.770   9.253 -0.0487  0.2079  0.2134
 5451W        W 6315   3.369   9.131  11.916 -0.2900 -0.0142  0.1180
 5452W        W 6316   5.128  11.323   6.013 -0.0375  0.2473  0.3223
 5453W        W 6317   1.546  12.588   9.576 -0.0629  0.0706  0.0525
 5454W        W 6318   3.345  13.331  10.997  0.0520  0.0541  0.1545
 5455W        W 6319   0.695  12.707  10.716  0.1295 -0.0960  0.1717
 5456W        W 6320   2.188   1.641   8.477  0.0940  0.1480 -0.0875
 5457W        W 6321   2.423  13.762   9.312  0.1940 -0.0342  0.2699
 5458W        W 6322   1.572   0.212   9.782 -0.0608  0.3122 -0.0004
 5459W        W 6323   2.511  13.070  10.972 -0.2350 -0.3017 -0.1132
 5460W        W 6324   2.629  11.732  10.329 -0.2481  0.1665 -0.5440
 5461W        W 6325   4.105   0.439  11.028 -0.0712  0.0114  0.0730
 5462W        W 6326   0.663   0.508  11.785 -0.0543 -0.0202 -0.2410
 5463W        W 6327   2.414   0.802  12.871 -0.0946 -0.2493  0.0824
 5464W        W 6328   3.838  11.114   9.951  0.2159 -0.0247 -0.1260
 5465W        W 6329  13.143  12.061  10.118  0.3584  0.1306  0.0491
 5466W        W 6330   1.041  10.612  13.479  0.1981 -0.0385 -0.2487
 5467W        W 6331   5.227   0.700  13.914  0.0523 -0.2523 -0.1118
 5468W        W 6332  13.797  13.909   9.110  0.1155 -0.1581  0.0178
 5469W        W 6333   2.766  13.288  10.337  0.3724 -0.0879 -0.0320
 5470W        W 6334   3.067  10.946  10.218  0.2910  0.1795 -0.1837
 5471W        W 6335   2.397  12.471   7.687 -0.2523  0.2400 -0.2060
 5472W        W 6336   3.936  10.746  12.849 -0.3964 -0.0827  0.0240
 5473W        W 6337  13.442  12.617  11.056  0.1119  0.1282 -0.0457
 5474W        W 6338   1.704  12.476  11.790 -0.2958 -0.0533  0.0058
 5475W        W 6339   2.754  12.783  11.386 -0.1046 -0.2782  0.0286
 5476W        W 6340   0.663  11.183   7.779  0.0245  0.2194  0.0869
 5477W        W 6341   1.383   1.190  10.723 -0.2874  0.0522  0.0296
 5478W        W 6342   4.606  12.939   7.657  0.0058  0.1807  0.3588
 5479W        W 6343   4.247  12.912  11.171  0.1476  0.1059 -0.6276
 5480W        W 6344   4.867  11.339   8.247  0.2263 -0.0691 -0.2097
 5481W        W 6345   4.427   0.254  10.646 -0.3602  0.0258  0.0769
 5482W        W 6346   3.539  13.481   8.165  0.2662 -0.2677 -0.0573
 5483W        W 6347   0.914  10.654   9.196  0.0495  0.1773  0.1006
 5484W        W 6348   5.103  10.223  12.171 -0.0172 -0.0825  0.0477
 5485W        W 6349   2.145  10.251  11.801 -0.2597  0.0729  0.1301
 5486W        W 6350   3.933  11.893   9.109 -0.1230  0.1402  0.1550
 5487W        W 6351   2.747  12.277   9.077 -0.3507  0.0923 -0.0718
 5488W        W 6352   3.132  11.092   7.535  0.0843  0.1987  0.0537
 5489W        W 6353   4.469   1.315  11.436  0.0273  0.0836 -0.0980
 5490W        W 6354   4.563  11.941   5.982 -0.2267  0.0147  0.1668
 5491W        W 6355   1.855   8.506   7.894 -0.2557 -0.1230 -0.0296
 5492W        W 6356   2.793  14.008   9.590  0.1602 -0.2132 -0.2082
 5493W        W 6357  12.083  12.975   6.956 -0.0914  0.2258  0.0223
 5494W        W 6358   3.054  11.337  10.523  0.0909  0.2980  0.1137
 5495W        W 6359   2.092  13.954   5.518 -0.0548 -0.1517  0.1141
 5496W        W 6360  12.219   0.489   7.732  0.1466 -0.1186  0.1243
 5497W        W 6361   0.757   0.488  10.199  0.0880  0.0011 -0.0664
 5498W        W 6362   1.035  10.800  11.467 -0.4475 -0.1142  0.2582
 5499W        W 6363   1.401  12.577   7.988  0.0401  0.0977  0.0181
 5500W        W 6364   3.166  10.065  10.442 -0.1081 -0.1997  0.1078
 5501W        W 6365   1.535  11.647   6.655  0.1398 -0.1242  0.3396
 5502W        W 6366   0.865  10.999   9.947  0.0372  0.0195  0.0847
 5503W        W 6367   3.132   1.701   9.972 -0.1353 -0.1300  0.0431
 5504W        W 6368   2.946  13.031   8.600  0.1162  0.2394  0.0587
 5505W        W 6369   0.508  12.258   6.448  0.1498 -0.1831 -0.0210
 5506W        W 6370   5.601  13.456  13.465 -0.1186 -0.2303  0.3051
 5507W        W 6371   3.642  10.255  10.481  0.1034  0.1218 -0.0835
 5508W        W 6372   0.608   0.008   6.780 -0.0748  0.3950  0.1211
 5509W        W 6373   0.167  10.278  11.328  0.2912 -0.0401  0.0340
 5510W        W 6374   5.018  11.841  10.546  0.2324 -0.1643  0.0873
 5511W        W 6375   2.955  11.750   8.968  0.0188 -0.0491 -0.2002
 5512W        W 6376   0.715  12.347   9.335 -0.1568 -0.1340  0.1920
 5513W        W 6377  13.962  11.799  10.902  0.1454 -0.0178 -0.0483
 5514W        W 6378   4.933  10.170   8.545  0.1192  0.1639  0.0784
 5515W        W 6379  13.995  11.070  10.290 -0.2835 -0.0644  0.0516
 5516W        W 6380   3.191  12.227   8.788 -0.0421 -0.0710  0.1410
 5517W        W 6381   5.273   0.315  11.284  0.2112 -0.1328 -0.3162
 5518W        W 6382   2.427  10.252  13.715 -0.1956  0.3481  0.3167
 5519W        W 6383   4.835  13.471   8.772 -0.0883 -0.1350  0.0123
 5520W        W 6384   3.974  12.540  10.934  0.2347  0.1992  0.1183
 5521W        W 6385   3.806  12.912   8.006 -0.0198 -0.2282 -0.0889
 5522W        W 6386   6.246  11.075  12.325  0.1885 -0.0082 -0.2104
 5523W        W 6387   1.049  11.667  10.162  0.0943  0.0835 -0.2173
 5524W        W 6388   2.337  12.855  11.839  0.1257  0.1548 -0.0378
 5525W        W 6389   3.580  11.214   7.322 -0.3173  0.0790 -0.0527
 5526W        W 6390   5.539  12.650   8.502 -0.0453  0.1011  0.0006
 5527W        W 6391   0.677  11.945   9.642 -0.1466 -0.1030  0.0356
 5528W        W 6392   3.488  10.156   7.391 -0.3360 -0.4167 -0.1053
 5529W        W 6393   5.101  13.591   5.099  0.2120  0.1719  0.0262
 5530W        W 6394  12.949  12.759   9.261  0.0547 -0.3709  0.1156
 5531W        W 6395   4.505  11.616   7.314  0.1790  0.2386 -0.1548
 5532W        W 6396   3.612   8.509  10.909  0.1009 -0.2105 -0.1226
 5533W        W 6397   1.873  12.088  10.388 -0.1049 -0.1380 -0.0499
 5534W        W 6398   0.186  13.077   9.173 -0.1127 -0.1603  0.2318
 5535W        W 6399   0.636  13.803   9.809  0.0906 -0.0136  0.3530
 5536W        W 6400   4.982  12.407   7.068  0.0914 -0.1128 -0.0014
 5537W        W 6401   4.068  10.812   6.654  0.4333 -0.1202  0.2360
 5538W        W 6402   2.712  12.310  11.530 -0.3979 -0.0847  0.1524
 5539W        W 6403   2.228  13.131   9.039 -0.1745 -0.1377 -0.0951
 5540W        W 6404   4.784  11.805   9.131 -0.3961  0.1978 -0.0210
 5541W        W 6405   0.622  13.613   8.715 -0.5071  0.1303  0.0135
 5542W        W 6406   5.398  13.036  10.358 -0.0723 -0.1529 -0.0358
 5543W        W 6407   2.294  13.554  10.838 -0.0621  0.0234 -0.0776
 5544W        W 6408  13.723  12.135   9.934  0.0286  0.2271 -0.1294
 5545W        W 6409   4.216  10.362   8.022 -0.2354 -0.0151  0.2600
 5546W        W 6410   2.392   9.289   6.193 -0.0903  0.1561  0.1850
 5547W        W 6411   0.815   1.696   9.352  0.1024  0.0012  0.0137
 5548W        W 6412   4.004  10.752   8.235  0.3812 -0.3065  0.0379
 5549W        W 6413   1.062  12.712   9.600 -0.0013  0.1543  0.1090
 5550W        W 6414   3.164  13.613  10.500 -0.0084  0.1931  0.0689
 5551W        W 6415  12.748  11.644  11.713  0.0900 -0.0973 -0.1155
 5552W        W 6416   1.578   1.439   9.775  0.2100 -0.0592  0.0710
 5553W        W 6417   1.483  12.857   8.718  0.0023  0.0323 -0.0289
 5554W        W 6418   0.706  11.699  12.371  0.0313  0.2627  0.1311
 5555W        W 6419   2.160  11.386   8.987  0.1250 -0.0487 -0.1227
 5556W        W 6420   3.723  11.222  12.222 -0.2685 -0.3504 -0.0856
 5557W        W 6421  12.609  13.375  10.032 -0.1370 -0.0640  0.1123
 5558W        W 6422   2.312  12.095   9.463 -0.1231  0.0941  0.1884
 5559W        W 6423   2.071  11.047  10.330 -0.2513  0.0476  0.1090
 5560W        W 6424   3.912  13.740   6.951  0.0222  0.0891  0.6065
 5561W        W 6425   0.958  12.856   8.656  0.1760  0.1308  0.0146
 5562W        W 6426   1.418  13.915  11.452 -0.1470 -0.1004  0.1091
 5563W        W 6427   0.320  11.494   5.735 -0.1667  0.0457  0.2938
 5564W        W 6428   1.600  13.870  13.128  0.0914 -0.0289 -0.3364
 5565W        W 6429   1.327  10.977   9.061 -0.0091  0.1532  0.1259
 5566W        W 6430   2.941  10.094   7.599  0.0763  0.0264  0.2140
 5567W        W 6431   0.866  13.496  10.198  0.0014  0.2413  0.2042
 5568W        W 6432   4.322   0.206  11.394 -0.1197  0.0461 -0.1213
 5569W        W 6433   0.875  12.098   7.423  0.1902  0.1915 -0.0235
 5570W        W 6434   3.775  11.957  10.790 -0.0057 -0.1746  0.2837
 5571W        W 6435   0.664  12.780   6.782  0.0249 -0.2122  0.1995
 5572W        W 6436   2.566  11.146  10.341 -0.0624 -0.3072  0.0599
 5573W        W 6437   2.220  12.648   8.296  0.1409 -0.1427  0.2147
 5574W        W 6438   2.107   1.370  11.906 -0.1086 -0.0135  0.0951
 5575W        W 6439   4.169  11.131   9.618  0.1476  0.2510  0.1365
 5576W        W 6440  13.457  10.491   5.678  0.0566  0.2173 -0.2203
 5577W        W 6441   1.692  12.713   5.214  0.2540  0.1058  0.0654
 5578W        W 6442   2.345  12.514  11.244 -0.2074 -0.0186 -0.2338
 5579W        W 6443   1.187   1.715  10.921 -0.0314  0.2597  0.0154
 5580W        W 6444   4.242  12.964   9.987  0.0385 -0.4994  0.1991
 5581W        W 6445   0.729   0.071  10.695  0.1099 -0.1512  0.1260
 5582W        W 6446   3.870   9.318  13.042  0.0182 -0.1114  0.0305
 5583W        W 6447   0.707   1.349  12.244 -0.1052  0.1475  0.0322
 5584W        W 6448   0.184  13.455   7.997  0.0973 -0.0523 -0.1374
 5585W        W 6449   1.882  13.651  10.507 -0.1435 -0.1877 -0.0594
 5586W        W 6450   2.700  13.377   8.875 -0.2271  0.1236 -0.2294
 5587W        W 6451   1.879  13.287   8.529  0.1069 -0.2072  0.2136
 5588W        W 6452   4.346  13.019   7.208 -0.0239  0.1557 -0.2147
 5589W        W 6453  13.357  12.725   6.401  0.0333  0.2647  0.0763
 5590W        W 6454   2.606  10.633   7.143  0.2037 -0.0769  0.2650
 5591W        W 6455   0.902  10.121   9.305 -0.0030 -0.1947  0.3752
 5592W        W 6456   4.535  12.573   7.336  0.2813 -0.0184  0.0165
 5593W        W 6457  13.021  12.707   7.435  0.1815 -0.0902  0.0611
 5594W        W 6458   3.020  13.081   9.251 -0.0090  0.0747  0.2022
 5595W        W 6459   0.471   1.539  10.216  0.0216 -0.0992  0.0394
 5596W        W 6460   3.586  12.171   6.925  0.2242 -0.3211  0.0601
 5597W        W 6461   4.347  12.698   8.899 -0.1233 -0.0585  0.2444
 5598W        W 6462   1.478  12.063   7.601 -0.2185 -0.3966 -0.0237
 5599W        W 6463   1.541  12.306   5.434 -0.1144  0.1469 -0.1206
 5600W        W 6464   3.667  13.158   8.502 -0.0428 -0.1371  0.0934
 5601W        W 6465   3.196  10.580   7.585 -0.1323 -0.1729  0.0250
 5602W        W 6466  11.599   1.704   7.557 -0.3380  0.1317  0.0391
 5603W        W 6467   1.573   1.972   9.886 -0.0582 -0.1501 -0.1353
 5604W        W 6468   0.619  13.129   9.516  0.0663 -0.0527  0.2783
 5605W        W 6469  12.169   0.908   7.175  0.0182  0.0501 -0.0039
 5606W        W 6470   3.285   1.602  10.464 -0.0631  0.3637 -0.2077
 5607W        W 6471   3.630   0.278  10.809  0.0701 -0.1658  0.0075
 5608W        W 6472   1.316  12.096  10.414 -0.0024 -0.0560 -0.0993
 5609W        W 6473   2.474  12.135  10.043 -0.0764  0.3178  0.0821
 5610W        W 6474   2.573  10.267   7.994 -0.1109  0.3029  0.3760
 5611W        W 6475   1.817  11.153  11.520  0.0031  0.2871 -0.0513
 5612W        W 6476  13.681   9.728   9.210 -0.1634 -0.1091 -0.1096
 5613W        W 6477  12.002   9.459   9.343  0.1754  0.1521  0.0166
 5614W        W 6478   4.309  12.088   7.543 -0.0378 -0.0960  0.0657
 5615W        W 6479   2.483  11.868   8.724 -0.1665  0.1780 -0.1244
 5616W        W 6480   3.872  10.453   9.284 -0.2719  0.0067  0.1178
 5617W        W 6481   3.834  13.013   7.200 -0.1993 -0.0397  0.1339
 5618W        W 6482   1.237   9.662  11.711  0.0314  0.0095 -0.1030
 5619W        W 6483   2.865  12.321  10.361  0.0430  0.3259  0.0495
 5620W        W 6484   2.629  10.760   8.263 -0.0665 -0.0893  0.2709
 5621W        W 6485   0.938  13.440  12.738 -0.0566 -0.1658  0.1295
 5622W        W 6486   3.136  10.559  11.110 -0.2251 -0.0050 -0.0356
 5623W        W 6487   0.435  13.932   6.047 -0.2821  0.1005 -0.2029
 5624W        W 6488   4.748   1.523   9.387  0.1318  0.2865 -0.0429
 5625W        W 6489   0.298  12.774  10.114  0.0992 -0.2578 -0.2564
 5626W        W 6490   2.895   1.258  11.052  0.3383  0.3504  0.2203
 5627W        W 6491   4.156  13.092   8.654  0.0254 -0.0379 -0.2694
 5628W        W 6492   3.237  12.773  12.780  0.0635  0.0803  0.3109
 5629W        W 6493   4.086  13.076   7.628  0.1033  0.0707 -0.5389
 5630W        W 6494   3.340  12.746   7.882  0.1257  0.2399 -0.1991
 5631W        W 6495   3.126  12.834  11.081  0.0794 -0.0440 -0.0443
 5632W        W 6496   2.882   1.199  11.610 -0.0258  0.2662 -0.1067
 5633W        W 6497   2.328  11.449  13.024  0.0220  0.0997  0.0165
 5634W        W 6498   5.943  11.878  13.282 -0.1858 -0.4052  0.0985
 5635W        W 6499  12.677  11.654   4.266 -0.0819  0.3558  0.1236
 5636W        W 6500   3.896  11.877   7.791 -0.3762 -0.0354 -0.0971
 5637W        W 6501  11.773  13.383  10.575 -0.0736 -0.3383  0.1866
 5638W        W 6502  13.990  11.676  10.092  0.0701 -0.2726 -0.1033
 5639W        W 6503   4.651  11.431  11.303  0.1509  0.4349 -0.1192
 5640W        W 6504   4.512  12.404   8.459  0.0482 -0.0880  0.1752
 5641W        W 6505   1.972  13.402   9.969 -0.1711 -0.2683  0.3102
 5642W        W 6506   3.361   9.532  11.498 -0.0165 -0.0405 -0.1300
 5643W        W 6507   1.147   0.369  10.745  0.1109  0.1237  0.2546
 5644W        W 6508   3.426  11.587  10.813  0.1715  0.2520  0.2362
 5645W        W 6509   2.170  12.100   8.349 -0.0489 -0.2601 -0.2443
 5646W        W 6510   7.430  11.010   7.796  0.0224  0.1041 -0.1083
 5647W        W 6511  12.341  10.167  11.458 -0.1776 -0.0197  0.0072
 5648W        W 6512   4.327  12.493   9.870  0.1017 -0.1949  0.1708
 5649W        W 6513   3.923  11.600   9.670  0.0698 -0.2436  0.1294
 5650W        W 6514   0.828  12.685   8.169 -0.0336  0.0955  0.1429
 5651W        W 6515  13.899  10.162  10.211 -0.1780 -0.1043  0.1886
 5652W        W 6516   0.322  10.500  10.857 -0.2197 -0.0796 -0.0109
 5653W        W 6517   4.999  11.268   7.757 -0.0626  0.0584  0.0209
 5654W        W 6518   2.565  11.731   9.731  0.1857 -0.2051 -0.1748
 5655W        W 6519   6.804   0.507  10.599  0.2811 -0.1621  0.1611
 5656W        W 6520   0.788   0.964   9.324  0.1846  0.0198  0.0128
 5657W        W 6521   2.765  11.295   9.007 -0.1704 -0.3264 -0.0455
 5658W        W 6522  13.476  13.394  10.121 -0.0220  0.0671 -0.0283
 5659W        W 6523   2.550   9.650  12.358 -0.0289 -0.4169  0.2308
 5660W        W 6524   1.210  12.750   7.200  0.0296 -0.1792 -0.1969
 5661W        W 6525   3.323   9.413   5.839 -0.3091  0.0901 -0.0281
 5662W        W 6526   0.633  11.381  11.980 -0.2181  0.1052 -0.0458
 5663W        W 6527   5.096  13.674   7.925 -0.2771  0.2247  0.1435
 5664W        W 6528   4.847  12.906   7.190  0.1575  0.1114 -0.0827
 5665W        W 6529   0.834  10.519   9.772 -0.0921 -0.0359 -0.2127
 5666W        W 6530   1.759  12.757   9.190  0.0591  0.2125 -0.1747
 5667W        W 6531   2.244  13.029  10.519 -0.2198  0.0168 -0.0586
 5668W        W 6532   3.517  11.833   8.204 -0.2101 -0.0373 -0.1157
 5669W        W 6533   1.751  12.122   7.093 -0.1142  0.1297  0.0848
 5670W        W 6534   6.075  11.981   8.493  0.1637 -0.0929  0.2700
 5671W        W 6535  13.988  11.296  10.896 -0.0814 -0.0346  0.1896
 5672W        W 6536   4.261  10.785   9.043 -0.0740 -0.0596  0.1077
 5673W        W 6537   1.268   0.226   8.962  0.3847  0.0916 -0.1213
 5674W        W 6538   1.274  13.663  10.438  0.1049 -0.0055  0.1241
 5675W        W 6539   2.316   9.535   8.893  0.1074 -0.0202  0.3677
 5676W        W 6540   3.476   1.249  10.098  0.0316 -0.2245 -0.1100
 5677W        W 6541   2.399  10.173  10.471 -0.0298 -0.0072 -0.1286
 5678W        W 6542   1.899  12.835   9.898 -0.1519  0.2439  0.1733
 5679W        W 6543   3.338  12.260  10.180 -0.0200 -0.1747  0.1070
 5680W        W 6544   2.275   9.485   6.934 -0.0011  0.3275 -0.1708
 5681W        W 6545  13.018  13.090   9.975  0.3566 -0.3026 -0.0527
 5682W        W 6546   2.747  10.686   7.636  0.3166 -0.2066 -0.3502
 5683W        W 6547  13.775  12.768   5.237 -0.1746 -0.0128  0.0153
 5684W        W 6548   0.279   1.435   8.227  0.0247 -0.3055 -0.1887
 5685W        W 6549   3.603  12.268   8.498 -0.2606  0.1331  0.2441
 5686W        W 6550   2.601   9.963  10.076 -0.1706  0.0538 -0.0146
 5687W        W 6551   3.286  14.008  10.008 -0.0484  0.0791  0.0311
 5688W        W 6552  13.415  13.466  11.560 -0.0256 -0.0991  0.0993
 5689W        W 6553   3.646  10.967   6.841 -0.3843 -0.1686  0.0572
 5690W        W 6554   2.428  13.174   5.015  0.3159  0.0921  0.0054
 5691W        W 6555   3.296  12.677   8.504 -0.1664  0.1110  0.1536
 5692W        W 6556   4.526  12.207   7.010 -0.4663  0.0855  0.1571
 5693W        W 6557   1.711  11.770  10.725 -0.0989 -0.0477 -0.1524
 5694W        W 6558   1.218   0.666  10.181 -0.3167  0.0618  0.0401
 5695W        W 6559   2.001  11.658   6.888 -0.2850 -0.4109 -0.2638
 5696W        W 6560   2.115  13.010   9.524 -0.1943  0.0122 -0.2427
 5697W        W 6561   1.217  13.854   9.882 -0.2415 -0.1261  0.0422
 5698W        W 6562   2.229   0.036  10.741  0.1406 -0.1808 -0.0982
 5699W        W 6563   3.485   9.894  10.100  0.2420  0.2109  0.2122
 5700W        W 6564   0.786  13.593   6.547 -0.0080  0.2628  0.2791
 5701W        W 6565  13.668   9.622  11.203 -0.2310 -0.0516 -0.1386
 5702W        W 6566   0.961  13.012  12.425  0.0194  0.0944 -0.1589
 5703W        W 6567   5.114  10.393   8.032 -0.0336 -0.1575  0.1965
 5704W        W 6568   5.396  12.475   6.200  0.1195 -0.1936  0.0336
 5705W        W 6569   2.019  12.424  12.153 -0.1945  0.0208 -0.0275
 5706W        W 6570   1.763  11.946   8.602 -0.3099 -0.0132  0.2013
 5707W        W 6571   3.649  12.291   8.992 -0.0506 -0.1491 -0.1134
 5708W        W 6572  11.411  13.312   9.619 -0.0731 -0.0544  0.2884
 5709W        W 6573   0.732  12.274  11.119  0.2342  0.0278  0.0279
 5710W        W 6574   2.972   0.385  12.068  0.0300  0.0718 -0.2043
 5711W        W 6575   4.409  11.400   8.432  0.1361 -0.0246 -0.3185
 5712W        W 6576   3.596  11.698  10.365 -0.0120 -0.3135  0.1308
 5713W        W 6577   1.015   0.236   9.787  0.0063 -0.2077 -0.0287
 5714W        W 6578   1.883  12.349  12.682 -0.4231 -0.3936 -0.0648
 5715W        W 6579  12.633  13.712   5.278 -0.1420  0.2066  0.1781
 5716W        W 6580   4.359  10.911   8.590  0.3371  0.0074 -0.1790
 5717W        W 6581   1.789   2.069  10.434 -0.2164 -0.0380 -0.1107
 5718W        W 6582   4.089  12.860   6.680  0.0684  0.1548  0.0085
 5719W        W 6583   2.436  13.061   9.962 -0.0119  0.0164 -0.1533
 5720W        W 6584   1.114  12.508  10.266  0.2983  0.0831  0.0800
 5721W        W 6585   0.126  11.795   9.588 -0.1066 -0.1181  0.1780
 5722W        W 6586   2.024  13.871   7.214  0.0141  0.1355  0.1474
 5723W        W 6587   1.641  10.612   9.266  0.1264  0.0026  0.3250
 5724W        W 6588   4.143  12.338   6.679  0.2539  0.0779 -0.0275
 5725W        W 6589   1.638  11.132   8.104  0.2054 -0.2667  0.1907
 5726W        W 6590   2.302  12.545   9.206 -0.1199  0.1700  0.0791
 5727W        W 6591   2.733  12.764  10.631  0.1838  0.0567 -0.2898
 5728W        W 6592   4.644  10.606   8.299 -0.0569 -0.0130 -0.2917
 5729W        W 6593   2.972  13.242  11.376  0.2308 -0.0571 -0.1640
 5730W        W 6594   3.547  11.391   7.800 -0.3115 -0.3094  0.2317
 5731W        W 6595   4.439  12.773  11.605 -0.1878  0.2800  0.0805
 5732W        W 6596   4.855  13.848   9.063 -0.3348  0.1256  0.0240
 5733W        W 6597   3.895  11.338   8.173  0.1915 -0.2376  0.3485
 5734W        W 6598   2.314   9.668   9.432 -0.0460 -0.0037 -0.2286
 5735W        W 6599   1.224  11.871   8.598  0.1442 -0.2253 -0.0391
 5736W        W 6600   5.004  12.870   9.448  0.0412  0.4953  0.6431
 5737W        W 6601   2.376  12.122  10.547  0.2753  0.1993  0.0164
 5738W        W 6602   2.678   0.262  10.187  0.2194  0.2940  0.0155
 5739W        W 6603   0.100  12.898  12.575 -0.0934 -0.2486 -0.1000
 5740W        W 6604   2.510  12.649   6.858 -0.1117  0.0737 -0.1117
 5741W        W 6605   0.307  10.984  10.666  0.0407 -0.2281  0.1306
 5742W        W 6606  13.919  12.841  11.232  0.2243  0.0549  0.2930
 5743W        W 6607  13.040  13.520   6.589 -0.2402  0.0726 -0.2704
 5744W        W 6608   2.278  10.923  10.858  0.0756 -0.2961  0.1285
 5745W        W 6609   1.987  12.072   6.441  0.0748  0.0598 -0.0742
 5746W        W 6610   3.629  13.773  10.422  0.1128 -0.2751 -0.0062
 5747W        W 6611   2.519   0.762  10.424  0.1158  0.1166 -0.4628
 5748W        W 6612   2.614  10.325   6.251 -0.0894  0.0539 -0.0293
 5749W        W 6613   4.050  11.948  11.931 -0.0148 -0.1260 -0.0229
 5750W        W 6614   1.758   0.965  11.006  0.1204  0.0972  0.0553
 5751W        W 6615  13.047  13.532   8.891 -0.2455 -0.4416 -0.2879
 5752W        W 6616   2.570  11.527   8.157 -0.1343  0.4216  0.0699
 5753W        W 6617   3.673  10.963  11.756 -0.2533  0.2426  0.0585
 5754W        W 6618   2.349  13.799   8.138  0.1486  0.1840  0.2081
 5755W        W 6619  13.777  12.137   9.395  0.2370  0.1004 -0.0685
 5756W        W 6620   1.079   1.921   9.718  0.0085 -0.0340 -0.2458
 5757W        W 6621   3.045   0.520  10.441 -0.2480  0.3626  0.3428
 5758W        W 6622   1.704  12.387   8.333 -0.2983  0.0127 -0.2628
 5759W        W 6623   3.410  11.908  11.161 -0.0749  0.2222  0.1899
 5760W        W 6624   0.986  11.768   6.979 -0.0363 -0.0585 -0.1389
 5761W        W 6625   2.736  10.930   9.778 -0.1409  0.0555  0.1856
 5762W        W 6626   3.716  12.652   7.547 -0.0482 -0.0610  0.0562
 5763W        W 6627   1.899  11.208  12.027  0.1833  0.0319 -0.2325
 5764W        W 6628   0.368  12.549   8.998 -0.0885  0.2323  0.0420
 5765W        W 6629  12.421  12.385  11.053  0.1121 -0.0762 -0.1643
 5766W        W 6630   2.873  13.730   8.277 -0.0417  0.3938  0.0648
 5767W        W 6631   2.414  12.015  11.997  0.1659 -0.3384  0.2756
 5768W        W 6632   1.661  12.595  10.411 -0.0022  0.0689 -0.1450
 5769W        W 6633   4.326  11.825  10.951 -0.0953 -0.3322 -0.2215
 5770W        W 6634   2.530   1.214  10.668  0.2244  0.0908  0.2554
 5771W        W 6635   2.617  12.837   8.993  0.0119 -0.0220 -0.1315
 5772W        W 6636   2.182   0.083  10.270 -0.1644  0.0461  0.0748
 5773W        W 6637   1.913  13.962   9.344  0.2410 -0.3529  0.0738
 5774W        W 6638   0.511  11.367  10.933  0.1165  0.1288  0.0589
 5775W        W 6639   3.746   1.543  11.000 -0.2152 -0.1510 -0.0076
 5776W        W 6640   4.542  13.812  12.605  0.2345 -0.0943  0.4141
 5777W        W 6641   0.215  12.603   6.930  0.0747 -0.2300  0.0829
 5778W        W 6642   4.280  13.886  10.132 -0.0398  0.2653 -0.0105
 5779W        W 6643   0.259  12.252   9.423 -0.0007  0.3249  0.1978
 5780W        W 6644  13.286  10.388  10.882 -0.0256  0.1335  0.2483
 5781W        W 6645  13.867  13.850   9.589  0.1059  0.0126 -0.1374
 5782W        W 6646  13.339  11.853   9.075 -0.1969 -0.2689  0.0240
 5783W        W 6647   0.631  13.379   6.131 -0.0624 -0.0698 -0.0849
 5784W        W 6648   1.966   0.668  13.456 -0.1894  0.3428 -0.2735
 5785W        W 6649   6.749  13.809  12.089 -0.3527  0.1326  0.0443
 5786W        W 6650   0.572  11.738  11.612 -0.2604 -0.1523 -0.1964
 5787W        W 6651   0.420  12.592   1.679  0.1903  0.2537 -0.0486
 5788W        W 6652   3.900  12.635  11.472  0.2388  0.1926 -0.3017
 5789W        W 6653   0.755   0.306  13.848 -0.2212 -0.0659  0.0961
 5790W        W 6654   2.447  10.114  10.974 -0.0635  0.0423 -0.0589
 5791W        W 6655  11.632  12.811  13.091  0.1393  0.1722  0.1394
 5792W        W 6656   5.071  13.906  12.829  0.1236  0.2225 -0.2615
 5793W        W 6657  13.360  12.017  12.390 -0.1399  0.1029  0.0643
 5794W        W 6658   1.430  11.905  13.890  0.0353  0.0576 -0.2662
 5795W        W 6659   5.173   0.626   1.208  0.1324 -0.2527  0.0716
 5796W        W 6660   0.252  10.734   0.739  0.2097 -0.1103  0.1112
 5797W        W 6661   0.236   2.670  12.345  0.1280  0.0309 -0.0945
 5798W        W 6662   2.096  11.923  12.468 -0.1347  0.1650  0.1781
 5799W        W 6663   0.611  13.696  13.032  0.1054 -0.1824 -0.0071
 5800W        W 6664   1.480  13.460  12.757 -0.0163 -0.1652  0.0651
 5801W        W 6665   1.368  11.426  12.618 -0.0308 -0.0970 -0.0299
 5802W        W 6666   0.915   0.152  12.122  0.2023  0.1170  0.1371
 5803W        W 6667  12.613  12.103   0.443  0.3467 -0.1093 -0.2436
 5804W        W 6668   2.161   1.734   0.764 -0.1274  0.1204 -0.3142
 5805W        W 6669   0.289  11.802  12.038 -0.0857 -0.0340  0.0144
 5806W        W 6670   0.928  11.259  12.355  0.0735  0.1923  0.0686
 5807W        W 6671   2.528  13.188  12.139 -0.1679 -0.2004 -0.0004
 5808W        W 6672   6.365  11.901   1.351 -0.0120  0.2412 -0.3120
 5809W        W 6673   1.123  10.478   0.107  0.0058 -0.2808  0.2281
 5810W        W 6674   1.441  13.120  12.328  0.0412 -0.2010 -0.1224
 5811W        W 6675   4.852  13.846  13.696 -0.1273  0.1243  0.2563
 5812W        W 6676   0.933  12.443  11.596 -0.3666 -0.3301 -0.2363
 5813W        W 6677   2.675  10.671  13.309  0.2840  0.1431  0.1046
 5814W        W 6678   2.150  12.488   0.940 -0.1691  0.2364  0.5307
 5815W        W 6679   3.220   0.298  11.596  0.3209  0.0101  0.2019
 5816W        W 6680   2.248  13.226   0.301 -0.1921 -0.0534  0.0671
 5817W        W 6681   1.113  13.888  12.877 -0.3239 -0.1825  0.0569
 5818W        W 6682   2.292  13.953   0.253  0.0134 -0.0837  0.1569
 5819W        W 6683   1.814  13.280   0.645 -0.0963 -0.1651 -0.0352
 5820W        W 6684   1.381  11.198   0.562  0.2282  0.0181  0.0429
 5821W        W 6685   2.325   0.220   9.533  0.3170  0.0731  0.0895
 5822W        W 6686   1.004   0.853  10.558 -0.3598 -0.0741 -0.1268
 5823W        W 6687   1.983  10.019  13.636  0.0102 -0.1696 -0.1675
 5824W        W 6688   2.320  11.641  10.786 -0.1065 -0.2407 -0.0636
 5825W        W 6689  13.570   0.616  11.648 -0.0150 -0.2934  0.3278
 5826W        W 6690   0.083   1.795  12.869  0.3116  0.0078 -0.1615
 5827W        W 6691   0.256  13.033  11.525 -0.0043  0.1050 -0.0491
 5828W        W 6692   1.914  13.015   1.727  0.0296 -0.1244  0.1199
 5829W        W 6693   2.754  11.031   1.714 -0.0614 -0.0478  0.2884
 5830W        W 6694   1.097  11.696  11.618  0.1629 -0.1181 -0.0327
 5831W        W 6695   0.940  11.584  12.854 -0.0198 -0.0286 -0.2099
 5832W        W 6696   3.049   2.560  12.598 -0.0222  0.1146 -0.2395
 5833W        W 6697   0.088  12.771  13.154 -0.0627 -0.2093 -0.0098
 5834W        W 6698   3.391  11.339  10.092  0.1951 -0.0468  0.0037
 5835W        W 6699   5.511  13.824   0.361  0.1573  0.0006 -0.0855
 5836W        W 6700   2.636  12.774   0.865  0.2315  0.1950 -0.0028
 5837W        W 6701   1.734   0.569  10.097 -0.0721 -0.2084 -0.1386
 5838W        W 6702   0.302  13.082  13.796 -0.1909 -0.2209  0.2145
 5839W        W 6703   2.956  11.087  11.914  0.0202 -0.0758  0.1512
 5840W        W 6704   1.865  11.481  12.822 -0.2022 -0.0003 -0.0463
 5841W        W 6705   0.921   1.176   1.016 -0.2420 -0.1141  0.0651
 5842W        W 6706   0.301  11.320  13.388  0.2206  0.2385  0.1913
 5843W        W 6707  13.570  11.323   2.340 -0.0049  0.2315  0.0138
 5844W        W 6708   0.789  11.536  13.312 -0.1154 -0.1616  0.2461
 5845W        W 6709   2.163  11.483  13.649 -0.0918  0.4349 -0.0635
 5846W        W 6710   3.688  10.944  13.470 -0.1063 -0.0966  0.0537
 5847W        W 6711  13.900  12.619  11.704  0.1360  0.0571  0.0341
 5848W        W 6712   1.650  11.268   0.154  0.0156  0.0494  0.0322
 5849W        W 6713   4.092  11.544  13.627  0.1824 -0.1432 -0.2894
 5850W        W 6714   2.811  10.232  11.317 -0.0446 -0.1552 -0.1335
 5851W        W 6715   1.292   9.274  12.827  0.1425  0.0728 -0.1128
 5852W        W 6716   3.597   0.467  12.577  0.0228 -0.0167  0.1362
 5853W        W 6717   1.242  11.625   0.303 -0.2416 -0.1752 -0.2277
 5854W        W 6718   2.277   9.673  11.945 -0.0110 -0.1588 -0.1456
 5855W        W 6719   4.755   9.397  12.997  0.1667 -0.0717 -0.1088
 5856W        W 6720   3.888  10.683   2.696  0.1252 -0.1563 -0.2210
 5857W        W 6721   0.469   0.301  11.193 -0.0895 -0.0662  0.3376
 5858W        W 6722   1.308   9.094  13.325 -0.3059 -0.1267  0.2008
 5859W        W 6723   1.686   1.047   1.325  0.1208 -0.1321  0.0083
 5860W        W 6724   0.431  13.981  13.997  0.2774 -0.0566 -0.0041
 5861W        W 6725   1.483  13.119  13.409 -0.0351  0.0650 -0.4608
 5862W        W 6726   4.003  12.152  11.222  0.2038  0.3090  0.0949
 5863W        W 6727   2.521   1.057  11.293 -0.0458  0.2884  0.2321
 5864W        W 6728   3.598  11.894   1.983 -0.4769 -0.3598 -0.1174
 5865W        W 6729   0.862  12.527  13.913 -0.1235 -0.2803  0.3263
 5866W        W 6730   4.624  13.837   0.590 -0.1991  0.1021  0.1502
 5867W        W 6731   1.377  12.082  11.747 -0.3668  0.1761  0.1253
 5868W        W 6732   1.219  12.048  12.846  0.1247 -0.1051 -0.1302
 5869W        W 6733   1.556  12.650  12.527  0.0086 -0.0767  0.3762
 5870W        W 6734   2.887  11.845  11.311  0.1108  0.0430 -0.0016
 5871W        W 6735   4.141  13.820  12.387 -0.0270  0.1759 -0.2763
 5872W        W 6736   2.946  12.629  12.431 -0.0310  0.1595  0.2276
 5873W        W 6737   3.251  13.408  13.410 -0.0609 -0.2255  0.2746
 5874W        W 6738   1.876  13.439  12.390 -0.1319 -0.0773  0.0166
 5875W        W 6739  13.657  12.052  13.611 -0.0167 -0.1324  0.0327
 5876W        W 6740   5.471  10.190  12.841 -0.1212 -0.1777  0.0918
 5877W        W 6741   2.616  13.910   0.667 -0.1087  0.0047 -0.5201
 5878W        W 6742  13.406  13.548  13.603 -0.4140 -0.1178 -0.0854
 5879W        W 6743   1.877  10.992  13.870  0.0105 -0.1631 -0.3216
 5880W        W 6744   2.793   3.002   1.016 -0.1132  0.1287 -0.3301
 5881W        W 6745   0.172  12.883  12.075 -0.2745 -0.1043 -0.0773
 5882W        W 6746   1.411   9.706   0.415 -0.1026 -0.1108  0.2014
 5883W        W 6747  12.927  12.534  10.392 -0.1113  0.1243 -0.0436
 5884W        W 6748   3.022  12.953   0.075 -0.1823 -0.0104  0.1151
 5885W        W 6749   0.724  10.350  10.599 -0.0405  0.0460 -0.1645
 5886W        W 6750   3.978  11.045   0.886 -0.0141 -0.0498  0.0706
 5887W        W 6751   2.542  13.470  12.918 -0.4318  0.0839  0.3686
 5888W        W 6752   3.965   5.010   1.836  0.0001 -0.0208 -0.0271
 5889W        W 6753   1.686  11.571  12.245  0.2885 -0.2117  0.0397
 5890W        W 6754   1.957   2.814   0.989  0.1289 -0.2231 -0.0802
 5891W        W 6755   2.649  13.852  10.523 -0.1461  0.0103  0.0718
 5892W        W 6756   2.149  11.394   0.239  0.0609  0.3191 -0.1510
 5893W        W 6757   3.370   9.681   0.230  0.3615  0.0404 -0.2624
 5894W        W 6758  12.496  12.014  11.503  0.0283 -0.0464  0.0018
 5895W        W 6759   1.779   0.107  12.579 -0.0437  0.0764  0.1313
 5896W        W 6760   1.559  11.740  10.100  0.0726 -0.0984  0.0464
 5897W        W 6761   2.113  11.543  11.690 -0.1307 -0.0898 -0.0228
 5898W        W 6762   3.764  11.585   0.226  0.0797  0.0215 -0.1468
 5899W        W 6763   2.171  12.877   0.667  0.1489  0.0067 -0.0143
 5900W        W 6764   0.148  11.219   0.396  0.0479 -0.0031 -0.0161
 5901W        W 6765   1.312  12.670  12.088 -0.0669 -0.1163  0.0278
 5902W        W 6766   0.973  13.149  10.839  0.0195  0.1001  0.0720
 5903W        W 6767   2.667  12.235  13.316 -0.0213 -0.0126 -0.0585
 5904W        W 6768   3.821  13.528  12.667 -0.0378 -0.1941  0.1048
 5905W        W 6769   2.276  10.821  13.649  0.2397 -0.0910 -0.0311
 5906W        W 6770   4.627   0.380  11.078  0.3679 -0.2246 -0.3358
 5907W        W 6771   2.526  10.648   0.079  0.4652 -0.0343  0.2443
 5908W        W 6772   1.954  10.467  12.526  0.1819 -0.0488  0.0393
 5909W        W 6773  13.040  12.635  13.187 -0.2386 -0.0821  0.4684
 5910W        W 6774   1.262  10.994   2.045  0.0669 -0.2154  0.0381
 5911W        W 6775   1.085  13.629  11.759  0.4144  0.2242 -0.0798
 5912W        W 6776   1.132  13.117  11.878 -0.1821  0.0124  0.1807
 5913W        W 6777   2.478  13.906  13.696  0.2483 -0.1855  0.0090
 5914W        W 6778  13.655  12.299   0.507 -0.0023  0.0260 -0.3955
 5915W        W 6779   1.382  11.554  13.086  0.0119 -0.2327 -0.0914
 5916W        W 6780   3.623  11.380  13.759 -0.0533 -0.0660 -0.0702
 5917W        W 6781   0.750  12.369  13.493  0.1183 -0.0755  0.0727
 5918W        W 6782   1.780  12.122  13.596 -0.0819 -0.3600  0.0997
 5919W        W 6783   1.972   2.108   0.425  0.1618 -0.0106 -0.0705
 5920W        W 6784   1.600  12.151  12.268  0.0856 -0.2244 -0.1044
 5921W        W 6785  13.750   1.063  13.406 -0.2906  0.0264  0.2602
 5922W        W 6786   2.528  13.217   1.267  0.0424  0.2084  0.0260
 5923W        W 6787   2.899  12.855  11.913  0.2783  0.0632 -0.0181
 5924W        W 6788  13.471  12.566  13.532 -0.1608  0.1175  0.1282
 5925W        W 6789  13.525  11.916   0.115  0.0915  0.0015 -0.2785
 5926W        W 6790   1.014  11.263  11.002  0.0084 -0.0974  0.0181
 5927W        W 6791   1.167  12.531   0.917 -0.0825 -0.3001 -0.0591
 5928W        W 6792  13.504  11.247  12.775 -0.2833 -0.0968 -0.2695
 5929W        W 6793   2.722  10.027   0.955 -0.0458  0.1837  0.3229
 5930W        W 6794   2.835  12.111  12.350  0.2408 -0.1407  0.2551
 5931W        W 6795   1.268  12.344  13.655 -0.1704  0.1889  0.1349
 5932W        W 6796   0.639  13.211  11.960 -0.0560 -0.0513  0.1787
 5933W        W 6797   4.897  11.707  13.882 -0.2281 -0.1430 -0.0705
 5934W        W 6798   2.238   0.105  12.766 -0.0562  0.1007 -0.1826
 5935W        W 6799   0.028   2.535   0.482  0.1927  0.1562 -0.2910
 5936W        W 6800  13.711   2.337   1.470  0.1477  0.1996  0.0305
 5937W        W 6801   2.780  11.689  13.160  0.1995 -0.0822  0.0557
 5938W        W 6802   4.855   0.570  12.050 -0.2857 -0.1981  0.0463
 5939W        W 6803   4.035  13.790  13.451 -0.1507  0.1669  0.4568
 5940W        W 6804   3.328  13.316  12.777  0.0687 -0.3896  0.0456
 5941W        W 6805   2.026   9.487  13.267 -0.1707  0.1449  0.2314
 5942W        W 6806   3.265  12.294  12.633  0.2621 -0.0341  0.4321
 5943W        W 6807  12.338   1.867  13.866 -0.2060  0.0126 -0.1761
 5944W        W 6808   1.406  10.166  13.490  0.0889 -0.1676 -0.0313
 5945W        W 6809   3.670  11.077   0.409  0.1871 -0.1656 -0.2219
 5946W        W 6810  13.334  12.644   1.631  0.1600 -0.0773  0.2013
 5947W        W 6811   0.361  12.522  13.825  0.2570 -0.3751  0.3668
 5948W        W 6812   0.014  12.669   0.205  0.0457  0.1048  0.1177
 5949W        W 6813   2.009   1.108  12.723  0.0083 -0.0907 -0.2037
 5950W        W 6814   7.339  11.598  12.856  0.1542 -0.0760  0.0883
 5951W        W 6815   2.105   0.056   1.558  0.1572  0.1309 -0.0659
 5952W        W 6816   2.557  13.309  11.665  0.0100 -0.1981  0.0083
 5953W        W 6817   2.632   0.468  12.460  0.2085 -0.2386 -0.1918
 5954W        W 6818  13.293   0.144   1.304  0.0115  0.2767  0.3241
 5955W        W 6819   1.394   0.822  13.419 -0.0428  0.1204 -0.2067
 5956W        W 6820  12.559  11.104   2.431  0.1397  0.2100  0.1150
 5957W        W 6821   0.814  12.698  12.015  0.0264  0.1301 -0.0287
 5958W        W 6822   2.089   0.182  11.760  0.1550  0.0980  0.1746
 5959W        W 6823   2.764  13.767  11.449  0.0290 -0.1039 -0.0231
 5960W        W 6824   1.476  10.695  12.566  0.0008  0.0829 -0.1035
 5961W        W 6825   0.194  13.699   0.292 -0.0252  0.0739  0.0601
 5962W        W 6826   0.565   0.862   0.070 -0.0413  0.2334 -0.1234
 5963W        W 6827   0.521  13.414  12.403 -0.3044 -0.2221  0.1245
 5964W        W 6828   2.481   9.951  11.587 -0.0295 -0.0505 -0.3125
 5965W        W 6829   2.233  12.855   1.305 -0.1277  0.0847 -0.0396
 5966W        W 6830   4.091  11.145  12.625  0.3874  0.1271 -0.0764
 5967W        W 6831   0.130  13.355   0.734  0.0273 -0.0242  0.0517
 5968W        W 6832   1.713  12.761  13.008 -0.0130  0.0587  0.1036
 5969W        W 6833   3.339  13.260   0.294 -0.2364 -0.1808 -0.4373
 5970W        W 6834   1.128  12.999  12.999 -0.0706 -0.0502  0.0703
 5971W        W 6835   0.186  13.439  11.988 -0.0916  0.1129 -0.0374
 5972W        W 6836   3.475  13.512  12.254 -0.0111 -0.0511  0.2585
 5973W        W 6837   3.532  12.431  11.066  0.3094 -0.1374 -0.1439
 5974W        W 6838   2.040  11.906   9.857  0.1236  0.3556 -0.1312
 5975W        W 6839   0.000  12.177  13.974 -0.0904  0.0836 -0.0541
 5976W        W 6840   2.795  13.845  12.097 -0.2778  0.1764  0.0143
 5977W        W 6841   0.141  12.398  12.814  0.1525  0.1960  0.0072
 5978W        W 6842  12.485   0.978  13.476 -0.0754 -0.1821  0.0298
 5979W        W 6843   1.018  13.470  12.246 -0.2757 -0.1439  0.0533
 5980W        W 6844   0.569  13.130  10.437 -0.1085 -0.2402 -0.1711
 5981W        W 6845  12.136   0.868   0.512  0.3108 -0.0342 -0.0061
 5982W        W 6846   1.681  11.570   0.707 -0.0469  0.1789  0.1234
 5983W        W 6847  13.613  13.718   0.254 -0.4630  0.3916 -0.0406
 5984W        W 6848  12.210  12.271  11.921 -0.0108 -0.0857  0.1647
 5985W        W 6849   4.312  13.334  12.709  0.0891 -0.0200 -0.4107
 5986W        W 6850   1.753   3.635   0.138  0.0587 -0.1654 -0.2616
 5987W        W 6851   3.137  11.744  10.206  0.1837  0.0018 -0.1051
 5988W        W 6852   3.604  11.735  12.590 -0.0943 -0.5166 -0.3022
 5989W        W 6853   3.511  11.087  10.462 -0.0413 -0.3612  0.1276
 5990W        W 6854   2.165  12.555  10.202 -0.1849  0.0351 -0.1751
 5991W        W 6855   1.573  13.642  13.571 -0.1400  0.0862 -0.0067
 5992W        W 6856   1.450   1.102  13.809 -0.3642 -0.0232  0.3579
 5993W        W 6857   1.159  13.961  13.461 -0.2842  0.1820  0.5126
 5994W        W 6858   3.011  12.644  13.231 -0.1733 -0.0423 -0.0948
 5995W        W 6859  12.984  13.600  13.914  0.0430 -0.2687  0.0461
 5996W        W 6860   2.449  13.631  12.439  0.3387 -0.0257  0.0617
 5997W        W 6861   5.786  13.444   0.602  0.1661 -0.0350 -0.2495
 5998W        W 6862  11.593   1.686  13.399  0.0555  0.0683 -0.0096
 5999W        W 6863   4.747  11.649  13.214 -0.0443  0.0083  0.0751
 6000W        W 6864   2.938  13.533   9.652  0.0484 -0.2019  0.1987
 6001W        W 6865   1.123   9.932   1.133 -0.2811  0.1647  0.2222
 6002W        W 6866   1.691  11.361   9.215 -0.2750  0.0676  0.3205
 6003W        W 6867  12.648  12.634   2.248 -0.0911 -0.2856 -0.0039
 6004W        W 6868   1.655   0.293  11.595 -0.3205  0.1338 -0.0538
 6005W        W 6869   3.450  10.265  12.316 -0.1061  0.4053  0.2147
 6006W        W 6870   4.517  11.941  12.348 -0.1158 -0.0158  0.3982
 6007W        W 6871  12.768  13.280   0.876  0.2809  0.0687  0.1796
 6008W        W 6872   1.334  12.741  11.544  0.2837 -0.0630  0.0284
 6009W        W 6873   3.183  12.141  11.560 -0.0312  0.0402 -0.2794
 6010W        W 6874  12.571   0.244  10.561  0.3570 -0.0872 -0.0177
 6011W        W 6875  13.306  12.715   0.879 -0.1575 -0.0192  0.0479
 6012W        W 6876   3.349  10.864  12.145 -0.0213  0.1064  0.0815
 6013W        W 6877   2.207   0.169  13.302 -0.1684 -0.1668  0.0732
 6014W        W 6878   1.160   0.951  12.374 -0.2274 -0.0154  0.0534
 6015W        W 6879  13.188  12.285   0.378 -0.0403 -0.0581 -0.0297
 6016W        W 6880   1.571   1.988  11.343 -0.2286 -0.2512  0.0325
 6017W        W 6881   0.113  12.097  10.398  0.1583  0.1723 -0.2451
 6018W        W 6882   1.873   0.025  11.163  0.1028 -0.1064  0.3021
 6019W        W 6883   2.383  12.017   0.955 -0.5956 -0.0629 -0.2294
 6020W        W 6884   3.251  11.444  13.075  0.1516 -0.0550  0.3270
 6021W        W 6885   7.363  13.769  13.822  0.1238  0.1416  0.2564
 6022W        W 6886   1.891  13.247  13.080  0.2000 -0.0841  0.0896
 6023W        W 6887   3.310  12.621  11.491 -0.0972 -0.1078  0.0339
 6024W        W 6888   1.016  12.855  13.595 -0.1498  0.0941 -0.0400
 6025W        W 6889   3.587  13.304  10.578  0.0551  0.1060  0.1091
 6026W        W 6890   1.263  12.536  13.133 -0.3838  0.0308  0.0802
 6027W        W 6891  13.729  13.169   0.400 -0.5051  0.0616  0.3043
 6028W        W 6892   2.458  10.401  12.411  0.0998 -0.1242 -0.1003
 6029W        W 6893   1.592  12.408  10.858 -0.4201  0.0972  0.3208
 6030W        W 6894  12.502  11.568  13.371  0.0624  0.0354 -0.3113
 6031W        W 6895   3.167  11.669  13.534 -0.1551  0.3216  0.2174
 6032W        W 6896  13.635  10.960   0.082 -0.2224  0.1823  0.2867
 6033W        W 6897   3.053  11.355  13.887 -0.0414 -0.0925 -0.2190
 6034W        W 6898   4.874  11.734  12.688 -0.1704 -0.0055  0.0711
 6035W        W 6899   5.242  13.369   0.287 -0.0061 -0.0960 -0.0334
 6036W        W 6900   2.326   0.069  12.241  0.0589 -0.2305 -0.2945
 6037W        W 6901   3.506  10.546   0.244  0.1804  0.2006 -0.3334
 6038W        W 6902   2.597  12.469  12.037 -0.2390 -0.0368  0.1276
 6039W        W 6903  12.950  13.371  11.376  0.1757  0.3915  0.1057
 6040W        W 6904   1.280  13.751  13.969  0.0602  0.0171  0.0160
 6041W        W 6905   0.229  10.526  12.114  0.0892  0.0419  0.4641
 6042W        W 6906   3.547   0.369   9.831  0.0749  0.1215 -0.1338
 6043W        W 6907   2.746  13.975  12.706  0.1237  0.1404 -0.0031
 6044W        W 6908  13.722  11.493   0.003 -0.1264 -0.0248 -0.1172
 6045W        W 6909   2.661  10.864  12.427 -0.2826 -0.0215  0.2733
 6046W        W 6910   2.269   0.504   9.958 -0.1937  0.0948 -0.0863
 6047W        W 6911   3.779  12.607  12.681  0.0518 -0.2075 -0.0682
 6048W        W 6912   1.032  12.562  12.700 -0.4522 -0.0030  0.0912
 6049W        W 6913   2.253  12.704   0.183  0.0274  0.3135  0.2059
 6050W        W 6914  13.858  13.337  13.924  0.1787 -0.2625 -0.0667
 6051W        W 6915  12.224   8.905  13.061 -0.0478  0.0497  0.2581
 6052W        W 6916   2.151   1.109  13.196  0.2897 -0.2091  0.3866
 6053W        W 6917   1.490  12.537   0.525  0.1895  0.2026 -0.2941
 6054W        W 6918  11.536  13.560  12.675  0.0190 -0.0517 -0.0666
 6055W        W 6919   0.748  13.286  13.261  0.2508 -0.0475 -0.1631
 6056W        W 6920   2.853  10.822  13.760 -0.0030  0.0015  0.0201
 6057W        W 6921   2.423  10.383   0.653  0.2112 -0.0830 -0.2868
 6058W        W 6922   2.390   2.830   0.265 -0.1389  0.0793 -0.1911
 6059W        W 6923   4.219   0.025  11.862  0.0457 -0.0176 -0.1684
 6060W        W 6924   1.354   0.287  12.741  0.1418 -0.2576 -0.2505
 6061W        W 6925   5.412  11.425  13.985 -0.2615  0.0501 -0.2096
 6062W        W 6926   2.234  13.226  12.647  0.2781 -0.0834  0.0872
 6063W        W 6927   2.466   0.716  13.373  0.0959 -0.2519 -0.2322
 6064W        W 6928   1.921  11.707  13.256 -0.0035 -0.1042 -0.0109
 6065W        W 6929   4.046   5.399   2.683 -0.0379  0.4284  0.2089
 6066W        W 6930   6.223   1.509   5.140  0.2994  0.0971 -0.1769
 6067W        W 6931   5.186   1.741  11.686 -0.0020  0.0999  0.1259
 6068W        W 6932   3.063   3.889   1.338  0.0005  0.1695  0.1300
 6069W        W 6933   7.047   5.378  11.693  0.0763  0.1753  0.0319
 6070W        W 6934   2.914   2.071   1.617  0.0768 -0.1358  0.2480
 6071W        W 6935   4.403   0.497   3.368 -0.1147 -0.1399 -0.1140
 6072W        W 6936   3.439   0.733   0.469  0.1462  0.1023 -0.0887
 6073W        W 6937   6.868   3.509   2.755 -0.0298 -0.1543  0.0033
 6074W        W 6938   5.326   2.476   1.390 -0.1059  0.2846 -0.0257
 6075W        W 6939   2.973   2.307   2.167  0.0057 -0.1573  0.0037
 6076W        W 6940   7.798  12.890   3.229  0.0661 -0.2475 -0.3449
 6077W        W 6941   7.568   2.386   0.896 -0.0973  0.1258  0.1777
 6078W        W 6942   6.687   1.298   1.281  0.0176  0.2856 -0.1211
 6079W        W 6943   3.350  13.075   2.888 -0.0901 -0.0210  0.1327
 6080W        W 6944   4.159   5.748   2.139 -0.1606  0.1012 -0.1583
 6081W        W 6945   4.827   3.068   1.963  0.1076 -0.0828  0.0718
 6082W        W 6946   7.140   1.402   2.825  0.0305 -0.0628  0.1925
 6083W        W 6947   6.471   1.345   3.442 -0.0468 -0.1456 -0.0661
 6084W        W 6948   8.053   0.554   2.760  0.0856  0.2642  0.2169
 6085W        W 6949   7.596  13.719   2.235 -0.2148 -0.0559  0.0188
 6086W        W 6950   4.356   0.842  12.290 -0.2116 -0.2784 -0.0714
 6087W        W 6951   4.271   3.881   1.668  0.0384 -0.0042  0.3286
 6088W        W 6952   3.074   1.140   2.670 -0.0220 -0.0492  0.2940
 6089W        W 6953   4.724   1.558   2.383 -0.0091  0.0659 -0.0434
 6090W        W 6954   6.072   4.665   2.926 -0.1042  0.1899  0.1920
 6091W        W 6955   8.474   0.539   4.189 -0.2515 -0.0616 -0.2568
 6092W        W 6956   4.184   1.963   1.405 -0.0070  0.0108 -0.0546
 6093W        W 6957   4.487   4.121   2.151  0.1209 -0.2806  0.1717
 6094W        W 6958   7.611   0.407   2.592  0.0741  0.0117 -0.0975
 6095W        W 6959   4.091   1.971   2.803 -0.2146 -0.3175  0.0743
 6096W        W 6960   6.107   3.025   6.767 -0.0979  0.0489 -0.2588
 6097W        W 6961   5.752   3.026   2.245  0.2970  0.0771 -0.1411
 6098W        W 6962   5.594   3.016   1.564 -0.0821 -0.4541  0.0007
 6099W        W 6963   3.954   2.789   3.722 -0.0623 -0.0436 -0.1889
 6100W        W 6964   5.922   2.568   2.541  0.3545 -0.0900  0.0872
 6101W        W 6965   3.168   3.959   3.558  0.3249  0.0337 -0.0236
 6102W        W 6966   6.506   5.617   1.013 -0.2278  0.2111 -0.1681
 6103W        W 6967   5.089   2.705   0.396 -0.2396 -0.0762 -0.3472
 6104W        W 6968   7.005   0.950   4.991  0.1414  0.0485 -0.1807
 6105W        W 6969   8.072   2.934   0.160  0.1896  0.1105 -0.1897
 6106W        W 6970   8.418   1.444   2.894  0.5542 -0.0681  0.1254
 6107W        W 6971   6.066   2.588  12.929 -0.2829  0.0429 -0.0158
 6108W        W 6972   8.633   1.279   0.627  0.0285  0.1471 -0.1574
 6109W        W 6973   4.725   2.194  11.851 -0.1775  0.0544 -0.2075
 6110W        W 6974   4.665   6.196   0.887 -0.3029 -0.1189 -0.3237
 6111W        W 6975   6.552   2.841   3.446 -0.2941 -0.3297 -0.1716
 6112W        W 6976   6.560   4.903   1.561  0.0312 -0.3256 -0.0377
 6113W        W 6977   5.779   2.154   2.050 -0.3156 -0.2779 -0.1549
 6114W        W 6978   5.850   2.290   5.324  0.0699 -0.2322 -0.0269
 6115W        W 6979   2.782   3.139   3.214 -0.2489  0.1942  0.1514
 6116W        W 6980   7.309   3.523   2.986  0.0435  0.1487 -0.2379
 6117W        W 6981   7.779   1.989   1.247 -0.0844 -0.3369  0.1891
 6118W        W 6982   4.881   1.556   1.044 -0.0592  0.0385  0.0161
 6119W        W 6983   5.503   4.632   1.227  0.0422 -0.0658  0.0140
 6120W        W 6984   4.838   2.017  12.679  0.1304  0.0527 -0.1733
 6121W        W 6985   6.532   3.861   1.466  0.0522  0.1859 -0.0760
 6122W        W 6986   3.530   2.081   2.697  0.2316  0.0091 -0.0897
 6123W        W 6987   8.303   3.578   0.688 -0.5079  0.2966 -0.0673
 6124W        W 6988   8.767  12.785  13.094 -0.2358 -0.0242 -0.2056
 6125W        W 6989   4.344   5.066   2.237  0.2144  0.1042 -0.1462
 6126W        W 6990   4.329   3.053   2.107 -0.3433  0.1647  0.3047
 6127W        W 6991   4.669   5.661   0.954 -0.1053  0.0760 -0.0868
 6128W        W 6992   7.262   1.230   4.646 -0.0162 -0.0553  0.1754
 6129W        W 6993   3.526   1.232  13.593 -0.1306 -0.1645  0.1371
 6130W        W 6994   3.062  13.514  13.943 -0.2379  0.0118  0.0466
 6131W        W 6995   3.718   4.508  12.578  0.5173  0.0533 -0.0425
 6132W        W 6996   7.275   2.229   3.169  0.1652  0.1599 -0.2306
 6133W        W 6997   7.104   4.269   3.616 -0.0509  0.1427  0.1692
 6134W        W 6998   5.958  12.767   3.179  0.0111  0.1235  0.1295
 6135W        W 6999   5.102   5.780   1.858  0.2257  0.0995 -0.0796
 6136W        W 7000   8.805   0.162   2.040 -0.2660 -0.0853 -0.1343
 6137W        W 7001   6.818   4.256   1.357  0.0335 -0.1097 -0.0688
 6138W        W 7002   3.055   2.231   2.667 -0.0609 -0.2665  0.0201
 6139W        W 7003   0.552   1.351   1.297 -0.1505 -0.1203  0.0072
 6140W        W 7004   6.067   2.230   2.870  0.2868  0.1466  0.1652
 6141W        W 7005   7.797   0.509   3.539  0.1058  0.0034  0.0810
 6142W        W 7006   7.243   3.147  12.749 -0.0128 -0.1695  0.0589
 6143W        W 7007   3.183   4.900   1.750  0.0116 -0.2417 -0.1516
 6144W        W 7008   4.079   4.306   1.961  0.1905 -0.1110  0.0300
 6145W        W 7009   2.526   0.741   1.292  0.3676 -0.2121 -0.3028
 6146W        W 7010   6.124   0.105   1.540 -0.1153 -0.0942 -0.1333
 6147W        W 7011   4.483   1.449   2.862  0.0702 -0.1244 -0.0815
 6148W        W 7012   5.391   3.147  13.896 -0.0333 -0.0254  0.2604
 6149W        W 7013   7.578   4.158   0.289  0.0069  0.0954 -0.2567
 6150W        W 7014   6.772  13.047   4.060 -0.1912  0.1176  0.1543
 6151W        W 7015   5.488   2.845   2.659 -0.2743  0.1884  0.0904
 6152W        W 7016   7.880   0.515   2.191 -0.0294  0.0866 -0.0302
 6153W        W 7017   6.591   2.575   0.682 -0.0112  0.1298 -0.0696
 6154W        W 7018   5.567   2.681   5.647 -0.0884  0.2932  0.1865
 6155W        W 7019   3.383   2.851   4.558 -0.0575 -0.0565  0.4264
 6156W        W 7020   4.462   4.091  13.816 -0.4077  0.0289  0.0427
 6157W        W 7021   5.238   1.976   5.064 -0.0621 -0.0391  0.3670
 6158W        W 7022   7.166   1.814   2.438 -0.2801  0.0133  0.0821
 6159W        W 7023   9.535   0.696   1.333  0.0298  0.0566 -0.0491
 6160W        W 7024   2.678   6.310   5.058 -0.1006 -0.1284 -0.0912
 6161W        W 7025   3.835   1.901   1.045  0.0498 -0.4028  0.4691
 6162W        W 7026  10.311  11.660   1.694  0.0234  0.0977 -0.1530
 6163W        W 7027   6.987   1.711   0.078 -0.0270 -0.2070  0.0092
 6164W        W 7028   2.397   5.368   1.721  0.2412  0.1055  0.1396
 6165W        W 7029   7.896   2.771   1.976 -0.0850  0.0108 -0.0653
 6166W        W 7030   6.454   4.587  13.634 -0.0934  0.1015  0.2192
 6167W        W 7031   7.223  12.407   2.783 -0.2108  0.0407  0.0856
 6168W        W 7032   7.816   3.328   3.350 -0.1479  0.1162 -0.1565
 6169W        W 7033   5.586   2.326  13.799 -0.1867 -0.0972  0.0313
 6170W        W 7034   6.718   2.804   4.222  0.1269  0.0124  0.1023
 6171W        W 7035   7.489   1.411   2.285 -0.0820 -0.0920 -0.1067
 6172W        W 7036   5.856   0.083   1.988 -0.0640 -0.0513 -0.1194
 6173W        W 7037   2.329   5.586   3.595  0.0040  0.3590  0.1451
 6174W        W 7038   6.374   5.702   2.416  0.1657 -0.0637 -0.0069
 6175W        W 7039   7.955   1.525   2.583  0.3252  0.0656  0.1525
 6176W        W 7040   3.039   5.613   2.387 -0.1185 -0.1186 -0.1147
 6177W        W 7041   4.792   3.430   0.429 -0.0741  0.0107  0.1031
 6178W        W 7042   4.913   3.270   1.361 -0.1958 -0.0963  0.4059
 6179W        W 7043   6.145   0.520   3.594  0.0086 -0.3010 -0.1265
 6180W        W 7044   3.900   5.545   1.711 -0.1169  0.1149  0.1912
 6181W        W 7045   3.737   0.771   2.625  0.2657  0.0771 -0.0252
 6182W        W 7046   8.094  12.501   3.019 -0.3114  0.1866 -0.1495
 6183W        W 7047  10.116   1.812   3.437 -0.2095 -0.1143 -0.0649
 6184W        W 7048   5.051   4.217   2.021  0.2018  0.0107 -0.3409
 6185W        W 7049   6.420   0.568   1.783 -0.4663 -0.1249 -0.1978
 6186W        W 7050   7.908   0.716   1.261  0.1818 -0.3687  0.0874
 6187W        W 7051   3.877   5.044   0.589 -0.1803  0.0717 -0.1522
 6188W        W 7052   6.488   4.291   0.423  0.3283 -0.5112 -0.3682
 6189W        W 7053   5.075   2.502   1.843  0.4079 -0.0751  0.1713
 6190W        W 7054   7.156  12.871   2.458  0.2066  0.2015 -0.2279
 6191W        W 7055   8.701   3.271  12.868  0.0380  0.0918  0.3599
 6192W        W 7056   4.206   4.809   0.960 -0.4869  0.2841 -0.0397
 6193W        W 7057   5.035   4.320   3.513 -0.0155  0.1828  0.2324
 6194W        W 7058   7.706  12.785   2.733 -0.1791  0.3003 -0.0340
 6195W        W 7059   5.516   5.055  13.944  0.2104  0.1056  0.1318
 6196W        W 7060   9.229  11.652  13.888 -0.0139  0.1563 -0.3022
 6197W        W 7061   6.940   2.611   1.097 -0.2299 -0.1311  0.0462
 6198W        W 7062   1.728   1.541   2.087 -0.2416 -0.0505 -0.3034
 6199W        W 7063   6.914  13.959   0.023  0.1228  0.2575  0.0304
 6200W        W 7064   7.985  13.922   3.639 -0.0550  0.0136 -0.1064
 6201W        W 7065   5.409   3.491   1.301  0.1382 -0.1960  0.1916
 6202W        W 7066   4.414   7.667   0.356 -0.1411 -0.5414 -0.1206
 6203W        W 7067   3.732   2.687   0.773  0.1788  0.0226  0.0533
 6204W        W 7068   7.249   0.046   1.488  0.0210 -0.1384  0.1382
 6205W        W 7069   5.507   3.411   0.789  0.0011 -0.1123  0.0588
 6206W        W 7070   3.298   5.533   1.088 -0.0748 -0.0214  0.0023
 6207W        W 7071   5.812   2.652   4.870 -0.1880  0.1733  0.0700
 6208W        W 7072   5.721   1.033  13.641  0.0184  0.1104 -0.1324
 6209W        W 7073   6.023   0.270   1.047  0.0893  0.1602 -0.0490
 6210W        W 7074   6.983   4.547   2.493 -0.2226  0.1433 -0.2084
 6211W        W 7075   7.313   5.740   3.897 -0.2746 -0.1283  0.0845
 6212W        W 7076   4.202   2.445   1.499  0.2871 -0.0799 -0.0231
 6213W        W 7077   6.710   3.522   4.204 -0.0928 -0.3984  0.0182
 6214W        W 7078   4.254   2.787   3.066 -0.3118  0.3821  0.0662
 6215W        W 7079   4.727   4.643   2.289  0.0536  0.0776  0.1046
 6216W        W 7080   4.974   0.065  12.367 -0.1009 -0.0827 -0.1204
 6217W        W 7081   5.314   3.771   3.922  0.2640  0.1923  0.0136
 6218W        W 7082   7.145   1.262   1.397  0.1595  0.1138  0.1363
 6219W        W 7083   5.084   2.047   1.641  0.0946 -0.3314  0.3719
 6220W        W 7084   3.951   3.011  12.193  0.0160 -0.0709  0.3181
 6221W        W 7085   1.649  12.622  13.487 -0.2630 -0.2229 -0.0010
 6222W        W 7086   5.703  13.991  13.672 -0.0092 -0.1391  0.1044
 6223W        W 7087   6.286  13.890   4.156  0.3834 -0.0027  0.2049
 6224W        W 7088   2.811   2.744   3.621 -0.0318 -0.3213  0.2388
 6225W        W 7089   6.502   4.148   3.521  0.0900 -0.1090  0.0545
 6226W        W 7090   7.445   1.434   5.675  0.3167  0.0067  0.4652
 6227W        W 7091   5.964  13.980   3.431 -0.2593  0.0787  0.0067
 6228W        W 7092   3.517   0.402   0.024 -0.1618  0.0941 -0.1058
 6229W        W 7093   6.548   0.913   2.102  0.0999  0.1498 -0.1678
 6230W        W 7094   4.632   4.350   1.610 -0.1223  0.1303 -0.3693
 6231W        W 7095   5.160   1.037   4.249  0.1486 -0.1244 -0.2395
 6232W        W 7096   4.516   3.582  12.270 -0.0192 -0.0608  0.0039
 6233W        W 7097   4.157   2.995   4.242  0.0704  0.1594  0.2599
 6234W        W 7098   5.781  11.115   0.081  0.2847 -0.1217 -0.0479
 6235W        W 7099   4.510   1.290   3.421 -0.1040 -0.0856  0.1649
 6236W        W 7100   5.421   2.364  13.208 -0.0223 -0.3798 -0.0716
 6237W        W 7101   6.187   0.886   3.117 -0.4991 -0.2260 -0.1070
 6238W        W 7102   7.056  12.378   1.798 -0.0008  0.2070 -0.1067
 6239W        W 7103   3.355   4.937   2.905  0.1229  0.2174  0.0322
 6240W        W 7104   2.503   3.331   2.781 -0.1204  0.1075 -0.1153
 6241W        W 7105   5.357   5.648   1.403  0.1267 -0.0409  0.0213
 6242W        W 7106   6.167   2.102   3.472 -0.1628  0.1057 -0.1355
 6243W        W 7107   3.851   2.428  13.870 -0.2256  0.0559  0.1555
 6244W        W 7108   5.433   2.247   0.492  0.0934 -0.2059 -0.0235
 6245W        W 7109   3.428   1.740  13.627  0.0715 -0.2769 -0.0677
 6246W        W 7110   4.725   1.928  13.857 -0.0066 -0.0169 -0.1407
 6247W        W 7111   4.858   0.705  13.066 -0.1768 -0.1938 -0.0857
 6248W        W 7112   8.020   4.733   3.445  0.2020  0.0554  0.0073
 6249W        W 7113   9.797   0.021  13.974 -0.0384  0.4096 -0.1257
 6250W        W 7114   4.945   0.787   0.785  0.3098  0.0900  0.2312
 6251W        W 7115   5.309   3.817   0.640 -0.1247  0.2659  0.1438
 6252W        W 7116   3.778   7.093   0.016 -0.1204 -0.1927  0.0931
 6253W        W 7117   3.541   5.047  12.591 -0.0887  0.0554  0.2473
 6254W        W 7118   4.513   2.890   2.611  0.0260 -0.1468  0.0785
 6255W        W 7119   4.806   0.560   3.124  0.3204  0.0332 -0.1163
 6256W        W 7120   6.011   1.433   3.005  0.3686 -0.0152  0.0515
 6257W        W 7121   3.950   2.123   2.345  0.0133 -0.1066 -0.2385
 6258W        W 7122   8.117   0.002   0.983  0.0954  0.1096 -0.0800
 6259W        W 7123   1.971  13.290   2.677 -0.3529 -0.2052  0.2268
 6260W        W 7124   2.445   4.411   2.715  0.1639 -0.3125  0.1040
 6261W        W 7125   6.499  12.789   2.360  0.2188  0.0959  0.0826
 6262W        W 7126   2.764   3.081   0.543  0.3387 -0.0043  0.0064
 6263W        W 7127   7.941   1.551   2.018 -0.1933 -0.0526  0.0513
 6264W        W 7128   7.365   1.598   1.016 -0.2182  0.4149  0.3116
 6265W        W 7129   3.093   2.729   2.302  0.0001  0.1113 -0.0950
 6266W        W 7130   6.285   1.765   3.160  0.2186  0.2222 -0.0213
 6267W        W 7131   3.228   3.088  13.646 -0.1969 -0.1658  0.2931
 6268W        W 7132   2.878   4.824   5.122  0.0436 -0.3011  0.2338
 6269W        W 7133   5.103   0.868   2.128  0.0768 -0.5004  0.0051
 6270W        W 7134   6.168   3.451  13.282 -0.2302 -0.0359 -0.0925
 6271W        W 7135   3.733   2.991  12.762  0.0663 -0.0119 -0.1741
 6272W        W 7136   6.404   2.501   6.519  0.0054  0.0349  0.0310
 6273W        W 7137   5.881   2.718   3.027  0.1345  0.2960  0.0810
 6274W        W 7138   7.377   0.147   3.041 -0.1393  0.1721  0.0964
 6275W        W 7139   5.245  13.004   5.494  0.3742 -0.0776 -0.0682
 6276W        W 7140   8.178   2.530   2.290 -0.2001  0.0130  0.2831
 6277W        W 7141   5.399   4.011   1.127  0.0000 -0.0065 -0.0673
 6278W        W 7142   2.361   1.237  13.627  0.1732  0.1495  0.1343
 6279W        W 7143   6.857   4.705   0.656 -0.2936  0.0600 -0.1033
 6280W        W 7144   3.839   2.813   1.253  0.0584  0.1093 -0.0532
 6281W        W 7145   4.402   1.375   5.314  0.2762 -0.1599  0.1387
 6282W        W 7146   7.671   1.372   3.006  0.1335 -0.0165  0.3728
 6283W        W 7147   8.528   2.625   0.296  0.2511  0.2212 -0.0794
 6284W        W 7148   4.673   4.682   2.873  0.3544 -0.0254 -0.0356
 6285W        W 7149   4.878   0.345   1.889 -0.0280  0.1676  0.1265
 6286W        W 7150   5.411   5.853   0.423  0.3172  0.0119 -0.0613
 6287W        W 7151   3.744  12.122   4.641  0.2806 -0.1713  0.1349
 6288W        W 7152   2.867   4.140   2.987 -0.1153  0.0207 -0.0338
 6289W        W 7153   8.248   2.424   2.840  0.0909  0.2877 -0.1084
 6290W        W 7154   6.359   3.906  13.308 -0.2242 -0.0012  0.0415
 6291W        W 7155   7.272   0.044   2.535  0.0016  0.2348 -0.0881
 6292W        W 7156   6.367   0.382   2.239  0.1803 -0.0814  0.0361
 6293W        W 7157   4.736   0.388   5.746  0.2237  0.1276 -0.3334
 6294W        W 7158   5.408   3.798  12.277 -0.0174  0.0218 -0.0619
 6295W        W 7159   3.460   5.058   2.174  0.0276  0.0706 -0.3158
 6296W        W 7160   3.932   1.753   3.698 -0.1218 -0.2190  0.1404
 6297W        W 7161   2.892   5.376   1.640 -0.1103  0.2349  0.0706
 6298W        W 7162   4.978   2.809   2.356  0.0794  0.1221  0.0460
 6299W        W 7163   6.210  13.612   2.825 -0.1791  0.1004 -0.1228
 6300W        W 7164   6.293   3.399   1.238 -0.0747  0.0038 -0.1745
 6301W        W 7165   6.794   0.068   2.378  0.2412 -0.0907  0.0854
 6302W        W 7166   3.063   7.219   1.772  0.1112 -0.2454  0.1631
 6303W        W 7167   4.368   2.397   2.734  0.1702 -0.1694 -0.1100
 6304W        W 7168   3.232   2.397   1.355 -0.0213  0.0237  0.1315
 6305W        W 7169   3.365   2.410   0.426  0.3416  0.3939 -0.2951
 6306W        W 7170   6.681  13.655   3.886  0.1124  0.2399  0.3534
 6307W        W 7171   3.925   2.937  13.250  0.2074 -0.1801  0.0868
 6308W        W 7172   5.886   4.178   2.063 -0.0919 -0.0433 -0.0355
 6309W        W 7173   1.491   2.112   3.426  0.0073 -0.2679  0.0022
 6310W        W 7174   7.395   2.562   1.289 -0.0111 -0.1743 -0.0360
 6311W        W 7175   8.733   0.723   0.810 -0.0673 -0.0982  0.1622
 6312W        W 7176   3.958   2.365   1.082  0.1119  0.1427  0.1159
 6313W        W 7177   6.253   6.016   3.228 -0.1292  0.1369 -0.1462
 6314W        W 7178   6.502   4.572   2.721 -0.0074  0.2643 -0.1897
 6315W        W 7179   6.989   1.505   3.753 -0.1480 -0.2037  0.1543
 6316W        W 7180   4.494   2.898   1.566 -0.0979 -0.0177  0.0493
 6317W        W 7181  10.758   0.443   3.062  0.2192 -0.0051 -0.0566
 6318W        W 7182   4.707  12.490   1.636  0.0031  0.1453  0.2738
 6319W        W 7183   8.638   3.366   3.314  0.2077  0.0482 -0.1132
 6320W        W 7184   6.836   1.803   1.410 -0.2643  0.1233 -0.1489
 6321W        W 7185   6.088  13.274   0.946  0.2823 -0.0966 -0.2103
 6322W        W 7186   6.164   2.383   0.943  0.0243 -0.2365 -0.5528
 6323W        W 7187   7.189   0.530   2.814  0.3525 -0.0784  0.2887
 6324W        W 7188   4.747   3.739   2.937  0.2482  0.3026  0.0071
 6325W        W 7189   6.670   3.078   2.515  0.2673 -0.2489 -0.0420
 6326W        W 7190   5.823   5.424   1.852  0.1853  0.1779 -0.1210
 6327W        W 7191   2.104   3.238   3.986 -0.2233  0.1385  0.1584
 6328W        W 7192   8.105   4.116   1.561 -0.0591  0.2815 -0.0752
 6329W        W 7193   6.232   2.172   2.328 -0.3566  0.2024  0.0321
 6330W        W 7194   6.200   3.072   3.132  0.3286  0.3438  0.0888
 6331W        W 7195   7.271  13.271   2.793 -0.0792 -0.0752 -0.2618
 6332W        W 7196   5.038   3.343   0.812 -0.1940 -0.2830  0.0501
 6333W        W 7197   7.768  13.991   5.738  0.1548 -0.1294  0.1227
 6334W        W 7198   5.654  13.635   3.687 -0.1644 -0.4201 -0.0017
 6335W        W 7199   5.253   0.314   2.255  0.0486 -0.1258  0.1028
 6336W        W 7200   3.867   6.028   1.364  0.0518 -0.2234 -0.2501
 6337W        W 7201   6.980  10.772   5.290 -0.1761  0.0765 -0.2797
 6338W        W 7202   4.430   1.551   1.675  0.1655  0.3604  0.1131
 6339W        W 7203   2.883   3.696   2.556  0.2134  0.0233 -0.0000
 6340W        W 7204   3.835   0.559   0.967  0.1455  0.2357 -0.0316
 6341W        W 7205   3.168   2.712   3.243 -0.0934 -0.0483 -0.1611
 6342W        W 7206   7.280   3.499   1.603  0.1412 -0.5062 -0.2883
 6343W        W 7207   5.002   0.590  10.857  0.0669 -0.0890 -0.1396
 6344W        W 7208   5.084   1.106   1.132 -0.0847  0.2875 -0.1431
 6345W        W 7209   6.320   5.424  13.400 -0.2752 -0.1153  0.0279
 6346W        W 7210   5.589   1.684   2.038 -0.2782 -0.3449 -0.0099
 6347W        W 7211   6.652   1.579   4.195 -0.1229 -0.0729 -0.0427
 6348W        W 7212   6.517   1.733   1.962 -0.1181  0.0857 -0.2064
 6349W        W 7213   5.495   2.309   2.790 -0.4029  0.0046  0.0967
 6350W        W 7214   5.512  10.001   1.405 -0.1000 -0.1422 -0.1954
 6351W        W 7215   5.998   3.497   0.713 -0.2898  0.0564 -0.1576
 6352W        W 7216   5.809   1.474   1.554 -0.2255 -0.1870  0.1771
 6353W        W 7217   9.594  12.762   2.314 -0.1633 -0.0935 -0.1651
 6354W        W 7218   8.692   0.771   1.752 -0.0006  0.1530 -0.3471
 6355W        W 7219   3.942   4.166  12.923  0.2101  0.1263  0.1556
 6356W        W 7220   3.100   3.369   1.109 -0.1753 -0.0950 -0.1481
 6357W        W 7221   6.920  12.982   1.185 -0.2617  0.0834 -0.0721
 6358W        W 7222   7.047   2.949   1.629 -0.1427  0.0421  0.1514
 6359W        W 7223   5.849   1.819   1.203 -0.0974  0.0073  0.0788
 6360W        W 7224   3.441   5.851   0.657 -0.0554 -0.1455  0.0224
 6361W        W 7225   7.003   5.579   0.461 -0.2944  0.0989  0.0877
 6362W        W 7226   5.033   0.224   2.852  0.0562  0.1484  0.0640
 6363W        W 7227   1.724   2.414   2.664  0.1075 -0.0296  0.2625
 6364W        W 7228   9.406  13.919   0.567 -0.2222  0.3773 -0.3645
 6365W        W 7229   7.193   3.451   0.804  0.2305  0.2554  0.1665
 6366W        W 7230   0.650   2.102   3.762 -0.0453 -0.0135 -0.0838
 6367W        W 7231   8.304   1.507   5.100  0.0280  0.2060 -0.1205
 6368W        W 7232   0.300   2.242   2.329  0.1160 -0.0644 -0.1572
 6369W        W 7233   6.782   3.386   1.444 -0.0947  0.1337  0.0035
 6370W        W 7234   5.744   4.001   0.703 -0.0357 -0.1865 -0.2934
 6371W        W 7235   6.314   2.719  12.461  0.0260 -0.0690 -0.4121
 6372W        W 7236   4.982   4.842   3.880  0.1674 -0.2071  0.0550
 6373W        W 7237   5.137   1.372   2.082 -0.2100 -0.0143 -0.0001
 6374W        W 7238   4.944   4.389   4.019  0.2002 -0.3080  0.3157
 6375W        W 7239   4.205   4.340   2.512 -0.3121 -0.0443  0.3397
 6376W        W 7240   5.924   5.199   2.926  0.0499 -0.0104 -0.3656
 6377W        W 7241   4.674   2.254   2.295  0.0141 -0.0190 -0.1348
 6378W        W 7242   6.481  13.021   0.736  0.1066 -0.2762  0.0486
 6379W        W 7243   3.573   5.130   1.535  0.2367  0.1924  0.1689
 6380W        W 7244   6.785   3.821   1.881  0.1402  0.0090 -0.1286
 6381W        W 7245   4.289   2.172   1.937 -0.1659 -0.0915 -0.0191
 6382W        W 7246   6.635   5.353   0.233  0.2733  0.0232  0.1905
 6383W        W 7247   4.754   3.165   4.913 -0.1078  0.3696  0.1990
 6384W        W 7248   5.737   3.417   2.599 -0.2320  0.0309  0.0460
 6385W        W 7249   4.048   3.954   0.794 -0.1464  0.0491  0.0798
 6386W        W 7250   4.040   4.197   3.322 -0.1342 -0.3550  0.2604
 6387W        W 7251   6.681   1.273   1.823  0.0661 -0.4647  0.0768
 6388W        W 7252   4.416   4.892   0.504  0.0353 -0.0710 -0.1808
 6389W        W 7253   3.983   4.641  11.681 -0.1363  0.0104  0.0437
 6390W        W 7254   4.987   3.757   1.167 -0.0562  0.2704  0.0481
 6391W        W 7255   4.755   1.507   5.664 -0.1670 -0.2291  0.0032
 6392W        W 7256   7.782  11.901  13.973 -0.0774  0.1744  0.2227
 6393W        W 7257   6.447   3.932   2.592 -0.1422  0.1741  0.3340
 6394W        W 7258   9.117   3.318   2.485 -0.0976  0.1268  0.1056
 6395W        W 7259   6.227   1.337   2.140  0.0802  0.1083 -0.2504
 6396W        W 7260   4.730   5.343   3.522 -0.0518 -0.5087 -0.0879
 6397W        W 7261   6.351   1.966   0.006 -0.0237 -0.1856 -0.0305
 6398W        W 7262   6.519   0.429   3.200 -0.1969  0.0175  0.0059
 6399W        W 7263   4.783  13.561   0.094 -0.1085  0.0706  0.0632
 6400W        W 7264   4.931   4.235   0.550 -0.0630  0.0847  0.1474
 6401W        W 7265   6.349  12.859   4.211  0.0625  0.0188  0.0556
 6402W        W 7266   2.784  13.963   0.065  0.0408 -0.1888  0.0128
 6403W        W 7267   3.179   2.826   0.343  0.1236 -0.1156  0.0193
 6404W        W 7268   5.285   2.949   1.974  0.0580  0.1820 -0.0132
 6405W        W 7269   6.185   5.208   1.220  0.0816 -0.2615  0.0009
 6406W        W 7270   3.130   5.543   0.311 -0.0608  0.2551  0.1964
 6407W        W 7271   1.435   2.522   1.764 -0.1112 -0.0099 -0.1157
 6408W        W 7272   9.403   3.701   3.441 -0.0435  0.0059  0.3210
 6409W        W 7273   3.366   1.882   0.475 -0.4810  0.0779 -0.1168
 6410W        W 7274   4.384   1.864   3.227  0.1755  0.0759  0.0467
 6411W        W 7275   6.380   0.833  13.792 -0.1287  0.1369  0.2469
 6412W        W 7276   5.963   4.306  13.755 -0.1525  0.0498  0.0104
 6413W        W 7277   5.479   4.787   1.700  0.1821 -0.1563 -0.0371
 6414W        W 7278   5.963  13.877   2.412  0.1657 -0.0272 -0.1221
 6415W        W 7279   5.997  13.892   0.678  0.0977  0.0078  0.0856
 6416W        W 7280   1.912   4.883  13.878  0.0449  0.1054 -0.0932
 6417W        W 7281   6.302   2.546   3.951 -0.1700 -0.1631 -0.1521
 6418W        W 7282   5.258   2.134   2.127 -0.0555 -0.0851 -0.1339
 6419W        W 7283   4.162   2.668   0.225 -0.1802 -0.2697 -0.0518
 6420W        W 7284   4.241   2.770   0.948  0.0900  0.2012 -0.0243
 6421W        W 7285   7.982   0.544   5.474  0.2034 -0.0373  0.1192
 6422W        W 7286   5.691   2.263   3.290  0.1777 -0.2343  0.0093
 6423W        W 7287   6.206  11.999   1.846 -0.0824 -0.0680 -0.1439
 6424W        W 7288   4.891   8.124   1.918 -0.1495 -0.2367  0.0645
 6425W        W 7289   4.974   4.691   1.805  0.1812  0.0254  0.0744
 6426W        W 7290   5.872   3.736   1.134 -0.3649 -0.2905  0.2222
 6427W        W 7291   8.091   3.501   1.471 -0.1978 -0.2111  0.2281
 6428W        W 7292   8.445   0.531  12.369 -0.0502  0.3069  0.1773
 6429W        W 7293   6.609  12.717  12.677  0.3379 -0.1185  0.0957
 6430W        W 7294   4.894   2.282   0.662 -0.0659  0.2612  0.0799
 6431W        W 7295   7.767  13.990   0.586 -0.0901  0.1462 -0.0744
 6432W        W 7296   7.381   2.608   1.819  0.0896  0.1574 -0.1076
 6433W        W 7297   4.047   1.408   3.107 -0.0484 -0.1738  0.1606
 6434W        W 7298   6.537   3.515  12.992  0.0070  0.1371  0.1001
 6435W        W 7299   5.672   2.300   5.884 -0.4086  0.1281  0.0510
 6436W        W 7300   3.642   1.733   2.350  0.0155  0.0627  0.0193
 6437W        W 7301   6.716   4.980   2.434  0.2388 -0.2848 -0.1459
 6438W        W 7302   5.421  12.959   1.213 -0.1726 -0.1523 -0.0416
 6439W        W 7303   2.453   4.071   5.038  0.0411  0.0586 -0.0308
 6440W        W 7304   7.598  13.664   2.768 -0.1685 -0.0843 -0.1448
 6441W        W 7305   2.709   3.384  12.849  0.1095  0.0479  0.1471
 6442W        W 7306   6.244   1.685   3.767 -0.5498 -0.1704  0.0642
 6443W        W 7307   6.865   4.732   1.198 -0.1410 -0.1054 -0.1169
 6444W        W 7308   7.632   2.384   2.158 -0.0873  0.0641  0.1481
 6445W        W 7309   6.539   2.850   1.600  0.3668  0.2204  0.0236
 6446W        W 7310   4.867   4.400  13.928  0.2259 -0.0784 -0.1910
 6447W        W 7311   7.042   4.893   1.680  0.0193  0.2005 -0.0583
 6448W        W 7312   6.383   5.927  13.435 -0.0970  0.0414 -0.1431
 6449W        W 7313   4.720   3.334   2.519  0.0303 -0.2400 -0.2715
 6450W        W 7314   7.992   0.550   4.029 -0.0987  0.0929  0.2282
 6451W        W 7315   6.327   0.655   0.922  0.1131  0.3537 -0.0058
 6452W        W 7316   5.315   5.278   1.832  0.0395  0.0301  0.1319
 6453W        W 7317   4.404   4.331   0.747 -0.1313  0.1494  0.1794
 6454W        W 7318   5.899   4.242   4.981 -0.0962 -0.2220 -0.0760
 6455W        W 7319   6.614  13.824   1.497  0.0969 -0.3975 -0.0577
 6456W        W 7320   5.225   3.541   2.788 -0.0116 -0.2336 -0.2174
 6457W        W 7321   3.927   3.805   1.307  0.3046  0.0097 -0.1633
 6458W        W 7322   5.274   1.193  13.302  0.1684  0.0230 -0.0794
 6459W        W 7323   2.695   2.956   6.614  0.3149 -0.5015 -0.0519
 6460W        W 7324   4.015   0.244   6.327 -0.4673 -0.1513 -0.1307
 6461W        W 7325   4.472   3.524   2.121  0.2885 -0.0365 -0.1948
 6462W        W 7326   5.410   5.612   5.049  0.1177  0.0669 -0.0810
 6463W        W 7327   6.760   3.875   4.597 -0.0167 -0.0644  0.1485
 6464W        W 7328   4.896   2.304   5.174 -0.2072  0.2473  0.1027
 6465W        W 7329   3.961   0.405   3.840 -0.0129  0.2189 -0.2149
 6466W        W 7330   4.829   2.699   6.080  0.0616 -0.1406 -0.0654
 6467W        W 7331   7.347   1.095   7.499 -0.1485  0.1743  0.1105
 6468W        W 7332   2.836   1.397   8.573 -0.1493  0.0084  0.1187
 6469W        W 7333   5.414   0.267   7.156 -0.1490  0.0467  0.0687
 6470W        W 7334   9.554  12.310   5.017 -0.0226 -0.0082 -0.1141
 6471W        W 7335   6.839   0.216   5.454 -0.2385 -0.0439 -0.2247
 6472W        W 7336   6.558   1.147   5.962  0.0207 -0.1353 -0.0536
 6473W        W 7337   7.241  12.867   6.900  0.0569  0.1776  0.0713
 6474W        W 7338   4.469   0.685   8.432  0.1215  0.0377 -0.0902
 6475W        W 7339   8.461   0.973   2.619  0.0207 -0.1418 -0.2191
 6476W        W 7340   6.678  13.627   5.588  0.2962  0.2440 -0.0051
 6477W        W 7341   5.309   2.027   8.102 -0.1749  0.0082 -0.4893
 6478W        W 7342   5.975   2.811   8.163  0.1395  0.0950 -0.2038
 6479W        W 7343   8.141   3.008   4.686 -0.1476  0.1461  0.0799
 6480W        W 7344   6.147   2.166   5.820 -0.1892  0.1407 -0.0185
 6481W        W 7345   8.714   4.682   1.934  0.0914 -0.1381  0.2495
 6482W        W 7346   5.935   4.040   5.505 -0.0310 -0.0216 -0.1192
 6483W        W 7347   4.432   0.250   7.518  0.0229  0.3785 -0.0246
 6484W        W 7348   5.899   1.356   6.980  0.1637 -0.1133 -0.0691
 6485W        W 7349   6.351   2.901   4.628 -0.0037 -0.1068  0.0748
 6486W        W 7350   5.353   2.999   1.114 -0.1567  0.4200 -0.0665
 6487W        W 7351   3.716   4.153   5.568 -0.0653 -0.0245  0.0494
 6488W        W 7352   6.067   0.475   7.776 -0.2613 -0.0588 -0.0689
 6489W        W 7353   3.861   0.622   5.484 -0.3506  0.0086  0.1489
 6490W        W 7354   7.496   0.518   8.813 -0.2686  0.1977 -0.3571
 6491W        W 7355   5.381   4.419   7.872 -0.0372  0.2581 -0.0089
 6492W        W 7356   4.466   1.031   8.060  0.1535  0.1317  0.0262
 6493W        W 7357   5.770  13.857   7.140 -0.1219 -0.1539 -0.2104
 6494W        W 7358   4.911  12.196   5.683 -0.0441 -0.1635 -0.1473
 6495W        W 7359   7.420   2.842   7.425  0.0589 -0.0343  0.0919
 6496W        W 7360   5.553   5.339   4.247 -0.1556  0.4950 -0.2031
 6497W        W 7361   6.741  13.408   6.110 -0.0223  0.3413  0.0626
 6498W        W 7362   6.598  11.731   3.632  0.0801 -0.0126  0.0913
 6499W        W 7363   9.652  13.186   7.107 -0.3373 -0.0675  0.2358
 6500W        W 7364   6.361   2.175   6.955  0.1147 -0.1367  0.2273
 6501W        W 7365   5.877   2.978   4.021  0.0146  0.0174  0.0705
 6502W        W 7366   3.741   5.002   5.703  0.1257  0.1076 -0.1741
 6503W        W 7367   2.634   0.328   6.797  0.0778 -0.1957 -0.0881
 6504W        W 7368   8.340   0.526   9.623 -0.0913 -0.0403 -0.4601
 6505W        W 7369   5.754   1.843   5.059 -0.1107  0.1432  0.1438
 6506W        W 7370   4.970   1.373   4.677  0.3230  0.2492 -0.1542
 6507W        W 7371   5.258   2.404   4.319 -0.1347  0.2784  0.2430
 6508W        W 7372   6.113   2.015   4.822  0.0773 -0.3429  0.1354
 6509W        W 7373   4.681   1.496   8.337  0.3624 -0.0016  0.1401
 6510W        W 7374   7.793   4.761   4.903  0.1220  0.2070  0.1604
 6511W        W 7375   7.538  13.148   5.605 -0.0186  0.2804 -0.2611
 6512W        W 7376   1.034   4.674   4.411 -0.0185  0.0099 -0.3271
 6513W        W 7377   4.299   0.931   3.166 -0.2585 -0.1464 -0.1716
 6514W        W 7378   7.514   0.616   7.670 -0.0023 -0.0965  0.0583
 6515W        W 7379   5.667   4.582   5.328  0.1133 -0.4777 -0.0230
 6516W        W 7380   5.468   1.743   4.623  0.1241 -0.1835 -0.2221
 6517W        W 7381   5.799   3.692   4.989  0.0386  0.0502 -0.3009
 6518W        W 7382   4.993   2.790   5.285  0.2502  0.0556 -0.1598
 6519W        W 7383   4.452   4.782   7.923 -0.1518 -0.1916 -0.3829
 6520W        W 7384   3.833   4.667   3.366 -0.2941  0.0674 -0.0306
 6521W        W 7385   5.307  12.305   5.322 -0.3468 -0.1425 -0.1001
 6522W        W 7386   7.090   0.406   7.886  0.0018 -0.2792  0.1037
 6523W        W 7387   1.613   2.917   3.142 -0.0541 -0.2205  0.1940
 6524W        W 7388   5.529   1.056   3.882  0.0120  0.1252 -0.1947
 6525W        W 7389   5.273   2.756   3.970 -0.1094  0.1833 -0.1100
 6526W        W 7390   5.383   3.441   1.830 -0.1316  0.0423 -0.0540
 6527W        W 7391   5.982   2.437   6.817  0.0684 -0.2368 -0.0609
 6528W        W 7392   5.531   2.614   3.610 -0.5109 -0.1375 -0.0794
 6529W        W 7393   5.783   3.894   3.905 -0.0069  0.0669  0.0703
 6530W        W 7394   6.079  11.567   6.479 -0.2262 -0.0643  0.3242
 6531W        W 7395   8.232   4.175   4.837  0.0144  0.2152 -0.2061
 6532W        W 7396   5.698   1.370   5.320 -0.1003 -0.0311  0.0791
 6533W        W 7397   5.181   1.952   3.002 -0.1569 -0.3767  0.0258
 6534W        W 7398   6.304   1.967   7.601  0.0068  0.1342 -0.0174
 6535W        W 7399   6.832  12.413   5.716  0.1280 -0.1597 -0.1368
 6536W        W 7400   7.918   2.185   3.962  0.0744 -0.2237  0.0165
 6537W        W 7401   3.251   0.671   7.496 -0.0680 -0.0477  0.2708
 6538W        W 7402   2.716   1.503   9.378  0.1220 -0.0619 -0.0085
 6539W        W 7403   3.186   0.732   6.199 -0.0176  0.1718 -0.1626
 6540W        W 7404   6.244   2.055   6.346  0.2235  0.1121 -0.1605
 6541W        W 7405   4.799   5.540   8.470 -0.0173 -0.0232  0.1834
 6542W        W 7406   8.516  13.679   4.498 -0.2120  0.1222  0.2276
 6543W        W 7407   6.384   2.404   5.440  0.4130 -0.0563 -0.1646
 6544W        W 7408   4.828   2.381   8.131  0.1810  0.2378  0.1121
 6545W        W 7409   5.545   3.546   3.425  0.1151 -0.0741  0.1150
 6546W        W 7410   4.905   0.342   6.257 -0.2059  0.1505 -0.1147
 6547W        W 7411   5.760   1.887   8.295  0.0469  0.0311  0.1217
 6548W        W 7412   8.898  13.388   7.463 -0.2221  0.0112 -0.1160
 6549W        W 7413   3.116   1.718   5.851 -0.0784  0.0106  0.1024
 6550W        W 7414   5.445   4.061   3.585 -0.1727 -0.2509 -0.2763
 6551W        W 7415   2.740   0.572   9.532  0.2780  0.2296  0.1105
 6552W        W 7416   6.388   1.108   2.606 -0.0796  0.2550  0.1996
 6553W        W 7417   7.984  12.688   1.155  0.0126  0.0576  0.4083
 6554W        W 7418   5.261   2.969   6.434 -0.0272  0.3303  0.0080
 6555W        W 7419   6.312   3.951   2.120  0.2931 -0.2369 -0.0866
 6556W        W 7420   8.063  13.369   5.203 -0.0678 -0.1006  0.2498
 6557W        W 7421   8.338   4.005   2.364 -0.3121  0.0978 -0.2026
 6558W        W 7422   4.918   1.715   6.536  0.3362 -0.1349  0.0409
 6559W        W 7423   7.097  13.601   2.383  0.2541  0.2342  0.0467
 6560W        W 7424   4.066   5.002   3.135 -0.0140  0.1711  0.0567
 6561W        W 7425   7.565  13.102   6.485 -0.2338 -0.1361  0.0340
 6562W        W 7426   5.390   2.440   5.174 -0.2784 -0.3470  0.0721
 6563W        W 7427   4.840  13.824   7.069 -0.0528  0.0456 -0.1537
 6564W        W 7428   4.147   1.550   8.314 -0.1035  0.1341 -0.2096
 6565W        W 7429   4.659   0.980   4.356  0.1475 -0.1084  0.0372
 6566W        W 7430   6.465   1.168   3.939 -0.2311  0.0634  0.1829
 6567W        W 7431   4.658   2.486   5.625  0.1140 -0.0583 -0.0601
 6568W        W 7432   5.476   3.966   7.079 -0.1128 -0.1152  0.0899
 6569W        W 7433   6.193   1.630   6.015  0.0802  0.0004  0.2146
 6570W        W 7434   6.498   2.671   6.983  0.3059  0.2323  0.0459
 6571W        W 7435  10.264   2.678   4.042  0.0173 -0.2646  0.0906
 6572W        W 7436   6.774   2.094   7.382 -0.2574 -0.0997  0.0674
 6573W        W 7437   6.293  12.980   6.130  0.2654  0.0333 -0.4357
 6574W        W 7438   5.674   0.127   5.543  0.0428  0.2582 -0.0315
 6575W        W 7439   5.646   1.984   3.727 -0.0836  0.0925  0.3343
 6576W        W 7440   7.258  13.062   3.737  0.1907 -0.3154  0.1019
 6577W        W 7441   8.040   1.740   3.864 -0.1661  0.1528 -0.0007
 6578W        W 7442   7.255   4.567   5.771 -0.0706  0.0930  0.2860
 6579W        W 7443   4.578   3.441   5.883 -0.1771  0.1705 -0.0130
 6580W        W 7444   9.644   1.775   6.312  0.1467  0.1448  0.1277
 6581W        W 7445   7.060   0.027   7.307 -0.0330 -0.1556 -0.2621
 6582W        W 7446   9.138   2.168   4.958  0.1013 -0.3205  0.0054
 6583W        W 7447   4.080   1.557   4.736  0.0748  0.0627 -0.2575
 6584W        W 7448   6.705  13.956   7.666 -0.1657  0.0440  0.0431
 6585W        W 7449   6.144   6.021   5.619  0.0130 -0.0512  0.3226
 6586W        W 7450   6.559   2.095   3.838 -0.3735 -0.6355 -0.1778
 6587W        W 7451   6.387   6.267   8.206 -0.1988 -0.0888 -0.3748
 6588W        W 7452   6.165   3.127   5.612 -0.2609 -0.0093  0.1716
 6589W        W 7453   2.958   3.466   7.106  0.3972 -0.1667  0.0792
 6590W        W 7454   7.705  12.478   6.444  0.1519 -0.0669 -0.0297
 6591W        W 7455   7.698   2.875   4.912 -0.1784  0.2820  0.4244
 6592W        W 7456   3.230   1.244   6.046 -0.0509 -0.2771 -0.4534
 6593W        W 7457   8.926   1.189   6.117 -0.2395 -0.2093 -0.2394
 6594W        W 7458   5.591   1.027   5.689  0.2979 -0.2322  0.0613
 6595W        W 7459   7.691   0.892   5.140 -0.0722  0.0947  0.0256
 6596W        W 7460   5.949   4.321   3.808  0.0882  0.0196  0.0803
 6597W        W 7461   4.386  12.553   3.919  0.0321 -0.0669  0.3103
 6598W        W 7462   6.413  12.777   5.683 -0.3974  0.0881 -0.2988
 6599W        W 7463   3.404   2.721   2.699  0.0377 -0.0511  0.4739
 6600W        W 7464   5.999   1.130   6.030 -0.1431 -0.3725 -0.0273
 6601W        W 7465   6.473   1.634   5.611 -0.0539  0.3897 -0.1521
 6602W        W 7466   5.211   0.548   5.040  0.1178  0.2256  0.1009
 6603W        W 7467   4.855   3.409   3.728 -0.0954  0.2034 -0.0233
 6604W        W 7468   4.634   2.568   1.938  0.0988 -0.1461 -0.2961
 6605W        W 7469   5.277   2.848   4.824 -0.2600 -0.0045  0.0247
 6606W        W 7470   3.994   0.049   8.845  0.1056 -0.2089 -0.0319
 6607W        W 7471   7.033   4.685   3.893 -0.1307  0.1886 -0.0768
 6608W        W 7472   5.847  13.999   3.945  0.5874 -0.2826 -0.2339
 6609W        W 7473   5.328   4.237   6.190  0.1703 -0.0995 -0.0197
 6610W        W 7474   4.554   2.136   4.924  0.4694  0.0631 -0.2101
 6611W        W 7475   4.558   1.745   6.154  0.0843 -0.0549 -0.0055
 6612W        W 7476   7.259   3.006   6.525  0.0988 -0.0778 -0.3924
 6613W        W 7477   6.318  13.849   4.685  0.0823 -0.1139  0.0416
 6614W        W 7478   4.304   3.400   4.665  0.0808 -0.0429 -0.1055
 6615W        W 7479   4.789   3.914   3.815 -0.4470 -0.0985  0.1143
 6616W        W 7480   4.935  13.798   4.364 -0.1010 -0.0764  0.0682
 6617W        W 7481   5.173  12.879   6.306  0.1562  0.1955 -0.0484
 6618W        W 7482   4.310   1.176   7.561 -0.3681 -0.0061 -0.0650
 6619W        W 7483   7.348   1.803   5.271 -0.2688 -0.2565  0.2506
 6620W        W 7484   7.381   0.419   5.659 -0.1725 -0.4095 -0.0989
 6621W        W 7485   5.128   0.685   6.006  0.3118  0.0686  0.0874
 6622W        W 7486   4.131   0.215   6.841 -0.0894  0.1154 -0.1499
 6623W        W 7487   5.175   2.906   5.807  0.0278  0.1801 -0.0031
 6624W        W 7488   5.630   2.243   4.707 -0.1599 -0.1589 -0.2095
 6625W        W 7489   4.072   4.353   6.375  0.0591 -0.0167  0.0544
 6626W        W 7490   4.644   4.183   5.157 -0.0097 -0.1601  0.0407
 6627W        W 7491   7.171   0.652   6.565  0.0307 -0.0798 -0.1112
 6628W        W 7492   5.562   3.037   7.431  0.3583  0.2601  0.1273
 6629W        W 7493   5.847   5.418   4.678 -0.2766  0.1173  0.0522
 6630W        W 7494   4.334   4.299   3.824 -0.1886  0.2041 -0.0837
 6631W        W 7495   5.222   3.491   4.745  0.0847 -0.0817 -0.1655
 6632W        W 7496   7.163  13.601   6.418 -0.1041 -0.0388 -0.0422
 6633W        W 7497   5.721   2.870   6.076 -0.0089  0.1778  0.2601
 6634W        W 7498   5.308  13.738   6.927  0.2465 -0.2475 -0.1791
 6635W        W 7499   8.993  13.889   7.151  0.2464 -0.1992  0.2666
 6636W        W 7500   3.635   3.828   3.728  0.1822 -0.0203 -0.4293
 6637W        W 7501   6.894   2.542   5.219  0.2673  0.0460 -0.0328
 6638W        W 7502   5.598   2.539   1.793 -0.0637 -0.2485  0.0011
 6639W        W 7503   4.336   1.558   4.346 -0.0831  0.0951 -0.1056
 6640W        W 7504   7.495  13.288   3.281 -0.1041  0.0815 -0.0085
 6641W        W 7505   7.225   3.988   6.945 -0.1240 -0.1112 -0.0232
 6642W        W 7506   4.379  12.428   5.812  0.1401  0.0533 -0.2741
 6643W        W 7507   2.969   4.435   3.777 -0.0749  0.1947 -0.0125
 6644W        W 7508   2.567   1.696   7.581  0.0302  0.2334  0.2171
 6645W        W 7509   6.093   2.423   4.469 -0.2374 -0.0760 -0.0019
 6646W        W 7510   4.624   3.252   4.188  0.1245 -0.0578 -0.3179
 6647W        W 7511   4.378   1.629   3.792 -0.3680 -0.0858 -0.1111
 6648W        W 7512   1.980  13.466   6.525 -0.2057 -0.2365  0.1111
 6649W        W 7513   5.877  13.168   6.328  0.0950  0.2957  0.0904
 6650W        W 7514   5.009   0.735   7.107 -0.0926 -0.1832  0.2718
 6651W        W 7515   5.564  13.180   4.545  0.2945  0.3297  0.2241
 6652W        W 7516   6.399   0.315   4.592 -0.1101  0.2751 -0.1329
 6653W        W 7517   4.560   0.153   4.966  0.1822  0.1902 -0.1302
 6654W        W 7518   3.509   2.448   4.159 -0.0860 -0.0064 -0.1971
 6655W        W 7519   9.298   1.557   6.631  0.1066 -0.2062  0.0777
 6656W        W 7520   3.318   0.163   3.330 -0.2171  0.1929  0.0218
 6657W        W 7521   5.416   0.531   5.508  0.2392 -0.0481 -0.2053
 6658W        W 7522   6.722   3.121   3.053 -0.0267 -0.1908 -0.0905
 6659W        W 7523   4.158  12.853   5.413  0.1416 -0.0600 -0.0394
 6660W        W 7524   5.724   0.088   6.709 -0.2285 -0.1962  0.1969
 6661W        W 7525   3.086  12.220   4.085  0.1536  0.0998  0.1045
 6662W        W 7526   4.073   2.183   6.584  0.0635  0.1417  0.0605
 6663W        W 7527   5.280   2.053   6.076 -0.0351 -0.2019  0.3427
 6664W        W 7528   7.408   1.714   6.083  0.0351  0.3382  0.3580
 6665W        W 7529   3.654  13.608   5.970 -0.2113  0.1099  0.0290
 6666W        W 7530   5.207   1.484   8.332 -0.0210  0.5136  0.3602
 6667W        W 7531   3.171   2.149   7.495 -0.3642  0.1886 -0.0135
 6668W        W 7532   5.114   0.493   4.386 -0.2254 -0.1328  0.1095
 6669W        W 7533   5.669   2.058   7.703  0.1716  0.0144  0.2222
 6670W        W 7534   7.550   2.508   6.445 -0.0030  0.1102 -0.2176
 6671W        W 7535   7.866   1.435   5.938  0.3720 -0.1206 -0.1030
 6672W        W 7536   6.602   4.439   4.957  0.4399  0.0420  0.0738
 6673W        W 7537  10.928   8.102   4.750 -0.1991  0.0150 -0.0887
 6674W        W 7538   5.506  13.487   8.171 -0.2172 -0.2798  0.0972
 6675W        W 7539   3.247  13.978   9.427 -0.1075  0.1178  0.0929
 6676W        W 7540   8.514  12.654   7.485  0.0926 -0.1558 -0.0177
 6677W        W 7541   7.321   1.065   3.641 -0.1094 -0.0118  0.0781
 6678W        W 7542   6.194   1.187   8.273 -0.0628  0.3564 -0.0820
 6679W        W 7543   6.013   0.433   4.861  0.0755  0.0186 -0.1212
 6680W        W 7544   4.481   3.220   1.146 -0.0631  0.1647 -0.0041
 6681W        W 7545   2.355  13.030   7.360  0.0983 -0.0318  0.0724
 6682W        W 7546   3.662   3.614   3.231 -0.2696  0.0330 -0.0289
 6683W        W 7547   7.956  13.487   3.365  0.3243  0.2115 -0.0788
 6684W        W 7548   8.547   6.956   5.838 -0.3423 -0.0722 -0.3873
 6685W        W 7549   8.091   2.560   5.030 -0.4890  0.1473 -0.2234
 6686W        W 7550   7.135  10.872   6.254 -0.0121 -0.0492  0.1698
 6687W        W 7551   5.039   2.350   6.481 -0.1571  0.1624 -0.0396
 6688W        W 7552   6.809   3.151   4.532 -0.0475  0.2476 -0.0761
 6689W        W 7553   7.059  11.644   5.366  0.0427  0.0697  0.0195
 6690W        W 7554   7.129   3.968   6.453  0.1082  0.3066  0.2094
 6691W        W 7555   7.003  13.514   4.705 -0.0818  0.1507  0.3081
 6692W        W 7556   6.964   0.640   7.431 -0.2125  0.2872  0.0517
 6693W        W 7557   7.359   3.514   3.779 -0.0764 -0.0256  0.1383
 6694W        W 7558   7.864   4.426   6.422 -0.1188 -0.2158  0.1288
 6695W        W 7559   7.761   2.250   3.185  0.1013 -0.0814 -0.2638
 6696W        W 7560   3.800   0.408   7.303  0.0819  0.0378  0.0586
 6697W        W 7561   4.441   1.553   6.877  0.0083  0.0105 -0.1566
 6698W        W 7562   5.165   0.707   3.867 -0.1041  0.0568  0.1527
 6699W        W 7563   5.252   0.993   2.971  0.1748  0.3002 -0.1679
 6700W        W 7564   7.992   1.077   2.277 -0.1941 -0.0823  0.2975
 6701W        W 7565   7.907   3.069   5.925  0.0448 -0.0141  0.1109
 6702W        W 7566   3.530   1.970   5.547  0.1667  0.0778 -0.0661
 6703W        W 7567   7.458   4.942   6.799  0.0537  0.0692  0.0664
 6704W        W 7568   4.728   1.170   3.887  0.2417 -0.3305 -0.1086
 6705W        W 7569   4.931  13.401   5.605  0.1486 -0.2263 -0.2674
 6706W        W 7570   5.899   3.537   5.466 -0.0018 -0.1256 -0.2527
 6707W        W 7571   5.983   1.121   7.419 -0.1167  0.2692 -0.0978
 6708W        W 7572   6.221   3.694   5.838 -0.1369  0.1385  0.2796
 6709W        W 7573   4.543   3.275   3.065 -0.0709 -0.1195  0.1264
 6710W        W 7574   8.691   4.269   5.525 -0.3393 -0.4210  0.2293
 6711W        W 7575   7.332  12.165   3.662 -0.1732 -0.0337  0.0762
 6712W        W 7576   4.633   1.473   7.358 -0.1657 -0.0540  0.2845
 6713W        W 7577   8.526   2.900   6.744 -0.2234  0.1196 -0.0728
 6714W        W 7578   7.755  13.401   1.093 -0.1831 -0.0905  0.1637
 6715W        W 7579   4.651  13.839   5.548 -0.0400  0.2470 -0.0200
 6716W        W 7580   6.602   0.718   9.282 -0.1106  0.0367 -0.1336
 6717W        W 7581   7.517   1.146   6.230  0.1268  0.0103 -0.0938
 6718W        W 7582   3.540  13.901   8.954  0.1160 -0.1134  0.1451
 6719W        W 7583   7.402   2.826   4.551  0.0749  0.0801 -0.0092
 6720W        W 7584   5.908   3.339   5.987 -0.3201  0.3482  0.1259
 6721W        W 7585   2.911   3.824   4.903  0.0183 -0.1738  0.1709
 6722W        W 7586  10.290   2.895   2.615 -0.1468 -0.0054  0.1526
 6723W        W 7587   4.508   0.248   8.681 -0.2519 -0.0440 -0.1056
 6724W        W 7588   8.484   3.953   3.005  0.1087 -0.1677 -0.2906
 6725W        W 7589   4.064   3.714   3.513  0.0021 -0.1865 -0.1121
 6726W        W 7590   6.564   2.531   6.026  0.2534  0.2102 -0.0154
 6727W        W 7591   4.080   1.369   7.157  0.4107 -0.1587  0.0637
 6728W        W 7592   6.222   0.776   5.588  0.0445  0.2136  0.1409
 6729W        W 7593   7.386   3.140   3.387 -0.0776  0.1078  0.2920
 6730W        W 7594   7.994  13.036   5.595  0.0344 -0.0305 -0.0647
 6731W        W 7595   3.800  13.715   6.425 -0.1926 -0.1471  0.2331
 6732W        W 7596   1.455   2.562   8.166 -0.1554  0.0659 -0.0671
 6733W        W 7597   4.566  13.668   3.569  0.1586 -0.1635  0.1995
 6734W        W 7598   4.997   1.482   2.787 -0.0454 -0.3470 -0.1317
 6735W        W 7599   4.479   1.718   8.746  0.1528 -0.1222 -0.0312
 6736W        W 7600   3.743   3.354   3.882 -0.2778  0.2580  0.0140
 6737W        W 7601   5.199   1.912   3.488  0.3003  0.1981 -0.1290
 6738W        W 7602   4.448   2.715   8.191 -0.0524 -0.0806 -0.1934
 6739W        W 7603   7.234  13.926   4.360  0.1755 -0.3558 -0.1466
 6740W        W 7604   6.390   1.656   9.037 -0.1630  0.0494  0.0685
 6741W        W 7605   5.170   6.218   2.750  0.1423  0.1586  0.2022
 6742W        W 7606   4.002   0.796   8.227  0.1473  0.0051 -0.0739
 6743W        W 7607   7.594   0.377   4.344  0.0330  0.0948 -0.2374
 6744W        W 7608   7.724   3.165   4.196  0.1280  0.0697  0.2122
 6745W        W 7609   5.596   0.590   6.846  0.0267 -0.1042 -0.1632
 6746W        W 7610   4.872  12.562   3.580 -0.0130 -0.0769 -0.0647
 6747W        W 7611   6.136   0.346   5.357  0.2522  0.1723  0.1623
 6748W        W 7612   2.419   0.235   3.464  0.2829  0.2220  0.1036
 6749W        W 7613   4.064   2.053   4.557 -0.2741  0.0774  0.1093
 6750W        W 7614   7.920   1.405   4.149 -0.2235 -0.0495 -0.3665
 6751W        W 7615   5.503   2.255   6.538 -0.0629 -0.0627  0.1796
 6752W        W 7616   7.015   3.136   5.459 -0.3157 -0.1800  0.0528
 6753W        W 7617   9.387   1.270   4.785 -0.0301  0.1712  0.0954
 6754W        W 7618   3.488   2.905   5.450  0.1004  0.3445  0.1066
 6755W        W 7619   4.272   3.909   6.108 -0.1549 -0.1752  0.2521
 6756W        W 7620   8.469  12.138   7.615 -0.0516  0.1540  0.0002
 6757W        W 7621   6.258   0.920   4.886 -0.0848  0.1739  0.0288
 6758W        W 7622   9.352   1.994   2.027  0.1248  0.2620 -0.2520
 6759W        W 7623   5.181   2.997   3.471 -0.1322  0.0516  0.0689
 6760W        W 7624   5.819   3.478   4.133  0.0619  0.1900 -0.2082
 6761W        W 7625   7.997  13.521   5.812 -0.1931 -0.2201  0.0740
 6762W        W 7626   4.699   2.243   3.128 -0.0190  0.1548 -0.2117
 6763W        W 7627   9.132  13.508   3.734 -0.2251  0.2121 -0.1092
 6764W        W 7628   7.225   2.485   7.736 -0.0366  0.0316  0.1215
 6765W        W 7629   5.983   1.031   4.019  0.1929  0.1457 -0.0263
 6766W        W 7630   3.758   0.978   6.180 -0.0856 -0.1433  0.1356
 6767W        W 7631   6.137   2.621   3.494  0.1412  0.0186  0.1151
 6768W        W 7632   6.817   2.347   6.789  0.0209 -0.0767  0.1529
 6769W        W 7633   4.002   3.324   5.176  0.0314 -0.0213  0.0228
 6770W        W 7634   5.446   4.104   4.708  0.3240 -0.1040  0.2212
 6771W        W 7635   2.968  13.940   6.889  0.1844 -0.0683 -0.2561
 6772W        W 7636   6.344   3.763   3.185 -0.0638 -0.1825 -0.1402
 6773W        W 7637   5.699   2.382   8.182  0.0060  0.1554  0.0193
 6774W        W 7638   4.291   4.020   2.896  0.2866  0.2658  0.0720
 6775W        W 7639   4.728   1.964   2.708 -0.3615 -0.3610 -0.0383
 6776W        W 7640   5.219   4.821   3.372 -0.0141  0.1766  0.1098
 6777W        W 7641   3.579   1.268   6.992  0.1733 -0.0272 -0.4620
 6778W        W 7642   5.111   4.041   7.710 -0.1731  0.1696  0.0536
 6779W        W 7643   1.922   3.190   6.006  0.1149  0.2209 -0.1601
 6780W        W 7644   5.127   2.744   6.798 -0.4709 -0.0571 -0.0687
 6781W        W 7645   5.967   1.123   3.564 -0.2170  0.1435  0.2422
 6782W        W 7646   5.545   3.704   4.402 -0.1292 -0.1227 -0.1366
 6783W        W 7647   7.132   1.920   5.710 -0.1237 -0.1984 -0.1864
 6784W        W 7648   4.659   0.627   3.956  0.1623 -0.0053  0.0173
 6785W        W 7649   5.239   1.521   4.211  0.0056  0.1118  0.4196
 6786W        W 7650   5.443   1.453   3.049  0.0670 -0.0754  0.1539
 6787W        W 7651   8.316   0.736  11.348  0.0640  0.1029 -0.0542
 6788W        W 7652   5.097   4.104   6.680  0.4006  0.0385  0.0591
 6789W        W 7653   7.298   1.212   5.254 -0.0232  0.1660 -0.1469
 6790W        W 7654   7.835   1.248   9.264 -0.1091 -0.0250 -0.1232
 6791W        W 7655   3.278   4.177   2.716  0.0395  0.1426 -0.0420
 6792W        W 7656   7.591   2.900   2.409 -0.1602 -0.1481  0.2332
 6793W        W 7657   5.813   1.829   6.840 -0.0701 -0.0546  0.0423
 6794W        W 7658   5.210   0.317   6.727 -0.0500  0.1169 -0.2771
 6795W        W 7659   4.773   3.637   4.664  0.2435  0.1884 -0.1016
 6796W        W 7660   5.248  12.543   5.743 -0.0299  0.0150 -0.2642
 6797W        W 7661   5.164   2.396   5.651 -0.1460 -0.2027 -0.4153
 6798W        W 7662   4.547   2.499   3.525 -0.1448 -0.1718 -0.2508
 6799W        W 7663   7.193   2.773   3.985 -0.3312  0.0598  0.2238
 6800W        W 7664   2.826   6.900   3.541  0.0792 -0.3901  0.0529
 6801W        W 7665   2.674   3.676   3.066  0.2325 -0.1820  0.0076
 6802W        W 7666   4.276  13.820   5.166 -0.3004 -0.1316  0.1184
 6803W        W 7667   6.017   3.803   6.336  0.1109 -0.1434 -0.0378
 6804W        W 7668   3.429  12.978   4.795  0.2286 -0.2085 -0.2238
 6805W        W 7669   6.350   0.809   4.281  0.2821  0.1432 -0.2792
 6806W        W 7670   7.156   0.968   5.860 -0.1310  0.0808 -0.1899
 6807W        W 7671   6.530   4.910   5.301 -0.0320  0.4146  0.0782
 6808W        W 7672   6.693   1.894   6.681  0.2532  0.0110 -0.0695
 6809W        W 7673   4.954   2.458   4.701 -0.0542  0.0749  0.0959
 6810W        W 7674   5.577   2.045   1.595 -0.0133 -0.1828 -0.1323
 6811W        W 7675   7.986   1.069   2.815 -0.2345  0.1898 -0.1691
 6812W        W 7676   8.212  13.207   7.128 -0.1930  0.1619  0.1323
 6813W        W 7677   4.803  12.088   7.402  0.0132 -0.0471 -0.2972
 6814W        W 7678   4.651   4.190   2.650  0.0229  0.0461  0.0682
 6815W        W 7679   5.045   3.070   2.856 -0.2049 -0.4578  0.1769
 6816W        W 7680   7.374  12.312   6.123  0.1844  0.1716 -0.1616
 6817W        W 7681   2.952   0.208   5.997  0.2174  0.0677 -0.0158
 6818W        W 7682   6.872  13.552   7.196 -0.2152  0.0681 -0.0969
 6819W        W 7683   6.047   5.332   3.908 -0.2793  0.2947 -0.1525
 6820W        W 7684   7.604   5.904   4.914  0.0736 -0.1814 -0.1165
 6821W        W 7685   6.024   3.681   4.539  0.1938 -0.0056  0.1049
 6822W        W 7686   4.501  13.375   4.483 -0.1158 -0.2573 -0.1456
 6823W        W 7687   4.835   0.812   3.528  0.2542  0.1607  0.1919
 6824W        W 7688   6.884  12.032   4.437 -0.0010  0.1025  0.0400
 6825W        W 7689   6.507   2.089   4.407  0.2473  0.1050 -0.1156
 6826W        W 7690   6.631   1.447   2.930  0.1315 -0.0800 -0.0431
 6827W        W 7691   7.127  13.947   1.945  0.1963 -0.3878 -0.2033
 6828W        W 7692   5.985   2.197   7.321  0.0119 -0.1829 -0.0252
 6829W        W 7693   7.721   3.839   3.550 -0.1793 -0.1463 -0.3671
 6830W        W 7694   5.323  12.254   7.604 -0.0526 -0.0041  0.3237
 6831W        W 7695   6.284   1.303   4.436  0.1443 -0.2946 -0.2182
 6832W        W 7696   6.203   0.119   7.541 -0.1589 -0.0840  0.0375
 6833W        W 7697   4.256   0.702   7.761  0.0214  0.0920  0.1210
 6834W        W 7698   1.961   2.828   9.443  0.0683 -0.0463  0.1553
 6835W        W 7699   2.510   1.621   8.945 -0.0644 -0.2535  0.2422
 6836W        W 7700   3.171   3.374   6.657 -0.0356 -0.3877  0.1313
 6837W        W 7701   5.090   0.671   2.620  0.2168  0.1645  0.1735
 6838W        W 7702   7.585   0.531   4.820 -0.1019  0.0351 -0.1217
 6839W        W 7703   6.780   3.900   7.718  0.3228 -0.0065 -0.1202
 6840W        W 7704   3.607   0.222   6.802 -0.3962  0.2815 -0.1963
 6841W        W 7705   7.693   4.130   3.088  0.0927 -0.1256 -0.1478
 6842W        W 7706   5.812   4.728   7.623  0.0429  0.0463  0.4162
 6843W        W 7707   5.319   4.081   5.701 -0.2494  0.1058  0.0587
 6844W        W 7708   8.556   3.395   4.094 -0.2441 -0.0150  0.1088
 6845W        W 7709   3.743   5.898   5.861 -0.0738 -0.1607 -0.1150
 6846W        W 7710   3.714   3.734   5.963 -0.1258  0.0024 -0.2199
 6847W        W 7711   7.693   1.865   5.629 -0.0741 -0.2394 -0.3519
 6848W        W 7712   5.658   2.728   6.576  0.1408 -0.1760  0.2912
 6849W        W 7713   3.359   3.455   4.857 -0.2890  0.4246  0.0538
 6850W        W 7714   6.339  13.616   7.773 -0.0698  0.1034  0.3547
 6851W        W 7715   5.134   5.609   2.801  0.0101 -0.1422 -0.0247
 6852W        W 7716   8.589   0.287   6.207  0.0095  0.0761 -0.0172
 6853W        W 7717   5.492   3.166   3.096  0.0938 -0.0626  0.0141
 6854W        W 7718   6.099   3.035   2.673 -0.2470  0.0282 -0.1075
 6855W        W 7719   4.759   4.384  12.491 -0.0218  0.1969  0.3171
 6856W        W 7720   2.982   3.039  10.053 -0.1741 -0.1955 -0.1581
 6857W        W 7721   4.823   0.294   9.356  0.1771 -0.0369 -0.1635
 6858W        W 7722   6.409   0.395   8.731 -0.1839  0.1782 -0.2115
 6859W        W 7723   0.919   2.967   8.223 -0.0617  0.0080  0.2429
 6860W        W 7724   5.152   0.336  12.965  0.2540  0.1058 -0.1935
 6861W        W 7725   4.180   0.001   9.390  0.2004 -0.2814 -0.0858
 6862W        W 7726   4.754   0.620   7.931  0.2373 -0.3650  0.3306
 6863W        W 7727   5.719   1.894  12.818 -0.0242  0.0477  0.3480
 6864W        W 7728   2.703   0.819   7.932  0.0216 -0.0805  0.2292
 6865W        W 7729   3.653  13.897   8.473 -0.2532 -0.1187  0.1681
 6866W        W 7730   5.773  13.143   8.456 -0.0145  0.0620 -0.0323
 6867W        W 7731   5.801   0.325   8.193 -0.3698  0.2058 -0.1748
 6868W        W 7732   3.988   1.873  12.207  0.1441  0.1668 -0.0030
 6869W        W 7733   2.893   1.958  11.896 -0.1412 -0.1934 -0.0497
 6870W        W 7734   4.015   1.593   8.824  0.1085  0.0390 -0.1802
 6871W        W 7735   3.101  13.531   7.194 -0.2139  0.2006 -0.1449
 6872W        W 7736   2.505   2.001  11.498 -0.1299  0.0230  0.0265
 6873W        W 7737   6.673   0.470  12.768  0.2298 -0.0588  0.0066
 6874W        W 7738   5.336  13.852  11.048 -0.0345  0.1337  0.0219
 6875W        W 7739   6.516   1.461  11.782 -0.1673  0.1811  0.0433
 6876W        W 7740   4.128   0.521   8.763  0.0321  0.0113 -0.0183
 6877W        W 7741   4.471   1.966   8.188 -0.4455  0.1288 -0.1236
 6878W        W 7742   1.828   3.292   7.591  0.2762  0.4123 -0.0029
 6879W        W 7743   4.405   2.020   7.079  0.0879  0.4685  0.0434
 6880W        W 7744   4.863   2.962   8.197 -0.0259 -0.0421 -0.2067
 6881W        W 7745   6.134   1.940  13.560  0.0364 -0.0244 -0.1057
 6882W        W 7746   5.069   3.862   8.218  0.1528  0.0925 -0.1469
 6883W        W 7747   5.242   1.300   6.548  0.0310  0.4956  0.0609
 6884W        W 7748   4.037  12.781   9.561  0.0917 -0.0385 -0.1342
 6885W        W 7749   2.490   2.800   8.269 -0.3645  0.2140  0.0495
 6886W        W 7750   4.587   1.728  11.775 -0.1226  0.0697 -0.0452
 6887W        W 7751   3.724   1.319   9.577  0.1147  0.1236  0.0229
 6888W        W 7752   3.450   4.949   6.106 -0.1840  0.2137  0.0724
 6889W        W 7753   2.653   0.196  11.726  0.2050 -0.1397  0.1009
 6890W        W 7754   6.922   1.008  11.199 -0.2993 -0.0835  0.0325
 6891W        W 7755   3.585  12.682   9.237 -0.0842  0.1221  0.0052
 6892W        W 7756   0.807   2.086   8.836 -0.2408 -0.1217 -0.0906
 6893W        W 7757   5.646   0.686   7.355  0.0776  0.3139  0.1791
 6894W        W 7758   7.016  12.090   9.974  0.0767 -0.0357  0.2208
 6895W        W 7759   8.113  12.844   5.139 -0.1027 -0.2597  0.1581
 6896W        W 7760   7.941   3.004   9.091  0.0624 -0.0735 -0.0031
 6897W        W 7761   3.572   3.214   8.211 -0.0791  0.0061  0.3570
 6898W        W 7762   8.037   3.573   7.952  0.2380  0.2211  0.2064
 6899W        W 7763   4.700   1.291   6.343 -0.1866  0.4688  0.2900
 6900W        W 7764   3.805  12.716   8.777 -0.0709 -0.0416  0.5019
 6901W        W 7765   7.300   0.431  10.191  0.1739  0.0155  0.1292
 6902W        W 7766   5.182  13.104   8.717  0.1971 -0.1583 -0.0654
 6903W        W 7767   6.962   2.562   7.288  0.3076  0.0744 -0.2784
 6904W        W 7768   3.004   1.080  10.508  0.2839 -0.2567  0.1186
 6905W        W 7769   4.193   1.703   7.487  0.1481 -0.3554  0.2164
 6906W        W 7770   2.360   5.657  10.577 -0.0408  0.2770 -0.1177
 6907W        W 7771   8.189  13.950   7.824 -0.5391 -0.0762 -0.1815
 6908W        W 7772   7.212  11.373   6.333  0.3493  0.2607  0.0502
 6909W        W 7773   5.124   3.417   4.255  0.2728 -0.4303 -0.2427
 6910W        W 7774   4.321   1.146   8.579 -0.2731 -0.1431  0.1268
 6911W        W 7775   7.587  13.932   7.063  0.1992 -0.2176  0.0747
 6912W        W 7776   3.422   3.242   7.099 -0.0386 -0.0758  0.2848
 6913W        W 7777   5.256   0.948   8.822  0.4560 -0.2046 -0.0542
 6914W        W 7778   9.147   1.752   7.467 -0.0348 -0.0380 -0.1858
 6915W        W 7779   2.974   2.730   9.566  0.2131  0.2166 -0.0655
 6916W        W 7780   4.909   2.301   9.355  0.0486 -0.1459  0.1835
 6917W        W 7781   2.857   3.685   9.712  0.0542 -0.1071 -0.1904
 6918W        W 7782   5.655  13.472  11.115  0.2224  0.0458  0.0699
 6919W        W 7783   8.624  13.018   9.183 -0.2313  0.1124  0.0721
 6920W        W 7784   4.976  13.329   8.274 -0.0169  0.0581  0.0519
 6921W        W 7785   4.590  11.892   8.252  0.1777 -0.0997 -0.0441
 6922W        W 7786   2.857   3.439   6.271  0.0004  0.3349  0.0951
 6923W        W 7787   3.701   2.372   6.171 -0.2226 -0.1996  0.2006
 6924W        W 7788   5.756   1.626  11.083  0.1687  0.0947  0.1384
 6925W        W 7789   2.148   0.553   8.542 -0.0588  0.2181  0.0340
 6926W        W 7790   5.313   1.491   9.233 -0.0848  0.1660  0.3049
 6927W        W 7791   8.851  13.170  13.347  0.2005 -0.1548  0.2192
 6928W        W 7792   5.149   0.287   8.957 -0.1901  0.1604 -0.1844
 6929W        W 7793   5.619   0.798  11.644 -0.1363  0.0697 -0.1728
 6930W        W 7794   3.482   0.830   9.007  0.0175  0.0488  0.1666
 6931W        W 7795   6.546   1.486  10.113 -0.0070 -0.1114  0.1133
 6932W        W 7796   5.242   2.374   8.462 -0.3477  0.1071 -0.1210
 6933W        W 7797   2.525   1.843  10.284 -0.0933  0.1342  0.1385
 6934W        W 7798   5.270   1.547  11.223 -0.0865  0.3488 -0.2117
 6935W        W 7799   3.269  13.472   8.651  0.2853  0.0664 -0.0867
 6936W        W 7800   6.902  13.330  12.053  0.4029  0.3552 -0.2400
 6937W        W 7801   5.847  13.297  13.035  0.0735  0.2400 -0.0053
 6938W        W 7802   5.801   0.865   8.320  0.0907  0.0807 -0.1008
 6939W        W 7803   7.025   2.734  11.643  0.0033 -0.0901  0.2437
 6940W        W 7804   6.926  12.554  13.991  0.0346 -0.1734  0.1137
 6941W        W 7805   7.111   2.210   8.264 -0.1700 -0.0111 -0.0068
 6942W        W 7806   6.002  13.281   7.967 -0.1197  0.0627 -0.3942
 6943W        W 7807   4.481   1.048   7.054 -0.0682 -0.1716 -0.0936
 6944W        W 7808   6.241   0.638   8.312  0.1329  0.1216 -0.1203
 6945W        W 7809   3.867   2.702   6.509 -0.1657 -0.1596 -0.1151
 6946W        W 7810   5.607   1.174   7.716 -0.1434 -0.0469  0.0400
 6947W        W 7811   5.006  13.810   9.520 -0.2619  0.0311 -0.1113
 6948W        W 7812   7.962  13.005   7.968 -0.3711 -0.1796  0.1804
 6949W        W 7813   6.346  13.780   7.239  0.3119  0.0886 -0.0556
 6950W        W 7814   2.613   1.867   8.478 -0.0784  0.0360  0.2080
 6951W        W 7815   5.255  10.905   8.138  0.2986  0.0388 -0.2266
 6952W        W 7816   6.730   0.032  10.396  0.3213 -0.0632  0.1519
 6953W        W 7817   6.552  12.700   7.573 -0.1930  0.0527  0.0366
 6954W        W 7818   3.477   0.232   7.686  0.0046 -0.4669  0.3416
 6955W        W 7819   5.980   3.800   7.260  0.0503  0.1939  0.4403
 6956W        W 7820   6.216   3.814   8.581  0.1959 -0.0202 -0.2008
 6957W        W 7821   5.456  11.503  10.763  0.0469  0.0064  0.0694
 6958W        W 7822   4.555   0.867   9.432 -0.1671 -0.1357  0.1541
 6959W        W 7823   6.171  12.479   6.350 -0.4087  0.2184  0.1511
 6960W        W 7824   2.385   3.846   7.072 -0.1369  0.0446  0.1682
 6961W        W 7825   7.405  11.371   7.456 -0.3093 -0.1338 -0.1661
 6962W        W 7826   5.362  13.013   8.189 -0.2261  0.0789 -0.1258
 6963W        W 7827   3.335   2.547  11.607  0.0747  0.1256 -0.0367
 6964W        W 7828   3.418   1.713   8.827 -0.2153 -0.0644  0.2361
 6965W        W 7829   4.701  12.979   8.570 -0.0283 -0.0241  0.0699
 6966W        W 7830   3.560   2.059  12.458  0.2323  0.1042  0.0062
 6967W        W 7831   7.942   3.735   9.799  0.3277  0.0141 -0.1536
 6968W        W 7832   6.447   1.976   9.927  0.0468  0.2426  0.2048
 6969W        W 7833   7.033  11.937  12.939 -0.2235 -0.1514  0.2863
 6970W        W 7834   5.477   0.696   9.797  0.2168  0.1697 -0.3133
 6971W        W 7835   5.709   0.877   8.901 -0.0360 -0.0364 -0.0921
 6972W        W 7836   8.526   0.150   8.204  0.0367 -0.0821 -0.1090
 6973W        W 7837   7.978  13.933   7.421  0.0889  0.0667  0.1662
 6974W        W 7838   4.470   2.516   7.339  0.1771 -0.2776 -0.2543
 6975W        W 7839   4.884   3.640   6.887  0.0478 -0.0237 -0.4416
 6976W        W 7840   4.713  13.784   8.389  0.1683 -0.1058 -0.3953
 6977W        W 7841   6.069   1.021   9.595  0.0839  0.0832  0.1179
 6978W        W 7842   6.340   0.116   9.365 -0.3733  0.0218 -0.1639
 6979W        W 7843   4.907  13.981  11.303 -0.1479 -0.2953 -0.1287
 6980W        W 7844   6.615   1.427   8.698  0.0443  0.1387 -0.0098
 6981W        W 7845   7.205   0.870  10.421 -0.2163 -0.0702 -0.3138
 6982W        W 7846   8.796   1.319  10.076  0.0302  0.0262  0.1887
 6983W        W 7847   6.020   2.940   7.652 -0.0722  0.2358  0.0333
 6984W        W 7848   6.986  13.152  10.655  0.1714  0.0648  0.2975
 6985W        W 7849   5.670   3.378   9.538 -0.1775 -0.1989  0.1310
 6986W        W 7850   5.377  11.428   8.081 -0.2850  0.1106  0.1091
 6987W        W 7851   6.173  13.638  10.835 -0.1745 -0.1049 -0.2194
 6988W        W 7852   3.545   0.768  10.624 -0.1389  0.3611  0.1643
 6989W        W 7853   4.205  10.749  10.009 -0.1184  0.0178  0.0945
 6990W        W 7854   6.650   0.222  11.799 -0.0844 -0.3804 -0.0243
 6991W        W 7855   6.754   4.951   7.732  0.0648  0.0002 -0.0740
 6992W        W 7856   4.718   2.739   7.758  0.1210 -0.1966 -0.0170
 6993W        W 7857   5.261  13.621   8.610 -0.2500  0.1925  0.2409
 6994W        W 7858   7.381  11.190   9.555 -0.0795 -0.0589  0.2008
 6995W        W 7859   2.707   2.514   6.944 -0.2604  0.1628 -0.0316
 6996W        W 7860   4.756   1.136  10.061  0.0676 -0.0736 -0.2155
 6997W        W 7861   4.807   2.876  10.067 -0.0779  0.0872  0.0423
 6998W        W 7862   6.283  13.456   8.352  0.1070 -0.0971 -0.3700
 6999W        W 7863   5.634  11.058   9.382 -0.1869 -0.0888  0.2844
 7000W        W 7864   6.404   1.247   7.638  0.0050  0.0594 -0.0523
 7001W        W 7865   5.971   5.932  10.528 -0.0630  0.0885 -0.1176
 7002W        W 7866   7.817   1.404  10.170  0.4530 -0.3291  0.0463
 7003W        W 7867   5.762   3.184   8.355  0.0454  0.2242  0.3080
 7004W        W 7868   5.311  12.661   9.042 -0.1000  0.0454  0.0079
 7005W        W 7869   3.977   1.993   7.939  0.3672  0.1931  0.0906
 7006W        W 7870   3.905   0.927   7.313  0.0200  0.0809 -0.0071
 7007W        W 7871   4.036   2.147   9.400 -0.1899 -0.3355  0.0699
 7008W        W 7872   4.501  13.024  10.384  0.1664 -0.0191 -0.0135
 7009W        W 7873   5.040   1.449   8.778  0.1702 -0.1598 -0.0837
 7010W        W 7874   4.846   1.835   9.048 -0.3243  0.0797  0.2010
 7011W        W 7875   6.767  12.650   6.741  0.4159  0.0215 -0.1078
 7012W        W 7876   4.392   0.257   8.197 -0.1731 -0.0286  0.3097
 7013W        W 7877   7.114  12.895  11.801 -0.1023  0.1310  0.1721
 7014W        W 7878   7.995   0.834   8.463  0.2452 -0.3409  0.2319
 7015W        W 7879   4.498   1.910  12.280 -0.3065 -0.3306 -0.0011
 7016W        W 7880   6.097   0.777  12.320  0.0115 -0.0729 -0.0557
 7017W        W 7881   4.810  12.748   8.992 -0.2408 -0.0850 -0.2055
 7018W        W 7882   4.539  13.766  10.536  0.0105  0.1500 -0.0778
 7019W        W 7883   1.802   1.616  10.195  0.4764 -0.0461 -0.3446
 7020W        W 7884   3.647   1.555   8.446  0.1981  0.2041  0.0653
 7021W        W 7885   6.644   2.094  10.399 -0.2924 -0.0823 -0.0311
 7022W        W 7886   4.612   0.668  10.411  0.1974 -0.1699 -0.0906
 7023W        W 7887   6.605   0.640   5.280 -0.0509 -0.0101  0.0950
 7024W        W 7888   6.151   0.165   5.833  0.2426  0.2413  0.0081
 7025W        W 7889   6.866   5.912   7.575  0.0919  0.0549 -0.0726
 7026W        W 7890   6.450   4.547   7.736 -0.2178  0.1055 -0.0507
 7027W        W 7891   6.371  12.672  13.170 -0.1463 -0.2297 -0.2010
 7028W        W 7892   7.839   2.023   9.040 -0.0083  0.2534  0.2824
 7029W        W 7893   3.938   4.125   9.165 -0.2309  0.0336 -0.3190
 7030W        W 7894   2.995   2.233   8.393  0.1382 -0.0741 -0.4232
 7031W        W 7895   1.164   2.978   7.085  0.1228 -0.1602 -0.2240
 7032W        W 7896   4.330  13.929   7.187  0.0442  0.1664  0.0004
 7033W        W 7897   3.426   2.102   9.199  0.0458  0.1344 -0.2442
 7034W        W 7898   7.612   2.427   7.976 -0.2471  0.0084 -0.0506
 7035W        W 7899   3.504   0.602   8.202 -0.1685 -0.2054 -0.2588
 7036W        W 7900   6.882   0.959   8.928  0.1407 -0.1958 -0.0541
 7037W        W 7901   6.993   0.879   8.051 -0.4077  0.2306  0.1020
 7038W        W 7902   6.908   1.902   8.922  0.1300 -0.1128  0.0946
 7039W        W 7903   8.681   0.819   9.373 -0.0481 -0.0744  0.1904
 7040W        W 7904   3.639   1.444   6.420 -0.0238  0.0825 -0.0531
 7041W        W 7905   2.418   3.701   8.872 -0.1556  0.2649  0.1237
 7042W        W 7906   2.550   4.230   6.781  0.0500 -0.0015  0.0012
 7043W        W 7907   5.531   4.066   5.211  0.1931  0.0069 -0.2689
 7044W        W 7908   4.461   0.829   8.927 -0.0172 -0.1215 -0.2534
 7045W        W 7909   5.311   0.245   9.488 -0.0243 -0.0895  0.3583
 7046W        W 7910   4.723  13.051  13.130  0.3879 -0.0424 -0.0173
 7047W        W 7911   5.498  13.980   8.097  0.0135  0.1595  0.2052
 7048W        W 7912   4.973  12.047   8.668  0.0061  0.0191 -0.0109
 7049W        W 7913   5.326  13.123   9.216  0.2193 -0.0507  0.0016
 7050W        W 7914   3.708  13.135   9.512 -0.3265 -0.1119  0.2458
 7051W        W 7915   3.665   2.376   7.763 -0.0026  0.1478  0.2118
 7052W        W 7916   5.885  12.928  10.222 -0.0481 -0.4373 -0.1610
 7053W        W 7917   6.402   1.209   7.126 -0.0521 -0.3839 -0.1791
 7054W        W 7918   7.488  13.761  10.900  0.1203 -0.2566  0.0524
 7055W        W 7919   7.168   3.638   7.941  0.3838  0.1515  0.1082
 7056W        W 7920   5.534  11.001  11.230  0.0905 -0.2021  0.2678
 7057W        W 7921   6.658   1.356  12.607  0.1691  0.1231  0.1001
 7058W        W 7922   3.358   3.003   9.685  0.2575  0.1308 -0.0419
 7059W        W 7923   4.970  13.315  10.297 -0.2043  0.0289  0.2626
 7060W        W 7924   7.486   1.306  12.283 -0.0664  0.1666  0.0300
 7061W        W 7925   4.500   4.821   7.044 -0.1170  0.0085  0.2291
 7062W        W 7926   4.307   3.463   3.843 -0.1602 -0.1468  0.1295
 7063W        W 7927   5.617   2.496  10.622 -0.1240 -0.0815  0.1048
 7064W        W 7928   2.693   2.668   8.795 -0.0354 -0.1062 -0.0952
 7065W        W 7929   5.995   1.604   9.985 -0.0647 -0.1590  0.0451
 7066W        W 7930   7.769  13.601  11.991  0.0136 -0.4713  0.1922
 7067W        W 7931   8.070   0.995  10.017 -0.1912  0.0905  0.1582
 7068W        W 7932   8.572   0.431   6.682 -0.0290  0.1374  0.1260
 7069W        W 7933   7.549   1.022   8.087  0.0235  0.2591  0.1801
 7070W        W 7934   6.473   3.212   5.969  0.0330  0.3553  0.0314
 7071W        W 7935   4.954   1.235  11.508 -0.1192 -0.1562 -0.1389
 7072W        W 7936   4.223   3.322  11.510  0.1167 -0.0875  0.0185
 7073W        W 7937   6.730  12.769  10.908  0.1027  0.1394 -0.0561
 7074W        W 7938   3.324  13.437   9.321 -0.1180 -0.0772  0.0706
 7075W        W 7939   5.300   1.829  12.526  0.1912  0.0442 -0.1175
 7076W        W 7940   4.376  12.602   6.344 -0.2196 -0.1981  0.2819
 7077W        W 7941   5.758   4.402   5.868 -0.2008 -0.2136  0.3786
 7078W        W 7942   6.155   0.102   8.493 -0.2250 -0.0034  0.3738
 7079W        W 7943   5.418   0.313  10.777  0.0224 -0.0774  0.3152
 7080W        W 7944   9.955  13.912  11.751  0.0762  0.3795  0.0096
 7081W        W 7945   8.111   1.804   7.559 -0.0216  0.1197  0.2291
 7082W        W 7946   5.267   0.910   8.212  0.1345  0.0487  0.2572
 7083W        W 7947   3.571  13.477  11.749 -0.1123  0.1431  0.1767
 7084W        W 7948   2.826   1.605  10.642  0.0556  0.3050 -0.1380
 7085W        W 7949   2.707   0.375   7.690 -0.2805  0.0736 -0.1808
 7086W        W 7950   3.660   0.782   9.585  0.1220  0.0344 -0.0157
 7087W        W 7951   3.227   1.688  11.041  0.0616  0.0384  0.0377
 7088W        W 7952   4.877   1.338   6.889 -0.0985  0.0964  0.1367
 7089W        W 7953   5.009   0.781   5.513  0.0001  0.2071 -0.0600
 7090W        W 7954   6.873  13.780  11.483  0.0020  0.0418 -0.0631
 7091W        W 7955   7.723   2.267  11.575 -0.0528 -0.1602 -0.0038
 7092W        W 7956   8.624   3.565   8.235  0.0147  0.0190 -0.1535
 7093W        W 7957   5.717   2.583   7.698 -0.3272  0.1439 -0.3191
 7094W        W 7958   5.551   1.398   8.773 -0.0514 -0.1968 -0.2033
 7095W        W 7959   3.902  11.620  11.191  0.1331 -0.0386 -0.1661
 7096W        W 7960   5.445   0.552   8.575  0.2311  0.0186 -0.1067
 7097W        W 7961   5.309   2.583  12.797 -0.0331  0.0659  0.0351
 7098W        W 7962   2.616   2.209   8.957 -0.2938 -0.1029  0.2479
 7099W        W 7963   7.343  12.932  10.338 -0.4091  0.0834 -0.3165
 7100W        W 7964   2.150   3.101   7.978  0.1520  0.1910  0.1839
 7101W        W 7965   4.712   4.629   8.342 -0.0318 -0.0222  0.1262
 7102W        W 7966   4.155  12.172   8.115  0.0609  0.0432  0.0562
 7103W        W 7967   5.862   0.391  11.023 -0.1569  0.3315  0.0269
 7104W        W 7968   6.784   4.104  10.137  0.2405 -0.0911 -0.0089
 7105W        W 7969   4.223   3.477   8.861  0.2634 -0.1368 -0.2819
 7106W        W 7970   5.923   0.501   8.684 -0.0481  0.1673  0.0053
 7107W        W 7971   4.821   1.030   8.419  0.1238  0.0352 -0.0446
 7108W        W 7972   6.328   0.103   8.045 -0.3521  0.0560 -0.0033
 7109W        W 7973   5.858  13.625  10.334  0.0312  0.3731 -0.2539
 7110W        W 7974   5.799   0.329  11.526 -0.0284  0.0057  0.0466
 7111W        W 7975   5.784   1.096  12.066  0.1088 -0.0968  0.0251
 7112W        W 7976   6.694   3.418   8.640  0.2585 -0.1057 -0.0851
 7113W        W 7977   7.478   1.767  10.338  0.0187  0.1361 -0.4328
 7114W        W 7978   5.054   0.385  10.429 -0.3519 -0.2102 -0.2837
 7115W        W 7979   4.492   4.056   6.972  0.1215  0.5073 -0.0495
 7116W        W 7980   6.446  11.934   9.837 -0.4025  0.1274 -0.1775
 7117W        W 7981   4.692   4.152   8.432  0.0058  0.2275 -0.0307
 7118W        W 7982   6.558   0.974  10.603  0.2481 -0.0044 -0.4776
 7119W        W 7983   4.027   1.722   6.274  0.0491  0.0672  0.1820
 7120W        W 7984   5.116   1.295   7.380 -0.0232 -0.6411 -0.0671
 7121W        W 7985   4.762  12.227  10.660  0.2727  0.1727 -0.3413
 7122W        W 7986   7.192  12.978   4.909  0.0065 -0.0558 -0.1839
 7123W        W 7987   4.304  13.794   7.846 -0.2794  0.2269 -0.1203
 7124W        W 7988   5.401   1.010   6.985  0.0733  0.1292 -0.1706
 7125W        W 7989   6.005  13.367   9.736 -0.1933 -0.1744 -0.1945
 7126W        W 7990   5.525  12.128  10.606  0.0610  0.0612 -0.1487
 7127W        W 7991   4.256   2.931   7.635  0.4768  0.3598  0.1741
 7128W        W 7992   4.484  13.913  11.007 -0.0286  0.1764 -0.3573
 7129W        W 7993   3.965  13.133  11.589 -0.1366  0.3961  0.1265
 7130W        W 7994   3.747   0.800  12.140 -0.2078 -0.0557 -0.2505
 7131W        W 7995   2.771  13.985   6.437 -0.5192  0.0901  0.2272
 7132W        W 7996   2.991   1.930   9.541 -0.2487  0.0883  0.1277
 7133W        W 7997   6.154   2.641   8.702  0.2080 -0.1028 -0.1643
 7134W        W 7998   6.386  12.430   8.289  0.1882  0.4385 -0.3749
 7135W        W 7999   6.865   2.392   9.223 -0.0894  0.2382 -0.3133
 7136W        W 8000   3.386   4.018   9.093 -0.1312  0.1353  0.0184
 7137W        W 8001   6.702   0.694   5.803  0.1706 -0.1597 -0.0529
 7138W        W 8002   4.838  13.448  12.889 -0.0841  0.0733  0.1112
 7139W        W 8003   6.558   4.446   9.591  0.1128  0.3811 -0.0155
 7140W        W 8004   4.180   3.309  13.086 -0.1364 -0.0199  0.1221
 7141W        W 8005   8.484  13.477  10.962  0.2987  0.1717 -0.0100
 7142W        W 8006   8.130   2.403   9.185  0.2570  0.1332  0.1936
 7143W        W 8007   6.937   2.021  10.055 -0.1047  0.1243  0.0398
 7144W        W 8008   8.420   1.223   7.718  0.1527 -0.2607  0.1314
 7145W        W 8009   6.890   1.204   7.660  0.0347 -0.3395  0.3116
 7146W        W 8010   1.905   5.123   9.870  0.2207 -0.1246  0.2702
 7147W        W 8011   5.089   1.131   5.885 -0.0140  0.1227 -0.0313
 7148W        W 8012   4.474  13.069   9.483 -0.3632  0.1097 -0.0036
 7149W        W 8013   5.319   1.582   6.942  0.1572  0.0419 -0.4119
 7150W        W 8014   5.551   3.650   8.523  0.3661  0.1608  0.1785
 7151W        W 8015   7.816  13.170  12.577 -0.2489  0.1599  0.1459
 7152W        W 8016   1.466   3.248   8.922 -0.0454 -0.3186  0.0371
 7153W        W 8017   5.417   2.198   9.104 -0.0629  0.0628 -0.1622
 7154W        W 8018   5.299  13.739  13.878  0.1265  0.3158  0.3936
 7155W        W 8019   2.258   2.895   8.824 -0.0590 -0.1627 -0.1573
 7156W        W 8020   4.633   5.274   8.080 -0.3780 -0.1172  0.0971
 7157W        W 8021   8.289   0.563   7.126  0.2479  0.0425 -0.1749
 7158W        W 8022   4.789   4.467   9.780  0.1058  0.0688 -0.2583
 7159W        W 8023   6.856   2.070  11.937 -0.0933 -0.0287 -0.1525
 7160W        W 8024   7.597  13.665   6.657 -0.2815  0.1640 -0.2215
 7161W        W 8025   5.943  13.673   8.614 -0.0199  0.2516 -0.2551
 7162W        W 8026   3.243   0.541   9.360 -0.1441 -0.0179  0.0996
 7163W        W 8027   5.081   0.347   7.587 -0.0120 -0.3278  0.0047
 7164W        W 8028   3.184   2.791  11.122  0.0891 -0.3042  0.0243
 7165W        W 8029   4.454  13.558   9.389  0.1603 -0.1045  0.1542
 7166W        W 8030   5.444   0.218  12.382 -0.2885 -0.0902  0.1657
 7167W        W 8031   3.498   3.330  10.533  0.2846  0.0871 -0.3552
 7168W        W 8032   3.063   2.037  10.544 -0.0837 -0.0806  0.1152
 7169W        W 8033   4.953   1.270   7.966  0.0997  0.2437 -0.0508
 7170W        W 8034   8.112   0.133   9.100 -0.1700  0.1761  0.3519
 7171W        W 8035   5.543   3.186   8.914 -0.1575  0.1642 -0.2351
 7172W        W 8036   3.320   2.923   7.855 -0.0145 -0.2703 -0.3184
 7173W        W 8037   4.532   2.346   8.539  0.3332 -0.0900 -0.3040
 7174W        W 8038   5.781   1.033   6.571  0.1105  0.0413 -0.3554
 7175W        W 8039   4.426   2.224   9.098 -0.0188 -0.2338 -0.4004
 7176W        W 8040   4.003   1.240  12.180 -0.0749  0.0126 -0.2416
 7177W        W 8041   6.238   3.427   9.567 -0.2586  0.0968  0.0802
 7178W        W 8042   4.940   5.025   8.603 -0.1376 -0.1717  0.1255
 7179W        W 8043   4.567  12.606   9.391  0.0946 -0.0833 -0.2427
 7180W        W 8044   4.352  13.678   8.846  0.2414  0.1451  0.0567
 7181W        W 8045   6.940  13.152   6.516  0.0069  0.0934 -0.2185
 7182W        W 8046   2.238   1.562   7.037 -0.0781 -0.1564 -0.0621
 7183W        W 8047   3.207   0.626   8.535 -0.0413  0.2009 -0.1610
 7184W        W 8048   8.448  13.611   7.436 -0.0945 -0.1466  0.0100
 7185W        W 8049   6.207   1.686  12.487 -0.0040  0.0539  0.2195
 7186W        W 8050   4.575   2.482   9.598  0.0966 -0.2148  0.0385
 7187W        W 8051   6.993   1.593  10.252  0.1640 -0.1089 -0.2777
 7188W        W 8052   6.821   2.874   7.683  0.3800 -0.3035 -0.1712
 7189W        W 8053   4.112   3.012   7.163 -0.4441  0.0040 -0.1243
 7190W        W 8054   6.402   1.173   9.192 -0.1320  0.0382  0.0730
 7191W        W 8055   5.650   1.806   9.573 -0.1799  0.0141  0.5294
 7192W        W 8056   3.572   0.084  13.566  0.1433 -0.1404 -0.1483
 7193W        W 8057   5.811   0.772   5.335  0.0904 -0.1642  0.0757
 7194W        W 8058   4.304  11.607   7.949 -0.0922  0.0984  0.0624
 7195W        W 8059   5.057  13.050  11.585  0.0919 -0.0203 -0.3477
 7196W        W 8060   3.478   4.114   7.158 -0.0390 -0.1155  0.0787
 7197W        W 8061   7.693  11.159   5.503 -0.0636 -0.0182 -0.1488
 7198W        W 8062   3.239   2.900   8.978 -0.0559  0.5205 -0.4393
 7199W        W 8063   5.115   0.280   9.932  0.1670  0.1527  0.4110
 7200W        W 8064   4.356   2.404   7.804  0.0617  0.0293  0.1068
 7201W        W 8065   4.387  13.785   6.708  0.2392  0.1539  0.1128
 7202W        W 8066   5.093   0.798  10.111 -0.4299  0.0503 -0.4720
 7203W        W 8067   6.150   4.158   9.648 -0.0466  0.0250  0.0980
 7204W        W 8068   5.770   1.428  10.597 -0.0199 -0.1365 -0.1896
 7205W        W 8069   6.345   1.506   9.670 -0.1050 -0.1974  0.2160
 7206W        W 8070   8.321  13.306   8.177  0.2516 -0.3090  0.0686
 7207W        W 8071   2.620   3.781  10.214 -0.1985  0.0671 -0.0683
 7208W        W 8072   5.561  13.357  10.046  0.1983 -0.0745  0.0533
 7209W        W 8073   7.555   0.470  12.121  0.2727 -0.2026  0.0154
 7210W        W 8074   3.013   0.307   7.158 -0.3311  0.1144 -0.0815
 7211W        W 8075   5.705  12.765   7.710  0.2231 -0.0666 -0.2265
 7212W        W 8076   7.679   1.788  12.447 -0.0966 -0.0671  0.2793
 7213W        W 8077   2.010   2.780   8.359  0.0775 -0.0339 -0.0221
 7214W        W 8078   5.966   1.520   7.795  0.1017 -0.1333  0.0450
 7215W        W 8079   6.256   5.090  10.100 -0.2705 -0.0164  0.2095
 7216W        W 8080   6.009   2.774  10.089 -0.3737 -0.1780 -0.0937
 7217W        W 8081   5.204   3.072   9.729  0.0844 -0.0389 -0.2874
 7218W        W 8082   6.128   1.673   8.574 -0.0223 -0.1430  0.0084
 7219W        W 8083   6.628  12.235   6.112  0.2959 -0.1122  0.0319
 7220W        W 8084   4.228  13.658   6.258  0.2295 -0.1916  0.3084
 7221W        W 8085   4.809   2.144   6.014 -0.0390 -0.0360  0.1314
 7222W        W 8086   4.604   2.012   7.588 -0.2520 -0.2329  0.1562
 7223W        W 8087   6.409   2.795   7.956  0.1129 -0.1481  0.0103
 7224W        W 8088   6.647   1.307   8.104 -0.1774  0.0059 -0.2155
 7225W        W 8089   4.564   4.217   6.466  0.0263  0.1428  0.3575
 7226W        W 8090   4.952  12.952  10.698 -0.2061 -0.0960  0.1412
 7227W        W 8091   3.163   0.835  11.736  0.3593 -0.0581 -0.1562
 7228W        W 8092   7.028   0.520  11.015 -0.0231 -0.0342  0.0949
 7229W        W 8093   5.360   1.640   1.338 -0.0852  0.0466  0.0128
 7230W        W 8094   3.250   2.912   6.051 -0.1634 -0.0953  0.0650
 7231W        W 8095   2.847   1.814   8.020 -0.1142  0.2695 -0.1143
 7232W        W 8096   2.000   1.711   9.630  0.1569 -0.1599  0.1951
 7233W        W 8097   3.001   1.234   9.791 -0.0307 -0.0101  0.1118
 7234W        W 8098   7.478  13.520  10.009  0.3234 -0.4398  0.0334
 7235W        W 8099   5.723   1.736  11.612  0.0976  0.2202 -0.0313
 7236W        W 8100   6.389   1.288  12.193 -0.4149  0.4244 -0.0255
 7237W        W 8101   5.669   0.692   7.859  0.2989  0.2130 -0.1243
 7238W        W 8102   6.164   3.319  10.827  0.1318 -0.2234  0.0013
 7239W        W 8103   2.069   2.831   9.941 -0.1705  0.1301  0.1917
 7240W        W 8104   6.932   0.470   9.613  0.1202  0.1357  0.0017
 7241W        W 8105   2.709   0.353  13.647 -0.0216  0.0061  0.0699
 7242W        W 8106   4.444   1.555   7.898  0.1106  0.2770 -0.0199
 7243W        W 8107   4.447   0.091   6.087  0.1291 -0.1362  0.1279
 7244W        W 8108   3.276   1.044   9.416 -0.2552 -0.0802  0.2818
 7245W        W 8109   5.650   4.438   7.165 -0.0879 -0.0913 -0.0364
 7246W        W 8110   5.378   0.899   9.279  0.4224 -0.2086  0.2130
 7247W        W 8111   6.144   1.889  10.340  0.1127 -0.1578  0.2020
 7248W        W 8112   5.516   0.352  10.197 -0.0950  0.1417  0.0763
 7249W        W 8113   4.801   0.289   7.177  0.0668  0.2239  0.2192
 7250W        W 8114   3.331  10.905   9.779 -0.0614  0.0679  0.1669
 7251W        W 8115   4.739   2.748   0.024  0.0623 -0.1293  0.1730
 7252W        W 8116   5.974   2.614   0.522 -0.1799  0.0866  0.2292
 7253W        W 8117   5.185   4.393   0.914 -0.3142  0.3683  0.0459
 7254W        W 8118   5.102   4.227  12.000 -0.1196 -0.3627  0.3009
 7255W        W 8119   4.081   2.057  11.719  0.0274 -0.3130 -0.0238
 7256W        W 8120   5.694   3.012  10.464 -0.0054 -0.2843  0.0687
 7257W        W 8121   2.986   2.073  12.737  0.1298 -0.0400 -0.0892
 7258W        W 8122   7.166   2.241   0.138 -0.2001 -0.0699  0.3246
 7259W        W 8123   8.177   0.933  11.850 -0.1717 -0.2655  0.0190
 7260W        W 8124   6.960   1.217  11.630  0.0894  0.1400  0.1904
 7261W        W 8125   2.375  12.968  13.850 -0.1126 -0.2414 -0.0983
 7262W        W 8126   4.214   1.172   9.352  0.1541  0.1352 -0.3230
 7263W        W 8127   4.393   5.464   1.317 -0.0802  0.1266  0.2131
 7264W        W 8128   6.677   1.431   0.490 -0.1977  0.1696 -0.1083
 7265W        W 8129   4.663   1.996  10.529 -0.0186 -0.0318  0.0425
 7266W        W 8130   6.935  13.054  13.910 -0.0052 -0.1631  0.0512
 7267W        W 8131   6.277   4.102  12.155  0.2471  0.1738 -0.1527
 7268W        W 8132   4.596   3.992   0.251  0.3073  0.0562 -0.1274
 7269W        W 8133   4.141   0.314  12.693 -0.1155  0.1191 -0.1541
 7270W        W 8134   3.600   4.215  13.978 -0.3781  0.0384  0.1698
 7271W        W 8135   5.488   5.213  12.940  0.0408 -0.0389  0.2331
 7272W        W 8136   6.712   5.101  13.279  0.3729  0.0303  0.1432
 7273W        W 8137   4.492   0.759  10.860 -0.0236 -0.2517 -0.1049
 7274W        W 8138   4.646   3.837   0.777  0.2451 -0.3294 -0.0796
 7275W        W 8139   3.455   0.405  12.045  0.0474 -0.2917 -0.0152
 7276W        W 8140   2.992   3.244  11.318 -0.0198  0.0517  0.2699
 7277W        W 8141   6.618   3.186  13.365  0.0193 -0.0389  0.1784
 7278W        W 8142   9.546   0.285   0.814 -0.0087 -0.2730 -0.3083
 7279W        W 8143   3.854   1.589  11.807  0.0744  0.0587  0.3603
 7280W        W 8144   4.321   1.735  12.701 -0.0145 -0.2376 -0.2502
 7281W        W 8145   5.221   1.249  13.793  0.6113  0.2291 -0.3193
 7282W        W 8146   4.558   2.968   0.638  0.1882 -0.0641 -0.0965
 7283W        W 8147   4.347   2.939  10.630  0.2814  0.1115  0.2673
 7284W        W 8148   5.317   2.698   8.947  0.0737  0.2751 -0.1128
 7285W        W 8149   4.750   1.071   2.480  0.0543 -0.1721 -0.1280
 7286W        W 8150   5.300   1.178   2.551  0.2545 -0.1409  0.0875
 7287W        W 8151   7.632   2.188   9.435  0.0880 -0.2145 -0.2256
 7288W        W 8152   6.336   1.753   8.122 -0.1064  0.0260  0.2084
 7289W        W 8153   3.734   4.600   0.178 -0.2486  0.3054 -0.3432
 7290W        W 8154   5.911   0.201  12.530  0.1708  0.4136 -0.0760
 7291W        W 8155   3.982   4.131   0.330  0.1903 -0.0042  0.0192
 7292W        W 8156   9.436   4.156  12.483 -0.0879 -0.1763  0.0779
 7293W        W 8157   5.294   0.843  12.881  0.1467  0.1998  0.1068
 7294W        W 8158   5.499   2.711  12.046  0.1818 -0.0419  0.0683
 7295W        W 8159   3.355   3.080  11.627  0.1565  0.0905  0.1105
 7296W        W 8160   6.650   1.850  13.350 -0.1357 -0.1805 -0.0639
 7297W        W 8161   3.727   2.849   0.287 -0.0257  0.1237  0.1525
 7298W        W 8162   5.706   1.035  10.232  0.2341 -0.2403  0.1537
 7299W        W 8163  10.210   1.181  13.347  0.1127  0.1538  0.1224
 7300W        W 8164   4.553   3.650  11.747 -0.1057 -0.0210  0.0057
 7301W        W 8165   3.647   2.818  11.259  0.1549 -0.0957  0.2347
 7302W        W 8166   3.315   3.542   0.510  0.0849 -0.0572 -0.1551
 7303W        W 8167   5.520   0.020  12.820 -0.1268 -0.2348 -0.0959
 7304W        W 8168   7.759   0.119  13.869  0.1277 -0.1403  0.1136
 7305W        W 8169   2.302   2.750  10.492  0.1556 -0.1086 -0.1003
 7306W        W 8170   3.603   4.131  10.731 -0.0963  0.2145  0.1306
 7307W        W 8171   5.778   2.184  10.194 -0.0312  0.1332 -0.1228
 7308W        W 8172   3.684   2.253  11.989  0.1384 -0.1820  0.1214
 7309W        W 8173   5.377   7.430  11.475  0.1134 -0.0187 -0.0934
 7310W        W 8174   3.452   1.048  12.699 -0.0794 -0.0376  0.3760
 7311W        W 8175   4.930   3.711  13.718  0.1178  0.0052  0.2216
 7312W        W 8176  10.822  10.669   0.434  0.0816 -0.1541 -0.3217
 7313W        W 8177   8.149   2.062  13.578 -0.2467 -0.2347 -0.1558
 7314W        W 8178   6.616   3.406   0.834  0.2708 -0.1670 -0.2119
 7315W        W 8179   4.024   0.682  10.601  0.0488 -0.2610  0.3197
 7316W        W 8180   3.764   2.328   3.612  0.0710  0.1409  0.2879
 7317W        W 8181   7.004   2.480  10.457  0.1760  0.1491 -0.2488
 7318W        W 8182   7.510   1.497  13.415 -0.0463 -0.1248 -0.1562
 7319W        W 8183   2.348   2.754   1.619  0.3327  0.2426 -0.4376
 7320W        W 8184   5.368  13.413  12.938 -0.1968 -0.1282  0.4101
 7321W        W 8185   6.857   0.710   0.734 -0.1747  0.0056 -0.0504
 7322W        W 8186   6.696   0.641  11.448 -0.1201  0.0349  0.0856
 7323W        W 8187   9.832  13.752  12.212  0.4682  0.0157 -0.0643
 7324W        W 8188   6.722   0.915  12.946 -0.0256  0.0607  0.2843
 7325W        W 8189   3.544   5.463  11.435  0.0502 -0.1671 -0.0071
 7326W        W 8190   4.643   2.365  13.646 -0.4683 -0.2960 -0.1203
 7327W        W 8191   5.251   1.319  10.727 -0.2439  0.2027 -0.4053
 7328W        W 8192   5.848   2.725  11.690  0.0561  0.3198 -0.1109
 7329W        W 8193   4.053  13.034   9.150 -0.1949  0.0792  0.0608
 7330W        W 8194   5.098   2.126  11.437 -0.0246 -0.2757  0.0858
 7331W        W 8195   6.504  13.753  13.462  0.2120 -0.2034 -0.1304
 7332W        W 8196   4.470   1.491  13.653 -0.2171  0.0792  0.1171
 7333W        W 8197   8.022   1.355  11.047 -0.1645 -0.1230  0.1163
 7334W        W 8198   7.594   0.893   0.923 -0.1621  0.3701  0.2794
 7335W        W 8199  10.203  12.447   1.951  0.2208  0.0446  0.0327
 7336W        W 8200   5.716   2.799  13.764 -0.0716  0.0692  0.2355
 7337W        W 8201   4.837   1.534  12.513 -0.0091 -0.1619 -0.3706
 7338W        W 8202   5.232  11.661  13.527 -0.1433 -0.2249  0.0832
 7339W        W 8203   3.591   1.718  13.167 -0.0003  0.4243 -0.1105
 7340W        W 8204   4.203   3.688   0.316 -0.1016  0.0185  0.0471
 7341W        W 8205   6.386   3.616  11.830 -0.1515 -0.0890 -0.1399
 7342W        W 8206   7.705   1.688   0.285 -0.4006  0.1175 -0.0065
 7343W        W 8207   4.518   3.425   1.593 -0.4700  0.1504  0.0629
 7344W        W 8208   9.286   4.895  11.372 -0.0802  0.0258 -0.0862
 7345W        W 8209   4.051  13.607  11.677 -0.1749  0.2920  0.1555
 7346W        W 8210   8.826  13.831   2.495  0.1159 -0.0411 -0.0781
 7347W        W 8211   5.002   2.287   0.030  0.0226 -0.1241 -0.0560
 7348W        W 8212   5.361   1.734   2.495 -0.0604  0.0841  0.1925
 7349W        W 8213   6.067   2.948  13.372  0.2559  0.1133 -0.3013
 7350W        W 8214   5.955   0.018   0.138 -0.0577 -0.4187 -0.0256
 7351W        W 8215   5.965   3.497   8.879 -0.0474 -0.2205 -0.0778
 7352W        W 8216   4.944   1.383  12.006 -0.2013 -0.0081 -0.0201
 7353W        W 8217   5.787   1.711   9.041 -0.2701  0.1533 -0.4722
 7354W        W 8218   8.471  13.176   4.435  0.2311  0.1232 -0.1876
 7355W        W 8219   6.615   0.893  12.459 -0.4767  0.0174 -0.0498
 7356W        W 8220   3.977   0.930   0.676  0.1039  0.0076 -0.1898
 7357W        W 8221   7.554   1.765   4.002  0.2258  0.4077 -0.0877
 7358W        W 8222   7.724   3.369  11.940  0.1652 -0.0460  0.1105
 7359W        W 8223   3.540   2.045  10.777  0.0961  0.3921 -0.0291
 7360W        W 8224   5.272   4.079  13.804 -0.0000 -0.0878 -0.2326
 7361W        W 8225   7.420   0.443   1.199 -0.0494  0.0741 -0.1360
 7362W        W 8226   4.351   1.449   1.164 -0.1014 -0.2727 -0.1423
 7363W        W 8227   8.666  10.770  12.801 -0.0187 -0.0393  0.2222
 7364W        W 8228   5.650   1.974  13.490 -0.1159  0.0433  0.0644
 7365W        W 8229   3.895  13.107  13.439 -0.3210 -0.3237 -0.2258
 7366W        W 8230   4.742  12.962   9.887  0.4223  0.2351 -0.0654
 7367W        W 8231   5.160   2.828  12.362  0.3249 -0.1911 -0.2108
 7368W        W 8232   4.192   1.694  11.365 -0.1555 -0.0990 -0.1806
 7369W        W 8233   3.922   0.987  12.574  0.2092  0.0159  0.0375
 7370W        W 8234   4.626  13.857  12.070 -0.1919  0.2861  0.2297
 7371W        W 8235   4.779   4.184   1.143 -0.1722  0.2314 -0.0580
 7372W        W 8236   4.713   2.250  10.987 -0.2222  0.2743  0.1120
 7373W        W 8237   4.797   3.234  10.571  0.0492  0.0281  0.0218
 7374W        W 8238   5.231  13.114  12.467 -0.0311 -0.1803 -0.0370
 7375W        W 8239   7.600  13.711  11.518 -0.3567  0.0159 -0.2652
 7376W        W 8240   8.737   1.615  11.579 -0.2555 -0.0291  0.5096
 7377W        W 8241   3.538   2.640  12.350  0.0275 -0.0271  0.2424
 7378W        W 8242   4.533  13.805  11.591 -0.3597 -0.0214 -0.1081
 7379W        W 8243   8.998   2.836  12.162  0.2052 -0.2220 -0.1173
 7380W        W 8244   5.630   1.279   1.047 -0.1383  0.0414  0.2243
 7381W        W 8245   5.980   3.038  11.233 -0.0150  0.0066  0.1504
 7382W        W 8246   1.736   2.794  13.922  0.3102  0.1065 -0.0580
 7383W        W 8247   5.666   3.459  12.499 -0.2496 -0.0209 -0.0650
 7384W        W 8248   5.722   0.808  13.183 -0.1969 -0.0976 -0.2695
 7385W        W 8249   2.177   4.749  13.196 -0.0622 -0.0683  0.1304
 7386W        W 8250   5.105   1.024  11.087 -0.0066 -0.1760 -0.0232
 7387W        W 8251   4.455   1.409   9.761  0.1222 -0.1306 -0.1822
 7388W        W 8252   5.199   0.217  13.728  0.2800  0.3717  0.2149
 7389W        W 8253   8.477  13.902   1.701 -0.1456 -0.1007 -0.1423
 7390W        W 8254   5.229   3.446  11.482 -0.2465 -0.0833  0.2385
 7391W        W 8255   4.181   0.855  13.125 -0.0830  0.0464  0.1270
 7392W        W 8256   2.555   0.374   0.381  0.0996  0.1929  0.0472
 7393W        W 8257   3.342   2.266   9.669  0.1387 -0.2662 -0.0324
 7394W        W 8258   4.636   2.594  11.548  0.3867 -0.1414 -0.1470
 7395W        W 8259   5.744   1.475  12.526 -0.1098  0.1734  0.1491
 7396W        W 8260   8.273   0.021  12.351  0.0384  0.1840  0.1788
 7397W        W 8261   5.244   1.373   0.669 -0.3094  0.2037  0.2268
 7398W        W 8262   5.333   0.706  12.387  0.1938  0.0828 -0.4997
 7399W        W 8263   4.921   0.567  12.595 -0.0488  0.0615  0.0690
 7400W        W 8264   7.632  13.249  11.461  0.1031  0.2788 -0.1674
 7401W        W 8265   3.412   7.465  13.297 -0.1124 -0.3677 -0.0368
 7402W        W 8266   5.864   0.366   0.539  0.2479 -0.0696  0.0221
 7403W        W 8267   3.523   4.896  11.555 -0.0421  0.1846 -0.2263
 7404W        W 8268   5.570   2.232   0.986 -0.1997  0.0809  0.0161
 7405W        W 8269   3.118  13.068  10.649  0.1570  0.1216  0.1565
 7406W        W 8270   6.215   3.820  10.616  0.0422 -0.3002  0.0630
 7407W        W 8271   6.995   3.235  10.885 -0.2267  0.0569  0.0008
 7408W        W 8272   3.971  13.849  13.961  0.1996  0.0284 -0.1138
 7409W        W 8273   4.406   2.251  12.769  0.1277 -0.0586  0.0188
 7410W        W 8274   5.839   1.250  13.028 -0.0726 -0.0352 -0.0141
 7411W        W 8275   4.791  12.548  13.744 -0.1259  0.0905  0.0844
 7412W        W 8276   5.821   1.468   0.667 -0.3679 -0.3745  0.2507
 7413W        W 8277   3.490   3.460  13.297  0.0464 -0.4303  0.1974
 7414W        W 8278   3.931   2.373  11.387  0.0282 -0.0804  0.3421
 7415W        W 8279   3.644   2.528  10.335 -0.0174 -0.3682  0.1318
 7416W        W 8280   6.025   1.620   0.232 -0.2092 -0.1032 -0.4184
 7417W        W 8281   5.634   0.497  12.808  0.0126  0.2432  0.1525
 7418W        W 8282   4.224   1.221  10.939 -0.0153  0.0697  0.0902
 7419W        W 8283   3.263  13.960  12.024 -0.1269 -0.2435  0.0973
 7420W        W 8284   4.279   1.971  13.647  0.2645 -0.1025 -0.1222
 7421W        W 8285   5.093  13.612   2.372  0.1180  0.0722  0.1712
 7422W        W 8286   4.214  13.532  11.212 -0.1016 -0.1232  0.0719
 7423W        W 8287   8.061  13.930  13.351 -0.0815 -0.2835 -0.0075
 7424W        W 8288   5.307   4.821  10.980 -0.3978 -0.0870  0.0573
 7425W        W 8289   3.529   1.551  12.234 -0.1285  0.0809 -0.0751
 7426W        W 8290   4.430  13.398  12.202 -0.2881  0.2018 -0.0153
 7427W        W 8291   6.043   0.723   1.323 -0.1911  0.1002 -0.1262
 7428W        W 8292   5.105   1.741  10.428  0.1608 -0.0505  0.1133
 7429W        W 8293   3.635   1.272   0.494  0.1626 -0.0507 -0.1343
 7430W        W 8294   4.238   1.045   1.750 -0.1683 -0.0862  0.1308
 7431W        W 8295   4.391   2.844  12.391  0.0772  0.1611  0.1618
 7432W        W 8296   6.948   0.908   1.700 -0.0514  0.2778 -0.1961
 7433W        W 8297   4.983   5.066   5.764  0.0965 -0.0040  0.1689
 7434W        W 8298   3.953   0.727   9.165  0.2903  0.1777  0.0483
 7435W        W 8299   6.859   3.542  12.198  0.1336 -0.0710  0.0297
 7436W        W 8300   5.555   1.215   0.209 -0.0792  0.3870  0.1686
 7437W        W 8301   6.153  13.149  12.336 -0.0289 -0.1863 -0.1561
 7438W        W 8302   6.462   0.608  10.934  0.0196  0.3361  0.3040
 7439W        W 8303   5.181   1.891  13.128 -0.1883 -0.0744  0.1464
 7440W        W 8304   8.878  13.875   0.508 -0.1897  0.2257  0.0676
 7441W        W 8305   6.165   1.335  10.353 -0.0054  0.1955  0.0129
 7442W        W 8306   5.012   1.607  13.452  0.1055 -0.0533 -0.1815
 7443W        W 8307   6.215  12.937  13.992 -0.3333 -0.3142  0.1009
 7444W        W 8308   5.295   1.273  12.346  0.0063  0.0934 -0.0343
 7445W        W 8309   4.478   1.410  12.164 -0.0905 -0.2194  0.1847
 7446W        W 8310   2.600   3.461   1.939  0.1812 -0.2103  0.0106
 7447W        W 8311   6.290   0.295  11.343 -0.1645 -0.0977  0.2276
 7448W        W 8312   8.285  13.930  11.101  0.1424  0.1926 -0.2628
 7449W        W 8313   5.611   0.869   1.392  0.2898 -0.0248 -0.1137
 7450W        W 8314   5.851   3.215   1.111  0.2632  0.1304 -0.1797
 7451W        W 8315   6.259   0.890  11.879 -0.2397 -0.0251 -0.2827
 7452W        W 8316   6.174   1.920   9.449 -0.0716 -0.1284 -0.2082
 7453W        W 8317   5.065   6.300  13.214  0.1734 -0.2727  0.0925
 7454W        W 8318   4.503   0.691   1.167 -0.0457 -0.1906  0.0806
 7455W        W 8319   3.732  13.554  11.289 -0.1617  0.0348 -0.0745
 7456W        W 8320   7.277   0.498   0.676 -0.0295 -0.0801 -0.0744
 7457W        W 8321   3.839   0.586  12.991  0.2004  0.1978  0.1033
 7458W        W 8322   7.678   1.421   3.582 -0.0537 -0.0454  0.2064
 7459W        W 8323   5.203   2.398   7.704 -0.3006 -0.1215 -0.1858
 7460W        W 8324   4.179   1.844  13.215  0.1461  0.1912  0.2219
 7461W        W 8325   2.816   2.995  13.961  0.0217 -0.1243  0.0819
 7462W        W 8326   6.391   6.742   0.011  0.3136 -0.3622  0.0174
 7463W        W 8327   6.459   0.060  12.636 -0.2967  0.0894 -0.1680
 7464W        W 8328   4.258   1.091  10.362 -0.2773 -0.1457 -0.1578
 7465W        W 8329   8.202   2.852  11.881  0.1854  0.0675 -0.1442
 7466W        W 8330   7.634  12.159  10.626  0.0510 -0.0251  0.0441
 7467W        W 8331   7.977   1.244  13.555  0.0762  0.1972  0.0544
 7468W        W 8332   6.049   2.454  13.530  0.0808 -0.0536 -0.2751
 7469W        W 8333   3.259  13.930  12.509 -0.0514 -0.1329 -0.1134
 7470W        W 8334   3.938   1.606  13.592 -0.0650  0.0850 -0.0524
 7471W        W 8335   6.455   0.432   0.026  0.2960 -0.3266  0.2006
 7472W        W 8336   6.464   3.435   0.290  0.2175  0.1698 -0.1197
 7473W        W 8337   3.943   3.997  11.062  0.0507  0.2632 -0.4078
 7474W        W 8338   2.216   2.507   9.132  0.1371  0.1487  0.1791
 7475W        W 8339   6.242   2.227  12.637  0.0159 -0.1291  0.0971
 7476W        W 8340   7.401   0.338  12.598  0.0835  0.0676  0.1588
 7477W        W 8341   4.986   1.811   0.458  0.3749 -0.1500 -0.1220
 7478W        W 8342   5.444   3.632  13.887 -0.1816 -0.0265  0.1324
 7479W        W 8343   8.330   0.954   0.385  0.1696  0.0286 -0.3512
 7480W        W 8344   5.361   0.576   1.746  0.2997  0.2686  0.0622
 7481W        W 8345   5.499   5.312   0.501  0.3177  0.2365  0.3194
 7482W        W 8346   4.003   0.357  13.693  0.1962 -0.4713 -0.1817
 7483W        W 8347   5.237   2.989  11.700  0.0881 -0.0014  0.1417
 7484W        W 8348   5.387   0.790  10.487  0.0903 -0.2115  0.1194
 7485W        W 8349   3.264   4.422   0.940 -0.1087 -0.0807  0.1106
 7486W        W 8350   6.665  13.300  11.163 -0.0418  0.2272 -0.1259
 7487W        W 8351   3.495   0.321  10.341 -0.2035  0.2441 -0.2883
 7488W        W 8352   2.398   0.579  12.053  0.2255  0.1367 -0.0780
 7489W        W 8353   5.086   2.135  13.545  0.1374  0.5053  0.1454
 7490W        W 8354   7.278  13.907  12.893 -0.1889  0.0213  0.2104
 7491W        W 8355   4.694   2.654  12.015  0.0916 -0.0304  0.2618
 7492W        W 8356   6.436  12.158   8.825  0.3968 -0.1412  0.0019
 7493W        W 8357   7.140   1.627  12.428  0.0959 -0.0152 -0.0459
 7494W        W 8358   2.024   2.836  11.329 -0.1733 -0.0584  0.0729
 7495W        W 8359   4.883  13.424  11.861  0.4366  0.1127 -0.1633
 7496W        W 8360   7.750  13.992  12.742  0.2634  0.1351  0.3869
 7497W        W 8361   3.812   0.839  13.912 -0.0813  0.4192 -0.1151
 7498W        W 8362   4.114   3.720  11.920  0.1603 -0.0990  0.0909
 7499W        W 8363   5.783  13.951  10.796  0.0664 -0.0417 -0.1899
 7500W        W 8364   3.925  12.832  11.981  0.0782 -0.3162  0.0210
 7501W        W 8365   7.024   1.190   0.917  0.1346  0.0465  0.2059
 7502W        W 8366   4.710   1.406   0.514 -0.0710  0.0962 -0.3553
 7503W        W 8367   6.731   3.148  11.915  0.0056  0.0348 -0.4179
 7504W        W 8368   5.460   1.679  10.072 -0.1305  0.1132  0.2102
 7505W        W 8369   6.736   1.901   9.439 -0.1440 -0.1303  0.0085
 7506W        W 8370   9.510   1.349  10.476 -0.1524 -0.0732 -0.0715
 7507W        W 8371   8.905   3.802  12.426 -0.0083  0.1063 -0.2180
 7508W        W 8372   4.958  13.482  13.411 -0.1246  0.0395  0.0212
 7509W        W 8373   5.808   3.006  12.756  0.2484  0.2080  0.1165
 7510W        W 8374   3.304   3.037   3.785  0.2460  0.1658  0.0062
 7511W        W 8375   5.166   0.969  11.908  0.0289 -0.1779 -0.0322
 7512W        W 8376   4.890   0.914  13.676 -0.0320 -0.0392 -0.1752
 7513W        W 8377   5.615   1.522  13.349 -0.0375  0.2631 -0.0884
 7514W        W 8378   6.353   4.421  11.412 -0.3446  0.0534 -0.1555
 7515W        W 8379   3.905   1.938  13.974  0.1629 -0.2058 -0.1042
 7516W        W 8380   7.125   0.296  12.038  0.1265  0.0326  0.0377
 7517W        W 8381   3.907   1.758   0.443  0.1161 -0.3239 -0.0424
 7518W        W 8382   6.669   1.090   0.082 -0.0688 -0.2045 -0.1663
 7519W        W 8383   5.200   4.472  13.420 -0.1350  0.2414 -0.2120
 7520W        W 8384   7.868   2.492  12.005 -0.0300 -0.0255 -0.1381
 7521W        W 8385   2.381   1.810  12.045  0.0087  0.4110 -0.2253
 7522W        W 8386   6.901   2.767  11.048 -0.1047 -0.0810  0.0247
 7523W        W 8387   3.700  13.998  11.704 -0.0818 -0.1261  0.3049
 7524W        W 8388   3.088   0.375  12.567 -0.2674 -0.3355  0.3197
 7525W        W 8389   5.738   1.970  12.291  0.0057 -0.2728 -0.2805
 7526W        W 8390   6.029   0.715   0.131 -0.0780 -0.0511  0.1786
 7527W        W 8391   4.480   0.290  12.306 -0.1574 -0.0275 -0.1060
 7528W        W 8392   5.383   3.255  12.107 -0.0730 -0.1240  0.0360
 7529W        W 8393   3.815   2.081  13.450 -0.0817 -0.1178  0.1153
 7530W        W 8394   6.015  12.232  11.988  0.1454 -0.0638  0.0046
 7531W        W 8395   7.263   0.625   3.360  0.0124  0.2082  0.1552
 7532W        W 8396   5.284   3.696  12.723  0.1543 -0.1143 -0.2509
 7533W        W 8397   7.658   2.583  12.868 -0.1084 -0.0402 -0.0583
 7534W        W 8398   4.428   0.703  12.738  0.0566 -0.0139  0.1153
 7535W        W 8399   7.367   0.129   0.308 -0.0109  0.1924 -0.0916
 7536W        W 8400   5.632   1.288   8.204  0.0205  0.1087 -0.0893
 7537W        W 8401   6.506   1.088   0.819  0.0462  0.1334  0.0389
 7538W        W 8402   3.984   0.380  12.204  0.3024  0.2001  0.0818
 7539W        W 8403   3.743   1.673  10.195  0.1072  0.1914  0.0777
 7540W        W 8404   7.187   1.887  13.265  0.1714 -0.0010  0.2660
 7541W        W 8405   3.370   3.206   0.095 -0.1475  0.1069  0.2210
 7542W        W 8406   3.168   1.766   8.433  0.0700  0.0010  0.1831
 7543W        W 8407   2.717   4.499   1.066  0.1114 -0.0333 -0.1236
 7544W        W 8408   3.810   2.477  12.966  0.2335  0.2288  0.0366
 7545W        W 8409   2.517   1.346   0.592 -0.1186  0.1261  0.1673
 7546W        W 8410   5.873   0.682   1.804  0.1596  0.0143  0.1333
 7547W        W 8411   5.490  13.519   9.534  0.1397 -0.3416  0.0995
 7548W        W 8412   5.314   1.837  13.873 -0.0187  0.0553  0.1470
 7549W        W 8413   4.513   1.897   9.619 -0.3303  0.1113  0.3283
 7550W        W 8414   6.304   2.146  13.116 -0.1400 -0.1837  0.1099
 7551W        W 8415   8.167   0.135  10.014 -0.1918 -0.2658 -0.1398
 7552W        W 8416   5.413   4.250   0.303  0.3787 -0.1432 -0.0556
 7553W        W 8417   2.315   2.805  11.748  0.2055  0.0102  0.0409
 7554W        W 8418   4.460   2.468   0.538 -0.1038 -0.0902 -0.0471
 7555W        W 8419   2.895   0.878   0.238 -0.1239  0.0880 -0.5844
 7556W        W 8420   8.872  13.294  12.813  0.0364 -0.2837  0.0981
 7557W        W 8421   5.553   5.672  13.162  0.1055  0.1178 -0.1068
 7558W        W 8422   5.857   2.010   0.055  0.1344  0.0594 -0.2855
 7559W        W 8423   6.911   2.619  13.713 -0.2109 -0.4176 -0.2886
 7560W        W 8424   7.465   2.354  10.447  0.1805  0.3866 -0.2953
 7561W        W 8425   2.921   1.777  12.336  0.2756 -0.1062 -0.0457
 7562W        W 8426   7.620  12.667  12.906 -0.1891  0.1502 -0.1607
 7563W        W 8427   4.621   0.253  12.831 -0.1677 -0.2576 -0.2982
 7564W        W 8428  10.287   0.765   0.334  0.1765  0.4081  0.2762
 7565W        W 8429   4.427   2.900  13.313  0.1956  0.0268  0.1729
 7566W        W 8430   4.439   1.894   0.673  0.1510 -0.1894 -0.3768
 7567W        W 8431   6.381  13.757  11.277 -0.0555 -0.0088  0.1510
 7568W        W 8432   3.118   1.637   0.021  0.0626  0.2009 -0.2915
 7569W        W 8433   7.321   3.653  12.035 -0.0562  0.0699  0.0486
 7570W        W 8434   1.043   1.964   0.700  0.0306 -0.3135  0.1760
 7571W        W 8435   3.992   2.205   0.567  0.1772 -0.3710  0.1063
 7572W        W 8436   4.483   3.540  13.928 -0.2406  0.0814 -0.0448
 7573W        W 8437   4.042   1.739   9.751  0.1339  0.1647 -0.1960
 7574W        W 8438   5.067   3.050  11.162 -0.1950 -0.1043 -0.2856
 7575W        W 8439   4.863   3.123  12.114 -0.3109  0.1845  0.2108
 7576W        W 8440   6.045   1.629  12.013 -0.3287  0.0644 -0.1327
 7577W        W 8441   5.144   2.318  12.286  0.1280  0.1359 -0.4042
 7578W        W 8442   3.386   2.719  13.237 -0.2458  0.3033  0.3114
 7579W        W 8443   6.272   1.538   0.944 -0.2047 -0.1033 -0.1925
 7580W        W 8444   3.728   2.893   2.215  0.0027 -0.1255  0.0690
 7581W        W 8445   6.448   2.840   0.299 -0.0576  0.0995 -0.1039
 7582W        W 8446   7.346   1.902  13.767 -0.1067 -0.3513  0.0878
 7583W        W 8447   3.790   3.489  12.364 -0.2631 -0.1096  0.1740
 7584W        W 8448   5.615   1.163  11.215 -0.1152 -0.0603 -0.0170
 7585W        W 8449   3.948   4.244  10.285 -0.0716  0.0093 -0.2506
 7586W        W 8450   6.498   0.735   0.422  0.2244  0.1411  0.1856
 7587W        W 8451   3.470   7.588   4.854 -0.1240 -0.0402  0.0387
 7588W        W 8452   4.876   4.714   4.805 -0.2005 -0.0188 -0.1904
 7589W        W 8453   5.438   6.485   1.223 -0.0554 -0.3801 -0.3657
 7590W        W 8454   8.181   7.557   1.453  0.1076 -0.0035 -0.3299
 7591W        W 8455   5.370   7.657   0.242  0.0145  0.2527 -0.1008
 7592W        W 8456   6.394   4.708   2.077 -0.2287 -0.4938  0.1087
 7593W        W 8457   5.507   8.202  13.430  0.2805  0.1716 -0.3850
 7594W        W 8458   4.417   4.459   0.221  0.1929  0.1482  0.0783
 7595W        W 8459   2.953   7.934   3.787  0.0163  0.2589  0.1150
 7596W        W 8460   2.589   5.776   4.001 -0.2014  0.3183  0.0281
 7597W        W 8461   5.244   2.574   0.869  0.0369 -0.2666 -0.0110
 7598W        W 8462   7.719   5.662   0.080 -0.2272  0.0468  0.0339
 7599W        W 8463   5.012   4.092   9.467 -0.2083  0.0280 -0.0717
 7600W        W 8464   5.920   5.614   1.345  0.1876  0.3998 -0.1075
 7601W        W 8465   4.317   6.714   2.506  0.3066 -0.0487 -0.2153
 7602W        W 8466   1.183   6.967   4.826 -0.4213  0.1700 -0.0515
 7603W        W 8467   5.904   8.126  12.158 -0.0035 -0.1706 -0.2075
 7604W        W 8468   2.372   7.205  13.515  0.0532 -0.0415 -0.0225
 7605W        W 8469   2.816   5.758   2.865  0.1045  0.1060  0.1999
 7606W        W 8470   8.451   4.567   5.150  0.2507  0.1518 -0.1441
 7607W        W 8471   8.668   2.367   2.508 -0.0265  0.0885 -0.1827
 7608W        W 8472   4.324   8.514  13.602 -0.0631 -0.0075 -0.1734
 7609W        W 8473   4.374   7.213   2.018  0.2451 -0.0907 -0.2183
 7610W        W 8474   3.871   5.606   0.591  0.0070 -0.1090  0.1107
 7611W        W 8475   4.064   8.009   0.385  0.1044 -0.1306  0.3579
 7612W        W 8476   4.962   6.717   0.326  0.0845  0.1024 -0.0530
 7613W        W 8477   7.243   2.297   2.625  0.0667  0.0164  0.0047
 7614W        W 8478   3.681   8.434   0.332 -0.0229 -0.1184  0.1671
 7615W        W 8479   4.577   6.673   3.370  0.0971 -0.3267  0.2396
 7616W        W 8480   3.264   8.829   2.242 -0.4519  0.2018 -0.1329
 7617W        W 8481   4.214   9.536   2.068 -0.2966 -0.1251  0.0749
 7618W        W 8482   6.350   6.161   2.073  0.0805  0.1024  0.0469
 7619W        W 8483   5.985   4.752   1.238 -0.1566 -0.0552  0.3125
 7620W        W 8484   3.365   6.650   4.349 -0.3994 -0.1192 -0.0325
 7621W        W 8485   1.236   6.989   0.664  0.1629 -0.1895  0.0329
 7622W        W 8486   8.654   5.245   2.808  0.0512  0.0645  0.1808
 7623W        W 8487   5.896   1.980   0.635  0.0298  0.4153  0.1664
 7624W        W 8488   7.098   6.861   2.497  0.1752  0.1589 -0.4203
 7625W        W 8489   6.885   3.772   1.112 -0.3602  0.0234 -0.0950
 7626W        W 8490   4.460   3.714   1.210 -0.0642 -0.1084  0.2278
 7627W        W 8491   5.633   6.220   0.713 -0.1502  0.0398  0.0421
 7628W        W 8492   5.806   6.838   1.287 -0.3319 -0.0529  0.5236
 7629W        W 8493   5.298   6.264   0.245 -0.1189 -0.1675  0.1270
 7630W        W 8494   5.871   5.876  11.925 -0.0286  0.0661  0.0552
 7631W        W 8495   6.280   8.158  13.975  0.0353 -0.0176 -0.1390
 7632W        W 8496   4.406   5.798   0.008 -0.1695  0.1883  0.0428
 7633W        W 8497   4.337   5.346   1.814  0.2911  0.0381 -0.0608
 7634W        W 8498   5.359   8.140   1.814 -0.2319 -0.3499  0.1488
 7635W        W 8499   7.558   5.458   0.954  0.3122 -0.2524 -0.4098
 7636W        W 8500   5.227   7.416   0.671 -0.0170  0.0580  0.2105
 7637W        W 8501   6.709   7.492   2.809 -0.2397 -0.1797 -0.1552
 7638W        W 8502   4.555   6.753   2.072  0.3264 -0.0824 -0.0182
 7639W        W 8503   5.914   6.327   1.550  0.0086 -0.1539  0.1925
 7640W        W 8504   5.895   5.752  13.576  0.2760  0.1386  0.1819
 7641W        W 8505   5.504   3.453  10.467  0.1867  0.3625  0.1483
 7642W        W 8506   4.384   4.915  10.591  0.1615 -0.0506 -0.0194
 7643W        W 8507   4.803   7.067   1.140  0.0465 -0.1480 -0.0309
 7644W        W 8508   7.754   5.752   1.796 -0.0879  0.1169  0.2256
 7645W        W 8509   4.163   7.522   1.760 -0.0549  0.0093 -0.2748
 7646W        W 8510   6.357   5.875  12.012  0.1413 -0.0582 -0.2029
 7647W        W 8511   8.341   8.619  13.111  0.0613 -0.3429 -0.1247
 7648W        W 8512   5.230   9.055   1.905 -0.3181 -0.3686 -0.2702
 7649W        W 8513   5.325   6.316   2.204  0.1768 -0.2380 -0.0241
 7650W        W 8514   3.535   4.107   1.158  0.1902  0.2503 -0.1066
 7651W        W 8515   5.779   7.915   0.097 -0.0921  0.0588  0.2268
 7652W        W 8516   6.366   3.848   0.886  0.2878 -0.1175 -0.0348
 7653W        W 8517   4.845   6.950  11.850  0.3473  0.1000 -0.0639
 7654W        W 8518   5.378   4.858  11.448 -0.1205 -0.1593 -0.3496
 7655W        W 8519   3.629   5.827   2.977 -0.1581 -0.0026  0.2702
 7656W        W 8520   4.575   7.388   1.550 -0.2041 -0.0672  0.0800
 7657W        W 8521   5.643   6.151   5.616  0.1169  0.0936  0.3181
 7658W        W 8522   3.008   6.926   2.260 -0.0961  0.1350 -0.3517
 7659W        W 8523   6.607   5.183   3.822 -0.0929 -0.1148  0.2499
 7660W        W 8524   4.712   5.703   3.191  0.2797  0.1062 -0.2488
 7661W        W 8525   7.588   9.351  11.900 -0.0685  0.3044 -0.0673
 7662W        W 8526   8.448   6.717   3.898 -0.0638 -0.2768 -0.1169
 7663W        W 8527   5.548   7.710   1.126  0.1535  0.0549  0.1932
 7664W        W 8528   1.238   6.714   2.116 -0.0157  0.2912  0.1916
 7665W        W 8529   4.759   5.898   9.885  0.3566  0.3303 -0.2922
 7666W        W 8530   2.907   6.308   1.292 -0.1332 -0.0223  0.2212
 7667W        W 8531   4.766   7.834   0.757 -0.0229  0.2227  0.2181
 7668W        W 8532   1.299   6.909   1.567 -0.1129 -0.0652 -0.1632
 7669W        W 8533   6.219   6.131  13.865  0.0385 -0.0435  0.0668
 7670W        W 8534   4.988   3.386   3.230  0.0897 -0.3363 -0.2929
 7671W        W 8535   8.136   6.012  13.919  0.0511  0.1609 -0.0616
 7672W        W 8536   6.898   4.937   4.985  0.2492 -0.2888 -0.0925
 7673W        W 8537   4.979   5.137   2.994 -0.2914  0.2494  0.2142
 7674W        W 8538   7.162   7.742   2.962  0.0430  0.0368  0.0581
 7675W        W 8539   7.446   7.678   2.544  0.1733 -0.0401  0.1038
 7676W        W 8540   4.545   3.550  13.335 -0.0259 -0.1699 -0.0324
 7677W        W 8541   9.123   7.510   3.163 -0.0756  0.1889  0.2167
 7678W        W 8542   3.878   6.614  12.420  0.1056  0.2725 -0.1082
 7679W        W 8543   3.704   7.282  12.954  0.3269 -0.2872  0.1608
 7680W        W 8544   2.111   6.566   1.048 -0.1463  0.0781  0.2502
 7681W        W 8545   6.131   7.018   0.909  0.1840 -0.0227  0.4858
 7682W        W 8546   6.061   6.414   4.276  0.0274 -0.0155 -0.1108
 7683W        W 8547   4.906   3.214  14.003  0.2067  0.2084 -0.1196
 7684W        W 8548   5.773   4.847   0.391 -0.0875  0.2535  0.0792
 7685W        W 8549   7.796   6.464  10.453  0.1407 -0.0506 -0.0381
 7686W        W 8550   3.479   9.169   3.967  0.0430 -0.2693  0.1569
 7687W        W 8551   4.704   5.820  13.024  0.1087 -0.0521 -0.1617
 7688W        W 8552   7.836   6.938   5.107  0.0202 -0.4178  0.1637
 7689W        W 8553   6.167   2.475   1.893  0.3567 -0.0158  0.0959
 7690W        W 8554   4.636   4.632   3.583  0.0496  0.0587 -0.0216
 7691W        W 8555   7.945   5.512   0.614 -0.4321  0.0321  0.0263
 7692W        W 8556   6.411   7.230   1.972 -0.1585  0.3316  0.0744
 7693W        W 8557   6.280   4.750   0.555  0.0488 -0.3647 -0.1445
 7694W        W 8558   5.562   5.920   2.630  0.1712  0.2295 -0.1109
 7695W        W 8559   3.539   7.880   1.208 -0.2908  0.0525  0.1037
 7696W        W 8560   5.881   9.779   2.670  0.4610  0.0792 -0.1573
 7697W        W 8561   4.384   2.993   3.606 -0.4253 -0.0838 -0.1501
 7698W        W 8562   6.675   6.830   4.605  0.2295  0.0882  0.2162
 7699W        W 8563   9.621   6.624  13.790  0.0786 -0.1501  0.0367
 7700W        W 8564   6.418   4.859   1.011  0.1197 -0.1813  0.0106
 7701W        W 8565   6.431   4.278  13.956 -0.0740  0.2114  0.0746
 7702W        W 8566   6.023   8.929  13.862  0.0712  0.1539  0.1988
 7703W        W 8567   4.225   7.284   2.553 -0.2334 -0.3436  0.0377
 7704W        W 8568   7.639   6.113  13.934 -0.1205  0.0477  0.0377
 7705W        W 8569   7.399   4.403   2.173 -0.2077  0.1708  0.0405
 7706W        W 8570   5.765   5.648   0.810 -0.0003  0.2109 -0.1948
 7707W        W 8571   5.671   6.772   4.370  0.1718 -0.2704  0.0212
 7708W        W 8572   6.732   8.611   1.863 -0.0089  0.1502 -0.1619
 7709W        W 8573   3.420   7.228   2.245  0.2784  0.1378  0.0046
 7710W        W 8574   5.074   7.767  12.560 -0.1778 -0.0839  0.0878
 7711W        W 8575   3.651   6.393   1.636 -0.4041 -0.1352 -0.2996
 7712W        W 8576   6.672   4.141   3.060 -0.0237  0.1090  0.0988
 7713W        W 8577   9.332   6.816   2.058 -0.1968 -0.1133 -0.0317
 7714W        W 8578   6.308   6.314   0.444 -0.2188 -0.0346 -0.0290
 7715W        W 8579   6.890   8.408   0.806  0.0109 -0.1398 -0.0965
 7716W        W 8580   2.557   5.899   3.270 -0.4262 -0.1238 -0.0517
 7717W        W 8581   7.545   7.715   0.689 -0.1792  0.0090 -0.0639
 7718W        W 8582   6.834   2.948  12.997 -0.1699 -0.1486 -0.0073
 7719W        W 8583   6.115   5.687   2.826  0.1298 -0.1497  0.3048
 7720W        W 8584   2.650   4.055  13.811 -0.1396 -0.2161 -0.0483
 7721W        W 8585   6.224   4.949  13.356  0.1148  0.2644  0.1476
 7722W        W 8586   8.893   5.148   1.190  0.1635  0.1658  0.0373
 7723W        W 8587   5.256   7.192   1.267  0.0784 -0.1725  0.3292
 7724W        W 8588   6.637   7.073   0.985 -0.0068  0.1135  0.0227
 7725W        W 8589   5.087   3.824   0.191 -0.0601  0.0227 -0.0653
 7726W        W 8590   6.793   5.893   2.740 -0.2709  0.0978 -0.2495
 7727W        W 8591   4.738   9.017   2.277 -0.2580  0.2123 -0.2720
 7728W        W 8592   5.160   7.331  13.069 -0.0951  0.1039 -0.1125
 7729W        W 8593   3.238   5.258   5.221  0.0932  0.0035  0.1533
 7730W        W 8594   7.049   8.405   0.276 -0.2153  0.0236 -0.1798
 7731W        W 8595   7.298   4.851   2.091 -0.1448  0.2030  0.0553
 7732W        W 8596   5.716   7.910   2.138 -0.1353  0.2576 -0.0898
 7733W        W 8597   7.270   8.362   1.470  0.1438 -0.1641  0.1877
 7734W        W 8598   7.199   5.987   3.051 -0.0256  0.2575 -0.0232
 7735W        W 8599   6.659   6.874   2.916  0.1635 -0.0600 -0.1652
 7736W        W 8600   6.598   4.281   2.317  0.0138  0.2259  0.0488
 7737W        W 8601   5.679   8.115   1.420  0.0774 -0.2574 -0.1413
 7738W        W 8602   6.813   5.522   2.250 -0.0358  0.3002  0.1640
 7739W        W 8603   4.196   5.876   3.111 -0.2798  0.2252 -0.0174
 7740W        W 8604   7.297   4.483   1.554  0.2950  0.1762  0.3995
 7741W        W 8605   1.502   3.921   1.429  0.0401  0.1700 -0.0911
 7742W        W 8606   6.380   7.901  13.029 -0.4334  0.2442 -0.1241
 7743W        W 8607   6.833   6.589   1.192 -0.0030  0.2592  0.0825
 7744W        W 8608   3.682   7.858  12.358 -0.0905  0.1257  0.0090
 7745W        W 8609   5.348   6.846   3.090 -0.2238  0.3949  0.0440
 7746W        W 8610   3.753   7.267   1.817 -0.0051 -0.0882 -0.0788
 7747W        W 8611   8.705   4.585   5.904 -0.1546  0.1984 -0.0643
 7748W        W 8612   6.072   4.793   3.684 -0.1067  0.2869 -0.0138
 7749W        W 8613   5.037   2.838   1.499  0.1078  0.0804 -0.0494
 7750W        W 8614   1.719   8.620  13.654 -0.0011 -0.3285  0.0981
 7751W        W 8615   4.186   5.343   0.864 -0.3422  0.0509 -0.0249
 7752W        W 8616   6.331   7.156  13.152  0.1351  0.2605  0.0913
 7753W        W 8617   7.561   5.979   5.853 -0.2420  0.2845 -0.2566
 7754W        W 8618   1.459   7.501  11.801  0.0800  0.0648 -0.0352
 7755W        W 8619   6.173   8.623   1.176  0.1051  0.3475  0.3516
 7756W        W 8620   6.587   8.211   0.374 -0.0725 -0.1960 -0.1141
 7757W        W 8621   5.406   7.231   1.792 -0.2744 -0.3319 -0.1597
 7758W        W 8622   6.105   5.908   1.729 -0.0287  0.1220 -0.2613
 7759W        W 8623   4.878   3.830   2.328  0.2593  0.1823 -0.0813
 7760W        W 8624   7.695   4.185  13.759  0.4161 -0.1801  0.0738
 7761W        W 8625   8.042   9.673   0.571  0.0658  0.3900 -0.1102
 7762W        W 8626   3.520   6.502   1.154  0.2293  0.0522  0.1147
 7763W        W 8627   2.952   8.810  11.955 -0.2718 -0.0715  0.0189
 7764W        W 8628   5.577   7.564   3.846 -0.0758 -0.1332  0.0297
 7765W        W 8629   6.030   7.645  12.842  0.0014  0.3569  0.1950
 7766W        W 8630   6.650   8.707   0.400  0.2337  0.5197  0.3034
 7767W        W 8631   6.636   6.229  11.779  0.1607  0.1998  0.3008
 7768W        W 8632   4.864   6.497   2.425  0.0745 -0.2120 -0.1607
 7769W        W 8633   6.366   3.300  12.297  0.1875 -0.1903 -0.1714
 7770W        W 8634   4.701   5.212   4.949 -0.0764  0.1795  0.3060
 7771W        W 8635   7.611   4.117  12.733 -0.3808 -0.0441 -0.1817
 7772W        W 8636   4.093   3.836   2.175 -0.1977 -0.0185  0.1659
 7773W        W 8637   9.605   5.250   3.135  0.2946  0.2040  0.1612
 7774W        W 8638   5.063   7.618   1.073 -0.1075 -0.3799 -0.1750
 7775W        W 8639   1.923   5.709  12.231 -0.0278 -0.0303 -0.0270
 7776W        W 8640   3.635   6.478  13.939 -0.3112 -0.1905  0.1106
 7777W        W 8641   4.866   5.133   0.552 -0.0513  0.0100  0.2231
 7778W        W 8642   9.066   1.551   1.987 -0.3639  0.0057 -0.3649
 7779W        W 8643   7.753   5.103   3.330  0.0510 -0.0894  0.3919
 7780W        W 8644   6.360   3.421   2.795 -0.1188 -0.2713  0.0569
 7781W        W 8645   6.800   3.092  13.920 -0.1076  0.1010 -0.0202
 7782W        W 8646   5.698   5.194   1.422 -0.0035 -0.4835 -0.1640
 7783W        W 8647   5.857   4.276   1.173  0.0877  0.0287 -0.0921
 7784W        W 8648   4.773   3.801   1.805  0.0319 -0.3226  0.0434
 7785W        W 8649   5.454   6.447  13.808  0.0194  0.0342 -0.1910
 7786W        W 8650   5.217   4.721   2.879 -0.0751 -0.0273 -0.1484
 7787W        W 8651   7.511   6.994  13.359 -0.0450 -0.0291  0.0343
 7788W        W 8652   4.398   4.679   1.944 -0.1322 -0.1618 -0.0883
 7789W        W 8653   3.271   5.231   3.516 -0.1692 -0.0399  0.3482
 7790W        W 8654   7.954   5.483   3.075 -0.0567  0.0333 -0.1312
 7791W        W 8655   1.849   7.269   0.697  0.1641  0.1861 -0.0516
 7792W        W 8656   6.920   5.549  13.045 -0.1736  0.0304 -0.1351
 7793W        W 8657   5.277   6.774  13.201  0.0420 -0.1098  0.1844
 7794W        W 8658   4.013   5.894  10.874  0.1206 -0.1920 -0.4416
 7795W        W 8659   3.670   9.377   4.416  0.0461 -0.1082  0.0962
 7796W        W 8660   7.185   2.184   4.568  0.0423 -0.3139  0.0501
 7797W        W 8661   4.188   5.946   2.595 -0.1163  0.1833  0.0269
 7798W        W 8662   6.749   2.439   2.478 -0.0885  0.2391  0.2126
 7799W        W 8663   8.521   6.829   5.006  0.1405 -0.0384  0.2294
 7800W        W 8664   6.109   6.734   0.483 -0.0904  0.1653  0.2601
 7801W        W 8665   5.365   6.279  12.292  0.2905 -0.3080 -0.0471
 7802W        W 8666   6.033   6.188  12.800 -0.2920  0.2688 -0.3415
 7803W        W 8667   6.655   5.898   0.057  0.0134 -0.2853  0.1709
 7804W        W 8668   1.573   6.240   2.681 -0.2043 -0.0405 -0.3622
 7805W        W 8669   7.621   5.920   3.306  0.1248  0.0019  0.0609
 7806W        W 8670   7.168   7.094   0.298 -0.1610 -0.0503  0.0957
 7807W        W 8671   5.924   5.872   0.384 -0.1802 -0.1657  0.1765
 7808W        W 8672   6.463   1.459  13.844 -0.0896  0.0202  0.1267
 7809W        W 8673   7.026   8.227   9.795  0.0987  0.0297 -0.0918
 7810W        W 8674   3.219   6.126   3.149  0.0924 -0.1266  0.0293
 7811W        W 8675   3.469   5.461  12.866  0.0391 -0.0620 -0.0254
 7812W        W 8676   6.392   5.270   2.090  0.0991  0.2135  0.0958
 7813W        W 8677   5.215   8.624   1.656  0.0006 -0.0459  0.0920
 7814W        W 8678   5.675   6.030   1.211 -0.0170 -0.4453 -0.0082
 7815W        W 8679   2.708   3.925   2.095  0.1541 -0.2037 -0.0346
 7816W        W 8680   5.154   6.935   4.119  0.0907  0.2595 -0.0455
 7817W        W 8681   5.519   5.169  13.448 -0.1193  0.2138  0.3366
 7818W        W 8682   7.235   4.406   0.937  0.1916 -0.2844 -0.1990
 7819W        W 8683   2.786   3.606   3.550  0.2855  0.0273 -0.2001
 7820W        W 8684   6.772   8.119  13.274 -0.0653 -0.0091 -0.1630
 7821W        W 8685   7.204   3.869  13.753 -0.1494 -0.0295 -0.0245
 7822W        W 8686   6.798   1.947   0.497  0.3138  0.1176 -0.0463
 7823W        W 8687   5.638   8.765   0.675 -0.1433  0.1772 -0.0452
 7824W        W 8688   8.142   6.840   2.576 -0.2218  0.2172  0.0750
 7825W        W 8689   3.742   5.947  13.610 -0.0205 -0.1152  0.0989
 7826W        W 8690   4.423   3.743   4.217 -0.3000 -0.0571 -0.4629
 7827W        W 8691   5.628   4.261   2.598  0.1356  0.1458  0.2964
 7828W        W 8692   4.998   6.762  13.833 -0.1081 -0.2061 -0.2369
 7829W        W 8693   6.864   5.701   3.571 -0.0814  0.1387 -0.0816
 7830W        W 8694   4.894   7.563   0.256  0.0544 -0.0962  0.0354
 7831W        W 8695   7.506   5.813   0.563  0.0507  0.0256 -0.0210
 7832W        W 8696   2.062   7.484   0.251  0.2490 -0.1740 -0.0558
 7833W        W 8697   6.882   6.074   2.285 -0.0768 -0.1215 -0.0252
 7834W        W 8698   5.212   4.902   0.827  0.2014  0.1795  0.1695
 7835W        W 8699   3.513   4.542   1.968 -0.0436  0.2375 -0.2084
 7836W        W 8700   4.207   9.159   3.743 -0.0221  0.1709  0.1021
 7837W        W 8701   7.975   7.180   5.660 -0.2133  0.1125 -0.0208
 7838W        W 8702   3.094   8.450   4.540  0.2895  0.4774 -0.0008
 7839W        W 8703   4.462   7.427   1.031 -0.0780  0.2413 -0.0008
 7840W        W 8704   9.622   6.934   1.624 -0.1755  0.0905 -0.0936
 7841W        W 8705   6.191   5.025   2.467 -0.2636  0.0202  0.1978
 7842W        W 8706   3.080   6.451   2.010  0.0740  0.1268 -0.1194
 7843W        W 8707   8.892   6.505   2.136 -0.3123 -0.0730 -0.0675
 7844W        W 8708   5.771   4.341  12.831 -0.3263  0.0139 -0.0048
 7845W        W 8709   5.199   6.209   1.609 -0.1747  0.1772  0.2808
 7846W        W 8710   5.645   5.069   2.201  0.2739 -0.0915 -0.1154
 7847W        W 8711   6.812   5.212   1.285  0.0793  0.1727  0.3919
 7848W        W 8712   5.530   7.706   1.644  0.1118 -0.0984 -0.2565
 7849W        W 8713   5.179   9.079  13.462 -0.1323  0.2054 -0.0060
 7850W        W 8714   6.204   6.176   2.572  0.2004 -0.4130  0.0284
 7851W        W 8715   6.040   6.739  13.019 -0.1019 -0.2336  0.0549
 7852W        W 8716   7.589   6.678  12.561  0.0353 -0.2065 -0.0845
 7853W        W 8717   3.798   6.017   1.872 -0.0521 -0.0571  0.1582
 7854W        W 8718   4.222   5.023  11.946 -0.3968  0.0889  0.0166
 7855W        W 8719   6.242   5.956   1.271  0.2853 -0.2796  0.1017
 7856W        W 8720   3.711   4.683   1.469  0.0633  0.0819 -0.0226
 7857W        W 8721   3.148   9.256   1.423  0.1597 -0.3753  0.0703
 7858W        W 8722   9.854   6.112   2.237 -0.0741  0.0743 -0.1985
 7859W        W 8723   4.665   5.797   2.044 -0.0603  0.2578 -0.1561
 7860W        W 8724   1.512   4.824   2.440 -0.0117  0.0971 -0.0546
 7861W        W 8725   2.694   6.577   2.387 -0.0217  0.2890  0.2010
 7862W        W 8726   5.699   5.548   0.098 -0.2042 -0.2172 -0.1265
 7863W        W 8727   3.008   7.581   2.732  0.1375  0.2427  0.1392
 7864W        W 8728   5.638   8.017   3.955 -0.0920 -0.2586  0.2411
 7865W        W 8729   6.806   4.025  13.524 -0.3089  0.1320 -0.2413
 7866W        W 8730   3.442   6.856   0.199 -0.0068 -0.2241  0.0581
 7867W        W 8731   1.911   6.590   2.943 -0.2689  0.1915  0.1571
 7868W        W 8732   8.492   7.815   0.556  0.3121 -0.2514 -0.2205
 7869W        W 8733   5.475   4.252   4.127 -0.0729  0.0859 -0.3162
 7870W        W 8734   6.040   7.891   0.951 -0.1212  0.3064 -0.3178
 7871W        W 8735   4.468   5.237   2.986  0.1652 -0.1258  0.0473
 7872W        W 8736   3.487   3.146  12.280 -0.1666  0.0112  0.2228
 7873W        W 8737   4.568   6.423  13.837 -0.2709 -0.1316  0.0722
 7874W        W 8738   3.865   6.875   2.716 -0.0321  0.1392  0.0902
 7875W        W 8739   5.537   4.756  13.168 -0.0306 -0.1085 -0.0149
 7876W        W 8740   6.130   6.876   3.841  0.0088 -0.0771 -0.2285
 7877W        W 8741   2.555   5.561   0.181  0.3387 -0.1906 -0.0768
 7878W        W 8742   4.473   6.858   1.601 -0.1684 -0.1326 -0.1372
 7879W        W 8743   6.235   5.584  13.965  0.2751  0.1976 -0.1980
 7880W        W 8744   5.279   8.093   0.877 -0.0403  0.0660 -0.3693
 7881W        W 8745   5.895   6.396   2.042 -0.1646  0.2929  0.0289
 7882W        W 8746   6.822   6.102   0.526 -0.0827 -0.0788  0.1642
 7883W        W 8747   1.429   7.255  13.411  0.3984  0.2413 -0.2738
 7884W        W 8748   2.447   7.724  13.136  0.1190  0.1577 -0.2101
 7885W        W 8749   5.933   4.124   4.338 -0.0501 -0.0074 -0.0326
 7886W        W 8750   3.204   9.398   3.659  0.4331 -0.2040 -0.0653
 7887W        W 8751   8.494   5.077   2.166 -0.3003  0.1155 -0.1111
 7888W        W 8752   3.066   7.856   0.578 -0.0358 -0.0705 -0.1643
 7889W        W 8753   6.728   6.397   2.704  0.0774  0.1695  0.1914
 7890W        W 8754   7.723   6.418   0.765  0.0784  0.0169 -0.1271
 7891W        W 8755   6.169   1.713  10.818  0.2811  0.2470  0.0758
 7892W        W 8756   4.795   4.118  13.448  0.0614 -0.0322 -0.1584
 7893W        W 8757   4.771   2.734   1.015  0.0749 -0.0714  0.1247
 7894W        W 8758   4.473   7.751   2.637  0.0717  0.0218  0.2598
 7895W        W 8759   5.885   3.925  12.455  0.2462  0.2515 -0.2311
 7896W        W 8760   7.381   3.586   2.502  0.2112  0.1450 -0.2258
 7897W        W 8761   3.800   6.746  12.892  0.0349  0.1374 -0.3466
 7898W        W 8762   7.065   8.276   3.336  0.0004  0.0750 -0.1353
 7899W        W 8763   4.327   5.864   1.668  0.0166  0.1692 -0.0986
 7900W        W 8764   4.009   3.808  13.909 -0.3989  0.1105  0.2020
 7901W        W 8765   7.760   9.102   4.785 -0.0895  0.0473 -0.0610
 7902W        W 8766   5.366   7.908  13.809 -0.1397  0.2077 -0.3012
 7903W        W 8767   1.812   6.975  13.340  0.0992  0.0745 -0.0969
 7904W        W 8768   8.566   4.465  11.818  0.0605 -0.1405 -0.0448
 7905W        W 8769   4.657   6.664   0.745 -0.4109  0.2200  0.0718
 7906W        W 8770   7.249   5.299   2.312  0.0362  0.0056 -0.1537
 7907W        W 8771   3.648   6.919   1.373  0.0009 -0.1996  0.2158
 7908W        W 8772   2.331   8.940   1.359 -0.2989 -0.0265  0.3628
 7909W        W 8773   7.455   3.966   0.740  0.3739 -0.1533  0.1247
 7910W        W 8774   1.610   3.853  13.232  0.2513 -0.0457  0.0320
 7911W        W 8775   4.926   5.918   0.528 -0.0739 -0.4190  0.3718
 7912W        W 8776   3.637   7.791  12.924  0.1745  0.1031 -0.4403
 7913W        W 8777   5.685   4.560   0.766  0.5073 -0.2645 -0.1203
 7914W        W 8778   7.246   3.921  12.457  0.4055 -0.3593 -0.0255
 7915W        W 8779   8.255   7.658   3.737  0.0538  0.3806 -0.0630
 7916W        W 8780   8.232   8.795   5.021 -0.1158  0.1339  0.1234
 7917W        W 8781   6.676   6.678   3.493 -0.2357  0.2155 -0.0267
 7918W        W 8782   7.972   6.212   5.158  0.2946  0.1087 -0.2192
 7919W        W 8783   3.900   9.546   0.517  0.1637 -0.1411  0.1000
 7920W        W 8784  10.157   8.082   0.889 -0.4126 -0.1166  0.0589
 7921W        W 8785   8.302   4.868  13.847  0.0911  0.2468 -0.0048
 7922W        W 8786   5.804   3.289  13.645  0.0951 -0.0343 -0.2222
 7923W        W 8787   6.302   5.730   3.659 -0.0634 -0.0369  0.1030
 7924W        W 8788   7.504   6.891   2.189 -0.0804 -0.3573 -0.1790
 7925W        W 8789   7.553   5.152  13.840 -0.3526 -0.2335  0.0308
 7926W        W 8790   5.903   5.553  10.804  0.0800  0.2087  0.0716
 7927W        W 8791   3.487   8.188  12.685  0.0470  0.2302 -0.1343
 7928W        W 8792   3.928   6.807   1.765  0.2314 -0.3096  0.0090
 7929W        W 8793   1.961   8.767  11.697 -0.1598 -0.0422  0.2768
 7930W        W 8794   4.077   7.772   0.821  0.2291  0.0718 -0.0339
 7931W        W 8795   2.613   7.818   3.075  0.2123  0.2796 -0.0318
 7932W        W 8796   6.448   5.751   0.510 -0.1704  0.0810  0.4550
 7933W        W 8797   8.799   4.744   4.730 -0.1020  0.0406 -0.2079
 7934W        W 8798   6.879   5.919  13.485  0.2209  0.1920 -0.0345
 7935W        W 8799   8.035   7.002   1.624 -0.1497  0.2181  0.3131
 7936W        W 8800   5.702   7.112  13.013  0.1625  0.0143  0.0141
 7937W        W 8801   4.745   7.483  12.888  0.0157  0.1645  0.0933
 7938W        W 8802   5.230   3.251   0.348  0.2614  0.3057 -0.1954
 7939W        W 8803   5.012   9.298   1.552  0.0560 -0.0568  0.0746
 7940W        W 8804   6.451   6.349   1.505  0.0572 -0.1399  0.1574
 7941W        W 8805   2.225   7.710   3.379 -0.0993 -0.1853  0.1411
 7942W        W 8806   4.196   7.144   0.583  0.1470 -0.2051 -0.1431
 7943W        W 8807   6.072   8.439   0.303  0.2139  0.0040  0.1399
 7944W        W 8808   5.122   6.383   0.699  0.0557 -0.0707 -0.0947
 7945W        W 8809   4.964   7.726   1.588  0.1412 -0.1693  0.0212
 7946W        W 8810   6.851   5.356   1.794 -0.0907  0.0069 -0.2054
 7947W        W 8811   4.895   8.515  12.024 -0.0339 -0.1932  0.1010
 7948W        W 8812   7.655   8.889   5.339 -0.0873 -0.0723 -0.1792
 7949W        W 8813   7.311   3.923   3.308  0.0180  0.1354  0.0014
 7950W        W 8814   4.522   8.758  12.438 -0.1583  0.1177  0.2105
 7951W        W 8815   5.634   4.535   0.015 -0.0396  0.2532 -0.0883
 7952W        W 8816   8.368   4.443   0.641  0.1126 -0.2036 -0.0214
 7953W        W 8817   2.353   3.456  13.208 -0.0143 -0.0637 -0.0489
 7954W        W 8818   5.585   2.658   0.186 -0.6587 -0.1140  0.0474
 7955W        W 8819   5.867   7.994  13.116  0.0723  0.0126 -0.0020
 7956W        W 8820   7.036   4.183   0.460  0.2384 -0.3650  0.1303
 7957W        W 8821   4.810   6.970  12.927  0.2926 -0.1234 -0.1246
 7958W        W 8822   5.016   4.664   1.308  0.0363 -0.2844  0.2917
 7959W        W 8823   5.756   6.326   0.283 -0.5419 -0.1640  0.1969
 7960W        W 8824   5.691   7.122   3.972  0.2984 -0.1387  0.0022
 7961W        W 8825   7.660   6.257   1.897  0.0588  0.1176  0.3329
 7962W        W 8826   2.357   4.056   3.124 -0.1884  0.2247 -0.1063
 7963W        W 8827   7.109   7.196   2.887 -0.2310  0.1405 -0.4068
 7964W        W 8828   2.768   8.365   3.037  0.0112  0.0379  0.0451
 7965W        W 8829   4.288   8.541   4.811  0.1535  0.3517 -0.0700
 7966W        W 8830   6.476   6.606   0.864  0.1032  0.2790  0.0725
 7967W        W 8831   5.559   8.465   4.230 -0.0984 -0.0290 -0.3360
 7968W        W 8832   5.420   6.229   3.575  0.1566 -0.0473 -0.1558
 7969W        W 8833   7.308   7.206   0.776 -0.0643  0.0944  0.0271
 7970W        W 8834   5.415   8.658   2.093 -0.3753  0.3344  0.0361
 7971W        W 8835   7.006   7.419   2.404  0.1970 -0.0546 -0.0098
 7972W        W 8836   6.071   4.128   2.947  0.1141  0.2362 -0.0450
 7973W        W 8837   5.916   9.025   5.156 -0.0166 -0.0769  0.2373
 7974W        W 8838   4.875   7.936  13.829 -0.1720  0.2440 -0.1032
 7975W        W 8839   5.205   7.981  11.673 -0.4967 -0.0744  0.0191
 7976W        W 8840   5.680   7.335   2.262 -0.3138  0.1289 -0.1787
 7977W        W 8841   3.304   9.198   1.936  0.0670 -0.0273  0.1935
 7978W        W 8842   3.862   4.789   4.799 -0.3978  0.2395 -0.0025
 7979W        W 8843   4.564   9.411  11.108  0.2379  0.0977 -0.1282
 7980W        W 8844   4.774   5.896   5.926  0.1002  0.0969 -0.1942
 7981W        W 8845   2.114   7.399   1.410 -0.1414  0.1417 -0.1236
 7982W        W 8846   4.834   4.670  10.268  0.0533 -0.1021  0.0067
 7983W        W 8847   3.374   8.279   5.841  0.1706 -0.0398  0.0762
 7984W        W 8848   3.482   7.762   6.123  0.1700  0.0870 -0.2440
 7985W        W 8849   8.796   5.208   5.788  0.1689 -0.1715 -0.0609
 7986W        W 8850   7.019   5.199   4.566 -0.1041  0.1310 -0.0477
 7987W        W 8851   5.937   5.527   3.333  0.0945 -0.2893 -0.2837
 7988W        W 8852   4.906   7.055   3.342  0.0692  0.2441  0.0860
 7989W        W 8853   1.482   5.693   5.673 -0.0121  0.1762  0.0304
 7990W        W 8854   4.228   7.189   8.004  0.1274 -0.3239 -0.0665
 7991W        W 8855   5.698   4.527   4.504  0.1666 -0.1246  0.0293
 7992W        W 8856   6.486   5.698   4.142 -0.2224  0.1460  0.2514
 7993W        W 8857   5.211   3.265   2.354  0.2577 -0.3145 -0.4894
 7994W        W 8858   5.589   4.724   6.247 -0.0412 -0.2456  0.0271
 7995W        W 8859   1.436   4.830   4.714 -0.0427 -0.0360  0.1289
 7996W        W 8860   1.880   8.011   9.173 -0.1802 -0.4159 -0.0028
 7997W        W 8861   2.460   6.383   4.603  0.2828 -0.1578  0.0905
 7998W        W 8862   3.300   3.947   5.707 -0.1221 -0.0476 -0.0036
 7999W        W 8863   3.831   1.049   8.691  0.2432 -0.1838  0.0176
 8000W        W 8864   6.989   4.250   5.368  0.2379 -0.1812 -0.1820
 8001W        W 8865   6.161   4.621   5.654 -0.1338  0.0009 -0.0480
 8002W        W 8866   5.135   4.301   5.236  0.4783 -0.0904 -0.2655
 8003W        W 8867   3.567   6.695   5.303 -0.3757 -0.0079  0.0202
 8004W        W 8868   3.695   6.301   7.255  0.0221  0.2335  0.0463
 8005W        W 8869   4.623   5.565   5.296  0.0075  0.1969  0.0326
 8006W        W 8870   3.108   6.396   5.298 -0.0041 -0.0809 -0.0701
 8007W        W 8871   3.204   4.288   4.740 -0.0301 -0.0697 -0.0069
 8008W        W 8872   3.060   6.082   4.871  0.1386 -0.1739 -0.1920
 8009W        W 8873   6.446   4.902   4.825  0.0251  0.2013  0.0356
 8010W        W 8874   4.650   5.237   4.008  0.1747 -0.3714  0.1208
 8011W        W 8875   6.522   5.564   3.241 -0.0111 -0.1549 -0.0621
 8012W        W 8876   3.649   5.423   6.071  0.1545 -0.2673 -0.1042
 8013W        W 8877   6.569   8.201   4.373 -0.1932  0.1777  0.1938
 8014W        W 8878   5.325   6.589   5.775 -0.1914 -0.2831 -0.0846
 8015W        W 8879   4.790   3.400   7.353  0.2099 -0.1560  0.1531
 8016W        W 8880   5.500   6.377   3.084  0.1220 -0.0468  0.2024
 8017W        W 8881   3.765   4.226   2.358  0.0830  0.4076 -0.3615
 8018W        W 8882   5.532   4.571   3.737 -0.0177  0.0514 -0.2849
 8019W        W 8883   6.208   4.472   4.643 -0.0660  0.0416 -0.0759
 8020W        W 8884   4.990   4.897   8.031 -0.1588 -0.0916  0.0417
 8021W        W 8885   6.235   3.246   2.258  0.2022  0.0402 -0.1776
 8022W        W 8886   6.123   4.678   5.127 -0.4812  0.0144 -0.1463
 8023W        W 8887   5.113   7.687   3.952  0.1107 -0.0127 -0.1680
 8024W        W 8888   6.215   6.914   4.322 -0.1400 -0.1294  0.0043
 8025W        W 8889   2.946   6.712   2.840 -0.1087  0.0616 -0.2806
 8026W        W 8890   4.214  11.105   4.460  0.1972 -0.0117  0.0429
 8027W        W 8891   7.064   2.094   6.190  0.3818  0.3409 -0.0222
 8028W        W 8892   6.866   4.320   6.809 -0.0236  0.0512  0.1166
 8029W        W 8893   6.989   5.400   4.076 -0.2835  0.0155  0.1204
 8030W        W 8894   7.248   6.434   2.148 -0.0453  0.1780  0.0604
 8031W        W 8895   7.225   5.529   3.251  0.1000 -0.3492 -0.1738
 8032W        W 8896   6.366   5.063   3.253  0.0161 -0.1471 -0.1973
 8033W        W 8897   4.235   7.923   4.988 -0.0164  0.0796 -0.1782
 8034W        W 8898   6.641   4.610   3.199 -0.3593 -0.1970 -0.0280
 8035W        W 8899   5.739   4.851   2.660  0.1578 -0.2412 -0.0967
 8036W        W 8900   4.170   6.871   3.676 -0.1482  0.0995 -0.1501
 8037W        W 8901   6.658   5.355   4.946 -0.2267  0.0724  0.0373
 8038W        W 8902   6.536   7.896   0.806  0.0590 -0.0474 -0.1495
 8039W        W 8903   1.520   5.281   3.286  0.0333 -0.0561  0.1797
 8040W        W 8904   5.415   4.824   4.142  0.0065 -0.0486  0.3630
 8041W        W 8905   4.279   6.384   2.921 -0.1571  0.3276 -0.0714
 8042W        W 8906   3.920   4.679   3.897  0.1904  0.1039  0.2638
 8043W        W 8907   2.013   4.070   3.576  0.3223  0.0225  0.3133
 8044W        W 8908   3.401   2.652   7.419  0.0578 -0.0394 -0.1687
 8045W        W 8909   5.362   4.950   4.597 -0.1020 -0.0674  0.1345
 8046W        W 8910   6.348   7.522   3.260 -0.3257  0.0132  0.5715
 8047W        W 8911   3.422   4.597   3.995 -0.0826 -0.0946 -0.0969
 8048W        W 8912   5.677   9.971   3.639  0.0356 -0.0682  0.1366
 8049W        W 8913   4.755   5.919   1.375  0.0623  0.0589 -0.1996
 8050W        W 8914   8.391   3.253   6.120 -0.2775 -0.2820  0.2496
 8051W        W 8915   6.044   6.475   1.099 -0.0736  0.0524 -0.0616
 8052W        W 8916   8.245   7.563   4.354 -0.0509  0.1306  0.1846
 8053W        W 8917   6.313   5.103   6.864 -0.0152 -0.0479 -0.1404
 8054W        W 8918   7.298   5.577   4.466  0.2695 -0.0510  0.3279
 8055W        W 8919   3.295   7.049   4.024 -0.0883  0.4554  0.0974
 8056W        W 8920   4.502   5.572   2.493  0.0147 -0.0168  0.0301
 8057W        W 8921   2.177   4.629   6.845  0.1477 -0.0115 -0.1666
 8058W        W 8922   6.926   5.346   5.393 -0.0067  0.1131 -0.1047
 8059W        W 8923   3.807   5.120   3.556  0.0537  0.3209  0.1118
 8060W        W 8924   4.247   5.832   5.948 -0.1692  0.1175  0.0975
 8061W        W 8925   2.901   2.193  10.014 -0.3633 -0.1114 -0.2704
 8062W        W 8926   5.364   2.755   8.090  0.0445  0.1545 -0.0635
 8063W        W 8927   6.506   5.551   6.823 -0.0062 -0.2649 -0.0235
 8064W        W 8928   6.337   3.721   5.238  0.0395  0.1189 -0.1535
 8065W        W 8929   6.841   5.220   3.310 -0.1862  0.0990 -0.1309
 8066W        W 8930   7.044   5.363   6.710 -0.3383 -0.0325 -0.2464
 8067W        W 8931   6.785   4.285   6.208 -0.1575  0.0195 -0.0442
 8068W        W 8932   8.111   7.736   6.048  0.0113 -0.1633 -0.0692
 8069W        W 8933   9.410   2.809   4.181 -0.0972 -0.1403  0.0237
 8070W        W 8934   6.705   4.467   5.722 -0.0423 -0.1565 -0.2979
 8071W        W 8935   5.431   6.522   6.829  0.2885  0.0143  0.1598
 8072W        W 8936   3.374   8.567   4.904 -0.2478  0.0842  0.0334
 8073W        W 8937   6.662   3.927   5.648 -0.2793  0.0785 -0.1087
 8074W        W 8938   5.239   3.729   6.106  0.2425 -0.0687 -0.0931
 8075W        W 8939   7.499   4.427   6.716 -0.1987 -0.0128  0.3695
 8076W        W 8940   7.599   3.569   5.629  0.0585  0.2076 -0.1465
 8077W        W 8941   4.218   4.019   7.402 -0.1845 -0.1660 -0.0535
 8078W        W 8942   5.726   7.350   1.361  0.0794  0.2456 -0.0223
 8079W        W 8943   7.996   4.047   8.936 -0.2149 -0.0485 -0.4824
 8080W        W 8944   9.806   7.298   2.674  0.2178 -0.0385  0.1816
 8081W        W 8945   1.566   5.668   4.223  0.0818  0.1453 -0.0005
 8082W        W 8946   6.273   6.706   1.916 -0.1426  0.0574  0.1855
 8083W        W 8947   7.342   7.792   5.431 -0.0547  0.0274 -0.1211
 8084W        W 8948   5.946   4.097   6.839 -0.1998  0.3487  0.0202
 8085W        W 8949   8.083   3.984   6.354  0.2390 -0.0834 -0.2188
 8086W        W 8950   2.622   8.365   4.498 -0.0289 -0.0611 -0.4094
 8087W        W 8951   5.068   5.871   5.371 -0.1324  0.0212 -0.0669
 8088W        W 8952   5.898   4.930   4.161  0.1510 -0.4359 -0.0628
 8089W        W 8953   5.716   5.033   5.047 -0.0041 -0.1668  0.1560
 8090W        W 8954   4.799   5.014   6.647 -0.0297  0.0155  0.0647
 8091W        W 8955   5.823   7.761   2.611  0.1967  0.2921 -0.2820
 8092W        W 8956   5.459   5.207   5.885 -0.0708  0.0162 -0.1022
 8093W        W 8957   5.203   8.261   3.950  0.0364 -0.0686  0.0033
 8094W        W 8958   9.036   7.310   1.276  0.0312  0.1291  0.1263
 8095W        W 8959  10.101   6.366   4.031  0.1398 -0.3084 -0.2304
 8096W        W 8960   6.674   1.683   7.663 -0.0483 -0.0279  0.0995
 8097W        W 8961   4.340   6.749   4.161  0.0564  0.0320 -0.0042
 8098W        W 8962   8.253   5.354   6.031  0.1334 -0.2723  0.2664
 8099W        W 8963   7.433   7.320   3.844  0.0969 -0.0570  0.0026
 8100W        W 8964   7.360   6.319   3.943  0.5047 -0.0998 -0.0589
 8101W        W 8965   8.497   6.260   5.176  0.0954 -0.1776 -0.0975
 8102W        W 8966   5.072   5.337   5.353 -0.1799  0.5866 -0.2251
 8103W        W 8967   8.049   5.199   4.195  0.0828  0.0650  0.1123
 8104W        W 8968   3.807   2.986   6.089  0.1585 -0.0147 -0.1166
 8105W        W 8969   6.300   6.675   6.866  0.0765 -0.0293  0.1851
 8106W        W 8970   7.857   6.297   6.218 -0.2160 -0.0229  0.1311
 8107W        W 8971   3.237   6.581   4.854 -0.1707 -0.0767 -0.0730
 8108W        W 8972   5.899   7.246   4.499 -0.0458  0.2899 -0.0596
 8109W        W 8973   7.801   6.408   4.139  0.1933  0.0408  0.0963
 8110W        W 8974   3.862   7.092   5.499  0.0350 -0.0588 -0.1622
 8111W        W 8975   7.301   3.327   4.255 -0.1734 -0.0108 -0.0496
 8112W        W 8976   6.825   4.973   6.895 -0.0189  0.0380 -0.1032
 8113W        W 8977   5.546   6.141   7.725 -0.2444  0.5353 -0.2452
 8114W        W 8978   7.594   5.379   4.084 -0.2820  0.5923 -0.2054
 8115W        W 8979   9.216   0.784   4.935 -0.0826  0.1628  0.1662
 8116W        W 8980   7.586   4.759   5.431 -0.1057 -0.2136  0.2270
 8117W        W 8981   3.589   7.789   4.387  0.0348  0.1178  0.2361
 8118W        W 8982   4.403   3.116   5.236 -0.0282  0.0772 -0.0806
 8119W        W 8983   2.774   8.557   2.482 -0.0318 -0.0220  0.1743
 8120W        W 8984   0.896   7.645   2.467 -0.2784  0.2839 -0.5259
 8121W        W 8985   3.907   4.938   6.427 -0.1623 -0.0481  0.1192
 8122W        W 8986   5.247   3.469   6.555 -0.1054  0.0053 -0.0738
 8123W        W 8987   5.929   4.975   5.971 -0.0464 -0.1581  0.1226
 8124W        W 8988   5.710   6.011   5.110  0.2334  0.0498  0.2532
 8125W        W 8989   6.779   8.575   3.649  0.1032  0.3210 -0.0198
 8126W        W 8990   2.413   8.863   4.645  0.4728  0.1059 -0.1073
 8127W        W 8991   7.183   5.616   5.789  0.3719 -0.1065  0.0458
 8128W        W 8992   3.922   4.701   2.233 -0.0601 -0.2989 -0.1085
 8129W        W 8993   6.716   3.854   6.711  0.0826 -0.0745  0.0632
 8130W        W 8994   2.253   6.970   2.131  0.4498 -0.1255 -0.1127
 8131W        W 8995   2.872   6.366   5.976 -0.0641 -0.0513 -0.0442
 8132W        W 8996   8.111   5.698   3.497  0.2133 -0.1647  0.0161
 8133W        W 8997   3.334   3.973   5.127 -0.1385  0.0835  0.4907
 8134W        W 8998   7.077   2.782   3.398 -0.0317 -0.3944 -0.1969
 8135W        W 8999   4.550   4.688   4.087  0.0631 -0.0179  0.4003
 8136W        W 9000   5.274   6.358   5.278  0.0765  0.1063  0.2169
 8137W        W 9001   5.188   4.480   2.464 -0.2493  0.2042 -0.1463
 8138W        W 9002   4.437   6.226   4.154  0.0114 -0.2305  0.1806
 8139W        W 9003   5.538   3.863   6.484 -0.1498  0.2988  0.2868
 8140W        W 9004   6.387   4.205   5.350  0.4650 -0.2463 -0.3962
 8141W        W 9005   5.702   3.321   6.443 -0.0868 -0.1999 -0.2268
 8142W        W 9006   5.900   5.341   6.784 -0.2669  0.1232  0.0173
 8143W        W 9007   4.621   5.285   6.258 -0.2580 -0.3035 -0.1963
 8144W        W 9008   4.808   8.091   3.164 -0.4482 -0.2054  0.1567
 8145W        W 9009   4.705   8.623   3.546  0.0254  0.1035 -0.0774
 8146W        W 9010   3.332   6.532   3.509 -0.0386  0.2540 -0.1730
 8147W        W 9011   7.243   8.600   2.435 -0.1335 -0.1241  0.2609
 8148W        W 9012   5.940   7.125  13.526  0.2295 -0.0712 -0.2801
 8149W        W 9013   4.672   5.997   2.753 -0.1042 -0.0452  0.2177
 8150W        W 9014   8.065   6.473   0.028 -0.1200  0.3062 -0.1096
 8151W        W 9015   4.770   5.083   2.568 -0.0390  0.1101  0.1339
 8152W        W 9016   8.651   2.692   4.844  0.2169 -0.0669 -0.2460
 8153W        W 9017   3.925   8.300   5.254  0.1359  0.3090  0.0661
 8154W        W 9018   2.925   6.372   6.927  0.1151  0.0598 -0.2082
 8155W        W 9019   4.287   9.057   1.951 -0.2565  0.0920 -0.0399
 8156W        W 9020   7.851   2.976   6.383  0.0197 -0.2234 -0.0375
 8157W        W 9021   4.147   9.313   1.506 -0.0366 -0.0469 -0.1806
 8158W        W 9022   7.132   6.699   4.848  0.0856 -0.0499 -0.0003
 8159W        W 9023   7.520   5.976   6.360  0.1407  0.1708 -0.3644
 8160W        W 9024   7.059   6.017   4.240 -0.1544  0.1486  0.1872
 8161W        W 9025   4.601   7.399   7.551 -0.0870  0.2584  0.0332
 8162W        W 9026   9.669   4.836   6.014  0.0751 -0.0461  0.0257
 8163W        W 9027   6.186   2.878   6.272  0.0512  0.0198 -0.0040
 8164W        W 9028   7.722   4.958   3.828  0.0458  0.1902 -0.0183
 8165W        W 9029   5.200   5.529   0.856  0.0551 -0.2927 -0.3936
 8166W        W 9030   3.149   3.951   1.818  0.1250 -0.1796  0.2321
 8167W        W 9031   3.459   6.649   2.423  0.1597  0.2550 -0.0909
 8168W        W 9032   2.606   7.088   5.814 -0.4012 -0.1078  0.3070
 8169W        W 9033   3.414   2.566   5.058 -0.1127  0.3580 -0.0056
 8170W        W 9034   5.560   5.687   3.641 -0.2634  0.1476 -0.2816
 8171W        W 9035  11.195   0.830   4.808 -0.1577  0.0303 -0.0769
 8172W        W 9036   6.245   5.443   6.080  0.1712 -0.0374 -0.0338
 8173W        W 9037   2.445   3.602   4.871 -0.1576  0.0459  0.0607
 8174W        W 9038   4.944   3.182   6.149 -0.1282 -0.0666 -0.0103
 8175W        W 9039   6.781   2.560   3.792  0.0039 -0.1969  0.1375
 8176W        W 9040   5.276   7.634   2.057  0.0424 -0.1449  0.0818
 8177W        W 9041   6.222   4.502   4.171  0.4190 -0.1867  0.0044
 8178W        W 9042   6.086   6.688   4.766  0.0449 -0.4834  0.0974
 8179W        W 9043   4.357   6.049   4.792 -0.0428  0.3226  0.1304
 8180W        W 9044   6.088   3.283   5.015 -0.2629  0.1428 -0.0243
 8181W        W 9045   4.291   2.371   5.331  0.0160  0.4233  0.0275
 8182W        W 9046   3.104   5.957   7.273  0.2738 -0.0190 -0.0393
 8183W        W 9047   7.893   5.109   6.324  0.1195  0.0390 -0.3059
 8184W        W 9048   3.438   5.767   5.228 -0.0894  0.0522 -0.2938
 8185W        W 9049   3.416   6.821   1.961  0.1239  0.0610  0.1977
 8186W        W 9050   2.782   7.279   8.117 -0.0053  0.0492 -0.1086
 8187W        W 9051   3.427   5.719   6.471 -0.0143  0.1033  0.2713
 8188W        W 9052   3.079   4.927   4.601 -0.1717 -0.1265 -0.2651
 8189W        W 9053   9.295   5.020   8.174 -0.2989 -0.1262  0.2787
 8190W        W 9054   9.357   4.542   4.707 -0.1558  0.0272  0.1544
 8191W        W 9055  10.692   6.824   5.848 -0.0821 -0.1358 -0.0302
 8192W        W 9056   8.228   7.939   5.084  0.2077 -0.2183  0.0807
 8193W        W 9057   5.376   7.370   4.278 -0.1561 -0.0682  0.2290
 8194W        W 9058   3.545   2.627   8.206 -0.0307  0.1487  0.2799
 8195W        W 9059   2.531   8.076   8.645 -0.1166 -0.4744 -0.0571
 8196W        W 9060   7.374   5.017   5.036  0.2030 -0.0135 -0.1667
 8197W        W 9061   7.504   4.166   5.582 -0.1557 -0.1101  0.0645
 8198W        W 9062   4.144   5.377   6.170 -0.1200 -0.1723 -0.0971
 8199W        W 9063   4.562   4.192   4.382  0.2003 -0.1766 -0.0330
 8200W        W 9064   5.388   3.576   5.669  0.0669 -0.0538  0.1181
 8201W        W 9065   6.395   5.633   7.352  0.0321  0.1834 -0.1366
 8202W        W 9066   7.135   6.981   4.388 -0.0471 -0.1969 -0.0251
 8203W        W 9067   6.798   7.151   5.706 -0.1836  0.1144 -0.3854
 8204W        W 9068   3.907   3.739   4.842 -0.2094 -0.1364 -0.0517
 8205W        W 9069   4.514   7.516   6.643  0.1228  0.0240 -0.1354
 8206W        W 9070   2.754   6.132   3.662  0.0387 -0.0716 -0.0924
 8207W        W 9071  12.080   5.660   5.580 -0.0487  0.2129  0.0203
 8208W        W 9072   7.545   5.605   8.057 -0.2355  0.2180 -0.0233
 8209W        W 9073   7.804   7.614   6.900  0.2189 -0.0041 -0.0983
 8210W        W 9074   9.214   6.482   5.729 -0.1109  0.0222  0.1946
 8211W        W 9075   6.015   5.861   4.286  0.0565  0.5203 -0.1319
 8212W        W 9076   7.091   6.038   4.768  0.1015 -0.1402 -0.2934
 8213W        W 9077   9.749   7.677   6.055  0.0898 -0.4366  0.1019
 8214W        W 9078   6.466   6.138   4.342  0.0732  0.0986  0.0714
 8215W        W 9079   2.734   3.356   5.351  0.1164 -0.1834 -0.3156
 8216W        W 9080   6.586   3.428   5.567 -0.1919 -0.0161 -0.1941
 8217W        W 9081   5.182   4.516   4.456  0.1884 -0.2254 -0.0730
 8218W        W 9082   8.860   7.176   6.221  0.0818  0.1085  0.2078
 8219W        W 9083   7.742   4.752   2.306 -0.1668  0.2008 -0.2407
 8220W        W 9084   8.817   6.064   7.477  0.0906 -0.0322  0.2193
 8221W        W 9085   2.533   7.761   6.293 -0.0417 -0.0121  0.0976
 8222W        W 9086  10.019   7.224   4.191  0.1055  0.6967  0.3371
 8223W        W 9087   4.933   7.504   4.467 -0.2752  0.1832  0.0344
 8224W        W 9088   4.798   5.193   1.943  0.0124 -0.0806  0.1812
 8225W        W 9089   4.556   5.714   4.054 -0.1211 -0.1009 -0.1857
 8226W        W 9090   7.729   5.549   7.532 -0.0255 -0.2535  0.1287
 8227W        W 9091   6.786   5.656   4.516  0.2810  0.1607 -0.2492
 8228W        W 9092   2.068   5.478   2.066 -0.5620  0.0679 -0.0112
 8229W        W 9093   6.672   5.785   5.738  0.0196  0.2280  0.1229
 8230W        W 9094   5.599   3.918   1.641  0.0498  0.1264  0.0995
 8231W        W 9095   3.632   4.186   6.198 -0.2483  0.2340 -0.2046
 8232W        W 9096   3.478   4.601   2.542 -0.0007 -0.3018  0.0013
 8233W        W 9097   9.214   5.489   6.042  0.2933 -0.1799  0.4447
 8234W        W 9098   1.304   6.027   5.211 -0.1679 -0.1495 -0.0017
 8235W        W 9099   3.809   3.799   6.453  0.0404  0.0499 -0.0916
 8236W        W 9100   7.283   8.525   5.810 -0.0043  0.3289  0.2978
 8237W        W 9101   5.490   6.424   6.215  0.0852  0.2784  0.0650
 8238W        W 9102   5.944   5.059   5.496  0.2094 -0.1099  0.2361
 8239W        W 9103   4.090   3.408   6.164 -0.1905  0.0373  0.0220
 8240W        W 9104   4.640   6.147   3.327  0.0668 -0.3816 -0.0030
 8241W        W 9105   7.428   5.715   6.789  0.2490 -0.2682  0.0701
 8242W        W 9106   4.187   5.550   5.083 -0.2606 -0.2800  0.2128
 8243W        W 9107   8.606   3.352   5.559  0.0146  0.0248 -0.0517
 8244W        W 9108   2.301   5.830   2.782 -0.0355 -0.4504 -0.0255
 8245W        W 9109   8.163   4.266   6.935 -0.0034  0.0734  0.2411
 8246W        W 9110   4.791   3.630   6.350  0.1580  0.1751  0.2810
 8247W        W 9111   3.628   4.453   4.485 -0.0673  0.0073 -0.1425
 8248W        W 9112   6.685   8.421   6.660 -0.0718 -0.1364 -0.1851
 8249W        W 9113   4.748   3.502   8.209 -0.1594 -0.1734 -0.0098
 8250W        W 9114   2.336   3.812   6.500  0.2427 -0.1117  0.0696
 8251W        W 9115   4.838   3.882   5.547 -0.2559  0.1314 -0.1314
 8252W        W 9116   8.078   4.561   5.535  0.1426  0.0999 -0.0091
 8253W        W 9117   3.280   6.052   3.636 -0.2230  0.1529 -0.1179
 8254W        W 9118   5.671   6.697   5.412  0.0691  0.0851 -0.1394
 8255W        W 9119   7.449   4.003   3.936  0.1148  0.1821  0.0562
 8256W        W 9120   5.179   5.095   6.286  0.1651 -0.1903  0.1458
 8257W        W 9121   5.868   8.036   4.779  0.3771 -0.2593  0.2943
 8258W        W 9122   8.421   0.013   7.150 -0.0438  0.0090 -0.0735
 8259W        W 9123   4.267   4.900   6.052 -0.3331  0.0388  0.1876
 8260W        W 9124   6.806   5.365   5.952 -0.1140 -0.1489  0.1174
 8261W        W 9125   3.808   3.221   6.741 -0.0354 -0.0096  0.0366
 8262W        W 9126   8.121   3.434   4.381  0.0204  0.0458 -0.2034
 8263W        W 9127   9.145   6.375   5.149 -0.0386 -0.2030 -0.1650
 8264W        W 9128   5.925   5.915   2.217 -0.1121 -0.0761  0.3364
 8265W        W 9129   9.255   4.034   4.857 -0.0158 -0.1871  0.0566
 8266W        W 9130   5.016   5.730   3.672 -0.2978  0.0400 -0.1759
 8267W        W 9131   3.810   3.295   4.598  0.3434  0.1181 -0.0907
 8268W        W 9132   2.517   5.372   2.738  0.0650 -0.1178 -0.0062
 8269W        W 9133   7.089   5.360   2.774  0.1253  0.1115  0.0623
 8270W        W 9134   5.220   6.081   5.824 -0.3130 -0.3873  0.3152
 8271W        W 9135   7.414   5.359   5.409  0.4574  0.0295  0.0257
 8272W        W 9136   8.042   5.882   5.891 -0.2171  0.0300 -0.0659
 8273W        W 9137   0.055   5.239   6.177 -0.2119 -0.2686  0.4495
 8274W        W 9138   4.879   8.252   2.716  0.3110  0.0121 -0.0595
 8275W        W 9139   5.228   3.043   8.530  0.0753  0.2223  0.0656
 8276W        W 9140   2.694   7.310   6.423 -0.0154  0.1661  0.1235
 8277W        W 9141   9.904   4.910   5.584 -0.1201  0.1584  0.3253
 8278W        W 9142   6.772   3.879   3.861  0.2100  0.0103  0.1560
 8279W        W 9143   8.311   3.117   3.590 -0.0362 -0.0674  0.0469
 8280W        W 9144   6.348   4.661   6.130  0.1087 -0.0586  0.0688
 8281W        W 9145   9.164   2.261   5.961  0.0376 -0.0895 -0.1637
 8282W        W 9146   4.305   3.759   6.564  0.1934  0.2512 -0.0196
 8283W        W 9147   3.724   6.555   4.699  0.2053 -0.1840  0.0899
 8284W        W 9148   5.098   3.882   3.254 -0.1352 -0.0489 -0.1394
 8285W        W 9149   6.516   6.160   4.837  0.0506 -0.4038  0.1041
 8286W        W 9150   5.778   5.502   2.521  0.2191 -0.1106  0.1680
 8287W        W 9151   8.562   5.130   4.358  0.0367 -0.0434  0.1556
 8288W        W 9152   4.716   7.020   5.258 -0.3175  0.3536  0.0601
 8289W        W 9153   4.923  11.572  10.126 -0.0045  0.0638  0.1870
 8290W        W 9154   7.699   4.875   1.668 -0.0615  0.0789  0.1411
 8291W        W 9155   5.825   5.508   5.260 -0.3010 -0.3293  0.1370
 8292W        W 9156   3.334   4.055   4.041 -0.2826  0.0626  0.0654
 8293W        W 9157   4.889   6.015   4.225 -0.0726  0.2369  0.1993
 8294W        W 9158   6.115   9.157   3.346  0.0538 -0.4037  0.1401
 8295W        W 9159   3.335   3.453   7.776 -0.0130 -0.0738 -0.1453
 8296W        W 9160   5.051   5.515   4.298 -0.0633 -0.3172  0.1740
 8297W        W 9161   2.160   7.751   5.123 -0.0818 -0.1689 -0.1358
 8298W        W 9162   3.746   9.169   3.466 -0.2125 -0.0296  0.0736
 8299W        W 9163   5.655   3.088   5.045 -0.1434  0.0456  0.4849
 8300W        W 9164   3.981   8.526   2.953 -0.0322  0.1649  0.3087
 8301W        W 9165   6.068   6.095   0.821  0.0465 -0.2833 -0.2595
 8302W        W 9166   2.347   7.321   4.204  0.0524 -0.3258 -0.1134
 8303W        W 9167   5.487   2.196   9.785  0.0660 -0.2549 -0.0233
 8304W        W 9168   8.360   3.891   4.375  0.1711 -0.0193  0.1652
 8305W        W 9169   7.875   3.793   5.244  0.1535 -0.0632 -0.3643
 8306W        W 9170   4.903   6.534   7.549  0.0699 -0.2602 -0.1584
 8307W        W 9171   5.787   4.078   8.877  0.0839  0.3112  0.2153
 8308W        W 9172   6.196   5.113   8.999 -0.1343 -0.2361 -0.1322
 8309W        W 9173   5.115   5.346   4.749  0.1624  0.2876 -0.0372
 8310W        W 9174   6.904   6.405   4.502  0.4021 -0.0765  0.1353
 8311W        W 9175   3.861   4.689   5.336  0.0152 -0.3277  0.1908
 8312W        W 9176   3.885   3.835   2.662  0.1913 -0.0969  0.2127
 8313W        W 9177   2.339   9.115   2.375  0.1636  0.1117 -0.0299
 8314W        W 9178   4.363   4.481   4.769 -0.1435 -0.0525 -0.1672
 8315W        W 9179   5.213   5.466   3.284 -0.1278  0.1373 -0.2052
 8316W        W 9180   2.475   7.305   3.490  0.0001  0.0336  0.2742
 8317W        W 9181   2.909   5.820   1.890  0.0665 -0.1162  0.0309
 8318W        W 9182   4.204   7.396   3.872 -0.1616 -0.0367  0.1610
 8319W        W 9183   2.444   3.837   2.673 -0.0999 -0.0508  0.2907
 8320W        W 9184   5.425   4.536   4.926  0.1990  0.1383 -0.0999
 8321W        W 9185   6.509   6.593   4.133  0.1132  0.1058 -0.0272
 8322W        W 9186   3.416   6.124   2.185 -0.0331 -0.1082  0.0593
 8323W        W 9187   6.988   6.141   5.647  0.1718  0.2153 -0.0028
 8324W        W 9188   6.125   4.399   3.343  0.2125 -0.2432 -0.0453
 8325W        W 9189   7.616   6.736   5.712  0.0635  0.0523 -0.0773
 8326W        W 9190   5.243   6.698   3.708 -0.1352  0.3487  0.3415
 8327W        W 9191   3.331   9.690   4.133  0.0297  0.0330  0.1990
 8328W        W 9192   5.584   3.829   2.903 -0.1482  0.2949 -0.1110
 8329W        W 9193   2.837   7.904   8.055  0.0483  0.1331 -0.0765
 8330W        W 9194   5.367   1.621   7.814 -0.0113 -0.0601 -0.2435
 8331W        W 9195   4.914   1.812   7.957  0.1367 -0.0397  0.0744
 8332W        W 9196   2.857   4.270   5.234 -0.0342  0.0442  0.0123
 8333W        W 9197   3.816   4.484   2.919  0.1317  0.1519 -0.0390
 8334W        W 9198   5.041   6.840   7.016  0.1552 -0.0665 -0.1036
 8335W        W 9199   4.165   5.724   4.356  0.2415  0.2799  0.0554
 8336W        W 9200   5.849   6.005   3.844  0.1512  0.1695  0.1360
 8337W        W 9201   4.523   7.121   6.347 -0.2443  0.0668  0.2545
 8338W        W 9202   6.786   7.597   5.470  0.0563 -0.0234 -0.2707
 8339W        W 9203   8.077   6.791   5.975  0.1633 -0.0019  0.0604
 8340W        W 9204   7.652   5.526   3.601 -0.1695 -0.1438  0.2034
 8341W        W 9205   6.877   4.877   6.049 -0.1658 -0.1433 -0.2120
 8342W        W 9206   7.785   2.287   2.616  0.1656  0.2462 -0.1092
 8343W        W 9207   5.506   5.080   3.087 -0.1329  0.0056  0.0031
 8344W        W 9208  10.203   2.699   1.777 -0.2982 -0.1040 -0.2733
 8345W        W 9209   7.384   6.404   4.466  0.1181 -0.1056  0.0397
 8346W        W 9210   7.770   8.187   6.186 -0.4740  0.0628 -0.0101
 8347W        W 9211   7.978   5.114   1.927 -0.0776  0.0525  0.0965
 8348W        W 9212   5.271   4.751   7.528  0.0131  0.2408  0.0123
 8349W        W 9213   3.892   5.885   5.351  0.1519 -0.2875 -0.1586
 8350W        W 9214  10.200   5.530   7.323  0.0826 -0.2456  0.1824
 8351W        W 9215   5.847   5.582   5.796 -0.0070 -0.1899  0.2067
 8352W        W 9216   3.269   4.941   7.269 -0.2409 -0.0687 -0.2744
 8353W        W 9217   8.894   6.045   6.052  0.2473 -0.0823  0.1102
 8354W        W 9218   2.395   8.153   2.687 -0.0513 -0.4124 -0.3899
 8355W        W 9219   5.439   5.650   5.529 -0.1365  0.2909  0.0690
 8356W        W 9220   8.286   4.881   7.216 -0.2356  0.1273  0.2352
 8357W        W 9221   4.704   6.977   7.807  0.0203 -0.3502 -0.5111
 8358W        W 9222   6.297   4.209   5.890 -0.1407  0.2995  0.0319
 8359W        W 9223   6.648   8.588   3.132 -0.1279  0.2431 -0.3630
 8360W        W 9224   3.432   6.632   2.977 -0.0503 -0.0089 -0.0661
 8361W        W 9225   4.841   5.740   4.878 -0.0353 -0.4653 -0.1842
 8362W        W 9226   9.050   7.985   7.061  0.0572 -0.3583 -0.0371
 8363W        W 9227   4.828   5.509   6.756  0.2520 -0.0095  0.1711
 8364W        W 9228   7.255   5.176   3.696  0.0799  0.0730 -0.0699
 8365W        W 9229   8.924   6.128   5.539 -0.1863  0.0239  0.1376
 8366W        W 9230   8.256   7.215   6.194 -0.1369  0.0769 -0.0103
 8367W        W 9231   2.947   4.763   6.037  0.1734  0.0307 -0.0680
 8368W        W 9232   6.326   5.698   4.724  0.0958 -0.2442  0.0417
 8369W        W 9233   3.940   5.757   9.550 -0.0053  0.0089  0.1692
 8370W        W 9234   4.435   5.810   3.592 -0.0611 -0.3475 -0.0651
 8371W        W 9235   3.861   7.909   1.703  0.1394 -0.0115  0.0365
 8372W        W 9236   4.014   7.111  12.516  0.1618  0.0537 -0.0626
 8373W        W 9237   5.583   3.856  10.229  0.0587 -0.0875 -0.1107
 8374W        W 9238   3.982   6.280   6.070  0.2902 -0.0206  0.2150
 8375W        W 9239   6.588   5.147   8.158  0.1099  0.0381 -0.1264
 8376W        W 9240   2.167   6.070   5.348 -0.1256  0.1438  0.1826
 8377W        W 9241   3.789   4.233   8.219 -0.0982 -0.0690 -0.0709
 8378W        W 9242   6.349   3.216   8.989 -0.1341  0.0935  0.1084
 8379W        W 9243   6.456   3.083   7.389  0.0503  0.1232  0.2460
 8380W        W 9244   8.010   5.283   8.326  0.0476 -0.1190  0.2072
 8381W        W 9245   3.704   5.794   7.369 -0.4008 -0.0997 -0.0249
 8382W        W 9246   4.298   2.303  10.682 -0.0035  0.1954 -0.1973
 8383W        W 9247   7.744   4.534   8.000  0.0398  0.0102 -0.0611
 8384W        W 9248   5.086   5.255   7.590  0.0130  0.2947  0.0130
 8385W        W 9249   7.449   4.075  10.668  0.1158 -0.0421  0.0591
 8386W        W 9250   5.384   5.128   9.382 -0.1596  0.5133  0.1671
 8387W        W 9251   3.240   3.640   9.399 -0.1644 -0.0574  0.1679
 8388W        W 9252   3.800  10.933   9.298 -0.1494 -0.1769 -0.0125
 8389W        W 9253   2.870   3.304   9.010 -0.1101  0.1348  0.1930
 8390W        W 9254   6.016   3.456  10.347  0.1344 -0.0855 -0.1506
 8391W        W 9255   6.782   3.226   8.127  0.0596 -0.0374  0.2441
 8392W        W 9256   6.284   3.953  11.147 -0.2264  0.0572  0.2114
 8393W        W 9257   5.710   2.798   9.689  0.2406  0.0904 -0.0960
 8394W        W 9258   6.748   7.923   5.907  0.0585 -0.0740 -0.0833
 8395W        W 9259   5.380   5.155   6.805 -0.1136 -0.1245  0.3266
 8396W        W 9260   2.533   5.485  11.043 -0.4604  0.1419  0.0696
 8397W        W 9261   4.554   5.003   9.958 -0.1345 -0.1462 -0.3466
 8398W        W 9262   7.214   6.026  11.827  0.1212 -0.1381  0.1108
 8399W        W 9263   3.773   7.131   8.819  0.0617  0.1095 -0.1122
 8400W        W 9264   4.262   4.614  10.001 -0.0193  0.1290  0.0959
 8401W        W 9265   3.834   4.837   9.472 -0.0103  0.0598  0.2198
 8402W        W 9266   1.922   5.430   7.226  0.1777 -0.1399  0.1355
 8403W        W 9267   5.259   7.322   8.769  0.2132  0.1906 -0.1401
 8404W        W 9268   5.421   3.607   7.455 -0.3327  0.0851  0.0165
 8405W        W 9269   2.243   4.393   6.446 -0.2383  0.3370 -0.0045
 8406W        W 9270   3.807   3.198   8.757  0.1597 -0.0599  0.0813
 8407W        W 9271   7.313   2.716  10.733 -0.1114 -0.0451 -0.2239
 8408W        W 9272   3.296   1.473   7.380  0.1979 -0.1320 -0.0342
 8409W        W 9273   4.391   4.959   8.626 -0.5033  0.1184 -0.0453
 8410W        W 9274   5.935   4.317   8.015 -0.0288  0.0796  0.0751
 8411W        W 9275   7.090   1.402   8.813  0.0337 -0.1961  0.0946
 8412W        W 9276   3.439   4.513   7.961 -0.3513  0.2331 -0.0301
 8413W        W 9277   5.486   3.888   9.566 -0.1192  0.0897  0.0342
 8414W        W 9278   4.334   5.610   7.061  0.0226 -0.1677 -0.2139
 8415W        W 9279   5.397   5.640   6.747  0.3356 -0.0974 -0.0469
 8416W        W 9280   4.208   6.364   6.674 -0.0440 -0.0656  0.0362
 8417W        W 9281   2.762   8.326   7.173 -0.0894  0.2621 -0.2660
 8418W        W 9282   1.996   2.377  13.821 -0.1673  0.2641  0.0544
 8419W        W 9283   6.301   4.639   8.844 -0.0681 -0.0266 -0.0998
 8420W        W 9284   4.544   5.415   4.485 -0.0906 -0.1323 -0.2059
 8421W        W 9285   6.588   3.278   6.841 -0.0557 -0.1776  0.0159
 8422W        W 9286   3.390   6.570   6.830  0.1101 -0.0003  0.0476
 8423W        W 9287   6.240   5.925   8.663  0.0542 -0.2159  0.0330
 8424W        W 9288   3.601   5.935   8.093  0.1087  0.1000  0.0393
 8425W        W 9289   5.263   1.915   7.393 -0.0257  0.2155  0.1472
 8426W        W 9290   6.036   1.829   5.510  0.1329  0.1272  0.1416
 8427W        W 9291   3.858   5.424   7.002 -0.0276  0.0128  0.1353
 8428W        W 9292   5.908   0.584  10.022 -0.0396  0.1533  0.0634
 8429W        W 9293   6.755   5.739   9.668 -0.0461  0.0338  0.0315
 8430W        W 9294   3.105   6.791   7.223  0.1186 -0.4620  0.0497
 8431W        W 9295   4.683   7.165   4.773 -0.3064 -0.0920  0.2900
 8432W        W 9296   6.337   4.007   4.847  0.2585  0.3538 -0.0448
 8433W        W 9297   4.477   8.467   9.174 -0.0045  0.1391  0.1151
 8434W        W 9298   1.708   5.259   8.307 -0.0651  0.1895  0.0365
 8435W        W 9299   5.026   7.079   8.280  0.0645 -0.0756  0.2291
 8436W        W 9300   2.860   3.801   9.093 -0.0396  0.1945  0.0656
 8437W        W 9301   4.924   1.572   9.861  0.0782 -0.2241  0.1923
 8438W        W 9302   4.246   5.059   5.493  0.4928  0.0623 -0.0558
 8439W        W 9303   4.025   3.883   7.850  0.2522 -0.0322  0.3947
 8440W        W 9304   1.396   7.064   7.791  0.3110 -0.0082 -0.1387
 8441W        W 9305   3.679   6.981   6.728 -0.1592  0.0909 -0.1911
 8442W        W 9306   4.956   5.346   9.956 -0.2099 -0.1074  0.0576
 8443W        W 9307   5.215   3.338   7.066  0.0507  0.0887 -0.0764
 8444W        W 9308   5.737   4.728  10.744  0.2272 -0.2853 -0.1994
 8445W        W 9309   2.041   4.099   8.555 -0.0514  0.3348  0.1706
 8446W        W 9310   8.753   5.807   9.595 -0.2398 -0.2092 -0.2449
 8447W        W 9311   8.432   5.956   8.697  0.2320  0.0123  0.0331
 8448W        W 9312   4.325   4.081   8.768 -0.2871 -0.1942  0.1543
 8449W        W 9313   1.095   6.420   9.658  0.4086  0.0869 -0.2136
 8450W        W 9314   6.402   3.662   7.480  0.1066  0.0755 -0.0909
 8451W        W 9315   7.716   6.854   7.452 -0.1487  0.1506  0.3161
 8452W        W 9316   5.023   4.070  10.936 -0.0252 -0.0110 -0.1640
 8453W        W 9317   3.494   5.573  10.921 -0.0327 -0.1304  0.1528
 8454W        W 9318   3.732   5.738  10.436  0.0982  0.1279  0.4750
 8455W        W 9319   3.271   3.741  10.880 -0.0133 -0.0206  0.0025
 8456W        W 9320   5.687   3.244  11.591  0.1768 -0.0509 -0.0733
 8457W        W 9321   7.582   3.133   6.954  0.1244  0.0519  0.2156
 8458W        W 9322   8.572   5.506  11.384  0.0253 -0.0615  0.0191
 8459W        W 9323   5.083   3.772   9.101  0.1431  0.3833  0.0465
 8460W        W 9324   5.393   5.534  10.283 -0.0491  0.1165  0.0471
 8461W        W 9325   5.699   3.765  10.790  0.1408 -0.1142  0.1756
 8462W        W 9326   5.247   4.700   6.939  0.0482  0.1080  0.0212
 8463W        W 9327   6.651   6.155   9.934 -0.2134  0.0545 -0.0343
 8464W        W 9328   3.034   8.766   5.561 -0.2597  0.1195 -0.3333
 8465W        W 9329   5.340   1.870   8.731 -0.5092 -0.0903  0.0399
 8466W        W 9330   6.266   4.181  10.208 -0.0505 -0.0253  0.0469
 8467W        W 9331   7.375   4.203   7.773 -0.3249 -0.0016  0.4134
 8468W        W 9332   6.094   6.470   5.753  0.3358  0.0181 -0.1101
 8469W        W 9333   6.021   8.744   9.163  0.3139 -0.0672 -0.4380
 8470W        W 9334   5.342   2.553   6.124  0.0733  0.2012 -0.1994
 8471W        W 9335   7.645   4.871  10.433  0.0220 -0.0533  0.0946
 8472W        W 9336   4.397   6.598   5.457  0.0464 -0.2454  0.2348
 8473W        W 9337   2.826   5.147   7.432  0.0397  0.0749 -0.0343
 8474W        W 9338   5.684   3.131   5.556  0.2561 -0.3015 -0.2126
 8475W        W 9339   8.993   4.102  10.440 -0.1648  0.1189  0.0122
 8476W        W 9340   7.103   1.326  10.783 -0.2194  0.1847  0.1008
 8477W        W 9341   5.529   2.778  11.126  0.0081 -0.1315  0.0777
 8478W        W 9342   5.369   7.295   7.059  0.0376  0.3200  0.0107
 8479W        W 9343   7.211   4.419  10.004  0.2595  0.4576  0.0646
 8480W        W 9344   5.743   0.948  10.796  0.0402 -0.2096 -0.3820
 8481W        W 9345   2.044   3.761   7.559  0.4043  0.2346 -0.4823
 8482W        W 9346   1.214   6.377   9.167 -0.2051  0.0544 -0.0858
 8483W        W 9347   7.346   5.866   7.700 -0.2080 -0.1340  0.2459
 8484W        W 9348   7.355   7.441   8.191 -0.0341  0.2833  0.0274
 8485W        W 9349   4.696   6.349   9.236 -0.0241 -0.2350 -0.2055
 8486W        W 9350   7.904   5.603   7.065 -0.2509 -0.0316 -0.0969
 8487W        W 9351   5.817   5.102  11.222 -0.0896  0.0802 -0.2215
 8488W        W 9352   6.322  13.740  10.309 -0.1787  0.0483  0.0302
 8489W        W 9353   6.140   6.207   9.861  0.1277 -0.0039  0.0744
 8490W        W 9354   6.543   4.109   7.114  0.0957  0.3225  0.0927
 8491W        W 9355   6.554   2.712   9.018  0.0390  0.3181  0.1236
 8492W        W 9356   6.433   8.270   6.064 -0.3218  0.1507 -0.1328
 8493W        W 9357   7.769   6.155   9.562  0.3673 -0.1157  0.0299
 8494W        W 9358   5.581   5.624   7.730 -0.2968  0.2456 -0.0847
 8495W        W 9359   7.396   7.186   7.660  0.0848 -0.2760  0.1384
 8496W        W 9360   5.262   5.518   8.606  0.2287  0.1430  0.0594
 8497W        W 9361   3.204   3.208   8.596 -0.4693  0.0872 -0.0821
 8498W        W 9362   1.017   5.235   6.444  0.0110 -0.0925 -0.0027
 8499W        W 9363   3.047   3.263   8.116 -0.3590  0.0354  0.2375
 8500W        W 9364   4.779   4.823   7.516  0.1639 -0.0654 -0.3766
 8501W        W 9365   3.341   7.965   8.464  0.0858 -0.3171  0.1288
 8502W        W 9366   5.062   6.574   8.380  0.0325  0.1377 -0.2627
 8503W        W 9367   3.004   4.264   8.849 -0.0639 -0.0481  0.2118
 8504W        W 9368   5.549   5.209  10.664 -0.1075  0.1188 -0.0769
 8505W        W 9369   5.731   4.801   6.802  0.0949 -0.0186 -0.0132
 8506W        W 9370   4.956   5.050  11.306 -0.1015 -0.1066  0.1353
 8507W        W 9371   0.123   6.506  10.617  0.0192 -0.0425 -0.0117
 8508W        W 9372   7.004   4.195   7.362  0.2122 -0.2441  0.1273
 8509W        W 9373   7.961   2.575  10.571 -0.0219  0.1650 -0.0078
 8510W        W 9374   4.870   7.458   7.046 -0.1729 -0.1804 -0.0749
 8511W        W 9375   3.920   8.342   8.102 -0.0570 -0.0421  0.0574
 8512W        W 9376   4.547   1.944   5.581 -0.3592  0.5963 -0.0859
 8513W        W 9377   5.757   5.499   8.176 -0.6215 -0.2299 -0.4060
 8514W        W 9378   5.220   4.865   8.981  0.2696 -0.3808 -0.3809
 8515W        W 9379   5.409   7.317   7.897  0.1285  0.1155  0.2126
 8516W        W 9380   7.321   7.893   9.522  0.1415 -0.1832  0.0269
 8517W        W 9381   5.535   4.134   8.243  0.1181 -0.1032  0.1951
 8518W        W 9382   6.589   3.789   9.534 -0.1921 -0.0198  0.2202
 8519W        W 9383   7.180   2.696   9.948  0.0027  0.1263 -0.0004
 8520W        W 9384   4.174   5.148   8.187 -0.0267 -0.0129  0.3625
 8521W        W 9385   4.874   4.589   9.258 -0.1166  0.1057 -0.2988
 8522W        W 9386   6.346   5.468   9.582 -0.0905  0.2443  0.2278
 8523W        W 9387   3.078   2.903   6.952 -0.0983  0.0694  0.1627
 8524W        W 9388   5.279   5.444   7.179  0.3559  0.2131  0.0784
 8525W        W 9389   2.099   2.724   5.208  0.0385 -0.1548 -0.1441
 8526W        W 9390   4.583   7.190   9.247 -0.1682  0.1213  0.1284
 8527W        W 9391   5.463   2.424   7.230 -0.3467  0.5300  0.0957
 8528W        W 9392   1.785   8.983   9.615 -0.0818 -0.3805  0.1197
 8529W        W 9393   1.730   4.637   7.562 -0.0511  0.0542  0.1917
 8530W        W 9394   4.187   5.060   9.056  0.4121  0.1164 -0.0242
 8531W        W 9395   3.037   2.423   9.128 -0.2002 -0.0393 -0.1517
 8532W        W 9396   1.377   4.675  12.167 -0.2747  0.0231 -0.1537
 8533W        W 9397   5.978   5.353   8.625 -0.2030  0.0375 -0.0212
 8534W        W 9398   4.809   3.726  11.221  0.0744 -0.2060  0.2191
 8535W        W 9399   3.003   5.357  11.120 -0.1664 -0.1461  0.1897
 8536W        W 9400   7.254   0.057  11.280 -0.1991  0.0340  0.2568
 8537W        W 9401   5.471   2.727  10.083 -0.0517 -0.2380 -0.4636
 8538W        W 9402   2.185   4.707   9.734  0.0324  0.2132 -0.2282
 8539W        W 9403   3.875   6.342   8.653  0.1138 -0.0381  0.2886
 8540W        W 9404   2.908   5.719  11.447 -0.1166  0.2361 -0.1374
 8541W        W 9405   4.175   5.169   7.255 -0.2680 -0.1753 -0.1091
 8542W        W 9406   5.089   2.779   7.334 -0.0017  0.1248  0.0718
 8543W        W 9407   5.134   3.025   7.755  0.3625 -0.3642 -0.1750
 8544W        W 9408   4.597   6.029   6.712  0.1212  0.2119 -0.0212
 8545W        W 9409   5.608   7.927   9.166 -0.2241 -0.2412 -0.1440
 8546W        W 9410   7.228   1.837   9.340 -0.0975  0.2332 -0.0130
 8547W        W 9411   8.132   4.409   7.592 -0.2313 -0.4630 -0.1676
 8548W        W 9412   3.462   7.023   9.193 -0.3521  0.1111 -0.0614
 8549W        W 9413   6.579   5.168   7.320  0.2344  0.0848  0.0274
 8550W        W 9414   5.483   8.697   6.559 -0.1397 -0.2226 -0.0318
 8551W        W 9415   4.393   2.922   9.075  0.3060 -0.0721  0.1211
 8552W        W 9416   2.111   7.454   7.197  0.1666  0.3839  0.0642
 8553W        W 9417   4.158   4.475   6.918  0.4517  0.3752 -0.3869
 8554W        W 9418   6.647   4.592   7.267 -0.4785  0.4063 -0.2123
 8555W        W 9419   2.745   3.810   5.982  0.1427  0.0587  0.0724
 8556W        W 9420   3.463   4.490   5.821 -0.0433  0.1194 -0.1347
 8557W        W 9421   3.580   3.766   8.039 -0.3047 -0.0533  0.2271
 8558W        W 9422   2.591   3.898   7.538  0.0275 -0.0265 -0.1007
 8559W        W 9423   3.587   1.862   6.028 -0.0078  0.1467 -0.1808
 8560W        W 9424   2.783   4.741   7.757 -0.3102 -0.1415  0.0943
 8561W        W 9425   2.785   7.166   7.418  0.0213  0.0390 -0.2543
 8562W        W 9426   2.655   4.752   6.661  0.0053 -0.1541 -0.0844
 8563W        W 9427   4.081   2.182   7.447 -0.1348 -0.1986  0.3875
 8564W        W 9428   3.929   6.194  10.460  0.1297 -0.1361  0.0932
 8565W        W 9429   6.644   3.384  10.384  0.0390  0.2111  0.1998
 8566W        W 9430   4.260   1.678   9.242  0.1016 -0.0712 -0.0031
 8567W        W 9431   6.674   1.381   6.768  0.1599  0.2892 -0.1661
 8568W        W 9432   7.299   2.235   9.035  0.3316  0.0334  0.0620
 8569W        W 9433   3.143   6.255  10.826  0.3993 -0.1208  0.0824
 8570W        W 9434   4.165   2.593   8.738 -0.0313  0.0210 -0.2437
 8571W        W 9435   5.634   4.126   7.564 -0.0412  0.1468 -0.1189
 8572W        W 9436   2.423   4.295   8.843  0.0779  0.2598 -0.1457
 8573W        W 9437   7.043   4.139   8.761 -0.2381  0.0439  0.1609
 8574W        W 9438   8.331   4.119   8.447  0.2373  0.0903 -0.1043
 8575W        W 9439   3.042   2.724   8.412 -0.0264 -0.0357 -0.1573
 8576W        W 9440   4.172   6.717   8.094  0.2025  0.0247 -0.1421
 8577W        W 9441   1.965   4.475   8.033 -0.0197 -0.5869  0.0301
 8578W        W 9442   2.520   6.617   9.504  0.3459  0.0982 -0.0492
 8579W        W 9443   5.269   6.816   7.851  0.0184 -0.0237  0.1285
 8580W        W 9444   4.570   6.945   6.833 -0.0233 -0.0228 -0.1754
 8581W        W 9445   4.396   8.307   3.294  0.1608 -0.0044 -0.5745
 8582W        W 9446   4.873   5.440   8.991  0.0959  0.1694  0.0416
 8583W        W 9447   6.550   5.511   9.046 -0.1929  0.1634 -0.0231
 8584W        W 9448   4.039   2.422   8.144  0.0881 -0.0940 -0.1552
 8585W        W 9449   7.196   2.203   9.662  0.2466 -0.3467 -0.0674
 8586W        W 9450   9.098   6.117  10.105  0.0722  0.2022  0.0658
 8587W        W 9451   5.539   6.102   8.192  0.1756 -0.1332  0.0354
 8588W        W 9452   6.091   6.913   5.244  0.1227  0.0411 -0.5066
 8589W        W 9453   5.579   6.821  10.129  0.4930 -0.0470  0.1143
 8590W        W 9454   4.476   6.951  10.052  0.0231 -0.1065 -0.0992
 8591W        W 9455   5.420   7.627   8.322  0.0275 -0.0136  0.2837
 8592W        W 9456   6.562   2.487  10.701  0.0503 -0.0824  0.2498
 8593W        W 9457   8.356   6.197   8.225 -0.1309  0.0956 -0.0385
 8594W        W 9458   3.996   5.401  10.961 -0.1352 -0.0867 -0.0843
 8595W        W 9459   2.480   4.442   8.054  0.2063 -0.1712 -0.0071
 8596W        W 9460   7.591   4.558  10.818 -0.1118  0.1588 -0.0200
 8597W        W 9461   3.944   2.898   8.370  0.0987  0.0904 -0.1548
 8598W        W 9462   4.438   6.113   7.811  0.2431 -0.0867  0.0584
 8599W        W 9463   3.948   7.001   9.951 -0.1475  0.0911 -0.0620
 8600W        W 9464   8.924   8.294   8.872 -0.0056  0.1193  0.0521
 8601W        W 9465   6.432   5.934   9.294  0.3619  0.1078 -0.0657
 8602W        W 9466   4.415   3.478   9.716 -0.3004 -0.0328 -0.1235
 8603W        W 9467   5.523   8.459  10.085 -0.2153  0.1133  0.2337
 8604W        W 9468   3.847   5.424   6.524  0.1488 -0.0438 -0.3788
 8605W        W 9469   6.772   5.554   8.526  0.0052  0.0156 -0.2135
 8606W        W 9470   6.234   4.597  10.487 -0.0688  0.2945  0.1467
 8607W        W 9471   5.480   6.814   7.311 -0.0728  0.2648 -0.0685
 8608W        W 9472   7.023   5.031   8.510 -0.3321 -0.1696 -0.0076
 8609W        W 9473   6.033   1.279   8.864 -0.2097 -0.1181  0.2008
 8610W        W 9474   6.940   5.055   9.990  0.0189 -0.4336  0.0853
 8611W        W 9475   5.395   5.996  10.450 -0.2378 -0.1226 -0.1099
 8612W        W 9476   4.912   6.561   5.534 -0.0618 -0.2020  0.1995
 8613W        W 9477   3.384   6.656  10.583  0.0498 -0.1701  0.0052
 8614W        W 9478   4.400   2.992   6.155 -0.3722 -0.0281 -0.0594
 8615W        W 9479   3.210   2.232   6.229  0.3587  0.1289  0.2217
 8616W        W 9480   6.178   2.937   9.548 -0.2537 -0.0273 -0.0229
 8617W        W 9481   3.877   4.735   8.128 -0.1181  0.1602 -0.0366
 8618W        W 9482   6.232   4.741  10.955 -0.1696  0.0006 -0.0554
 8619W        W 9483   1.199   4.540   9.468  0.1076  0.0507  0.0453
 8620W        W 9484   4.318   5.456   8.565  0.1172  0.0869  0.2795
 8621W        W 9485   2.358   5.664   9.867 -0.3030 -0.1564  0.1144
 8622W        W 9486   5.943   7.594   8.460  0.0634  0.0697  0.0627
 8623W        W 9487   4.628   5.812   9.389  0.1803 -0.2886 -0.0161
 8624W        W 9488   7.361   8.135   7.536 -0.0400 -0.1922 -0.0452
 8625W        W 9489   6.767   4.587   8.668  0.0792 -0.0043  0.0316
 8626W        W 9490   2.256   4.996   6.511  0.0830  0.1414  0.0120
 8627W        W 9491   6.613   5.764  11.060  0.2298 -0.0758  0.2609
 8628W        W 9492   3.914   5.943   6.845  0.2858  0.0431  0.1086
 8629W        W 9493   5.109   2.509  11.826 -0.1985 -0.0405 -0.4299
 8630W        W 9494   7.407   5.377   8.526  0.2804  0.1089  0.0834
 8631W        W 9495   7.288   4.575   8.484  0.1657  0.0898 -0.2239
 8632W        W 9496   3.952   3.778   6.997  0.0510 -0.2546 -0.3456
 8633W        W 9497   1.892   3.038  10.509 -0.1475  0.2620  0.0339
 8634W        W 9498   5.622   6.631   8.216  0.2600  0.0527  0.1766
 8635W        W 9499   5.625   2.735   8.542 -0.0133  0.1557 -0.1374
 8636W        W 9500   7.443   8.346   9.341 -0.2051 -0.1269 -0.1359
 8637W        W 9501   4.156   7.674   9.355 -0.0628  0.2220 -0.3801
 8638W        W 9502   3.771   7.989   5.671  0.1989  0.2074  0.0862
 8639W        W 9503   7.874   3.837   4.710 -0.2490 -0.0129 -0.4758
 8640W        W 9504   4.192   3.284   9.306  0.1030 -0.0859 -0.3354
 8641W        W 9505   7.959   2.868   8.619  0.1184 -0.1949 -0.4462
 8642W        W 9506   4.974   5.796   6.361  0.1172  0.0193  0.1878
 8643W        W 9507   5.288   5.785  11.461  0.0560  0.1723  0.1593
 8644W        W 9508   5.078   3.427   8.745  0.2869  0.0033 -0.0211
 8645W        W 9509   2.952   4.581   7.059 -0.0560  0.1345 -0.1404
 8646W        W 9510   5.910   6.299   8.453  0.0145 -0.1194 -0.0509
 8647W        W 9511   4.801   2.734   8.701 -0.0227 -0.0689 -0.4963
 8648W        W 9512   2.574   6.192   8.879 -0.0531  0.1152 -0.0072
 8649W        W 9513   3.688   6.481   8.116  0.1791  0.0231 -0.1691
 8650W        W 9514   5.894   5.460   7.287 -0.1241  0.1647 -0.0256
 8651W        W 9515   2.924   3.233   9.515 -0.1937  0.2008 -0.1271
 8652W        W 9516   6.059   4.371   8.526  0.0718 -0.2651  0.1017
 8653W        W 9517   5.029   3.534   7.785 -0.2464  0.2135  0.0046
 8654W        W 9518   0.738   3.791   6.882  0.1153 -0.0218 -0.0539
 8655W        W 9519   4.812   8.214   8.659 -0.0131  0.2188  0.0125
 8656W        W 9520   7.322   5.128   5.847 -0.1520 -0.2300 -0.0327
 8657W        W 9521   6.063   3.921  11.663 -0.0890 -0.0303 -0.0957
 8658W        W 9522   5.723   4.745   9.143 -0.0738  0.1296 -0.0227
 8659W        W 9523   3.466   8.399  10.351 -0.1613 -0.1305 -0.1200
 8660W        W 9524   7.883   2.593   7.566  0.2178 -0.1368  0.3112
 8661W        W 9525   4.458   3.397   6.884 -0.1705 -0.1011  0.1046
 8662W        W 9526   4.204   4.738   7.441 -0.0963 -0.3881  0.0390
 8663W        W 9527   5.634   3.547   6.917  0.3148 -0.1053 -0.1986
 8664W        W 9528   5.946   3.680   8.184  0.2885 -0.0110 -0.1550
 8665W        W 9529   3.712   7.001   8.217 -0.1065 -0.1356  0.0387
 8666W        W 9530   4.407   6.551   7.594 -0.2668 -0.2912 -0.0900
 8667W        W 9531   4.790   4.498   6.838  0.1609 -0.3604 -0.1053
 8668W        W 9532   1.970   1.839   6.681 -0.1022 -0.1551 -0.0082
 8669W        W 9533  10.554   5.200   8.765  0.2050  0.0326 -0.0461
 8670W        W 9534   5.213   3.301   9.223  0.0773 -0.0296  0.0240
 8671W        W 9535   2.367   6.429   8.348  0.0135  0.1580  0.3099
 8672W        W 9536   2.414   5.150   9.954 -0.0673 -0.0872 -0.0425
 8673W        W 9537   5.085   2.443   9.911  0.0894  0.0134 -0.0069
 8674W        W 9538   5.645   6.436  11.904  0.0896 -0.0158 -0.1304
 8675W        W 9539   5.062   4.320   7.240 -0.1108  0.0869 -0.1050
 8676W        W 9540   7.073   4.569   7.670  0.0215 -0.0628  0.0768
 8677W        W 9541   6.534   6.169   5.385 -0.1874 -0.2590 -0.0329
 8678W        W 9542   5.040   5.918   7.028 -0.1742  0.1546 -0.1253
 8679W        W 9543   4.901   2.300   7.299  0.1767  0.0719 -0.0107
 8680W        W 9544   6.442   3.699  10.076  0.2105  0.0004  0.5808
 8681W        W 9545   3.090   9.495  10.027 -0.1578 -0.1336 -0.1671
 8682W        W 9546   5.180   4.128  10.103 -0.1188 -0.3414 -0.0228
 8683W        W 9547   4.687   4.240  11.525  0.4960 -0.0415 -0.0790
 8684W        W 9548   6.378   4.698   8.277 -0.0268  0.0746  0.1329
 8685W        W 9549   5.580   4.372   6.644 -0.2216  0.0378 -0.1087
 8686W        W 9550   3.967   4.636   9.005  0.0517 -0.3220 -0.0631
 8687W        W 9551   3.911   7.674   9.785  0.0036 -0.0547  0.0144
 8688W        W 9552   2.481   2.532   6.401  0.0005  0.0298  0.3023
 8689W        W 9553   5.163   4.461   8.318 -0.1119 -0.0311 -0.2353
 8690W        W 9554   6.758   4.365   9.107 -0.1238 -0.1377 -0.2193
 8691W        W 9555   3.434   5.877   9.489 -0.2059 -0.4774  0.1874
 8692W        W 9556   3.795   5.440   8.309  0.0905 -0.0979 -0.2312
 8693W        W 9557   4.261   5.663   6.593 -0.1958 -0.1166  0.0226
 8694W        W 9558   3.372   6.212  10.354 -0.1335 -0.2484 -0.1894
 8695W        W 9559   7.173   5.835   8.262 -0.1424  0.2641  0.0036
 8696W        W 9560   4.487   5.201   7.629  0.0209  0.1894  0.1056
 8697W        W 9561   3.056   7.479   9.957 -0.0434  0.1793  0.2666
 8698W        W 9562   6.944   6.123  10.938  0.2942  0.0733 -0.0760
 8699W        W 9563   5.999   7.504   5.972 -0.0440  0.1363 -0.1006
 8700W        W 9564   6.366   4.160   6.575  0.3431 -0.1765 -0.1928
 8701W        W 9565   3.728   4.224   6.710 -0.1425 -0.0111  0.0626
 8702W        W 9566   7.008   4.326  10.624  0.3262  0.3541 -0.1177
 8703W        W 9567   5.806   2.433   9.326 -0.0016 -0.4204  0.0821
 8704W        W 9568   4.701   5.290   9.484 -0.1376  0.0149  0.1389
 8705W        W 9569   8.993   5.775  11.509 -0.1583 -0.1574 -0.0264
 8706W        W 9570   6.202   7.405  11.406 -0.0069 -0.1514 -0.0044
 8707W        W 9571   5.657  10.355   8.952  0.1762  0.0210 -0.1121
 8708W        W 9572   7.111   4.666   6.533 -0.1235  0.1730  0.1264
 8709W        W 9573   4.974   4.906   9.661 -0.2494  0.0524  0.0105
 8710W        W 9574   6.492   3.703   8.136  0.0016  0.3895  0.0284
 8711W        W 9575   7.069   6.748   7.611 -0.0074 -0.1398 -0.0792
 8712W        W 9576   4.777   4.135   8.994 -0.0167  0.3002  0.1973
 8713W        W 9577   3.572   3.924  10.036  0.3221 -0.0080 -0.1129
 8714W        W 9578   4.426   6.149   6.274  0.0696  0.1817  0.1411
 8715W        W 9579   6.548   5.064   8.666  0.1872 -0.1911  0.0590
 8716W        W 9580   5.137   8.220   7.636 -0.1775  0.2442 -0.0353
 8717W        W 9581   5.312   4.567   9.508  0.1226 -0.1710  0.3459
 8718W        W 9582  13.818   3.961   9.613 -0.1494 -0.0574 -0.0740
 8719W        W 9583   4.796   7.536   8.939 -0.3692 -0.1216  0.3039
 8720W        W 9584   3.126   3.873   7.559 -0.3311 -0.0694 -0.2480
 8721W        W 9585   5.515   4.484   8.665  0.1956  0.1481 -0.0421
 8722W        W 9586   6.744   6.099   8.492  0.1729  0.3404  0.2282
 8723W        W 9587   8.356   5.467  12.216 -0.1314 -0.1479  0.2471
 8724W        W 9588   3.268   5.495   6.966  0.1010 -0.0254 -0.2403
 8725W        W 9589   3.333   7.261   7.973 -0.0013 -0.1453  0.0534
 8726W        W 9590   7.976   0.996   6.133  0.0097  0.0835 -0.1427
 8727W        W 9591   2.780   7.096   8.663 -0.1817 -0.1079  0.0089
 8728W        W 9592   4.649   3.067   9.618  0.1412  0.0547  0.0794
 8729W        W 9593   4.447   3.812   9.163 -0.4448  0.1236  0.0700
 8730W        W 9594   5.074   1.932   5.619 -0.1494 -0.2836  0.1914
 8731W        W 9595   5.561   5.080   7.902 -0.3417  0.3379 -0.3250
 8732W        W 9596   6.951   3.881   8.342  0.1577  0.0065 -0.0766
 8733W        W 9597   4.470   4.175   9.484 -0.1983 -0.1754  0.2283
 8734W        W 9598   8.185   4.833   8.186 -0.1825  0.1125  0.1639
 8735W        W 9599   7.573   6.795   6.280  0.2054 -0.0861 -0.1974
 8736W        W 9600   7.322   5.756  10.814  0.0007  0.2056  0.1474
 8737W        W 9601   6.708   5.768  11.595 -0.0631  0.0634  0.3573
 8738W        W 9602   6.419   4.938   9.678  0.3521 -0.0501  0.2737
 8739W        W 9603   4.377   4.737   6.512  0.1375 -0.2661  0.1059
 8740W        W 9604   8.536   3.807   6.888  0.1325  0.1393 -0.0465
 8741W        W 9605   4.679   4.962   9.068  0.0519  0.1677 -0.1033
 8742W        W 9606   6.047   5.038   8.173  0.0589  0.3816  0.2927
 8743W        W 9607   4.276   4.947   5.030 -0.1984 -0.3629  0.0418
 8744W        W 9608   5.466   4.591  11.960 -0.2531 -0.0432  0.0045
 8745W        W 9609   9.535   4.638   7.712 -0.0919  0.0756 -0.3056
 8746W        W 9610   5.860   4.613  11.263 -0.0981  0.2247 -0.2710
 8747W        W 9611   4.823   3.371   9.950  0.1463  0.0929  0.3738
 8748W        W 9612   4.292   4.038   9.939  0.2516  0.0566 -0.0888
 8749W        W 9613   7.230   2.179  12.378  0.0106  0.4317  0.2654
 8750W        W 9614   4.141   9.010  11.606 -0.0530 -0.0932  0.1058
 8751W        W 9615   4.583   5.257  10.969 -0.0567 -0.2135 -0.3177
 8752W        W 9616   3.851   8.152   9.794  0.3828  0.0464 -0.1940
 8753W        W 9617  12.161   4.558   8.869  0.2371 -0.0774 -0.0213
 8754W        W 9618   7.421   4.908   9.971 -0.0249  0.2943 -0.0436
 8755W        W 9619   5.412   8.341  12.092  0.1559  0.0422  0.3063
 8756W        W 9620   7.639   7.596   7.783  0.0254  0.3015 -0.0509
 8757W        W 9621   5.045   7.147   7.484  0.0390  0.0270  0.0175
 8758W        W 9622   6.928   6.348   7.948  0.0283  0.2150  0.0805
 8759W        W 9623   6.545   5.193  10.905  0.0608  0.1234 -0.2994
 8760W        W 9624   2.846   5.405  10.637 -0.2994 -0.1297  0.1678
 8761W        W 9625   3.707   7.901   9.391 -0.2720  0.2484  0.0587
 8762W        W 9626   7.148   4.466  11.146  0.1988  0.1505  0.0093
 8763W        W 9627   3.883   5.853   6.337 -0.3887 -0.2062 -0.1119
 8764W        W 9628   4.476   3.385   7.746  0.2367 -0.2837 -0.1417
 8765W        W 9629   8.303   6.084   9.578  0.2218 -0.2417 -0.2223
 8766W        W 9630   3.066   6.193   6.448 -0.0572 -0.0942 -0.2000
 8767W        W 9631   2.847   3.203  10.836  0.0495 -0.0532  0.0495
 8768W        W 9632   2.566   8.765   9.182 -0.2722 -0.1375  0.1618
 8769W        W 9633   6.280   3.701   6.742 -0.1788 -0.0264 -0.0809
 8770W        W 9634   7.092   7.232  13.457  0.2303  0.0964 -0.2877
 8771W        W 9635   7.456   6.228   8.037  0.2231 -0.0485  0.0131
 8772W        W 9636   8.452   7.380  11.885  0.2677  0.0635  0.1231
 8773W        W 9637   4.578   8.932  11.948  0.0389  0.1074  0.1595
 8774W        W 9638   5.740   4.091  12.011  0.2145  0.2186  0.0255
 8775W        W 9639   4.214   2.864  11.642  0.2862  0.3108 -0.0643
 8776W        W 9640   5.660   6.074  10.918 -0.2625  0.2486 -0.2079
 8777W        W 9641   6.164   7.452   0.390 -0.1136  0.0739 -0.2380
 8778W        W 9642   5.660   3.524   0.320 -0.3811 -0.0147  0.0312
 8779W        W 9643   4.478   4.421  10.510  0.2010 -0.2758  0.2993
 8780W        W 9644   3.854   6.782   0.934 -0.1509  0.2432  0.0728
 8781W        W 9645   4.861   7.227  11.322 -0.1214 -0.0523  0.0349
 8782W        W 9646   4.680   7.068   0.076 -0.0567  0.3602 -0.2922
 8783W        W 9647   6.388   7.230  12.387 -0.0538 -0.4500 -0.1791
 8784W        W 9648   6.669   8.315  13.751  0.0897 -0.2474 -0.1559
 8785W        W 9649   6.977   5.407  11.115  0.1789 -0.0315 -0.1963
 8786W        W 9650   6.625   4.885   9.150 -0.1362  0.1366 -0.3236
 8787W        W 9651   2.539   4.633  10.063  0.1958 -0.0542 -0.2817
 8788W        W 9652   4.196   4.223  11.811  0.1374 -0.1845  0.1072
 8789W        W 9653   1.515   5.269   1.338  0.0799  0.0523  0.1810
 8790W        W 9654   2.636   9.142  12.444  0.0177 -0.0356 -0.0802
 8791W        W 9655   7.110   7.613   0.287 -0.0574  0.1038 -0.0847
 8792W        W 9656   6.784   4.089  11.243  0.0248 -0.1163 -0.0310
 8793W        W 9657   3.940   4.755  13.009  0.0112 -0.2680 -0.2797
 8794W        W 9658   5.983   4.257  10.903  0.0546  0.1126  0.1751
 8795W        W 9659   6.112   5.191   0.282 -0.0398  0.0020 -0.1119
 8796W        W 9660   6.505   3.015  10.954  0.5234  0.0772  0.3368
 8797W        W 9661   4.038   6.146  12.566  0.0554 -0.0274 -0.0582
 8798W        W 9662   7.286   2.380  13.258 -0.1368 -0.0776 -0.3688
 8799W        W 9663   8.013   6.300  12.424  0.0106 -0.0332 -0.1206
 8800W        W 9664   7.008   7.974  12.475 -0.2852  0.1708  0.2338
 8801W        W 9665   5.792   4.358  10.355  0.1230 -0.0354  0.0455
 8802W        W 9666   3.223   5.829  10.641 -0.0408  0.1866  0.2839
 8803W        W 9667   6.049   6.440  10.946 -0.0372 -0.1700  0.2522
 8804W        W 9668   4.289   4.479  13.299 -0.0480  0.1867 -0.0644
 8805W        W 9669   6.130   5.067  12.525 -0.0896  0.0161 -0.0609
 8806W        W 9670   7.449   2.233  10.992 -0.2819  0.0166 -0.3832
 8807W        W 9671   6.799   3.881  10.576  0.0404  0.0456 -0.0123
 8808W        W 9672   7.632   3.545  11.435  0.2675  0.3243 -0.3121
 8809W        W 9673   2.549   2.812  11.255  0.0097 -0.1099  0.0292
 8810W        W 9674   4.714   5.052  11.777  0.0117 -0.1041 -0.1432
 8811W        W 9675   6.237   5.478  11.202  0.0283  0.3648 -0.3917
 8812W        W 9676   6.511   3.797  12.514  0.1243  0.0452  0.1505
 8813W        W 9677   6.898   6.218   9.517 -0.0338  0.0620 -0.3541
 8814W        W 9678   2.378   4.838   8.932  0.2947  0.0634 -0.1221
 8815W        W 9679   6.559   4.038  11.651 -0.0958 -0.3551  0.2558
 8816W        W 9680   4.961   9.267  12.532  0.0149 -0.3014 -0.1191
 8817W        W 9681   5.923   9.024  12.459 -0.1775 -0.0412  0.2307
 8818W        W 9682   8.560   3.834  10.277  0.0065  0.0945 -0.0849
 8819W        W 9683   4.895   5.081  12.758 -0.0531 -0.0741  0.2178
 8820W        W 9684   1.959   6.483  11.769 -0.3062 -0.0865 -0.0015
 8821W        W 9685   2.354   3.220  11.413  0.0038 -0.0289 -0.1220
 8822W        W 9686   4.518   6.644  13.396 -0.1070 -0.1187 -0.1556
 8823W        W 9687   5.104   2.735  13.727  0.1347  0.0173  0.1228
 8824W        W 9688   5.035   6.193   9.533 -0.2247 -0.0987 -0.3498
 8825W        W 9689   3.323   4.640  12.256  0.0614 -0.0493  0.2550
 8826W        W 9690   4.382   7.778  11.937  0.3999 -0.0431 -0.1973
 8827W        W 9691   5.583   5.456  11.765  0.0145 -0.1637  0.2120
 8828W        W 9692   8.235   8.286  12.811 -0.1211 -0.1636 -0.0535
 8829W        W 9693   4.329   5.195   6.726 -0.0760 -0.0284 -0.0071
 8830W        W 9694   6.140   8.112  10.529 -0.0519 -0.3479  0.1694
 8831W        W 9695   7.527   4.414   2.686 -0.0827  0.0371 -0.2514
 8832W        W 9696  10.169   7.411  10.146  0.0986  0.1249  0.0207
 8833W        W 9697   6.462   9.237  13.699 -0.2800  0.1032 -0.1627
 8834W        W 9698   2.004   4.257  13.207 -0.3556  0.0693  0.1595
 8835W        W 9699   5.043   5.258  10.841  0.0383 -0.1298  0.0080
 8836W        W 9700   4.267   6.578  12.958 -0.1443  0.0716  0.0362
 8837W        W 9701   6.724   5.131  10.428 -0.3068  0.0452  0.0536
 8838W        W 9702   5.358   6.457  10.681  0.0630  0.2284  0.0394
 8839W        W 9703   4.178   3.203  12.610  0.0977 -0.5075  0.1285
 8840W        W 9704   5.421   2.070  11.912  0.1443 -0.1784 -0.0904
 8841W        W 9705   6.948   2.762   0.241 -0.1462  0.0788 -0.1019
 8842W        W 9706   6.494   4.277  10.823  0.2028  0.1679  0.0882
 8843W        W 9707   5.679   3.327  13.096 -0.0386  0.1060 -0.0803
 8844W        W 9708   6.705   8.887  12.184  0.3363  0.1807 -0.1793
 8845W        W 9709   1.992   4.815  11.066 -0.1899 -0.1001  0.2153
 8846W        W 9710   8.089   4.348  11.371  0.1573 -0.0223  0.1764
 8847W        W 9711   6.371   3.214   9.974 -0.0699  0.1469  0.0458
 8848W        W 9712   7.765   2.659  10.088 -0.0933 -0.0662  0.0150
 8849W        W 9713   7.797   1.354  12.800  0.0327 -0.1883  0.2402
 8850W        W 9714   6.778   6.427   7.443 -0.3491 -0.3451 -0.1426
 8851W        W 9715   4.578   6.502  11.772  0.3151 -0.2153  0.2143
 8852W        W 9716   6.464   1.897  11.646  0.1213  0.0511  0.0337
 8853W        W 9717   5.388   5.966  11.942  0.2794  0.0121  0.0250
 8854W        W 9718   8.176   4.603  12.136  0.1207 -0.0616 -0.1120
 8855W        W 9719   3.458   4.863  10.275  0.2836 -0.0567  0.0394
 8856W        W 9720   5.168   7.996  12.998 -0.0991 -0.0050  0.1281
 8857W        W 9721   3.761   2.724  11.770 -0.1690  0.1532  0.2867
 8858W        W 9722   3.696   4.046  11.701  0.3358 -0.1728  0.2044
 8859W        W 9723   2.969   5.204  13.167 -0.0478 -0.0738  0.0709
 8860W        W 9724   8.843   8.961  13.647 -0.0267 -0.2706 -0.1605
 8861W        W 9725   4.897   3.111  13.509  0.0924  0.1576  0.1039
 8862W        W 9726   6.318  10.412  12.994  0.0367  0.2047 -0.0046
 8863W        W 9727   6.719   4.596  10.210 -0.1053 -0.1380  0.1974
 8864W        W 9728   4.015   4.885  10.960 -0.1637  0.2833  0.0714
 8865W        W 9729   6.737   5.492  13.747  0.2594 -0.0886  0.0969
 8866W        W 9730   5.545   6.591  11.313  0.1451  0.1146 -0.1563
 8867W        W 9731   5.111   3.974  11.566  0.0188  0.2698 -0.1287
 8868W        W 9732   7.333   5.340   9.704  0.1320 -0.0705  0.0650
 8869W        W 9733   9.876   3.892  11.353 -0.0773  0.1634 -0.1407
 8870W        W 9734   6.687   7.873   9.599 -0.0458  0.0906  0.2248
 8871W        W 9735   5.549   3.701   9.044 -0.0581  0.2858  0.1961
 8872W        W 9736   5.213   5.002  10.365  0.1159  0.1755  0.1733
 8873W        W 9737   5.997   6.772   9.914  0.0527 -0.5313  0.4782
 8874W        W 9738   7.150   3.582  11.184  0.0241  0.1773  0.1390
 8875W        W 9739   4.877   3.882  12.501 -0.0381  0.0024  0.0050
 8876W        W 9740   7.622   6.705   0.300  0.0564 -0.0349 -0.1396
 8877W        W 9741   6.903   7.077  12.102 -0.4058  0.3044 -0.0879
 8878W        W 9742   2.875   5.828  10.961 -0.2110  0.0277  0.1034
 8879W        W 9743   7.169   9.742  10.959 -0.1087 -0.0217 -0.2153
 8880W        W 9744   6.876   6.276  13.184 -0.2595 -0.3843 -0.2625
 8881W        W 9745   4.843   8.166  13.374 -0.1856  0.2224 -0.2144
 8882W        W 9746   7.570   5.215  12.484 -0.1908  0.1805 -0.1861
 8883W        W 9747   5.856   5.460  12.671 -0.3098 -0.2053 -0.0747
 8884W        W 9748   4.694   5.188  13.397  0.2198  0.0916  0.2983
 8885W        W 9749   4.320   1.793  10.184  0.2432 -0.2570 -0.2687
 8886W        W 9750   5.878   9.125  10.687  0.3015 -0.0816  0.1783
 8887W        W 9751   3.696   6.583  10.089  0.1345 -0.0921 -0.0565
 8888W        W 9752   2.143   6.322   9.293  0.0045  0.1557  0.1738
 8889W        W 9753   5.034   3.623  10.379 -0.0145 -0.0736 -0.0520
 8890W        W 9754   4.835   8.039  10.894  0.2033  0.1812  0.3281
 8891W        W 9755   5.682   6.830  10.853  0.0052  0.1807  0.2116
 8892W        W 9756   4.493   5.507  11.832  0.3369 -0.0494 -0.1674
 8893W        W 9757   5.757   4.304   9.356 -0.0710  0.0642  0.1363
 8894W        W 9758   3.425   4.123  12.165 -0.3410 -0.1685  0.0897
 8895W        W 9759   6.998   7.574  11.023 -0.0280 -0.1547  0.1527
 8896W        W 9760   5.256   5.095  11.875 -0.0880  0.0466  0.1660
 8897W        W 9761   6.656   4.977  12.752  0.1598 -0.0694 -0.0873
 8898W        W 9762   7.557   7.451  13.114  0.0298 -0.1551  0.3594
 8899W        W 9763   4.318   3.152  10.113  0.2042  0.2875  0.1372
 8900W        W 9764   3.930   5.147  11.424  0.2141  0.1800 -0.1590
 8901W        W 9765   6.110   2.714  10.766 -0.2647 -0.1292  0.0071
 8902W        W 9766   5.366   7.687  13.379 -0.0934  0.5022  0.3829
 8903W        W 9767   6.477   5.031  13.783 -0.0469 -0.1485 -0.2577
 8904W        W 9768   4.739   8.799  13.483  0.2064 -0.3527  0.2042
 8905W        W 9769   3.960   3.160   9.718  0.2244 -0.2286  0.2435
 8906W        W 9770   2.821   2.626  10.368  0.1816  0.3091  0.0517
 8907W        W 9771   3.158   5.118  12.216  0.1848 -0.0751 -0.1799
 8908W        W 9772   3.842   1.392   0.993  0.0453  0.2468 -0.2242
 8909W        W 9773   5.061   3.364  12.474  0.3382  0.0769  0.0731
 8910W        W 9774   4.306   5.442  13.154 -0.1294  0.2513  0.0382
 8911W        W 9775   4.402   7.447  10.532  0.0480 -0.1706 -0.2092
 8912W        W 9776   6.572   7.410  12.852 -0.1333 -0.0213 -0.0407
 8913W        W 9777   6.361   2.527  11.137  0.3379 -0.0583 -0.2627
 8914W        W 9778   6.289   2.399  11.608 -0.0784  0.1329 -0.4825
 8915W        W 9779   7.645   8.102  11.383 -0.1431  0.0770  0.0648
 8916W        W 9780   4.545   4.854  13.020  0.0214 -0.0006  0.1279
 8917W        W 9781   5.317   3.069  12.810  0.0319 -0.0975  0.0524
 8918W        W 9782   4.633   9.272  13.499 -0.3422  0.1709 -0.1750
 8919W        W 9783   5.800   6.842  12.090  0.0279 -0.0878  0.0469
 8920W        W 9784   5.543   5.697   9.275 -0.0927  0.4336 -0.0594
 8921W        W 9785   4.289   4.877  13.552 -0.0800  0.0405  0.3056
 8922W        W 9786   5.859   7.657  12.385  0.0292 -0.3114  0.0719
 8923W        W 9787   8.628   7.483  10.470  0.1241 -0.0513  0.2027
 8924W        W 9788   6.458   1.084  11.397 -0.0918 -0.1793  0.0445
 8925W        W 9789   5.567   3.205   7.935 -0.2443 -0.2868 -0.1253
 8926W        W 9790   4.989   3.594  11.989  0.0479 -0.2056  0.1598
 8927W        W 9791   5.683   2.457  12.463  0.3417  0.0730  0.0287
 8928W        W 9792   5.164   6.265  11.241  0.0158  0.1425  0.2467
 8929W        W 9793   6.043   6.826  10.467 -0.0817  0.1258 -0.0289
 8930W        W 9794   4.380   8.208  10.627  0.1742  0.1546 -0.1078
 8931W        W 9795   3.730   4.989  12.013 -0.0595  0.0509 -0.1686
 8932W        W 9796   3.218   4.287   0.416  0.1406 -0.1092  0.1006
 8933W        W 9797   5.756   5.685  11.319 -0.1590 -0.0798 -0.0168
 8934W        W 9798   5.278   2.926  10.738  0.1624 -0.1039 -0.1529
 8935W        W 9799   5.601   5.944  12.691  0.0519  0.0254  0.3599
 8936W        W 9800   5.930   4.510  12.274  0.1333 -0.4374 -0.1831
 8937W        W 9801   6.724   2.576  12.027  0.2078  0.2916 -0.2507
 8938W        W 9802   3.775   4.491  12.079 -0.4330  0.1980  0.2733
 8939W        W 9803   7.269   3.316  11.714  0.5063  0.1237 -0.1095
 8940W        W 9804   7.109   6.084  10.478 -0.1551 -0.4320  0.1122
 8941W        W 9805   4.473   4.154  11.046 -0.0935  0.1823 -0.0428
 8942W        W 9806   3.826   1.493  12.695 -0.2315  0.0767  0.0452
 8943W        W 9807   5.558   7.293  12.163 -0.3447 -0.0172  0.2673
 8944W        W 9808   6.491   8.758  11.197  0.1022 -0.2200  0.0472
 8945W        W 9809   3.835   7.930   8.353  0.3115 -0.1814 -0.2610
 8946W        W 9810   6.199   7.552  13.427  0.1287  0.0748  0.0103
 8947W        W 9811   3.171   2.739  12.044  0.1080 -0.3996  0.1423
 8948W        W 9812   5.082   4.912  13.259  0.2682 -0.0749 -0.1325
 8949W        W 9813   6.690   4.114  13.028  0.0764  0.0305 -0.2914
 8950W        W 9814   6.683   4.819  11.262  0.3576 -0.1866 -0.1305
 8951W        W 9815   7.408   8.898  12.864  0.1748  0.0904 -0.0133
 8952W        W 9816   7.761   8.887  10.510  0.1417 -0.2486 -0.0029
 8953W        W 9817   7.061   0.003  10.770  0.1684 -0.0578  0.0661
 8954W        W 9818   5.682   4.328   9.811 -0.1626 -0.1868 -0.0982
 8955W        W 9819   4.666   8.009   7.691 -0.2398  0.4333  0.0967
 8956W        W 9820   5.918   6.986   1.725  0.0897  0.1260 -0.1023
 8957W        W 9821   7.224   9.014  12.281 -0.0934  0.0441  0.0088
 8958W        W 9822   4.953   4.521   8.746 -0.1079 -0.0364 -0.1519
 8959W        W 9823   4.068   4.433  13.817 -0.1559  0.3506  0.2290
 8960W        W 9824   5.744   5.144   0.880  0.0748 -0.0682 -0.2070
 8961W        W 9825   3.460   4.108  11.192 -0.0374  0.1020 -0.1354
 8962W        W 9826   6.703   5.790  10.340 -0.1510 -0.1499 -0.1227
 8963W        W 9827   5.310   3.465  13.466  0.1839 -0.2295 -0.2607
 8964W        W 9828   6.639   7.792  11.531  0.0195  0.1512 -0.0403
 8965W        W 9829   6.352   3.422  11.326 -0.0171  0.3402 -0.1991
 8966W        W 9830   6.241   3.872   0.395  0.2207 -0.0855 -0.2654
 8967W        W 9831   7.089   6.658  12.389 -0.1662  0.0143 -0.2067
 8968W        W 9832   7.008   7.072   7.990  0.2549 -0.1511  0.2291
 8969W        W 9833   6.488   6.264  11.165  0.1878 -0.3282 -0.0210
 8970W        W 9834   2.615   6.083  12.781 -0.3453 -0.2292  0.1957
 8971W        W 9835   6.115   4.742   0.041  0.2106 -0.2540 -0.2163
 8972W        W 9836   4.519   3.529  12.750 -0.0549  0.0291 -0.1377
 8973W        W 9837   4.276   3.633  11.033 -0.0643  0.1156  0.2532
 8974W        W 9838   5.910   5.290  13.200  0.0309 -0.0948  0.0441
 8975W        W 9839   7.331   7.136  11.756 -0.4275  0.2419 -0.1845
 8976W        W 9840   5.554   8.428   9.327 -0.0005  0.0629  0.2932
 8977W        W 9841   4.583   3.220  11.005  0.0090 -0.1730 -0.0533
 8978W        W 9842   1.802   4.908  12.357 -0.1319 -0.0775  0.1248
 8979W        W 9843   5.302   6.791  12.219  0.2347 -0.1732 -0.1069
 8980W        W 9844   4.517   3.629  10.306  0.2172  0.2802  0.0440
 8981W        W 9845   4.585   6.020  12.526 -0.3124  0.1529  0.1111
 8982W        W 9846   6.445   7.895  10.115  0.0115  0.4667  0.1328
 8983W        W 9847   8.729   2.117  11.891  0.3460  0.0074  0.1629
 8984W        W 9848   6.075   6.342   9.350  0.0676 -0.1214 -0.0402
 8985W        W 9849   6.935   7.637  10.564 -0.0217  0.1232  0.1532
 8986W        W 9850   5.061   4.670  12.229  0.2451  0.0066 -0.1547
 8987W        W 9851   4.396   7.079  13.583 -0.2166  0.0687 -0.2157
 8988W        W 9852   7.247   8.657  11.847  0.1862 -0.0634  0.1992
 8989W        W 9853   4.252   7.252   0.090 -0.0938 -0.0400  0.0981
 8990W        W 9854   8.017   9.539  12.775 -0.0006  0.1429 -0.2361
 8991W        W 9855   4.704   7.519  10.884  0.0292  0.0531  0.1439
 8992W        W 9856   5.323   4.328   9.082  0.0334  0.0098 -0.1155
 8993W        W 9857   7.277   3.159  10.461 -0.5928 -0.0962 -0.2574
 8994W        W 9858   4.786   5.197  10.446  0.1392 -0.6226  0.0426
 8995W        W 9859   7.604   8.593  11.375  0.2743  0.2158 -0.0202
 8996W        W 9860   3.788   5.403  12.351 -0.2097 -0.1511 -0.0661
 8997W        W 9861   4.130   6.366  13.409  0.1723 -0.1518 -0.2844
 8998W        W 9862   5.556   9.047  11.040  0.1245 -0.1172 -0.0216
 8999W        W 9863   4.415   4.002  13.126 -0.1199  0.0418 -0.0724
 9000W        W 9864   7.799   2.715   9.469 -0.2553 -0.1122  0.0382
 9001W        W 9865   6.147   2.358   9.856 -0.0463 -0.5461 -0.0562
 9002W        W 9866   4.907   6.049  11.626  0.0825  0.1169 -0.2890
 9003W        W 9867   4.364   4.443  12.795  0.1542  0.3949 -0.0744
 9004W        W 9868   4.179   4.394  12.289 -0.2703  0.2346 -0.2255
 9005W        W 9869   3.458   5.047   9.790  0.0240  0.1376 -0.1168
 9006W        W 9870   5.670   7.475  13.835  0.0488 -0.0042 -0.1561
 9007W        W 9871   9.516   4.358  11.255  0.0276  0.1697 -0.1946
 9008W        W 9872   7.113   4.943  11.464  0.0679  0.0040 -0.1902
 9009W        W 9873   8.066   1.992  12.692  0.2350 -0.1642 -0.1343
 9010W        W 9874   4.049   7.097   9.271 -0.1102  0.0464 -0.1196
 9011W        W 9875   6.627   5.432  10.008 -0.1295 -0.0505 -0.0163
 9012W        W 9876   7.145   4.780  10.422 -0.0440  0.0118 -0.2408
 9013W        W 9877   7.065   4.930  10.923 -0.0524 -0.0569  0.0045
 9014W        W 9878   4.190   2.361  13.314 -0.0478 -0.2608 -0.1426
 9015W        W 9879   5.131   6.459  11.775  0.0763 -0.1400  0.2582
 9016W        W 9880   3.782   3.608   9.166  0.0710 -0.1035 -0.1670
 9017W        W 9881   5.457   5.554  13.706 -0.3258  0.3708  0.0390
 9018W        W 9882   7.945   7.221  13.299  0.1842  0.0118  0.1753
 9019W        W 9883   6.414   4.522  11.938  0.1722  0.0429 -0.1740
 9020W        W 9884   5.304   5.120  12.447  0.2001  0.0449 -0.1598
 9021W        W 9885   2.596   7.532   9.559  0.0703  0.1995 -0.1093
 9022W        W 9886   5.656   4.774  12.648 -0.0118 -0.1918 -0.0818
 9023W        W 9887   3.626   6.221  10.865  0.2831  0.0839  0.1930
 9024W        W 9888   7.273   9.259  11.079 -0.1599  0.0705 -0.4590
 9025W        W 9889   4.838   2.518  12.627  0.1669 -0.0252  0.0136
 9026W        W 9890   6.157   4.940  12.001 -0.3189 -0.0474 -0.1624
 9027W        W 9891   4.322   6.938  12.166  0.4612 -0.0179  0.0048
 9028W        W 9892   6.651   4.718  10.713 -0.0322  0.1725  0.0345
 9029W        W 9893   3.020   3.245  12.015 -0.0364 -0.2512 -0.1998
 9030W        W 9894   5.460   4.303  10.980 -0.3858  0.1671  0.0241
 9031W        W 9895   1.505   8.599  13.188 -0.0301 -0.0201  0.1861
 9032W        W 9896   3.344   4.547   9.654 -0.0384 -0.1515 -0.1209
 9033W        W 9897   5.096   1.871   9.463  0.4017 -0.0416  0.1643
 9034W        W 9898   5.321   7.040  12.669  0.0424 -0.0736  0.1443
 9035W        W 9899   4.291   3.969  12.631 -0.1914 -0.2027  0.0957
 9036W        W 9900   5.960   9.180   2.853 -0.1555 -0.0834 -0.1121
 9037W        W 9901   4.084   3.798   9.531 -0.1991 -0.3675  0.3230
 9038W        W 9902   4.709   5.651  13.552  0.2860 -0.0494 -0.1962
 9039W        W 9903   7.739   7.005   8.922  0.0544  0.0908  0.0854
 9040W        W 9904   2.948   4.344  12.045  0.0561 -0.0569 -0.2354
 9041W        W 9905   5.804   9.346  11.373 -0.0640  0.3320  0.0677
 9042W        W 9906   6.261   3.337  13.766 -0.0252 -0.0006  0.0528
 9043W        W 9907   1.590   5.310  12.680 -0.2874  0.3157  0.0288
 9044W        W 9908   5.675   8.803  11.428 -0.4350 -0.1646 -0.2755
 9045W        W 9909   3.043   4.186  10.809 -0.0434  0.1326  0.2320
 9046W        W 9910   8.487   4.514   1.390  0.0578 -0.0279 -0.2764
 9047W        W 9911   4.992  13.794  10.291  0.0059  0.2698 -0.4020
 9048W        W 9912   6.030   7.304  12.063  0.1347 -0.0562 -0.3090
 9049W        W 9913   4.227   5.633  11.411 -0.1273 -0.0850  0.0101
 9050W        W 9914   7.193   4.905  12.507  0.0342  0.1089  0.1469
 9051W        W 9915   6.541   1.972   8.549  0.0624  0.0349 -0.0280
 9052W        W 9916   5.025   2.571  11.291  0.1165  0.0808 -0.0770
 9053W        W 9917   4.080   5.983  11.792 -0.0290 -0.0353  0.1122
 9054W        W 9918   5.999   5.197  13.734  0.0554 -0.0128 -0.2473
 9055W        W 9919   6.092   3.998   1.640 -0.1105 -0.1315 -0.0461
 9056W        W 9920   3.267   5.999  11.252  0.3322  0.2271 -0.3306
 9057W        W 9921   5.743   5.491   9.784  0.0788  0.0194  0.0753
 9058W        W 9922   4.133   9.423  13.665 -0.0597 -0.1512  0.1007
 9059W        W 9923   0.399   4.382  11.168  0.0192 -0.2801 -0.2019
 9060W        W 9924   3.418   3.649  11.994  0.1192 -0.1552 -0.1260
 9061W        W 9925   4.230   6.341  10.912  0.0946  0.3291  0.0476
 9062W        W 9926   5.279   3.925  13.330 -0.1016  0.0021  0.2659
 9063W        W 9927   7.890   6.978  13.893 -0.0824 -0.2080  0.1432
 9064W        W 9928   6.287   2.284  12.106 -0.0535  0.2396  0.1816
 9065W        W 9929   5.760   7.517  13.246 -0.0854 -0.2702 -0.0246
 9066W        W 9930   4.065   7.548  12.274  0.2055  0.0553  0.1424
 9067W        W 9931   3.186   7.777  13.825 -0.0959  0.0900 -0.2409
 9068W        W 9932   6.250   1.567  11.309  0.2165  0.1210 -0.0923
 9069W        W 9933   3.061   4.041  11.662  0.3639  0.0659  0.1232
 9070W        W 9934   3.819   3.557  11.374 -0.1305  0.0170 -0.2912
 9071W        W 9935   4.819   3.897   9.879 -0.2304  0.2910 -0.0700
 9072W        W 9936   6.253   5.329   0.726 -0.2880 -0.2408 -0.3075
 9073W        W 9937   8.317   2.503  11.576  0.5929 -0.0738  0.2597
 9074W        W 9938   6.363   6.468  10.231 -0.1602  0.3219  0.0151
 9075W        W 9939   6.203   2.401  10.397  0.0226  0.2598 -0.2564
 9076W        W 9940   7.928   8.198  12.319 -0.0258  0.2223 -0.2438
 9077W        W 9941   5.630   9.646  11.828 -0.0936  0.1362  0.0402
 9078W        W 9942   6.883   1.464   9.682  0.2530  0.0387  0.0628
 9079W        W 9943   7.113   2.545  12.850 -0.0801 -0.0540  0.1714
 9080W        W 9944   4.020   3.157  11.084 -0.1128  0.3289 -0.0578
 9081W        W 9945   6.896   6.244  12.261 -0.0297  0.0513  0.1750
 9082W        W 9946   5.365   6.929  11.746 -0.1223  0.3508  0.0937
 9083W        W 9947   6.664   9.467   0.073 -0.0273 -0.2547 -0.0397
 9084W        W 9948   5.914   8.054  11.656 -0.1054  0.1703 -0.3243
 9085W        W 9949   4.177   6.397  12.082  0.0255  0.2835 -0.0141
 9086W        W 9950   6.308   7.310   1.386 -0.0489 -0.0211  0.2081
 9087W        W 9951   3.787   6.297   2.748  0.2762  0.0572  0.0067
 9088W        W 9952   5.104   6.045  12.773 -0.1298  0.3223 -0.4442
 9089W        W 9953   2.109   4.436  12.615 -0.0766 -0.1608 -0.1887
 9090W        W 9954   3.636   8.621  13.292 -0.1155 -0.2965 -0.2064
 9091W        W 9955   6.197   4.703   9.335 -0.1685 -0.0637 -0.1386
 9092W        W 9956   6.513   5.839  12.861  0.0568  0.1174 -0.0685
 9093W        W 9957   6.713   9.069  10.333  0.2793 -0.2989 -0.2525
 9094W        W 9958   5.005   6.978   1.584  0.0040  0.1969 -0.0184
 9095W        W 9959   5.461   4.308  12.395 -0.1723 -0.3373  0.0745
 9096W        W 9960   5.701   5.015  12.230 -0.2951  0.0871 -0.0973
 9097W        W 9961   4.816   6.342  12.249  0.0700  0.1116  0.3768
 9098W        W 9962   6.474   6.669  10.825  0.3465  0.1060  0.1026
 9099W        W 9963   7.188   7.742  13.273  0.1080  0.3129  0.2232
 9100W        W 9964   4.097   7.634  13.293 -0.1683  0.2581 -0.2469
 9101W        W 9965   5.757   3.822  12.934 -0.1042  0.0013 -0.1594
 9102W        W 9966   3.947   5.491  11.891  0.0687  0.0311  0.2352
 9103W        W 9967   4.679   3.339   9.137 -0.0594 -0.1784 -0.0840
 9104W        W 9968   3.310  11.392   2.923 -0.1340 -0.1192 -0.0964
 9105W        W 9969   3.738   0.052   2.221 -0.3462 -0.2084 -0.1028
 9106W        W 9970   8.213   9.097   1.201 -0.0385  0.1422 -0.0232
 9107W        W 9971   7.602   9.177   3.888  0.2217  0.3456 -0.1169
 9108W        W 9972   4.125  12.883   0.969 -0.3713 -0.1890 -0.0450
 9109W        W 9973   4.772   9.146   2.747 -0.3691  0.0940  0.0729
 9110W        W 9974   5.408   8.067   2.516  0.0355  0.4701 -0.1454
 9111W        W 9975   4.758   9.726  13.363  0.0465  0.1485 -0.3168
 9112W        W 9976   7.589   9.020   2.478 -0.4466  0.1215 -0.1043
 9113W        W 9977   4.233   9.302   3.249 -0.4461  0.2569 -0.1346
 9114W        W 9978   3.263   8.112   4.180  0.1048  0.0163 -0.1418
 9115W        W 9979   7.395   7.492   1.197  0.1714  0.2773  0.0544
 9116W        W 9980   5.446   7.803  12.134  0.1520 -0.0047 -0.2290
 9117W        W 9981   7.518   7.377   2.111 -0.0990  0.0666 -0.0769
 9118W        W 9982   4.863   7.300   1.950  0.1355  0.3474 -0.0287
 9119W        W 9983   5.155  11.071   4.323  0.0250 -0.1582  0.2037
 9120W        W 9984   5.611   8.431  12.871  0.0320 -0.0218 -0.3047
 9121W        W 9985   3.119  10.135   2.946 -0.1775 -0.0599 -0.0865
 9122W        W 9986   3.716   8.282   2.623  0.0446  0.0234  0.2822
 9123W        W 9987   7.333   8.630   1.023 -0.1515 -0.0250  0.1718
 9124W        W 9988   3.876   7.578   2.195  0.1769 -0.3511 -0.1814
 9125W        W 9989   5.756   9.599   1.179 -0.0265  0.1055 -0.1571
 9126W        W 9990   5.545   8.807   2.761 -0.0132 -0.1437 -0.0738
 9127W        W 9991   3.405  12.332   1.281  0.0594 -0.1627  0.4921
 9128W        W 9992   5.664  10.433   0.194 -0.1178  0.1856 -0.1582
 9129W        W 9993   3.275   9.541   2.239  0.0589 -0.0225 -0.3235
 9130W        W 9994   5.258   9.134  12.970 -0.1265  0.0108  0.2077
 9131W        W 9995   4.913  10.495   2.163 -0.1466  0.2368 -0.0400
 9132W        W 9996   6.624   9.605   0.552  0.1203  0.0953  0.2189
 9133W        W 9997   5.261  10.410   0.801 -0.0946 -0.4689 -0.2556
 9134W        W 9998   5.456   9.877   2.389 -0.0196  0.1593 -0.0747
 9135W        W 9999   5.569  10.494   2.784 -0.2239 -0.0046 -0.0931
 9136W        W10000   5.738   8.242   2.881 -0.1389 -0.2729 -0.1284
 9137W        W10001   3.770  11.021   3.598  0.1016 -0.0524 -0.2221
 9138W        W10002   4.369   9.072   4.737  0.1650 -0.0824  0.1647
 9139W        W10003   6.692   8.660   2.448 -0.1332 -0.0477  0.2403
 9140W        W10004   4.133   5.784  12.223  0.1789  0.2805  0.0617
 9141W        W10005   5.033  10.175   1.209  0.3765  0.0253 -0.2095
 9142W        W10006   9.295   9.066   0.329  0.0758 -0.2360  0.4388
 9143W        W10007   8.999   6.445   1.566 -0.0520 -0.0345  0.0619
 9144W        W10008   4.893  10.164  12.628 -0.0496 -0.1185 -0.0695
 9145W        W10009   7.840   8.039   2.683  0.0654 -0.0516  0.0260
 9146W        W10010   7.197  11.171   0.777  0.0064 -0.2052  0.0698
 9147W        W10011   4.445   7.885  13.656  0.1405  0.0476  0.1818
 9148W        W10012   5.413  12.579   0.900  0.1786 -0.0603 -0.1641
 9149W        W10013   6.548  11.594   1.893  0.0953 -0.1015  0.2573
 9150W        W10014   5.080   5.378  13.154 -0.0129 -0.2712 -0.0350
 9151W        W10015   7.611   5.940   4.285 -0.1110  0.2089  0.0837
 9152W        W10016   7.845   7.827  13.924 -0.0063  0.0083  0.0561
 9153W        W10017   6.227  11.499   0.602  0.0777  0.1321  0.0008
 9154W        W10018   5.420   9.280   0.973  0.0813  0.2093 -0.2244
 9155W        W10019   3.677   7.402   2.677  0.2913  0.1987  0.0374
 9156W        W10020   5.841  11.197   0.721  0.3197  0.4062 -0.1177
 9157W        W10021   9.186   6.320  13.462  0.1855 -0.3481 -0.0290
 9158W        W10022   5.215   6.840   0.811 -0.4305 -0.1437 -0.0400
 9159W        W10023   2.712  11.605  13.630 -0.0339 -0.1927 -0.2011
 9160W        W10024   3.982   8.044   3.110 -0.1593  0.0465 -0.0805
 9161W        W10025   5.382   8.671  13.231 -0.0185 -0.1122  0.1690
 9162W        W10026   3.043  12.135   1.540  0.0172 -0.0280 -0.0691
 9163W        W10027   3.958  11.182   2.205 -0.4884 -0.1909 -0.1046
 9164W        W10028   7.586   7.922  13.472  0.1518  0.4213  0.1717
 9165W        W10029   4.025  10.687   1.209 -0.0529 -0.4732 -0.0926
 9166W        W10030   9.249  11.308   1.466  0.1203 -0.1047  0.2592
 9167W        W10031   3.921   7.548   3.462  0.0308 -0.1298 -0.0989
 9168W        W10032   5.331   7.605   2.583  0.2779 -0.0669 -0.0539
 9169W        W10033   8.970   7.054   0.760 -0.4693 -0.4239 -0.0967
 9170W        W10034   6.329   9.117   1.063  0.1469 -0.1903 -0.0653
 9171W        W10035   5.764  10.814   0.449  0.0397  0.2289 -0.1043
 9172W        W10036   7.092  12.726   0.748  0.0136  0.3506 -0.1248
 9173W        W10037   6.924  11.333   3.436  0.0501  0.0803 -0.1179
 9174W        W10038   7.537  10.498   2.404 -0.2085  0.0903 -0.0720
 9175W        W10039   8.111   7.477  13.685  0.1043 -0.1799  0.3231
 9176W        W10040   9.633   9.358   2.517  0.0860 -0.3041 -0.1136
 9177W        W10041   5.723   6.613  13.377 -0.1428  0.1980 -0.0623
 9178W        W10042   5.217   9.195   2.475 -0.1261  0.3109 -0.2155
 9179W        W10043   4.876   8.632   3.065 -0.0476 -0.3201  0.1264
 9180W        W10044   1.613   9.302   3.098  0.1181  0.1032 -0.0079
 9181W        W10045   5.698  10.254   4.484  0.1656  0.3096 -0.0294
 9182W        W10046   7.279  10.654   1.081 -0.3186  0.1602  0.0261
 9183W        W10047   9.893   8.928   2.593 -0.2642  0.3901 -0.0140
 9184W        W10048   4.593   9.514   2.410 -0.3240 -0.3040  0.2508
 9185W        W10049   3.195  11.077   3.532  0.1139  0.0055  0.0126
 9186W        W10050   4.470   9.397   0.259 -0.1575  0.1024 -0.1131
 9187W        W10051   7.941   5.067   0.902 -0.1860  0.4289  0.1425
 9188W        W10052   7.552   7.926   3.300 -0.0652 -0.1304 -0.3000
 9189W        W10053   3.153   8.988   0.908 -0.1117 -0.0373 -0.0191
 9190W        W10054   6.998  10.909   0.281 -0.0487 -0.0427  0.1342
 9191W        W10055   6.664   6.932   0.500  0.1477 -0.2596 -0.0499
 9192W        W10056   8.433   9.924   3.210 -0.1520 -0.0294 -0.0910
 9193W        W10057   7.751   7.768   4.356 -0.1125 -0.0541  0.0453
 9194W        W10058   4.123   8.995   0.479  0.0179 -0.0368  0.0574
 9195W        W10059   3.146   8.082   2.801  0.1146 -0.2235  0.2207
 9196W        W10060   6.364  13.621   2.355  0.0816  0.1019 -0.1290
 9197W        W10061   5.392  11.393  12.250 -0.0886  0.0937 -0.1888
 9198W        W10062   2.587   8.150   3.619  0.1667  0.0970  0.4002
 9199W        W10063   8.708   7.748   3.475 -0.1080 -0.1246  0.0081
 9200W        W10064   8.803   7.662   0.216 -0.0592  0.0296 -0.0286
 9201W        W10065   5.397  11.178   2.164  0.4499 -0.0953  0.3906
 9202W        W10066   2.654   8.557  12.314 -0.0834  0.1440 -0.0986
 9203W        W10067   4.507   7.186  12.552 -0.2668  0.3873 -0.1024
 9204W        W10068   1.652  10.715   2.251 -0.2655 -0.0129  0.0646
 9205W        W10069   4.126   9.724  12.181  0.1089  0.0938  0.2330
 9206W        W10070   8.937   7.574   0.724  0.3110  0.0916  0.1792
 9207W        W10071   7.232   6.106   0.974 -0.0498 -0.0471  0.1283
 9208W        W10072   8.362   9.121   2.115 -0.0137  0.0489 -0.1178
 9209W        W10073   4.636  10.189   2.994  0.1340 -0.0080 -0.0470
 9210W        W10074   6.789   7.497   4.894 -0.0916  0.0192 -0.1155
 9211W        W10075   6.454   8.671  13.449  0.1231 -0.2901  0.0524
 9212W        W10076   3.202   6.506  12.994 -0.1477  0.2211  0.0616
 9213W        W10077   4.206  12.500   2.510 -0.1805 -0.2059 -0.1575
 9214W        W10078   7.509   9.550  12.911 -0.1693  0.2472  0.1943
 9215W        W10079   4.990   5.964   2.388 -0.2727  0.1214 -0.0699
 9216W        W10080   7.115  11.508   2.359  0.4775 -0.1134 -0.2741
 9217W        W10081   9.150   9.783  13.787  0.2029  0.2088 -0.0813
 9218W        W10082   3.159  10.777   2.677  0.1396 -0.0909 -0.3656
 9219W        W10083   8.775   7.150   5.278 -0.1333 -0.1011  0.2411
 9220W        W10084   2.820  10.224   1.434  0.0967  0.3716  0.1497
 9221W        W10085   8.181   8.130   2.308  0.1518  0.0182  0.0968
 9222W        W10086   5.503   7.511  12.794  0.0663 -0.0637 -0.2418
 9223W        W10087   6.032   9.540   3.859  0.2928  0.0165  0.0120
 9224W        W10088   6.683   7.650   2.056 -0.2710 -0.1659  0.0637
 9225W        W10089   4.965   6.553   1.280 -0.3254 -0.2598 -0.0756
 9226W        W10090   8.591   9.541  12.031 -0.3924 -0.1327 -0.2270
 9227W        W10091   7.294  10.250   0.701 -0.1795  0.1255 -0.0855
 9228W        W10092   5.892   9.185   0.390  0.2198 -0.0786 -0.1943
 9229W        W10093   2.813   8.901   1.599 -0.1339  0.0329 -0.3867
 9230W        W10094   8.368   9.427   2.920 -0.1859  0.0502  0.1480
 9231W        W10095   8.153  10.319   4.221  0.1835 -0.0544 -0.3665
 9232W        W10096   3.710  10.233   1.176  0.1172 -0.1133 -0.0051
 9233W        W10097   5.072   7.149   2.793  0.2472 -0.2379 -0.1481
 9234W        W10098   9.587   7.851   1.535 -0.0567 -0.0974  0.2896
 9235W        W10099   4.804  12.692   5.589 -0.2624 -0.0051 -0.0968
 9236W        W10100   4.970   5.943  13.921 -0.1957 -0.1443  0.0700
 9237W        W10101   6.247   7.769   2.824  0.0248  0.0408 -0.0615
 9238W        W10102   4.519   8.128   2.348  0.1057 -0.0752  0.0365
 9239W        W10103   8.722   7.790   1.405  0.0120  0.0344  0.1573
 9240W        W10104  13.307   7.656  13.877 -0.2227  0.1084 -0.3306
 9241W        W10105   5.668  11.247   1.161  0.0615 -0.2344  0.0358
 9242W        W10106   5.891  12.991   1.324 -0.0239 -0.2314 -0.0059
 9243W        W10107   3.398   8.093  11.993  0.0669  0.0845  0.0012
 9244W        W10108   4.706   6.320   1.754  0.1207 -0.3869  0.0495
 9245W        W10109   2.578  11.773  12.601  0.0926  0.0993 -0.0983
 9246W        W10110   6.335   8.991   1.898  0.0214 -0.0270  0.0059
 9247W        W10111   6.678   8.199   2.142 -0.2623 -0.3133 -0.1838
 9248W        W10112   6.418   8.903  13.006 -0.1952 -0.1729 -0.0931
 9249W        W10113   8.029   8.919   1.710  0.2843  0.0050  0.3165
 9250W        W10114   5.579  11.687   2.274  0.0476 -0.1831 -0.1960
 9251W        W10115   2.790  10.722   3.552  0.0854  0.0276  0.1470
 9252W        W10116   5.778  10.710   2.330 -0.2592  0.2271  0.2382
 9253W        W10117   6.679  10.229   2.689  0.1394 -0.3720  0.0143
 9254W        W10118   5.137   8.415  13.656 -0.0451  0.0782 -0.0437
 9255W        W10119   6.321  11.317   2.610  0.0972  0.0976 -0.0916
 9256W        W10120   4.878   9.294  11.941 -0.3404 -0.2459  0.1687
 9257W        W10121   3.845   9.054   2.984  0.2866  0.0700 -0.0794
 9258W        W10122   5.091  10.051   2.142  0.2060 -0.2944  0.1127
 9259W        W10123   4.509  10.873   2.210  0.1543 -0.0525  0.0915
 9260W        W10124   7.561   9.139   0.044 -0.0258  0.2172 -0.2572
 9261W        W10125   4.404   9.027  13.866  0.0354  0.4861  0.1252
 9262W        W10126   4.823   8.309   0.958  0.1559 -0.1136  0.0745
 9263W        W10127   5.081  11.007   2.976 -0.1329  0.0880  0.2106
 9264W        W10128   4.282  11.023   2.621 -0.1985 -0.0600 -0.2181
 9265W        W10129   7.816   8.214   3.674 -0.0136  0.3361 -0.0298
 9266W        W10130   5.986  10.332   2.562 -0.3548  0.0722 -0.0433
 9267W        W10131   3.306   8.514   1.250  0.1108 -0.0767  0.1229
 9268W        W10132   5.821   8.667   3.166 -0.0451  0.1832 -0.1849
 9269W        W10133   3.564   9.272   0.836  0.0688 -0.1707 -0.1254
 9270W        W10134   3.410  12.424   2.494 -0.0006  0.0904 -0.2497
 9271W        W10135   6.768   9.145   6.566  0.3297  0.2430  0.1514
 9272W        W10136   6.411   9.817  13.787  0.1986  0.6040 -0.1831
 9273W        W10137   4.592  11.291  11.836 -0.0447 -0.1349 -0.3260
 9274W        W10138   7.688   8.515   2.712 -0.1104 -0.2194  0.0702
 9275W        W10139   6.212  10.711   1.731 -0.1139  0.0468  0.1128
 9276W        W10140   7.091  11.585   2.915 -0.0046 -0.3936 -0.2731
 9277W        W10141   8.164   6.314  13.537  0.0720  0.2602  0.3200
 9278W        W10142   7.173   6.637   1.584 -0.0506 -0.1578  0.2089
 9279W        W10143   6.230  12.082   3.821  0.2316  0.2934 -0.0542
 9280W        W10144   2.000  10.142   0.608 -0.0388  0.1009  0.1348
 9281W        W10145   1.333  11.039  13.799 -0.2461  0.2187  0.3210
 9282W        W10146   7.266   7.790   1.614  0.1815 -0.0945 -0.0933
 9283W        W10147   3.602  11.453   0.745  0.1850 -0.0899  0.1237
 9284W        W10148   6.419  11.063   0.982 -0.1253  0.1585 -0.3367
 9285W        W10149   6.737   9.452   1.062  0.1669 -0.1015  0.0845
 9286W        W10150   5.744   8.435   2.397  0.0230 -0.1338  0.0013
 9287W        W10151   4.138   7.512  12.769  0.0800  0.0548  0.0408
 9288W        W10152   6.301   8.135   1.325  0.0413 -0.2910  0.1644
 9289W        W10153   4.476   9.236  12.317 -0.2442  0.0340 -0.0869
 9290W        W10154   5.362   8.575   1.120  0.1193  0.0733  0.1408
 9291W        W10155   3.366  10.630   3.743  0.1642  0.2557  0.2069
 9292W        W10156   5.566   9.862   1.854  0.1632  0.0131 -0.2144
 9293W        W10157   7.407  10.749   0.593  0.0130 -0.1594 -0.0255
 9294W        W10158   4.981   9.460   0.508  0.1135 -0.0656 -0.0810
 9295W        W10159   4.737   6.593   2.870 -0.0169 -0.0331 -0.0220
 9296W        W10160   3.360   7.006   3.377 -0.2343  0.1492  0.0648
 9297W        W10161   7.359   8.036   1.015  0.0428 -0.1609 -0.0281
 9298W        W10162   7.480   9.630   1.032 -0.0204 -0.3029  0.1187
 9299W        W10163   6.391   5.469   1.564 -0.1171 -0.1678 -0.0182
 9300W        W10164   6.155   6.701   2.631 -0.0615  0.1507 -0.1694
 9301W        W10165   3.323   7.402   0.513  0.2619  0.1962 -0.0124
 9302W        W10166   9.271   8.620   3.681 -0.1089  0.2076  0.0181
 9303W        W10167   5.338   9.153  11.654  0.2969  0.0599 -0.0711
 9304W        W10168   5.988  10.009   1.018 -0.0299  0.2710 -0.0106
 9305W        W10169   9.687   8.771  13.126 -0.1000  0.0265  0.0914
 9306W        W10170   3.300   9.462   3.063 -0.1200  0.3946  0.2415
 9307W        W10171   5.940   8.540  13.361 -0.0690  0.0985  0.2573
 9308W        W10172   4.122   9.336   0.899 -0.0329  0.2911  0.0777
 9309W        W10173   3.173  10.877   4.722 -0.1496  0.3411 -0.0608
 9310W        W10174   8.538   9.837   1.695  0.0681  0.1301  0.1118
 9311W        W10175   7.274  11.984   2.490  0.1388 -0.1659 -0.0989
 9312W        W10176   2.284   9.252  12.864  0.1158  0.0622 -0.2102
 9313W        W10177   5.039  11.580   2.267 -0.0975 -0.0459 -0.1544
 9314W        W10178   1.751  10.350   4.411 -0.0977  0.1295 -0.0012
 9315W        W10179   5.060   8.729   2.635 -0.1365  0.0175 -0.0042
 9316W        W10180   8.873   8.978   2.098 -0.1067  0.1753  0.0345
 9317W        W10181   8.545   8.938   1.683  0.0985 -0.1852  0.1119
 9318W        W10182   6.918   9.923   0.382 -0.3467 -0.0594  0.2111
 9319W        W10183   6.253  11.795  11.846  0.2917 -0.0994 -0.0046
 9320W        W10184   6.412  11.111  13.276  0.4052 -0.1183  0.1307
 9321W        W10185   8.106   9.785   2.595 -0.1345  0.0362  0.3410
 9322W        W10186   4.824  12.838   4.018  0.0446 -0.3106 -0.0470
 9323W        W10187   8.801   8.580   2.839  0.2480  0.1095  0.0185
 9324W        W10188   8.035   9.282   2.498 -0.0602 -0.2334  0.0735
 9325W        W10189   5.915  11.232   4.489  0.0110  0.1564  0.0028
 9326W        W10190   6.310   8.683  12.581 -0.0541  0.0803 -0.3633
 9327W        W10191   8.859  10.667   0.961 -0.1801  0.1471 -0.0785
 9328W        W10192   4.611   7.367   2.921 -0.2473  0.2760 -0.2104
 9329W        W10193   5.545  11.693   1.346  0.1659  0.2943 -0.0235
 9330W        W10194   7.212   8.220   5.053 -0.0472 -0.1947 -0.1044
 9331W        W10195   8.296  13.572   1.109  0.3180 -0.0008 -0.1039
 9332W        W10196   5.721  10.848   1.673  0.0895 -0.0995  0.1081
 9333W        W10197   3.881   9.462   3.948  0.3926 -0.0415 -0.0953
 9334W        W10198   3.735   9.103   2.218 -0.3846 -0.0092 -0.0537
 9335W        W10199   5.025   9.500  13.682 -0.3182  0.1581  0.1149
 9336W        W10200   8.357  11.436   0.689  0.0401 -0.0307  0.5182
 9337W        W10201   4.774  10.693   0.868 -0.4039 -0.1904 -0.0279
 9338W        W10202   5.537  12.249   2.141  0.0257  0.0610  0.1078
 9339W        W10203   6.237   7.553   2.363  0.0332  0.0555  0.0023
 9340W        W10204   5.066   6.461   3.278  0.3847 -0.1127 -0.3385
 9341W        W10205   8.011   8.765   2.281  0.2249  0.0876  0.3351
 9342W        W10206   5.456   8.986   1.445  0.1597  0.0565  0.1884
 9343W        W10207   6.647  12.268  13.647  0.0302 -0.2116 -0.3089
 9344W        W10208   2.986  12.788   4.204 -0.0853  0.0321  0.2000
 9345W        W10209   2.852   8.890   3.134  0.2184 -0.0215 -0.3268
 9346W        W10210   3.347   7.766   2.412  0.1355 -0.0636 -0.2186
 9347W        W10211   4.048   6.737  13.817  0.1681  0.1905  0.2954
 9348W        W10212   4.098   9.830  12.721 -0.0507 -0.3314  0.2552
 9349W        W10213   8.900  10.694   2.703 -0.1895  0.0535 -0.3082
 9350W        W10214   6.147  11.686   4.174  0.0539 -0.2689  0.1369
 9351W        W10215   9.044   9.025   1.600 -0.1775 -0.1865  0.1443
 9352W        W10216   4.096   7.492   2.990  0.0806 -0.0154  0.1437
 9353W        W10217   7.758   9.962   1.313  0.1339 -0.0152 -0.2277
 9354W        W10218   4.101  10.734   5.263  0.1009 -0.0386  0.0263
 9355W        W10219   6.658  11.690   2.433  0.2545 -0.2416  0.3141
 9356W        W10220   5.339   7.882   3.575 -0.0573 -0.0082 -0.0878
 9357W        W10221   4.596   9.671  12.580 -0.0813 -0.1095  0.2100
 9358W        W10222   9.992   9.878   0.555  0.3414  0.0584  0.0722
 9359W        W10223   7.636   8.603  13.324 -0.0689  0.1053 -0.1310
 9360W        W10224   4.561   8.870   0.321 -0.0511 -0.0927  0.1178
 9361W        W10225   6.278   8.484   1.695 -0.0055  0.2907 -0.0160
 9362W        W10226   8.607   6.975   4.490 -0.5246 -0.2734 -0.1621
 9363W        W10227   5.774   8.569  12.351  0.0624 -0.1922 -0.2928
 9364W        W10228   6.992   7.989   0.606  0.0480  0.0487  0.0147
 9365W        W10229   6.233   9.810   3.504 -0.2785  0.0802 -0.0480
 9366W        W10230   5.560   6.774   2.182  0.2004 -0.3056  0.0566
 9367W        W10231   5.646  11.388   1.764 -0.0969  0.1669  0.3717
 9368W        W10232   4.079  12.551   3.099 -0.2482  0.1781 -0.0291
 9369W        W10233   6.038  13.646  13.625  0.1666 -0.3465 -0.3222
 9370W        W10234   7.186   9.512   0.203 -0.0610 -0.2427 -0.0333
 9371W        W10235   2.936   9.844   3.844 -0.1069 -0.1850 -0.0173
 9372W        W10236   9.547   8.475   2.684  0.0638  0.0697  0.2482
 9373W        W10237   3.348  11.658  11.579 -0.1137 -0.0033  0.0533
 9374W        W10238   9.129   6.867   0.228 -0.2457  0.1316  0.2260
 9375W        W10239   7.401   7.702   4.853 -0.2003  0.1096 -0.0835
 9376W        W10240   3.478  10.481   1.982  0.1607 -0.0521  0.0120
 9377W        W10241   6.005  10.759   0.876  0.4620 -0.0494  0.2838
 9378W        W10242   8.275   5.072   3.136  0.0086  0.1194 -0.0859
 9379W        W10243   3.448   8.289   0.794  0.1792 -0.1287 -0.0982
 9380W        W10244   3.565   8.942   0.318  0.0172 -0.2519  0.3008
 9381W        W10245   5.722  10.945  12.122 -0.0429  0.2883  0.1779
 9382W        W10246   3.895  10.157   3.400 -0.1375  0.2463 -0.0291
 9383W        W10247   4.599   7.664  12.453 -0.0782  0.0074  0.1547
 9384W        W10248   4.745   7.604  13.368 -0.2187  0.0424  0.1976
 9385W        W10249   4.323   8.707   1.485  0.1141  0.1300 -0.1168
 9386W        W10250   3.810  12.841   2.433 -0.0586 -0.1147 -0.4219
 9387W        W10251   7.277   7.602  12.606  0.0493  0.2312 -0.2488
 9388W        W10252   5.270   6.683   2.598 -0.0413 -0.0019 -0.1499
 9389W        W10253   6.694   9.825  13.236  0.0166  0.1350  0.3805
 9390W        W10254   4.436  10.450   1.960  0.0505 -0.2766 -0.2118
 9391W        W10255   8.351   8.603   1.332  0.1367 -0.1226 -0.0596
 9392W        W10256   9.608  11.211   1.119  0.1815 -0.2546 -0.2619
 9393W        W10257   6.076  12.616  13.601  0.2259  0.0244  0.2286
 9394W        W10258   5.160   7.433  13.789 -0.0779 -0.0483 -0.1007
 9395W        W10259   5.044   9.711   2.612  0.0571 -0.1943  0.0072
 9396W        W10260   4.449   7.954   1.703  0.0957 -0.0006 -0.2608
 9397W        W10261   6.583   8.961   1.493  0.0707  0.1724 -0.2539
 9398W        W10262   6.716   8.499   1.368  0.1747  0.2545  0.2497
 9399W        W10263   4.532   9.672   1.281 -0.1563  0.0245 -0.0723
 9400W        W10264   6.833   7.499   3.348  0.2653  0.0723 -0.1307
 9401W        W10265   8.036   7.179   2.210 -0.1902  0.2208  0.0891
 9402W        W10266   6.867   8.049   1.157  0.1105 -0.0390  0.2303
 9403W        W10267   2.498  11.372   2.055  0.1514 -0.2327  0.0463
 9404W        W10268   2.827   6.429   3.255  0.0187 -0.2687 -0.0587
 9405W        W10269   6.224  10.825   2.536 -0.0612 -0.4444  0.4149
 9406W        W10270   8.628   9.409   1.444 -0.0148  0.0360 -0.0021
 9407W        W10271   4.979  10.179  13.149 -0.3023 -0.0391 -0.1540
 9408W        W10272   4.274  10.825   1.672 -0.0498 -0.0796 -0.0138
 9409W        W10273   7.114   9.593   1.420 -0.0317  0.3967  0.3489
 9410W        W10274   5.208  10.794   2.424  0.1113  0.2525  0.4590
 9411W        W10275   6.277  10.383  13.839  0.2180 -0.0015  0.0082
 9412W        W10276   3.838  10.119   2.512  0.0760 -0.0079  0.0378
 9413W        W10277   6.093   9.030  13.359 -0.3796  0.0087 -0.1063
 9414W        W10278   5.493   9.356   4.459  0.0662 -0.0648  0.0502
 9415W        W10279   4.102   7.705  11.435 -0.3784 -0.4963 -0.1067
 9416W        W10280   5.288   8.391   2.984  0.1434 -0.1947  0.0163
 9417W        W10281   4.586  12.829   2.437 -0.0439 -0.1042 -0.1634
 9418W        W10282   6.443  10.198   4.989 -0.0075 -0.0991  0.3144
 9419W        W10283   8.781  11.605  13.682  0.1868  0.1227 -0.1029
 9420W        W10284   6.243   8.145  13.463  0.1105  0.2039  0.1156
 9421W        W10285   5.277  11.248   0.508 -0.1204  0.2023  0.1519
 9422W        W10286   2.302   8.373   3.212 -0.1981  0.1484  0.0559
 9423W        W10287   6.836  12.785   6.118  0.2775 -0.0026 -0.1749
 9424W        W10288   8.747   8.479  13.476 -0.0965  0.1748 -0.2204
 9425W        W10289   2.288  10.181   1.112 -0.0459 -0.0773  0.0397
 9426W        W10290   4.301   9.867   3.191  0.1987 -0.1127 -0.1239
 9427W        W10291   5.726   9.008   2.347  0.0431 -0.1432  0.3742
 9428W        W10292   5.821  12.048   3.551 -0.0559 -0.2095  0.1265
 9429W        W10293   6.807   7.823  11.995  0.1738  0.0525 -0.0929
 9430W        W10294   6.022   9.911   1.635  0.0882 -0.0039  0.1399
 9431W        W10295   5.789   8.629   1.459  0.1027 -0.0641  0.3441
 9432W        W10296   3.642   8.523   2.122 -0.0240 -0.0222 -0.1123
 9433W        W10297   4.917   7.759   2.844 -0.0073  0.2445  0.3453
 9434W        W10298   7.662   7.039  12.107 -0.0829 -0.0896 -0.1533
 9435W        W10299   4.932  11.190   0.865  0.5625  0.1071 -0.0697
 9436W        W10300   6.306  11.796   2.765 -0.1107 -0.3911 -0.2743
 9437W        W10301   8.493  10.434   1.501  0.3312  0.2218 -0.1108
 9438W        W10302   8.121  10.313   0.564  0.1639  0.2086 -0.4271
 9439W        W10303   5.529  12.488   3.295 -0.0905 -0.3885 -0.3376
 9440W        W10304   6.875   8.962  13.390  0.0497  0.3412  0.0571
 9441W        W10305   6.331   8.349   0.806  0.1413 -0.4134  0.0415
 9442W        W10306   6.275   8.405  13.031 -0.1317  0.0691 -0.0704
 9443W        W10307   3.896  10.394   1.673 -0.1728 -0.1723 -0.0287
 9444W        W10308   4.134   7.781   1.331 -0.2293 -0.3693 -0.2107
 9445W        W10309   6.101  10.898  13.741 -0.0051 -0.0830 -0.1645
 9446W        W10310   4.198  11.475   0.732  0.2211  0.2012 -0.2248
 9447W        W10311   5.441   9.517   2.805  0.0816 -0.0191 -0.0940
 9448W        W10312   6.170  10.963   3.075 -0.0549 -0.3832  0.1358
 9449W        W10313   5.333  10.791   0.202 -0.0752  0.0531 -0.0035
 9450W        W10314   2.494   7.427   2.183  0.0463  0.0989 -0.1738
 9451W        W10315   4.275  12.112   3.006 -0.4553 -0.0347  0.0684
 9452W        W10316   3.161   9.229   0.531 -0.2369 -0.1207  0.1268
 9453W        W10317   6.420   8.903   2.864  0.2779  0.0493  0.2073
 9454W        W10318   6.703   6.841  13.135 -0.1118 -0.0139  0.1654
 9455W        W10319   7.275   9.151   1.179  0.1282 -0.2075 -0.3372
 9456W        W10320   6.608  10.561   0.224 -0.1921  0.0879  0.0607
 9457W        W10321   4.113  10.813   0.461 -0.2182 -0.0207 -0.1197
 9458W        W10322   0.664  12.523   3.553 -0.1806 -0.1531  0.2215
 9459W        W10323   6.268   7.010   3.224 -0.3683 -0.1721  0.1811
 9460W        W10324   3.446   8.055   5.194  0.0381 -0.1179  0.0404
 9461W        W10325   0.978  11.255   4.063 -0.1598 -0.2164  0.0636
 9462W        W10326   5.983   6.353   2.999 -0.1933  0.0562  0.1225
 9463W        W10327   6.309   6.820   1.357 -0.1159 -0.3254 -0.1747
 9464W        W10328   4.384   8.241   2.816  0.0699 -0.2565 -0.1359
 9465W        W10329   9.253   6.911  12.337  0.1686 -0.0149  0.1724
 9466W        W10330   5.081  10.812   1.346 -0.0131 -0.0592 -0.0567
 9467W        W10331   5.601   9.369  12.633 -0.1931 -0.0700 -0.0769
 9468W        W10332   6.447   9.456   1.632  0.1433  0.3622  0.1363
 9469W        W10333   4.157  10.004  13.661  0.2548  0.1957  0.1929
 9470W        W10334   7.257   9.879  12.676  0.0476 -0.0541  0.1343
 9471W        W10335  10.836   9.010   2.466 -0.1136  0.1248  0.1430
 9472W        W10336   5.801   8.981   1.065  0.1938  0.0666 -0.0775
 9473W        W10337   5.126   8.986   0.703 -0.0525 -0.2987  0.1246
 9474W        W10338   6.094   9.515  11.720  0.1511 -0.2019  0.0143
 9475W        W10339   7.098   7.467   4.462  0.1028  0.0719 -0.2059
 9476W        W10340   8.129  11.316   1.098 -0.2934  0.0322  0.0837
 9477W        W10341   3.295   7.527   3.111 -0.2239  0.0270  0.0765
 9478W        W10342   6.689   7.909   3.047  0.0537  0.2634  0.3206
 9479W        W10343   5.858   8.365   1.915  0.2215 -0.0203  0.0061
 9480W        W10344   7.119   7.885   3.630 -0.0871 -0.4932 -0.1361
 9481W        W10345   2.231  11.035   1.712 -0.0345  0.2402  0.1078
 9482W        W10346   3.962   9.347   4.820 -0.1824  0.2330  0.0154
 9483W        W10347   3.787   7.715   3.903  0.1024  0.0431 -0.2571
 9484W        W10348   5.630   8.243   3.379 -0.0344  0.3245  0.3806
 9485W        W10349   6.807  10.317   0.645  0.1032  0.4494 -0.1252
 9486W        W10350   8.023   6.547   3.253  0.0895 -0.0217 -0.0256
 9487W        W10351   6.994  10.610  13.867 -0.3280 -0.0661  0.3605
 9488W        W10352   4.438  11.048   0.932  0.2293 -0.0545  0.1120
 9489W        W10353   4.733  11.597   1.663 -0.1012 -0.0782  0.0062
 9490W        W10354   7.775   9.337   1.539  0.1462 -0.1040 -0.0542
 9491W        W10355   4.719   7.333   2.449 -0.1120  0.3080 -0.0995
 9492W        W10356   3.068  10.675   1.714 -0.1609  0.1568  0.3143
 9493W        W10357   8.011   8.978  13.350 -0.0383  0.1990  0.1833
 9494W        W10358   3.816  11.405   1.787 -0.1310  0.0371 -0.0768
 9495W        W10359   3.447  12.330   0.778  0.0154  0.0236  0.0879
 9496W        W10360   2.864   8.359   4.012 -0.1766  0.0908 -0.0395
 9497W        W10361   5.114  10.316   1.709 -0.1484 -0.0789 -0.1267
 9498W        W10362   6.027  11.599   1.540  0.0016 -0.2029 -0.0185
 9499W        W10363   5.202  11.185   1.583  0.0756 -0.0778 -0.1105
 9500W        W10364   4.325   9.438  11.833 -0.1104  0.3937  0.1319
 9501W        W10365   5.624   9.606   7.526  0.2250 -0.1042 -0.0895
 9502W        W10366   6.357   8.138   4.819  0.1412 -0.2434 -0.0979
 9503W        W10367   5.137   9.202   3.076 -0.0342 -0.2629 -0.0646
 9504W        W10368  10.831   9.639   5.889  0.1295 -0.1296  0.1415
 9505W        W10369   4.210  10.685   4.110 -0.1448  0.2082 -0.0639
 9506W        W10370   5.211   9.911   5.599  0.0424  0.1096 -0.0274
 9507W        W10371   2.969   8.284   5.192 -0.0780 -0.0082  0.3574
 9508W        W10372   4.641  10.852   4.748 -0.1806  0.0681 -0.0105
 9509W        W10373   5.495   9.735   5.144  0.0013 -0.2072 -0.2114
 9510W        W10374   3.693   7.128   7.695  0.0244 -0.0111  0.0482
 9511W        W10375   5.069   8.738   3.840  0.3607 -0.0017  0.1256
 9512W        W10376   8.377   8.834   7.770  0.1227 -0.0017  0.1350
 9513W        W10377   6.366   7.488   0.918  0.0654  0.0569  0.1571
 9514W        W10378   6.534   7.479   5.977 -0.0239  0.1586  0.1611
 9515W        W10379   5.073   7.996   5.422 -0.1708 -0.2674 -0.2318
 9516W        W10380   6.435  10.291   7.406  0.0253  0.1259 -0.0288
 9517W        W10381   3.671  11.896   4.191 -0.1554  0.0182 -0.3548
 9518W        W10382   4.913   9.553   3.505  0.2965 -0.2792 -0.0080
 9519W        W10383   5.853   6.674   6.417 -0.2055  0.0134  0.4437
 9520W        W10384   5.435  11.002   6.738 -0.2171 -0.1004  0.0043
 9521W        W10385   4.670   9.038   3.829  0.0182 -0.0237  0.1159
 9522W        W10386   4.732   6.386   4.634  0.2992  0.1194 -0.0080
 9523W        W10387   6.956   6.661   5.531  0.0516  0.1591 -0.1553
 9524W        W10388   3.172  10.960   6.457 -0.0451 -0.2333  0.0493
 9525W        W10389   2.650   7.628   5.797  0.2794 -0.2930 -0.2255
 9526W        W10390   5.525   9.339   5.492 -0.0137  0.4322  0.1111
 9527W        W10391   7.688   8.492   7.439 -0.1012 -0.0554 -0.0856
 9528W        W10392   5.488  12.311   3.799 -0.0281 -0.3491  0.2334
 9529W        W10393   5.065   8.762   4.352 -0.1785 -0.2580  0.0655
 9530W        W10394   3.627   8.849   4.349 -0.1369  0.1943  0.0579
 9531W        W10395   5.644   6.257   4.489  0.0017  0.0031  0.0921
 9532W        W10396   5.514   7.856   7.880  0.0419  0.1129 -0.2964
 9533W        W10397   5.948   7.535   7.082 -0.1352 -0.0183  0.1495
 9534W        W10398   8.665   9.552   6.052  0.2217 -0.0277  0.1832
 9535W        W10399   5.342   8.263  10.874  0.0304 -0.0657  0.5394
 9536W        W10400   6.488   6.697   7.792 -0.2260 -0.0114 -0.2573
 9537W        W10401   3.602   7.917   3.371  0.3726  0.0556 -0.4195
 9538W        W10402   4.101   8.662   4.372 -0.2039 -0.2371  0.3005
 9539W        W10403   6.800   8.976   5.424  0.1691  0.1472 -0.1636
 9540W        W10404   7.449   3.915   5.086  0.0382 -0.0305  0.1294
 9541W        W10405   6.356   7.747   5.172 -0.0054  0.0793 -0.4371
 9542W        W10406   6.974   7.653   7.238 -0.0426 -0.1401  0.3559
 9543W        W10407   2.623  10.306   5.264 -0.0586  0.0518 -0.0350
 9544W        W10408   8.303   9.542   6.548 -0.2644  0.1688  0.3311
 9545W        W10409   2.517   9.759   3.334 -0.0037  0.3564  0.2492
 9546W        W10410   3.142  12.428   2.953 -0.1677 -0.1566  0.0214
 9547W        W10411   1.530   8.651   3.700  0.1300  0.0053 -0.0577
 9548W        W10412   5.155   8.898   6.969  0.0763 -0.1419 -0.0163
 9549W        W10413   4.847   8.230   5.815 -0.0901  0.0131  0.0400
 9550W        W10414   9.476   7.702   3.503 -0.0552 -0.0799  0.0143
 9551W        W10415   2.201   6.650   4.980 -0.0380 -0.2777  0.0145
 9552W        W10416   4.732   9.279   6.814 -0.0929  0.1347 -0.0546
 9553W        W10417   5.650   9.976   7.126  0.1567  0.0756 -0.1022
 9554W        W10418   7.348   7.799   4.121  0.2504 -0.2399 -0.1241
 9555W        W10419   6.612   7.319   4.477  0.1986  0.0620  0.2401
 9556W        W10420   1.883  10.935   3.279 -0.1473  0.1546  0.3474
 9557W        W10421   2.476   7.688   2.612 -0.1042 -0.1729  0.1547
 9558W        W10422   9.472   7.271   7.619  0.2992  0.0464 -0.0099
 9559W        W10423   4.017   9.853   5.531 -0.2399 -0.1135  0.1781
 9560W        W10424   6.823  10.570   4.806  0.2933  0.3499  0.1321
 9561W        W10425   5.552   8.571   3.746 -0.0532 -0.3178 -0.1626
 9562W        W10426   3.577  10.941   5.582  0.1640  0.1939 -0.1183
 9563W        W10427   5.705   9.019   6.943 -0.1702 -0.1277  0.0065
 9564W        W10428   5.388   7.380   3.168 -0.0070  0.0119  0.0904
 9565W        W10429   2.335   8.870   5.245  0.0012 -0.3104  0.0795
 9566W        W10430   8.186   7.974   6.985 -0.1611  0.1631  0.0565
 9567W        W10431   4.339  10.348   2.502  0.0627  0.1500 -0.0733
 9568W        W10432   2.493   9.098   3.929 -0.1355 -0.0752  0.0274
 9569W        W10433   3.255  10.203   4.048 -0.2376  0.0948  0.0369
 9570W        W10434   7.019   9.376   7.840  0.2005 -0.3353  0.3921
 9571W        W10435   3.605   6.355   3.870 -0.3859 -0.1374 -0.2047
 9572W        W10436   6.822   9.001   3.834 -0.0820 -0.3282  0.0939
 9573W        W10437   6.024   7.047   5.703 -0.1952 -0.0443  0.1842
 9574W        W10438  10.342   8.026   7.728 -0.0380 -0.1530 -0.0357
 9575W        W10439   5.662  11.488   8.490  0.2742 -0.1375  0.0221
 9576W        W10440   2.793   8.996   2.083  0.1663  0.1789 -0.0384
 9577W        W10441   5.652   9.779   5.628  0.0882  0.0508  0.1013
 9578W        W10442   8.231   7.871   2.870 -0.1164 -0.0790  0.2192
 9579W        W10443   5.174   9.099   6.527  0.1455 -0.2621 -0.1415
 9580W        W10444   2.510   7.453   4.702  0.0462  0.0476 -0.1348
 9581W        W10445   3.771   6.671   5.926  0.0126 -0.2055  0.1890
 9582W        W10446   3.356   8.790   5.914 -0.4076 -0.0315  0.1842
 9583W        W10447   5.437   8.370   5.718 -0.1519 -0.1203  0.1361
 9584W        W10448   6.293   8.442   7.184 -0.2140 -0.4304  0.0199
 9585W        W10449   5.615   6.999   4.946  0.3618  0.0912  0.0479
 9586W        W10450   9.569   8.854   6.290 -0.2785 -0.2828  0.1461
 9587W        W10451   4.493   6.700   4.944 -0.1348 -0.2841  0.0002
 9588W        W10452   6.963   9.006   7.529  0.0823  0.0989  0.0391
 9589W        W10453   5.858   6.080   6.104  0.0212  0.0388  0.0040
 9590W        W10454   2.030   7.259   3.738 -0.0382 -0.0410 -0.1598
 9591W        W10455   8.033   8.140   9.178  0.6081  0.0665 -0.0896
 9592W        W10456   4.771  10.331   4.666 -0.1175 -0.0697  0.1606
 9593W        W10457   5.942   9.413   4.786  0.4394  0.0597  0.1274
 9594W        W10458   2.938   9.438   4.922 -0.0703 -0.1361  0.2044
 9595W        W10459   6.091   7.411   4.012  0.0826  0.0540  0.0785
 9596W        W10460   5.170   8.117   1.359 -0.0901  0.0670 -0.2820
 9597W        W10461   5.801  11.666   7.251  0.0002  0.0185 -0.3017
 9598W        W10462   3.801   5.810   4.860 -0.2068 -0.0252  0.2605
 9599W        W10463   7.226   8.692   5.295  0.0241 -0.0690 -0.3321
 9600W        W10464   7.072  10.444   4.306 -0.0692  0.1258 -0.1237
 9601W        W10465   2.859  11.040   3.037 -0.0533  0.0440  0.0599
 9602W        W10466   6.804   8.648   5.821 -0.3429  0.2755 -0.1814
 9603W        W10467   7.739  10.122   6.866  0.1294 -0.0021  0.0052
 9604W        W10468   8.914   6.934   6.769  0.1211 -0.0450 -0.1578
 9605W        W10469   5.254  10.131   4.627 -0.1990 -0.0586  0.3220
 9606W        W10470   7.673  11.351   6.031 -0.0195  0.0238 -0.2407
 9607W        W10471   6.812   9.883   5.839 -0.0148 -0.1620  0.1684
 9608W        W10472   5.043   7.392   4.982 -0.0316  0.1518  0.0879
 9609W        W10473   2.437   8.687   2.792  0.0596 -0.0712  0.3385
 9610W        W10474   4.396   8.979   6.208 -0.1159 -0.2063 -0.5477
 9611W        W10475   5.434  10.473   1.290  0.0246  0.0737  0.0176
 9612W        W10476   7.184   8.515   7.157  0.1327 -0.2773 -0.0963
 9613W        W10477   8.227   6.863   7.354  0.2019 -0.2125 -0.4236
 9614W        W10478   6.317   9.665   4.966 -0.0748  0.3131  0.1052
 9615W        W10479   5.731   8.204   6.582 -0.1710 -0.1089  0.0051
 9616W        W10480   8.881   9.674   6.501  0.4228 -0.0051 -0.0030
 9617W        W10481   6.506   7.711   4.214 -0.0036 -0.0279  0.1689
 9618W        W10482   6.890   7.215   6.217  0.0190 -0.0180 -0.2259
 9619W        W10483   2.825   8.836   4.328  0.1904  0.1411  0.1032
 9620W        W10484   6.585   6.628   5.059  0.0944  0.0527  0.3575
 9621W        W10485   8.843   8.354   4.602 -0.2734  0.0254 -0.0299
 9622W        W10486   6.268   9.548   5.886  0.1615 -0.2871 -0.2396
 9623W        W10487   5.457   9.483   1.533  0.2446  0.0016 -0.0793
 9624W        W10488   5.974   8.358   5.715  0.2144 -0.1233  0.2026
 9625W        W10489   7.610   7.164   7.038  0.1680  0.3517  0.3059
 9626W        W10490   4.190   5.496   3.362 -0.0141  0.2361 -0.3884
 9627W        W10491   6.601   8.150   3.467  0.2287 -0.0145  0.2999
 9628W        W10492  10.888  11.955   6.852  0.3722  0.1417 -0.1465
 9629W        W10493   7.767   7.315   6.130  0.1454 -0.1165 -0.3128
 9630W        W10494   7.489   9.302   6.986 -0.0513 -0.3308  0.1094
 9631W        W10495   6.671   5.894   8.045 -0.1285  0.0785 -0.0236
 9632W        W10496   7.216  10.723   9.476  0.0283  0.0697  0.1792
 9633W        W10497   6.416   5.430   5.487 -0.3277 -0.1000 -0.0296
 9634W        W10498   4.821   9.060   7.348  0.0098  0.1676  0.1051
 9635W        W10499   3.835   9.849   4.810 -0.0134  0.2492  0.2596
 9636W        W10500   7.828   7.110   7.956 -0.0151 -0.0574  0.0133
 9637W        W10501   5.248   7.202   3.698  0.2994 -0.1484 -0.1026
 9638W        W10502   4.141   8.044   2.095 -0.0909 -0.1208 -0.1998
 9639W        W10503   4.343  10.086   5.906  0.0825  0.1725  0.2960
 9640W        W10504   2.671   7.536   7.109  0.2061  0.0387 -0.0646
 9641W        W10505   3.352   7.221   7.002  0.0012  0.1055  0.2244
 9642W        W10506   5.056  11.167   5.149  0.1684 -0.2927 -0.0157
 9643W        W10507   6.101   8.566   2.751  0.2884 -0.5569  0.0495
 9644W        W10508   3.567   7.456   8.422  0.2189 -0.0181  0.1422
 9645W        W10509   5.030   6.822   6.523 -0.1223 -0.0152 -0.0606
 9646W        W10510   5.888   7.784   3.170 -0.0739 -0.2227 -0.2187
 9647W        W10511   7.490  10.898   7.216  0.0568  0.2236  0.1745
 9648W        W10512   5.443   9.938   6.068  0.0949 -0.0439 -0.2581
 9649W        W10513   5.944   8.025   5.344  0.1262  0.3212 -0.0233
 9650W        W10514   5.884   9.605   3.131 -0.1033 -0.0913 -0.0344
 9651W        W10515   2.409  11.447   3.081 -0.3073  0.1689 -0.1405
 9652W        W10516   5.839  10.735   6.576 -0.1653  0.0827 -0.1251
 9653W        W10517   4.950   7.610   3.326  0.0684  0.1396  0.0473
 9654W        W10518   4.204  10.583   4.615  0.0850 -0.3859 -0.2115
 9655W        W10519   8.290   5.786   6.285  0.1066 -0.1482  0.2548
 9656W        W10520   2.378   5.282   7.104 -0.1191 -0.0290 -0.2659
 9657W        W10521   4.774   6.267   5.096 -0.0026 -0.0909 -0.1560
 9658W        W10522   4.512   7.261   4.328  0.0078  0.1535 -0.1145
 9659W        W10523   4.239   6.469   4.534  0.0471  0.1814 -0.1640
 9660W        W10524   4.101   7.646   4.375 -0.0161  0.0232 -0.2757
 9661W        W10525   5.731   9.056   7.752 -0.3795 -0.0312  0.1253
 9662W        W10526   6.451   8.157   7.950 -0.1145  0.3919  0.1727
 9663W        W10527   4.992   6.700   5.004  0.0753 -0.1890 -0.3078
 9664W        W10528   5.200   8.151   6.265  0.4596  0.0362  0.0503
 9665W        W10529   4.091   9.714   4.406  0.0593  0.2742 -0.2612
 9666W        W10530   7.237   5.783   5.325 -0.0739 -0.0437  0.0876
 9667W        W10531   5.056  10.501   3.018 -0.0072  0.1239  0.1526
 9668W        W10532   6.191   9.929   5.524 -0.0502  0.2520  0.0571
 9669W        W10533   3.026   8.033   3.330 -0.1924 -0.1485  0.2772
 9670W        W10534   4.293   6.675   6.017 -0.0304 -0.0943 -0.1584
 9671W        W10535   2.429   6.504   3.639 -0.1201  0.0630 -0.1347
 9672W        W10536   6.927   7.541   3.932  0.2212 -0.0604  0.0555
 9673W        W10537   7.093   8.832   3.389 -0.1113 -0.0884 -0.0333
 9674W        W10538   5.534   7.454   4.790  0.2776  0.1987  0.1502
 9675W        W10539   6.370   5.972   6.160 -0.2182  0.0681 -0.0130
 9676W        W10540   3.183  11.118   5.161 -0.1032 -0.0827 -0.1557
 9677W        W10541   4.908   7.083   5.859  0.0885 -0.1654 -0.4066
 9678W        W10542   4.349  10.329   3.406 -0.0921  0.0956 -0.0809
 9679W        W10543   7.857   5.546   4.546  0.0240 -0.2190  0.1973
 9680W        W10544   6.144  10.026   4.570 -0.0800  0.0644 -0.1912
 9681W        W10545   5.223   8.393   4.624 -0.1394  0.0608  0.1831
 9682W        W10546   7.290   8.321   3.828  0.0536 -0.3004 -0.0516
 9683W        W10547   3.911   7.385   4.773  0.0031  0.1627  0.0336
 9684W        W10548   6.623   7.130   2.465 -0.0889 -0.0195  0.1058
 9685W        W10549   5.950   9.973   4.080 -0.0690  0.0345  0.2035
 9686W        W10550   5.971   7.492   1.929  0.0918  0.0055 -0.2138
 9687W        W10551   3.916   7.068   2.259 -0.0730 -0.3667  0.1653
 9688W        W10552   7.270   8.921   6.749  0.1316  0.2335  0.0832
 9689W        W10553   3.401  11.314   3.923  0.3620 -0.0842  0.1795
 9690W        W10554   4.947  11.238   3.383 -0.0187 -0.0029 -0.1962
 9691W        W10555   5.611  10.233   5.373  0.0010  0.0603  0.0823
 9692W        W10556   2.988   7.281   4.897 -0.1209 -0.2772 -0.1522
 9693W        W10557   4.835   9.213   5.597 -0.1715  0.1290  0.2767
 9694W        W10558   5.095   5.539   5.876  0.0936 -0.0223 -0.0043
 9695W        W10559   4.756   7.082   3.887  0.4162  0.1296  0.2249
 9696W        W10560   4.742   8.085   3.655  0.0441  0.1259  0.1390
 9697W        W10561   4.507   4.897   4.516  0.0103 -0.1082 -0.0560
 9698W        W10562   3.413   8.266   3.714  0.3015  0.0637  0.2224
 9699W        W10563   8.629   7.231   9.526  0.1649  0.3745  0.0547
 9700W        W10564   8.475   7.017   1.216  0.1938 -0.1314 -0.2753
 9701W        W10565   7.583   9.476   8.386  0.1002  0.0308 -0.3792
 9702W        W10566   7.245   5.501   4.925 -0.0753  0.0102  0.0608
 9703W        W10567   4.581   6.612   6.498  0.1080  0.1120 -0.3960
 9704W        W10568   4.245   7.267   5.142  0.0937 -0.3752 -0.1357
 9705W        W10569   5.214   5.944   3.221 -0.0748  0.1191 -0.1461
 9706W        W10570   5.231   7.365   6.083 -0.1069  0.2315  0.0886
 9707W        W10571   7.476   6.369   6.684 -0.1589  0.1141  0.0158
 9708W        W10572   7.368  10.700   4.667 -0.1864  0.1624  0.1279
 9709W        W10573   5.582  10.975   2.767 -0.0116 -0.0050 -0.2370
 9710W        W10574   6.014   9.989   6.028 -0.0651 -0.0813 -0.0456
 9711W        W10575   4.476   7.604   4.671 -0.2549  0.2738 -0.3449
 9712W        W10576   4.924   8.530   2.228 -0.2270 -0.2313  0.0765
 9713W        W10577   8.714   7.940   8.542 -0.1728  0.1307 -0.5413
 9714W        W10578  10.239   9.557   7.070 -0.2385 -0.1721  0.1513
 9715W        W10579   6.996   9.885   1.923 -0.0598  0.3884  0.2418
 9716W        W10580   5.481   6.690   1.667  0.1875 -0.2166  0.1482
 9717W        W10581   5.596   9.424   2.109  0.2293 -0.0300 -0.0968
 9718W        W10582   9.954   9.778   6.332  0.3270 -0.4958 -0.1319
 9719W        W10583   4.908  11.081   8.911 -0.1987 -0.0330 -0.3663
 9720W        W10584   6.805   6.501   6.897 -0.1612  0.4893  0.1290
 9721W        W10585   6.710   8.575   7.458  0.0284 -0.0983  0.3522
 9722W        W10586   6.790   7.377   6.710  0.2415  0.0313 -0.0138
 9723W        W10587   6.491   7.169   3.666  0.0505  0.0135 -0.2078
 9724W        W10588   6.300   7.843   5.688 -0.3401  0.1451  0.0719
 9725W        W10589   4.719   9.728   5.552  0.0190 -0.0775  0.0281
 9726W        W10590   8.521  10.580   6.542  0.5133 -0.1135 -0.0967
 9727W        W10591   6.209   4.986   7.731 -0.0763  0.1804 -0.0137
 9728W        W10592   7.192  10.247   1.644  0.2452  0.1178 -0.3921
 9729W        W10593   3.756   7.460   5.809 -0.0818 -0.1128 -0.2714
 9730W        W10594   4.880   6.474   6.080  0.0629 -0.0666  0.2142
 9731W        W10595   5.039   6.284   6.546  0.1505 -0.1776  0.1174
 9732W        W10596   4.451   9.615   3.589  0.0055 -0.1953  0.0870
 9733W        W10597   4.674   7.627   5.238  0.2433 -0.0232  0.0586
 9734W        W10598   3.513  10.062   5.090 -0.1234 -0.1910 -0.1925
 9735W        W10599   2.768  10.297   4.771 -0.0230  0.3657 -0.3864
 9736W        W10600   4.760   6.610   3.890  0.1876  0.0410 -0.1416
 9737W        W10601   5.150   9.850   8.267 -0.2615  0.1550  0.0251
 9738W        W10602   6.351   8.661   4.408 -0.0183  0.1630 -0.0027
 9739W        W10603   5.324   8.806   5.580  0.0923  0.0673 -0.1684
 9740W        W10604   4.941  11.675   3.666 -0.0903  0.1053 -0.1833
 9741W        W10605   0.739   8.096   6.189 -0.0045  0.0238 -0.0242
 9742W        W10606   1.684   7.762   8.246 -0.1214  0.2164  0.0708
 9743W        W10607   1.177   5.028   5.935  0.3759 -0.0224  0.3119
 9744W        W10608   4.833   8.422   6.796  0.0875 -0.0656  0.1145
 9745W        W10609   4.717   9.871   3.946 -0.0689 -0.1453  0.3594
 9746W        W10610   5.328  10.429   5.749  0.0789 -0.3670 -0.0944
 9747W        W10611   6.520  11.726   6.364 -0.0825  0.0626  0.4868
 9748W        W10612   6.787   8.039   3.919  0.1089  0.1766 -0.3412
 9749W        W10613   1.272   7.140   5.387  0.1810 -0.0675 -0.0269
 9750W        W10614   3.880   8.383   3.484  0.2880 -0.1324  0.0878
 9751W        W10615   4.579  10.751   6.693  0.3917 -0.3642  0.0727
 9752W        W10616   6.761   8.171   7.158 -0.3185  0.0507 -0.1344
 9753W        W10617   6.582  10.287   4.437  0.0102 -0.1758 -0.1792
 9754W        W10618   3.702   7.169   3.107  0.0525  0.3113  0.0583
 9755W        W10619   7.019   7.960   4.623 -0.0789 -0.0698 -0.0416
 9756W        W10620   6.982   4.794   5.412  0.0188 -0.2756  0.0847
 9757W        W10621   5.519   6.103   6.602  0.1043 -0.1006  0.0295
 9758W        W10622   8.600  10.184   5.311 -0.0399  0.0847 -0.0298
 9759W        W10623   9.725   7.499   7.110 -0.3561  0.1279 -0.1228
 9760W        W10624   3.146   9.063   4.626 -0.2947  0.3132 -0.0520
 9761W        W10625   6.122   6.812   7.340  0.0181  0.0676 -0.0551
 9762W        W10626   4.265   8.557   5.504  0.1455  0.1946 -0.0788
 9763W        W10627   5.235  10.202   7.298 -0.1519  0.1409  0.1250
 9764W        W10628   4.529  11.558   1.117  0.1566 -0.1317  0.0371
 9765W        W10629   5.061  10.196   6.748 -0.2078 -0.3626 -0.3015
 9766W        W10630   3.453   9.959   4.553 -0.3034  0.2702 -0.2254
 9767W        W10631   7.064   9.423   4.682 -0.1244  0.0235  0.1100
 9768W        W10632   4.725   8.684   8.742 -0.0006  0.2085 -0.1926
 9769W        W10633   6.055   9.438   2.359 -0.2167  0.1687 -0.0811
 9770W        W10634   6.328  10.459   2.972  0.2064 -0.1325  0.3416
 9771W        W10635   3.823   7.227   4.296 -0.0017 -0.1254  0.0627
 9772W        W10636   7.164   6.902   5.949  0.2270  0.1924  0.0061
 9773W        W10637   6.218   8.325   6.471  0.1373  0.1802 -0.1019
 9774W        W10638   9.901   9.633   5.129 -0.0203 -0.4151  0.1090
 9775W        W10639   7.025   6.014   6.103 -0.2782 -0.3253 -0.0040
 9776W        W10640   1.492   6.614   8.119  0.0243 -0.1604 -0.0183
 9777W        W10641   4.141   7.565   5.539 -0.0992 -0.1701 -0.2411
 9778W        W10642   6.620   7.860   2.533 -0.0072  0.2195  0.1648
 9779W        W10643   4.644  10.102   8.095 -0.0350 -0.0289 -0.1465
 9780W        W10644   7.948   8.038   5.685  0.0050  0.1356 -0.1025
 9781W        W10645   3.765   9.527   5.248  0.3662  0.1424  0.2435
 9782W        W10646   3.247   8.278   2.388 -0.1583 -0.0284  0.1897
 9783W        W10647   4.993  10.541   5.142 -0.3347 -0.1893  0.2043
 9784W        W10648   5.603   6.506   4.946  0.3502 -0.4243  0.0273
 9785W        W10649   5.684   5.206   6.376  0.2737  0.1505  0.2136
 9786W        W10650   6.277   9.032   3.806 -0.0832 -0.1186  0.0420
 9787W        W10651   6.042   5.963   7.578 -0.2075 -0.2082 -0.1521
 9788W        W10652   6.869   7.009   5.156  0.0695  0.2084 -0.1099
 9789W        W10653   6.180   5.271   5.026  0.1757 -0.0923 -0.0629
 9790W        W10654   8.546   9.423   2.450 -0.0139  0.2805  0.2356
 9791W        W10655   6.925   9.223   2.415  0.0871  0.0305 -0.1447
 9792W        W10656   3.405   6.122   4.467 -0.1652  0.0084 -0.2276
 9793W        W10657   2.955   8.425   6.723 -0.0344 -0.3273 -0.0743
 9794W        W10658   2.010   7.369   4.586  0.1053 -0.0215  0.2693
 9795W        W10659   6.413   8.466   3.976 -0.1968  0.2145  0.0933
 9796W        W10660   5.281   7.994   4.887  0.0451  0.0738  0.2603
 9797W        W10661   8.039   7.773   7.532  0.2389  0.0127  0.1890
 9798W        W10662   9.066   7.000   5.778 -0.1672  0.0805 -0.3118
 9799W        W10663   4.005   9.517   6.681  0.2584 -0.0585  0.2992
 9800W        W10664   4.199   8.789   3.429 -0.3917 -0.1325 -0.0223
 9801W        W10665   2.759   7.966   6.748 -0.2600 -0.0068  0.3495
 9802W        W10666   6.462  10.626   8.802  0.2155 -0.2559  0.3266
 9803W        W10667   7.373   7.445   3.372 -0.0513  0.0840 -0.0947
 9804W        W10668   5.971   7.344   3.476  0.1090  0.1103  0.1262
 9805W        W10669   5.204  10.110   5.138 -0.1674 -0.0871  0.0268
 9806W        W10670   3.497   9.626   6.698  0.3668  0.0752  0.1628
 9807W        W10671   4.340   6.956   2.946 -0.3647  0.5308  0.1187
 9808W        W10672   0.716   4.777   5.880 -0.3085 -0.0360 -0.0347
 9809W        W10673   3.179  10.461   5.000 -0.4529  0.1592  0.2931
 9810W        W10674   1.721   7.595   3.594  0.0032  0.1902 -0.1253
 9811W        W10675   5.901   9.360   9.870  0.0012 -0.2859 -0.2934
 9812W        W10676   8.339   8.354   5.874  0.3845 -0.3436 -0.0368
 9813W        W10677   8.293   7.284   8.063  0.2140 -0.0150 -0.1524
 9814W        W10678   5.379  11.935   7.165 -0.2216  0.0922 -0.0331
 9815W        W10679   5.029   8.438   5.083 -0.0070 -0.2931  0.2160
 9816W        W10680   6.427   6.476   3.122 -0.0933  0.1559  0.2985
 9817W        W10681   5.619   6.905   3.499  0.0622  0.0627  0.0204
 9818W        W10682   6.298   8.627   4.936  0.2302 -0.1973 -0.0099
 9819W        W10683   4.625  12.069   3.782  0.1633  0.1765 -0.1075
 9820W        W10684   2.741   9.599   7.010 -0.1684 -0.0100  0.2113
 9821W        W10685   5.930   8.551   5.264  0.5034  0.0024  0.0466
 9822W        W10686   4.240   9.366   5.396 -0.3575  0.1919 -0.0784
 9823W        W10687   9.256   9.427   6.965 -0.1345  0.0023  0.0938
 9824W        W10688   4.412   8.010   4.109  0.1453  0.0688 -0.1019
 9825W        W10689   5.078   9.552   5.259 -0.0907  0.0465 -0.1023
 9826W        W10690   2.374   6.823   2.738  0.1385 -0.0233 -0.2039
 9827W        W10691   3.491   9.101   4.977  0.0191  0.0181 -0.2653
 9828W        W10692   3.765   5.007   2.623 -0.0823 -0.2154 -0.0069
 9829W        W10693   2.103   9.872   3.578  0.0339 -0.2737 -0.1740
 9830W        W10694   5.428   9.044   4.073 -0.1628  0.0794  0.0135
 9831W        W10695   7.211   5.966   7.233  0.0674 -0.1200  0.0807
 9832W        W10696   8.283   8.939   6.822  0.4040 -0.0031  0.0070
 9833W        W10697   7.950   9.188   6.443  0.0615 -0.1491 -0.2362
 9834W        W10698   8.816   8.954   7.526  0.1098 -0.1258  0.1618
 9835W        W10699   6.452   9.743   7.575  0.0029 -0.0783 -0.1470
 9836W        W10700   5.429   9.618   3.398 -0.0474  0.0236 -0.0550
 9837W        W10701   6.060   7.090   2.281  0.3300  0.0853 -0.1753
 9838W        W10702   5.504   8.305   5.187 -0.1634  0.0342 -0.2153
 9839W        W10703   5.188   6.131   4.840 -0.2199 -0.1422  0.0833
 9840W        W10704   5.887  12.395   1.762 -0.1823 -0.0342 -0.2502
 9841W        W10705   3.335   7.162   4.493  0.1531 -0.0980 -0.0820
 9842W        W10706   7.509   8.293   5.428 -0.0909  0.0184 -0.1136
 9843W        W10707   7.406   9.214   4.364  0.0365 -0.2096 -0.1604
 9844W        W10708   6.610  10.751   4.139  0.0946 -0.1277  0.0902
 9845W        W10709   5.247   9.506   5.853  0.4192  0.1149  0.1051
 9846W        W10710   7.647   6.600   1.532 -0.0705  0.0144  0.2025
 9847W        W10711   2.710   5.308   5.167 -0.1541 -0.0620  0.0515
 9848W        W10712   3.155   9.547   6.302 -0.0884  0.1775 -0.1614
 9849W        W10713   5.283   8.780   3.296 -0.5390  0.0112 -0.1508
 9850W        W10714   5.767   8.523   6.173 -0.0092  0.1402 -0.0283
 9851W        W10715   8.927   9.943   7.100 -0.0007 -0.0523 -0.0155
 9852W        W10716   6.292   6.471   6.265  0.0766 -0.1154  0.3115
 9853W        W10717   7.112   7.598   7.766 -0.1377 -0.1669 -0.2447
 9854W        W10718   6.767   9.511   6.142  0.0226 -0.0740  0.0068
 9855W        W10719   8.636   7.655   6.334 -0.1037 -0.4553 -0.0182
 9856W        W10720   5.621  12.914   5.932 -0.0937  0.0886  0.2180
 9857W        W10721   6.595   6.332   5.871  0.0627 -0.1124  0.1223
 9858W        W10722   4.399   7.973   6.380  0.0945 -0.0319 -0.2666
 9859W        W10723   5.245   9.205   3.577  0.2558 -0.1581  0.1439
 9860W        W10724   7.409   8.889   2.962 -0.1407  0.0305  0.1819
 9861W        W10725   6.248   6.708   8.596 -0.1968  0.1083 -0.0770
 9862W        W10726   6.405  10.771   5.026  0.2233 -0.0793  0.1067
 9863W        W10727   6.523   4.713   6.603 -0.2720 -0.0335  0.2301
 9864W        W10728   3.866  10.530   3.774 -0.1065  0.0589 -0.0988
 9865W        W10729   7.140   7.515   5.850 -0.0364 -0.0201  0.3007
 9866W        W10730   4.791   8.784   4.767  0.2942  0.1730  0.0943
 9867W        W10731   5.296  10.599   4.387  0.0097 -0.1286  0.0187
 9868W        W10732   6.479   4.270   1.773  0.0332 -0.0972 -0.2914
 9869W        W10733   6.025   7.722   1.487  0.2208 -0.1164  0.1864
 9870W        W10734   4.691  10.055   2.453 -0.3341 -0.1429  0.1066
 9871W        W10735   9.642   6.526   5.049 -0.0925 -0.1889  0.0632
 9872W        W10736   5.030   9.415   3.988 -0.0721  0.1700  0.1899
 9873W        W10737   6.356   8.073   6.857  0.0187  0.0977 -0.1231
 9874W        W10738   4.705  11.137   1.378 -0.2326  0.0581 -0.1931
 9875W        W10739   3.862   8.462   5.741  0.0152  0.0460  0.1004
 9876W        W10740   4.491   9.473   4.142 -0.1446 -0.0179 -0.0753
 9877W        W10741   7.622  10.612   6.719 -0.0354  0.0445 -0.4030
 9878W        W10742   6.219   4.546   6.924  0.2715  0.1414  0.2419
 9879W        W10743   5.245   7.839   5.870 -0.1385  0.2229  0.1726
 9880W        W10744   7.181   9.025   5.782 -0.3021  0.2409 -0.1145
 9881W        W10745   4.256   8.520   5.977 -0.1625 -0.0415 -0.0194
 9882W        W10746   5.249   9.403   6.878 -0.0316  0.0783 -0.2518
 9883W        W10747   7.845   9.421   4.417 -0.2100  0.1568 -0.2144
 9884W        W10748   8.594   8.121   7.228  0.0340 -0.2824  0.0081
 9885W        W10749   7.438  10.174   4.699 -0.0501  0.1842 -0.3082
 9886W        W10750   6.735   9.873   5.288 -0.2096 -0.0211 -0.0227
 9887W        W10751   6.004  12.507   5.859  0.2243 -0.0535 -0.0883
 9888W        W10752   5.124   9.593   4.776  0.2240 -0.1277 -0.2597
 9889W        W10753   7.284   8.335   8.755  0.0576  0.0966 -0.0427
 9890W        W10754   6.010   7.977   6.120 -0.0325 -0.1735 -0.3151
 9891W        W10755   6.273  12.967   7.154 -0.3342 -0.0374  0.2028
 9892W        W10756   7.004  11.110   7.195 -0.1533 -0.1747 -0.1324
 9893W        W10757   5.202  10.627   3.831  0.0332 -0.2258  0.2902
 9894W        W10758   4.577   8.639   2.565  0.0364  0.2893 -0.2638
 9895W        W10759   5.392   7.947   4.366  0.0024  0.1352  0.1216
 9896W        W10760   5.354   7.887   3.055  0.1286  0.1364  0.2518
 9897W        W10761   5.427  10.159   9.938  0.3014  0.0781 -0.1612
 9898W        W10762   6.604  11.612   5.147  0.2057 -0.0865 -0.0857
 9899W        W10763   3.952   5.985   3.716  0.1189 -0.1216  0.1679
 9900W        W10764   6.785   9.967  12.143  0.2161 -0.0491  0.0017
 9901W        W10765   4.575   8.680  10.380 -0.1009 -0.0669 -0.0733
 9902W        W10766   6.412   8.207   5.318 -0.0593  0.0412 -0.0200
 9903W        W10767   6.550   7.374  10.963 -0.2735 -0.1774  0.0487
 9904W        W10768   4.725   9.600   7.200 -0.2614  0.2533  0.1047
 9905W        W10769   3.429   7.777   9.781 -0.2896 -0.1147 -0.1933
 9906W        W10770   3.583   5.539   9.854 -0.1341 -0.0519  0.1492
 9907W        W10771   3.576  10.642   7.245  0.1271 -0.1221 -0.1926
 9908W        W10772   5.868   9.773   9.101  0.0342  0.1058  0.0599
 9909W        W10773   4.669  10.567   8.869 -0.3033 -0.2444  0.1444
 9910W        W10774   4.015   5.515  10.059  0.0974 -0.1659 -0.4519
 9911W        W10775   4.215   7.029   7.512  0.5901  0.2785 -0.2218
 9912W        W10776   7.014   7.640   6.317  0.2159  0.2700  0.1651
 9913W        W10777   4.874   7.862   9.881  0.1313  0.1193 -0.0398
 9914W        W10778   3.747   8.307   8.661 -0.0202 -0.1383 -0.1507
 9915W        W10779   7.874   9.047  11.560  0.0083 -0.1693  0.1184
 9916W        W10780   4.162   9.510   8.503  0.1306  0.2451 -0.0554
 9917W        W10781   4.770   8.748   6.013 -0.2879 -0.0144 -0.1399
 9918W        W10782   6.085   6.547  11.504 -0.2941  0.2884 -0.0920
 9919W        W10783   5.597   7.544   6.698 -0.0373 -0.0133 -0.0083
 9920W        W10784   7.168  10.497   9.034  0.2739 -0.0418 -0.2643
 9921W        W10785   6.208   9.138   5.577 -0.0899 -0.0696 -0.1398
 9922W        W10786   7.730  10.668   9.279  0.4389  0.0342 -0.1883
 9923W        W10787   4.175  11.500  12.340  0.0905 -0.0754 -0.0827
 9924W        W10788   4.770   9.490   9.725 -0.2357  0.2497 -0.1094
 9925W        W10789   5.989   8.156   9.223 -0.2066  0.2778  0.2656
 9926W        W10790   8.417   8.562   9.798  0.2406  0.2027 -0.1505
 9927W        W10791   6.279  10.578  10.736 -0.1732 -0.0393 -0.1281
 9928W        W10792   8.062  10.112  10.182 -0.1695 -0.0230 -0.0011
 9929W        W10793   6.194   9.693  10.541 -0.0196  0.2318  0.1378
 9930W        W10794   5.980  10.850   8.989  0.5976 -0.0732 -0.0637
 9931W        W10795   5.838  12.400  12.970  0.1179  0.0660 -0.1062
 9932W        W10796   5.312  10.579  11.911 -0.0082 -0.4006  0.3205
 9933W        W10797   5.005   9.658   8.757  0.1795 -0.0366  0.1826
 9934W        W10798   3.201   6.360  11.617  0.0919 -0.1353  0.2461
 9935W        W10799   9.367  10.954   9.779  0.2320  0.2900 -0.2765
 9936W        W10800   2.451   8.151   5.961 -0.0770  0.1628 -0.1629
 9937W        W10801   4.754  10.576   9.866 -0.0199  0.3099 -0.0615
 9938W        W10802   6.228  10.151   8.819 -0.0866 -0.0284 -0.1237
 9939W        W10803   5.723   9.446   9.412 -0.0404  0.1041 -0.0161
 9940W        W10804   9.014   8.388   7.319  0.0094 -0.0975  0.2870
 9941W        W10805   8.062   6.310   8.589 -0.0996 -0.1557 -0.1913
 9942W        W10806   7.305   9.787   7.789  0.0379 -0.2662 -0.0743
 9943W        W10807   6.667   6.861   7.209 -0.0402 -0.0091  0.0236
 9944W        W10808   5.639  10.298   6.369 -0.1796 -0.2121  0.1161
 9945W        W10809   4.411   8.683   7.017 -0.1356 -0.1887 -0.0711
 9946W        W10810   3.212   7.766   9.269  0.1937 -0.3136 -0.1642
 9947W        W10811   7.301  10.965   9.080  0.2789 -0.1380  0.1859
 9948W        W10812   7.128  11.440  10.338 -0.1355  0.0724 -0.0174
 9949W        W10813   6.522   7.313   9.219 -0.3538 -0.2586 -0.0253
 9950W        W10814   6.862   9.764   9.603  0.0795 -0.0997 -0.0047
 9951W        W10815   4.998   7.958   8.064  0.0016 -0.0738  0.1533
 9952W        W10816   9.349  12.478   8.539  0.4855 -0.0677 -0.3241
 9953W        W10817   5.052   8.757   9.176 -0.2561 -0.1271 -0.0567
 9954W        W10818   6.701   6.279   6.442  0.1024 -0.1076  0.0616
 9955W        W10819   5.888  11.609   4.900 -0.1761 -0.1038 -0.3520
 9956W        W10820   2.956   6.271   9.397  0.1667 -0.1763  0.2548
 9957W        W10821   5.020   7.973   9.160  0.1676 -0.0508 -0.1203
 9958W        W10822   3.289   9.787   9.168 -0.2877  0.1883  0.0647
 9959W        W10823   5.044  10.639   6.556  0.0653 -0.3029 -0.2740
 9960W        W10824   4.423   7.507   6.072  0.0486 -0.6040  0.1368
 9961W        W10825   4.126  10.757  11.102  0.2257 -0.0350  0.1859
 9962W        W10826   4.437   9.663  10.051  0.1856  0.1625 -0.1657
 9963W        W10827   4.534   7.301   8.377  0.0403 -0.0645  0.1521
 9964W        W10828   5.677   5.739   8.600 -0.1090 -0.0642 -0.0665
 9965W        W10829   5.046   7.353   9.350 -0.3434  0.1164 -0.0796
 9966W        W10830   4.611   9.811   7.646 -0.1526  0.0970  0.0234
 9967W        W10831   4.631   6.514   8.045  0.1575 -0.0339 -0.2589
 9968W        W10832   4.428   8.829   7.477  0.2825  0.0514 -0.2688
 9969W        W10833   7.227   8.737  11.046 -0.2017  0.0627  0.1077
 9970W        W10834   8.441  10.964  10.607  0.1563 -0.0875  0.0402
 9971W        W10835   5.529   7.313   5.656 -0.2301  0.1682  0.0470
 9972W        W10836   6.773   9.650   8.519  0.1593 -0.1205  0.0802
 9973W        W10837   6.008   8.234  10.081 -0.0304 -0.0745 -0.2216
 9974W        W10838   6.315   8.017   7.475 -0.2443 -0.2843 -0.0279
 9975W        W10839   5.950   6.417   7.904  0.0472  0.1081  0.0477
 9976W        W10840   4.841   7.014   8.808 -0.2963  0.0018  0.0097
 9977W        W10841   5.827   8.533  11.817 -0.0410 -0.0525 -0.0279
 9978W        W10842   6.756   7.164   7.570  0.1732  0.2490 -0.2638
 9979W        W10843   5.449   7.855   7.123 -0.1457  0.2451 -0.2974
 9980W        W10844   5.062   8.987  10.337  0.1703  0.1252  0.0663
 9981W        W10845   3.788   9.413  11.965  0.2292 -0.0391 -0.3592
 9982W        W10846   2.384   9.270   8.441  0.2071 -0.2378 -0.1569
 9983W        W10847   6.438   4.165   8.107  0.2257 -0.1508 -0.0933
 9984W        W10848   4.680   7.430  10.094  0.0352  0.1129 -0.4280
 9985W        W10849   4.699   6.433   7.029 -0.0552  0.2804 -0.1502
 9986W        W10850   9.469  11.537  12.605 -0.3501  0.0916  0.0586
 9987W        W10851   5.598   9.046  10.242 -0.1391  0.1051  0.2219
 9988W        W10852   8.467  11.443  11.911 -0.1627 -0.2159 -0.1907
 9989W        W10853   7.673   5.044   8.810  0.0812  0.1800 -0.0446
 9990W        W10854   5.573   6.068   9.624  0.0473  0.1821 -0.2357
 9991W        W10855   6.738   8.827   9.224 -0.2817  0.0947 -0.2099
 9992W        W10856   4.551   9.845   8.574  0.0880  0.1344  0.1341
 9993W        W10857   4.004   7.663   6.319 -0.0954  0.0149  0.0116
 9994W        W10858   0.873   6.028   9.419 -0.1933  0.4022 -0.0104
 9995W        W10859   5.349   8.409   6.930  0.1512  0.1145 -0.2336
 9996W        W10860   7.105   7.184   7.230  0.1067  0.2304 -0.0879
 9997W        W10861   6.145  13.244   8.778 -0.3616 -0.0675 -0.1105
 9998W        W10862   2.544   7.576   8.601 -0.0109 -0.0872  0.0270
 9999W        W10863   5.015   7.048  10.152 -0.2454  0.2319  0.0681
10000W        W10864  11.287  10.195   7.582  0.1200  0.0132  0.0771
10001W        W10865   4.796   7.165   9.717  0.2380 -0.1892  0.2097
10002W        W10866   6.244   5.569   8.294 -0.0706 -0.1557 -0.0199
10003W        W10867   7.342   9.056  10.018 -0.0824  0.1065  0.1877
10004W        W10868   7.670   4.892   8.339  0.2725 -0.1016  0.0540
10005W        W10869   6.512   8.308  12.255 -0.0868 -0.0037 -0.1317
10006W        W10870   5.472   7.005   6.629  0.1760  0.1622  0.0548
10007W        W10871   7.960   9.722  10.511 -0.0081  0.0688  0.0103
10008W        W10872   6.302   4.166   9.071 -0.1418  0.1566  0.2552
10009W        W10873   3.080  11.415   7.134 -0.1419  0.0327 -0.2261
10010W        W10874   5.213  10.789  10.016  0.0253 -0.1277 -0.0449
10011W        W10875   6.182  10.538   7.854  0.5300  0.0195  0.2038
10012W        W10876   8.844   8.877  11.525 -0.1707 -0.3005 -0.2568
10013W        W10877   5.175  11.401   9.208  0.0609 -0.0388 -0.0157
10014W        W10878   6.081   6.369   5.210  0.2566 -0.0301  0.0812
10015W        W10879   6.546   6.538   9.592  0.0837  0.1346 -0.2353
10016W        W10880   6.754   9.606  11.728 -0.0075  0.1057  0.2698
10017W        W10881   5.495   9.999   9.407  0.2056 -0.1840 -0.1847
10018W        W10882   2.716  11.101   7.869 -0.0372 -0.3869  0.3207
10019W        W10883   6.532  10.991  10.744 -0.0365 -0.2396 -0.0454
10020W        W10884   6.358   6.270   7.242 -0.1425  0.0810 -0.2577
10021W        W10885   9.137   9.501   5.765 -0.0129  0.2757  0.1862
10022W        W10886   6.489   8.367   9.331 -0.1571  0.0560 -0.0003
10023W        W10887   4.664   8.377   7.326 -0.0461 -0.0111 -0.1509
10024W        W10888   6.691  11.479   9.972 -0.0971 -0.2071  0.2829
10025W        W10889   4.699   8.428   9.654 -0.0343  0.2968  0.2563
10026W        W10890   2.686   9.826  10.667 -0.0708  0.1239 -0.1731
10027W        W10891   7.044   8.491  11.426  0.0049 -0.0789  0.1903
10028W        W10892   6.320   9.677   9.612 -0.0566  0.2864  0.2448
10029W        W10893   5.911   9.313   8.848  0.1684 -0.3784  0.0795
10030W        W10894   6.206   8.466   8.262  0.0184  0.0075  0.2084
10031W        W10895   5.081   8.737   8.431 -0.3369 -0.0749  0.0604
10032W        W10896   5.612  13.019   9.713 -0.0024 -0.0842 -0.1228
10033W        W10897   6.100   7.310  10.212 -0.2395 -0.0852  0.2362
10034W        W10898   8.716   8.504   7.769 -0.0308 -0.0589 -0.0948
10035W        W10899   4.133   8.931  10.251 -0.0926  0.0859 -0.1569
10036W        W10900   7.261   7.981   8.045 -0.2572  0.1595  0.0750
10037W        W10901   5.777   6.854   7.699 -0.0537  0.1310 -0.0796
10038W        W10902   5.280  11.680   8.819  0.0173 -0.2290 -0.4592
10039W        W10903   6.165   8.902   7.973  0.1930  0.1988  0.2134
10040W        W10904   4.585   9.057   9.342 -0.0917  0.0842  0.1541
10041W        W10905   5.443   6.284   8.686  0.0054  0.2036 -0.0236
10042W        W10906   9.383  10.753  10.369  0.0450 -0.2083 -0.0947
10043W        W10907   3.467   9.185   7.757 -0.0077  0.1095 -0.1001
10044W        W10908   5.226   7.381  10.885  0.0722  0.2585  0.0343
10045W        W10909   5.141   5.372   8.065 -0.0612 -0.2650 -0.2803
10046W        W10910   4.086   7.946  10.244 -0.0000 -0.3828 -0.0835
10047W        W10911   6.603  10.161  10.907 -0.0060  0.0223  0.0678
10048W        W10912   6.609   9.246   9.437 -0.1035 -0.0242  0.2882
10049W        W10913   6.215   7.920  11.274 -0.0518 -0.2876  0.0513
10050W        W10914   8.826  10.695   8.319  0.0925  0.0231  0.0956
10051W        W10915   5.482   7.010   9.168 -0.1932 -0.3163  0.0306
10052W        W10916   5.771  10.868  11.622  0.1476  0.0991  0.1429
10053W        W10917   4.094   7.226   6.660  0.1371 -0.2969 -0.3792
10054W        W10918   3.698   6.307   6.564 -0.0253  0.2270  0.0457
10055W        W10919   9.771   9.203  11.390  0.0365  0.1432 -0.0264
10056W        W10920   3.897  12.168  12.382 -0.1787 -0.2792  0.0261
10057W        W10921   5.254   8.378   8.900 -0.3366 -0.1857  0.1209
10058W        W10922   5.037   7.404   5.498  0.3824  0.0064  0.0465
10059W        W10923   4.332   8.128   9.540 -0.3298 -0.2303 -0.2804
10060W        W10924   5.749   6.138  11.464 -0.0133  0.3589  0.1591
10061W        W10925   2.833   8.610  11.452  0.1379  0.4614  0.2074
10062W        W10926   6.188  11.277  11.581  0.1936 -0.1323  0.1280
10063W        W10927   6.903   9.265   9.804 -0.1512  0.0528  0.2232
10064W        W10928   6.151   6.978   6.207  0.1312 -0.0725  0.0711
10065W        W10929   5.962   5.931   8.043  0.2013 -0.1753 -0.1643
10066W        W10930   3.424   8.736   7.570 -0.1117  0.3070 -0.1692
10067W        W10931   4.055  10.053   9.521  0.1274  0.0379 -0.4723
10068W        W10932   6.049   8.906  11.138 -0.1596 -0.1899  0.0077
10069W        W10933   5.225   8.251   9.753  0.0333  0.1897  0.0797
10070W        W10934   7.463   7.415   8.760  0.0712 -0.1125  0.1530
10071W        W10935   4.275  10.261   9.073 -0.2055 -0.0438  0.0332
10072W        W10936   7.962  11.753  10.534 -0.0943  0.2698 -0.1012
10073W        W10937   6.055   5.621   9.029  0.0330 -0.0701  0.0065
10074W        W10938   7.734   8.125   9.692  0.0045  0.1514  0.1581
10075W        W10939   6.385   7.338   6.421  0.0815  0.3059 -0.0744
10076W        W10940   5.171   9.653  11.683  0.1127  0.0197  0.1919
10077W        W10941   2.723  12.610   9.954 -0.1243 -0.0836 -0.0114
10078W        W10942   3.202  11.937   7.065  0.4147 -0.2163 -0.2380
10079W        W10943   6.799   9.139  10.843 -0.2603 -0.1480  0.1973
10080W        W10944   6.592   8.684   7.883  0.2187 -0.0909  0.0804
10081W        W10945   6.910  10.117   7.775  0.2154 -0.0624 -0.0532
10082W        W10946   5.286   7.817   8.766  0.1595 -0.1113  0.0280
10083W        W10947   2.684   9.752   6.155  0.2425  0.2014  0.0383
10084W        W10948   5.554   5.109   7.420 -0.2061  0.2574 -0.0332
10085W        W10949   8.937  12.409   9.836  0.1992 -0.0880  0.2588
10086W        W10950   5.851   6.580   8.850 -0.0120  0.2526 -0.2210
10087W        W10951   3.405   5.999   6.900 -0.1665  0.0989 -0.1182
10088W        W10952   5.288   9.463   7.991 -0.0372  0.2477 -0.0438
10089W        W10953   3.520   7.309  10.091  0.0117 -0.0254  0.1031
10090W        W10954   5.160   9.731   7.320  0.0169 -0.0642  0.0201
10091W        W10955   4.763   9.930   9.053  0.0780 -0.0498  0.1769
10092W        W10956   6.413   8.534  10.310  0.0901 -0.3163  0.0456
10093W        W10957   5.801   7.062   7.034  0.0322 -0.2450  0.0617
10094W        W10958   5.440   5.052   8.467 -0.2368 -0.0899  0.0183
10095W        W10959   4.147   6.644   7.137 -0.3285  0.4262  0.0223
10096W        W10960   5.969   5.804   6.560 -0.2192  0.1280 -0.2536
10097W        W10961   1.338   7.494   9.627 -0.2673  0.1778  0.2343
10098W        W10962   4.762   9.496   9.242  0.0039  0.0573  0.0097
10099W        W10963   6.007   7.647  10.911 -0.0132  0.1915 -0.0177
10100W        W10964   1.316   7.694   6.031 -0.0189  0.1471 -0.1136
10101W        W10965   5.963   7.686   9.939  0.1292 -0.3332 -0.0610
10102W        W10966   7.499   9.279   7.951  0.3898 -0.3031  0.1117
10103W        W10967   3.292   5.478   8.148 -0.1539 -0.0832  0.2193
10104W        W10968   6.331   8.940  10.639 -0.0787  0.4102  0.5256
10105W        W10969   5.072   6.650   9.769  0.1710  0.0380 -0.2472
10106W        W10970   2.598   8.567   8.665  0.0572 -0.2175  0.0719
10107W        W10971   5.396   7.848  10.077 -0.0029 -0.3266 -0.0278
10108W        W10972   5.949   7.452   5.430  0.1286 -0.3062 -0.0536
10109W        W10973   5.643  10.235   7.770  0.0007  0.1642  0.0458
10110W        W10974   7.559   8.862   9.511  0.0886 -0.1231  0.1108
10111W        W10975   2.301   9.636  10.306 -0.1322 -0.0605  0.1353
10112W        W10976   5.986   8.891   8.556 -0.1088 -0.0980 -0.0272
10113W        W10977   5.981   5.811   9.490  0.1450 -0.2597  0.0588
10114W        W10978   8.677   5.287   9.782  0.1421  0.2009 -0.1421
10115W        W10979   8.022  11.114   8.582 -0.1316 -0.0796  0.0714
10116W        W10980   4.684   6.042   7.405  0.0231 -0.0416  0.0343
10117W        W10981   7.773  10.376   8.661  0.4650  0.2175  0.1815
10118W        W10982   2.923  11.710  10.833  0.3136  0.1217 -0.0549
10119W        W10983   4.817  11.112   9.967 -0.0554  0.0092  0.1949
10120W        W10984   5.512   5.528  12.285 -0.0325 -0.1111  0.2294
10121W        W10985   4.317   8.855  11.138 -0.1519  0.0605  0.1604
10122W        W10986   6.586  12.291  10.494 -0.0654  0.0786 -0.1476
10123W        W10987   5.837   8.082  10.932 -0.1201 -0.3400 -0.0184
10124W        W10988   6.294   7.966   8.486  0.1548  0.0323 -0.4876
10125W        W10989   4.431   8.174   8.150  0.0463 -0.2018 -0.1974
10126W        W10990   5.785  11.199  10.300  0.0667  0.2270  0.1289
10127W        W10991   5.739   4.904  10.242  0.0151  0.0652  0.0727
10128W        W10992   8.077   8.952   9.545 -0.1056  0.0831 -0.0406
10129W        W10993   8.195   7.063  12.194  0.1295 -0.3157  0.0375
10130W        W10994   3.689   9.325  10.680  0.3315 -0.3587  0.0449
10131W        W10995   3.912   7.038  11.340 -0.1642 -0.0547 -0.0160
10132W        W10996   4.306   8.363   7.697 -0.1123  0.3443  0.1563
10133W        W10997   7.530   8.583   6.408  0.2400  0.0372 -0.1680
10134W        W10998   7.774   6.727   9.758  0.1995 -0.1243 -0.0532
10135W        W10999   3.816  10.669   9.698 -0.1052  0.1248 -0.1451
10136W        W11000   4.281   8.255   8.686  0.1228 -0.1118  0.1740
10137W        W11001   5.229   5.824   9.914 -0.1871  0.1497 -0.0402
10138W        W11002   5.133  13.246   9.745 -0.0448  0.1580  0.0748
10139W        W11003   6.222  11.187   9.965 -0.0487 -0.2269  0.1502
10140W        W11004   4.758  11.466   6.906 -0.1973 -0.0314  0.1655
10141W        W11005   3.186   8.702  10.746  0.0559 -0.0989 -0.0571
10142W        W11006   4.906  10.021   9.889  0.2419  0.0890  0.2720
10143W        W11007  13.903   5.802   6.000 -0.1136  0.1615 -0.0046
10144W        W11008   4.665   5.887   8.856 -0.1761 -0.1667 -0.0647
10145W        W11009   4.319   8.650   9.844  0.1850  0.1923  0.1485
10146W        W11010   7.801   8.323   8.785  0.0247 -0.2104  0.0108
10147W        W11011   3.986  10.246  10.947  0.0153 -0.0515  0.0066
10148W        W11012   7.446  11.197   8.250  0.2215  0.0262  0.2259
10149W        W11013   4.620  10.150  10.273 -0.0114  0.0830  0.0102
10150W        W11014   3.691  12.969  10.091 -0.0041 -0.0530 -0.1378
10151W        W11015   7.347  10.116  11.472  0.0348  0.2322  0.3715
10152W        W11016   9.042   8.543  11.056  0.0854  0.1036 -0.0702
10153W        W11017   4.145  10.451   6.244 -0.0436  0.0074  0.0776
10154W        W11018   7.966   6.406   7.548  0.0216  0.0557 -0.3386
10155W        W11019   7.694   8.011   7.172 -0.1409  0.1366 -0.0694
10156W        W11020   3.767   8.735   9.731 -0.0950  0.2956 -0.2313
10157W        W11021   6.470  10.477   8.262 -0.0776  0.2145  0.0140
10158W        W11022   6.296   7.026   9.601  0.0671  0.2007 -0.3173
10159W        W11023   2.610  10.601  11.025  0.1829  0.0334 -0.0596
10160W        W11024   5.725   9.539   6.875 -0.0524  0.0762 -0.0736
10161W        W11025   7.160   8.329  13.522 -0.1946 -0.1945 -0.0795
10162W        W11026   6.637  11.475  10.513  0.2309 -0.3562  0.0254
10163W        W11027   7.276   9.494   6.047 -0.0321  0.0483 -0.1280
10164W        W11028   4.427  10.240  10.746 -0.1880  0.0359 -0.3460
10165W        W11029   8.084  10.073   7.719 -0.0664 -0.0302 -0.0785
10166W        W11030   8.765   9.549   8.497  0.1169  0.0122  0.1394
10167W        W11031   4.004   5.110   7.702  0.1397  0.0680  0.0258
10168W        W11032   4.786   4.458   5.582  0.1264 -0.2211  0.0177
10169W        W11033   4.077  11.503  10.161 -0.0802 -0.2707  0.1277
10170W        W11034   5.160   8.098  10.429  0.0390  0.1570  0.0816
10171W        W11035   3.956   9.036   8.384 -0.0552  0.1929  0.1414
10172W        W11036   6.277   7.676   8.092 -0.0978  0.0513 -0.0107
10173W        W11037   7.543   9.967  10.427  0.0678  0.2248  0.1873
10174W        W11038   5.731   5.907  10.069 -0.0981 -0.0219 -0.0984
10175W        W11039   4.979   8.514  10.595  0.3586  0.1446 -0.0836
10176W        W11040   4.138   8.064  12.216 -0.0963 -0.0878 -0.0571
10177W        W11041   4.968   8.255  11.303 -0.0536 -0.0932 -0.1667
10178W        W11042   4.448  10.766  10.753 -0.0453  0.0038 -0.0530
10179W        W11043   4.500   7.688   7.985  0.3083  0.0632  0.2277
10180W        W11044   4.267   7.991   7.370 -0.1414  0.1465  0.3258
10181W        W11045   4.486   9.226   8.824 -0.3024 -0.1826 -0.1337
10182W        W11046   3.549  12.913  10.832 -0.3049  0.1606  0.1300
10183W        W11047   7.624  10.133   7.982  0.1595  0.0311  0.3678
10184W        W11048   5.131   3.483  10.895 -0.0881  0.2580 -0.1880
10185W        W11049   6.559  11.019   7.018  0.1828 -0.0732  0.2696
10186W        W11050   3.793   9.929  11.816 -0.2382 -0.0147  0.0189
10187W        W11051   6.839   7.784   8.092  0.2739 -0.3136  0.0945
10188W        W11052   6.561   8.675   8.494 -0.1929  0.0204  0.1026
10189W        W11053   4.987  12.359   9.294 -0.1807  0.0921  0.4382
10190W        W11054   7.441   6.392   6.009  0.1509 -0.3280  0.0862
10191W        W11055   5.900   9.441  12.209 -0.2219 -0.0023 -0.0812
10192W        W11056   4.972  10.537  11.472  0.0240 -0.4031  0.1785
10193W        W11057   5.651  10.666   7.977  0.0453  0.1099 -0.0317
10194W        W11058   8.197   6.778   7.864  0.1640  0.1144  0.3849
10195W        W11059   5.937   8.550   6.892  0.0281  0.3845  0.4902
10196W        W11060   6.337   7.556   8.805  0.0133 -0.0013  0.0969
10197W        W11061   8.964   8.115  10.155 -0.2396  0.0446 -0.3605
10198W        W11062   4.698  11.287   9.444  0.0413  0.0175 -0.0202
10199W        W11063   5.161  11.072   9.578 -0.0634 -0.1649 -0.0052
10200W        W11064   3.648   6.883   9.617 -0.0939  0.1798 -0.0674
10201W        W11065   3.553  11.843   8.785 -0.1615 -0.1023  0.1986
10202W        W11066   9.649  10.539   9.509 -0.0471  0.3363 -0.2326
10203W        W11067   6.903  11.657   8.643  0.0998 -0.1723 -0.0423
10204W        W11068   6.271  12.229   9.427 -0.0166  0.0104  0.1611
10205W        W11069   5.898  11.428  12.006  0.1014 -0.2329 -0.1787
10206W        W11070   9.173   8.674   7.704 -0.0033 -0.1924  0.0366
10207W        W11071   7.130   8.899   8.062 -0.0828  0.0839 -0.0166
10208W        W11072   3.844  11.401   9.193 -0.1012  0.1652  0.1651
10209W        W11073   4.277   8.500   6.570  0.0991 -0.1579 -0.1607
10210W        W11074   5.121  10.975  12.114 -0.2059 -0.0056  0.0344
10211W        W11075   7.526   6.835  10.204  0.0999 -0.1889  0.4031
10212W        W11076   6.786  10.288   9.391  0.0112 -0.1281 -0.0101
10213W        W11077   3.899  13.224  10.986 -0.0582  0.2600  0.2021
10214W        W11078   7.637   9.389  10.749  0.1843  0.0149  0.1839
10215W        W11079   4.391   6.745   9.092  0.1878  0.1070  0.5835
10216W        W11080   5.145   8.346   3.477  0.0552  0.0521  0.0370
10217W        W11081   4.612   7.018  10.538  0.1720  0.0433 -0.3008
10218W        W11082   2.962   8.600  10.291 -0.2196  0.0251 -0.1778
10219W        W11083   7.536  11.248  10.007 -0.2265 -0.1106  0.0397
10220W        W11084   6.909   9.418   5.616 -0.0067 -0.3006 -0.2600
10221W        W11085   7.077  10.324  10.993  0.1365  0.1234 -0.0001
10222W        W11086   6.980   8.224   9.306  0.1594  0.1371 -0.2321
10223W        W11087   2.513  10.545   9.477 -0.0469  0.1830  0.0842
10224W        W11088   6.066   9.675  12.601 -0.0174  0.2399  0.0361
10225W        W11089   6.335   7.187   6.985 -0.0847 -0.1141 -0.0037
10226W        W11090   3.417   9.688  10.978  0.1066 -0.2374  0.0980
10227W        W11091   5.178   5.805   7.537 -0.0490 -0.0446  0.2571
10228W        W11092   3.671   8.834   8.036  0.2527 -0.0549 -0.0076
10229W        W11093   4.545  10.890  11.355  0.1541  0.1336  0.0349
10230W        W11094   6.363   6.798   9.090  0.0375  0.2551 -0.1333
10231W        W11095   8.648   9.609  11.015  0.1707  0.4136 -0.1720
10232W        W11096   6.591  10.524  10.245 -0.0969 -0.0876  0.3547
10233W        W11097   6.313  11.843   9.150  0.0902  0.5203 -0.1125
10234W        W11098   6.310  11.935  10.331  0.3560 -0.0476 -0.1409
10235W        W11099   5.285   9.960  10.754  0.2196 -0.3399 -0.4377
10236W        W11100   5.840   6.332   7.248 -0.1741 -0.0840  0.0502
10237W        W11101   5.885   6.805   9.393  0.0020  0.1672 -0.1720
10238W        W11102   7.434   7.616   7.356 -0.1958  0.1760 -0.0807
10239W        W11103   5.822   8.827   5.654  0.0560 -0.1508 -0.1077
10240W        W11104   5.225   8.797   9.893 -0.0441  0.0069 -0.1572
10241W        W11105   5.650   7.006   6.098 -0.0331  0.1808 -0.0526
10242W        W11106   5.474  11.651   7.611 -0.1039 -0.0416 -0.1110
10243W        W11107   5.801  10.823   9.857 -0.1016 -0.0871  0.2133
10244W        W11108   5.624  10.324  12.366 -0.0985 -0.0668  0.1373
10245W        W11109   5.969  10.181   8.146 -0.3867 -0.1403 -0.0642
10246W        W11110   4.588   6.763   8.459  0.0550 -0.0522 -0.1567
10247W        W11111   7.272   9.698   8.757  0.1490 -0.0671 -0.2842
10248W        W11112   4.591   8.888   4.290  0.0824 -0.3180  0.4246
10249W        W11113   6.055  10.611  12.361 -0.0129  0.1802  0.1981
10250W        W11114   8.449   8.459   6.799 -0.2782  0.1112 -0.2047
10251W        W11115   8.185   7.171   9.015  0.0299 -0.0606  0.3503
10252W        W11116   5.002  11.785   5.897 -0.1706 -0.0977  0.1569
10253W        W11117   3.970   9.283   7.985 -0.0021  0.0061  0.0272
10254W        W11118   7.174   8.377   6.703  0.0320 -0.0359 -0.1259
10255W        W11119   4.431  11.103   7.576 -0.0717 -0.3464 -0.1633
10256W        W11120   6.412   9.256   9.923  0.1082  0.0911  0.0302
10257W        W11121   3.194   4.597  11.226 -0.3611 -0.1441 -0.0259
10258W        W11122   2.534  10.136   9.068  0.0768  0.0314  0.1550
10259W        W11123   5.259   6.265   7.309 -0.2609  0.1348  0.0172
10260W        W11124   6.346   8.322  11.732  0.0621  0.0274 -0.0032
10261W        W11125   4.961   8.443  10.125  0.2528  0.4714 -0.0595
10262W        W11126   7.198   7.843   8.557 -0.0652 -0.0971  0.0795
10263W        W11127   5.259  11.951   9.279 -0.0147  0.1881  0.1374
10264W        W11128   8.310  11.525   8.070 -0.0226 -0.0269 -0.1115
10265W        W11129   5.826   9.385   5.955 -0.1991 -0.2922  0.1310
10266W        W11130   6.332   9.104   8.850  0.1095 -0.0200 -0.1076
10267W        W11131   5.003   7.337   6.549 -0.0702  0.1026 -0.2455
10268W        W11132   5.258   3.414   8.225 -0.2385 -0.4617  0.1164
10269W        W11133   4.041   7.486   8.435  0.1744 -0.2375 -0.0183
10270W        W11134   6.156   7.157   8.380  0.0817  0.0542 -0.1079
10271W        W11135   5.758   8.620   8.228  0.0437 -0.0854  0.1336
10272W        W11136   8.468   7.531  13.063 -0.1849  0.0408 -0.2033
10273W        W11137   5.721   9.511  10.325  0.3986  0.0113 -0.2475
10274W        W11138   5.227   8.685   7.448  0.3722  0.0583 -0.1035
10275W        W11139   3.722   4.593   9.961  0.1640 -0.0854  0.1792
10276W        W11140   5.195  12.739  10.021 -0.0055 -0.0896 -0.0013
10277W        W11141   4.660   6.869   7.306  0.0766  0.1501  0.1128
10278W        W11142   3.628   9.716  12.440 -0.1215  0.0985  0.0505
10279W        W11143   5.738   7.545   8.908  0.0250 -0.0114  0.0220
10280W        W11144   6.951  10.721  10.637 -0.0938 -0.2381 -0.2250
10281W        W11145   5.682   8.944   9.768 -0.0039  0.3134 -0.0242
10282W        W11146   5.947   8.476   9.636  0.0658 -0.1902  0.1743
10283W        W11147   6.945   7.439   9.709  0.4451 -0.3491 -0.4257
10284W        W11148   6.346  11.534   5.901 -0.0470  0.0962  0.1686
10285W        W11149   5.147  10.443   9.595  0.2454  0.0602  0.0849
10286W        W11150   6.756  11.052  12.411  0.0733  0.0291  0.1655
10287W        W11151   4.763   8.484   7.861  0.2757  0.0988  0.0130
10288W        W11152   7.788   9.975  12.810  0.1685  0.2241  0.3311
10289W        W11153   4.929   0.704  11.458  0.2900 -0.1738  0.0768
10290W        W11154   5.868   8.786   7.384 -0.1486  0.1558  0.1419
10291W        W11155   6.527   9.677  10.136  0.0403  0.0124  0.0314
10292W        W11156   6.402  11.605   8.661 -0.1900  0.1071 -0.2988
10293W        W11157   4.132   8.932  12.118 -0.0679  0.0848 -0.1058
10294W        W11158   5.608   8.598   7.760  0.0953 -0.1067  0.0531
10295W        W11159   6.733  11.120  11.295  0.5066  0.0222  0.2641
10296W        W11160   6.255  10.194  10.409  0.1713 -0.0507 -0.1710
10297W        W11161   3.678   7.916   7.095 -0.4313  0.1420 -0.0773
10298W        W11162   3.665   9.127  13.500  0.3338 -0.1677  0.0006
10299W        W11163   6.733  11.572  10.995  0.1584 -0.0691  0.0081
10300W        W11164   9.734   9.776  12.859 -0.2239 -0.0065 -0.1083
10301W        W11165   5.218  11.968  12.243 -0.1313 -0.0451 -0.0531
10302W        W11166   6.275  11.405  11.037  0.5069 -0.0008  0.1052
10303W        W11167   3.264   6.307   9.801 -0.1262 -0.0434  0.4505
10304W        W11168   3.448  11.797  13.949 -0.0251  0.2724  0.2024
10305W        W11169   6.760  12.154   1.056 -0.0720 -0.1124  0.0957
10306W        W11170   6.720   7.323  11.460  0.1157  0.1133  0.4657
10307W        W11171   8.995   8.752  10.192 -0.1830  0.0051  0.1063
10308W        W11172   3.219   8.224   0.257  0.1977 -0.0735 -0.3742
10309W        W11173   5.380  10.112  11.818  0.1880 -0.0091 -0.1621
10310W        W11174   4.223  10.676  11.775 -0.1572  0.1656  0.0210
10311W        W11175   6.856   9.933  11.345 -0.2989 -0.2352 -0.0754
10312W        W11176   6.434  10.018   0.309 -0.2793 -0.3726  0.1127
10313W        W11177   5.582   9.022   9.215 -0.1502  0.1165 -0.2861
10314W        W11178   5.448   9.999   0.416  0.1244  0.2157  0.4141
10315W        W11179   1.983   8.884  10.501  0.1439  0.2552  0.0215
10316W        W11180   2.544   9.079  11.913 -0.0505  0.0995  0.1036
10317W        W11181   4.951   7.293  12.406  0.0276 -0.0845 -0.3744
10318W        W11182   4.498  10.301  11.983  0.1851  0.4019  0.2694
10319W        W11183   6.249   7.808  11.999 -0.3554 -0.1225 -0.2504
10320W        W11184   4.728  10.795  11.841  0.0547  0.0420  0.3384
10321W        W11185   5.394  10.118  13.912 -0.4200 -0.0165 -0.1465
10322W        W11186   5.556   8.273  11.369 -0.0527  0.0876  0.3367
10323W        W11187   3.630   9.116  11.450 -0.0842  0.0974  0.0974
10324W        W11188   9.225   9.967   0.382  0.1239  0.2095  0.0249
10325W        W11189   5.922   7.183  12.604 -0.0436  0.0721 -0.0693
10326W        W11190   6.927   7.090   9.123 -0.3746  0.3530  0.1383
10327W        W11191   5.815   8.369   0.971  0.1098 -0.0452 -0.0725
10328W        W11192   5.045  10.191   0.207 -0.2262 -0.1029 -0.1712
10329W        W11193   9.219  12.468  10.270 -0.3456  0.0468 -0.1165
10330W        W11194   7.559  10.619  12.257  0.2690 -0.3366  0.2747
10331W        W11195   4.221  12.424  12.142 -0.0615  0.1056  0.3479
10332W        W11196   4.609  10.911  12.859 -0.1279 -0.3311  0.0022
10333W        W11197   7.518  10.898  10.890  0.1524  0.2514  0.2194
10334W        W11198   4.193   8.326  11.090  0.2044  0.3433  0.1177
10335W        W11199   6.456   9.190  11.498  0.1813  0.2358 -0.0454
10336W        W11200   5.828   8.820  12.989  0.0021  0.0052 -0.0464
10337W        W11201   8.777  10.181  10.936 -0.0788  0.2184  0.0142
10338W        W11202   6.548  11.672   0.964  0.1709 -0.0109 -0.1119
10339W        W11203   8.371   8.135  13.258 -0.2575  0.3945  0.2636
10340W        W11204   5.614   4.664   8.203  0.0411  0.0689  0.0119
10341W        W11205   4.168  11.022  13.692 -0.2592 -0.1496 -0.1113
10342W        W11206   3.512  10.502  12.772 -0.2924 -0.1888 -0.2594
10343W        W11207   7.181   9.795  13.213  0.2700  0.2938 -0.1277
10344W        W11208   3.284  11.444   0.328 -0.2077 -0.1022  0.0853
10345W        W11209   6.094  12.884   9.765 -0.1254  0.2048 -0.1947
10346W        W11210   7.558  10.001  11.041 -0.1594  0.0048  0.0571
10347W        W11211   5.473   9.942   0.905 -0.0865 -0.0140  0.1001
10348W        W11212   5.212  11.933   2.632 -0.1176  0.3076 -0.0014
10349W        W11213   4.075  11.543  10.658  0.1012 -0.0721 -0.2225
10350W        W11214   6.695   8.235  12.730 -0.1207  0.0184 -0.2147
10351W        W11215   6.572   9.212   8.393  0.3878  0.4513 -0.3482
10352W        W11216   4.154   7.316  11.778 -0.2989  0.0645 -0.1830
10353W        W11217   4.944   7.759  12.040 -0.4152 -0.2430 -0.0911
10354W        W11218   2.182  11.625   1.760  0.2441  0.1157  0.2432
10355W        W11219   6.420  10.110  12.515  0.1719 -0.3305 -0.0677
10356W        W11220   5.373  12.233   1.576 -0.2837  0.0373 -0.2119
10357W        W11221   6.770  11.974  12.183 -0.1615  0.3813  0.1156
10358W        W11222   7.445  10.997  13.546 -0.0661 -0.3119  0.0636
10359W        W11223   7.229   9.543  11.525 -0.0237 -0.0172 -0.1626
10360W        W11224   7.706  11.157  12.741  0.1599 -0.2609 -0.0583
10361W        W11225   5.688   8.738   0.177 -0.0293 -0.2527 -0.1572
10362W        W11226   3.141  10.772  12.621  0.2480 -0.1742  0.0787
10363W        W11227   4.792  13.385   0.661  0.2876 -0.1299  0.0600
10364W        W11228   5.946  10.186  12.700  0.0442  0.0433 -0.1764
10365W        W11229   8.305  11.605  13.304  0.0115 -0.2212 -0.0864
10366W        W11230   3.997   8.076  13.280  0.0502 -0.3849  0.0738
10367W        W11231   3.706   5.819  12.638 -0.0251 -0.0377 -0.4852
10368W        W11232   4.714   7.824  10.435 -0.1740  0.1109 -0.0774
10369W        W11233   3.917   8.560  11.821  0.1290  0.0439  0.1444
10370W        W11234   7.266   5.940  13.090  0.1852  0.2428  0.1158
10371W        W11235   8.752   7.845  13.344 -0.0324  0.1034 -0.0446
10372W        W11236   3.145   9.330  13.297 -0.0366  0.0141 -0.3413
10373W        W11237   5.319   7.835   9.606 -0.3240  0.3943  0.1207
10374W        W11238   8.189   7.295  10.338  0.3699 -0.1184  0.0578
10375W        W11239   6.274  10.884  11.227 -0.0937  0.0643  0.0347
10376W        W11240   6.818   8.607  10.784 -0.0140 -0.0614 -0.1990
10377W        W11241   6.406   6.258  12.458 -0.1312 -0.0428 -0.1070
10378W        W11242   6.676   9.746  12.661 -0.0727 -0.1829 -0.0485
10379W        W11243   4.197  11.074  12.088  0.1482 -0.0978 -0.0385
10380W        W11244   6.513   6.928  10.035 -0.0393 -0.1028  0.0714
10381W        W11245   8.475  11.213   1.530 -0.1217  0.0212 -0.0307
10382W        W11246   7.396   7.450  12.108 -0.2311 -0.2043 -0.2440
10383W        W11247   4.912   9.253   0.089 -0.0863  0.0328  0.0032
10384W        W11248   4.628  11.145  12.345  0.0979 -0.1469  0.1595
10385W        W11249   6.386   8.641  14.004  0.0179  0.3459 -0.0767
10386W        W11250   7.172   8.258  10.937  0.0580 -0.1547 -0.0251
10387W        W11251   2.379   7.368  11.541 -0.0792 -0.0030 -0.0685
10388W        W11252   7.137  10.385   0.263  0.3913 -0.2041  0.1382
10389W        W11253   7.127  10.668  11.596 -0.1574 -0.0027 -0.1321
10390W        W11254   6.089   8.177  12.630  0.0603  0.0156 -0.2833
10391W        W11255   9.472  12.309   9.858 -0.0181  0.2752  0.5100
10392W        W11256   7.573  10.130  12.285  0.0534 -0.3076  0.1205
10393W        W11257   5.856   8.391  13.814 -0.3755 -0.0842 -0.1182
10394W        W11258   4.044  10.130   0.711 -0.1468 -0.1085  0.0687
10395W        W11259   5.650   9.750  13.002  0.0400 -0.0585  0.1464
10396W        W11260   6.580   7.876  13.685  0.0215  0.1100 -0.3338
10397W        W11261   8.191   8.235  11.397  0.2643  0.0100  0.1688
10398W        W11262   6.831  10.574   9.789  0.1901 -0.1277  0.2215
10399W        W11263   6.216   8.708  12.068 -0.2115  0.1274 -0.0727
10400W        W11264   8.640   8.083  11.183  0.3346  0.2759  0.3624
10401W        W11265   5.505  11.844  12.674  0.0368 -0.0938  0.1272
10402W        W11266   6.996  11.652  11.758 -0.0279  0.1457  0.1302
10403W        W11267   3.949   9.774   9.907 -0.1292 -0.1173  0.0467
10404W        W11268   7.305   7.770  13.810  0.1556  0.1008  0.0638
10405W        W11269   9.179  11.771   1.791 -0.1164  0.1164 -0.1094
10406W        W11270   5.387  10.524  10.949 -0.1740 -0.0691  0.1744
10407W        W11271   6.558  11.316   0.091 -0.2000  0.1229 -0.1621
10408W        W11272   6.768  11.458  13.670  0.1611  0.2244  0.0543
10409W        W11273   5.846  13.561  11.634  0.2181  0.1762  0.1801
10410W        W11274   5.804   6.059   9.002 -0.0191 -0.0760  0.2944
10411W        W11275   7.927  11.157  10.593 -0.1227 -0.3117 -0.1046
10412W        W11276   4.774   8.950  10.789  0.0054 -0.2692 -0.1932
10413W        W11277   8.054   9.400  11.962  0.1687 -0.3200 -0.1239
10414W        W11278   7.927  11.567  11.871  0.2018  0.1914 -0.1693
10415W        W11279   3.677  10.043   0.318  0.0444 -0.2107  0.0048
10416W        W11280   5.949   8.635  10.513  0.1533  0.3235  0.0744
10417W        W11281   5.846   6.935  11.531  0.1526  0.1046  0.2029
10418W        W11282   4.694  12.292  12.087 -0.4041  0.0853  0.0733
10419W        W11283   2.323   8.222   9.901  0.2480  0.3851  0.1658
10420W        W11284   5.841  10.305  13.179 -0.0893  0.0379 -0.2742
10421W        W11285   5.955  11.026  10.786  0.4625 -0.1628  0.1514
10422W        W11286   6.833   7.519  12.438  0.1734 -0.1997  0.1361
10423W        W11287   6.357  10.675   9.818 -0.0972 -0.0539  0.1235
10424W        W11288   4.191  11.837  12.722  0.2281 -0.1103  0.0923
10425W        W11289   1.322   8.092  12.878 -0.1071  0.0201  0.0726
10426W        W11290   5.395  10.110  13.351 -0.0652  0.0552  0.2241
10427W        W11291   2.789   9.393  10.396 -0.2051 -0.0710  0.2577
10428W        W11292   4.258  10.614  12.352 -0.2820 -0.3523  0.0644
10429W        W11293   6.500   7.887   6.347 -0.0869  0.2304  0.1322
10430W        W11294   7.609   9.648  12.419 -0.1225 -0.0072 -0.2766
10431W        W11295   8.842   7.179  11.580 -0.1984 -0.0064  0.1188
10432W        W11296   5.020  10.782  13.754 -0.1508  0.0269 -0.1257
10433W        W11297   7.069   9.536  10.426  0.2517  0.1239  0.0212
10434W        W11298   4.851   6.712  11.391 -0.0712 -0.0327  0.2479
10435W        W11299   5.626  11.915  11.933  0.0043  0.2705 -0.0767
10436W        W11300   6.982   9.148  11.810 -0.1113  0.3819 -0.3738
10437W        W11301   4.411   7.019  11.520 -0.3950 -0.0749 -0.2592
10438W        W11302   7.126   9.397  12.606 -0.0068  0.1717  0.0360
10439W        W11303   4.539   5.488  10.138  0.1603 -0.1708  0.0818
10440W        W11304   6.463  10.310  11.395  0.1793  0.0075  0.2522
10441W        W11305   6.835   8.293  11.834  0.2224  0.0893  0.0496
10442W        W11306   6.061   7.622   9.328 -0.1200  0.0962 -0.0736
10443W        W11307   7.694   9.528  11.278  0.0265  0.1368  0.0437
10444W        W11308   7.790   9.810  11.944 -0.3990  0.1999  0.0996
10445W        W11309   8.456   9.144  11.750 -0.1715 -0.2576  0.1658
10446W        W11310   6.832  10.184  12.883 -0.0894 -0.2276 -0.0739
10447W        W11311   5.717   8.064   9.715  0.0754 -0.1197  0.0837
10448W        W11312   5.970   9.979   0.480  0.1913 -0.1273  0.1024
10449W        W11313   5.453   9.729  13.593  0.0520 -0.0253  0.0240
10450W        W11314   2.575  11.291   9.465  0.0771  0.0080  0.0402
10451W        W11315   6.700  12.095  11.670 -0.1778  0.1675  0.2471
10452W        W11316   4.257  12.453  10.386 -0.0072  0.0324 -0.2069
10453W        W11317   6.284  12.388  12.789  0.6233  0.4146 -0.1645
10454W        W11318   5.860   7.256   9.725 -0.5287 -0.2465  0.0475
10455W        W11319   5.891  10.866  13.323 -0.0121 -0.1025 -0.0388
10456W        W11320   7.600   7.409  13.621 -0.2784 -0.2426 -0.1940
10457W        W11321   7.765   8.441  10.870  0.0718  0.4258 -0.3435
10458W        W11322   1.686  10.034  12.662 -0.2141  0.1104 -0.0581
10459W        W11323   5.350  11.580   0.847  0.3154 -0.1597 -0.0003
10460W        W11324   5.367  10.993  12.906  0.1458 -0.1520  0.0725
10461W        W11325   3.421   9.495  12.804 -0.3186  0.3419  0.2664
10462W        W11326   5.695  13.274  12.546 -0.1517 -0.0495 -0.0178
10463W        W11327   6.163  10.902  12.813 -0.0986 -0.2993 -0.0472
10464W        W11328   5.062   9.280  11.098 -0.1774  0.3831  0.0145
10465W        W11329   7.641   9.373  10.251  0.2516 -0.1500  0.0999
10466W        W11330   5.740   4.944  11.739 -0.3836 -0.0445 -0.0891
10467W        W11331   5.420   8.725  10.550 -0.0640  0.0984 -0.1509
10468W        W11332   7.535   5.614  11.682  0.3504  0.2702  0.1010
10469W        W11333   7.074   7.291  12.954  0.2001  0.0875  0.3061
10470W        W11334   6.865   6.897  13.935  0.0575 -0.1999  0.0483
10471W        W11335   7.566   6.269  11.591  0.4575 -0.1623  0.1893
10472W        W11336   5.063   7.754  11.233  0.2157  0.1330 -0.0709
10473W        W11337   4.850   5.545  11.331 -0.1041  0.0159 -0.0379
10474W        W11338   6.425   9.179  12.546  0.2653  0.0386  0.0838
10475W        W11339   6.924  10.207  13.440  0.0436 -0.0192 -0.1547
10476W        W11340   5.732   8.575  10.935  0.0747 -0.1920 -0.1919
10477W        W11341   7.024  10.601  13.078  0.0681 -0.0814  0.1489
10478W        W11342   7.259  10.132  13.853  0.1881  0.0401 -0.1522
10479W        W11343   6.884   8.908  12.693 -0.2836 -0.0070  0.2298
10480W        W11344   7.035   6.648  13.459 -0.1876 -0.1015 -0.1336
10481W        W11345   5.320  11.533  11.248 -0.3733  0.2082  0.1644
10482W        W11346   8.883   9.016  11.042 -0.0754  0.1491  0.1392
10483W        W11347   6.558   8.363   9.851  0.1037  0.2326 -0.2171
10484W        W11348   7.959   9.219  12.396  0.0193 -0.0570 -0.0112
10485W        W11349   5.566   7.324  10.169  0.1602  0.0880  0.0051
10486W        W11350   7.288  11.452  13.436 -0.0308 -0.1238  0.0527
10487W        W11351   4.715   8.156  11.753 -0.2778 -0.1526  0.0856
10488W        W11352   6.051   5.853  12.393 -0.3387  0.2284  0.1002
10489W        W11353   6.918   9.729  13.672  0.3545  0.1257  0.0884
10490W        W11354   6.027   9.277  12.930 -0.0137 -0.0264  0.4669
10491W        W11355   6.785   6.413   1.892  0.0241 -0.2209  0.1758
10492W        W11356   3.797  11.169  10.906  0.1840  0.3168 -0.0661
10493W        W11357  11.511  11.050  13.236  0.1335 -0.2122 -0.2358
10494W        W11358   3.963   6.863  13.321  0.4128  0.2730  0.1115
10495W        W11359   6.118   8.880  10.062  0.3014  0.2228 -0.0852
10496W        W11360   7.371   9.575  13.667 -0.0409 -0.1308 -0.0599
10497W        W11361   4.744   8.902  12.982 -0.2478  0.0446  0.1699
10498W        W11362   4.521   9.989  13.000  0.1109 -0.0907  0.0637
10499W        W11363   5.015  12.127  13.070 -0.0127 -0.0182 -0.2080
10500W        W11364   6.811   9.441  11.221  0.0716 -0.1788  0.3248
10501W        W11365   5.684  12.521   1.301  0.2298  0.0384 -0.0186
10502W        W11366   3.921   9.255   0.092  0.0451  0.3325 -0.1131
10503W        W11367   7.107   8.017  11.425  0.1274  0.0087  0.2178
10504W        W11368   4.390  10.106  12.459  0.3091 -0.1510 -0.0515
10505W        W11369   3.859   9.817  10.761  0.1749  0.1021  0.1113
10506W        W11370   8.638  12.353   0.478 -0.2211 -0.0303 -0.0483
10507W        W11371   8.521  12.561  12.646 -0.1362  0.0060 -0.1598
10508W        W11372   6.717  10.640  11.128  0.0904 -0.0849  0.1072
10509W        W11373   4.309  11.777  11.526  0.1240  0.3126  0.1195
10510W        W11374   5.276  12.637  11.455 -0.0040 -0.0615  0.0937
10511W        W11375   6.592   7.743   0.296 -0.2406  0.0872 -0.2655
10512W        W11376   4.176  11.124  13.144 -0.2236 -0.1882  0.2507
10513W        W11377   8.133  10.784  11.715 -0.1139  0.4234  0.2055
10514W        W11378   4.038   7.459  10.197 -0.1281 -0.0534  0.2805
10515W        W11379   7.945  10.739  10.749  0.0619 -0.2471 -0.5074
10516W        W11380   8.319   8.370  12.028 -0.2294  0.1390  0.0643
10517W        W11381   7.687   9.966  13.574  0.0179 -0.0149 -0.2822
10518W        W11382   3.892  10.312  12.583  0.2021  0.0969 -0.0269
10519W        W11383   7.697   8.474  12.702 -0.1788 -0.0221 -0.0847
10520W        W11384   7.409  10.859  10.368 -0.4707 -0.2318  0.0205
10521W        W11385   2.348  11.249  12.569  0.1316  0.0909 -0.0742
10522W        W11386   3.850  11.487  11.738 -0.1437 -0.0457 -0.0180
10523W        W11387   8.337   9.099  12.817  0.0907  0.2009 -0.0279
10524W        W11388   8.098   8.767  11.013  0.1976  0.0093 -0.3736
10525W        W11389   8.926   9.193  11.944 -0.0091  0.2648 -0.1786
10526W        W11390   4.834   8.522   0.002 -0.1199 -0.1906 -0.2487
10527W        W11391   5.401   8.864  12.583  0.1717 -0.0529  0.0013
10528W        W11392   4.756  10.650  12.327  0.0132 -0.1416 -0.0618
10529W        W11393   7.700  11.392  13.754  0.1613  0.0092  0.2739
10530W        W11394   1.524   4.557  11.302 -0.2010 -0.1303 -0.1109
10531W        W11395   2.257  11.523  12.191  0.2172  0.1808  0.0001
10532W        W11396   5.598   7.779  11.260  0.0990  0.3692  0.3204
10533W        W11397   0.844  10.965  13.768 -0.0371 -0.2253  0.2589
10534W        W11398   3.553   3.167   9.255  0.1779  0.0824 -0.1379
10535W        W11399   3.769  10.761  12.345  0.2013  0.2588 -0.0232
10536W        W11400   4.082  12.054  13.721  0.1068  0.1276  0.2259
10537W        W11401   7.956   8.325  13.660  0.1153  0.0269 -0.0394
10538W        W11402   7.473  10.525  11.227  0.2736 -0.2053 -0.0341
10539W        W11403   4.957   5.711  10.333  0.0494 -0.0480 -0.0032
10540W        W11404   5.206   8.673  11.051  0.3159  0.1083  0.0815
10541W        W11405   5.539   8.938   8.727  0.2485  0.1903 -0.1290
10542W        W11406   5.657   7.328  10.675  0.1506 -0.0627  0.1484
10543W        W11407   8.860   7.616  11.351 -0.1038 -0.0371  0.2556
10544W        W11408   3.055   9.059  11.488 -0.0821 -0.1173  0.2161
10545W        W11409   3.675   7.035  10.460  0.0432 -0.3510 -0.0143
10546W        W11410   6.244   6.709  12.556 -0.0323 -0.3163 -0.0168
10547W        W11411   9.922  12.363   0.835  0.1363 -0.1626  0.1459
10548W        W11412   7.774   8.397  10.375 -0.0015  0.0455 -0.1553
10549W        W11413   5.101   9.724  12.673  0.3398  0.0127  0.2863
10550W        W11414   4.930   8.946  11.444  0.1906  0.3118  0.1939
10551W        W11415   7.275   5.150  12.898  0.0206 -0.2609 -0.2170
10552W        W11416   8.168   9.828  11.005 -0.0877  0.0502 -0.0456
10553W        W11417   6.258   9.636   1.189 -0.0881  0.1340 -0.0137
10554W        W11418   3.712   9.505   9.265  0.1588 -0.3628 -0.2030
10555W        W11419   8.767   8.981   0.122  0.1427  0.2309 -0.0380
10556W        W11420   3.261  11.037  10.918 -0.4141 -0.1667  0.1079
10557W        W11421   4.530   5.781  11.015  0.2057  0.2329 -0.2087
10558W        W11422   6.679   8.781  11.667 -0.0456  0.1477 -0.3013
10559W        W11423   6.817   9.370  12.224 -0.0858  0.0208  0.1875
10560W        W11424   2.482   9.140   0.501 -0.1959  0.0611  0.2624
10561W        W11425   5.865   7.723  10.413 -0.0743  0.0529 -0.3856
10562W        W11426   5.318   8.828  12.089  0.1750  0.0991  0.0720
10563W        W11427   9.387  11.797  11.403 -0.2049  0.0440 -0.2182
10564W        W11428   3.789  10.592   0.767  0.2658  0.2492 -0.1037
10565W        W11429   5.284  12.782   0.396  0.0635  0.0281  0.0242
10566W        W11430   8.166  13.034  13.865  0.3265 -0.0242  0.0784
10567W        W11431   3.752   9.754  13.944  0.2112  0.5873 -0.1134
10568W        W11432   6.696   9.312  12.964  0.2438  0.0546  0.0429
10569W        W11433   5.011  11.122  11.577 -0.1625  0.2175 -0.1375
10570W        W11434   3.715  13.181   0.672 -0.0247  0.0454  0.2416
10571W        W11435   6.277   9.506  13.295  0.0396  0.3527 -0.2391
10572W        W11436   5.454  11.248  11.740  0.0250 -0.0238  0.1709
10573W        W11437   5.106  10.583  12.870  0.0988 -0.2685  0.0775
10574W        W11438   4.509   8.247  12.697 -0.0690 -0.1410  0.1817
10575W        W11439   5.188   6.577  12.681  0.0681 -0.1166  0.0420
10576W        W11440   6.843   8.572  13.085 -0.2266 -0.0329  0.1958
10577W        W11441   9.411  10.191  13.579 -0.1314 -0.3899 -0.1895
10578W        W11442   5.365  12.518  13.180  0.1989  0.2380  0.4463
10579W        W11443   8.719   9.463  11.490 -0.1494 -0.1073  0.1492
10580W        W11444   8.238   8.692  12.476  0.2095  0.0719 -0.1155
10581W        W11445   5.738   7.238  11.147  0.1095 -0.3245 -0.2799
10582W        W11446   4.629   9.749  12.032  0.0743  0.2044  0.0693
10583W        W11447   5.462  11.208  13.365 -0.0503 -0.0687 -0.0865
10584W        W11448   6.374   7.809  12.524 -0.1735  0.1119  0.0606
10585W        W11449   5.805   9.107  11.874  0.1673 -0.2931  0.0458
10586W        W11450   7.251  11.028  11.290 -0.0172 -0.0818 -0.1005
10587W        W11451   6.593  10.881  13.802  0.2857 -0.1493 -0.1787
10588W        W11452   1.779  12.107   0.809 -0.2343  0.0489  0.1296
10589W        W11453   2.342   9.477   1.389  0.0090 -0.3103 -0.0186
10590W        W11454   3.166  12.269   0.119 -0.0837  0.0658  0.1592
10591W        W11455   3.595   6.897  11.008  0.1917 -0.1888 -0.2445
10592W        W11456   5.659   8.888  13.586  0.1938 -0.0131 -0.1361
10593W        W11457   6.647   8.853   9.884  0.4067 -0.0964 -0.1707
10594W        W11458   7.393  10.414  13.449 -0.1807 -0.1857 -0.0963
10595W        W11459   5.647  12.037   0.357  0.1914  0.3010  0.0604
10596W        W11460   5.735  12.137  11.535 -0.0890 -0.3066  0.0314
10597W        W11461   5.310   6.990  11.213  0.1918 -0.2629  0.3558
10598W        W11462   1.639  11.277  13.485  0.3571  0.1310 -0.4383
10599W        W11463   5.357   9.286  12.151  0.2866  0.0009  0.3599
10600W        W11464   5.249   8.436   8.101  0.0750 -0.0261  0.1249
10601W        W11465   8.376   7.333  11.419 -0.0582  0.0588  0.1803
10602W        W11466   5.307   6.990  10.599 -0.1504 -0.0241  0.0055
10603W        W11467   3.842   8.937  11.009  0.0143 -0.1432  0.1874
10604W        W11468   5.284   8.802  13.899 -0.3005 -0.1256  0.2834
10605W        W11469   8.749   8.296  12.986 -0.2415 -0.1103 -0.1732
10606W        W11470   9.244   8.430  13.009  0.4482 -0.0902  0.1384
10607W        W11471   5.390   6.322   9.198  0.1984 -0.3760 -0.0413
10608W        W11472   7.346   6.262  13.457  0.2317  0.1821  0.2442
10609W        W11473   7.336   9.572   9.850  0.0167  0.0725 -0.0839
10610W        W11474   7.312   9.660   9.287  0.3239  0.4347 -0.1849
10611W        W11475   5.834  10.004  11.563 -0.2454 -0.0987  0.0543
10612W        W11476   4.677   8.122  12.267  0.1139  0.1233  0.1589
10613W        W11477   5.407  10.823   9.037 -0.0375 -0.4767  0.0434
10614W        W11478   5.215   7.116   0.191 -0.0865 -0.0165  0.0302
10615W        W11479   5.807  10.371  11.859 -0.1799 -0.1618 -0.1132
10616W        W11480   4.344   9.233  12.831 -0.0216  0.0604  0.1848
10617W        W11481   3.056  11.732  12.634 -0.1299 -0.2707  0.1893
10618W        W11482   0.769   6.837   0.495  0.0487  0.0380  0.1645
10619W        W11483   6.981   9.068   0.226  0.0930 -0.0705  0.0286
10620W        W11484   3.125   8.457  12.253 -0.0124  0.0701  0.3313
10621W        W11485   7.110  11.523  11.283 -0.1582 -0.3298  0.0677
10622W        W11486   5.429  13.826   2.012 -0.0994  0.0745 -0.0373
10623W        W11487   6.687  10.846  11.719 -0.0015 -0.1180 -0.0196
10624W        W11488   8.935  10.205  14.010  0.1084 -0.0515  0.0900
10625W        W11489   3.321  10.129  13.957 -0.0072  0.1589 -0.1611
10626W        W11490   7.699  10.739  13.044  0.1509  0.0650 -0.1044
10627W        W11491   5.532   9.823  12.405 -0.2540 -0.3222  0.3256
10628W        W11492   4.589  10.103   0.959 -0.0852 -0.1140 -0.0008
10629W        W11493   7.314   8.553  10.511 -0.0648 -0.0411 -0.0116
10630W        W11494   4.227  12.331  12.663 -0.0438  0.2254  0.0728
10631W        W11495   4.039   7.797   8.874  0.3086 -0.1683  0.0610
10632W        W11496   3.565  13.742   2.702 -0.1910  0.1260  0.0409
10633W        W11497   6.814   0.537   2.020 -0.1319 -0.0337 -0.0442
10634W        W11498   1.926  11.804  13.953  0.1422  0.0884 -0.1599
10635W        W11499   3.878  11.897   0.682 -0.0520  0.0513 -0.0056
10636W        W11500   4.909  13.517  12.358 -0.0826  0.0089  0.2623
10637W        W11501   5.034  13.111   2.302 -0.0170  0.2092  0.1290
10638W        W11502   4.577  11.689   3.244 -0.1759  0.1353 -0.3195
10639W        W11503   4.737  11.974   0.426 -0.0737 -0.0844  0.2127
10640W        W11504   6.013  12.711   0.968 -0.2744 -0.2175  0.0877
10641W        W11505   5.208  12.019   4.365  0.2161  0.0446 -0.1442
10642W        W11506   5.230  11.665   1.837 -0.0737 -0.0856 -0.1791
10643W        W11507   4.791   2.417   4.117 -0.2538 -0.1939  0.1652
10644W        W11508   5.243   1.149   1.651  0.2264 -0.1673 -0.0001
10645W        W11509   4.824  13.050   0.222  0.2781 -0.0357 -0.0540
10646W        W11510   5.805  11.100   3.524 -0.0105  0.2821 -0.0662
10647W        W11511   6.864  12.635   4.296  0.0814 -0.2410 -0.2188
10648W        W11512   8.003  12.232   0.789  0.0156  0.1648 -0.2074
10649W        W11513   5.088   9.855   3.134 -0.1596  0.0845 -0.2706
10650W        W11514   4.742   2.435   1.477 -0.0102 -0.0135  0.0221
10651W        W11515   3.064  13.778   0.435 -0.0809  0.1329 -0.0799
10652W        W11516   5.135  11.656   3.110  0.2337  0.1235 -0.0806
10653W        W11517   6.817  12.848   2.002 -0.0880 -0.1642 -0.0260
10654W        W11518   6.615  10.824   1.459 -0.1036 -0.3008  0.1270
10655W        W11519   3.223  13.685   3.584  0.0256  0.1569 -0.3337
10656W        W11520   7.619  11.875   6.158 -0.2093  0.0598 -0.0338
10657W        W11521   4.869  12.990   1.489  0.0428  0.1176 -0.0976
10658W        W11522   5.445  12.863   2.992 -0.0446  0.1100  0.0099
10659W        W11523   5.937   3.132   4.548 -0.0593  0.0695 -0.2979
10660W        W11524   6.954   0.376   3.742 -0.0178  0.0898 -0.0386
10661W        W11525   6.379  14.007   3.132  0.0820  0.0645  0.0911
10662W        W11526   3.764  13.354   3.032 -0.0693  0.0762  0.2641
10663W        W11527   5.683   0.666   3.640 -0.3773 -0.1305 -0.2081
10664W        W11528   5.812  10.395  13.702  0.3738  0.2504  0.2839
10665W        W11529   6.251   1.053   1.727 -0.0515 -0.0224 -0.1983
10666W        W11530  11.153  11.381   1.305  0.1273  0.2499 -0.2594
10667W        W11531   8.251   0.525   0.638 -0.0375  0.1245 -0.1585
10668W        W11532   7.191  11.284  12.428  0.0460 -0.0448 -0.2209
10669W        W11533   7.442  11.767   2.055  0.0336 -0.2027 -0.3064
10670W        W11534   5.266  13.770   2.948  0.2540 -0.0407  0.2000
10671W        W11535   6.720  13.159   3.562  0.1443  0.1463  0.0584
10672W        W11536   6.555   2.100   2.833 -0.2045  0.0861  0.0358
10673W        W11537   5.907  12.072   1.250  0.2459 -0.0759 -0.1872
10674W        W11538   8.087  11.498   2.491  0.0119 -0.1195  0.0728
10675W        W11539   6.092  11.467   1.054  0.1374  0.2030 -0.1872
10676W        W11540   7.049  10.633   7.436  0.2453  0.1541 -0.2689
10677W        W11541   6.780  13.235   2.311  0.0835 -0.0826  0.1187
10678W        W11542   6.416  12.923   1.288 -0.1120 -0.3209  0.1015
10679W        W11543   8.124  12.132   2.662  0.0893  0.3357  0.1856
10680W        W11544   3.679   0.652   4.803 -0.0399  0.1311  0.1508
10681W        W11545   3.269   9.605  13.735  0.0138 -0.2893 -0.1361
10682W        W11546   3.895   0.733   3.429 -0.1502  0.3650 -0.4475
10683W        W11547   6.986  11.919  13.469  0.1731  0.0830  0.3659
10684W        W11548   3.885   1.375   1.519  0.3585  0.3604  0.2277
10685W        W11549   4.720   2.020   3.586 -0.1469 -0.1871  0.1898
10686W        W11550   4.884   0.771   1.593 -0.0154  0.1814 -0.1396
10687W        W11551   4.187  13.992   3.380  0.3027  0.2420 -0.1002
10688W        W11552   8.838  12.106   1.404  0.1785  0.1024 -0.0020
10689W        W11553   4.538  12.699  12.878 -0.2326 -0.1959 -0.3203
10690W        W11554   3.110  13.960   1.421  0.0992  0.0255 -0.0513
10691W        W11555   2.568  12.834  13.310 -0.2044  0.2245 -0.0369
10692W        W11556   5.553  13.509   1.106 -0.0222 -0.0737 -0.1597
10693W        W11557   5.337   9.817   4.239  0.0725 -0.0922  0.2496
10694W        W11558   7.821   9.235   2.042 -0.1139  0.3373  0.1852
10695W        W11559   5.518  13.488   2.659  0.0272  0.1591 -0.0613
10696W        W11560   2.125   1.071   2.133 -0.0503 -0.2242  0.0216
10697W        W11561   4.472   0.092   2.759 -0.1027 -0.0322  0.1670
10698W        W11562   7.263  13.427   0.114 -0.1109 -0.1516 -0.1680
10699W        W11563   4.377  13.325  13.323  0.2337 -0.0188  0.1999
10700W        W11564   5.208   9.638   0.116 -0.2133 -0.0905 -0.1086
10701W        W11565   4.179  12.961   2.792 -0.2460 -0.0066 -0.0912
10702W        W11566   2.146  10.018   0.076  0.1307  0.0981  0.1109
10703W        W11567   5.088  12.503   3.126 -0.2153 -0.1254 -0.1858
10704W        W11568   5.480  13.188   3.910 -0.1093  0.4235 -0.0297
10705W        W11569   7.975  11.923  13.518  0.2532 -0.0077 -0.0919
10706W        W11570   5.209  12.732   4.546 -0.1371 -0.4701 -0.0398
10707W        W11571   5.055   9.528   2.079 -0.0331 -0.0572  0.3397
10708W        W11572   7.063  12.590   3.763  0.0499 -0.0155  0.0446
10709W        W11573   6.916  10.966   4.438 -0.2631 -0.0762  0.1611
10710W        W11574   6.822  11.264   1.099  0.1309  0.1894  0.2688
10711W        W11575   5.168  12.619   2.216 -0.1176  0.0170  0.0695
10712W        W11576   6.675  10.730   2.007 -0.2083  0.1208  0.2558
10713W        W11577   5.275  11.357   2.640 -0.0975 -0.0207 -0.1016
10714W        W11578   6.413  13.545   0.668  0.0577 -0.1272 -0.0491
10715W        W11579   7.457   9.917   0.294 -0.3323 -0.2725  0.0245
10716W        W11580   4.750  10.451   3.781  0.0359 -0.2046  0.1930
10717W        W11581   7.090   8.802   1.532  0.0245  0.0522 -0.0861
10718W        W11582   6.377  11.335   3.875  0.2207 -0.1307 -0.1838
10719W        W11583   3.451   2.195   0.876 -0.2133 -0.0871 -0.1558
10720W        W11584   6.876  10.830   0.805 -0.0225  0.0938 -0.1057
10721W        W11585   6.553   9.127   0.602 -0.0872 -0.1332  0.3083
10722W        W11586   5.714   1.850   3.021  0.0635  0.2180 -0.3048
10723W        W11587   7.852  13.386   1.959 -0.1490 -0.2012  0.0252
10724W        W11588   6.009   0.390   3.116  0.1093  0.1190  0.1236
10725W        W11589   5.170  11.731   0.360 -0.1606  0.1715 -0.3377
10726W        W11590   6.433   0.348   1.280  0.1386  0.1058  0.3439
10727W        W11591   4.435   2.034   4.120 -0.2082  0.1159 -0.0821
10728W        W11592   7.689  12.819   2.130 -0.2643 -0.1550 -0.1709
10729W        W11593   8.216  13.517   0.090 -0.3380  0.1244 -0.3328
10730W        W11594   3.975  12.750   0.458 -0.0621  0.2436  0.3429
10731W        W11595   7.623  10.210   1.848  0.0739 -0.3109  0.0684
10732W        W11596   4.655  13.411   4.942 -0.0967  0.0358 -0.0746
10733W        W11597   4.677  14.006   3.170  0.0973 -0.0359  0.1316
10734W        W11598   3.441  12.676   0.291 -0.0142  0.2625  0.1638
10735W        W11599   6.433  13.971   0.958 -0.1321  0.0441 -0.1565
10736W        W11600   5.801   1.922   2.491 -0.1563  0.1561  0.4011
10737W        W11601   6.291  10.359   2.152 -0.0130 -0.3289  0.0403
10738W        W11602   4.695   1.209  13.325 -0.1828  0.0190 -0.1050
10739W        W11603   5.454  13.350   2.107  0.2974  0.1675  0.1213
10740W        W11604   3.481   0.004   3.876 -0.0524  0.1216 -0.0204
10741W        W11605   5.278  12.398   2.632 -0.1751 -0.1559  0.5241
10742W        W11606   6.413  13.914  13.914 -0.0498  0.0147  0.0763
10743W        W11607   7.438  10.158   4.043  0.0088 -0.0423  0.3179
10744W        W11608   6.695   9.904   1.479 -0.0292  0.0325 -0.0581
10745W        W11609   4.463  10.901   3.476  0.2391 -0.0080  0.0805
10746W        W11610   4.591  12.632   1.120  0.0005 -0.1276  0.0106
10747W        W11611   5.240  10.797   1.895 -0.0375  0.0386 -0.0937
10748W        W11612   4.492  13.558   2.023  0.2174 -0.0654 -0.0461
10749W        W11613   3.349   9.851   2.629 -0.0150  0.0198 -0.1321
10750W        W11614   3.722  12.168   3.194  0.0266 -0.1691  0.3307
10751W        W11615   3.669  13.256   1.623  0.1104  0.1295  0.0164
10752W        W11616   4.850  13.005   4.665  0.0606  0.0129  0.2725
10753W        W11617   5.901   9.821  13.408  0.1081 -0.3519 -0.0115
10754W        W11618   7.876  11.286   1.594  0.0516  0.0970 -0.2131
10755W        W11619   2.386   1.225   2.532  0.3938 -0.0697  0.0373
10756W        W11620   5.014  13.482   1.102  0.1521 -0.0166 -0.2443
10757W        W11621   4.264  11.742   0.289  0.1965 -0.2901 -0.0407
10758W        W11622   5.467   1.790   0.850  0.1280 -0.1182 -0.2268
10759W        W11623   7.151  12.661  12.743  0.1042 -0.0173  0.0025
10760W        W11624   3.470  13.640   0.722  0.2364 -0.0937  0.1122
10761W        W11625   4.385  11.933   0.754 -0.1010 -0.0803  0.0289
10762W        W11626   3.856  12.393   1.670  0.0497 -0.3746 -0.1998
10763W        W11627   5.217  12.202   0.589  0.0494 -0.2433 -0.2106
10764W        W11628   3.372  10.607  13.655 -0.0738 -0.2383  0.1541
10765W        W11629   5.131  12.216  13.579 -0.0779  0.0535  0.0375
10766W        W11630   5.819   0.337   2.585 -0.0234 -0.2718 -0.4325
10767W        W11631   4.953   2.485   2.755 -0.0250 -0.1201 -0.1416
10768W        W11632   7.527  12.128   4.650 -0.2542  0.0049 -0.1713
10769W        W11633   4.438   0.232   3.802 -0.0382 -0.0268 -0.2083
10770W        W11634   5.312   0.224   3.901 -0.1824  0.0769  0.0036
10771W        W11635   7.315   0.024   0.871  0.1646  0.2303 -0.1271
10772W        W11636   4.227  11.468   2.911 -0.0815  0.0663  0.1494
10773W        W11637   5.846  13.246   1.825 -0.1503 -0.1368 -0.2712
10774W        W11638   4.349  13.071  13.920 -0.2068 -0.1556  0.3306
10775W        W11639   5.589  12.816   1.740 -0.2289 -0.4263 -0.1504
10776W        W11640   7.308   1.617   3.250  0.3497 -0.0496 -0.0017
10777W        W11641   5.509   0.529   2.903  0.3432 -0.0223 -0.0508
10778W        W11642   3.349   0.620  12.978 -0.1140  0.1847 -0.0372
10779W        W11643   6.722  10.187  13.962  0.1919  0.1323  0.2707
10780W        W11644   8.733  12.570   1.248  0.0993 -0.1036  0.1412
10781W        W11645   5.765  13.594   3.201  0.2213 -0.4680  0.3820
10782W        W11646   2.921  11.485   1.393 -0.3677  0.0081  0.0278
10783W        W11647   1.358   2.036  13.697  0.0874  0.1095  0.2146
10784W        W11648   7.617   1.908  12.908  0.0304  0.0631  0.3457
10785W        W11649   4.572  11.079  13.387  0.3460  0.1033  0.1311
10786W        W11650   4.379  11.275   1.793  0.2855  0.0963  0.0444
10787W        W11651   7.355  11.918   1.202 -0.1397  0.0561 -0.1256
10788W        W11652   7.574  13.192   2.445 -0.3122 -0.2828 -0.0897
10789W        W11653   6.171   9.493   0.744 -0.1702 -0.0100  0.1602
10790W        W11654   4.339  12.101   1.322 -0.1680 -0.2081 -0.1731
10791W        W11655   4.913  13.917   6.023  0.2433  0.0448  0.2121
10792W        W11656   7.538   0.162   2.010  0.2069 -0.2222 -0.1936
10793W        W11657   7.712   1.265   1.258  0.2711  0.2378 -0.1178
10794W        W11658   4.597  13.827   1.155 -0.3047 -0.3251 -0.1040
10795W        W11659   5.352  12.186   6.701 -0.1442  0.3348 -0.2647
10796W        W11660   6.016  12.413   2.246 -0.1922 -0.0075  0.0319
10797W        W11661   4.094  10.101   2.030  0.1340 -0.0580  0.0276
10798W        W11662   6.022  11.539   0.095 -0.2436  0.0316  0.0976
10799W        W11663   7.973  11.783   0.404  0.0904 -0.1057  0.0999
10800W        W11664   4.625   1.109   0.910  0.1136  0.2152 -0.0245
10801W        W11665   3.483  13.463   4.968 -0.0044 -0.2409 -0.2164
10802W        W11666   6.379   9.865   2.465 -0.1792  0.0908 -0.0312
10803W        W11667   2.893  12.807   1.918  0.0969  0.3055 -0.0760
10804W        W11668   8.862  12.220   0.923  0.5003 -0.2675 -0.0508
10805W        W11669   8.437  13.654  13.668 -0.0673  0.1745  0.0063
10806W        W11670   5.899  11.196   2.351 -0.0143 -0.1252  0.0848
10807W        W11671   6.677   0.854   2.974 -0.0061 -0.2191 -0.0214
10808W        W11672   4.956  12.818   0.806 -0.5188  0.2074 -0.1963
10809W        W11673   4.143  12.338   4.904 -0.2070  0.0019  0.1809
10810W        W11674   5.592   0.199   1.326 -0.1573 -0.0006 -0.2190
10811W        W11675   2.781   2.535   0.462 -0.3335  0.1113  0.1418
10812W        W11676   4.754   1.857   2.004  0.1758  0.0530 -0.0705
10813W        W11677   4.234  13.163   2.337  0.2283 -0.2180  0.3410
10814W        W11678   6.427  11.258   3.371 -0.0136  0.0687  0.1271
10815W        W11679   5.659  10.346   1.857 -0.2112 -0.3267 -0.1684
10816W        W11680   5.771  12.052   2.580  0.0219 -0.1035 -0.1223
10817W        W11681   8.135   9.581   1.170  0.1203  0.0365  0.3446
10818W        W11682   4.657  13.106   1.046 -0.1236 -0.2741 -0.0497
10819W        W11683   5.904  13.720   5.790  0.2339 -0.3649 -0.1778
10820W        W11684   4.110  13.419   3.620 -0.0380  0.0166 -0.0691
10821W        W11685   7.129   9.872   3.793 -0.1676 -0.0353  0.0728
10822W        W11686   7.449  11.577   3.288  0.0674 -0.1839  0.0783
10823W        W11687   4.202  11.694   1.538  0.0267  0.0141 -0.1479
10824W        W11688   5.886  13.416   2.329  0.1012  0.1658  0.0709
10825W        W11689   4.533   0.638   2.670 -0.2777  0.0859 -0.0053
10826W        W11690   6.741  13.646   2.764 -0.2626  0.0125  0.0273
10827W        W11691   5.894   0.075   4.446  0.1757  0.0006 -0.0428
10828W        W11692   5.465   0.157   3.262 -0.0443 -0.1143  0.4684
10829W        W11693   5.876  10.326   3.346 -0.1324 -0.1617 -0.0007
10830W        W11694   5.420  12.722   4.037 -0.2194 -0.2368 -0.2327
10831W        W11695   3.834   0.260   3.382  0.0517 -0.1524  0.4934
10832W        W11696   7.751   7.885   1.358 -0.2344 -0.1391  0.1874
10833W        W11697   6.104  11.793   2.288 -0.0216  0.1557 -0.1061
10834W        W11698   8.482  10.398   2.980 -0.1675 -0.1598 -0.1484
10835W        W11699   9.646  11.001   1.610  0.0060  0.4647 -0.0222
10836W        W11700   3.748   0.522   2.083  0.1341  0.1847  0.0416
10837W        W11701   7.370   1.721   1.476  0.1172 -0.0540  0.0482
10838W        W11702   2.973  13.613   1.790  0.2553  0.0984 -0.1936
10839W        W11703   5.552  13.958   0.882  0.0239 -0.1772  0.1305
10840W        W11704   6.028  12.910   2.245  0.1843  0.0267 -0.1843
10841W        W11705   7.518  11.472   1.123  0.1196  0.1039 -0.0471
10842W        W11706   5.752  12.971  13.764  0.1676  0.0184 -0.2950
10843W        W11707   8.537  11.462   3.257 -0.0334  0.1903  0.3256
10844W        W11708   5.896   4.461   1.625 -0.2252  0.1687  0.0647
10845W        W11709   4.869  11.823   0.902 -0.2009 -0.0375  0.1541
10846W        W11710   3.113   1.840   2.178 -0.1774  0.0023 -0.0098
10847W        W11711   6.271  11.939   3.338 -0.0090  0.0700 -0.1080
10848W        W11712   5.647  11.509   0.421 -0.0534  0.2180 -0.2133
10849W        W11713   5.756  10.528   3.738  0.2609  0.0971  0.3706
10850W        W11714   2.991  10.676   4.033 -0.1038  0.0753 -0.0593
10851W        W11715   9.213  11.183  13.674  0.0606 -0.1680 -0.0186
10852W        W11716   4.735   0.261   0.852 -0.0019 -0.1225  0.2913
10853W        W11717   6.177  13.689   1.857  0.0361  0.1757 -0.1926
10854W        W11718   5.626   2.038   4.251 -0.3786  0.0443  0.0257
10855W        W11719   5.907  10.536   1.363 -0.0874 -0.0375  0.2440
10856W        W11720   5.401  13.662  12.455  0.1256 -0.2913 -0.0979
10857W        W11721   6.706  11.223   2.208 -0.0550 -0.2125  0.0803
10858W        W11722   3.949  12.718   4.125  0.2704  0.0050  0.3196
10859W        W11723   7.284  12.501   0.345 -0.2642  0.3220  0.4460
10860W        W11724   5.660   0.626   0.937 -0.0600 -0.0413  0.1202
10861W        W11725  10.495  12.139   1.717 -0.0078  0.0363  0.3046
10862W        W11726   7.433  13.120   0.747 -0.1198  0.1539 -0.0979
10863W        W11727   4.212  11.306   3.467  0.2050 -0.0287 -0.2380
10864W        W11728   7.695   7.758   3.836 -0.1134  0.1966  0.1801
10865W        W11729   5.028  10.778   5.620  0.0106 -0.1704  0.0645
10866W        W11730   5.763  12.612   2.687 -0.0094  0.0932 -0.0851
10867W        W11731   6.786  12.026   0.060  0.0752  0.1564  0.1422
10868W        W11732   2.593   2.107   2.502 -0.0411 -0.2204  0.0830
10869W        W11733   4.259   0.293   2.006 -0.1490  0.0227  0.0405
10870W        W11734   3.392  13.152   1.156 -0.4719 -0.0031  0.2660
10871W        W11735   4.311  12.704   1.524  0.1830  0.1500  0.1633
10872W        W11736   6.946   0.200  13.073  0.2276  0.2221  0.3651
10873W        W11737   6.093  10.441   5.283  0.0255 -0.1932  0.0488
10874W        W11738   8.179   0.296   1.430  0.0708 -0.1838 -0.3329
10875W        W11739   1.797  13.246   4.039  0.0977 -0.0957 -0.2310
10876W        W11740   6.698  12.040   1.650  0.0064  0.0950 -0.0403
10877W        W11741   7.605  13.778   1.719 -0.1964  0.0813  0.1974
10878W        W11742   6.309  12.738   2.803 -0.2116  0.0095 -0.0858
10879W        W11743   5.977   9.368   1.812  0.0375 -0.0791 -0.1229
10880W        W11744   4.944  10.758   3.412 -0.3531 -0.0319  0.2071
10881W        W11745   3.616   1.254   2.523 -0.5359 -0.1133 -0.1058
10882W        W11746   5.735  13.517   0.034  0.1294  0.0076  0.1234
10883W        W11747   6.828  12.018   2.806  0.1459  0.0032  0.3454
10884W        W11748   7.345   8.478   4.445 -0.3172 -0.3132  0.1303
10885W        W11749   7.142  12.906   1.632 -0.0873  0.0626  0.0687
10886W        W11750   7.138  12.407   3.249 -0.0985 -0.0732 -0.0334
10887W        W11751   4.421   0.581   1.687  0.0262 -0.2187  0.1963
10888W        W11752   3.093   9.902   0.645 -0.0154 -0.0053 -0.2343
10889W        W11753   7.556   0.901   4.278 -0.0068 -0.2243  0.0717
10890W        W11754   5.242  12.848   3.538  0.1080 -0.2023 -0.2006
10891W        W11755   6.229  12.070   0.423  0.2697  0.2366 -0.0758
10892W        W11756   6.128   1.256   5.605 -0.0469 -0.1495  0.1785
10893W        W11757   5.787  13.973   2.905  0.0084  0.0634  0.0914
10894W        W11758   4.906  12.993   3.228  0.0594 -0.1709  0.1002
10895W        W11759   3.488   2.714   1.783  0.0805  0.0490 -0.1709
10896W        W11760   6.646   9.488   2.128 -0.0090 -0.2284 -0.1255
10897W        W11761   5.862  12.138   4.884  0.0860 -0.1172  0.1889
10898W        W11762   5.422  10.369   2.296 -0.2046  0.2447  0.0421
10899W        W11763   8.414  11.902   2.244  0.2842  0.1703  0.0880
10900W        W11764   4.275   2.555   2.287 -0.2749  0.0213 -0.0346
10901W        W11765   6.266   1.710   2.663 -0.2947 -0.2541  0.0039
10902W        W11766   3.744  13.576   0.292 -0.2297 -0.2661 -0.3945
10903W        W11767   6.075  11.015   1.350 -0.1404  0.0746  0.1102
10904W        W11768   5.773   0.926   2.826  0.1166 -0.1408 -0.0636
10905W        W11769   5.152  13.218   2.818  0.0676  0.0996 -0.1719
10906W        W11770   5.095   0.112   4.760  0.0774 -0.1223 -0.1377
10907W        W11771   2.873   1.455   1.891 -0.4089  0.1454  0.0951
10908W        W11772   3.397   1.917   1.448  0.1036 -0.0405 -0.2896
10909W        W11773   6.109   1.913   1.779  0.2970  0.0357 -0.1476
10910W        W11774   8.194  10.668  13.493  0.1860 -0.0746 -0.0609
10911W        W11775   2.091   1.810   1.253  0.2142 -0.1242  0.0582
10912W        W11776   5.430   0.274   0.206 -0.0979  0.2156  0.0870
10913W        W11777   3.839  12.211   2.644 -0.0404  0.0605 -0.0887
10914W        W11778   6.299   8.580   3.500  0.2946  0.0697  0.0182
10915W        W11779   7.860   9.607  13.216 -0.0866 -0.0396 -0.4550
10916W        W11780   8.802  11.206   3.576  0.0375  0.0902  0.2757
10917W        W11781   9.120   1.596   0.268 -0.0096 -0.0036  0.0392
10918W        W11782   6.872   2.633   4.731  0.3433 -0.0016 -0.1197
10919W        W11783   8.872  11.148   1.891 -0.3106  0.2072  0.0815
10920W        W11784   6.428  12.185   2.409  0.0833 -0.4037 -0.2390
10921W        W11785   5.482   9.266  13.801 -0.1461 -0.0048 -0.0190
10922W        W11786   7.048   5.086   0.351  0.1661 -0.1149  0.0032
10923W        W11787   6.468   2.452   1.364  0.1015 -0.1198  0.0758
10924W        W11788   4.879  12.213   1.238  0.0569 -0.0896  0.0627
10925W        W11789   4.171   1.050   2.743 -0.4910  0.1832 -0.0998
10926W        W11790   1.817  13.642   3.072  0.2559  0.0845  0.0597
10927W        W11791   3.636  12.777   0.960  0.1056 -0.0399 -0.2671
10928W        W11792   4.844  13.512   3.099 -0.0113  0.0878  0.2048
10929W        W11793   4.939   1.599   3.774  0.3778 -0.0529 -0.1832
10930W        W11794   3.527  10.640   1.430  0.2795 -0.2020  0.0069
10931W        W11795   6.278  11.124   2.067  0.2397  0.1175 -0.1929
10932W        W11796  10.270  10.540   0.465  0.2581 -0.2204 -0.0125
10933W        W11797   5.304  11.915   3.930 -0.0327  0.0482 -0.0422
10934W        W11798   4.790   2.799   3.236  0.1959  0.1482  0.2165
10935W        W11799   5.689   9.343  13.324  0.0242 -0.2276 -0.0839
10936W        W11800   5.885  13.014   4.153  0.0167 -0.0642 -0.0285
10937W        W11801   3.100  13.075   6.056  0.1201  0.2607  0.1146
10938W        W11802   3.921  10.562   2.213  0.0700  0.0081  0.1128
10939W        W11803   2.955  13.379   0.840 -0.2706  0.1844  0.4586
10940W        W11804   7.254  12.712   5.764 -0.2587  0.0170 -0.1858
10941W        W11805   3.668  12.825   1.953  0.1275 -0.0141 -0.0373
10942W        W11806   6.397  10.155  13.437  0.0005 -0.2282  0.1860
10943W        W11807   7.951   1.718   4.829  0.0927 -0.1213  0.2954
10944W        W11808   5.497   3.897   2.306 -0.1888  0.2762  0.1200
10945W        W11809   3.840  13.509   2.108 -0.1556  0.0127  0.0598
10946W        W11810   6.754  12.557   1.437 -0.1654  0.1254  0.3173
10947W        W11811   5.053  12.137   2.071 -0.0447  0.1149  0.0836
10948W        W11812   9.228  12.310   1.678 -0.0807  0.0999  0.4251
10949W        W11813   7.301  12.873   3.114 -0.1087 -0.0577  0.1578
10950W        W11814   8.456  11.770   4.207 -0.0741  0.1641  0.2023
10951W        W11815   5.661   0.496  13.703 -0.0947  0.0129  0.0312
10952W        W11816   5.973  12.784   4.653 -0.0389 -0.1931 -0.0118
10953W        W11817   6.045  13.741   1.179  0.0421 -0.1362 -0.1374
10954W        W11818   6.807  10.287   2.251 -0.4498  0.1419  0.3525
10955W        W11819   5.071  12.110   3.468 -0.0301  0.1278  0.1704
10956W        W11820   6.497   1.696   4.722  0.0910  0.1290  0.1815
10957W        W11821   4.435  13.931   0.062  0.0310 -0.2226 -0.0974
10958W        W11822   4.933   1.545   1.586 -0.0603  0.1016 -0.0518
10959W        W11823   7.342  11.977   2.991  0.0200  0.0583  0.0314
10960W        W11824   6.811  11.227   2.724  0.1438 -0.0706 -0.1680
10961W        W11825   2.943   1.324   1.025 -0.0120 -0.0583 -0.0199
10962W        W11826   6.766   0.527   2.569  0.1221 -0.0944 -0.4487
10963W        W11827   6.924   0.979   2.591 -0.0323  0.0210 -0.3323
10964W        W11828   3.219   2.631   0.910 -0.1616  0.0573  0.1290
10965W        W11829   9.618   0.258   4.902 -0.0056  0.3713 -0.1431
10966W        W11830   4.747   1.104   2.957  0.2954  0.1361 -0.0787
10967W        W11831   3.441  11.522   5.190  0.0240  0.1884  0.1002
10968W        W11832   5.274   0.668   3.378  0.1921  0.1896 -0.2700
10969W        W11833   6.833   0.359   1.561 -0.1203 -0.1397 -0.0212
10970W        W11834   6.091  13.122   0.451 -0.1125 -0.1004  0.3908
10971W        W11835   5.503  11.148   7.666 -0.1911  0.0011 -0.0401
10972W        W11836   6.566  12.530   3.915  0.4930  0.0220 -0.1752
10973W        W11837   6.599  12.151   4.925 -0.0545 -0.0672  0.0651
10974W        W11838   5.242  10.850   4.754 -0.0508 -0.0559 -0.0704
10975W        W11839   4.745  13.057   5.255 -0.1613  0.0079  0.0528
10976W        W11840   5.215  11.563   6.729  0.2459  0.3326  0.0080
10977W        W11841   2.311   9.831   7.842 -0.0143  0.2686  0.0414
10978W        W11842   6.339  11.762   7.402  0.1715 -0.1713 -0.1176
10979W        W11843   8.842   8.918   8.034 -0.0731  0.2801 -0.1107
10980W        W11844   3.922  10.359   7.075 -0.1301 -0.2245  0.0511
10981W        W11845   3.873  11.796   6.678 -0.0119 -0.0807 -0.0293
10982W        W11846   4.209   0.168   4.288  0.3842 -0.1878 -0.2038
10983W        W11847   2.876   1.146   4.477  0.0141 -0.2014  0.2048
10984W        W11848   6.307  10.994   8.009 -0.1790 -0.2274 -0.0325
10985W        W11849   5.953  12.244   3.109 -0.2023  0.0095  0.0544
10986W        W11850   5.962   9.490   5.306 -0.0251  0.0817 -0.1893
10987W        W11851   6.306  13.878   5.448 -0.2142  0.0327  0.0364
10988W        W11852   8.973  10.576   5.232 -0.2076  0.2379  0.2176
10989W        W11853   3.286  11.784   5.640  0.1108 -0.1307  0.0038
10990W        W11854   6.638   0.233   5.967  0.1966  0.2634 -0.0891
10991W        W11855   5.937  10.879   7.614  0.2617  0.0457 -0.0193
10992W        W11856   6.772  10.173   8.658 -0.1278 -0.0612  0.1749
10993W        W11857   4.513  12.980   5.852 -0.1825 -0.0048 -0.0605
10994W        W11858   5.726  13.660   7.677 -0.1886  0.0641  0.1729
10995W        W11859   7.307  11.365   6.914  0.2361 -0.2627  0.3063
10996W        W11860   3.439   9.568   4.868  0.1257 -0.1737 -0.0702
10997W        W11861   4.848   1.825   7.093 -0.0504 -0.1145 -0.1780
10998W        W11862   6.460  12.403   7.080 -0.1148  0.0066 -0.0015
10999W        W11863   5.790   0.109   6.185  0.2156 -0.2715  0.4694
11000W        W11864   4.059  12.661   8.372 -0.1161  0.2579 -0.0621
11001W        W11865   8.391   0.221  10.610 -0.1341  0.1414 -0.1936
11002W        W11866   5.503  11.310   3.089 -0.2718  0.1578 -0.1338
11003W        W11867   3.555  13.063   5.792  0.1825  0.1697 -0.0242
11004W        W11868   8.758  12.490   4.578  0.0046 -0.1170  0.0336
11005W        W11869   7.539   9.975   5.946 -0.3150 -0.1168  0.4732
11006W        W11870   6.588  13.368   1.114  0.2871 -0.0384 -0.1639
11007W        W11871   6.568   9.596   6.692 -0.0531  0.1218  0.1236
11008W        W11872   8.828  13.205   6.199  0.1103  0.2257  0.2226
11009W        W11873   6.344   8.658   5.502 -0.3318  0.2260  0.3149
11010W        W11874   4.304   0.601   7.149  0.2425  0.0279 -0.2103
11011W        W11875   5.719  11.893   1.820  0.2544  0.4160  0.3453
11012W        W11876   5.511  12.970   2.428  0.2550 -0.2131 -0.0899
11013W        W11877   5.554  12.649   4.933  0.1000  0.2168 -0.1047
11014W        W11878   6.830  10.850   5.784 -0.2969 -0.0149  0.1122
11015W        W11879   6.235   0.629   2.700  0.1771 -0.0787  0.3071
11016W        W11880   5.863  13.643   4.702  0.6093  0.2152  0.0421
11017W        W11881   5.424   9.084   6.067  0.1385 -0.3243 -0.0567
11018W        W11882   3.120  13.615   4.079 -0.0597  0.2007 -0.0698
11019W        W11883   5.517  12.011   3.091 -0.2615 -0.4934 -0.1946
11020W        W11884   6.050   7.813   6.603  0.0721 -0.0953 -0.4623
11021W        W11885   6.295  11.272   4.863  0.2751 -0.0428 -0.1355
11022W        W11886   6.632  13.698   5.027 -0.0636  0.2179  0.2400
11023W        W11887   4.306  11.690   6.357 -0.0819 -0.2073  0.1048
11024W        W11888   5.101  11.613   5.383 -0.2429  0.1102  0.0876
11025W        W11889   3.240   9.654   5.326  0.0510  0.0405  0.0236
11026W        W11890   6.885   8.969   4.896 -0.0650  0.5306  0.2157
11027W        W11891   5.205   0.839   7.723  0.1060 -0.2128 -0.1521
11028W        W11892   5.703  11.348   4.053  0.1166 -0.1900  0.1405
11029W        W11893   5.350   1.013   5.153 -0.3286  0.3220  0.0386
11030W        W11894   6.259  11.468   8.224  0.2252  0.0587 -0.0202
11031W        W11895   8.244  10.407   5.571 -0.0906 -0.1122 -0.1994
11032W        W11896   4.254  10.047   3.843  0.2714 -0.0316  0.0243
11033W        W11897   3.349  13.404   6.351  0.0753  0.0186 -0.0480
11034W        W11898   0.974  13.906   6.135  0.1641 -0.0908 -0.0180
11035W        W11899   6.832   0.119   2.891 -0.2092 -0.4783 -0.1162
11036W        W11900   6.127  12.034   6.089 -0.2974 -0.0335 -0.0161
11037W        W11901   6.323  12.113   5.603  0.1106  0.1683 -0.1933
11038W        W11902   4.995  11.141   6.566 -0.1414  0.1199  0.3299
11039W        W11903  13.593  10.435   6.176  0.2296 -0.1346  0.3370
11040W        W11904   5.934  10.469   7.294 -0.2324  0.1506  0.0761
11041W        W11905   3.892  10.024   7.763  0.1408  0.0511 -0.1035
11042W        W11906   5.780   9.011   3.707  0.0551 -0.0755 -0.2870
11043W        W11907   5.813   0.584   5.843  0.0534  0.1763  0.1152
11044W        W11908   8.490  11.639   7.557 -0.3627  0.1131 -0.0259
11045W        W11909   9.428   0.747   6.325  0.1195  0.1338  0.6573
11046W        W11910   5.829  11.501   6.057 -0.1678  0.0800  0.1175
11047W        W11911   7.010  10.165   7.309 -0.1228  0.0613  0.2643
11048W        W11912   6.609   0.293   7.266  0.2583 -0.1350 -0.2568
11049W        W11913   6.937  12.213   5.267 -0.1703  0.3789 -0.0359
11050W        W11914   4.754  11.679   7.789  0.0034 -0.0267  0.0660
11051W        W11915   7.133  10.340   5.107  0.0710 -0.1038  0.1485
11052W        W11916   7.320   8.837   4.802  0.0127 -0.2828 -0.3426
11053W        W11917   5.901  10.963   4.992 -0.0326 -0.2290  0.0775
11054W        W11918   7.301   9.505   2.737  0.1453  0.0834 -0.1139
11055W        W11919   9.740  12.693   5.266 -0.1051 -0.1973 -0.0016
11056W        W11920   2.170  12.641   5.121 -0.1031 -0.2997  0.0414
11057W        W11921   6.477  12.252   3.026 -0.0202 -0.2572  0.1273
11058W        W11922   8.499   9.652   7.032 -0.0960  0.2249  0.1016
11059W        W11923   7.517  10.119   7.455 -0.0171  0.1309 -0.1938
11060W        W11924   6.171  11.896   5.189  0.2987  0.0605 -0.2065
11061W        W11925   5.267  12.536   8.042  0.0220  0.2108  0.0773
11062W        W11926   5.650   7.428   7.502 -0.1711 -0.0224 -0.0989
11063W        W11927   4.597  11.418   5.982 -0.1899  0.0489  0.0806
11064W        W11928   4.870   9.779   6.049 -0.0818  0.0017  0.2899
11065W        W11929   7.241  10.114   5.565  0.2950  0.0228 -0.2189
11066W        W11930   7.105   1.798   4.252  0.2240 -0.3765 -0.1058
11067W        W11931   5.701   8.496   4.766 -0.0364  0.0570  0.2379
11068W        W11932   7.466  13.119   7.851 -0.0549 -0.1021  0.1173
11069W        W11933   8.244  10.386   4.796  0.1195 -0.1354  0.1281
11070W        W11934   9.600  12.377   6.508  0.1018  0.0208 -0.2172
11071W        W11935   6.554  11.281   5.532 -0.3957 -0.1940 -0.1734
11072W        W11936   5.171   9.870   3.766  0.2968 -0.0566 -0.0164
11073W        W11937   5.806  12.082   7.655 -0.1326  0.0609  0.1678
11074W        W11938   7.384   9.965   2.248  0.1384  0.1078 -0.1690
11075W        W11939   5.261   1.486   5.047  0.0911 -0.0188  0.0790
11076W        W11940   5.271  13.109   4.958 -0.0438 -0.3080  0.1207
11077W        W11941   3.365  11.879   6.544 -0.0333  0.0375 -0.1153
11078W        W11942   7.834  11.838   5.504 -0.3059  0.1247 -0.1260
11079W        W11943   5.230  13.835   5.548  0.1624  0.1267  0.1456
11080W        W11944   7.490   9.654   4.677  0.0253  0.1308 -0.1678
11081W        W11945   7.193  10.467   2.049 -0.1704 -0.0355 -0.3137
11082W        W11946   8.176   9.524   6.025  0.1278 -0.0509 -0.1576
11083W        W11947   4.656  13.459   6.475  0.0665  0.0637 -0.0540
11084W        W11948   4.779  11.979   4.640 -0.1409 -0.0405  0.4025
11085W        W11949   6.412  11.363   7.688 -0.0051  0.2569 -0.0356
11086W        W11950   6.790  11.071   4.889  0.1248  0.1506 -0.0250
11087W        W11951   4.090  10.240   2.951  0.1372  0.0019  0.0411
11088W        W11952   5.475  11.626   5.695 -0.0357 -0.0488 -0.1218
11089W        W11953   6.318  13.454   6.390  0.2424  0.0235  0.0323
11090W        W11954   3.753  13.897   7.985  0.0032 -0.3376  0.1105
11091W        W11955   7.333  10.419   6.009 -0.0848  0.0051 -0.2942
11092W        W11956   5.486  11.099   5.776  0.2055  0.0864 -0.3497
11093W        W11957   4.443  12.364   3.414 -0.0427 -0.0026 -0.1930
11094W        W11958   4.994   0.184   5.360 -0.0873  0.0984 -0.4418
11095W        W11959   4.799  10.311   5.666  0.0259 -0.2535  0.0353
11096W        W11960   4.672   0.835   6.156 -0.1254  0.0831  0.0596
11097W        W11961   4.398  11.908   5.044 -0.2426  0.0267 -0.0143
11098W        W11962   5.311   9.199   7.349  0.2403 -0.0706 -0.0356
11099W        W11963   6.331   8.283   8.831 -0.0959  0.2015 -0.0191
11100W        W11964   2.590  12.330   8.168  0.0036 -0.1672  0.0422
11101W        W11965   7.536  12.656   3.593  0.0280  0.0656  0.1361
11102W        W11966   4.955  11.350   4.675 -0.1606  0.1052  0.1592
11103W        W11967   6.198  11.103   6.547  0.4819  0.0180 -0.1159
11104W        W11968   5.668   9.781   4.594  0.2261 -0.1797 -0.4729
11105W        W11969   2.390  13.850   6.806  0.3720  0.1417  0.4090
11106W        W11970   5.573  13.508   5.148 -0.1006  0.0385 -0.2356
11107W        W11971   7.779   0.895   7.335 -0.2146  0.2737  0.1238
11108W        W11972   7.253   8.844   4.040  0.1634 -0.1620 -0.4246
11109W        W11973   4.485  10.241   4.263 -0.0092  0.1551  0.1719
11110W        W11974   2.357  13.722   3.408 -0.0814  0.0738 -0.2348
11111W        W11975   4.633   1.050   4.886  0.1327  0.0682 -0.2532
11112W        W11976   5.993  13.320   6.891 -0.1220 -0.1117  0.1017
11113W        W11977   5.219  12.269   4.821 -0.3043 -0.0086  0.3904
11114W        W11978   6.946  10.035   6.729  0.0401  0.0900  0.0653
11115W        W11979   5.346  13.629   4.612 -0.1445 -0.0230 -0.0695
11116W        W11980   8.215  11.725   5.225  0.3083 -0.5362  0.1455
11117W        W11981   8.867  10.313   7.865  0.1255 -0.0778 -0.1281
11118W        W11982   6.933  11.928   3.298 -0.4371 -0.3234  0.0178
11119W        W11983   2.747   0.560   5.805  0.1940  0.0762  0.2412
11120W        W11984   6.073   9.756   6.623  0.1226  0.3972  0.1901
11121W        W11985   7.016   1.273   6.273 -0.1419  0.2280 -0.0481
11122W        W11986   7.324  11.670   5.815  0.2529  0.1444  0.0916
11123W        W11987   7.553  13.784   3.347 -0.2264 -0.1599  0.1019
11124W        W11988   4.816  11.761   4.151  0.0770 -0.3797 -0.4340
11125W        W11989   6.502  12.432   1.943  0.0451  0.1583  0.0279
11126W        W11990   5.308  12.965   7.375  0.1982  0.2004 -0.4046
11127W        W11991   7.028  11.847   6.166  0.1706 -0.4616  0.1138
11128W        W11992   5.542   9.465   3.861  0.3409  0.4802  0.2086
11129W        W11993   4.107   1.209   6.555  0.0808  0.1001 -0.1414
11130W        W11994   5.858  12.205   7.122 -0.1099  0.0565  0.0385
11131W        W11995   5.279   2.654   3.094  0.3766  0.2893 -0.1996
11132W        W11996   5.419   1.513   3.671 -0.3674 -0.1091 -0.0951
11133W        W11997   5.076  12.116   6.292  0.0439  0.3518 -0.0389
11134W        W11998   6.020   7.817   3.712 -0.0180 -0.2431 -0.2238
11135W        W11999   4.408   8.976   5.696 -0.2483 -0.4063  0.1803
11136W        W12000   5.909   9.970   5.066  0.2844  0.1742  0.1053
11137W        W12001   6.724   9.836   3.263  0.3889 -0.1707 -0.2471
11138W        W12002   3.098  11.425   8.093 -0.1464 -0.0745  0.1732
11139W        W12003   7.677  12.929   4.588  0.1629  0.1676 -0.0204
11140W        W12004   5.032   8.958   5.181  0.0437  0.0984  0.0455
11141W        W12005   6.260  13.219   3.179  0.1083 -0.0575 -0.3120
11142W        W12006   6.125  10.494   4.256 -0.0607 -0.0655  0.3046
11143W        W12007   6.608   0.049   6.821 -0.1534 -0.1281  0.3028
11144W        W12008   4.284  11.907   2.575 -0.1238 -0.0460 -0.2956
11145W        W12009   4.292   9.780   5.115  0.2802 -0.0573 -0.1201
11146W        W12010   3.710  11.727   2.964 -0.0445 -0.1048  0.1683
11147W        W12011   4.798  13.973   6.514 -0.0845  0.1141  0.0776
11148W        W12012   5.983  13.989   5.092  0.0462  0.1528 -0.1725
11149W        W12013   5.162   0.057   8.421 -0.0217  0.2873 -0.0886
11150W        W12014   5.175  13.475   6.468  0.2019 -0.1011 -0.0628
11151W        W12015   4.123  13.481   4.863 -0.3158 -0.0322 -0.3471
11152W        W12016   6.858  12.695   2.854 -0.3324 -0.0233 -0.2285
11153W        W12017   4.414  10.177   5.412  0.2279 -0.1342 -0.1959
11154W        W12018   7.666  11.630   4.767 -0.0923 -0.0969  0.0827
11155W        W12019   5.301  13.327   3.241 -0.2553 -0.0553 -0.0319
11156W        W12020   7.616   9.375   5.141  0.0136 -0.1020  0.1518
11157W        W12021   4.878   0.115   7.997  0.1579  0.0111  0.0358
11158W        W12022   6.487  10.968   6.117 -0.0894 -0.0504 -0.0343
11159W        W12023   6.838  10.450   6.087 -0.0163  0.1431 -0.1113
11160W        W12024   5.909  10.350   5.733 -0.2020  0.0513  0.2000
11161W        W12025   7.499  13.391   4.802  0.3709 -0.1956  0.0668
11162W        W12026   6.424   7.915   9.174 -0.1412 -0.0614  0.1300
11163W        W12027   3.436  13.652   6.849 -0.2334 -0.0231  0.0928
11164W        W12028   8.985   9.816   1.482  0.1698  0.0497  0.1773
11165W        W12029   8.594   0.102   4.650  0.2105 -0.0291 -0.0621
11166W        W12030   5.731   9.169   8.234 -0.0350  0.0538 -0.1003
11167W        W12031   6.546  10.672   6.525 -0.4589 -0.1420  0.1015
11168W        W12032   5.896   0.817   4.550 -0.1484  0.0216  0.2999
11169W        W12033   5.121  13.326   4.325  0.1003 -0.0169  0.1017
11170W        W12034   4.106  12.246   8.692 -0.3504  0.2268 -0.0176
11171W        W12035   8.516   8.236   3.729 -0.1180  0.0887 -0.3515
11172W        W12036   5.533  10.159   8.384  0.1758  0.1520 -0.0860
11173W        W12037   7.670  13.262   7.403  0.1702 -0.0089 -0.1537
11174W        W12038   6.959   0.913   3.975 -0.1571  0.0826  0.1342
11175W        W12039   4.080  13.451   7.278  0.2549  0.0227  0.2543
11176W        W12040   6.096  12.097   6.674 -0.1510 -0.2727  0.2296
11177W        W12041   7.075  10.752   3.379 -0.3034  0.0771  0.1810
11178W        W12042   5.893   9.794   8.577  0.2076 -0.1028  0.1532
11179W        W12043   7.983  12.073   4.879 -0.2728  0.1306 -0.1266
11180W        W12044   7.549  11.962   7.627 -0.1452  0.5913 -0.3150
11181W        W12045   2.295   0.653   6.126 -0.1035  0.4143 -0.1720
11182W        W12046   5.731  12.094   6.323 -0.1319  0.1073 -0.1354
11183W        W12047   4.671  10.548   6.242  0.2464  0.1600  0.3615
11184W        W12048   6.936   0.046   3.387 -0.1509  0.1695 -0.2078
11185W        W12049   1.809  10.884   4.528  0.2118 -0.3028  0.1295
11186W        W12050   5.365  10.315   3.419  0.3250 -0.0676 -0.1501
11187W        W12051   4.402   8.894   5.180  0.0367 -0.2748 -0.3118
11188W        W12052   7.522   0.140   7.541  0.1798  0.1505  0.3900
11189W        W12053   7.218   9.173   5.227  0.1545  0.2460  0.1438
11190W        W12054   4.824   9.253   6.168 -0.2142 -0.1231  0.1794
11191W        W12055   5.970   8.871   6.478 -0.0846  0.0864  0.0731
11192W        W12056   7.788  11.593   6.609  0.1058  0.3561 -0.0620
11193W        W12057   4.916  11.945   6.793 -0.1291 -0.1027  0.2592
11194W        W12058   5.566   0.739   2.331  0.0921 -0.1465  0.1083
11195W        W12059   6.388   2.488   4.923 -0.0105  0.1128  0.0390
11196W        W12060   5.570   9.864   6.575 -0.1306 -0.0187  0.0397
11197W        W12061   6.700  13.254   5.184  0.2382 -0.2696 -0.2631
11198W        W12062   7.519  10.178   6.409 -0.0872 -0.1421  0.5359
11199W        W12063   8.220  12.122   5.855 -0.1813  0.0812 -0.2021
11200W        W12064   6.780  11.567   7.194  0.1510  0.0156 -0.2205
11201W        W12065   9.744   6.722   5.537  0.1777  0.0943  0.2227
11202W        W12066   3.768  11.379   4.372 -0.1238  0.0252 -0.0301
11203W        W12067   4.090   9.786   6.202  0.0931  0.0654  0.2181
11204W        W12068   5.847  13.137   4.990 -0.3212 -0.0282 -0.0962
11205W        W12069   1.371   0.038   7.951 -0.2733  0.2967  0.2621
11206W        W12070   5.541   0.440   4.708 -0.2517 -0.1682  0.0186
11207W        W12071   4.715  10.647   2.646  0.2435  0.0750  0.2112
11208W        W12072   5.480   0.433   6.311 -0.0252 -0.0483 -0.0751
11209W        W12073   6.633   0.820   3.475  0.3352 -0.1983 -0.0795
11210W        W12074   8.978  12.054   5.359 -0.1637 -0.1708 -0.0901
11211W        W12075   7.118  11.333   4.137 -0.3967 -0.1363 -0.0146
11212W        W12076   6.848  11.127   7.720  0.0658  0.3056 -0.1250
11213W        W12077   7.267  12.548   4.584  0.3918  0.1103  0.1352
11214W        W12078   6.084   2.110   4.060  0.1438  0.1721 -0.0771
11215W        W12079   4.171  13.322   6.768  0.2278  0.1039 -0.0552
11216W        W12080   5.347   0.875   4.664  0.1414 -0.0555  0.3254
11217W        W12081   7.085  11.964   8.066  0.1104  0.0676  0.4002
11218W        W12082   5.732  10.796   4.572  0.0758 -0.1866 -0.3612
11219W        W12083   4.742   0.827   6.640  0.0155  0.1109  0.0503
11220W        W12084   6.369  10.393   5.900  0.2939 -0.0207 -0.1476
11221W        W12085   7.189   9.683   5.128 -0.0270  0.2454 -0.1882
11222W        W12086   7.658  10.741   6.064 -0.0107  0.2362  0.0263
11223W        W12087   8.114   9.944   6.437 -0.0479 -0.0895  0.0173
11224W        W12088   5.865  12.237   5.468  0.1159  0.0130 -0.0638
11225W        W12089   3.662  10.509   6.528  0.1140 -0.0328  0.0917
11226W        W12090   6.557  13.501   6.804  0.2252 -0.1807  0.2163
11227W        W12091   6.689  13.879   6.368 -0.1213  0.0023  0.2352
11228W        W12092   6.531  12.782   3.310  0.1943  0.0727 -0.0570
11229W        W12093   4.622  12.256   8.913 -0.2083  0.0905  0.0729
11230W        W12094   6.753   8.550   5.156 -0.1298 -0.0976 -0.1712
11231W        W12095   3.852   9.241   5.779  0.0434 -0.0371 -0.1278
11232W        W12096   1.832  11.713   6.122  0.3825 -0.1838 -0.0086
11233W        W12097   6.224   8.731   5.954  0.2058  0.0572 -0.2135
11234W        W12098   6.753  13.180   9.090  0.0193  0.2803  0.4083
11235W        W12099   5.547  11.866   5.242  0.0404 -0.0155  0.0854
11236W        W12100   5.500  11.367   4.734  0.1448 -0.3177 -0.0075
11237W        W12101   4.993  12.486   6.590  0.1414  0.2541 -0.0146
11238W        W12102   7.057  13.626  10.413 -0.0546  0.1443 -0.1565
11239W        W12103   4.826  11.219   5.591  0.2421  0.1975 -0.3191
11240W        W12104   6.009  10.439   4.826  0.2767  0.0428  0.0844
11241W        W12105   4.323   0.170   5.495 -0.0487 -0.0654 -0.0762
11242W        W12106   5.804  10.758   5.495 -0.2212  0.0060 -0.0355
11243W        W12107   4.590  13.382   6.976  0.0346  0.2247 -0.4165
11244W        W12108   6.083   0.432   4.071  0.0124 -0.1623  0.2022
11245W        W12109   4.687  13.332   4.028  0.1450 -0.1702 -0.1689
11246W        W12110   4.040  12.409   9.214 -0.0492 -0.2334  0.1042
11247W        W12111   5.051  10.189   6.252  0.0101  0.1996  0.1681
11248W        W12112   4.856   1.604   3.243 -0.0637  0.3885 -0.1753
11249W        W12113   5.629  11.331   5.251 -0.1137  0.1429 -0.3593
11250W        W12114   5.762  12.966   7.166  0.1861  0.3277  0.0385
11251W        W12115   4.152   8.156   4.472 -0.0255 -0.0427  0.1037
11252W        W12116   7.580  10.561   1.475  0.2121  0.0045 -0.0258
11253W        W12117   6.910  12.879   9.461  0.1014 -0.1462 -0.2036
11254W        W12118   8.297  12.746   7.011 -0.0456 -0.5178 -0.2023
11255W        W12119   7.847  11.432   7.757  0.2718 -0.0195  0.2169
11256W        W12120   9.155  12.803   5.427  0.0084 -0.1990 -0.1163
11257W        W12121   5.954  11.786   5.649  0.1268  0.1278  0.1690
11258W        W12122   4.820  10.951   6.034 -0.1777 -0.0298  0.1953
11259W        W12123   5.209   2.173   6.931 -0.2782 -0.4240 -0.0489
11260W        W12124   2.638  12.473   5.027 -0.0697  0.3672  0.5210
11261W        W12125   5.525  10.435   4.911  0.0841  0.0412 -0.2516
11262W        W12126   7.054  13.962   5.922  0.2410 -0.1357 -0.0674
11263W        W12127   6.769  13.688   9.155  0.2002 -0.2600  0.1642
11264W        W12128   5.869  13.101   2.795  0.2159  0.0918 -0.1103
11265W        W12129   2.838  11.368   6.358  0.0386  0.2097 -0.0053
11266W        W12130   6.339  13.773   6.022 -0.0954  0.0710 -0.0769
11267W        W12131   4.828  12.509   6.067  0.1339  0.4690 -0.1902
11268W        W12132   7.321   1.339   4.090  0.0232 -0.2680 -0.1617
11269W        W12133   5.530  11.631   3.531  0.0684 -0.1485 -0.1985
11270W        W12134   9.826  13.461   6.106  0.1459 -0.0730 -0.1822
11271W        W12135   6.306   3.014   3.790  0.0360 -0.1849  0.2452
11272W        W12136   5.573  10.905   4.032 -0.2935  0.1812  0.1030
11273W        W12137   5.701   9.307   6.435 -0.1852 -0.0993 -0.0670
11274W        W12138   3.834  10.443   8.777  0.0948  0.0413 -0.0295
11275W        W12139   4.635  10.850   5.282  0.1157 -0.2855 -0.0142
11276W        W12140   2.757  10.865   4.425  0.0453  0.2921 -0.2068
11277W        W12141   5.499  11.227   6.326 -0.1022  0.1766 -0.0764
11278W        W12142   6.063  12.642   6.917 -0.0688 -0.1383 -0.0230
11279W        W12143   8.538  10.732   7.946 -0.0353 -0.0625  0.2272
11280W        W12144   7.251  12.766   6.399 -0.1466 -0.3073 -0.4021
11281W        W12145   3.785  11.671   5.533 -0.4785 -0.3159  0.4753
11282W        W12146   4.752  12.293   2.474  0.0351  0.0609 -0.3146
11283W        W12147   8.014   9.765   3.083 -0.1501 -0.1604  0.0153
11284W        W12148   5.979  12.579   5.137  0.0002 -0.0299  0.0620
11285W        W12149   6.680   9.721   4.508  0.1610 -0.0077 -0.3060
11286W        W12150   4.833   0.606   4.748 -0.1476  0.1323 -0.0269
11287W        W12151   9.773  13.520  10.455  0.0379  0.0267 -0.1845
11288W        W12152   7.801  12.364   5.809  0.1360  0.0100 -0.1559
11289W        W12153   7.329  13.503   8.155  0.1392 -0.0429  0.0445
11290W        W12154   7.891  12.026   6.839  0.0030 -0.2766  0.1796
11291W        W12155   5.311  13.884   7.442 -0.2278 -0.3000  0.5811
11292W        W12156   2.806  12.167   6.886 -0.0691  0.1060 -0.0712
11293W        W12157   6.458   9.486   5.383  0.1223 -0.0982 -0.0484
11294W        W12158   4.614  12.296   4.304  0.0467 -0.0906  0.1009
11295W        W12159   5.392  11.698   6.251 -0.0647  0.1695 -0.1828
11296W        W12160   4.698   8.812   6.547 -0.1371  0.1667  0.0977
11297W        W12161   3.748  12.459   6.459  0.0759  0.0583 -0.4209
11298W        W12162   5.961  11.593  10.092  0.0473 -0.1033  0.0067
11299W        W12163   6.482  11.364   4.423  0.2321  0.1480 -0.1755
11300W        W12164   6.272  13.373   5.731  0.1900 -0.2356 -0.0069
11301W        W12165   4.753  12.378   7.883 -0.0230  0.1329  0.0308
11302W        W12166   7.873  13.764   4.349 -0.3006 -0.0076  0.0785
11303W        W12167   5.625   0.200   7.636 -0.0299  0.2064  0.0637
11304W        W12168   5.629   9.728   8.199  0.0833 -0.0280 -0.5997
11305W        W12169   3.311  13.143   5.293 -0.1435 -0.1627  0.2994
11306W        W12170   4.510  12.405   5.268  0.0819  0.1121  0.0150
11307W        W12171   6.391  11.763   4.695  0.0424 -0.3098  0.0745
11308W        W12172   5.149  13.773   0.672 -0.1578 -0.1602 -0.2724
11309W        W12173   8.327  11.124   9.129 -0.0259 -0.0941 -0.0429
11310W        W12174   7.475  13.376  10.527  0.0544 -0.0860 -0.0799
11311W        W12175   6.495  12.790  10.215  0.2941  0.0868  0.0910
11312W        W12176   5.220  12.554  10.520 -0.3541 -0.0356 -0.3175
11313W        W12177   5.065  10.791  10.585  0.4704 -0.0698 -0.2271
11314W        W12178   4.817  11.842   9.609  0.1506 -0.1300 -0.1474
11315W        W12179   3.919  11.454   8.708  0.1300  0.0480 -0.0615
11316W        W12180   5.816   9.665  10.903  0.2026 -0.0194  0.1470
11317W        W12181   7.345  11.560   9.216 -0.1290  0.0354  0.1672
11318W        W12182   2.663  11.545  11.703 -0.0982 -0.2060  0.0590
11319W        W12183   4.731   1.351  10.949  0.0813  0.1420 -0.1246
11320W        W12184   6.981  13.483   7.714 -0.0708 -0.1291 -0.2229
11321W        W12185   2.328  12.374   8.732  0.1180  0.1905 -0.0227
11322W        W12186   3.006  11.735  12.054  0.3012  0.2633  0.0299
11323W        W12187   8.173  10.749   9.451 -0.0465  0.1907  0.1419
11324W        W12188   7.835  12.091  10.184 -0.5427  0.1419  0.3174
11325W        W12189   6.919  12.641   7.245 -0.1418 -0.2076 -0.0936
11326W        W12190   9.539  13.287   9.994  0.0248 -0.5499 -0.0631
11327W        W12191   7.936  12.602  12.081  0.0268  0.5199 -0.1040
11328W        W12192   3.176   0.025  10.689  0.0086  0.0463  0.0735
11329W        W12193   3.911   0.522  11.694  0.0039  0.0553  0.3868
11330W        W12194   3.423  12.980  11.855 -0.3326  0.0988  0.2074
11331W        W12195   6.481  13.714   8.757  0.1577 -0.0465  0.2959
11332W        W12196   5.432  12.463  11.005  0.2664  0.0125  0.1406
11333W        W12197   5.277   0.418   8.078  0.1441  0.0428 -0.2907
11334W        W12198   7.262  12.993  13.283  0.0729 -0.0354  0.0485
11335W        W12199   4.239   2.766  13.754 -0.0893  0.1157  0.1928
11336W        W12200   4.750  12.942  11.215  0.1408  0.2882  0.1041
11337W        W12201   4.034  11.078  10.472  0.0033  0.2280 -0.2501
11338W        W12202   3.403   1.886  11.852 -0.3725 -0.0451  0.0693
11339W        W12203   4.733  10.347   7.612 -0.1365 -0.1975  0.1177
11340W        W12204   2.199   0.106   6.045 -0.1571 -0.2659 -0.1014
11341W        W12205   9.067  10.908   7.935  0.0074  0.0669  0.0806
11342W        W12206   8.534  12.379   8.529 -0.0549  0.0525 -0.4115
11343W        W12207   4.984  10.590   7.070  0.0940 -0.1958  0.0375
11344W        W12208   8.630  10.050  13.034  0.0823  0.0804  0.4720
11345W        W12209   7.135  13.372  11.558  0.0429  0.0592 -0.0695
11346W        W12210   6.507   7.049  10.537  0.0732 -0.2378 -0.1460
11347W        W12211   5.400   9.676  11.134 -0.1635  0.0389 -0.3098
11348W        W12212   8.092   1.648   9.010 -0.2025  0.1276  0.2393
11349W        W12213   7.938  12.858   7.376  0.4198 -0.2260  0.0655
11350W        W12214   6.916  11.449   8.171 -0.0193  0.4217  0.0113
11351W        W12215   5.931  12.318   8.857  0.0394 -0.0877 -0.1981
11352W        W12216   3.767  13.487  13.195  0.2967  0.0983  0.1141
11353W        W12217   4.888  12.829   8.136 -0.0393 -0.3355 -0.0264
11354W        W12218   5.788  12.436   8.121  0.1602  0.0750  0.1428
11355W        W12219   3.523   1.788   9.715  0.0261  0.3505 -0.0200
11356W        W12220   6.950  10.390   8.245 -0.0890 -0.0150  0.1862
11357W        W12221   5.651  11.839   8.078 -0.2120 -0.0747  0.1002
11358W        W12222   6.816  11.546   4.714  0.0403  0.1922 -0.2066
11359W        W12223   6.650  13.711  10.814  0.0828 -0.1709  0.1158
11360W        W12224   3.913  13.336  12.066 -0.1962  0.5456  0.1014
11361W        W12225   5.441  12.189   8.873 -0.1101  0.1288  0.0864
11362W        W12226   5.219  11.271   8.584  0.1016 -0.0174 -0.0015
11363W        W12227  10.830  11.507   7.598 -0.0664 -0.3560  0.2801
11364W        W12228   5.307  13.960   6.402  0.3651 -0.1435  0.2804
11365W        W12229   3.369  10.817   8.712  0.2501  0.0675  0.3753
11366W        W12230   4.913  13.361   9.276  0.0749 -0.3067  0.2086
11367W        W12231   6.588  11.121   8.327  0.0587  0.2256 -0.1743
11368W        W12232   8.115  10.350   6.767 -0.1222  0.2541  0.1146
11369W        W12233   9.535  11.613  13.189  0.0234 -0.1136  0.0787
11370W        W12234   6.809  12.086  11.079 -0.1505  0.1494  0.0824
11371W        W12235   4.385  11.858   8.747  0.1986  0.1434  0.1151
11372W        W12236   4.147  13.370  10.328  0.0556  0.0725  0.6885
11373W        W12237   7.274  13.610   9.160  0.0254 -0.1381 -0.1616
11374W        W12238   4.921  12.436   9.761  0.2725 -0.0839  0.0666
11375W        W12239   7.874  13.718  10.283  0.0231 -0.2735 -0.3278
11376W        W12240   4.567  12.123  12.977  0.4057 -0.1405  0.0906
11377W        W12241   6.121  12.474  10.156  0.2578 -0.0669  0.1109
11378W        W12242   8.370  11.178   9.688 -0.0289  0.2887  0.1554
11379W        W12243   5.265  11.222  10.276 -0.6625 -0.1431  0.0463
11380W        W12244   6.037   9.996   7.653 -0.0968  0.0801 -0.0698
11381W        W12245   6.320   0.119  10.736 -0.3864  0.1117 -0.1312
11382W        W12246   8.395  11.062   8.257 -0.1939 -0.2458 -0.1041
11383W        W12247   7.089   0.693  12.360  0.1099 -0.0790  0.1643
11384W        W12248   8.715  12.290  11.979 -0.0198  0.0567  0.0137
11385W        W12249   7.908  11.093   9.666 -0.0483 -0.1016 -0.2390
11386W        W12250   6.787   0.752  11.950 -0.0998 -0.1548 -0.0244
11387W        W12251   4.428  10.588   7.194 -0.0025 -0.2659  0.2054
11388W        W12252   6.679  13.644   9.924 -0.1131  0.2117  0.0789
11389W        W12253   8.524   0.088   8.786 -0.1072  0.2144 -0.1691
11390W        W12254   6.065   9.827  10.029 -0.1803  0.3154  0.0867
11391W        W12255   6.898   7.972   6.661  0.1070 -0.0276 -0.1069
11392W        W12256   9.520  11.935   7.855  0.3767 -0.1752  0.0182
11393W        W12257   8.334  11.114   7.730 -0.1310 -0.0020  0.0820
11394W        W12258   4.815   1.008  12.346  0.1722  0.3616  0.1034
11395W        W12259   8.488   8.150   8.191 -0.0985 -0.1197  0.1129
11396W        W12260   9.430  10.772   8.560  0.0953 -0.0566  0.3622
11397W        W12261   7.718  13.335   9.639  0.1748  0.2368  0.0403
11398W        W12262   6.691   0.382   6.462  0.1409 -0.1523  0.0279
11399W        W12263   5.765  10.490   9.457  0.0861 -0.3290  0.3189
11400W        W12264   4.530  13.198   9.016 -0.0932 -0.1725  0.1512
11401W        W12265   4.860   1.048  10.548 -0.0805  0.2652  0.1529
11402W        W12266   6.510  12.591   9.718  0.3062  0.0510 -0.1474
11403W        W12267   8.145  12.596   6.145 -0.4388 -0.3127 -0.0941
11404W        W12268   6.202  12.896   8.237 -0.0068 -0.2167 -0.0667
11405W        W12269   9.636  12.892   8.308 -0.0342  0.1684 -0.0346
11406W        W12270   4.969  12.405  11.125 -0.2451  0.1164 -0.0073
11407W        W12271   5.673  10.109  11.076  0.2611 -0.2800  0.0947
11408W        W12272   6.758  12.107   7.383 -0.1483  0.2351 -0.0888
11409W        W12273   7.509   0.659   6.119  0.3193 -0.1829  0.0615
11410W        W12274   4.724  10.665   4.248  0.2770  0.2163  0.1383
11411W        W12275   5.446  10.698   7.431 -0.3439 -0.0408  0.2708
11412W        W12276   5.719  12.914   8.921 -0.3976  0.0067 -0.2953
11413W        W12277   4.714  13.445  11.273  0.1049 -0.3191 -0.0694
11414W        W12278   7.174  11.562   9.824  0.4485 -0.0864 -0.0805
11415W        W12279   5.600  12.504  10.187 -0.0146 -0.2054 -0.0856
11416W        W12280   5.189  12.142  10.163 -0.3025 -0.0317 -0.1296
11417W        W12281   9.920  13.800   7.812  0.0811  0.1745  0.1526
11418W        W12282   6.681  12.257   7.933  0.0133 -0.0537 -0.2687
11419W        W12283   3.867  12.513  10.013  0.2435 -0.0242 -0.0091
11420W        W12284   6.313  11.466   6.921 -0.1232  0.0462  0.1341
11421W        W12285   8.297  11.715  11.327 -0.1030  0.0759  0.0739
11422W        W12286   6.106  11.400   9.108 -0.1500 -0.1312  0.2215
11423W        W12287   6.878  11.395   5.986  0.1869  0.2942  0.0279
11424W        W12288   6.943  10.704   8.644 -0.0506 -0.1643 -0.0022
11425W        W12289   5.855  11.838   8.874 -0.1579 -0.0113  0.1525
11426W        W12290   2.607   0.323  10.658  0.0801 -0.0480 -0.0252
11427W        W12291   6.791  11.152   9.572  0.0580 -0.0662  0.0063
11428W        W12292   8.078  13.714   8.768 -0.0588  0.2238 -0.0359
11429W        W12293   5.504  13.926  11.551 -0.0016 -0.3793  0.1442
11430W        W12294   6.714   0.033   8.411 -0.1100 -0.0371  0.0686
11431W        W12295   6.483  10.887   7.493 -0.0832 -0.1488  0.0471
11432W        W12296   4.008  12.017  10.331 -0.0401 -0.4050 -0.0435
11433W        W12297   6.315   9.172   6.311  0.0606  0.1541  0.2919
11434W        W12298   4.542  11.677  10.487  0.1492 -0.0350 -0.1702
11435W        W12299   6.872  11.364   9.127 -0.5009 -0.0052  0.5204
11436W        W12300   3.457  10.261  10.911  0.2113 -0.2517 -0.0584
11437W        W12301   5.063  13.465   7.424  0.3504 -0.2328 -0.2204
11438W        W12302   5.974  10.737   6.051  0.2092 -0.0939  0.1329
11439W        W12303   5.155  12.009   7.998  0.2124 -0.1073  0.0233
11440W        W12304   7.768   9.595   8.975 -0.2247  0.2186  0.0907
11441W        W12305   5.670  12.920  11.114 -0.1887 -0.2869 -0.1415
11442W        W12306   5.319  13.801   9.124  0.1993 -0.2632 -0.0180
11443W        W12307   9.111  12.215  11.104  0.0189  0.0112 -0.3308
11444W        W12308   6.774  13.789  12.961  0.1725 -0.0378  0.1388
11445W        W12309   5.404  11.305   7.175 -0.0715 -0.2710  0.2944
11446W        W12310   4.399  12.290  11.670  0.0979  0.3457  0.4277
11447W        W12311   7.364  13.070  12.753 -0.0160  0.2083 -0.0321
11448W        W12312   5.501  12.540   7.241  0.0019 -0.0445  0.1897
11449W        W12313   6.899  10.211  11.758 -0.3313 -0.2055 -0.0510
11450W        W12314   8.045  11.041  10.132 -0.0812  0.3473  0.0072
11451W        W12315   3.316  12.030  10.615  0.1656 -0.2409 -0.1464
11452W        W12316   7.527  13.837   9.545  0.0356  0.0294 -0.0776
11453W        W12317   8.742  10.504  10.539 -0.0429  0.0809 -0.3389
11454W        W12318   6.821   8.832   7.020  0.0051 -0.0628  0.0407
11455W        W12319   5.214   0.835   6.587  0.0813 -0.0412  0.2555
11456W        W12320   3.487  10.086   8.577  0.2969 -0.0860  0.0269
11457W        W12321   6.129  12.977   7.624 -0.0466 -0.1773 -0.0452
11458W        W12322   7.240  13.211   6.083  0.2567 -0.2668 -0.0017
11459W        W12323   6.742  11.192   6.571 -0.3261  0.0558 -0.3959
11460W        W12324   5.721  12.736  12.359 -0.1563 -0.4413 -0.3301
11461W        W12325   6.250  10.662   6.952  0.1073  0.4385  0.0840
11462W        W12326   5.435  11.742  10.227  0.0103  0.0723  0.0993
11463W        W12327   7.758   9.731   7.293 -0.4402 -0.0368  0.2213
11464W        W12328   4.091   9.610   7.442  0.0192  0.3058  0.1799
11465W        W12329   5.481  10.462   6.868 -0.0735 -0.0372  0.0105
11466W        W12330   3.211  12.264   9.308  0.0291 -0.2853  0.0797
11467W        W12331   2.694  11.689   7.126  0.3641 -0.1928  0.4264
11468W        W12332   4.566   0.466   9.708  0.0644 -0.2735  0.0529
11469W        W12333   3.419  10.576   8.289  0.2403  0.0712 -0.1040
11470W        W12334   6.224  10.752  11.891  0.1256 -0.1673 -0.1769
11471W        W12335   6.302   9.382  10.979  0.3237  0.3157  0.1656
11472W        W12336   6.455  10.096   7.908 -0.1688  0.2107  0.1980
11473W        W12337   8.475   9.969   4.894  0.3674  0.0443 -0.0491
11474W        W12338   4.929   9.427   7.654 -0.1570 -0.1402  0.0487
11475W        W12339   5.459  11.009  10.743  0.2001 -0.0926  0.1331
11476W        W12340   6.356  10.496   9.282 -0.1925 -0.1191 -0.2734
11477W        W12341   5.818  11.138   8.115  0.1951  0.1492 -0.0984
11478W        W12342   5.850  12.389   9.733  0.1220  0.4408  0.0700
11479W        W12343   7.792  11.199   6.979  0.1514 -0.1139 -0.1515
11480W        W12344   5.612  11.323   8.934 -0.0582  0.0630  0.1406
11481W        W12345   8.744  13.476  10.403 -0.3782  0.1686 -0.3555
11482W        W12346   7.918  13.440  10.863  0.0073 -0.0169  0.1220
11483W        W12347   6.043  10.075   9.516 -0.1495  0.1642  0.1602
11484W        W12348   6.135   9.399   8.348 -0.2612  0.1653 -0.1929
11485W        W12349   5.443   1.298  11.669  0.2292  0.2222  0.1884
11486W        W12350   4.407  11.290   8.912  0.2224 -0.1751  0.5199
11487W        W12351   8.054  11.535   9.463  0.0199  0.1397 -0.2042
11488W        W12352   8.102  12.051  11.001  0.1675 -0.0650 -0.0851
11489W        W12353   4.686  12.103  10.158  0.3419  0.0445  0.3374
11490W        W12354   8.216  12.362   6.624  0.2641  0.1480 -0.0004
11491W        W12355   9.777  11.563  10.572 -0.4512 -0.2442  0.1813
11492W        W12356   6.824  12.009   9.057  0.0710  0.1292 -0.0635
11493W        W12357   5.787  11.455  12.935  0.1406 -0.5140  0.0670
11494W        W12358   7.426   8.496   9.958 -0.0018  0.0979  0.0935
11495W        W12359  10.399   9.051   9.936 -0.0475 -0.1998 -0.0373
11496W        W12360   5.275   9.479   9.166 -0.0131  0.1193  0.1959
11497W        W12361   5.323   0.152   5.880 -0.1244 -0.3682 -0.2254
11498W        W12362   4.417  10.367  11.378 -0.0048 -0.1873  0.2124
11499W        W12363   6.636   0.164   9.942  0.1225  0.4733  0.0359
11500W        W12364   7.476  12.379  11.178 -0.1263  0.0228 -0.2389
11501W        W12365   4.863  11.569  12.191 -0.1065  0.0197  0.0763
11502W        W12366   5.177  12.153  11.488  0.2848 -0.1623 -0.6485
11503W        W12367   5.423  13.467  11.932 -0.2472 -0.1432 -0.0677
11504W        W12368   7.905  12.688   8.489  0.2485  0.0026  0.0453
11505W        W12369   8.212  11.322   7.212 -0.1058 -0.2540  0.1300
11506W        W12370   4.111   7.728   6.940 -0.2812 -0.0028 -0.2993
11507W        W12371   6.644   8.737   6.313  0.1445 -0.0999  0.1270
11508W        W12372   5.738  12.109   9.273 -0.0966  0.2548  0.0007
11509W        W12373   9.110   0.018   9.894  0.1923  0.0205 -0.0188
11510W        W12374   5.762  12.001   4.058  0.2533 -0.1211 -0.0430
11511W        W12375   3.659  10.733  11.291  0.0270 -0.1848  0.1651
11512W        W12376   3.166  11.971   9.778  0.0406  0.0278  0.0986
11513W        W12377   5.605  11.610   9.350 -0.0108 -0.1647  0.0891
11514W        W12378   5.399  12.024   9.743 -0.4306 -0.2887 -0.1203
11515W        W12379   3.606  12.711   6.849 -0.0897 -0.0048 -0.0700
11516W        W12380   8.291  13.459  10.048  0.2156  0.0104 -0.1256
11517W        W12381   3.375  10.918  13.105 -0.1406  0.0307 -0.0001
11518W        W12382   4.656  10.659  10.308  0.1615  0.1056  0.0001
11519W        W12383   4.140   1.035  11.763 -0.1898  0.0975 -0.0349
11520W        W12384   5.975  12.442  11.141  0.0095 -0.3762 -0.0472
11521W        W12385   6.586  12.495   9.128  0.1426 -0.2258  0.2033
11522W        W12386   4.382  11.769   6.828 -0.2709 -0.1795  0.2095
11523W        W12387   6.997  10.086  10.569  0.0326 -0.0100  0.0856
11524W        W12388   7.123   0.099   6.450  0.2761  0.0230  0.1681
11525W        W12389  10.166  11.587   7.281 -0.1956  0.2030  0.0600
11526W        W12390   4.962  13.430  10.809 -0.1402  0.0830  0.2696
11527W        W12391   7.130  12.560  12.148 -0.1616 -0.2360 -0.1112
11528W        W12392   7.323  12.581   9.535  0.1293 -0.1089 -0.1169
11529W        W12393   6.787   8.130   8.568 -0.0501  0.0115 -0.2232
11530W        W12394   4.135  12.139   6.181 -0.0544  0.1387 -0.0313
11531W        W12395   7.287  13.944   5.499 -0.5238 -0.0017 -0.1092
11532W        W12396   3.482  12.063  12.162 -0.2464  0.0916  0.0841
11533W        W12397   9.343  13.033   7.476 -0.0249  0.0433  0.0823
11534W        W12398   5.958   0.311   7.169 -0.0045 -0.0385  0.0029
11535W        W12399   7.313  12.395  10.309  0.0427  0.1400 -0.0798
11536W        W12400   7.422   0.423   9.610 -0.1646  0.3113 -0.0142
11537W        W12401   8.058  10.720  12.189  0.0745 -0.0435 -0.0409
11538W        W12402   2.315  11.971  13.025  0.0194 -0.1069  0.0147
11539W        W12403   6.110  12.438   7.516  0.3324  0.1445  0.1252
11540W        W12404   6.776  11.756   7.775  0.0027  0.1025 -0.1315
11541W        W12405   2.278  13.759  11.286 -0.1712  0.3126 -0.1582
11542W        W12406   4.202  12.006   9.848  0.3686 -0.0536 -0.0192
11543W        W12407   5.986  10.346  10.000 -0.0003  0.1083 -0.1443
11544W        W12408   6.113   9.825   7.199 -0.1544 -0.0260 -0.0352
11545W        W12409   9.708  12.415   7.171  0.1500  0.2002  0.0474
11546W        W12410  10.005  13.339  11.800 -0.1734  0.0325  0.3571
11547W        W12411   7.152  11.778   7.389 -0.1128 -0.4057 -0.1290
11548W        W12412   4.389  12.768  13.448  0.0592  0.1398  0.0041
11549W        W12413   7.568  10.698   8.229 -0.0081  0.0629  0.0336
11550W        W12414   8.974  13.825   8.860 -0.0728  0.1387 -0.0339
11551W        W12415   8.189  13.306   9.271  0.1767  0.0967 -0.1158
11552W        W12416   9.370  11.820   5.835 -0.0404  0.1830 -0.0107
11553W        W12417   9.112  13.039  11.216 -0.1246  0.1360  0.3802
11554W        W12418   6.554  11.933   6.891 -0.2446 -0.1298  0.0287
11555W        W12419   4.986   0.712   9.622  0.1073  0.2661 -0.0081
11556W        W12420   6.556  13.009   8.501 -0.2096 -0.0073 -0.0434
11557W        W12421   6.625  11.035  10.188  0.0893 -0.0507 -0.0647
11558W        W12422   8.951  12.049   8.548  0.1953 -0.1926  0.2075
11559W        W12423   8.197  12.007   9.236  0.0419 -0.1349 -0.2499
11560W        W12424   4.876   1.114   9.132  0.1135  0.2748 -0.0832
11561W        W12425   5.286  12.943  12.001  0.2108 -0.1237 -0.3019
11562W        W12426   5.235  12.021  11.017 -0.0510 -0.1941 -0.1441
11563W        W12427   7.074  10.897   8.100  0.0434 -0.1254 -0.1139
11564W        W12428   5.039  11.623   7.348  0.3923  0.0154  0.0812
11565W        W12429   5.756  12.651  10.658  0.1437 -0.0732  0.0758
11566W        W12430   7.031  12.251   6.984  0.3722 -0.1354 -0.3432
11567W        W12431   5.949  12.638   9.294 -0.2689 -0.0753 -0.1175
11568W        W12432   4.478  11.247  10.290 -0.3100  0.0118  0.1552
11569W        W12433   7.901  11.000   7.459 -0.0817 -0.2165 -0.0795
11570W        W12434   3.690  12.033  11.561 -0.0412 -0.0672 -0.3104
11571W        W12435   2.417  10.845   8.898 -0.0236 -0.0604  0.1597
11572W        W12436   5.766   1.264   9.272  0.0109 -0.2230 -0.0180
11573W        W12437   3.690  12.193   9.479  0.0819  0.2668  0.1953
11574W        W12438   6.359  13.472  13.002  0.1270  0.1571  0.0493
11575W        W12439   4.017  11.775   8.363 -0.3303 -0.2135 -0.0600
11576W        W12440   6.875   9.059   8.773 -0.1149  0.0656  0.1399
11577W        W12441   6.055  14.000   9.760  0.2570 -0.1187  0.0880
11578W        W12442   6.590  13.068   9.830  0.1461  0.0034 -0.0634
11579W        W12443   6.690  13.006  11.602 -0.2894  0.1345 -0.0179
11580W        W12444   7.575  11.776   7.102  0.1076 -0.0674 -0.0234
11581W        W12445   5.034  13.160   7.791  0.0345 -0.2221  0.0249
11582W        W12446   4.547  13.420   7.456 -0.1701 -0.0040 -0.0179
11583W        W12447   7.269  10.103   9.516 -0.2863  0.0065  0.0421
11584W        W12448   7.831  11.968   8.617  0.1123 -0.2731 -0.0473
11585W        W12449   6.363  12.945   9.374 -0.1128  0.0286 -0.2235
11586W        W12450   5.422  13.527  10.622 -0.1096  0.0531  0.2664
11587W        W12451   6.176  13.097  11.611  0.2000  0.0356  0.2879
11588W        W12452   8.912   9.756   7.668 -0.1302  0.1300  0.0732
11589W        W12453   8.686  10.850   9.317 -0.2295 -0.2648  0.0297
11590W        W12454   8.759  12.113  10.248 -0.0500  0.0622 -0.1588
11591W        W12455   6.701  13.287  13.356  0.0633  0.0149 -0.0928
11592W        W12456   5.314  12.791   6.843  0.2831  0.1336 -0.0492
11593W        W12457   5.600  10.953   8.525 -0.4585  0.2299 -0.1397
11594W        W12458   6.255  11.978   7.846 -0.2225  0.3660 -0.0693
11595W        W12459   6.849   1.419   9.211  0.0220 -0.1503 -0.0966
11596W        W12460   6.134  10.100  10.980 -0.0831 -0.0844 -0.2663
11597W        W12461   3.997   9.202   8.890  0.1293  0.0566 -0.1172
11598W        W12462   7.287  12.001   9.434  0.1429  0.3432  0.1791
11599W        W12463   2.599  13.177   9.449  0.1131  0.2991  0.1898
11600W        W12464   3.721  12.357   7.919  0.0780 -0.3367 -0.3133
11601W        W12465   5.996  11.839   9.642  0.0340  0.0374 -0.1253
11602W        W12466   4.594  13.431   9.994 -0.1994 -0.2233  0.0124
11603W        W12467   7.287  11.890   8.856 -0.0937 -0.0008 -0.0042
11604W        W12468   6.749  10.625   7.839  0.0470 -0.0736 -0.2980
11605W        W12469   9.164   0.260   6.161  0.0506  0.2224 -0.3810
11606W        W12470   6.440   9.948   9.196  0.1386  0.1438 -0.4784
11607W        W12471   2.845   0.527  11.398  0.4494 -0.3349 -0.1355
11608W        W12472   6.546   9.396   7.122  0.0032  0.2197  0.1827
11609W        W12473   6.883  11.560  12.658 -0.1718 -0.0630  0.0272
11610W        W12474   4.289  11.579   9.314  0.3192 -0.0717 -0.1708
11611W        W12475   5.104  10.371   9.082 -0.0708  0.2813 -0.0182
11612W        W12476   4.783  10.065   7.206 -0.0129  0.0722 -0.2195
11613W        W12477   9.184  13.653  11.392 -0.0939  0.0660 -0.0345
11614W        W12478   4.609  12.198   6.470  0.1455  0.1132 -0.2339
11615W        W12479   4.771  10.818   9.297  0.0624 -0.2044  0.2726
11616W        W12480   7.193   0.066   8.897 -0.0315  0.3010  0.1542
11617W        W12481   8.075   0.386   7.553 -0.0789 -0.0650  0.2397
11618W        W12482   5.919  11.488   7.822 -0.0988 -0.0935  0.2046
11619W        W12483   8.400  12.581   9.002  0.1592  0.2123 -0.1774
11620W        W12484   7.562  12.892   9.896  0.3005 -0.1063  0.0461
11621W        W12485   7.391  12.740   7.343  0.1885 -0.1641  0.1129
11622W        W12486   4.795  11.569   8.707  0.0821  0.1689 -0.0711
11623W        W12487   9.789  14.013  10.712  0.0437 -0.3619  0.3605
11624W        W12488   9.328   0.426   7.150  0.1425  0.3177 -0.2032
11625W        W12489   4.492  11.541   9.844  0.2114  0.0148 -0.1230
11626W        W12490   4.439  13.265  11.713 -0.4038  0.1106 -0.0404
11627W        W12491  10.260   9.786   9.009 -0.2950  0.0161  0.4113
11628W        W12492   5.475   9.483   8.677 -0.1679 -0.1960 -0.0752
11629W        W12493   7.905  13.728   9.230  0.2996 -0.5277 -0.1275
11630W        W12494   6.352   0.841   6.550  0.1412 -0.1061  0.2651
11631W        W12495   4.887  10.490  10.945  0.2122 -0.0292 -0.3462
11632W        W12496   6.741  13.558   8.222  0.0792  0.1335 -0.2861
11633W        W12497   6.373   9.665   8.781 -0.0667  0.0648  0.0944
11634W        W12498   6.448  13.474   9.528  0.3877  0.4521 -0.0465
11635W        W12499   5.371  13.909   9.905  0.0918  0.0677 -0.0642
11636W        W12500   4.548  13.993   9.742  0.1459  0.1524  0.4692
11637W        W12501   3.040  10.433  11.817  0.1397  0.1643 -0.2244
11638W        W12502   5.634  13.404   8.910  0.4885  0.0006 -0.1311
11639W        W12503   5.385   9.922   8.887  0.1298  0.0551 -0.0762
11640W        W12504   6.246  13.276  10.232  0.1453 -0.2597 -0.0213
11641W        W12505   4.781  12.594  10.305  0.0445 -0.1485 -0.1899
11642W        W12506   5.870  11.775  10.584  0.1138 -0.1707  0.4535
11643W        W12507   1.988  11.757   7.517  0.1150  0.0528 -0.5675
11644W        W12508   6.079   0.818   2.237  0.0512 -0.2490  0.4296
11645W        W12509   4.053  12.911  10.625 -0.2181  0.1628 -0.0805
11646W        W12510   7.614   0.864  13.120 -0.0035  0.1344  0.1927
11647W        W12511   6.170  12.702  11.918 -0.0734 -0.0225  0.1245
11648W        W12512   6.271  12.408   1.406 -0.2280 -0.1661 -0.0193
11649W        W12513   7.223   9.263  13.235  0.0800 -0.0732  0.1290
11650W        W12514   5.759  11.470  13.634  0.3556 -0.0231 -0.1095
11651W        W12515   4.230  11.714  13.198 -0.0239  0.2484 -0.0888
11652W        W12516   6.660   0.605  13.338  0.0067  0.2120 -0.2549
11653W        W12517   5.054  11.565   1.272  0.0464 -0.0724  0.0118
11654W        W12518   8.825  13.867  12.983  0.0189 -0.1318 -0.0933
11655W        W12519  10.059   0.328  11.099 -0.3180  0.1125 -0.1168
11656W        W12520   4.995  11.253  13.668  0.3388 -0.1128  0.3556
11657W        W12521   5.506   1.707   0.282 -0.2055 -0.0984 -0.1163
11658W        W12522   5.643  13.085   0.227  0.1401 -0.0096 -0.0608
11659W        W12523   3.394  11.914   0.424 -0.0561  0.0698  0.0048
11660W        W12524   4.520  13.942   1.668 -0.0125 -0.2856 -0.2438
11661W        W12525   4.288   0.766   0.024  0.0530  0.1134  0.0303
11662W        W12526   5.441   2.531   2.267 -0.2030 -0.2868  0.0701
11663W        W12527   5.341  13.372   1.583  0.0536  0.0830 -0.1278
11664W        W12528   6.613   0.101   1.897  0.0507 -0.1769  0.4087
11665W        W12529   6.715  12.550  11.854 -0.0312  0.0542  0.1934
11666W        W12530   5.710   1.532  13.846 -0.4936 -0.0402 -0.0895
11667W        W12531   7.340   0.952  10.924 -0.0513 -0.1833  0.0164
11668W        W12532   8.673  11.067  13.636  0.1520  0.0089  0.0920
11669W        W12533   8.295  12.455   9.476 -0.1433  0.2279 -0.1259
11670W        W12534   9.197  11.086   0.881 -0.0923 -0.0559 -0.2837
11671W        W12535   7.186  10.798  12.636 -0.0295 -0.2007  0.1556
11672W        W12536   4.773  10.608  13.313 -0.0616 -0.0464  0.0720
11673W        W12537   4.735   9.830   0.244 -0.1001 -0.2204  0.0615
11674W        W12538   6.924  11.689   1.390  0.1905  0.3247  0.3995
11675W        W12539   6.187   0.346  11.860 -0.0808  0.0104 -0.1819
11676W        W12540   4.145   1.371  13.094  0.2561  0.3352 -0.3529
11677W        W12541   7.651  11.697   1.565 -0.1448 -0.1521 -0.2088
11678W        W12542   7.083  13.562  11.070  0.3182  0.1802  0.2883
11679W        W12543   5.313  12.370  12.746  0.3509  0.0971 -0.0933
11680W        W12544   7.532  12.287  12.358  0.1175 -0.2417 -0.1096
11681W        W12545   5.108  12.618  12.294  0.0507 -0.1550  0.1705
11682W        W12546   3.024   9.855  12.312  0.1405  0.2036  0.0116
11683W        W12547   6.915  11.047  13.414 -0.1780 -0.2116  0.1704
11684W        W12548   6.495  13.487  12.397  0.2975 -0.2586 -0.0873
11685W        W12549   3.001   0.414   0.077  0.0441  0.0890 -0.0515
11686W        W12550   7.827   0.906  12.199  0.0025  0.0899 -0.1620
11687W        W12551   7.064  13.580   1.548  0.0607 -0.0190  0.3307
11688W        W12552   6.481  11.343  12.791  0.1507 -0.1009 -0.1064
11689W        W12553   7.967  13.551   0.630  0.4212  0.1176  0.1501
11690W        W12554   4.708  11.890  11.793  0.0067 -0.2283 -0.2043
11691W        W12555   3.918  12.137  13.047 -0.0649  0.1301 -0.3634
11692W        W12556   3.437  12.933  13.249  0.1518  0.2449 -0.0890
11693W        W12557   6.726   0.157  13.621  0.0469 -0.0290  0.4354
11694W        W12558   6.849  12.498  11.333  0.1529  0.0507 -0.0253
11695W        W12559   6.705  11.246   0.589  0.0933  0.0338 -0.3089
11696W        W12560   4.102  11.254   0.130 -0.0280  0.1417  0.0188
11697W        W12561   1.231  10.628  12.037 -0.0628  0.0319  0.2084
11698W        W12562   5.214  13.256  13.764  0.3067  0.3049 -0.4041
11699W        W12563   6.510  11.526  12.321 -0.1134 -0.1768  0.3492
11700W        W12564   8.623  12.526  10.362  0.1594 -0.2138 -0.3494
11701W        W12565   5.147  13.861  11.923 -0.1710  0.1717 -0.1769
11702W        W12566   5.117  13.955   1.145  0.0519 -0.6583  0.0915
11703W        W12567   6.075  11.507  12.515 -0.0099 -0.0266  0.0261
11704W        W12568   5.437  12.477   9.515  0.0406  0.3622 -0.0199
11705W        W12569   9.257  11.999  13.103 -0.1454  0.2887 -0.1062
11706W        W12570   7.064  13.848  13.384  0.1437 -0.0839 -0.1419
11707W        W12571   6.171  13.230  11.163 -0.0602 -0.0319  0.1780
11708W        W12572   7.470  13.255  10.992 -0.2426 -0.1699 -0.1144
11709W        W12573   7.156  12.065  11.439 -0.0653  0.2671 -0.1272
11710W        W12574   3.071  10.903  11.444 -0.0857 -0.0806 -0.0293
11711W        W12575   7.990  10.030   0.140 -0.1131  0.1477 -0.0757
11712W        W12576   9.821   1.649  11.586  0.2136 -0.3702 -0.1674
11713W        W12577   4.776   1.568  12.993 -0.0952 -0.1391  0.0954
11714W        W12578   5.101  10.300  10.356  0.1023 -0.1519 -0.5931
11715W        W12579  11.608  10.641   0.876 -0.2451  0.1477 -0.0907
11716W        W12580   3.905  13.018  12.945  0.2942 -0.1488 -0.2290
11717W        W12581   3.684   0.035  12.807  0.0190  0.0362 -0.1955
11718W        W12582   7.096  10.353  12.414 -0.1616 -0.1299 -0.1916
11719W        W12583   3.363  12.623  13.700 -0.0235  0.0322 -0.1544
11720W        W12584   6.001   0.331  13.100  0.4138  0.3997  0.0997
11721W        W12585   7.551  12.952   1.266  0.0474 -0.0191  0.1773
11722W        W12586  10.352  12.901  11.117 -0.0144 -0.3645 -0.1058
11723W        W12587   4.982   1.037   0.246 -0.2331 -0.2603  0.0391
11724W        W12588   7.268  12.497   1.235 -0.5047 -0.0711  0.1166
11725W        W12589   6.706  12.855   0.356 -0.0521 -0.3610  0.0008
11726W        W12590   6.397   9.678  12.229  0.3865 -0.0997  0.1641
11727W        W12591   7.165  11.714  13.863 -0.1723 -0.3960  0.0879
11728W        W12592   5.953   9.945  12.097 -0.0957 -0.1570  0.2982
11729W        W12593   6.233  13.982  12.210 -0.0708 -0.0769 -0.3715
11730W        W12594   6.857  11.483  13.132 -0.1121 -0.0015  0.0625
11731W        W12595   7.246  13.765  11.884  0.1315 -0.1081  0.1150
11732W        W12596   6.506  11.854  12.758 -0.1694  0.0938  0.1919
11733W        W12597   5.267  13.859  13.300 -0.1290 -0.0298 -0.0262
11734W        W12598   7.087  10.732   1.595 -0.0715  0.0329 -0.0346
11735W        W12599   3.098   1.828  13.223  0.0414 -0.2359 -0.2073
11736W        W12600   7.596  12.520   1.704 -0.0146 -0.2619  0.0552
11737W        W12601   7.411  10.758   0.044 -0.5392 -0.1357  0.0702
11738W        W12602   8.002  13.609   2.438 -0.0866  0.1571  0.1815
11739W        W12603   6.326   2.013   1.247  0.0245  0.0065  0.0797
11740W        W12604   5.175  12.601   1.363  0.2843 -0.1471  0.0827
11741W        W12605   4.497  12.795   0.621  0.0094 -0.0666 -0.0654
11742W        W12606   1.564  10.737  13.389 -0.0476  0.0430  0.1995
11743W        W12607   3.539  11.062  12.678 -0.2605  0.2088  0.0551
11744W        W12608   3.446  11.956  13.018  0.0385  0.0177  0.0883
11745W        W12609   4.743  12.297   0.774 -0.3290  0.1058 -0.0905
11746W        W12610   6.435   1.327  13.083 -0.1192  0.0599  0.0777
11747W        W12611   5.924   9.997  13.999 -0.2138 -0.1615 -0.1332
11748W        W12612   4.638  12.050  13.467  0.0635 -0.4723 -0.4974
11749W        W12613   8.438  10.287   2.510 -0.1904 -0.1433 -0.0723
11750W        W12614   5.301  10.665  12.414  0.2040  0.1711 -0.0840
11751W        W12615   6.328   1.595   1.516 -0.0261  0.1813 -0.1732
11752W        W12616   4.199  12.935  12.445  0.0873 -0.0048  0.0399
11753W        W12617   7.185  13.011   0.346  0.0785  0.1503  0.2347
11754W        W12618   6.607  10.633  13.385  0.1470 -0.0685  0.3418
11755W        W12619   4.611  13.876  13.181 -0.2276 -0.2838 -0.1073
11756W        W12620   8.112  12.765  12.523  0.0717  0.0144 -0.1616
11757W        W12621   6.118  10.772  10.238 -0.1614  0.0231 -0.0801
11758W        W12622   5.005  10.999  11.067 -0.1505  0.1095 -0.1036
11759W        W12623   5.762  11.129  12.586 -0.2701  0.1439  0.0223
11760W        W12624   3.079  13.926   0.919  0.1424 -0.1037  0.1178
11761W        W12625   3.786  11.591  13.043  0.3695 -0.2845 -0.1975
11762W        W12626   5.338  12.717  13.629  0.2788 -0.1397  0.1199
11763W        W12627   6.177  13.199  13.439 -0.1464  0.2740  0.0566
11764W        W12628   7.220  12.005   0.317 -0.2063 -0.0015 -0.3716
11765W        W12629   7.810   0.379   0.904 -0.1686  0.1346 -0.1010
11766W        W12630   5.488  12.442   0.021 -0.1664  0.1909  0.1722
11767W        W12631   5.903  13.528  12.136 -0.0094  0.0560  0.0567
11768W        W12632   6.497  10.414  12.100 -0.4371  0.1473  0.2337
11769W        W12633   1.688   1.589  13.891  0.3424  0.1834  0.2909
11770W        W12634   7.786  12.313  13.213  0.0010  0.1725  0.3534
11771W        W12635   4.901   1.537   0.060  0.0458 -0.0755 -0.0671
11772W        W12636   7.034  12.976  12.377 -0.1281  0.1550 -0.0764
11773W        W12637   6.200   0.696  12.838  0.0107 -0.0336  0.1879
11774W        W12638   2.332  12.504  13.609  0.1292 -0.1183  0.2431
11775W        W12639   6.199  11.892  11.309  0.1200 -0.0904 -0.2182
11776W        W12640   7.518  11.626   0.270  0.1481  0.2798  0.0386
11777W        W12641   2.050  12.146  11.012 -0.1069 -0.0472 -0.1992
11778W        W12642   6.862  13.760   1.030 -0.3188 -0.0100  0.0521
11779W        W12643   2.397  12.288  12.671  0.1531 -0.1691  0.1024
11780W        W12644   5.534   0.235  13.308 -0.1535 -0.0217  0.0934
11781W        W12645   1.855  10.987  12.532  0.0315  0.1267 -0.1405
11782W        W12646   6.385   9.180  11.987  0.0785 -0.0651 -0.0336
11783W        W12647   6.334  12.778  11.226 -0.2298  0.3576  0.1854
11784W        W12648   3.117  12.393  11.939 -0.3098 -0.0209 -0.0481
11785W        W12649   0.802  11.692   0.162  0.2335  0.5236  0.2533
11786W        W12650   3.587  13.029  11.336 -0.0030 -0.1758  0.1012
11787W        W12651   3.361  11.351  11.943  0.1801 -0.0292 -0.3396
11788W        W12652   6.049  12.876  12.806 -0.0083 -0.3020  0.1784
11789W        W12653   7.841   8.819  13.820  0.1327  0.0066  0.0275
11790W        W12654   8.645  13.247  13.928 -0.1545 -0.1795  0.2180
11791W        W12655   3.032  13.934  13.623 -0.0252 -0.0252 -0.2563
11792W        W12656   4.407  12.080   9.415  0.0890  0.0310  0.0177
11793W        W12657   7.811  12.153   1.352  0.0602 -0.1614  0.1206
11794W        W12658   3.253  10.605  10.537  0.0084 -0.0199 -0.4151
11795W        W12659   6.836   0.618  13.815  0.1922 -0.2027 -0.0976
11796W        W12660   5.746  13.690   1.588  0.0850 -0.3055  0.4665
11797W        W12661   5.720  12.328  13.453  0.2896  0.1758  0.0241
11798W        W12662  10.709  11.223  11.680  0.1351 -0.2242 -0.1802
11799W        W12663   5.789  13.046  12.005 -0.1440  0.1337 -0.0087
11800W        W12664   5.246   0.321   0.686 -0.1293 -0.0420  0.0595
11801W        W12665   7.627  12.637   0.799  0.0306 -0.3532  0.2750
11802W        W12666   4.536   8.585  11.527 -0.0294 -0.0654 -0.0048
11803W        W12667   6.891  12.250  12.560 -0.0521 -0.1696  0.0145
11804W        W12668   4.137  13.626   1.454 -0.0724 -0.2252  0.0937
11805W        W12669   7.030  11.601   1.874 -0.0436 -0.2679 -0.3387
11806W        W12670   7.429  11.188   0.328  0.3045 -0.1533 -0.1045
11807W        W12671   6.977  13.316   0.790 -0.1059  0.0243  0.2257
11808W        W12672   2.005  12.921  13.422 -0.1723 -0.0270 -0.1411
11809W        W12673   6.040  12.261  10.651  0.1779  0.1689 -0.0259
11810W        W12674   7.868  12.106   1.858  0.0909 -0.2837 -0.0532
11811W        W12675   8.410  12.608   0.865 -0.2852  0.1215 -0.3920
11812W        W12676   7.200  12.196   0.793  0.2395 -0.1504  0.2072
11813W        W12677   6.568   0.828   1.372 -0.1748 -0.1326  0.1994
11814W        W12678   4.824   0.305   1.343  0.0001 -0.0944  0.1464
11815W        W12679   3.332   2.125   0.012  0.1360 -0.2520  0.2638
11816W        W12680   3.689  12.404  11.874  0.0242 -0.1581 -0.0836
11817W        W12681   4.719  11.502   0.488 -0.2518  0.0052  0.0312
11818W        W12682   6.208   9.932  13.000 -0.0720 -0.2576  0.3315
11819W        W12683   4.523   0.673  13.485 -0.1564  0.1307  0.2190
11820W        W12684   5.960  13.959  11.249  0.1507 -0.0406  0.0377
11821W        W12685   7.910  13.584  13.715 -0.0682  0.0804  0.0075
11822W        W12686   6.906   2.063  13.735 -0.3284 -0.1907 -0.2453
11823W        W12687   6.930   0.278   1.074  0.2288 -0.3376 -0.0361
11824W        W12688   4.475  12.675  10.765  0.0171 -0.1972  0.0910
11825W        W12689   5.784  11.961  11.049  0.0276 -0.3784 -0.0999
11826W        W12690   6.982  13.596  12.582 -0.2986  0.0079  0.0420
11827W        W12691   8.497  12.030  13.705  0.1648  0.2924  0.0494
11828W        W12692   2.765  11.365  12.280  0.0973  0.0515  0.0288
11829W        W12693   6.779  13.186   2.958 -0.0375 -0.1398 -0.3751
11830W        W12694   6.305  11.990  13.899  0.1090  0.4522 -0.3849
11831W        W12695   4.576  12.144  13.946 -0.0459  0.0955 -0.0296
11832W        W12696   3.746  12.416  10.476 -0.1438  0.3408 -0.1294
11833W        W12697   7.257  11.802  10.863  0.2153 -0.4117  0.3439
11834W        W12698   8.203  12.191  10.500  0.0827  0.0443  0.1997
11835W        W12699   5.845  13.841  13.186  0.0066 -0.2467 -0.0011
11836W        W12700   4.835  12.575  13.235 -0.2218  0.0008  0.0997
11837W        W12701   8.877  12.757   0.855 -0.0716 -0.0076 -0.0012
11838W        W12702   5.130  12.112   0.040 -0.2285 -0.2828  0.2028
11839W        W12703   3.289  11.562   2.482  0.0905  0.0173  0.4810
11840W        W12704   5.481  11.998  13.156 -0.1460 -0.3869  0.2297
11841W        W12705   6.451  11.759  13.416 -0.2583  0.2153 -0.0231
11842W        W12706   3.610   3.219   1.471 -0.2775 -0.2138  0.0324
11843W        W12707   5.977  11.969  12.764  0.1141  0.0310 -0.1061
11844W        W12708   8.152  13.484  11.472 -0.2149 -0.0023  0.0969
11845W        W12709   5.727  12.720  11.649  0.3454  0.0500  0.2211
11846W        W12710   6.401  12.375  12.307 -0.1965  0.0781 -0.1738
11847W        W12711   4.317   1.234   2.293  0.0222 -0.1578 -0.1334
11848W        W12712   6.335   9.750  11.292  0.1236 -0.0616 -0.2552
11849W        W12713   9.029  11.470  13.291  0.1228 -0.1804 -0.2420
11850W        W12714   4.408   0.509  11.863  0.0906  0.3668 -0.2634
11851W        W12715   6.199  12.710   8.801  0.2625  0.1768 -0.1355
11852W        W12716   5.770  11.922  13.814 -0.0921  0.2165 -0.1162
11853W        W12717   5.234  13.085  13.253  0.0213 -0.2704 -0.0008
11854W        W12718   7.261  12.230  13.837  0.0097 -0.0959  0.0457
11855W        W12719   4.055  10.336   0.216  0.0831 -0.1584  0.2695
11856W        W12720   6.988  11.479   0.224  0.0754  0.1342 -0.1344
11857W        W12721   8.808  11.857   3.039  0.5559 -0.0856  0.0021
11858W        W12722   8.828   9.466  13.337  0.1318  0.0138  0.1288
11859W        W12723   1.948  11.586  11.217  0.3337 -0.0279 -0.2414
11860W        W12724   7.467   0.332  13.117  0.0393 -0.0317 -0.0004
11861W        W12725   7.095  12.993  11.199  0.3173 -0.2210  0.0778
11862W        W12726   5.216  13.094  11.117 -0.1492  0.0256 -0.0600
11863W        W12727   7.558  12.771  12.387  0.0237  0.0398 -0.3509
11864W        W12728   4.220  12.770   2.061 -0.0643 -0.3345  0.1637
11865W        W12729   3.214  12.174  13.408 -0.0444 -0.0094  0.2759
11866W        W12730   7.512  12.178   9.838  0.0349  0.0577 -0.0157
11867W        W12731   7.588  13.914  13.404 -0.0216 -0.2415 -0.0825
11868W        W12732   2.736  13.087  12.553  0.2526  0.2326  0.1373
11869W        W12733   6.149  11.384  10.526 -0.1448  0.0563 -0.3138
11870W        W12734   6.511  10.631  12.587 -0.1358  0.1913 -0.1853
11871W        W12735   3.514   6.679  12.104  0.0212  0.1991 -0.1551
11872W        W12736   4.053  13.894   1.838  0.1432  0.0245 -0.1879
11873W        W12737   7.209  11.216  13.873  0.0004 -0.0925  0.1901
11874W        W12738   6.919  13.551  13.759 -0.1044 -0.1048 -0.0055
11875W        W12739   6.186  13.569   0.237  0.1465 -0.2270  0.0252
11876W        W12740   6.173  10.453   0.360 -0.0344  0.0291  0.1803
11877W        W12741   2.806   0.414  13.047  0.1166  0.0734  0.1495
11878W        W12742   7.110   0.033   9.434 -0.3459  0.1452 -0.0381
11879W        W12743   4.819   0.283  11.657  0.1916  0.3578  0.0104
11880W        W12744   7.245  11.970   1.655 -0.0031  0.0834  0.3465
11881W        W12745   8.832  11.845  11.664 -0.0884 -0.0376 -0.0184
11882W        W12746   5.261  13.212   0.801  0.0884  0.2870  0.3128
11883W        W12747   8.552   0.234   0.917  0.2013  0.0760 -0.0019
11884W        W12748   7.567  11.905   0.711  0.1649 -0.0703  0.0648
11885W        W12749   8.449  12.003  12.733 -0.0526 -0.0300  0.1162
11886W        W12750   3.896  14.012  11.217  0.1046  0.2073 -0.2204
11887W        W12751   6.317  11.834  10.811  0.1711 -0.1163 -0.1209
11888W        W12752   2.919  13.147  13.043 -0.0249  0.2498 -0.1163
11889W        W12753   5.794   1.147   2.020  0.1080  0.1469  0.2116
11890W        W12754   4.319  13.453   0.952  0.0886 -0.0340 -0.1279
11891W        W12755   5.420  10.658  13.270  0.1916 -0.0807  0.0131
11892W        W12756   2.864  12.166  12.861  0.0563  0.0087  0.0392
11893W        W12757   0.847  10.398   0.848  0.0766 -0.1864  0.1170
11894W        W12758   7.045  11.750   0.766 -0.0471 -0.0748  0.2040
11895W        W12759   6.836  11.666   9.485  0.1781  0.0712 -0.1412
11896W        W12760   8.491  13.702  11.964  0.1514  0.0772 -0.1754
11897W        W12761   6.166   1.166   1.202 -0.3230  0.1132 -0.1506
11898W        W12762   7.765  11.615  12.509 -0.1269 -0.2075 -0.2291
11899W        W12763   4.450  12.461  11.223  0.4742  0.1323  0.1551
11900W        W12764   6.408  12.337  10.954 -0.0187  0.1688  0.1194
11901W        W12765   5.550   1.575  12.063 -0.3259  0.2548 -0.1287
11902W        W12766   5.736  10.641  12.799  0.2138 -0.1110  0.1995
11903W        W12767  10.612   0.831  13.370  0.2396 -0.2742 -0.0338
11904W        W12768   3.464  12.632  12.303 -0.0293 -0.1424  0.1120
11905W        W12769   4.880  11.331  10.579 -0.4004 -0.0224 -0.1163
11906W        W12770   7.262  11.856  12.407 -0.0999  0.1787  0.0562
11907W        W12771   4.647   0.222  10.183  0.0879 -0.0242  0.0692
11908W        W12772   6.436  13.267  10.692  0.1996  0.1751 -0.0515
11909W        W12773   3.999  11.348   7.580  0.0414 -0.0511  0.0428
11910W        W12774   7.091   1.125   2.131  0.0991 -0.2938 -0.3606
11911W        W12775   5.826  11.543  11.358 -0.1529 -0.0705 -0.0805
11912W        W12776   7.580  13.310   1.593  0.1094  0.1529  0.1770
11913W        W12777   2.418  11.434   2.566  0.2055 -0.4143 -0.0084
11914W        W12778   4.025  13.980   0.441  0.1090  0.0979 -0.1647
11915W        W12779   3.621   0.717  13.445 -0.2410 -0.1192  0.2122
11916W        W12780   5.077  12.777  12.874 -0.0851  0.3354  0.5101
11917W        W12781   7.455  13.620   0.601  0.2405  0.0639  0.2344
11918W        W12782   8.083  11.245  12.316 -0.0032 -0.0565  0.1941
11919W        W12783   5.802   1.313   2.517  0.1302  0.0890  0.1608
11920W        W12784   7.372   1.373   0.021  0.1710 -0.1855 -0.1195
11921W        W12785   4.140  13.832  12.916 -0.4402 -0.1456 -0.1246
11922W        W12786   8.456  13.480  13.216  0.4704  0.1163  0.2227
11923W        W12787   3.931   0.653   1.616 -0.0876 -0.0201 -0.3623
11924W        W12788   4.923   1.141  12.791  0.1382 -0.1252 -0.0660
11925W        W12789   3.627   9.536   8.675  0.1224  0.0547  0.2001
11926W        W12790   7.161   3.108   2.739 -0.2856 -0.0153  0.2517
11927W        W12791   7.457   3.146   1.978  0.0410  0.0549 -0.3948
11928W        W12792  10.313   2.707   3.069  0.2873  0.0356 -0.1388
11929W        W12793  10.068   1.945   6.025  0.1532 -0.1526  0.2238
11930W        W12794   8.113   3.754  11.561  0.0076  0.2820 -0.1093
11931W        W12795   7.866   0.164   3.155 -0.3853 -0.2541  0.1756
11932W        W12796   7.653   2.063  13.385  0.0127  0.2050 -0.2095
11933W        W12797   9.270   0.288   2.301  0.1884  0.0174 -0.1667
11934W        W12798   8.617   3.170   2.317 -0.1140 -0.0265 -0.3231
11935W        W12799   8.760  12.167   3.467 -0.2506  0.0375 -0.4703
11936W        W12800   6.426   1.993   5.225 -0.1433  0.0979  0.8319
11937W        W12801  10.214  13.642   5.148 -0.2155  0.1326  0.1727
11938W        W12802  12.191   0.016   1.470  0.0593  0.1390 -0.0695
11939W        W12803  10.712   0.073   4.035  0.3647  0.1564 -0.2171
11940W        W12804   8.226  12.420   1.590  0.0718  0.0965 -0.2566
11941W        W12805   7.075   2.996   2.226 -0.0255  0.1874  0.4457
11942W        W12806   7.973   2.505   0.427 -0.0848 -0.2491 -0.3731
11943W        W12807   8.191   1.418   0.408 -0.2404 -0.3402 -0.0795
11944W        W12808   9.268   4.228   2.039  0.1908  0.0831 -0.1275
11945W        W12809   8.971   0.334   2.682 -0.3303 -0.1796 -0.1342
11946W        W12810  10.805   0.150   5.379 -0.1003  0.0149  0.1218
11947W        W12811  10.719   0.946   2.919 -0.0486 -0.0367 -0.1114
11948W        W12812   7.772   2.551  13.419 -0.1654  0.0307 -0.0985
11949W        W12813   7.669   4.307   1.294 -0.2392  0.0106 -0.1925
11950W        W12814   8.097   0.148   4.519  0.0783  0.0158  0.0307
11951W        W12815   7.298   3.939   1.237 -0.2561  0.0677  0.0624
11952W        W12816  10.260   1.034   5.921 -0.0648  0.1664 -0.1325
11953W        W12817   6.737   4.228   0.861 -0.1229  0.0115  0.3441
11954W        W12818   9.923   3.309   1.760 -0.3788  0.0472 -0.2964
11955W        W12819  10.334   2.081   2.565 -0.2795 -0.1147 -0.0644
11956W        W12820   7.405   2.229   4.122  0.2174 -0.0399 -0.2890
11957W        W12821   7.277   5.873   1.968 -0.0405 -0.0631 -0.0494
11958W        W12822  10.048  13.823   3.483 -0.0755 -0.1578  0.2747
11959W        W12823   8.962   3.435   3.821 -0.0374  0.0675  0.0336
11960W        W12824   8.384  13.866   2.184  0.1638 -0.0670 -0.0964
11961W        W12825  10.583   1.998   6.030 -0.1405 -0.0282 -0.2401
11962W        W12826   7.870   1.281   0.039 -0.0514  0.1287  0.0423
11963W        W12827   9.175   3.273   3.291  0.3040  0.1201 -0.1491
11964W        W12828  13.558   2.769   1.621  0.0715  0.3657 -0.3416
11965W        W12829  12.034  11.898  12.607 -0.1211  0.1784  0.1984
11966W        W12830   8.564   2.104   0.041 -0.3719  0.0507 -0.2899
11967W        W12831  10.680   1.806  13.297 -0.1337  0.0912  0.0765
11968W        W12832   9.040   1.668   1.352 -0.0938 -0.3014 -0.0177
11969W        W12833   8.759   3.112  13.573  0.1883 -0.0448  0.0271
11970W        W12834   8.905   2.330  12.308 -0.1521 -0.1878  0.0400
11971W        W12835   7.453   5.282   1.845 -0.0461 -0.3208 -0.0747
11972W        W12836   8.797   1.246   1.087 -0.4184 -0.1239 -0.0278
11973W        W12837  10.630   3.560   2.751 -0.0486 -0.1238 -0.0018
11974W        W12838  11.159   0.911   1.987 -0.2130 -0.0581  0.1819
11975W        W12839   9.912   2.269   2.785  0.3129 -0.3013 -0.1259
11976W        W12840   9.327   1.195   1.176  0.0964  0.0319 -0.1027
11977W        W12841  10.947   2.494   3.393  0.0496 -0.0561 -0.3982
11978W        W12842  11.259  13.687  13.058 -0.2055  0.3786 -0.2429
11979W        W12843   8.888  12.625   2.608 -0.1114 -0.1421 -0.0287
11980W        W12844   8.104   3.992  12.516 -0.0007 -0.2219 -0.2419
11981W        W12845   8.369  13.917   0.468  0.1962  0.2272  0.2378
11982W        W12846  10.165   1.212   2.153 -0.0548  0.0476 -0.0822
11983W        W12847   8.427   0.375   3.718 -0.1104 -0.1443  0.1732
11984W        W12848   6.774   3.804   0.576  0.0358  0.1449 -0.0494
11985W        W12849   9.771   0.168  12.626 -0.0188 -0.0014  0.0733
11986W        W12850   7.282   2.931  13.682  0.0622 -0.1356  0.2890
11987W        W12851   8.218   5.451   2.683 -0.0811 -0.1402 -0.2825
11988W        W12852   9.785   0.636  13.979  0.2199 -0.1782 -0.0321
11989W        W12853   8.203  12.715   1.989  0.6556 -0.0464  0.0575
11990W        W12854  11.266  13.362   1.238 -0.0941 -0.1133  0.4660
11991W        W12855   5.474   4.490   2.085  0.0905  0.0345  0.2109
11992W        W12856   8.242   2.064   1.377 -0.3732 -0.1412  0.0607
11993W        W12857   9.321   2.435   2.339 -0.4109  0.0125  0.3636
11994W        W12858  12.403   4.694   4.321  0.1130 -0.1329 -0.3030
11995W        W12859   7.266   0.507   1.744  0.1241 -0.1788  0.1352
11996W        W12860  10.469   3.205   1.670 -0.0853 -0.0394 -0.0134
11997W        W12861   8.763   3.421   1.510 -0.1818 -0.1957 -0.1328
11998W        W12862  10.950   2.860   1.394 -0.2833  0.1782  0.0723
11999W        W12863   9.021   0.496   3.905  0.0006  0.0123 -0.2461
12000W        W12864   8.545   1.713   2.004  0.0947 -0.1825  0.3336
12001W        W12865   8.853   3.651   2.813 -0.1929  0.0841 -0.2659
12002W        W12866   9.409   1.230   0.547 -0.4398  0.0951 -0.0479
12003W        W12867   8.017  13.138   2.830 -0.1170  0.0679 -0.0345
12004W        W12868   7.891   1.145   1.693  0.1690 -0.0466  0.0547
12005W        W12869   6.657  12.310   3.476  0.0013  0.0017  0.4156
12006W        W12870   9.744   1.106   1.888  0.0655  0.2870 -0.1528
12007W        W12871   8.296  10.567   3.402  0.1351 -0.1171 -0.1967
12008W        W12872   8.210   0.998   4.096  0.1440  0.0225  0.0608
12009W        W12873   6.403  13.197   2.652  0.2078 -0.2916  0.4450
12010W        W12874  11.105   2.770   4.530  0.0759  0.1211  0.0405
12011W        W12875   9.919   2.026   3.822 -0.5100 -0.1836 -0.0826
12012W        W12876   8.649   1.248   3.517 -0.2427  0.0093 -0.1028
12013W        W12877   8.820   1.226   1.570  0.0287  0.0045  0.0156
12014W        W12878  11.714  13.120   2.630 -0.3283  0.1129  0.2187
12015W        W12879   7.254   4.028   2.759  0.0280 -0.0550 -0.0207
12016W        W12880   6.630   3.564   2.306  0.1228 -0.0639  0.0070
12017W        W12881   8.525   0.390   2.404  0.1016 -0.1039 -0.1763
12018W        W12882   7.547   1.668   4.520  0.0015  0.0079 -0.0890
12019W        W12883   0.227   0.591   0.655 -0.2550 -0.0560 -0.1542
12020W        W12884  12.366   1.311  13.952 -0.2015  0.0516 -0.1044
12021W        W12885   6.460   2.700   2.794  0.0689  0.0516  0.0398
12022W        W12886   7.474   0.942   1.497  0.0176  0.4516 -0.0666
12023W        W12887   8.190   0.835   3.598  0.2467  0.0772 -0.4128
12024W        W12888  10.363   5.035  12.881 -0.0689 -0.1637 -0.0893
12025W        W12889   8.348   1.136   1.394 -0.1540 -0.1899  0.2686
12026W        W12890   7.896   1.849   0.731  0.1528 -0.1831 -0.1380
12027W        W12891  10.422   3.497   0.153  0.0409  0.0054  0.1199
12028W        W12892  11.429  13.478   3.622 -0.0284 -0.0579 -0.2001
12029W        W12893   8.276   0.501   3.206 -0.0926 -0.0942 -0.0367
12030W        W12894   9.256   3.528  12.659  0.1196 -0.0632 -0.1924
12031W        W12895  10.525   3.224   2.241 -0.0575 -0.0289 -0.0782
12032W        W12896   8.314   1.053   3.193  0.1796  0.2710  0.2002
12033W        W12897   9.643   0.588   3.687  0.0351  0.2092 -0.0326
12034W        W12898   3.440   3.123   0.763  0.0656  0.1552 -0.0970
12035W        W12899   9.653   4.824   2.452 -0.2202 -0.0102  0.0568
12036W        W12900  12.475   0.439   2.386 -0.3569  0.2301 -0.0416
12037W        W12901   8.952   2.815   2.538  0.2235 -0.0297  0.1403
12038W        W12902  10.503   2.556  13.994 -0.0526 -0.4916  0.4080
12039W        W12903   9.714   1.431   0.922 -0.0180 -0.2783 -0.0792
12040W        W12904  11.116   2.092   3.709 -0.5370 -0.3094 -0.1814
12041W        W12905   8.317   2.780   0.790 -0.0179  0.0842 -0.0296
12042W        W12906  10.233   1.701   2.978 -0.1377 -0.1534  0.1255
12043W        W12907  10.673   2.593  10.958 -0.2743  0.2705 -0.0623
12044W        W12908   9.258   0.192  13.801  0.0223  0.2036  0.1565
12045W        W12909   7.141   3.120   1.199  0.1575  0.2251  0.0120
12046W        W12910  10.816   2.040   2.731 -0.3429  0.2968 -0.0091
12047W        W12911   9.748   3.328   2.570  0.3925  0.0669 -0.1480
12048W        W12912   9.088  13.939   1.660 -0.0718 -0.0504  0.3904
12049W        W12913   8.706   0.670   3.421  0.0495 -0.0606  0.3870
12050W        W12914   8.102   1.296   4.657 -0.2003  0.0618 -0.0399
12051W        W12915   9.974  13.924   1.291 -0.3003 -0.1118  0.1388
12052W        W12916  10.352   4.648   2.764  0.1009  0.1895  0.1448
12053W        W12917   8.349   1.248   1.868  0.0368  0.0488 -0.0488
12054W        W12918   8.916   3.824   3.303  0.1955  0.0139  0.3084
12055W        W12919   9.851   1.461   4.618  0.1121  0.0681  0.2251
12056W        W12920   8.284   2.541   1.768 -0.0114 -0.1807 -0.0067
12057W        W12921  11.393  12.838   2.924  0.1100  0.4147  0.0183
12058W        W12922   8.723   3.645   2.314  0.1586 -0.1423 -0.0504
12059W        W12923   7.097   2.143   2.068 -0.0322  0.1062  0.2017
12060W        W12924   8.959  13.313   4.253 -0.1900 -0.0068  0.0447
12061W        W12925  10.458   0.498   4.170 -0.4283  0.0975 -0.0330
12062W        W12926   9.478   1.098   2.846  0.2859  0.2072 -0.1094
12063W        W12927   8.379   4.565   2.294  0.0552  0.0420 -0.2528
12064W        W12928   5.077   2.093   1.129 -0.3419  0.1804 -0.1386
12065W        W12929  10.446  10.782   1.423 -0.2220  0.3786 -0.0451
12066W        W12930   9.291   4.670  12.901  0.0177 -0.0774  0.0445
12067W        W12931   7.948   3.853  12.978 -0.0809 -0.1578 -0.1776
12068W        W12932   9.870   5.471   0.192 -0.1010  0.1542  0.0562
12069W        W12933   9.109   2.401   0.143  0.2104 -0.0257 -0.0240
12070W        W12934  10.070   2.481   2.339 -0.1489  0.0266  0.0984
12071W        W12935   7.207   4.088  12.998  0.3287 -0.3349 -0.2653
12072W        W12936   7.830   4.780   0.065 -0.2193 -0.5050  0.2248
12073W        W12937   9.144   0.458   1.709  0.0492  0.1341 -0.0445
12074W        W12938  11.961   1.313   5.036  0.0486  0.2840 -0.2912
12075W        W12939  10.416   0.300  13.991 -0.1894 -0.2300  0.1787
12076W        W12940  10.438   2.626   1.371 -0.4039  0.0106 -0.3012
12077W        W12941   7.558   0.969  13.703  0.0063  0.1426 -0.0360
12078W        W12942   8.893   0.608   2.187  0.2141  0.2270 -0.1844
12079W        W12943   9.169  12.857   4.912 -0.0246  0.0048 -0.1126
12080W        W12944   8.147   1.937   2.401 -0.0946  0.1681 -0.1923
12081W        W12945  10.017   3.719  13.219  0.0807 -0.1725  0.0208
12082W        W12946   7.895  12.911   1.573  0.1817 -0.1769 -0.0197
12083W        W12947   8.405   3.640  13.017 -0.0548 -0.1825  0.1337
12084W        W12948   9.682  13.014   4.875  0.0758 -0.2208 -0.0797
12085W        W12949   8.397   4.263   1.880 -0.1260 -0.0916  0.0618
12086W        W12950   8.999   0.874   5.373  0.1243 -0.3339 -0.1210
12087W        W12951   7.776   5.380   1.414  0.0784 -0.2577  0.1217
12088W        W12952   8.678   1.578   6.322 -0.3353 -0.1591 -0.3916
12089W        W12953   8.549   1.658   4.694  0.2026 -0.2290 -0.1689
12090W        W12954   7.400   2.933   0.798  0.1385  0.0487  0.3232
12091W        W12955   8.957   6.258   0.268 -0.2461  0.0029  0.2758
12092W        W12956   8.998   1.440   5.079  0.3071 -0.0304  0.1308
12093W        W12957   7.692   3.533   0.623  0.1884 -0.0450  0.2102
12094W        W12958  10.574   0.782  13.905  0.0367  0.2785 -0.1523
12095W        W12959   8.943   1.988   1.722  0.1007  0.2367 -0.2513
12096W        W12960  10.067   0.134   0.842  0.0109  0.0941 -0.1202
12097W        W12961  12.403   4.340   0.047 -0.1704 -0.0663  0.2254
12098W        W12962   7.460   2.535   0.380 -0.2007  0.0794 -0.1631
12099W        W12963  12.128   1.305   4.022 -0.2080 -0.2707  0.1766
12100W        W12964   7.785   2.795   1.087 -0.2254 -0.2011  0.0567
12101W        W12965   6.373   2.794   2.213 -0.0000 -0.0599 -0.1937
12102W        W12966   5.494   6.341  13.011 -0.1743  0.2165 -0.0251
12103W        W12967   9.353   1.375   4.287  0.1770  0.0128  0.1502
12104W        W12968   7.518   4.735   1.130  0.2133 -0.0528  0.0463
12105W        W12969   6.928   2.994   0.696  0.0489 -0.1136  0.0407
12106W        W12970   8.641   2.210   1.028  0.0474  0.0202 -0.0395
12107W        W12971   8.707   3.088   0.611  0.1055  0.1271  0.3174
12108W        W12972   7.827   0.862   0.484 -0.1152  0.1630  0.1262
12109W        W12973   9.909   2.761   3.328 -0.1860 -0.2438  0.1426
12110W        W12974   7.619  11.512   4.298 -0.1163 -0.1722  0.0653
12111W        W12975   6.269  12.181   0.933 -0.0609 -0.2760 -0.0302
12112W        W12976   9.680   1.642   0.363  0.0027 -0.0264  0.1148
12113W        W12977   9.267   3.499   1.579 -0.2887 -0.0470  0.2202
12114W        W12978   4.209   4.601   1.491 -0.2381  0.0754  0.2494
12115W        W12979   8.098   5.205   0.203  0.1952 -0.3594  0.2927
12116W        W12980  11.277  13.739   4.682  0.3007 -0.0220  0.0431
12117W        W12981   9.488   1.289   3.350 -0.0194  0.0548 -0.3060
12118W        W12982  10.504   1.576   1.833 -0.3036  0.0022 -0.0078
12119W        W12983   9.523   0.767   0.845  0.3796 -0.1106  0.1578
12120W        W12984   7.339   2.513   4.908 -0.0118 -0.0474 -0.2048
12121W        W12985   8.709  13.562   3.413  0.0314  0.0775 -0.0185
12122W        W12986   7.772   1.004   3.869 -0.0431 -0.3254 -0.0525
12123W        W12987   6.711  13.581   1.932  0.1316 -0.1841 -0.1212
12124W        W12988   8.476   0.206   5.278 -0.0106  0.0557  0.2898
12125W        W12989   9.589   2.575   0.225 -0.0273  0.2568 -0.2799
12126W        W12990   7.387   4.361   6.253  0.2210 -0.0918  0.4032
12127W        W12991   9.299   1.008   1.689  0.0167 -0.2217  0.0143
12128W        W12992   9.138  11.371   0.358  0.1809 -0.1911  0.1897
12129W        W12993   8.975   2.657   3.021  0.0965  0.1719 -0.0950
12130W        W12994  10.605   1.067   1.945 -0.0245 -0.1108 -0.3218
12131W        W12995   7.764   3.337   0.090  0.0148 -0.1627  0.0416
12132W        W12996   6.954   3.746  12.783 -0.2231 -0.0622 -0.1638
12133W        W12997   6.915   4.915   2.915 -0.0917 -0.1167 -0.1843
12134W        W12998   7.474   2.174   1.613  0.2464 -0.1847 -0.0123
12135W        W12999   9.538   5.769   2.476 -0.1209 -0.0235  0.0055
12136W        W13000  11.547  13.910   3.791 -0.0040  0.2024 -0.1797
12137W        W13001  11.173   2.412  13.934 -0.0356  0.1219  0.0657
12138W        W13002   7.074   3.488   2.063 -0.1145 -0.0708  0.2259
12139W        W13003   8.197   4.268  13.617 -0.0216  0.3282 -0.1564
12140W        W13004   8.708   2.259   4.548 -0.1615 -0.0098  0.0235
12141W        W13005   5.942   3.947   3.416  0.1449 -0.1446  0.1669
12142W        W13006   1.515  13.359   1.527  0.2293 -0.0684  0.0992
12143W        W13007   8.208   0.094   4.040 -0.1455  0.0275 -0.0200
12144W        W13008   8.986   0.804   1.356 -0.0136 -0.3344  0.1368
12145W        W13009  12.291   1.224  12.168  0.4906 -0.2218  0.3450
12146W        W13010   8.768  12.631   3.641 -0.0199 -0.0467  0.0731
12147W        W13011  11.860   2.090   2.575 -0.1295  0.0287 -0.1205
12148W        W13012   9.715   3.205   4.852 -0.3969  0.1551  0.2602
12149W        W13013  11.731   2.641   1.251 -0.2119 -0.1000  0.1603
12150W        W13014  10.267   5.140   3.677 -0.0029 -0.1750  0.1001
12151W        W13015   7.984  13.030   4.209 -0.2454  0.0237  0.0319
12152W        W13016   9.093  13.773   4.548 -0.4511  0.2471 -0.0749
12153W        W13017  10.838   2.690   0.278 -0.0270 -0.0480 -0.0528
12154W        W13018  10.584   3.889  13.860  0.1314 -0.2966  0.1182
12155W        W13019   5.886   1.604   3.460 -0.0179 -0.2088  0.0543
12156W        W13020   9.425   1.992   1.368  0.3216  0.0428  0.1931
12157W        W13021  11.549   0.636  13.383 -0.0826  0.1590  0.2818
12158W        W13022   7.655   0.020   4.754  0.2984 -0.0555  0.1759
12159W        W13023   9.883   2.891   2.882  0.1204 -0.0598 -0.1313
12160W        W13024  11.711   3.342   2.672  0.0458  0.1718 -0.0303
12161W        W13025   9.228   3.313  13.599  0.2111 -0.1770 -0.0334
12162W        W13026   6.671   3.184   1.990 -0.0111 -0.0931 -0.0749
12163W        W13027   7.667   1.363   4.920  0.1368 -0.2340  0.1928
12164W        W13028  10.246   0.701   2.060  0.1017  0.1009  0.1869
12165W        W13029   9.584  13.270   2.309 -0.1954 -0.1405  0.3216
12166W        W13030  10.258   2.986  12.721 -0.1042 -0.2846  0.1893
12167W        W13031   9.847   1.484   4.140  0.1147 -0.3112 -0.1175
12168W        W13032   5.756   3.938   0.033  0.4116 -0.2098  0.1841
12169W        W13033  10.153   4.997  11.534  0.1566 -0.3866 -0.2592
12170W        W13034   6.275   0.145   2.694 -0.0244 -0.2709 -0.1906
12171W        W13035   7.671   3.891   1.584 -0.2601  0.0368  0.0031
12172W        W13036   6.471   2.681  13.235  0.1417 -0.4454 -0.1116
12173W        W13037   8.750   4.503   4.224 -0.1159 -0.2880  0.0129
12174W        W13038   8.398   0.795   2.174 -0.0216  0.0032  0.0976
12175W        W13039   9.635   2.306  13.210  0.1508  0.1824 -0.0033
12176W        W13040  11.788   3.891   2.068 -0.0217  0.0290  0.1773
12177W        W13041  10.536   2.721   2.180  0.2074  0.0232 -0.4224
12178W        W13042   8.982   0.581   4.482  0.1428  0.3130  0.0197
12179W        W13043   9.249   2.869   2.148  0.0671  0.0345 -0.3069
12180W        W13044   9.202   1.160   0.075 -0.0267  0.0586 -0.0567
12181W        W13045   8.573   1.619   1.466  0.1320  0.0455  0.2776
12182W        W13046  11.481  12.916   4.834 -0.1596 -0.0701  0.3312
12183W        W13047   9.441  12.860   4.408 -0.2941  0.2128  0.2064
12184W        W13048  11.003   0.099   4.455  0.1302  0.2497  0.1110
12185W        W13049   8.851   2.675   1.101 -0.0592 -0.1261  0.1762
12186W        W13050   6.277   3.855   4.068  0.0308  0.2354  0.0142
12187W        W13051   6.095   2.815   1.385  0.1049  0.0268 -0.0581
12188W        W13052  10.428   0.797   1.274 -0.0518 -0.1328 -0.0901
12189W        W13053   7.131   1.783   4.810 -0.2208 -0.3927  0.0677
12190W        W13054  10.147  12.327   0.387  0.0964 -0.1816  0.1129
12191W        W13055   9.852   1.702   1.281  0.0179 -0.1671  0.2284
12192W        W13056   5.975  12.476   4.109  0.0055  0.0062  0.0410
12193W        W13057  10.069   0.048   4.860 -0.2518 -0.1447  0.1698
12194W        W13058   6.974   3.333   0.320 -0.0402  0.0849 -0.2145
12195W        W13059  11.756   2.205   2.100 -0.2764 -0.1256  0.1345
12196W        W13060   7.361  11.140   3.590 -0.0960  0.2522  0.2056
12197W        W13061   6.854   0.026   4.685  0.1299  0.3912 -0.0603
12198W        W13062   8.328  12.089   3.833 -0.1345  0.1683  0.1903
12199W        W13063   8.469   1.566  12.848 -0.0277  0.2126 -0.0964
12200W        W13064   6.671   2.371   0.120 -0.0823 -0.1452  0.2196
12201W        W13065   6.382   3.519   1.757  0.2016  0.0206  0.0632
12202W        W13066   9.225   2.837  13.951 -0.0066  0.2288  0.1819
12203W        W13067   7.697   2.772  13.923 -0.0797  0.3362  0.2431
12204W        W13068   5.930   0.897   0.554 -0.1226 -0.0629 -0.0854
12205W        W13069  10.772  12.760  13.969 -0.1879  0.0850  0.2449
12206W        W13070   7.566   0.955   2.040  0.2166 -0.0511  0.1222
12207W        W13071  10.458  13.279   3.444  0.2598  0.2139 -0.1305
12208W        W13072   8.479   1.015   4.505  0.1767  0.0623  0.2605
12209W        W13073  10.379  12.706  13.576 -0.3134  0.1963  0.0319
12210W        W13074  10.301   5.438   0.434 -0.1854 -0.0743  0.1507
12211W        W13075   9.114   1.536   0.773 -0.0649 -0.3142 -0.1171
12212W        W13076  10.256   0.777   2.517  0.1534  0.0741 -0.1845
12213W        W13077   8.329  10.237   2.009 -0.2471  0.0534  0.0848
12214W        W13078   8.885   1.500   2.614  0.1898  0.0817  0.0626
12215W        W13079   8.871   3.582  13.338  0.1563  0.2239  0.0341
12216W        W13080  11.499  13.061   0.440 -0.1447 -0.0147 -0.0994
12217W        W13081   7.530   2.490   3.644  0.0874 -0.2349 -0.0533
12218W        W13082  12.023   1.395   4.499 -0.2454  0.2738  0.1568
12219W        W13083   9.084   0.703   3.007 -0.0987 -0.0861 -0.2445
12220W        W13084   7.203   2.094   1.152 -0.1380  0.1540  0.0715
12221W        W13085   7.653   0.084   3.963  0.0678  0.0878 -0.1016
12222W        W13086   9.736   2.590   1.968  0.0004  0.1773  0.0193
12223W        W13087   9.050   2.665   0.560  0.1676 -0.0289 -0.1561
12224W        W13088   9.240   2.270  12.842 -0.0953  0.3092 -0.0505
12225W        W13089  10.929   4.830   2.921 -0.1921 -0.1800  0.0897
12226W        W13090  12.311   3.385   4.292 -0.2671  0.2559 -0.2197
12227W        W13091   8.463   0.696   1.221  0.0546  0.1677 -0.0718
12228W        W13092  11.059   0.547  13.345  0.0084  0.3691  0.0555
12229W        W13093   9.945   1.557   1.714 -0.1792  0.1348 -0.0583
12230W        W13094   8.789   0.046   3.649  0.2525  0.0907  0.1905
12231W        W13095   7.101   2.043   3.718  0.7776  0.1345 -0.1761
12232W        W13096   6.735   1.430   2.346  0.0067 -0.2168  0.1070
12233W        W13097   9.234   2.467   1.815  0.1416 -0.2982 -0.4257
12234W        W13098   7.693   3.677   4.249  0.0651  0.1024 -0.1227
12235W        W13099   7.102   4.666   4.514  0.0274 -0.1230 -0.0777
12236W        W13100   9.400  12.929   0.485 -0.2023  0.2373  0.1111
12237W        W13101  10.878  13.700   0.734 -0.3148 -0.2320 -0.4224
12238W        W13102  11.338   4.033   3.681 -0.1532 -0.1902 -0.2022
12239W        W13103   8.600   6.107   1.640 -0.1820  0.1623 -0.0556
12240W        W13104   8.895   1.255   3.103 -0.1021  0.0084  0.0481
12241W        W13105  10.147   5.483   2.426  0.0521  0.1318 -0.3775
12242W        W13106   6.650   1.950   2.375  0.0546  0.0858  0.0359
12243W        W13107   9.212   3.983   2.949 -0.1198  0.2579 -0.1865
12244W        W13108  10.268   1.253   1.090  0.0021 -0.0512  0.0216
12245W        W13109   7.671   4.678  13.486 -0.0461 -0.0061  0.0625
12246W        W13110   9.618  13.193   3.859 -0.0179  0.1086 -0.3706
12247W        W13111   7.021   1.551  13.623 -0.0877  0.1213  0.2085
12248W        W13112  10.400   2.959   0.376 -0.2162 -0.4527  0.0633
12249W        W13113   9.625   0.523   1.847 -0.1106  0.1366  0.2189
12250W        W13114   7.849  12.445   4.382  0.0003  0.0999  0.0959
12251W        W13115  10.722   1.262  13.136 -0.1278  0.1319 -0.0735
12252W        W13116   9.588   1.502   2.098 -0.0087  0.1035  0.1406
12253W        W13117   9.995   4.241   2.713  0.1299  0.1735  0.1558
12254W        W13118  10.077   3.554   5.665 -0.2553 -0.0337 -0.2548
12255W        W13119  10.378   2.165   3.133 -0.1419 -0.1995  0.3472
12256W        W13120   7.873   2.478   1.461 -0.0099  0.0629  0.0820
12257W        W13121  11.727   1.044   4.199 -0.1700  0.2075  0.1289
12258W        W13122  11.058  13.803   1.394 -0.1544  0.0935  0.1503
12259W        W13123  11.115  12.677   0.341  0.0578  0.0683  0.1035
12260W        W13124   7.263   3.417  13.957  0.3413  0.0302 -0.1570
12261W        W13125   8.844  12.475   5.657  0.0351 -0.1390 -0.0051
12262W        W13126   7.749   1.372   0.693  0.4345  0.0023  0.0868
12263W        W13127   9.607   2.807  11.997  0.4091 -0.0475 -0.0714
12264W        W13128   5.830   3.816  13.569  0.0579 -0.0788  0.3170
12265W        W13129   5.922   4.668   2.057  0.1181 -0.0529 -0.1816
12266W        W13130   8.368   2.208   0.594  0.0497 -0.0631  0.4104
12267W        W13131   7.400   0.176   3.566 -0.2380  0.1977  0.0682
12268W        W13132  11.572   3.638   3.845 -0.2037 -0.0995  0.0214
12269W        W13133   7.451  11.611   3.840  0.1756 -0.1440  0.1863
12270W        W13134   8.536   1.886   2.701  0.0581  0.0342  0.3153
12271W        W13135  10.400   0.536   0.826  0.1250 -0.3017 -0.0910
12272W        W13136  10.467   3.919   4.824  0.0969 -0.0478  0.0017
12273W        W13137  11.663   0.648   3.884  0.0858  0.0623 -0.4194
12274W        W13138   5.917   4.376   0.371  0.2342  0.1245 -0.2227
12275W        W13139   9.670  12.582   1.893 -0.1462 -0.1894 -0.1311
12276W        W13140   9.448   3.050   0.387  0.0900  0.3103  0.2783
12277W        W13141   6.137  13.827   6.740  0.2834  0.0075 -0.0780
12278W        W13142   7.845   2.025   4.437  0.0157  0.0705 -0.0368
12279W        W13143   7.735   0.536   1.664 -0.1058 -0.0550  0.3296
12280W        W13144   9.627   3.959  13.463  0.0129 -0.1522 -0.2601
12281W        W13145  10.185   1.622   5.100  0.1990  0.4102 -0.1009
12282W        W13146   9.377   2.057   0.409  0.2822 -0.2476 -0.4305
12283W        W13147  12.217   1.176   2.699  0.1324  0.2743  0.0158
12284W        W13148   9.691   5.870   3.894 -0.0655 -0.0189  0.1894
12285W        W13149  11.489   1.759   1.080  0.1551 -0.0922  0.0293
12286W        W13150  11.258   0.793   6.980  0.0163 -0.0024 -0.3096
12287W        W13151  10.382   2.096   1.043 -0.0436  0.2158 -0.1565
12288W        W13152   9.786   0.933  13.240  0.1381  0.5728 -0.0602
12289W        W13153  10.218  13.549   1.552  0.0216 -0.3284 -0.0412
12290W        W13154   9.349   1.577  12.911  0.0192 -0.0925  0.3482
12291W        W13155  12.730   2.825   1.588  0.1523 -0.0354 -0.1661
12292W        W13156   9.341   1.456  12.343  0.1802  0.2006 -0.0651
12293W        W13157  10.919   1.271   3.975 -0.1464  0.0711  0.0541
12294W        W13158   8.750   4.385   0.242  0.1202 -0.2891 -0.1005
12295W        W13159  10.091   0.568   4.971  0.0112  0.0410  0.3360
12296W        W13160  10.990   1.346   3.454 -0.1319 -0.2950 -0.2138
12297W        W13161   9.624   4.327   2.310  0.0700  0.0118  0.0777
12298W        W13162   9.535   2.049   2.958 -0.1817  0.0722 -0.0753
12299W        W13163   5.044  13.356   3.700  0.0425  0.1085  0.0464
12300W        W13164  10.028   3.023   2.184  0.0491 -0.0099 -0.0311
12301W        W13165   6.815   2.624   1.991 -0.0432  0.1307 -0.1739
12302W        W13166   8.584   1.742   3.210 -0.0769 -0.1249  0.0893
12303W        W13167   9.577  13.496   2.787 -0.1214  0.0243  0.2433
12304W        W13168   7.570   2.067   4.863 -0.1676  0.1690 -0.3754
12305W        W13169  10.631   1.644   3.273 -0.3729  0.2443  0.0567
12306W        W13170   9.166   5.070   3.551  0.0380 -0.1714  0.0648
12307W        W13171   9.761   1.132   1.372  0.1660  0.2595 -0.2114
12308W        W13172   9.789   3.818   1.321 -0.1130 -0.2427  0.0316
12309W        W13173  12.470   3.649   2.914 -0.0393  0.4175 -0.1329
12310W        W13174  11.173   4.391   4.008  0.1497  0.1044  0.0829
12311W        W13175   8.366  13.284   1.951  0.0286 -0.0115  0.0975
12312W        W13176   9.655   3.700   1.931  0.0266  0.3379  0.1263
12313W        W13177  10.173   4.503   2.292  0.1937 -0.1642 -0.3297
12314W        W13178   9.748   5.297   2.671  0.1047 -0.0234  0.2169
12315W        W13179   9.795   2.581   1.484 -0.0092 -0.3387  0.0718
12316W        W13180  11.858   2.766   3.392 -0.3126 -0.1887 -0.0169
12317W        W13181   9.297   2.513   1.273  0.1512 -0.0720  0.0355
12318W        W13182   7.771   3.026  13.520  0.0515  0.3432  0.2702
12319W        W13183   6.114   4.349   2.484  0.0834  0.1907  0.1627
12320W        W13184   6.283   3.358   6.396  0.2460  0.1882  0.1024
12321W        W13185   7.807   1.372   7.493  0.1493 -0.0183 -0.1020
12322W        W13186  10.138   0.393   6.626  0.0880  0.0070  0.0512
12323W        W13187  11.314   2.501   5.677 -0.2020 -0.1903  0.0111
12324W        W13188   8.257   1.491   1.034 -0.2270 -0.0275 -0.0818
12325W        W13189   7.050   2.541   5.764 -0.1337  0.2289  0.4170
12326W        W13190   5.004   2.887   4.313 -0.1101  0.0876 -0.0046
12327W        W13191   9.360   0.643   2.632 -0.2743  0.1828  0.3018
12328W        W13192   8.381   1.167   9.138 -0.0570  0.0931  0.0525
12329W        W13193   6.788   0.846   6.330  0.1790 -0.0184  0.2292
12330W        W13194   9.447  13.712   6.341 -0.1608 -0.4457  0.0484
12331W        W13195  10.458  13.687   6.563 -0.2505  0.0895  0.1082
12332W        W13196   8.254   4.239   5.983  0.0782  0.0285  0.1483
12333W        W13197   7.924   2.017   8.229 -0.2980  0.2522 -0.2503
12334W        W13198   7.667  13.604   5.375  0.1721 -0.0507 -0.0368
12335W        W13199   6.762   2.313   7.879  0.0994 -0.1728  0.0597
12336W        W13200   9.721   3.858   2.488 -0.0544  0.0773  0.1588
12337W        W13201   9.251   2.740   6.115 -0.4131  0.2606  0.0112
12338W        W13202   6.610   3.092   5.050  0.4026 -0.3453 -0.2958
12339W        W13203  12.708   0.396   7.453  0.2027 -0.2408 -0.0085
12340W        W13204  11.003   3.736   6.052  0.4839  0.1461  0.0247
12341W        W13205   9.036   3.693   6.692  0.2034 -0.2398 -0.2019
12342W        W13206   8.674   2.051   6.097  0.0217  0.1273 -0.3012
12343W        W13207   7.507   1.864   2.865 -0.0486 -0.0022  0.1518
12344W        W13208   6.637   2.067   5.738 -0.0249  0.0457 -0.0476
12345W        W13209   8.386   1.699   7.944  0.0230 -0.0273  0.0342
12346W        W13210   9.435   0.956   8.240  0.2861  0.1627 -0.3330
12347W        W13211   7.214   3.523   6.881 -0.0272 -0.2689  0.1724
12348W        W13212   9.922   2.844   7.296 -0.2080 -0.0559 -0.0893
12349W        W13213   7.344   3.982   4.396  0.1952  0.0907 -0.0348
12350W        W13214   8.253   2.141   3.436 -0.1114  0.1835  0.0842
12351W        W13215   8.586   4.554   7.499  0.1635  0.3652 -0.1012
12352W        W13216  11.608   5.324   5.502  0.0868 -0.0070 -0.1882
12353W        W13217  10.535   0.831   8.032 -0.2190  0.2023 -0.1716
12354W        W13218   8.795   1.158   7.416 -0.0782 -0.2025  0.1245
12355W        W13219   8.634   3.149   8.578 -0.3674 -0.2954 -0.1131
12356W        W13220   6.926  12.768   5.357  0.3622 -0.4223 -0.1657
12357W        W13221   7.514   3.354   5.177 -0.1061 -0.1687  0.1770
12358W        W13222  13.360   2.533   4.423  0.1118 -0.2485  0.2242
12359W        W13223  10.876   2.187   6.354  0.0539 -0.1907  0.1227
12360W        W13224   9.809   0.156   4.022 -0.0630  0.0640  0.2640
12361W        W13225  10.335   1.837   5.567 -0.1816  0.3248 -0.0834
12362W        W13226  10.318   6.049   7.396  0.1444  0.0542 -0.0195
12363W        W13227  10.411  13.955   4.454 -0.0357  0.1778 -0.2577
12364W        W13228   8.394   0.397   5.756  0.1227  0.0214 -0.0225
12365W        W13229   9.068   4.413   3.052 -0.1315  0.3602  0.1884
12366W        W13230   7.676   0.918   5.680  0.1320  0.2345 -0.0105
12367W        W13231   9.469   1.716   5.838 -0.0398  0.1501 -0.1301
12368W        W13232   8.357   1.928   4.264  0.2307 -0.0895  0.0652
12369W        W13233   8.946   1.171   4.481 -0.3511  0.1796 -0.3496
12370W        W13234   8.124   0.404   6.426  0.0632 -0.2958  0.0004
12371W        W13235   8.856   3.294   6.949 -0.1045 -0.0722  0.0934
12372W        W13236  10.168   3.384   7.159  0.1044 -0.1840  0.2100
12373W        W13237   9.223  12.427   6.909  0.0250 -0.2997  0.2248
12374W        W13238   8.896   2.865   3.448 -0.1275 -0.3590  0.0762
12375W        W13239   8.666  12.769   6.472  0.0617  0.0767  0.0657
12376W        W13240   9.594   4.234   5.187 -0.1788 -0.0811 -0.1161
12377W        W13241   7.322  13.360   6.949 -0.3772 -0.0210 -0.0196
12378W        W13242   9.138   4.980   5.047 -0.0312 -0.0550 -0.1804
12379W        W13243   9.467   0.295   3.034  0.0109  0.0390  0.1035
12380W        W13244   8.057   3.433   3.855  0.0435 -0.1229  0.1248
12381W        W13245   7.787   1.617   7.898  0.2722  0.3622 -0.0014
12382W        W13246   8.406  13.837   6.573 -0.1079 -0.2303 -0.0582
12383W        W13247  10.252   1.303   6.418  0.1786 -0.4215 -0.1561
12384W        W13248  10.300   0.632   6.198 -0.0736  0.3572  0.1398
12385W        W13249   7.176   3.585   4.650  0.0087  0.0493  0.0867
12386W        W13250   7.046   0.461   6.057 -0.0026  0.4600  0.4589
12387W        W13251   6.882   3.536   5.953  0.1566  0.2511  0.0891
12388W        W13252  11.261   3.570   6.954  0.0346 -0.2580  0.0063
12389W        W13253  10.303  12.252   5.705 -0.1496 -0.3368 -0.2894
12390W        W13254  10.177   3.138   6.148  0.1224 -0.1062  0.2638
12391W        W13255  11.519   2.755   8.689  0.3912 -0.2352 -0.1558
12392W        W13256  12.271   5.401   5.962 -0.3198  0.0563 -0.3253
12393W        W13257   8.012   5.410   5.601  0.2456 -0.1382 -0.0256
12394W        W13258  10.680   1.365   6.739 -0.3461  0.4524  0.0118
12395W        W13259   8.760   3.002   7.391  0.1603  0.0449 -0.0178
12396W        W13260  10.181   0.771   4.516  0.1826  0.1479 -0.0762
12397W        W13261   6.319   0.646   6.107  0.2180 -0.0066  0.1346
12398W        W13262  10.430  11.676   6.572 -0.1936  0.0625  0.0048
12399W        W13263   8.784  12.435   5.060  0.2589  0.2646  0.2508
12400W        W13264   9.697  13.932   5.982 -0.2787  0.0779 -0.0327
12401W        W13265   6.593   1.262   4.902  0.3423 -0.0065 -0.0211
12402W        W13266   7.946   2.068   1.851  0.0221  0.0437  0.2322
12403W        W13267  11.605   2.445  11.036 -0.1037  0.1294  0.0697
12404W        W13268  10.168  11.749   8.524 -0.3730 -0.0602 -0.4132
12405W        W13269  13.661   5.008   7.109  0.3431 -0.1554  0.1974
12406W        W13270  12.541   2.163   6.809 -0.1905  0.3727 -0.0882
12407W        W13271   9.488   1.092   5.265 -0.1074 -0.1887  0.2001
12408W        W13272  11.024   1.832   7.380 -0.2496 -0.0632  0.0935
12409W        W13273   6.940   1.267   3.296 -0.1313  0.1926 -0.3348
12410W        W13274   8.056   1.594   3.293 -0.4744 -0.1615  0.1038
12411W        W13275  10.523  13.234   6.746  0.1944 -0.0654  0.0418
12412W        W13276  10.974   0.418   7.244 -0.0617 -0.1977  0.1365
12413W        W13277  11.025  13.962   3.569 -0.1316 -0.2490 -0.0684
12414W        W13278   9.830  13.544   4.819 -0.0712 -0.3425 -0.1474
12415W        W13279  10.885   0.595   6.599  0.1532  0.0025 -0.3605
12416W        W13280  11.561   2.386   4.902 -0.0285  0.0330 -0.2359
12417W        W13281   8.689   0.993   4.956 -0.0608 -0.1583  0.1746
12418W        W13282   8.781   2.460   1.556  0.0294  0.2030  0.1525
12419W        W13283  10.814   2.865   3.875 -0.2233 -0.1709 -0.1309
12420W        W13284  10.750   0.942   7.047 -0.1082 -0.1707  0.4123
12421W        W13285   8.376   3.315   7.181  0.0735  0.1277  0.2631
12422W        W13286  11.070   0.723   3.967  0.3590  0.3922 -0.3851
12423W        W13287   7.509   3.294   9.186  0.1402 -0.2414  0.0527
12424W        W13288  10.519  11.275   5.417  0.2197 -0.1613 -0.2123
12425W        W13289   8.191   1.298   3.680  0.2045 -0.1714 -0.3032
12426W        W13290   5.982   3.477   3.622  0.4150  0.0386 -0.1661
12427W        W13291   8.696   2.001   7.656  0.0890  0.0072 -0.2527
12428W        W13292  13.533  13.849   5.298 -0.3168 -0.1667 -0.1457
12429W        W13293   9.174   2.272   7.713  0.2188 -0.1857 -0.0544
12430W        W13294  10.241  13.975   3.934 -0.0689  0.2693  0.0645
12431W        W13295   9.675   2.052   5.013 -0.1468  0.1387 -0.2159
12432W        W13296  11.217   1.858   6.212 -0.0879 -0.0212 -0.1967
12433W        W13297  10.190   1.222   7.890  0.0646 -0.1234  0.1141
12434W        W13298  11.304  12.802   7.458 -0.1188 -0.0932 -0.1212
12435W        W13299   9.720  13.701   3.852 -0.2457 -0.1641 -0.1277
12436W        W13300  12.761   1.622   4.582 -0.1042  0.1924  0.0791
12437W        W13301  13.322   4.892   6.110  0.1120  0.3126 -0.2799
12438W        W13302  11.562   3.286   6.671 -0.0060 -0.0344  0.2433
12439W        W13303   7.537   3.384   1.090  0.3139  0.1136  0.2419
12440W        W13304   8.672   1.859   5.180  0.0717 -0.0877 -0.3379
12441W        W13305  10.374   1.541   4.151  0.0556 -0.0600 -0.0625
12442W        W13306  10.891  12.448   6.641 -0.2789 -0.1486 -0.2124
12443W        W13307   8.786   1.958   6.638  0.1287  0.0439  0.3919
12444W        W13308  10.293   5.648   4.747  0.1639 -0.2194  0.1633
12445W        W13309   7.917   3.767   6.912  0.0406  0.1240  0.1338
12446W        W13310   9.945   3.570   6.122  0.0867  0.3053  0.3114
12447W        W13311  10.258   0.029   6.940  0.0552  0.1212 -0.1427
12448W        W13312   7.951   2.237   7.202  0.1210  0.1438 -0.2621
12449W        W13313  10.963  13.874   5.770 -0.0180 -0.2393 -0.1792
12450W        W13314  10.540   4.601   6.548 -0.2452 -0.0271 -0.1233
12451W        W13315   8.135   2.203   7.803  0.0757 -0.0179  0.0385
12452W        W13316  11.951   2.051   3.416  0.1059 -0.0493  0.2208
12453W        W13317  11.445   1.895   8.004  0.1504  0.3093  0.2102
12454W        W13318   9.197   4.273   5.687 -0.1204 -0.2966 -0.2635
12455W        W13319   8.343  13.204   3.224  0.1647 -0.1115  0.3737
12456W        W13320   7.875  11.837   3.013  0.0921  0.1397  0.2636
12457W        W13321   9.908   0.003   8.360  0.3105  0.0242 -0.1614
12458W        W13322   9.134   4.381   2.532 -0.5283  0.0957 -0.0495
12459W        W13323   8.089   2.974   1.520  0.0518  0.1357  0.1538
12460W        W13324   7.530   0.851   9.409 -0.1116 -0.3046 -0.1115
12461W        W13325   7.490  13.617   3.839 -0.1527  0.0995  0.1945
12462W        W13326  11.622  12.695   5.495  0.0566  0.2806  0.3828
12463W        W13327   8.982   2.816   6.951 -0.2337  0.0964  0.2034
12464W        W13328   7.902   2.448   5.577 -0.4452  0.0571  0.3276
12465W        W13329   9.720   1.393   8.073  0.1967 -0.2529  0.0666
12466W        W13330  10.207   3.117   5.618 -0.0920 -0.0298 -0.1567
12467W        W13331   6.394   1.357   6.362 -0.2054 -0.2412  0.3236
12468W        W13332   8.362   2.330   5.724 -0.1683 -0.0124 -0.1914
12469W        W13333   5.185  13.829   3.468  0.0270  0.1944  0.0611
12470W        W13334   7.239  13.872   4.998  0.0339 -0.1170  0.0308
12471W        W13335   9.716   0.906   7.256 -0.0562 -0.2043  0.0709
12472W        W13336   5.061   3.920   4.310 -0.1179 -0.0420  0.3799
12473W        W13337   8.667   0.845   3.878  0.1474 -0.0204 -0.3103
12474W        W13338   9.541  11.570   3.640  0.2729  0.1159  0.2798
12475W        W13339   8.175   2.548   3.718  0.0579  0.0349  0.2170
12476W        W13340  11.184   1.535   9.094  0.1519  0.0000 -0.0697
12477W        W13341   7.285   2.148   7.205  0.1291  0.2527 -0.1799
12478W        W13342  11.343   2.763  10.611 -0.0488  0.1532 -0.0754
12479W        W13343  10.039   3.453   7.722  0.1585  0.0817  0.1896
12480W        W13344   8.517  11.544   9.240 -0.0975 -0.2586 -0.0584
12481W        W13345   6.923   2.082   5.307  0.4228 -0.0456 -0.0147
12482W        W13346   8.444  13.269   5.625 -0.0446  0.3486  0.0003
12483W        W13347   8.171   2.902   4.076  0.2249  0.2448 -0.1032
12484W        W13348  11.860   3.136   7.025  0.2318  0.0569 -0.3522
12485W        W13349   7.957   4.098   5.635 -0.1644 -0.0031  0.1489
12486W        W13350   8.864  13.204   5.297  0.0930 -0.2805  0.4401
12487W        W13351   7.091   0.394   5.001 -0.1623  0.0446  0.0187
12488W        W13352   9.039   1.565   3.497 -0.1834  0.2986  0.2182
12489W        W13353  10.691   2.231   5.399  0.0970 -0.0339  0.0947
12490W        W13354   6.678  11.709   4.099 -0.1509 -0.3082  0.0081
12491W        W13355  12.622   1.396   4.127  0.3916 -0.0998  0.1101
12492W        W13356   6.129   3.910   7.751 -0.1266 -0.0169  0.0217
12493W        W13357   7.090   4.109   5.904  0.1139 -0.2668  0.1882
12494W        W13358   8.089   6.822   4.262  0.1095 -0.2688  0.0884
12495W        W13359   8.447   2.571   8.657  0.0427 -0.0330  0.2853
12496W        W13360   8.639   3.851   3.736 -0.1475  0.0515  0.1098
12497W        W13361   9.747   1.548   3.015  0.3666 -0.0034  0.2553
12498W        W13362   7.762   4.106   2.309  0.0372 -0.0677  0.2795
12499W        W13363   6.558   2.864   5.479  0.0717 -0.0944 -0.1279
12500W        W13364   8.576  12.265   2.960  0.0689 -0.1576 -0.2095
12501W        W13365  10.562   2.522   8.781 -0.0128 -0.1098 -0.2684
12502W        W13366  12.429   2.382   4.532  0.0897  0.0335  0.1930
12503W        W13367   9.843   0.651   4.125  0.0766 -0.2190  0.2164
12504W        W13368  10.018   2.089   7.016  0.3220 -0.0574  0.2789
12505W        W13369   8.097   1.908   2.900 -0.2113  0.2476  0.2091
12506W        W13370  10.171   3.705   2.688 -0.1669 -0.1035  0.2020
12507W        W13371   7.273   5.514   6.271 -0.0497 -0.0175 -0.0879
12508W        W13372   9.161   0.507   6.644  0.2603  0.0472  0.2506
12509W        W13373   7.747   0.788   6.606 -0.2070 -0.0434 -0.4279
12510W        W13374   9.478   0.023   7.493 -0.0403  0.0355 -0.1159
12511W        W13375   9.557  12.213   8.867 -0.0646 -0.0084  0.0947
12512W        W13376   7.760  12.946   6.041 -0.1577  0.3157 -0.0118
12513W        W13377   7.794  13.214   6.913 -0.2753  0.1848  0.3366
12514W        W13378   7.725   2.663   4.159  0.0851  0.2883 -0.2996
12515W        W13379   9.710   0.636   6.798  0.1768  0.0492 -0.1080
12516W        W13380   8.523   1.135   6.416 -0.0851 -0.3464  0.1934
12517W        W13381   9.874   0.374   5.522 -0.2432  0.1225 -0.1175
12518W        W13382  10.725   1.633   6.350  0.0304 -0.1021  0.2390
12519W        W13383   9.057  13.216   5.731  0.1261  0.1291 -0.0941
12520W        W13384   8.361   0.733   6.186 -0.0065 -0.1314 -0.1014
12521W        W13385   7.516   1.834   2.023 -0.0668  0.2122 -0.3328
12522W        W13386   7.134   3.704   5.515  0.2687  0.1877 -0.1695
12523W        W13387   8.205   1.857   6.093  0.1457  0.0579  0.3138
12524W        W13388   8.571   5.746   5.860  0.1070 -0.2288  0.0554
12525W        W13389   7.790   2.465   4.646  0.1880 -0.1056 -0.2876
12526W        W13390   7.988   3.056   7.375  0.1073  0.2532  0.2319
12527W        W13391   5.822   1.539   3.961  0.1610  0.2086  0.0346
12528W        W13392   8.745   3.160   2.845 -0.0756  0.3160  0.2179
12529W        W13393   8.701   3.389   6.469 -0.0023 -0.2308  0.1526
12530W        W13394  10.550  13.799   7.307 -0.4082  0.0677  0.2784
12531W        W13395   8.069   3.396   5.595 -0.0874  0.0229  0.0066
12532W        W13396  10.179   1.215   2.757  0.3631  0.5553 -0.0478
12533W        W13397  11.020   3.867   4.090 -0.0283 -0.0798  0.0113
12534W        W13398   8.875   4.080   6.056 -0.1524  0.2111  0.0913
12535W        W13399   7.817   4.344   5.174  0.1047 -0.0962 -0.0067
12536W        W13400   9.469  13.646   8.067 -0.0154 -0.1060  0.0307
12537W        W13401  11.300  12.942   4.325 -0.0044  0.2102 -0.0330
12538W        W13402   6.537   3.851   6.177 -0.1120 -0.0945 -0.0858
12539W        W13403   5.569  12.385   4.403  0.3007 -0.2317  0.1337
12540W        W13404  11.220   1.377   4.919  0.0367  0.0404 -0.1844
12541W        W13405   9.951   0.278   7.962  0.0516 -0.0242 -0.0451
12542W        W13406   9.178   4.510   6.124 -0.0827 -0.1370 -0.0437
12543W        W13407   9.808   2.535   6.902  0.1422 -0.0771  0.2300
12544W        W13408   7.383   0.582   3.926 -0.0059 -0.0968 -0.0104
12545W        W13409  10.399  12.647   4.189  0.1683  0.0099 -0.0814
12546W        W13410   8.191   0.475   8.031 -0.2825 -0.0593  0.1068
12547W        W13411  11.880   4.406   6.190 -0.1449 -0.0556  0.3790
12548W        W13412   8.568   2.895   4.378 -0.2011  0.0183 -0.3950
12549W        W13413   8.675   4.783   8.963  0.1413 -0.2534 -0.0022
12550W        W13414   9.454  13.518   7.548  0.5346 -0.2665  0.0175
12551W        W13415   9.414   1.773   4.665  0.0336  0.1244  0.1884
12552W        W13416  12.893  13.896   4.540 -0.4168 -0.1517 -0.5150
12553W        W13417   8.153   1.112   6.737  0.3971 -0.2985 -0.1639
12554W        W13418  12.442   3.033   4.639 -0.0438  0.1276  0.0432
12555W        W13419  13.502   2.273   6.691 -0.1933 -0.1070 -0.0528
12556W        W13420   6.615   2.994   1.113 -0.1268 -0.1921  0.0457
12557W        W13421   6.892   4.317   4.130  0.0906  0.1103  0.0561
12558W        W13422   9.247   0.529   8.036  0.1169  0.0036  0.0032
12559W        W13423   8.562  12.783   5.349 -0.0798 -0.0991  0.1158
12560W        W13424  11.092   3.193   6.275  0.0481 -0.2608 -0.2717
12561W        W13425   8.196  13.804   4.856  0.0817  0.2336 -0.0812
12562W        W13426   8.481   1.385   2.338  0.1471  0.0260 -0.1819
12563W        W13427   8.324   2.973   5.253 -0.2538  0.0459 -0.0331
12564W        W13428   6.604   2.347   3.331  0.0884  0.0179 -0.0125
12565W        W13429   8.924   3.422   5.151  0.2122 -0.2806  0.0070
12566W        W13430   7.031   3.942   2.281  0.4929  0.1996  0.0567
12567W        W13431   8.666   1.304   5.440  0.1585  0.1087  0.2286
12568W        W13432  12.528   3.302   5.968  0.3626 -0.1531  0.1224
12569W        W13433  10.839   0.584   8.376 -0.3070  0.0438 -0.0569
12570W        W13434   6.758   1.869   3.383 -0.0222 -0.2240  0.0373
12571W        W13435  10.584   4.151   5.243 -0.1574  0.0003  0.3597
12572W        W13436   9.661  13.833   3.140 -0.1347  0.1662 -0.0857
12573W        W13437   9.271  12.391   7.582  0.0212  0.1381  0.1859
12574W        W13438  11.112   2.923   5.916  0.3693  0.0307 -0.2413
12575W        W13439  10.996   2.480   2.908 -0.0858  0.0213  0.0583
12576W        W13440   7.992   3.367   5.035  0.2356 -0.0798 -0.0472
12577W        W13441   8.928   1.192   9.175 -0.0014  0.0892 -0.0743
12578W        W13442   8.812   2.157   5.614  0.0641  0.3003  0.1561
12579W        W13443   6.808  12.636   4.851  0.0664 -0.1504 -0.1814
12580W        W13444   7.882   3.374   1.908  0.0075 -0.0478 -0.0366
12581W        W13445   4.678   2.990   7.089 -0.1587 -0.3293 -0.0957
12582W        W13446   5.801   3.009   3.522  0.0271 -0.0973  0.3628
12583W        W13447  11.639   3.229   3.592 -0.0025  0.0633 -0.1536
12584W        W13448   9.036  13.758   6.086  0.0503 -0.0039  0.0336
12585W        W13449  11.993   3.376   6.144 -0.0271 -0.1054  0.2910
12586W        W13450   8.823  13.707   2.970  0.2398 -0.2046  0.3104
12587W        W13451  10.161   3.342   6.606  0.1177  0.0496 -0.3183
12588W        W13452   8.591   2.280   4.046  0.0226 -0.1314 -0.1469
12589W        W13453   6.873   2.551   2.990 -0.2377 -0.0731  0.1494
12590W        W13454  10.480   3.798   6.825  0.0916  0.1289  0.0734
12591W        W13455   7.401   1.074   9.001  0.2077  0.1150 -0.2582
12592W        W13456   7.643   2.266   6.855 -0.0318 -0.1527  0.0755
12593W        W13457   9.094   2.110   2.761 -0.1317  0.1646  0.0154
12594W        W13458   8.696   1.735   0.981 -0.3367  0.2375  0.0628
12595W        W13459   7.470   2.666   2.996 -0.1549 -0.1663 -0.2055
12596W        W13460   6.493   0.150   5.073 -0.1993  0.0026 -0.0889
12597W        W13461   7.939  10.715   3.056 -0.1889  0.1005  0.0158
12598W        W13462   6.095   2.684   5.818 -0.0868 -0.0948 -0.2318
12599W        W13463   8.383   3.651   4.851 -0.0728 -0.1692 -0.0697
12600W        W13464   9.904   0.328   4.489  0.2803 -0.2504 -0.0451
12601W        W13465  10.590   0.549   5.151 -0.0369  0.0383 -0.0514
12602W        W13466  10.205   2.091   5.107 -0.2780 -0.1240 -0.1529
12603W        W13467   9.177   0.293   9.003  0.1066 -0.1460 -0.0541
12604W        W13468  10.669   0.881   4.839  0.0252  0.1915 -0.0407
12605W        W13469   9.769   3.094   6.892  0.0111 -0.3523  0.0710
12606W        W13470   9.207   0.384   3.415 -0.0120 -0.1661  0.0034
12607W        W13471   9.768  12.139   3.550  0.1148 -0.2110 -0.0435
12608W        W13472   9.844   1.980   4.520  0.1334 -0.2217 -0.1203
12609W        W13473   6.792   1.104   4.441 -0.2342 -0.0876  0.0874
12610W        W13474   9.092   4.155   4.366 -0.1977  0.0199 -0.2568
12611W        W13475  10.437  12.855   4.646  0.7428 -0.3145  0.0552
12612W        W13476   9.331  13.241   5.184 -0.2663 -0.0410 -0.0381
12613W        W13477  12.122   1.218   5.945  0.0709  0.1384  0.1818
12614W        W13478   9.763   2.762   3.833 -0.2161  0.1446  0.2627
12615W        W13479   7.985   2.716   3.238  0.0490 -0.2984 -0.0369
12616W        W13480   6.427   5.044   5.762 -0.0843  0.1013  0.0568
12617W        W13481   9.262  12.725   6.419 -0.1664 -0.2077 -0.1542
12618W        W13482   6.837   3.404   7.693  0.1678 -0.1078 -0.0243
12619W        W13483  12.279   3.467   5.367 -0.1426 -0.0146 -0.2566
12620W        W13484  11.279   2.472   2.263  0.1713 -0.0112  0.1558
12621W        W13485   8.060   2.268   8.650  0.0788  0.2617 -0.1501
12622W        W13486  11.859   2.775  10.704 -0.3272  0.1067  0.1492
12623W        W13487   6.012  12.995   5.487  0.0462  0.0065 -0.2377
12624W        W13488   8.646  13.532   6.939 -0.2775 -0.2238 -0.0473
12625W        W13489   6.007   2.778   5.319 -0.1056 -0.1663  0.1358
12626W        W13490   7.103  13.485   4.137  0.0671 -0.0730 -0.2603
12627W        W13491   7.104   1.725   6.911  0.4613 -0.1837 -0.1806
12628W        W13492   8.865  13.355   4.824  0.1653  0.0211 -0.0771
12629W        W13493   8.457   0.692   5.326  0.2900 -0.1106  0.1446
12630W        W13494   9.862   3.551   4.537  0.0410  0.0925 -0.3245
12631W        W13495   6.685   1.722   6.145 -0.0491 -0.1715  0.3211
12632W        W13496   7.211   0.709   4.578  0.0032  0.0673  0.3667
12633W        W13497  10.293  13.559   4.678 -0.2091 -0.0790 -0.0064
12634W        W13498  12.041   5.063   5.599  0.0084  0.1071  0.1364
12635W        W13499  11.409  13.765   5.595  0.2919 -0.3457  0.4138
12636W        W13500   6.956   2.710   8.128  0.1268  0.2106 -0.1551
12637W        W13501   9.024   2.062   3.829 -0.3646  0.2242 -0.3138
12638W        W13502   9.924   0.822   5.392  0.2526 -0.3312 -0.0970
12639W        W13503   7.907   1.307   5.421 -0.0109 -0.2385 -0.2013
12640W        W13504   8.813   1.152   2.125  0.0794  0.0919 -0.1377
12641W        W13505   8.059   2.515   8.164 -0.0384 -0.2276  0.2082
12642W        W13506   8.914   1.927   2.363 -0.2282  0.4964  0.0893
12643W        W13507   7.519   2.360   5.919 -0.1773 -0.1482 -0.0494
12644W        W13508   8.798  13.103   3.462 -0.0661 -0.0081  0.0684
12645W        W13509   8.956   0.470   5.768  0.0709 -0.1290 -0.0561
12646W        W13510   9.296   1.347   7.833 -0.0704  0.1065 -0.2310
12647W        W13511  11.729   2.754   3.915 -0.0866  0.2591  0.1164
12648W        W13512  11.617   0.330  10.361  0.0742 -0.2731  0.0370
12649W        W13513   9.468   2.228   6.369  0.1292  0.0772  0.1670
12650W        W13514  11.223   2.587   8.208  0.1642  0.3310  0.2619
12651W        W13515  10.823   0.094   6.847  0.1310  0.0117  0.2086
12652W        W13516   9.870   2.390   5.413 -0.0400 -0.1697 -0.1090
12653W        W13517  11.274   1.948   4.308  0.0773  0.0391  0.1370
12654W        W13518   9.791   1.468   6.629  0.2642  0.0742 -0.1455
12655W        W13519  10.000  13.758   4.295  0.2453  0.2126 -0.5112
12656W        W13520   9.609   1.047   3.843  0.1205  0.0957 -0.0329
12657W        W13521  10.407  12.792   3.526  0.0220 -0.3460  0.0878
12658W        W13522   8.287  13.142   6.083 -0.0156  0.1148 -0.1673
12659W        W13523   8.600   3.200   4.855  0.1467  0.1389  0.2768
12660W        W13524   8.265   3.686   3.431 -0.1645  0.1059  0.1832
12661W        W13525   7.413   2.823   6.077 -0.0754 -0.0346 -0.0751
12662W        W13526   7.957   3.027   7.912  0.0545  0.0025 -0.4482
12663W        W13527   6.596  13.496   4.362 -0.1630 -0.1306  0.0646
12664W        W13528   9.088   2.222   3.311  0.0527  0.0328 -0.0543
12665W        W13529   7.261   0.734   5.316  0.2256 -0.0102 -0.2741
12666W        W13530   8.204  14.003   6.021 -0.2272 -0.5744  0.3073
12667W        W13531   8.333  12.208   4.467 -0.0136  0.1164 -0.0646
12668W        W13532   8.329   1.962   7.023  0.2681  0.1421  0.0170
12669W        W13533   9.269   2.987   3.741  0.2183 -0.1706 -0.3490
12670W        W13534   7.572   3.451   6.550 -0.1904 -0.2484  0.0210
12671W        W13535   8.031   0.372   4.951  0.0243  0.0825  0.0327
12672W        W13536   7.772   5.420   5.062  0.0503  0.1764 -0.1000
12673W        W13537   9.376   4.327   7.355 -0.0194 -0.1606  0.0793
12674W        W13538   5.958   0.504   6.517  0.0249 -0.2356 -0.1826
12675W        W13539   9.453  13.512   5.593  0.0744  0.0123  0.1127
12676W        W13540   6.200  13.432   5.248  0.1333 -0.2991  0.0074
12677W        W13541  10.525   4.321   9.858  0.0800  0.1806 -0.2644
12678W        W13542   9.592  13.871   4.545 -0.2480 -0.1577 -0.1699
12679W        W13543   8.969   0.774   8.401 -0.1107 -0.0001 -0.2415
12680W        W13544   7.253   4.581   7.107 -0.3277  0.1029  0.1852
12681W        W13545   8.720   2.118   8.632 -0.0684 -0.0226 -0.2482
12682W        W13546   9.552   6.188   5.475  0.1141 -0.0684  0.0697
12683W        W13547   8.802   3.102   7.972 -0.1184 -0.0551  0.1270
12684W        W13548   6.656  13.110   4.674  0.1204 -0.0223  0.4030
12685W        W13549  10.117  13.688   5.681  0.1789 -0.0758  0.0409
12686W        W13550   6.741   2.101   4.865 -0.0783 -0.0332  0.1252
12687W        W13551   8.337  13.916   3.309  0.1335 -0.2110 -0.0462
12688W        W13552   9.130   2.514   4.502 -0.3679 -0.2633  0.0956
12689W        W13553   0.869   3.296   6.866 -0.4022 -0.2008 -0.2612
12690W        W13554   6.391   2.749  13.780 -0.0090 -0.2633  0.1578
12691W        W13555  10.678   3.150   5.337 -0.2003  0.2192  0.0237
12692W        W13556   7.203   3.781   7.426  0.0069  0.1489  0.1772
12693W        W13557  12.853   3.583   6.441 -0.1296  0.1025 -0.2620
12694W        W13558  10.629   0.228   5.865  0.1242  0.1309 -0.3876
12695W        W13559   8.826   1.797   8.247  0.3625 -0.0045 -0.0428
12696W        W13560   6.976   1.867   2.911 -0.0166 -0.3059  0.2087
12697W        W13561   9.132   2.961   1.491  0.2519 -0.2921  0.2254
12698W        W13562   8.982   1.286   3.960 -0.0039  0.0474  0.2322
12699W        W13563   9.496   1.078   6.853 -0.2565 -0.0209  0.0015
12700W        W13564   9.787   6.013   6.698 -0.0725  0.0106  0.0898
12701W        W13565  10.264   3.184   8.374  0.1825 -0.0882 -0.0291
12702W        W13566  10.117   3.356   5.147 -0.0530 -0.0197  0.3710
12703W        W13567   9.604   5.796   9.352 -0.1118 -0.1924  0.1405
12704W        W13568   8.922   4.024   8.171 -0.3666  0.1047 -0.0430
12705W        W13569  10.163   4.032   5.918 -0.2264 -0.0622 -0.0313
12706W        W13570   8.748   1.646   8.848 -0.0601  0.0049  0.0741
12707W        W13571  10.751   4.645   3.840  0.2220 -0.0465 -0.1081
12708W        W13572   8.977   1.735   4.269  0.3009  0.1577  0.0098
12709W        W13573  10.915   6.561   7.402  0.0822  0.1148 -0.3505
12710W        W13574   9.473   3.270   4.383 -0.2178  0.0380  0.1589
12711W        W13575  10.991   0.521   9.056 -0.2371 -0.4419  0.2435
12712W        W13576   8.777   4.813   3.105  0.2160  0.0213 -0.0911
12713W        W13577  10.193   3.997   7.935  0.2422 -0.1391 -0.2881
12714W        W13578  10.320   3.266   4.536  0.1432  0.1945  0.1731
12715W        W13579   7.766   1.013   3.345  0.0898 -0.1244 -0.0917
12716W        W13580   6.912   2.786  12.474 -0.0322  0.1743 -0.1776
12717W        W13581   7.768   0.332  10.356  0.1362 -0.0105  0.0173
12718W        W13582   0.157   1.643   7.705 -0.0337 -0.0173 -0.1767
12719W        W13583  11.368   3.019   9.563  0.2750  0.1353  0.0697
12720W        W13584   7.999   3.595   6.054  0.2811 -0.1947 -0.1451
12721W        W13585   8.891   0.661   8.896  0.0655  0.1424 -0.1208
12722W        W13586   6.717   0.987   8.464 -0.1558  0.0116 -0.0817
12723W        W13587   9.179   5.189   7.689  0.1372 -0.2338  0.1545
12724W        W13588   4.215   2.751   9.839 -0.2605 -0.2206  0.1659
12725W        W13589   8.234  13.208  10.527  0.0217 -0.1060  0.0328
12726W        W13590   7.903   0.895   8.923  0.1474 -0.0547  0.2096
12727W        W13591   8.814  12.848   8.719  0.0488 -0.1108  0.1099
12728W        W13592   9.421   3.432   9.722 -0.0174  0.0976  0.0422
12729W        W13593   9.724   2.372  12.135  0.0058 -0.1133  0.4261
12730W        W13594   5.097   1.193   9.589 -0.0919  0.1314  0.0424
12731W        W13595   7.418   2.678  12.377  0.0329 -0.2900  0.0482
12732W        W13596   7.616   0.121   9.132 -0.2008 -0.2561  0.2474
12733W        W13597   4.620   0.968  11.785 -0.2185 -0.0277  0.1914
12734W        W13598   9.040   1.815  12.605 -0.0510  0.0284 -0.3314
12735W        W13599   8.543   1.583   7.292 -0.0385 -0.2969 -0.0612
12736W        W13600   9.156   4.581   9.061 -0.0324 -0.2524  0.0945
12737W        W13601   7.300   1.294  10.015 -0.0852  0.2412 -0.1361
12738W        W13602   6.970   2.958   9.118  0.0736 -0.0152 -0.0302
12739W        W13603   8.309   5.457   8.691  0.1125  0.3477 -0.0381
12740W        W13604   4.354   0.389   9.182 -0.2129 -0.0819 -0.2607
12741W        W13605   8.491   1.181   9.650  0.1191  0.4654  0.6123
12742W        W13606  10.674   0.696  10.473 -0.0027  0.0174  0.4156
12743W        W13607   9.126   3.811   9.518 -0.1868  0.1687  0.0765
12744W        W13608   9.483   0.422   5.872 -0.1987 -0.0594  0.1512
12745W        W13609   8.626   1.036   8.719 -0.3961  0.1620  0.0589
12746W        W13610   9.143   3.356  11.503 -0.2222 -0.0504 -0.3318
12747W        W13611  11.947   2.062   8.439  0.2786  0.0085 -0.0610
12748W        W13612   8.884   1.839  13.130  0.0558  0.2031 -0.2741
12749W        W13613   9.630   1.672  10.045 -0.3096  0.1052 -0.1814
12750W        W13614   8.595   0.806   9.963  0.3544 -0.2045 -0.3830
12751W        W13615   7.480   3.861   9.025 -0.2284 -0.5789  0.1534
12752W        W13616   9.037  13.426   9.923 -0.3752  0.1887 -0.1027
12753W        W13617   7.751   2.574   8.931  0.2023 -0.2268  0.2908
12754W        W13618   9.940   5.126   7.242  0.1047  0.0186  0.0701
12755W        W13619   9.758   0.226   7.112  0.2612  0.1180  0.0703
12756W        W13620   9.289   0.899   5.877 -0.0847 -0.1582 -0.1936
12757W        W13621  13.335   0.526   9.724  0.2170 -0.2624 -0.3429
12758W        W13622   9.335   2.997   9.517 -0.1210 -0.0671 -0.0568
12759W        W13623  13.736   0.964   6.613 -0.1421 -0.0465  0.0722
12760W        W13624   8.421   2.269  10.167 -0.0366  0.1606  0.1820
12761W        W13625   6.627   5.475   7.768  0.0441  0.4564  0.1260
12762W        W13626   7.014   0.965   9.439 -0.2580 -0.0727 -0.0965
12763W        W13627  11.412   2.001  11.082  0.2591 -0.0468 -0.1939
12764W        W13628   9.832   2.446  10.414  0.0730  0.0743  0.1055
12765W        W13629   9.863   3.105   8.825  0.0044  0.2502  0.0774
12766W        W13630   8.068  13.924  11.703  0.0620 -0.0643 -0.0092
12767W        W13631  10.012   1.581   9.750  0.0070  0.0140 -0.3714
12768W        W13632   9.859   3.972   8.749  0.1770  0.0493 -0.0761
12769W        W13633  10.442   5.236   8.282  0.1894 -0.0079  0.0565
12770W        W13634   9.650   3.498  11.091 -0.0627  0.0982 -0.0751
12771W        W13635  11.628   3.239   8.742 -0.0438  0.0008  0.1169
12772W        W13636   6.360   0.926   8.754 -0.0709  0.1358  0.0944
12773W        W13637   7.368   1.350   9.465 -0.1434 -0.0751 -0.0005
12774W        W13638  12.882   1.378   8.990  0.1135 -0.1466  0.2406
12775W        W13639   8.616   3.617  12.020 -0.1932  0.1577  0.0703
12776W        W13640   8.174   3.615  10.222 -0.1297  0.1363  0.0823
12777W        W13641   7.630   3.559  10.843  0.0304 -0.0107 -0.0554
12778W        W13642   8.393   1.588  10.302  0.0499 -0.0202  0.1346
12779W        W13643  11.972  13.660   8.760  0.1306 -0.0756 -0.1977
12780W        W13644   9.877   3.738   7.377  0.1921 -0.3361 -0.2921
12781W        W13645   9.135   1.117   8.759 -0.3493 -0.1144 -0.0211
12782W        W13646   7.844   3.883  11.183 -0.2767 -0.1442  0.1016
12783W        W13647   8.485   4.167   8.957  0.3050 -0.3115  0.0989
12784W        W13648   9.874   2.047  10.766 -0.0179 -0.1397 -0.3554
12785W        W13649  11.275   0.846  10.370 -0.1491  0.1211 -0.0570
12786W        W13650  10.941   3.638  10.225  0.2384  0.1236  0.3892
12787W        W13651  11.013   1.196  12.048  0.3722 -0.3137  0.0988
12788W        W13652  11.055   2.493   8.686 -0.0883  0.1028  0.1342
12789W        W13653   9.594   1.927   6.779  0.2289 -0.0424  0.0802
12790W        W13654   6.399   2.451   7.504 -0.0348 -0.2261 -0.0557
12791W        W13655   9.734   4.326  10.194  0.0311  0.0612  0.1548
12792W        W13656   8.356   2.298   6.390 -0.0525 -0.0574  0.0418
12793W        W13657   7.193   1.285   8.338  0.2754  0.0859 -0.0923
12794W        W13658   7.404  13.332  12.243  0.0503  0.1115 -0.1353
12795W        W13659   7.484   0.531  11.265 -0.2701  0.0262 -0.0790
12796W        W13660   6.983   0.377   6.936  0.0201 -0.0228  0.2704
12797W        W13661  10.657   1.059  11.704  0.3360 -0.3183 -0.1260
12798W        W13662  12.130   3.117  11.318 -0.0806 -0.1509  0.0058
12799W        W13663   7.525   0.248   6.668 -0.0063 -0.0908  0.0591
12800W        W13664  12.662   2.954  11.274 -0.1695 -0.1796 -0.1375
12801W        W13665  10.143  12.153  12.520 -0.1525  0.3162 -0.1046
12802W        W13666  10.757   2.112  10.729  0.3813 -0.0068  0.1522
12803W        W13667   7.783   0.933  11.252  0.2825  0.1651  0.1004
12804W        W13668   9.905  11.231   8.719  0.1202 -0.2995  0.2354
12805W        W13669  10.751   2.502   8.213  0.2338 -0.2171 -0.2021
12806W        W13670   9.153   3.778  11.843  0.0389  0.2468 -0.2015
12807W        W13671   9.037   3.066  10.065 -0.0476  0.0561 -0.0003
12808W        W13672   8.635  12.731  11.605  0.0605  0.0461  0.1784
12809W        W13673  10.935   0.545   7.813  0.3368 -0.1129 -0.2679
12810W        W13674  12.559   2.256  10.820 -0.1387  0.1677  0.2001
12811W        W13675   9.710   4.724   9.109 -0.1843 -0.1152 -0.0769
12812W        W13676   8.464   0.700   7.609  0.1653  0.2292  0.1144
12813W        W13677  11.065   2.085   8.314 -0.4621  0.1111 -0.0247
12814W        W13678   9.912   4.219   7.182  0.2115  0.0128 -0.2267
12815W        W13679   9.390   1.816  10.438  0.3282 -0.0844  0.0207
12816W        W13680  10.224   2.214   9.965 -0.2930  0.1679  0.1401
12817W        W13681  13.448   3.548   9.656  0.1473 -0.1993 -0.3337
12818W        W13682  12.056   2.933   8.849  0.2312  0.0916 -0.2191
12819W        W13683   8.718   0.156  12.594 -0.0219  0.1251  0.0641
12820W        W13684  11.082   3.591   7.446 -0.0797 -0.0070  0.0147
12821W        W13685  11.815   2.534  12.053  0.0085  0.1524  0.1152
12822W        W13686  11.423   1.264   8.599 -0.1509 -0.0678  0.2838
12823W        W13687   6.839   2.902   8.576 -0.1719 -0.2178  0.1060
12824W        W13688   7.107   0.566   9.152 -0.1639  0.2030  0.1036
12825W        W13689   9.570   3.488   8.763 -0.0125  0.1922  0.0315
12826W        W13690  10.770   1.603  10.427 -0.0855 -0.0773 -0.0323
12827W        W13691   9.374   3.067   8.964 -0.1573  0.1660  0.2544
12828W        W13692  10.620   1.797   8.226 -0.1010  0.1209 -0.0960
12829W        W13693   6.535   2.499   8.401  0.4228  0.2098  0.0260
12830W        W13694   9.952   1.006  10.695 -0.0834  0.0322 -0.1212
12831W        W13695  10.537   2.362   9.610 -0.1006 -0.0977 -0.0181
12832W        W13696   9.885   3.300   9.671  0.0277  0.0207  0.0291
12833W        W13697  11.223   1.473   8.209  0.1530 -0.2602 -0.2639
12834W        W13698   8.167   1.993   9.453 -0.0344  0.0197 -0.2281
12835W        W13699   9.060   2.216   8.249 -0.3402  0.0630  0.3835
12836W        W13700  10.646   3.249  10.028  0.1717  0.0994  0.1256
12837W        W13701  11.742   2.800   7.865  0.1916  0.0484  0.0702
12838W        W13702   8.150   3.294   8.391 -0.4171 -0.0375 -0.0099
12839W        W13703  12.784   1.360   9.967 -0.0115 -0.0543 -0.0845
12840W        W13704   7.726   1.172   9.733  0.2621  0.4053  0.0253
12841W        W13705   8.979   2.389  10.042  0.0317 -0.1718  0.0140
12842W        W13706  12.043   3.249   8.465 -0.2828  0.2313 -0.4942
12843W        W13707   9.300   3.214   7.916  0.1296 -0.1564  0.0642
12844W        W13708  12.232   3.068   8.009 -0.0944 -0.1203 -0.1399
12845W        W13709   9.313   1.104  13.132 -0.0507  0.0592  0.0792
12846W        W13710   8.462   4.224  10.660 -0.2548  0.3267 -0.0281
12847W        W13711  11.101  13.450   8.580  0.4172 -0.2122  0.4176
12848W        W13712  11.571   0.425   9.750 -0.0234  0.1900 -0.1133
12849W        W13713   5.494   0.700  11.081  0.1413  0.0854 -0.0246
12850W        W13714  11.027   1.035   7.999  0.2773  0.0703  0.0154
12851W        W13715   8.801   0.756  11.285  0.1732 -0.2500 -0.1141
12852W        W13716   9.109   3.385   9.205 -0.0048  0.1985  0.0340
12853W        W13717   8.759   0.487   7.131 -0.0361  0.2365  0.0265
12854W        W13718   8.955  13.451   9.273 -0.1303  0.1648  0.0781
12855W        W13719   5.196  13.553  11.483  0.2877 -0.2006  0.0437
12856W        W13720   7.587   4.189   7.180  0.0263 -0.1870 -0.2649
12857W        W13721   6.722   3.353   9.259 -0.1652 -0.2541  0.1039
12858W        W13722   7.890   2.082  10.446 -0.3156 -0.2257  0.1418
12859W        W13723   6.261   1.668   6.716  0.0096  0.1442 -0.1696
12860W        W13724   9.608  12.852  10.352 -0.0104 -0.0876 -0.2058
12861W        W13725   9.644   5.287   9.642  0.1817 -0.1873  0.2034
12862W        W13726   9.328   3.923   8.640 -0.3012 -0.3347  0.1438
12863W        W13727  11.081   0.033   8.949  0.2249 -0.0828  0.1028
12864W        W13728   9.754   2.904   9.279  0.2908  0.1515  0.2343
12865W        W13729   8.951   1.019   7.912  0.0074  0.1232 -0.0117
12866W        W13730  12.876   1.651   7.106 -0.2401 -0.2354  0.2192
12867W        W13731  10.135   0.735   7.747 -0.1399  0.0652 -0.0965
12868W        W13732  11.983   0.204   9.469  0.0464 -0.2397  0.1500
12869W        W13733   9.706   0.543   8.330 -0.0599  0.1544  0.1024
12870W        W13734   7.655   0.916  10.312 -0.0659  0.0425  0.2746
12871W        W13735   8.135   3.649   7.436  0.3375 -0.1045 -0.0895
12872W        W13736   8.962   0.355   5.212  0.0498  0.1024  0.0829
12873W        W13737   9.790   1.580  10.879 -0.3591 -0.1191 -0.0585
12874W        W13738  11.164   1.562  11.014 -0.2583  0.3051  0.3903
12875W        W13739   9.419   4.871   9.468 -0.0295 -0.0213 -0.3416
12876W        W13740   6.092   0.798  11.168  0.2212 -0.2283  0.0127
12877W        W13741   8.912   1.307  11.184  0.0497  0.1732 -0.0645
12878W        W13742   8.561   0.551  11.759  0.0415  0.0261 -0.0593
12879W        W13743   5.957  13.760   8.116 -0.1422  0.0671 -0.4369
12880W        W13744   5.864  11.344   9.694  0.0179  0.2207 -0.0313
12881W        W13745   9.659   3.702  10.056 -0.0342 -0.0280  0.1047
12882W        W13746   8.612   1.143  11.567 -0.1623 -0.2276  0.0496
12883W        W13747   7.440   1.902   8.130 -0.1122 -0.0434  0.2240
12884W        W13748   5.873  13.186   9.297 -0.1257  0.4300 -0.2487
12885W        W13749  10.314   3.586   9.626  0.0690 -0.1920 -0.1052
12886W        W13750   9.194   1.808   5.433  0.2420  0.0937  0.2307
12887W        W13751   8.439   0.559   8.547 -0.1984  0.3804  0.1816
12888W        W13752  13.391   1.580  10.743  0.1281  0.4979 -0.1642
12889W        W13753   6.184   1.242  10.906 -0.1523 -0.1151  0.0719
12890W        W13754   6.106   0.546   9.189 -0.0796 -0.1358 -0.1009
12891W        W13755   7.151   3.280   8.500  0.2167 -0.2923  0.1520
12892W        W13756   8.059   1.141  10.586 -0.0611 -0.0883 -0.1925
12893W        W13757   5.946   2.702   7.257  0.1126  0.1856 -0.0250
12894W        W13758  10.685   1.306   8.190  0.1192 -0.0397  0.0688
12895W        W13759   8.818   2.428  10.507 -0.0221  0.0116 -0.1040
12896W        W13760   7.122  13.102   4.432  0.1625  0.4555  0.0836
12897W        W13761  10.002  13.937   6.388 -0.1363 -0.1654  0.2842
12898W        W13762   9.252   3.110   8.446  0.1799  0.2323  0.0414
12899W        W13763   6.913   1.754  11.517  0.2110  0.4599  0.0926
12900W        W13764   7.720   0.116   7.988  0.2330 -0.2199 -0.0675
12901W        W13765   9.302   3.457  10.424 -0.1097  0.0044 -0.1310
12902W        W13766   7.072   7.101   8.494  0.1641  0.2125 -0.0761
12903W        W13767   4.891   1.192   5.312  0.0963  0.2936  0.0803
12904W        W13768   8.198   1.110   7.235 -0.2539 -0.2717 -0.0603
12905W        W13769   7.270   1.436  11.333 -0.3278  0.1150  0.0116
12906W        W13770   7.213   0.291  13.785 -0.0244  0.3510 -0.1865
12907W        W13771   7.517   1.742  10.881  0.0845 -0.3523 -0.3756
12908W        W13772   7.892   0.505   9.883  0.1507 -0.0271  0.1884
12909W        W13773   8.979  13.681   8.306 -0.1188 -0.1154 -0.0198
12910W        W13774   7.741   0.673  10.738 -0.0814 -0.1265 -0.0030
12911W        W13775   7.208   1.482   7.893  0.2490 -0.0929  0.0197
12912W        W13776   9.196   0.963  11.594 -0.1937 -0.0499  0.0152
12913W        W13777   7.483  13.423  13.456  0.0923  0.2456  0.3739
12914W        W13778  12.313   1.930  11.389  0.0503 -0.2727  0.0846
12915W        W13779   7.142   1.978   7.714 -0.0340 -0.1433  0.1832
12916W        W13780   8.027   0.470  12.022 -0.0784  0.0809  0.0580
12917W        W13781   6.389   0.408  10.259 -0.1136 -0.1405  0.1204
12918W        W13782   9.554   0.197   6.625  0.0799 -0.0830 -0.1734
12919W        W13783   9.577   3.557  11.621 -0.0374  0.0459  0.1500
12920W        W13784   8.412   2.282   7.376  0.0465 -0.0067  0.0702
12921W        W13785   9.093   1.038   6.547 -0.0782 -0.1679  0.1340
12922W        W13786   8.127   1.438   6.401 -0.4335  0.0140  0.1310
12923W        W13787   9.818   4.912  12.379  0.1318  0.0419 -0.0201
12924W        W13788   7.368   0.932  11.969 -0.2604 -0.3613 -0.0139
12925W        W13789  10.316   1.111   9.744 -0.0114  0.0328  0.0123
12926W        W13790  10.348   1.394  12.364  0.1456  0.0733 -0.0362
12927W        W13791  11.097   1.794  10.025 -0.1406  0.2503  0.2976
12928W        W13792  11.231   2.604   7.173 -0.0383 -0.0233  0.1523
12929W        W13793   9.394   2.711  10.151 -0.2104 -0.0647  0.0091
12930W        W13794   8.917   2.786   8.755  0.0998  0.4148  0.1271
12931W        W13795  10.604   3.452  13.035  0.0297 -0.0029 -0.0340
12932W        W13796  10.192   2.314  12.285  0.0108 -0.0304  0.0516
12933W        W13797  12.526   0.477  10.094 -0.0952 -0.1109 -0.2596
12934W        W13798  11.419   1.106  11.109  0.1830  0.0856  0.1347
12935W        W13799   8.345   2.869   8.139 -0.1535  0.1489 -0.2187
12936W        W13800  10.311   0.985   7.321 -0.3291 -0.0215 -0.3577
12937W        W13801  12.434   3.894   5.026 -0.0823  0.0660 -0.2056
12938W        W13802   6.323  13.846  11.739 -0.1956  0.0960  0.0979
12939W        W13803   9.834   2.091   9.694 -0.0681 -0.1151 -0.1571
12940W        W13804   9.414  12.996  12.227  0.0255 -0.1094 -0.1801
12941W        W13805   9.023   0.942   9.766 -0.0859  0.1680  0.0917
12942W        W13806   9.869   2.525   8.123  0.4696  0.0197 -0.3256
12943W        W13807   7.227  13.936   7.940 -0.0101  0.1305  0.0374
12944W        W13808   6.076   2.015  11.323 -0.3427 -0.1635  0.0976
12945W        W13809   9.479   4.835   6.483  0.3244  0.0263  0.0088
12946W        W13810   9.221   2.601   9.183 -0.0009 -0.0713  0.1526
12947W        W13811   5.934   1.242  11.626 -0.3100  0.1449 -0.2232
12948W        W13812  10.626   2.667  10.020  0.1518 -0.4144  0.1152
12949W        W13813  10.188   2.730   9.039  0.1895  0.1932  0.1670
12950W        W13814   8.961   1.040  10.746 -0.0742  0.1790  0.2010
12951W        W13815   8.620   3.478  11.541  0.1763 -0.1518 -0.2698
12952W        W13816   9.709   4.232   9.205  0.2569  0.2236 -0.0492
12953W        W13817  10.289   2.324   5.751 -0.1627 -0.1138  0.0832
12954W        W13818   6.315   3.004  10.401 -0.1672 -0.2235  0.3696
12955W        W13819   9.571   4.817  10.005 -0.1014  0.1278 -0.0345
12956W        W13820   9.419  13.515  12.222 -0.2173  0.1273  0.1731
12957W        W13821  10.309   2.984  11.278  0.0322 -0.1495 -0.1961
12958W        W13822   7.200   0.861   8.582 -0.1991  0.0490  0.1576
12959W        W13823  12.166  13.707   9.649 -0.0574 -0.0402  0.0320
12960W        W13824   7.767   3.351  10.122  0.0168  0.2875  0.2037
12961W        W13825  12.773   2.315   8.747  0.0957  0.2914 -0.1628
12962W        W13826   7.568   3.367   8.212 -0.1979 -0.1467 -0.2019
12963W        W13827   9.426   3.801   9.146 -0.1103  0.0273 -0.1492
12964W        W13828   8.775   4.094   9.804  0.0447  0.0416  0.1020
12965W        W13829   9.219   4.518  10.221 -0.2034 -0.2043  0.1495
12966W        W13830   8.884   1.916  10.340  0.1439  0.0027 -0.0132
12967W        W13831   9.314   1.272   7.369  0.0539 -0.0115  0.1515
12968W        W13832  12.006   2.993   6.557  0.4820  0.2887  0.1370
12969W        W13833   8.127   0.937   9.497  0.1254  0.0161  0.1481
12970W        W13834   8.115   0.426  10.983  0.1960  0.1940  0.2060
12971W        W13835  10.525   1.536  11.553  0.1221  0.2785 -0.0634
12972W        W13836  11.359   0.815   8.355  0.0187  0.0582  0.2116
12973W        W13837   8.979  13.433   6.602  0.1467  0.0880  0.2277
12974W        W13838  10.814  13.390   6.309 -0.0760 -0.0456  0.3051
12975W        W13839   8.356   2.800   7.677  0.1690  0.0478  0.0703
12976W        W13840   6.371  13.399  11.958  0.0824 -0.0459 -0.2771
12977W        W13841   7.657   2.045   7.593 -0.0221  0.1256 -0.4867
12978W        W13842   9.876   3.188  11.933  0.1147  0.0744  0.2334
12979W        W13843   7.221   0.798   7.079 -0.0721  0.1131  0.0649
12980W        W13844  10.043   3.409  10.169 -0.1873  0.0963  0.1280
12981W        W13845   6.049  13.383   7.404 -0.1964  0.0071  0.2442
12982W        W13846  11.467   0.425  11.141  0.2168  0.3245 -0.0284
12983W        W13847  10.110   4.446   9.447  0.0500  0.0438 -0.2796
12984W        W13848   9.300   3.220  11.945  0.0715 -0.0460 -0.1256
12985W        W13849  10.435   1.369  10.795  0.0338 -0.0143 -0.0866
12986W        W13850  10.377   3.568  10.529  0.0312  0.0793 -0.1081
12987W        W13851  10.964   3.911   8.721  0.0692  0.2250 -0.0063
12988W        W13852  10.542   0.737   9.987 -0.1418 -0.2834 -0.2476
12989W        W13853   6.755   0.858   6.838  0.0289 -0.0230 -0.0165
12990W        W13854   7.753   0.141  11.249 -0.0324  0.0307 -0.0059
12991W        W13855   6.074   0.961   7.858 -0.1980  0.0135 -0.0744
12992W        W13856   6.332   0.553   9.711 -0.0421 -0.1837  0.1925
12993W        W13857   8.399   0.863  10.865  0.3447  0.2604  0.2563
12994W        W13858   6.082   0.863   7.005  0.1456 -0.0143 -0.1870
12995W        W13859   8.055   0.919   7.779 -0.1398 -0.1290  0.0203
12996W        W13860   7.323   1.983  11.413 -0.0750 -0.2406  0.3196
12997W        W13861   9.612  13.737   6.938 -0.0177 -0.0411 -0.2658
12998W        W13862  12.367   2.826  10.832 -0.2382  0.1874  0.0965
12999W        W13863  10.681   1.549   9.796 -0.2047 -0.0773 -0.1893
13000W        W13864   9.373   4.375  10.648  0.1944 -0.0470 -0.1537
13001W        W13865   8.850   0.411   9.673 -0.0599  0.0787 -0.1060
13002W        W13866   9.393   2.923   7.202  0.0065  0.5391 -0.2009
13003W        W13867   9.563   3.165  10.093 -0.0295 -0.0661 -0.1055
13004W        W13868   9.246   2.279   8.752  0.0852  0.1882  0.0497
13005W        W13869   9.119   2.246   9.603  0.3230 -0.1393  0.0105
13006W        W13870   6.864   1.597   5.176  0.0774 -0.1889 -0.0852
13007W        W13871  10.061   4.457   8.851  0.0063  0.0587 -0.1154
13008W        W13872   9.699   2.423   9.024 -0.0550  0.0969 -0.1522
13009W        W13873   7.617   1.309  10.677  0.0980  0.3036  0.1270
13010W        W13874   9.697   1.212   8.618 -0.1472 -0.1393  0.0693
13011W        W13875  11.911  13.252   9.741 -0.0080 -0.2714  0.1680
13012W        W13876   7.223   3.113   7.893  0.2799 -0.1472 -0.0646
13013W        W13877   5.825   0.398   9.578 -0.0133 -0.3601 -0.0175
13014W        W13878   9.199  13.551  13.127 -0.1878 -0.0850  0.0572
13015W        W13879   8.660   3.135  11.929 -0.2802  0.2737 -0.0933
13016W        W13880  11.648   0.511   9.047  0.0324  0.0421  0.2160
13017W        W13881   9.649   3.389   9.264  0.1535  0.0168  0.0028
13018W        W13882   9.815   4.161   7.677  0.0257  0.0941  0.0397
13019W        W13883  11.622   3.154  10.449  0.5198 -0.2817 -0.0782
13020W        W13884  10.442   0.910   8.494  0.1786  0.0938  0.0442
13021W        W13885  10.711   1.047   9.002  0.1948  0.1811  0.1292
13022W        W13886   8.838   1.500   7.851 -0.0545  0.2644  0.2592
13023W        W13887   8.797  13.896  10.591 -0.1908 -0.1038  0.4471
13024W        W13888   8.338   3.456  11.122  0.2008 -0.0582 -0.2226
13025W        W13889   7.882   0.474  12.495 -0.2928 -0.3000 -0.0781
13026W        W13890   9.892   4.456   8.074 -0.1763 -0.0254  0.0671
13027W        W13891   9.343   2.670   8.173  0.0969  0.3149  0.0583
13028W        W13892   6.929   2.284  10.903 -0.0330 -0.0645 -0.0311
13029W        W13893   7.334   2.622   9.323 -0.1738 -0.1369 -0.2888
13030W        W13894  10.143   2.738   8.520 -0.0338  0.2495  0.4578
13031W        W13895  10.226   4.125   6.451  0.3072 -0.0267  0.4144
13032W        W13896   8.574   2.608  10.985 -0.0767  0.1299 -0.0537
13033W        W13897  10.301   2.958   4.912 -0.1716 -0.0771  0.2768
13034W        W13898   5.291   2.203  10.303 -0.2433  0.1158 -0.1097
13035W        W13899  10.387   2.637   5.336  0.2562  0.1967  0.1162
13036W        W13900   6.555   1.013   9.693  0.2054  0.0870  0.0046
13037W        W13901   6.160  13.665   9.131 -0.0403  0.1498 -0.1640
13038W        W13902   8.455  13.162   7.646 -0.1958 -0.0990  0.0642
13039W        W13903   6.586   1.530  10.613  0.1068 -0.0264 -0.1866
13040W        W13904   7.134  13.156   7.372  0.0214 -0.1068 -0.0265
13041W        W13905   7.944   3.766   8.480 -0.2292  0.0334 -0.0679
13042W        W13906   7.303   3.681   9.501 -0.3779  0.0982  0.1121
13043W        W13907  12.387   1.275  10.764  0.2889  0.2401 -0.0517
13044W        W13908  10.214   3.415  12.270 -0.3199 -0.2301  0.0201
13045W        W13909   9.454   3.703  12.226  0.2846  0.0573 -0.2695
13046W        W13910   8.210   2.925  10.891  0.1117  0.3944  0.1052
13047W        W13911  11.157   2.673   7.696  0.0729  0.1164  0.0573
13048W        W13912   6.874   2.377   8.725 -0.2536 -0.3542 -0.1318
13049W        W13913  12.815   2.842   7.215 -0.0561 -0.1446 -0.0519
13050W        W13914   7.403   3.757   8.552  0.0364  0.2807 -0.3988
13051W        W13915   9.947  12.662  10.858 -0.1503 -0.1185  0.0634
13052W        W13916   7.566   2.364   8.511  0.1197  0.0315 -0.1328
13053W        W13917   8.045   1.629  10.634 -0.0699 -0.0461 -0.1840
13054W        W13918   8.830   3.006   5.910 -0.0803  0.0418  0.2720
13055W        W13919   5.525   0.970   6.156  0.1104 -0.1453  0.3188
13056W        W13920   8.142   4.854   8.750 -0.0004  0.1198 -0.3926
13057W        W13921   9.023   4.076   9.004 -0.0438 -0.2021  0.0611
13058W        W13922   9.122  13.963   6.640  0.2036  0.1712 -0.3322
13059W        W13923   7.339  11.933   6.591  0.0019  0.0915  0.2834
13060W        W13924   8.305   1.759   8.493  0.0253 -0.0065  0.0151
13061W        W13925   6.599   0.412   7.766 -0.2761  0.1724  0.1954
13062W        W13926  10.802  13.723  12.168 -0.0159  0.2497 -0.1065
13063W        W13927  11.334   4.219   9.052  0.0895 -0.0132  0.1357
13064W        W13928  12.923   2.489  11.144  0.2656 -0.2848  0.1572
13065W        W13929   7.701   3.320   8.720 -0.0175 -0.2673 -0.0242
13066W        W13930   9.714   2.641   6.144 -0.1840 -0.0516  0.0572
13067W        W13931  10.954   1.042   8.544 -0.0887  0.2571  0.0382
13068W        W13932   6.801   3.628   7.173 -0.1042  0.0370  0.0821
13069W        W13933   8.371   1.993  13.131  0.1632 -0.1728 -0.0506
13070W        W13934   6.784   2.342  11.354  0.1785  0.1342  0.0949
13071W        W13935   6.177   1.678   7.206 -0.2282  0.3083  0.1542
13072W        W13936   8.319   2.730   7.148  0.3399 -0.1173 -0.2492
13073W        W13937  11.076   3.399   8.815  0.2179  0.2120  0.0519
13074W        W13938  10.459   3.001  10.641  0.2304  0.0820  0.0529
13075W        W13939  10.406   0.885  10.785  0.2282  0.3997 -0.1405
13076W        W13940   6.910   3.844   9.093 -0.0659  0.0446  0.0430
13077W        W13941   9.684   5.191   6.822 -0.0507 -0.0756 -0.1964
13078W        W13942  10.045   1.103   6.902  0.0055  0.0621 -0.0525
13079W        W13943   9.134   2.782   7.695  0.0881  0.2433  0.0182
13080W        W13944   7.639   1.710   6.605 -0.0576  0.0350 -0.2829
13081W        W13945  13.387  13.688   9.254 -0.0558  0.2253  0.2221
13082W        W13946   9.545   1.992   7.241 -0.2399 -0.0338  0.0093
13083W        W13947   6.882   1.120  10.137  0.0394  0.0156  0.0173
13084W        W13948  11.065   1.226  10.067  0.0395 -0.1949  0.1209
13085W        W13949  11.680   4.206   8.173 -0.0031 -0.0120 -0.0238
13086W        W13950  11.805   2.519   6.435  0.2070  0.3009 -0.0595
13087W        W13951   6.527   0.824   7.951  0.1128 -0.1425 -0.2980
13088W        W13952   6.693   2.138  12.425 -0.2237  0.0165  0.2401
13089W        W13953  13.149   3.292   8.412 -0.0110 -0.0371  0.0362
13090W        W13954  11.624   3.410  12.001 -0.2084  0.1757 -0.0256
13091W        W13955   7.371  13.892  12.378  0.2639  0.3247 -0.0231
13092W        W13956   8.995   1.693   9.496 -0.0498 -0.0523  0.0342
13093W        W13957   5.317   3.520   9.916 -0.0376 -0.0302 -0.0453
13094W        W13958   6.341   0.865  10.149  0.2613  0.0643  0.0119
13095W        W13959  11.316   2.038  11.547 -0.1086  0.0155 -0.1650
13096W        W13960  11.027   2.371   9.646 -0.3722 -0.3770 -0.3028
13097W        W13961  11.613   1.667   8.390 -0.2227 -0.2434  0.0959
13098W        W13962   8.653   5.507   7.711 -0.1757  0.0870  0.0660
13099W        W13963  10.057   3.186  10.904  0.1197 -0.3278  0.2912
13100W        W13964   8.036   4.309   9.754  0.1111  0.0943 -0.5344
13101W        W13965  10.335   1.859  10.627 -0.0513  0.1206  0.0544
13102W        W13966   9.103   0.559  12.498  0.0543 -0.2485  0.2078
13103W        W13967   9.004   3.521   8.732 -0.1129  0.1911 -0.1480
13104W        W13968   8.600   2.241   9.454  0.1352  0.0357  0.0006
13105W        W13969  12.279   3.090   9.345  0.0990 -0.0383  0.0562
13106W        W13970   6.703   0.139  11.127 -0.1704 -0.0618  0.0081
13107W        W13971   8.993   1.488  10.497  0.1663  0.0217  0.2571
13108W        W13972   9.408   5.781   6.784 -0.2627 -0.2216 -0.1445
13109W        W13973  11.172   3.532  11.798  0.2340 -0.0375  0.2607
13110W        W13974   7.164   3.129   9.559 -0.3272  0.1188  0.0856
13111W        W13975   8.571   2.403   6.894 -0.0353 -0.1233 -0.1545
13112W        W13976   8.689   4.030   0.707  0.1603 -0.0597 -0.0220
13113W        W13977  12.351   3.151   9.855 -0.1448  0.0037  0.2498
13114W        W13978  11.211   6.898  11.736  0.2147 -0.0640 -0.1344
13115W        W13979   7.991   1.665  13.257 -0.0671 -0.2743  0.1025
13116W        W13980   4.424   1.229  12.657 -0.0507  0.0471  0.2384
13117W        W13981   8.109   1.961  12.208  0.4320 -0.2820  0.1485
13118W        W13982  13.398   2.284   9.648  0.1556  0.0522 -0.0020
13119W        W13983   7.318   4.916   2.596 -0.1594 -0.2272 -0.2612
13120W        W13984  10.262   2.569  11.879 -0.0527  0.1108 -0.2558
13121W        W13985   7.609  12.992  11.937 -0.3453  0.2924 -0.0311
13122W        W13986   7.244   0.548   2.260  0.0558 -0.1877 -0.2665
13123W        W13987  10.163   1.835  12.479  0.0689 -0.1676  0.2079
13124W        W13988   5.922   2.317   1.392 -0.2197  0.0943  0.5446
13125W        W13989  11.223  13.411  12.245  0.0222 -0.0988  0.2337
13126W        W13990   9.625   3.258  13.901  0.0135 -0.0606  0.0277
13127W        W13991  10.503   2.112   0.179 -0.1516  0.1561  0.1575
13128W        W13992  10.312   5.593  13.428 -0.0377  0.4829  0.0254
13129W        W13993   9.346   3.057  12.471  0.0972  0.3147  0.1005
13130W        W13994   5.683   0.967  12.599  0.1589  0.1723 -0.0734
13131W        W13995   6.061   1.187  13.985 -0.3646 -0.2857  0.0209
13132W        W13996   9.409  14.003  12.322 -0.1375 -0.0903  0.0730
13133W        W13997   8.323   3.159  13.202  0.1115  0.1657  0.0982
13134W        W13998   7.973   3.856   0.201 -0.0638 -0.1281 -0.1209
13135W        W13999   7.382   2.441  13.755  0.0734 -0.0815 -0.0954
13136W        W14000   5.623   0.383   9.110 -0.1438  0.3219 -0.1849
13137W        W14001   5.705   2.678   0.962  0.2234  0.0648 -0.0186
13138W        W14002  11.433   2.548  12.930  0.0698  0.1541 -0.4200
13139W        W14003   9.872   1.878  13.008 -0.1839 -0.1166  0.1850
13140W        W14004  12.340   0.761  10.644  0.0196  0.0353 -0.1203
13141W        W14005   9.523   1.161  12.682 -0.1724  0.3865  0.0571
13142W        W14006   7.898   3.220  11.121  0.0724  0.2054  0.2754
13143W        W14007  10.918   3.918  13.501  0.1395  0.0849 -0.0270
13144W        W14008   9.237   1.513  11.518  0.1154  0.0716 -0.1628
13145W        W14009   6.650   4.803   0.197 -0.1701  0.0481 -0.1516
13146W        W14010   6.892   0.329   0.283 -0.0980 -0.0535  0.3698
13147W        W14011  10.442   4.132  11.837  0.3095  0.1073  0.0894
13148W        W14012  11.610   1.607   9.692 -0.0619  0.0110  0.0389
13149W        W14013  10.322   1.692  10.130 -0.1734  0.0409 -0.0406
13150W        W14014  10.639   5.300  13.638  0.1924 -0.1020  0.4369
13151W        W14015   8.577   1.721   0.412  0.1000 -0.1530  0.0580
13152W        W14016   9.733   5.498   1.676 -0.1213 -0.0922 -0.2767
13153W        W14017  10.157   2.703  10.892 -0.0152 -0.2144 -0.1564
13154W        W14018   9.050  13.670  12.453  0.3536  0.2420  0.2467
13155W        W14019   8.683   3.988  11.659  0.0112 -0.0685 -0.0753
13156W        W14020   7.706   0.036   1.280 -0.0850 -0.0858 -0.1944
13157W        W14021   9.446   1.948  11.721  0.0378  0.3370 -0.2149
13158W        W14022   7.357   1.084   0.487 -0.1636 -0.0033 -0.1840
13159W        W14023   8.634   3.307   9.111 -0.1402 -0.2248  0.1706
13160W        W14024   8.994   1.789  12.092  0.1101  0.0880 -0.1295
13161W        W14025   6.305   3.832  13.886 -0.1468 -0.0604 -0.2543
13162W        W14026  11.583   2.218   0.601  0.3260  0.1831 -0.2399
13163W        W14027   7.942   1.436  12.062  0.2875  0.0467  0.1097
13164W        W14028   8.579   2.721   2.145 -0.0364  0.0425 -0.0150
13165W        W14029  11.723  12.370  11.853  0.2430 -0.0597  0.0648
13166W        W14030   8.092   1.496   9.707 -0.0655 -0.0218 -0.2105
13167W        W14031   7.137   1.121  13.276  0.0535 -0.2586  0.1008
13168W        W14032   6.575   1.820  12.828 -0.1342 -0.2444  0.0807
13169W        W14033   6.665   1.689  12.230  0.3247  0.3152 -0.1413
13170W        W14034  10.039   4.432   0.650  0.0436 -0.3982  0.3271
13171W        W14035   8.184   0.345  11.490 -0.1035 -0.0055 -0.0210
13172W        W14036  11.535   4.437  11.884  0.0210 -0.3447  0.2508
13173W        W14037   9.720   3.239   0.831  0.5422  0.0746  0.1847
13174W        W14038  10.646   3.479  12.522  0.1601 -0.3275 -0.1419
13175W        W14039  10.077   2.376  13.819 -0.0279 -0.0087  0.0747
13176W        W14040   8.904  13.319   0.363 -0.1427 -0.0099  0.0411
13177W        W14041   7.734   2.157  13.933 -0.1135 -0.2077 -0.1853
13178W        W14042   9.445   0.783   0.331 -0.0811  0.1403  0.1854
13179W        W14043  10.562   2.461  11.403  0.2227  0.0799  0.0151
13180W        W14044   6.688   2.193   0.960  0.1656  0.0334  0.0802
13181W        W14045   7.882  13.587  13.045 -0.0015  0.1359  0.0370
13182W        W14046   9.360   0.069  13.261  0.1236 -0.2673  0.2141
13183W        W14047  12.199   0.352  12.662 -0.0755 -0.1430  0.0645
13184W        W14048   8.088   4.437  12.624  0.0485  0.3383  0.1894
13185W        W14049  11.448   5.471  12.704  0.2617 -0.2485 -0.2231
13186W        W14050   7.002   3.630  13.290  0.3233  0.0307 -0.0634
13187W        W14051   8.481  12.875  13.535  0.0444 -0.0516  0.1757
13188W        W14052   7.948   3.501  13.305  0.2420  0.1879  0.0067
13189W        W14053  13.464  12.209  11.983 -0.2688  0.1199  0.2356
13190W        W14054   7.353  12.752  10.839 -0.0441 -0.0701  0.0645
13191W        W14055  12.377   1.376  12.781  0.2595 -0.5073  0.0520
13192W        W14056   7.685   0.494  13.538  0.0415 -0.1941 -0.0916
13193W        W14057  12.991   2.087   9.531 -0.0623 -0.1351 -0.2021
13194W        W14058   8.140   5.356  13.259 -0.0027 -0.0145  0.4191
13195W        W14059  10.523  13.904   1.643 -0.0363 -0.1701  0.2361
13196W        W14060   9.257   1.888  13.431 -0.0583  0.1622  0.0548
13197W        W14061  11.457   1.204  11.663 -0.3436 -0.1245 -0.4032
13198W        W14062   6.908  13.728   0.507  0.0956  0.0098  0.2751
13199W        W14063   9.945   2.743  13.048 -0.3475 -0.0365  0.1803
13200W        W14064   7.079   1.067  13.745 -0.1756 -0.1881 -0.2332
13201W        W14065   6.787   3.521  13.701 -0.1448  0.2179 -0.0380
13202W        W14066  13.657   1.720  13.245 -0.1199 -0.2008  0.2670
13203W        W14067   7.188   4.847  13.484  0.5550  0.3146  0.3765
13204W        W14068   9.023   2.273  10.942  0.2209  0.1351 -0.2267
13205W        W14069   6.928  12.677  10.455  0.0207 -0.0864  0.0912
13206W        W14070  11.053   1.609   0.415  0.1309  0.0865 -0.1673
13207W        W14071   8.878   2.874  13.180 -0.1356  0.1869 -0.2018
13208W        W14072   9.837   0.355  11.608  0.1324  0.3450 -0.1643
13209W        W14073  11.165   2.315  10.784 -0.2651 -0.3659 -0.1463
13210W        W14074  12.158   0.577   8.973  0.3809  0.1815 -0.1395
13211W        W14075  10.753   1.645  12.190  0.1169  0.0034 -0.1273
13212W        W14076  11.616   1.534  11.258  0.1095 -0.1863  0.0913
13213W        W14077   9.040   0.970  12.757 -0.1261  0.0696  0.4827
13214W        W14078   8.808   1.651  13.840  0.1765  0.3276  0.0873
13215W        W14079  11.196  10.673  13.535  0.1039 -0.0417  0.1935
13216W        W14080   7.168   0.660  13.449 -0.2225  0.3506  0.0234
13217W        W14081  11.208   4.484   3.481  0.1211  0.1114  0.1053
13218W        W14082  10.691   3.048  13.284  0.1030 -0.0768  0.1040
13219W        W14083   7.335   2.332  11.900 -0.1260 -0.2685 -0.1441
13220W        W14084  11.073   5.455  13.958  0.4682  0.0640  0.2799
13221W        W14085   8.267   1.173  13.139  0.1603 -0.3658 -0.3015
13222W        W14086   9.471   5.228  12.680  0.0137 -0.1084  0.0712
13223W        W14087  12.831   1.310  11.889  0.0399 -0.3617  0.0873
13224W        W14088  12.676   0.866  12.108  0.0812  0.1343 -0.2650
13225W        W14089   8.711   0.817  13.203 -0.2071 -0.1323  0.0097
13226W        W14090   9.412   2.736  12.931  0.0479 -0.0836  0.0401
13227W        W14091   6.784   3.639  11.535 -0.0622 -0.3859 -0.0998
13228W        W14092   6.730   1.490  11.102 -0.2527  0.2419 -0.2152
13229W        W14093   7.908   0.100   9.563 -0.4472  0.0521 -0.0513
13230W        W14094  10.295  13.017  12.120  0.4851  0.0462 -0.0849
13231W        W14095   7.703   3.666  12.460 -0.1831 -0.2668  0.2335
13232W        W14096   8.252   2.839  13.594  0.0473 -0.0794 -0.1251
13233W        W14097  10.604   4.706  13.727 -0.1766 -0.0165 -0.2277
13234W        W14098  11.730   3.871  13.866 -0.1058 -0.1636  0.3216
13235W        W14099  12.878   1.446  13.083 -0.3584  0.1767 -0.3237
13236W        W14100   9.298   3.732  13.139 -0.1188  0.0646  0.0171
13237W        W14101   8.101   3.693  12.038 -0.0422 -0.1183 -0.2781
13238W        W14102   9.865   5.287   0.658 -0.0077  0.0637 -0.2340
13239W        W14103  12.258   1.647   2.870 -0.0790  0.2429  0.0549
13240W        W14104   9.059   2.836  10.571  0.2305  0.0068  0.1263
13241W        W14105  10.168   4.168  12.749 -0.3217 -0.1382 -0.1258
13242W        W14106  10.685   0.679   9.419 -0.0772 -0.0608 -0.1067
13243W        W14107   9.709  13.728   0.930 -0.2072  0.0641  0.3110
13244W        W14108   8.754  11.934  13.170 -0.2820  0.1094  0.0027
13245W        W14109   5.002   0.049   0.235  0.2076  0.0995  0.0628
13246W        W14110   9.281   1.519   9.042 -0.0851  0.2093  0.0870
13247W        W14111   7.406   2.594  11.309 -0.1836 -0.0043  0.2665
13248W        W14112   8.497   1.633  12.030  0.3584  0.1476 -0.0933
13249W        W14113  11.556   2.023  12.094 -0.0771 -0.1035  0.2731
13250W        W14114  10.633   4.721   2.230  0.3065 -0.1992  0.0167
13251W        W14115   8.174  12.172   0.151 -0.0605  0.6599 -0.1708
13252W        W14116   6.462  13.355  13.813  0.3083  0.4574  0.1477
13253W        W14117   7.240   1.582   0.520  0.0344 -0.2990 -0.2383
13254W        W14118  10.940   1.086  14.010  0.1215  0.1465 -0.2832
13255W        W14119  10.083   0.900  13.694  0.0668 -0.2134  0.1211
13256W        W14120  10.086   4.208  13.249  0.0261  0.0888  0.1775
13257W        W14121  10.081   3.395  11.437 -0.0996 -0.1958 -0.0219
13258W        W14122  10.143   0.534  12.863  0.0563  0.0044 -0.3090
13259W        W14123   9.704   1.545  13.422  0.0482  0.0525  0.1899
13260W        W14124   7.809   4.269  13.225 -0.0734 -0.0636  0.1356
13261W        W14125   8.065   2.289   1.000 -0.0230 -0.2041  0.0555
13262W        W14126   6.657   2.474  12.757 -0.2515  0.1864 -0.0122
13263W        W14127   6.210   0.334  13.594  0.1496 -0.0497  0.0749
13264W        W14128   8.537   0.945  12.690  0.1189 -0.0476  0.2170
13265W        W14129   7.106   5.810   9.981  0.0969 -0.0098 -0.1252
13266W        W14130  12.028   2.049  11.841  0.3856  0.2195 -0.0962
13267W        W14131   6.648   1.123  13.480 -0.0168 -0.1308  0.0980
13268W        W14132  11.576  13.679  13.478 -0.0367  0.0965  0.1303
13269W        W14133  11.822   1.077  11.936 -0.2907  0.1845 -0.0159
13270W        W14134   7.543   0.198  11.731 -0.1649 -0.0793 -0.3210
13271W        W14135   7.989   2.274  13.087 -0.0109 -0.0640 -0.1274
13272W        W14136   6.103   1.676  13.068 -0.1793 -0.0826 -0.1846
13273W        W14137   8.218   4.669  10.451  0.1291 -0.1978  0.0775
13274W        W14138   7.829   4.524  11.798 -0.1013 -0.3108  0.0989
13275W        W14139   9.627  13.818  12.959 -0.3662 -0.0693  0.0617
13276W        W14140   8.040  13.133  12.134  0.1302 -0.0772 -0.0167
13277W        W14141  12.458  12.931  12.818  0.0466  0.0638 -0.1678
13278W        W14142   8.776  13.424   0.958  0.0642  0.0607  0.0671
13279W        W14143   7.555   0.948   2.666  0.0077  0.0578 -0.0282
13280W        W14144  10.162   1.655   0.860 -0.1940  0.0997  0.1378
13281W        W14145   9.051  12.825  12.636 -0.1765  0.2331 -0.3050
13282W        W14146   8.876   1.360  13.077 -0.1675 -0.0664 -0.0502
13283W        W14147  11.570  12.099  11.292 -0.0584 -0.0992  0.1248
13284W        W14148   8.111   0.750  13.327 -0.0876 -0.0340  0.0554
13285W        W14149   7.113   0.427  11.568 -0.1315 -0.2128 -0.0806
13286W        W14150   9.912   4.287   0.032  0.1636 -0.2082 -0.0887
13287W        W14151   6.924   1.221  12.108 -0.2015  0.0584  0.0168
13288W        W14152   5.987   0.136  10.320 -0.0216  0.4289  0.2469
13289W        W14153   4.418   3.160   0.196  0.1571  0.2837  0.1368
13290W        W14154   6.483   2.312  13.621  0.2102  0.1296  0.0531
13291W        W14155   9.110   2.008  13.879  0.2564  0.0125 -0.1632
13292W        W14156  10.172   0.544  12.330  0.0953 -0.2686 -0.2653
13293W        W14157  12.704   2.178  12.535 -0.3957  0.1257 -0.0853
13294W        W14158  10.252  12.946  11.647 -0.0608  0.4047  0.0610
13295W        W14159   9.075   6.362  11.170 -0.1327 -0.2338  0.0048
13296W        W14160  11.478   1.498  10.204 -0.0580 -0.2521  0.2257
13297W        W14161   9.770  13.192  12.855  0.1171 -0.3288  0.0905
13298W        W14162   8.578   0.055  11.615 -0.1411  0.1552 -0.1436
13299W        W14163  12.018  13.740  13.816  0.0412 -0.2386 -0.0919
13300W        W14164   8.271   3.309  10.638 -0.2503 -0.2961  0.2216
13301W        W14165   8.914   3.304  12.349 -0.2369  0.3077 -0.0498
13302W        W14166   8.407  11.995   1.777 -0.1193  0.1025  0.0926
13303W        W14167   8.600   0.358  11.060 -0.0550 -0.2288 -0.1315
13304W        W14168  12.165   1.600   8.517 -0.1686  0.1580  0.0147
13305W        W14169  11.514   1.132  13.260 -0.0247 -0.0124 -0.0566
13306W        W14170  10.405   3.942  12.374  0.3152 -0.1067  0.1367
13307W        W14171   9.677   3.027  11.490  0.4084  0.2639 -0.3109
13308W        W14172  10.706   1.222   1.445 -0.3275 -0.0346  0.0831
13309W        W14173  10.048   1.470  10.433 -0.0477  0.1811 -0.1514
13310W        W14174   8.633   4.024  12.734 -0.1035 -0.0175  0.1648
13311W        W14175  10.074   4.017   9.846 -0.1604  0.2551 -0.0180
13312W        W14176   7.246   4.050   1.797 -0.5606  0.0642 -0.2510
13313W        W14177  10.412  12.273  13.975 -0.0708 -0.0900 -0.2090
13314W        W14178   8.266  13.935  12.908  0.1780 -0.0994 -0.0041
13315W        W14179   9.462   2.200   9.997  0.1333 -0.1467  0.1403
13316W        W14180   6.593   1.950  10.922 -0.2288 -0.0452 -0.1301
13317W        W14181   9.968  13.553  10.923  0.1897  0.1881 -0.3346
13318W        W14182  11.867   3.940   9.874 -0.3125 -0.0549  0.1775
13319W        W14183   7.833   2.888  11.579  0.1208  0.2068 -0.0226
13320W        W14184   7.320   1.492  12.912 -0.0713  0.0771 -0.0393
13321W        W14185   7.747   2.293  12.435 -0.2664  0.1891  0.0257
13322W        W14186   7.364   4.183  11.998  0.1763  0.1634 -0.1087
13323W        W14187   8.103   1.906   9.994 -0.0422 -0.1741  0.0901
13324W        W14188   7.368   5.992  12.344  0.1298  0.1371 -0.0671
13325W        W14189  12.772   0.805  10.394  0.0598 -0.3217 -0.1156
13326W        W14190  11.150  12.795  12.041 -0.0125  0.2204  0.1733
13327W        W14191   9.771   0.777  12.123  0.0089  0.1356  0.0415
13328W        W14192   9.592   4.075  11.775 -0.1017  0.2484 -0.0188
13329W        W14193   9.028   4.264  11.980 -0.0537  0.0917 -0.0866
13330W        W14194   8.920   0.191   0.143  0.2429  0.2389 -0.0037
13331W        W14195   7.075   1.980  12.781  0.0964 -0.0620 -0.0249
13332W        W14196   5.354   1.438  12.859  0.2422  0.0042  0.1407
13333W        W14197  13.132   1.126  12.239 -0.0397  0.0274  0.2321
13334W        W14198   6.827   2.236  13.172 -0.3742  0.0522  0.0426
13335W        W14199   8.826   0.885  12.117 -0.3989 -0.1662 -0.2575
13336W        W14200   9.585   1.023  13.676 -0.2384 -0.0015 -0.4288
13337W        W14201  10.732   5.148  11.936 -0.3496 -0.1954  0.1360
13338W        W14202   7.047   1.841  10.676 -0.0819  0.0550 -0.0296
13339W        W14203  10.188   1.681  13.318  0.0931 -0.0269  0.0748
13340W        W14204   8.171  12.711   2.576 -0.0663  0.1609 -0.1042
13341W        W14205   7.129   5.005  12.043 -0.3520  0.1138 -0.1105
13342W        W14206   8.268   3.732  13.550 -0.2263 -0.1159  0.0329
13343W        W14207   7.983   0.367  13.025  0.3126  0.1987 -0.1823
13344W        W14208   8.151   1.523  12.499  0.1161 -0.0323 -0.0296
13345W        W14209   5.113   4.822  13.779  0.0210 -0.0557  0.0582
13346W        W14210   8.609   0.315  10.160  0.1161 -0.1695 -0.3739
13347W        W14211   8.891   2.417  11.458  0.3637  0.1188  0.0249
13348W        W14212  12.916   0.845   9.846 -0.2325 -0.0669 -0.0868
13349W        W14213  12.485   0.126  12.310  0.0996 -0.1379  0.1076
13350W        W14214   9.470  13.669  10.918  0.0099 -0.0684  0.2459
13351W        W14215   9.849   1.427  12.403 -0.0638  0.1203 -0.1919
13352W        W14216   8.807   0.106  13.701  0.1707 -0.0404 -0.0991
13353W        W14217   8.340   1.592  13.973 -0.0074 -0.1547  0.0884
13354W        W14218   8.506   2.478  13.325 -0.1568  0.0062  0.0281
13355W        W14219   8.749   3.357  10.399  0.0837  0.0005  0.2355
13356W        W14220   8.837   0.171  12.121  0.1012 -0.1451 -0.2012
13357W        W14221  11.608   3.577  12.451  0.4500 -0.2235  0.2388
13358W        W14222  10.385  13.887   8.273  0.0816  0.2089 -0.2491
13359W        W14223   8.427   3.984   0.298 -0.2995 -0.1390 -0.4609
13360W        W14224  10.864   4.193  12.691 -0.1596 -0.0172 -0.0177
13361W        W14225  10.188   2.316  12.809 -0.0337 -0.0797  0.0793
13362W        W14226  11.042   2.475  11.566  0.3019 -0.0369 -0.3348
13363W        W14227   8.429   3.623  12.462  0.2096 -0.1752 -0.0035
13364W        W14228  11.619  13.295  13.091 -0.3336  0.0099  0.0709
13365W        W14229  11.158   3.394  12.302 -0.3620 -0.0283  0.0715
13366W        W14230   6.138   2.511   0.064 -0.0942 -0.1846 -0.1038
13367W        W14231   6.004  13.785  12.736 -0.1499 -0.1137 -0.0623
13368W        W14232   7.100   1.118  12.618 -0.0859  0.1759 -0.0990
13369W        W14233   9.084   1.967  11.402 -0.0774 -0.1326 -0.1272
13370W        W14234   9.193   3.379   0.671 -0.1687  0.0648  0.2066
13371W        W14235   9.689   4.435   9.647  0.0991 -0.4119  0.1065
13372W        W14236   9.456   2.546  11.432  0.1299  0.0367  0.0326
13373W        W14237   7.746   3.158  12.976  0.0828  0.3120  0.0676
13374W        W14238   8.443   0.228  13.262  0.1015 -0.0199  0.0800
13375W        W14239   8.119   4.738  13.268  0.0818  0.1647  0.0994
13376W        W14240   9.277   4.836  12.368  0.0146 -0.0196 -0.0926
13377W        W14241   7.281   3.736   0.304 -0.0164  0.0095 -0.1885
13378W        W14242  10.041   3.851  13.702  0.1527  0.0864  0.1479
13379W        W14243   7.246   2.873  13.212  0.3721  0.2803 -0.1257
13380W        W14244   8.357   2.367  12.192 -0.0336 -0.0665  0.0168
13381W        W14245  10.374   1.977  13.733 -0.0063  0.0954  0.3103
13382W        W14246   6.132   1.411  13.452 -0.3136 -0.1088  0.2134
13383W        W14247   8.374   0.925  13.745  0.1463 -0.0900  0.0121
13384W        W14248   6.195   1.171  12.638 -0.0912  0.0091 -0.1058
13385W        W14249  11.113  13.297   0.081 -0.1594  0.4567  0.1759
13386W        W14250  11.587   2.440  11.636 -0.0452 -0.0327 -0.1678
13387W        W14251  13.199   5.149  13.528 -0.0295 -0.0976  0.1162
13388W        W14252   8.431   1.596  13.418  0.2158  0.2364 -0.1924
13389W        W14253  11.251   2.869  10.140 -0.0785 -0.3050  0.1524
13390W        W14254   9.201   3.227  13.070  0.3502  0.1849 -0.1382
13391W        W14255   6.262  12.591   0.541 -0.2201 -0.2222  0.1522
13392W        W14256   8.161   1.459  11.621 -0.0406  0.0777  0.1675
13393W        W14257   8.080   1.979   0.285 -0.1442 -0.0914 -0.1382
13394W        W14258   8.150   1.028   0.909  0.2229 -0.0571 -0.3631
13395W        W14259   6.312   3.049  12.933 -0.0707  0.2099 -0.0755
13396W        W14260   7.821   1.751  11.322  0.0287 -0.0539 -0.1455
13397W        W14261   8.969   2.866  12.720 -0.2443  0.0443  0.1042
13398W        W14262   6.893   1.492  13.139 -0.0337 -0.0745  0.0626
13399W        W14263   8.734  12.385  13.410  0.2797  0.0501 -0.0343
13400W        W14264   8.671   3.158  10.942 -0.0655  0.1680 -0.0736
13401W        W14265   6.453   0.134  13.201 -0.0394  0.2571  0.1592
13402W        W14266  10.291   2.749  13.561 -0.1264 -0.0248 -0.0289
13403W        W14267  10.120   0.418  13.432 -0.3938 -0.0647  0.0552
13404W        W14268  11.033   4.127   0.387  0.2303  0.0106  0.1308
13405W        W14269  10.079   3.364  13.738  0.1002  0.1530  0.0108
13406W        W14270  10.562   0.963  12.227 -0.2177 -0.1698 -0.4690
13407W        W14271   9.332   0.998  12.150  0.3825 -0.0626  0.0962
13408W        W14272   5.419   4.372  11.547 -0.0369  0.0650 -0.1370
13409W        W14273  10.323   1.873   9.520 -0.2141  0.0860 -0.2869
13410W        W14274  10.530   0.276  12.604  0.0583  0.2583  0.2517
13411W        W14275   8.243   2.444  12.676  0.0980  0.0990 -0.1417
13412W        W14276  10.625  13.737  11.228  0.1018  0.3288  0.3147
13413W        W14277   6.817   4.057  12.072 -0.2534  0.0021 -0.2460
13414W        W14278   9.376   5.425  13.713  0.2357  0.0715  0.1330
13415W        W14279  12.374   4.403  13.487 -0.0800 -0.1472 -0.1932
13416W        W14280  11.807   1.248   0.568 -0.0834  0.2257 -0.0620
13417W        W14281   7.766   1.698   9.450 -0.2638 -0.0105  0.0850
13418W        W14282  11.081  13.316  13.594 -0.1137 -0.3679  0.1019
13419W        W14283   7.947   4.825   9.973 -0.2897 -0.3143  0.0207
13420W        W14284   9.887   2.836   0.493 -0.0906  0.2372 -0.2242
13421W        W14285   9.741   1.292  11.928 -0.1675 -0.3452  0.0155
13422W        W14286  12.309   2.636  11.704  0.0365 -0.1464 -0.1149
13423W        W14287  11.549   1.253  10.625 -0.1093  0.2795  0.2024
13424W        W14288  10.989   3.918   0.907 -0.0834  0.1204  0.0388
13425W        W14289  12.385   1.404  10.241 -0.5375 -0.1674 -0.1058
13426W        W14290  11.396   0.157  13.150 -0.0562  0.0034 -0.0304
13427W        W14291  10.176   2.248   1.547  0.0556 -0.0338 -0.0215
13428W        W14292   7.436  13.950  10.379 -0.4152 -0.0952  0.0324
13429W        W14293   6.123   3.010   1.860  0.1738 -0.0982  0.3040
13430W        W14294   9.005   3.615  10.048 -0.1315  0.1367 -0.3106
13431W        W14295  10.584   3.926  13.103  0.0430  0.1966 -0.0245
13432W        W14296   8.742   4.041  13.235 -0.2799  0.0615 -0.2949
13433W        W14297   7.801   2.608  11.056 -0.0112  0.0926  0.1281
13434W        W14298   9.005   4.447  12.500  0.2446  0.1036 -0.1346
13435W        W14299   9.828   3.197  12.478  0.0666  0.1851 -0.0253
13436W        W14300  11.911   1.252   9.758  0.2563  0.1486  0.0233
13437W        W14301   9.762   1.820  12.131  0.0104  0.0792 -0.0472
13438W        W14302  11.452   3.938  12.095 -0.1629  0.1642  0.2728
13439W        W14303  10.068   5.173  12.049  0.3581  0.0673  0.5230
13440W        W14304  10.895   0.141  13.994  0.3875  0.2240  0.0998
13441W        W14305   8.412   1.115  12.250  0.2962  0.2070  0.1699
13442W        W14306   6.975   6.511   3.094  0.0335 -0.1638  0.2724
13443W        W14307   8.577   6.740   3.368  0.0072  0.0698 -0.1607
13444W        W14308  11.016   4.450  13.529 -0.0303 -0.2290  0.1326
13445W        W14309  13.200   8.588   4.790  0.0148  0.0817  0.1574
13446W        W14310  10.942   7.480  12.388 -0.0692 -0.0329  0.2024
13447W        W14311   6.242   4.418  13.240 -0.0797 -0.1950  0.0306
13448W        W14312   9.349   3.555   1.094 -0.2727 -0.1154  0.0148
13449W        W14313   8.693   5.169   3.527  0.0517  0.0362 -0.3243
13450W        W14314   5.731   6.600   3.924  0.0618  0.1874  0.1025
13451W        W14315   5.850   6.845   3.058  0.1515 -0.2031 -0.1569
13452W        W14316  11.548   4.067   0.290 -0.0698  0.0318 -0.3591
13453W        W14317  11.194   4.642   0.420  0.2175 -0.1028  0.0799
13454W        W14318   8.305   4.548   3.053  0.0870 -0.1496 -0.1080
13455W        W14319   7.519   6.089   1.421  0.1362  0.2549  0.0528
13456W        W14320   7.060   6.014   6.671  0.0410 -0.0141  0.1299
13457W        W14321   8.189   4.684   1.799 -0.2757  0.1828 -0.2081
13458W        W14322   7.622   3.157   2.942 -0.0723 -0.2448  0.3022
13459W        W14323   9.307   3.009   2.893 -0.0101  0.4855  0.1532
13460W        W14324  10.039   4.078   2.136  0.0575 -0.0632  0.0628
13461W        W14325  11.230   5.430   2.544  0.0298  0.0122  0.0637
13462W        W14326   8.175   2.479  13.962  0.2716 -0.1057  0.4124
13463W        W14327  10.591   5.070   4.094  0.1393  0.0504 -0.3348
13464W        W14328   7.555   5.241   2.857  0.1521  0.0055 -0.0999
13465W        W14329   6.665   6.050   3.852  0.0543 -0.1054 -0.0946
13466W        W14330  11.200   6.412   2.912  0.0425 -0.0120  0.1171
13467W        W14331  10.071   5.707   1.987 -0.0558 -0.0372  0.0760
13468W        W14332   7.922   7.504   0.941  0.0278 -0.1825  0.2585
13469W        W14333  10.730   6.751   2.578 -0.1269  0.2336 -0.1115
13470W        W14334   8.415   3.803   1.121  0.0314 -0.0488 -0.1509
13471W        W14335   7.701   6.651  13.063  0.0556 -0.0844 -0.3375
13472W        W14336   9.040   4.625   3.592  0.2636  0.0087 -0.0350
13473W        W14337   9.091   5.825   3.263  0.3145 -0.0699 -0.0243
13474W        W14338  10.242   3.785   3.193  0.0649  0.4027 -0.2881
13475W        W14339   6.232   8.194   3.116 -0.0845 -0.0827  0.1792
13476W        W14340   9.738   6.181   3.269 -0.1060  0.0548 -0.0029
13477W        W14341   6.348   2.199   0.472  0.1257 -0.1032  0.1696
13478W        W14342   7.740   4.450   0.794 -0.3945 -0.1197  0.0991
13479W        W14343  11.025   8.121   2.829 -0.0481 -0.2785  0.1717
13480W        W14344   9.879   3.289   0.359 -0.0514 -0.1185  0.0245
13481W        W14345  11.715   5.588  12.017 -0.0188 -0.0348 -0.2830
13482W        W14346  12.224   3.650   2.149 -0.1232 -0.1074  0.0725
13483W        W14347   7.027   6.944   2.003  0.0172 -0.0698 -0.1548
13484W        W14348   9.084   6.026  13.844  0.0765 -0.2335  0.1748
13485W        W14349   7.962   5.111  13.596 -0.0631  0.1312 -0.4902
13486W        W14350   8.599   5.818  13.740 -0.1910  0.1231 -0.0596
13487W        W14351   5.846   3.433   1.556 -0.1586  0.2138 -0.1671
13488W        W14352  11.279   6.672   1.979  0.0618 -0.0404  0.1953
13489W        W14353   8.698   4.197   4.657 -0.1538  0.0570 -0.3571
13490W        W14354   8.542   5.571   3.181  0.1789  0.0206  0.0258
13491W        W14355   9.099   5.625   1.755 -0.0114  0.0743  0.0883
13492W        W14356   6.676   5.854   1.786  0.1770 -0.2668  0.5293
13493W        W14357   9.838   6.425   6.325 -0.0477  0.1165  0.1452
13494W        W14358  12.676   4.212   1.497 -0.0955 -0.3110  0.0465
13495W        W14359   9.851   6.708  12.233  0.1464  0.2312  0.3129
13496W        W14360   8.111   6.035   3.100 -0.3453  0.0802  0.2625
13497W        W14361   5.977   6.603  13.776 -0.2388  0.2027 -0.2228
13498W        W14362  10.358   3.291   3.990  0.3625 -0.2285  0.0637
13499W        W14363   9.091   7.575   3.871 -0.2959 -0.0534 -0.1292
13500W        W14364   8.356   8.857   0.806 -0.1039  0.0952 -0.2728
13501W        W14365   8.743   4.528  12.969  0.0416 -0.2914  0.0571
13502W        W14366   8.196   5.583   2.194 -0.1758 -0.3231  0.0240
13503W        W14367   7.765   4.321   1.842 -0.0211  0.1640  0.3615
13504W        W14368  11.098   0.972   0.491 -0.0004  0.0307 -0.2635
13505W        W14369   9.342   5.827  13.100  0.0164 -0.1232 -0.0451
13506W        W14370   7.788   6.085  13.380  0.1346  0.3133  0.0246
13507W        W14371   8.631   8.020   2.000 -0.1396  0.1055  0.2140
13508W        W14372  10.546   6.834   1.504 -0.1525  0.1328 -0.2064
13509W        W14373  10.096   7.054   5.382 -0.3537 -0.1440 -0.0690
13510W        W14374   9.878   7.420   3.661 -0.0821 -0.2451  0.0245
13511W        W14375   9.821   6.095   1.738  0.4613 -0.2325 -0.0860
13512W        W14376   8.363   3.956   5.275  0.1557  0.1681  0.2962
13513W        W14377  11.388   6.382   2.431  0.0410  0.0568  0.0112
13514W        W14378  10.558   5.213   3.286  0.1200  0.0782  0.0069
13515W        W14379   7.498   3.836  13.351 -0.1548  0.0530 -0.0968
13516W        W14380   7.991   5.662   4.005 -0.0011 -0.1159 -0.0821
13517W        W14381  12.063   4.867   2.024  0.1319  0.0709 -0.1757
13518W        W14382   9.551   4.352   2.849  0.1549 -0.0832 -0.0330
13519W        W14383   8.858   4.301   1.679 -0.1680  0.1339 -0.0083
13520W        W14384   8.820   4.206   2.188  0.3103  0.1703 -0.1547
13521W        W14385   5.337   4.142  12.884 -0.1178 -0.0064  0.2966
13522W        W14386  11.048   3.465   2.979  0.2284  0.1704  0.2876
13523W        W14387   8.150   5.227   3.627 -0.0503  0.1862 -0.2210
13524W        W14388   8.725   5.211   1.739  0.0961 -0.1297 -0.1327
13525W        W14389  10.979   4.010   2.226 -0.0360  0.1023  0.2125
13526W        W14390   9.103   1.323   5.643  0.0026 -0.1442  0.1163
13527W        W14391  11.590   8.575   3.497 -0.4071 -0.1330  0.2449
13528W        W14392  10.149   2.983   1.329 -0.2128 -0.1809 -0.0372
13529W        W14393   9.055   0.349   1.138  0.0135 -0.1117 -0.1538
13530W        W14394  10.023   1.125   4.966 -0.0215  0.1942 -0.1347
13531W        W14395   9.479   7.743   2.586  0.0870 -0.1749  0.0059
13532W        W14396   7.834   5.966   0.990  0.0709  0.1292  0.0668
13533W        W14397   6.997   2.377   1.586  0.1965 -0.2162 -0.0835
13534W        W14398   8.061   3.827   1.939  0.3543  0.0952  0.2079
13535W        W14399  10.967   7.157   2.224  0.1976 -0.1348 -0.1309
13536W        W14400  11.611   2.419   4.366  0.2465  0.4694  0.1729
13537W        W14401   9.161   8.214   0.879 -0.2316  0.1150  0.1104
13538W        W14402   9.059   5.777   2.371 -0.1076 -0.1723 -0.0024
13539W        W14403  11.146   4.117  13.896  0.0936 -0.1493 -0.2483
13540W        W14404   9.493   5.566   3.486  0.0729  0.2650  0.0147
13541W        W14405  12.713   5.302   2.311 -0.2130  0.2114  0.0848
13542W        W14406   6.755   5.669   6.358 -0.0986 -0.2890  0.4588
13543W        W14407   8.706   7.257   3.553 -0.0934 -0.1252 -0.2263
13544W        W14408   9.223   4.198   3.419 -0.0679 -0.0650 -0.3013
13545W        W14409   8.493   6.922   0.724 -0.2310  0.1967 -0.0894
13546W        W14410   7.831   2.998   0.608  0.2662  0.1173  0.0558
13547W        W14411   9.187   5.340   2.621  0.0593 -0.0109 -0.3298
13548W        W14412  11.697   6.577   3.172 -0.2453  0.0305  0.0933
13549W        W14413  10.186   1.713   0.322  0.2433 -0.1224  0.0312
13550W        W14414  12.317   7.686   3.056  0.0597  0.0898 -0.0238
13551W        W14415   7.916   5.244  11.448  0.1786  0.3035 -0.2393
13552W        W14416   8.643   5.658   1.935  0.1703 -0.0935 -0.1521
13553W        W14417  10.746   2.523   1.755 -0.0672 -0.0976 -0.2129
13554W        W14418   8.213   7.053   3.509  0.3123  0.3816 -0.0703
13555W        W14419   6.996   5.072  13.866  0.0278  0.1357 -0.1423
13556W        W14420   9.677   3.255   1.299  0.2303 -0.4075 -0.1659
13557W        W14421   8.860   3.978   1.293  0.0954 -0.0531 -0.0928
13558W        W14422   9.571   6.810   2.495 -0.1731 -0.0287 -0.2134
13559W        W14423  10.090   5.250   3.059 -0.2158  0.5424 -0.2073
13560W        W14424   9.667   7.877  13.612 -0.0245  0.0816 -0.3660
13561W        W14425   8.217   8.031   4.602  0.1620 -0.0146 -0.0049
13562W        W14426   9.578   4.609   0.714  0.2718  0.3494  0.0637
13563W        W14427   4.063   5.060   1.335  0.1713 -0.1991  0.2832
13564W        W14428  12.211   5.157   3.734 -0.2712 -0.1516 -0.0804
13565W        W14429   8.514   7.113   2.342 -0.1557 -0.1189  0.1428
13566W        W14430   9.763   8.071   2.332  0.0582 -0.4154 -0.1703
13567W        W14431  11.721   6.615   3.664 -0.1109 -0.0761 -0.1936
13568W        W14432  11.197   2.519  13.418 -0.0322 -0.1152  0.1262
13569W        W14433  10.979   6.445   3.897  0.1278  0.2267 -0.2129
13570W        W14434  11.886   2.634   0.499 -0.3664  0.5099 -0.0814
13571W        W14435  11.711   6.857   0.546  0.0516 -0.2729 -0.0744
13572W        W14436   6.391   5.308   2.824  0.0748  0.2857  0.0038
13573W        W14437   9.746   2.124   2.316  0.2637  0.0554  0.1704
13574W        W14438   9.025   4.248   3.859 -0.2415  0.3002 -0.0774
13575W        W14439   9.467   5.888   1.431 -0.0686  0.0641 -0.0487
13576W        W14440   7.400   6.271   0.394 -0.5537 -0.1804 -0.2345
13577W        W14441   6.132   3.159  11.743  0.0840  0.0969  0.0033
13578W        W14442   6.867   1.674   0.922  0.1922 -0.4163  0.1564
13579W        W14443   7.366   6.342  10.856 -0.2712 -0.1153  0.0393
13580W        W14444  10.779   4.068   1.529 -0.0190 -0.0260  0.1862
13581W        W14445   8.424   7.219   3.988  0.1173  0.2692 -0.2628
13582W        W14446   7.646   4.776  12.182  0.0627 -0.2177 -0.0548
13583W        W14447  12.371   2.558   2.063  0.2166  0.1802  0.0322
13584W        W14448   9.861   5.765   2.938  0.0869  0.0293  0.1213
13585W        W14449  12.030   7.226   1.414 -0.1932  0.0807 -0.3564
13586W        W14450   8.497   4.303   3.853  0.1812 -0.2067  0.0219
13587W        W14451  11.821   7.919   3.143  0.0236 -0.1149  0.0947
13588W        W14452   8.758   2.601  13.795 -0.1151 -0.0306  0.1592
13589W        W14453  10.743   5.679   0.302  0.0150 -0.2938  0.1483
13590W        W14454   8.056   6.310  13.046 -0.0523 -0.3880 -0.1340
13591W        W14455   9.233   3.810   2.370  0.2245  0.1210 -0.3437
13592W        W14456   8.373   3.398   1.944  0.0278 -0.2470  0.0304
13593W        W14457   4.963   5.494   2.313  0.1697 -0.1332  0.0150
13594W        W14458  10.214   2.923  10.095 -0.3028 -0.0723 -0.4384
13595W        W14459   8.497   2.841  12.829  0.0738  0.0871  0.0500
13596W        W14460   8.407   2.605   1.253 -0.2654  0.0330 -0.1613
13597W        W14461   9.068   4.487   5.171  0.1052  0.2120  0.1394
13598W        W14462  10.166   4.134   3.556 -0.3568  0.1343 -0.1156
13599W        W14463   9.551   2.809   4.626 -0.2048  0.2787 -0.1063
13600W        W14464   9.249   6.802   5.339  0.1399 -0.1279 -0.0798
13601W        W14465   7.755   2.884   3.738 -0.2540 -0.0333  0.2431
13602W        W14466   8.748   6.076   0.846  0.0702 -0.1126  0.0549
13603W        W14467   6.184   4.073  12.843 -0.0910  0.2566 -0.2494
13604W        W14468   9.512   8.306  12.224 -0.1913  0.0505  0.2588
13605W        W14469  10.890   7.459   4.315  0.1276  0.2137 -0.0029
13606W        W14470   8.125   7.827  11.907 -0.0858 -0.0200 -0.0357
13607W        W14471   9.381   6.099   2.872 -0.0792 -0.0269  0.1642
13608W        W14472  12.138   4.248   2.200  0.0998 -0.4771 -0.0825
13609W        W14473   8.844   4.587   0.963 -0.3297  0.0412 -0.4004
13610W        W14474  10.856   5.414   0.905 -0.0873 -0.0308 -0.1368
13611W        W14475  10.482   3.063  13.904  0.1433 -0.2618 -0.2874
13612W        W14476  10.999   2.637   0.899 -0.1548  0.0764  0.2728
13613W        W14477   9.631   2.817   2.465  0.1513 -0.0777  0.1941
13614W        W14478   7.491   6.423   3.457  0.0613 -0.0656  0.0784
13615W        W14479   7.233   6.441  13.867 -0.0895  0.0893  0.2627
13616W        W14480   9.334   3.547   0.178  0.2106  0.0922  0.1912
13617W        W14481   8.917   8.071   0.457 -0.0987  0.1309 -0.0455
13618W        W14482  10.818   6.295  13.559 -0.2530  0.1953  0.1711
13619W        W14483  10.134   4.995   2.409  0.2621 -0.1020  0.0170
13620W        W14484   6.587   4.929  12.257 -0.1140 -0.2282 -0.0086
13621W        W14485  10.322   5.977   0.494  0.2230  0.0119 -0.0168
13622W        W14486   9.717   7.531   3.098 -0.2134  0.1146  0.0537
13623W        W14487  11.025   3.441   0.981  0.2399  0.3022  0.0261
13624W        W14488   5.724   3.027   0.597 -0.1056  0.1519  0.0453
13625W        W14489   7.224   6.356   2.653 -0.0765  0.1412 -0.0162
13626W        W14490   8.628   4.499  13.507 -0.0114 -0.1136  0.1394
13627W        W14491   8.785   7.457  13.799 -0.3121 -0.1643 -0.1386
13628W        W14492   7.683   7.046   1.226  0.3408 -0.0148 -0.3635
13629W        W14493  10.903   5.851   5.326  0.0591 -0.0224  0.0538
13630W        W14494  11.383   2.731   3.120 -0.1451 -0.1043 -0.1287
13631W        W14495   7.227   5.015   0.823 -0.1689 -0.0543  0.3512
13632W        W14496   9.719   4.452   1.202 -0.0991  0.0370  0.0211
13633W        W14497   8.051   3.998   0.667  0.0824  0.0699 -0.0408
13634W        W14498   8.716   5.462   0.845  0.2647  0.2986 -0.0511
13635W        W14499   9.986   4.556   4.501 -0.1569 -0.1698  0.1794
13636W        W14500   4.880   3.805  12.996  0.1669  0.1294  0.1787
13637W        W14501   9.499   3.809   4.281 -0.0382 -0.3289  0.0055
13638W        W14502   9.807   4.967   0.048  0.2690 -0.1023  0.0339
13639W        W14503   7.949   1.606   1.475  0.4369 -0.3389 -0.1678
13640W        W14504  11.669   3.589   1.710  0.0986  0.2522 -0.0587
13641W        W14505   6.544   5.327  11.885 -0.0133  0.0417  0.0145
13642W        W14506   7.589   5.148   4.570  0.0749 -0.3521 -0.0083
13643W        W14507   8.048   6.630   1.136 -0.1494  0.1365 -0.2446
13644W        W14508   8.877   7.107   2.055 -0.0857 -0.0149 -0.0534
13645W        W14509   6.732   3.909   0.111  0.1391 -0.1378 -0.0253
13646W        W14510   8.178   5.231   4.694  0.3195  0.0359 -0.1469
13647W        W14511   6.526   4.696   3.799 -0.3074 -0.0230  0.2623
13648W        W14512   8.349   7.037   3.015 -0.1034 -0.1947 -0.0616
13649W        W14513  11.502   7.039   3.178 -0.2290 -0.2872  0.2319
13650W        W14514  12.022   5.218   0.536  0.0318 -0.0360  0.1034
13651W        W14515   5.583   5.971  13.956 -0.1524  0.2206 -0.2866
13652W        W14516   9.528   5.279   2.177  0.3120  0.2708  0.3913
13653W        W14517  10.331   4.259   3.084 -0.1870 -0.0356  0.0611
13654W        W14518   7.525   4.351   4.641 -0.0975 -0.1010 -0.4363
13655W        W14519  10.167   3.236   3.542 -0.1147  0.3094 -0.2438
13656W        W14520  11.910   5.352   1.932  0.2139  0.2208  0.4377
13657W        W14521   7.924   8.311   3.107  0.1072  0.1662 -0.0523
13658W        W14522   9.492   6.224   0.942  0.2569 -0.0462 -0.0935
13659W        W14523   9.327   5.423   1.362  0.0359 -0.0303 -0.0832
13660W        W14524   8.987   5.287   2.162  0.1285  0.0993 -0.0015
13661W        W14525  10.947   3.822   5.168  0.1692 -0.3299 -0.3757
13662W        W14526   7.138   4.407   3.074  0.0693  0.1955 -0.1752
13663W        W14527  10.462   8.943   1.314  0.0879  0.3252  0.2173
13664W        W14528  10.534   3.729   2.271  0.2788 -0.2421  0.3028
13665W        W14529   9.815   4.728   1.908 -0.1590  0.3497 -0.1560
13666W        W14530   9.350   5.882   5.121  0.0762  0.0137  0.0961
13667W        W14531  11.075   7.359   1.163 -0.0785 -0.1961 -0.1306
13668W        W14532  12.033   6.794   4.798  0.0438 -0.0227 -0.3583
13669W        W14533   8.178   5.529   1.669 -0.0676 -0.5017 -0.0305
13670W        W14534   6.963   4.452   1.956 -0.1384 -0.2379  0.0363
13671W        W14535  11.103   4.506   2.010  0.0663 -0.2261  0.0759
13672W        W14536   8.221   5.664   0.244 -0.1564  0.1162  0.3353
13673W        W14537  11.467   7.205   1.932 -0.2389 -0.1865  0.1239
13674W        W14538  12.851   8.399   3.615  0.1612 -0.0819 -0.0745
13675W        W14539   8.630   5.631   1.353 -0.2468  0.0452 -0.3591
13676W        W14540   7.904   7.135   3.886  0.0805 -0.1042 -0.0355
13677W        W14541   7.036   8.080   2.539 -0.0639  0.0800 -0.1916
13678W        W14542   8.282   5.069   1.489  0.1531  0.1779 -0.0875
13679W        W14543  10.768   4.691   3.353  0.1795 -0.1467  0.0718
13680W        W14544   7.616   6.139   2.375  0.1032  0.2005 -0.0605
13681W        W14545  13.097   4.156   0.538 -0.1721 -0.3541 -0.1591
13682W        W14546  11.897   5.025   2.759 -0.1086 -0.1647  0.1052
13683W        W14547  12.414   8.557   3.547  0.0661  0.0567  0.0466
13684W        W14548   8.518   2.825  12.320 -0.3293 -0.1657 -0.0384
13685W        W14549   8.520   6.492   1.256  0.3550 -0.1573  0.3894
13686W        W14550   6.289   6.258   3.657  0.1217  0.2494 -0.2093
13687W        W14551  12.014   8.505   7.096 -0.1358  0.2571 -0.1255
13688W        W14552  10.945   7.441  13.815  0.0402  0.3700 -0.1470
13689W        W14553   7.580   6.408  12.116  0.1617 -0.2634  0.1926
13690W        W14554  11.491   7.517   0.635  0.1853 -0.0716  0.1396
13691W        W14555   9.624   5.024   1.454  0.1393 -0.0507  0.3719
13692W        W14556   7.067   6.157   1.517  0.1622 -0.0082  0.0640
13693W        W14557   9.034   6.925   1.650  0.2692  0.0767 -0.5637
13694W        W14558  11.210   4.333  11.002  0.4488 -0.0407  0.0867
13695W        W14559   8.432   4.908   1.066 -0.0115 -0.2895 -0.1199
13696W        W14560   8.687   6.773   2.764 -0.4301  0.1019 -0.0256
13697W        W14561   9.477   5.850   2.008  0.4978  0.0246 -0.0821
13698W        W14562   6.748   5.158   0.783 -0.0918 -0.2158 -0.1483
13699W        W14563  10.004   5.184   1.934 -0.3586  0.2544  0.0628
13700W        W14564   7.648   6.205   2.947  0.3912 -0.0666  0.3197
13701W        W14565   8.778   6.972  13.843  0.1945  0.3858 -0.4295
13702W        W14566   9.393   4.533   1.574 -0.0117  0.1769  0.1385
13703W        W14567   5.884   3.688   1.998 -0.1078 -0.0508 -0.1340
13704W        W14568  11.248   4.652   1.073  0.0548 -0.0843  0.1578
13705W        W14569   6.849   6.465   0.185  0.0654  0.1565 -0.2412
13706W        W14570   9.765   4.849   4.206 -0.2158 -0.0313  0.1477
13707W        W14571   9.399   7.353   4.931 -0.0119  0.0208 -0.1103
13708W        W14572   7.899   4.811   2.794  0.1330 -0.2653  0.0623
13709W        W14573  13.218   5.588   2.683  0.0635  0.2043 -0.1365
13710W        W14574  10.967   4.804   4.349  0.0178 -0.2897  0.2694
13711W        W14575   5.731   4.681   3.304  0.3098 -0.2097 -0.0019
13712W        W14576   7.548   3.727   2.052 -0.1643 -0.2382  0.0010
13713W        W14577   7.356   6.605  11.277  0.2892 -0.0752 -0.2068
13714W        W14578   8.721   7.231   0.411 -0.1483  0.2698  0.0661
13715W        W14579   9.476   5.154   5.659  0.0735  0.0842  0.1566
13716W        W14580   5.910   3.049  12.222  0.0951  0.2453  0.1602
13717W        W14581   7.426   5.802  13.609 -0.0502 -0.2036 -0.0532
13718W        W14582   4.077   5.505   3.891 -0.0968 -0.0483 -0.0345
13719W        W14583  10.354   5.315   1.661 -0.0133  0.1608  0.0464
13720W        W14584  10.973   5.330   2.978  0.0239 -0.1038 -0.0735
13721W        W14585  11.788   8.178   2.313  0.1041  0.0610 -0.0344
13722W        W14586  10.788   4.642   5.252 -0.1338  0.0542  0.2344
13723W        W14587  10.673   1.289   0.385  0.0356  0.2820 -0.3604
13724W        W14588   9.309   7.091  13.840 -0.0461  0.0807 -0.1886
13725W        W14589  10.049   6.580   1.529  0.2174 -0.2129  0.1323
13726W        W14590   6.724   4.811  11.735 -0.1296  0.0728  0.3596
13727W        W14591   9.573   3.229   2.135 -0.1216 -0.1277  0.1802
13728W        W14592   5.717   6.461   2.586 -0.0281  0.1274 -0.3478
13729W        W14593   8.956   8.479   0.072 -0.0919 -0.0036 -0.0276
13730W        W14594   8.655   2.939   1.666 -0.1390 -0.1783 -0.0720
13731W        W14595  10.207   4.649  11.988  0.0241 -0.1300  0.0148
13732W        W14596  13.516   6.891   2.894 -0.1622  0.1538  0.0137
13733W        W14597  12.906   4.550   0.840 -0.3420 -0.1007 -0.1051
13734W        W14598   6.035   5.758  13.034 -0.0054  0.1110  0.1091
13735W        W14599   5.405   9.167   0.305 -0.1624  0.1529 -0.1305
13736W        W14600   8.000   4.480   3.875  0.2570 -0.0455  0.0693
13737W        W14601   9.969   4.557   6.424 -0.1427  0.2063  0.1614
13738W        W14602  12.596   5.934   1.793  0.0091 -0.2880 -0.1124
13739W        W14603  10.130   5.675   0.844 -0.0408  0.0474  0.0720
13740W        W14604   9.039   5.886   3.850 -0.0320 -0.1589  0.1648
13741W        W14605  12.012   3.869   3.096 -0.1845  0.0712  0.0722
13742W        W14606   9.341   4.820   2.836 -0.3447 -0.1885 -0.2123
13743W        W14607   9.314   5.167   0.143 -0.0277 -0.2432  0.2480
13744W        W14608   8.114   6.716   0.445  0.2617  0.1822 -0.1898
13745W        W14609   7.292   5.146   1.286  0.2588 -0.1876 -0.2677
13746W        W14610  11.420   6.431   7.173 -0.5634  0.0453 -0.2312
13747W        W14611   9.343   4.001   1.565 -0.1701 -0.3343  0.1319
13748W        W14612   7.981   4.786   0.525  0.1110  0.1521 -0.0086
13749W        W14613  10.349   4.847   1.893 -0.2948 -0.1925  0.2552
13750W        W14614   7.485   6.825   4.049  0.1829 -0.2275 -0.0938
13751W        W14615  10.098   4.919   1.464 -0.1125  0.3347  0.0025
13752W        W14616   7.610   3.004   1.516  0.0067 -0.1150  0.2585
13753W        W14617  11.087   7.805   1.429  0.0821  0.0741  0.0149
13754W        W14618   7.215   5.499  14.007  0.0274  0.1373  0.2617
13755W        W14619  12.152   6.747   2.863 -0.2884 -0.0440 -0.3557
13756W        W14620   8.554   6.435  12.935 -0.2153 -0.3167  0.0770
13757W        W14621   7.248   5.829   2.550  0.0193 -0.1934 -0.1545
13758W        W14622   7.086   6.015  13.971  0.0461 -0.1823 -0.1068
13759W        W14623   6.645   6.677  12.200  0.0192  0.1506  0.2287
13760W        W14624   9.916   1.711   2.574 -0.1105  0.0166  0.0296
13761W        W14625   8.381   8.222   0.309 -0.2219  0.1305 -0.0886
13762W        W14626   7.538   4.717  11.289 -0.2001  0.0501 -0.0314
13763W        W14627   6.035   7.143   0.043  0.1396 -0.1674  0.2481
13764W        W14628   8.989   3.790   1.866  0.0427 -0.1976  0.0280
13765W        W14629  11.456   3.464   1.236  0.2466  0.1994  0.1274
13766W        W14630  12.283   8.162   5.791 -0.2620  0.2853  0.2096
13767W        W14631   9.789   5.644   5.002 -0.2329  0.0175  0.0488
13768W        W14632  12.368   5.048   1.189 -0.0428  0.0190 -0.1652
13769W        W14633   9.520   7.139   5.587 -0.1327  0.0490  0.0102
13770W        W14634  11.326   8.080   2.270  0.0964  0.3830  0.1489
13771W        W14635  11.185   7.597   1.922 -0.0229 -0.1928 -0.0405
13772W        W14636   7.391   3.020   0.312 -0.2037  0.0742 -0.1176
13773W        W14637   9.233   4.256   1.156 -0.3651  0.2311  0.1793
13774W        W14638   8.375   6.468   2.970 -0.2318  0.0627  0.1172
13775W        W14639   7.429   5.656  12.716  0.0213 -0.0091 -0.0181
13776W        W14640   8.832   2.171   0.458  0.0821  0.1236  0.1192
13777W        W14641   8.929   9.250  12.827  0.0270  0.3949  0.1007
13778W        W14642   7.251   5.858  11.295  0.3124  0.1311  0.1520
13779W        W14643   8.877   5.546   4.587  0.0925  0.0008 -0.3314
13780W        W14644   8.080   5.948   2.531 -0.0344  0.2161  0.0652
13781W        W14645   6.848   4.556  13.233  0.2954  0.1392  0.1277
13782W        W14646   8.308   6.383   0.746  0.2477  0.0478 -0.0501
13783W        W14647   6.220   3.054   0.768 -0.1487  0.2560  0.4921
13784W        W14648   8.143   4.356   1.084 -0.4148  0.0295  0.1933
13785W        W14649   9.633   5.708   0.942  0.1126 -0.1090  0.0648
13786W        W14650  13.883   8.255   4.065  0.0203  0.3723  0.0557
13787W        W14651   7.203   6.791  12.927  0.0765  0.0445 -0.0285
13788W        W14652   8.132   4.965  12.493 -0.1133  0.0622 -0.0188
13789W        W14653  10.279   3.996   0.201 -0.0948 -0.0636 -0.0234
13790W        W14654   9.316   7.232   2.737 -0.1548 -0.2575 -0.0153
13791W        W14655   8.639   2.210   3.074 -0.2171 -0.2968  0.5328
13792W        W14656   8.672   4.349   2.669 -0.2313  0.4375  0.1781
13793W        W14657   7.394   4.536  13.943 -0.0902  0.1247  0.2339
13794W        W14658   8.453   6.127   0.275 -0.2839 -0.1876 -0.0651
13795W        W14659  10.477   5.614   3.559 -0.0323  0.1084  0.0177
13796W        W14660  10.220   5.999   2.553  0.2899 -0.1267  0.0141
13797W        W14661  10.556   2.492   2.689  0.0905  0.1128 -0.0007
13798W        W14662  10.355   6.091   1.017  0.1766 -0.2971 -0.0446
13799W        W14663  10.742   7.255   1.779 -0.1717 -0.0479 -0.1499
13800W        W14664  10.072   6.595   3.327 -0.0945  0.1554 -0.0812
13801W        W14665   9.377   5.074   3.986 -0.1785  0.0991  0.2535
13802W        W14666   8.816   5.001   0.704 -0.0726 -0.0667  0.0365
13803W        W14667   9.481   2.497   0.791 -0.1328  0.1100 -0.0934
13804W        W14668   5.070   5.857  12.313  0.1935  0.1016  0.1834
13805W        W14669  11.935   3.733  12.902  0.2967 -0.0786  0.1410
13806W        W14670   8.904   4.890   2.554 -0.0492  0.2352  0.0553
13807W        W14671  11.798   7.738   4.990 -0.1139  0.2295  0.3146
13808W        W14672  11.839   6.756  12.993 -0.1057 -0.1503 -0.2392
13809W        W14673   6.090   5.022   1.714  0.0659  0.1209  0.1496
13810W        W14674   5.627   5.964   1.751  0.0252  0.0376  0.1605
13811W        W14675  11.797   3.385   2.183 -0.2289  0.1291 -0.0462
13812W        W14676   9.937   3.675   3.680  0.1932  0.0027  0.0721
13813W        W14677   6.802   5.798   5.107  0.0179  0.0244  0.2261
13814W        W14678   7.075   2.371   0.680 -0.2572  0.1564 -0.0459
13815W        W14679   5.567   6.956  13.928 -0.0337 -0.1145 -0.3376
13816W        W14680   5.967   3.826   2.469 -0.5596 -0.3620 -0.1723
13817W        W14681  10.284   4.786   3.279  0.2262 -0.3602  0.2010
13818W        W14682   9.806   5.282   3.876 -0.0887  0.0201  0.1980
13819W        W14683   7.701   6.013   3.833 -0.1310 -0.3387 -0.1050
13820W        W14684  10.244   6.255   1.974  0.1755  0.1406 -0.1815
13821W        W14685   8.885   6.408   3.104  0.2300 -0.2033  0.0361
13822W        W14686  10.318   5.048  13.983 -0.1291 -0.0604  0.0110
13823W        W14687   9.281   6.309   3.412  0.0978  0.4368 -0.3860
13824W        W14688   8.689   4.300   3.332 -0.0022  0.1915  0.0050
13825W        W14689   8.547   6.003   2.266  0.3174 -0.4768  0.0304
13826W        W14690  11.149   7.536   0.262 -0.2806  0.0530  0.2018
13827W        W14691  11.588   8.115   3.592  0.0914 -0.2100  0.0862
13828W        W14692  11.072   7.656   2.609 -0.2892  0.1532 -0.2648
13829W        W14693   8.971   4.748   1.490  0.0885 -0.1398 -0.0022
13830W        W14694  10.682   6.088   2.848 -0.1778 -0.1802 -0.0476
13831W        W14695  10.491   7.217   3.642  0.1618  0.0296  0.2484
13832W        W14696   8.918   6.658   1.012 -0.0467 -0.0542 -0.0325
13833W        W14697   7.841   6.140  10.876  0.0263 -0.1248  0.2840
13834W        W14698   8.406   9.093   6.253 -0.0909  0.0146 -0.0551
13835W        W14699   8.378   4.942   5.721 -0.0910  0.0729 -0.0809
13836W        W14700  10.000   5.550   3.421  0.2139  0.1801  0.0903
13837W        W14701  10.640   8.983   7.780  0.0234 -0.1815 -0.2617
13838W        W14702  11.717   7.452   2.849  0.0728 -0.1547 -0.1974
13839W        W14703  10.829   4.344   3.016 -0.0510 -0.2602  0.2080
13840W        W14704  10.289   2.312   4.505  0.5329 -0.0044 -0.1169
13841W        W14705  10.417   5.010   5.114 -0.2148 -0.1648  0.1154
13842W        W14706   9.021   9.764   9.199  0.0877  0.3099 -0.1406
13843W        W14707   9.655   4.417   5.677 -0.1111  0.1501  0.2053
13844W        W14708   4.979   3.832   5.091 -0.1697 -0.1265  0.1365
13845W        W14709  11.248   1.653   3.845  0.2550  0.1329  0.1787
13846W        W14710  10.489   6.633   4.764  0.0684  0.0539  0.1596
13847W        W14711   9.362   2.266   5.456 -0.0007  0.0070 -0.1512
13848W        W14712   6.111   4.334   7.331  0.0109 -0.5235 -0.2777
13849W        W14713   7.785   3.967   7.641 -0.0410  0.1616  0.3479
13850W        W14714   8.350   5.568   4.408 -0.0969 -0.0003 -0.1878
13851W        W14715   6.007   4.941   4.663  0.1854 -0.0640 -0.0923
13852W        W14716   9.260   6.347   3.869  0.1491  0.1140  0.0316
13853W        W14717  11.845   4.374   4.497 -0.0025  0.0098  0.1274
13854W        W14718  10.579   7.253   6.688 -0.0783  0.1481 -0.2259
13855W        W14719  10.397   4.093   3.955 -0.1590 -0.2037  0.1673
13856W        W14720   8.261   5.886   5.437 -0.2320  0.3137  0.0428
13857W        W14721   8.416   6.291   6.822 -0.0119  0.0311  0.3825
13858W        W14722   6.735   4.938   4.246  0.1225  0.0759 -0.0187
13859W        W14723   8.536   5.394   5.382 -0.1936 -0.3507 -0.1274
13860W        W14724   8.899   4.937   3.982  0.0292  0.0398  0.2847
13861W        W14725   8.331   4.773   4.630 -0.1274 -0.2136  0.2006
13862W        W14726  10.927   6.936   3.700  0.1135  0.2076 -0.0529
13863W        W14727  11.787   2.530   5.794 -0.0187  0.0705 -0.1364
13864W        W14728   9.268   3.239   6.123 -0.0858  0.1297 -0.0068
13865W        W14729  10.948   7.190   8.566  0.0127 -0.2144  0.1395
13866W        W14730   8.482   3.361   7.670 -0.0949  0.1012 -0.0201
13867W        W14731   9.014   3.112   4.270  0.1415  0.0152  0.1156
13868W        W14732   4.553   3.864   7.825  0.0473  0.2841  0.1267
13869W        W14733   9.397   8.718   8.197  0.1659 -0.0090 -0.0392
13870W        W14734   7.636   1.981   3.576 -0.1291 -0.1163 -0.2157
13871W        W14735   7.182   4.867   3.318  0.0811 -0.1557 -0.1436
13872W        W14736  10.972   8.423   5.200  0.5041 -0.1526 -0.0116
13873W        W14737   8.428   2.160   8.241 -0.0043 -0.3123  0.0006
13874W        W14738   7.915   5.182   2.404 -0.1696 -0.0755  0.2095
13875W        W14739  10.260   4.113   4.409  0.2037  0.0344 -0.1000
13876W        W14740   8.122   7.237   7.077  0.0527 -0.0047 -0.1608
13877W        W14741   7.506   4.832   6.224 -0.0141  0.0012 -0.0328
13878W        W14742   8.320   9.604   4.451  0.0637 -0.2847 -0.0180
13879W        W14743   8.425   7.529   4.822  0.2492  0.2474  0.3761
13880W        W14744   7.180   1.130   6.707  0.1029  0.0354 -0.2578
13881W        W14745  12.256   6.191   7.044 -0.1204  0.1413  0.3759
13882W        W14746  11.466   7.400   5.277  0.2240  0.3484  0.1053
13883W        W14747   7.834   4.174   4.242 -0.0888 -0.1799 -0.1224
13884W        W14748   6.615   6.768   8.292 -0.0675 -0.2602  0.4484
13885W        W14749   7.766   4.446   5.946  0.0489  0.0207  0.3138
13886W        W14750  10.826   8.185   6.657  0.0873  0.0514 -0.0666
13887W        W14751   9.264   3.716   5.223  0.0792  0.1044  0.1848
13888W        W14752  10.092   4.311   5.444  0.0397  0.0371 -0.1058
13889W        W14753  10.142   6.879   5.877  0.2707  0.0488  0.0668
13890W        W14754   7.137   2.955   4.986  0.0053  0.2476 -0.0285
13891W        W14755  10.331   6.115   4.822 -0.4331  0.0148 -0.0906
13892W        W14756   7.759   8.895   6.784  0.1745  0.1502  0.0901
13893W        W14757   9.815   5.534   4.441 -0.0732  0.1502 -0.2877
13894W        W14758  10.062   4.627   3.907  0.0007  0.1257 -0.0428
13895W        W14759   9.069   7.110   4.427 -0.0935  0.2125 -0.1587
13896W        W14760   9.492   4.848   7.206 -0.0757  0.1704  0.2369
13897W        W14761  11.435   2.573   1.799  0.3296  0.1236 -0.1919
13898W        W14762   9.998   5.022   9.433  0.4898 -0.1453  0.1344
13899W        W14763  10.421   4.883   4.555 -0.1937 -0.0775  0.0934
13900W        W14764   7.337   4.975   4.159 -0.2508  0.0866  0.0140
13901W        W14765   7.769   3.631   2.978 -0.0069 -0.3387  0.0304
13902W        W14766  11.282   5.999   5.028  0.2004  0.2761  0.2712
13903W        W14767  10.209   6.885   6.491 -0.2204  0.0863  0.1098
13904W        W14768  10.716   5.760   7.191 -0.1146  0.0842 -0.0311
13905W        W14769   8.759   5.401   6.278  0.1820 -0.2242 -0.1010
13906W        W14770  11.088   5.454   5.668  0.0186 -0.1882 -0.0057
13907W        W14771   8.508   5.399   3.943 -0.0714 -0.0316 -0.3363
13908W        W14772  11.454   8.265   5.461 -0.1361 -0.1106  0.2438
13909W        W14773   9.440   5.861   7.291  0.3499  0.2505 -0.0493
13910W        W14774   9.197   7.625   4.441 -0.0626 -0.3049 -0.2635
13911W        W14775   9.292   5.916   5.802  0.1132 -0.0575  0.1838
13912W        W14776   8.192   7.361   0.472  0.3758 -0.1364 -0.1345
13913W        W14777   9.990   6.409   4.623  0.1627 -0.0961 -0.1495
13914W        W14778   6.621   5.177   6.410 -0.2835  0.0660 -0.3338
13915W        W14779   6.783   3.898   5.079 -0.0021 -0.1116 -0.1107
13916W        W14780   6.948   4.255   8.006  0.2929  0.1245 -0.2256
13917W        W14781  11.038   5.373   7.040  0.2605  0.0955 -0.2397
13918W        W14782  10.337   4.813   9.084  0.2013 -0.2655  0.2219
13919W        W14783   7.691   5.710   2.724 -0.2020 -0.0931  0.0664
13920W        W14784  12.927   9.815   8.151 -0.1406  0.1788  0.2261
13921W        W14785   9.118   5.076   9.125  0.1844  0.1879  0.1491
13922W        W14786  11.758   7.008   8.659  0.4969 -0.2137  0.0048
13923W        W14787   9.763   4.832   8.389  0.0415  0.1176 -0.0591
13924W        W14788   9.673   5.160   5.135 -0.0432 -0.0298 -0.1864
13925W        W14789   8.279   5.422   7.363 -0.1425 -0.2073  0.0188
13926W        W14790   8.193   6.679   5.414  0.3432 -0.0757 -0.0187
13927W        W14791   8.487   2.805   2.666 -0.1513  0.1907  0.1591
13928W        W14792   8.151   4.674   6.141  0.0024  0.0250 -0.0701
13929W        W14793   8.208   1.018   5.015  0.1362  0.1845 -0.0041
13930W        W14794  10.334   2.922   6.931 -0.0289  0.3088 -0.0899
13931W        W14795  10.055   7.916   7.228 -0.0589  0.2753  0.0086
13932W        W14796   6.867   3.749   3.360 -0.3800 -0.0141 -0.2368
13933W        W14797  11.583   4.669   4.832 -0.1683 -0.0942 -0.0319
13934W        W14798  13.338   7.292   4.519 -0.1789 -0.0613 -0.0494
13935W        W14799  11.325   5.006   5.164 -0.2808  0.0557  0.0305
13936W        W14800   9.858   6.097   7.177 -0.0604  0.0035  0.1378
13937W        W14801   9.422   1.282   6.162 -0.0626 -0.1194 -0.1840
13938W        W14802   9.305   6.624  10.764  0.0764 -0.0680 -0.1979
13939W        W14803   8.294   6.332   4.183  0.2260  0.1058  0.3620
13940W        W14804   9.398   6.327   6.136 -0.1268  0.0433  0.1192
13941W        W14805   9.476   4.606   3.776 -0.0721  0.1607  0.1442
13942W        W14806   8.936   3.572   7.830 -0.1315 -0.1190  0.1044
13943W        W14807   7.822   4.673   4.352 -0.0816 -0.2572 -0.0861
13944W        W14808   9.666   3.130   5.865  0.2534 -0.2351 -0.0630
13945W        W14809   9.990   5.713   5.720 -0.1281  0.2529  0.0132
13946W        W14810   7.851  10.583   7.731 -0.2660  0.0390 -0.0187
13947W        W14811   8.922   7.530   5.853  0.1408 -0.1382  0.0768
13948W        W14812   7.977   2.805   2.668  0.2041  0.2387  0.0115
13949W        W14813  10.910   2.692   6.324 -0.0312 -0.2309 -0.0463
13950W        W14814  11.640   7.443   5.973 -0.0820 -0.0415 -0.1503
13951W        W14815   8.979   4.584   7.171  0.2978  0.0446 -0.1950
13952W        W14816  10.738   2.972   2.870  0.0099 -0.1330  0.0903
13953W        W14817  11.583   6.401   4.902 -0.1522 -0.0872 -0.1027
13954W        W14818   7.597   8.129   1.800  0.0955 -0.0258  0.0045
13955W        W14819  11.527   3.881   2.848 -0.2998  0.0221  0.0766
13956W        W14820   8.285   6.541   4.662  0.2260  0.0251  0.0203
13957W        W14821  10.050   4.253   4.934 -0.0898  0.0209 -0.0053
13958W        W14822   5.264   1.448   5.557 -0.1343  0.1133  0.1400
13959W        W14823  11.281   5.768   6.716  0.0381 -0.1648  0.0815
13960W        W14824  11.274   9.402   7.186  0.0051  0.0876 -0.0079
13961W        W14825   9.921   7.458   4.789 -0.1324 -0.0259  0.3017
13962W        W14826   7.264   9.780   7.112 -0.4613 -0.1791  0.0131
13963W        W14827  10.032   2.690   5.804  0.5127 -0.0469 -0.0304
13964W        W14828   7.836   4.768   9.200  0.1841  0.1970 -0.1093
13965W        W14829   9.486   2.498   2.788  0.2101  0.1011  0.0272
13966W        W14830  10.961   6.687   4.988 -0.0509 -0.1449  0.1379
13967W        W14831   8.413   6.326   6.332  0.2346 -0.0391 -0.0032
13968W        W14832   8.891   2.922   6.435  0.1980  0.1975 -0.0516
13969W        W14833  10.481   7.231   5.652  0.1368  0.1070 -0.2513
13970W        W14834  10.433   5.622   6.800 -0.0903 -0.3096  0.2758
13971W        W14835   9.714   3.194   3.550  0.2889 -0.0050 -0.0786
13972W        W14836   8.599   4.959   6.867  0.3355 -0.0403  0.3184
13973W        W14837   8.390   4.802   3.987 -0.1205 -0.0246 -0.2834
13974W        W14838   8.471   4.766   3.488 -0.0824 -0.0810 -0.2271
13975W        W14839  10.662   5.822   8.743  0.1096 -0.1225 -0.0987
13976W        W14840   8.196   4.150   3.445  0.0623 -0.1455 -0.0835
13977W        W14841   9.815   2.274   3.407 -0.0300  0.2329  0.0823
13978W        W14842   9.474   7.249   6.090  0.2963 -0.0579 -0.0315
13979W        W14843  10.498   6.421   7.721 -0.2169  0.1821  0.0793
13980W        W14844   9.075   5.099   4.493 -0.0500  0.2112 -0.2358
13981W        W14845  11.967   6.244   9.694 -0.1403 -0.1044  0.1432
13982W        W14846   8.085   3.175   2.372  0.1573  0.0342 -0.0548
13983W        W14847  10.225   5.307   4.316 -0.1454 -0.1570 -0.1630
13984W        W14848   8.399   3.482   2.628 -0.1025 -0.0625  0.1293
13985W        W14849   7.863   7.446   8.363  0.1275  0.1530 -0.0886
13986W        W14850   8.521   3.826   6.361 -0.0060 -0.3131  0.0375
13987W        W14851   7.886   6.276   4.605 -0.2557 -0.0975 -0.1942
13988W        W14852   9.963   4.775   5.045  0.2625 -0.0010  0.1001
13989W        W14853   8.312   4.384   4.323 -0.1643  0.1192 -0.2315
13990W        W14854  10.306   1.769   1.427 -0.3180 -0.2696 -0.0580
13991W        W14855   9.659   1.217   5.692  0.0526 -0.1560 -0.0751
13992W        W14856   9.233   7.618   6.313  0.1338 -0.1058  0.0180
13993W        W14857   8.914   4.950   8.492 -0.2744 -0.1015 -0.0075
13994W        W14858  12.049   5.120   7.938 -0.2778 -0.0845  0.0708
13995W        W14859   8.750   5.977   6.573  0.1156 -0.0185  0.2864
13996W        W14860   5.541   1.916   5.559 -0.1005  0.0506 -0.2676
13997W        W14861  10.696   5.824   6.233  0.0106  0.0660 -0.0287
13998W        W14862  10.582   6.824   5.213 -0.0155  0.1287 -0.2331
13999W        W14863   8.010   6.051   6.715 -0.3081  0.1437  0.0522
14000W        W14864   6.694   2.936   6.422 -0.1106  0.0407  0.1527
14001W        W14865  10.900   6.674   4.459  0.4405  0.0611  0.2377
14002W        W14866  11.312   4.280   5.207 -0.1791 -0.1396  0.1301
14003W        W14867  10.278   4.304   6.868 -0.0993 -0.0979 -0.1335
14004W        W14868   9.826   7.686   4.291  0.1644 -0.1190 -0.2255
14005W        W14869  10.605   2.558   4.898  0.1728 -0.1281  0.0007
14006W        W14870   7.841   2.957   5.412 -0.0094 -0.2878 -0.1005
14007W        W14871   8.900   5.481   6.731 -0.1864  0.0075 -0.1766
14008W        W14872   9.467   5.378   7.332 -0.0771  0.2303 -0.1137
14009W        W14873   5.221   7.040   4.640 -0.0583  0.0014 -0.3155
14010W        W14874   9.233   4.086   6.481  0.3280  0.1809  0.1330
14011W        W14875   8.546   8.587   2.240 -0.1088  0.3513  0.1158
14012W        W14876   9.211   7.191   3.557  0.1188 -0.0206  0.1645
14013W        W14877   8.337   5.957   1.101  0.1373  0.2255 -0.0170
14014W        W14878   9.235   0.922   4.181  0.0696 -0.1256 -0.2035
14015W        W14879   8.627   2.196   2.057  0.0181  0.1069  0.3170
14016W        W14880  13.672   8.777   7.555 -0.1317 -0.0421 -0.0342
14017W        W14881   9.851   3.250   4.039  0.2683  0.0137 -0.1723
14018W        W14882   7.073   5.511   0.976  0.0317  0.3680  0.2321
14019W        W14883   9.705   6.947   6.465  0.0789 -0.0675 -0.2303
14020W        W14884   9.263   3.728   6.093 -0.0340 -0.1095 -0.0034
14021W        W14885   8.649   8.784   4.708 -0.0185 -0.0822  0.4444
14022W        W14886   7.721   7.407   5.212  0.0815 -0.1029  0.1609
14023W        W14887   4.534   5.432   5.751  0.2850  0.0080  0.0426
14024W        W14888   7.093   4.990   7.344  0.0848 -0.0283  0.0559
14025W        W14889   9.057   1.349   6.976  0.4973 -0.0910  0.4165
14026W        W14890   7.019   2.578   6.312  0.2597 -0.2331 -0.1001
14027W        W14891  11.117  13.716   5.155  0.1140 -0.0031 -0.0517
14028W        W14892   8.812   3.925   5.117  0.0805  0.1806  0.0777
14029W        W14893   5.170   4.018   2.697 -0.3886  0.1029  0.1723
14030W        W14894   8.467   1.386   5.941  0.1009  0.0639 -0.1192
14031W        W14895   7.962   2.556   6.091 -0.2836 -0.1476 -0.1029
14032W        W14896  11.185   6.010   6.279  0.1268  0.2095  0.4470
14033W        W14897   8.308   7.523   3.241 -0.0874 -0.2399  0.0749
14034W        W14898   9.547   2.697   5.594 -0.0839  0.1430  0.1313
14035W        W14899   9.933   5.035   6.382  0.1692 -0.2095  0.0057
14036W        W14900   6.482   3.514   3.711 -0.2547 -0.0758 -0.0376
14037W        W14901   6.925   5.482   7.152  0.1588 -0.1960 -0.0897
14038W        W14902  10.220   3.846   5.273  0.0721  0.0650  0.0014
14039W        W14903   8.524   5.995   2.798  0.3004 -0.0437  0.0298
14040W        W14904   9.644   6.092   4.695 -0.1096 -0.0444 -0.0798
14041W        W14905   6.402   7.127   4.909  0.0072  0.1167  0.2061
14042W        W14906   7.359   2.728   5.413  0.2217  0.1091  0.2002
14043W        W14907  11.426   3.699   5.515  0.2178 -0.1363 -0.1577
14044W        W14908  12.653   5.394   3.886 -0.0963  0.0561 -0.1657
14045W        W14909  10.417   7.363   7.712 -0.1151  0.2095 -0.1306
14046W        W14910  11.707   8.445   4.907 -0.1386 -0.0655 -0.0811
14047W        W14911  10.231   3.785   1.677  0.0059  0.3760  0.2813
14048W        W14912  11.770   5.764   1.680 -0.1535  0.2937 -0.0642
14049W        W14913  10.476   6.468   6.641 -0.1751  0.1400 -0.0582
14050W        W14914   8.496   5.174   8.311 -0.3870  0.1277  0.4009
14051W        W14915   8.042   1.533   6.959 -0.2339 -0.3178 -0.2911
14052W        W14916  10.268   5.599   6.270  0.1705 -0.0161  0.0348
14053W        W14917   9.411   7.740   7.724 -0.0488 -0.1028 -0.0245
14054W        W14918   6.908   3.130   3.819  0.1157 -0.0192 -0.1923
14055W        W14919   9.058   8.343   5.121  0.1616 -0.1389 -0.2091
14056W        W14920   4.780   4.895   5.310 -0.0764  0.1132 -0.1572
14057W        W14921   9.919   6.925   4.663 -0.2378 -0.0753 -0.0870
14058W        W14922   9.400   7.734   6.802  0.0757 -0.0115  0.1305
14059W        W14923  10.062   7.856   5.199  0.3105  0.1533 -0.0018
14060W        W14924  10.768   5.373   6.049  0.0568  0.0477 -0.0534
14061W        W14925  11.728   5.409   6.970 -0.1615 -0.1242 -0.1686
14062W        W14926   9.681   4.153   3.644 -0.0024 -0.0478  0.0834
14063W        W14927   9.050   5.427   4.100  0.0387 -0.1959 -0.0176
14064W        W14928   6.938   2.973   6.982 -0.1113  0.0257  0.2604
14065W        W14929   8.964   9.325   5.275 -0.0439  0.1258 -0.1725
14066W        W14930   9.766   3.964   3.093 -0.0320 -0.2430 -0.0416
14067W        W14931   9.958   2.309   6.406 -0.2069  0.1175 -0.1458
14068W        W14932  11.856   7.109   6.907 -0.0191  0.1780  0.0329
14069W        W14933  10.975   3.982   7.182  0.3231 -0.0620 -0.1474
14070W        W14934   8.906   5.709   2.789 -0.3214  0.0182 -0.2447
14071W        W14935   7.559   4.175   8.423 -0.1502 -0.0440 -0.0109
14072W        W14936   7.928   2.031   5.191 -0.0217  0.2898 -0.2043
14073W        W14937   8.362   2.834   5.759 -0.1901  0.2869  0.1496
14074W        W14938  12.260   2.386   6.162  0.0246  0.0674 -0.1887
14075W        W14939   9.458   7.918   3.967  0.0846  0.0426 -0.1549
14076W        W14940  10.223   6.068   6.912 -0.1024  0.3930  0.1359
14077W        W14941   6.994   5.673   9.206  0.0164 -0.2138 -0.0576
14078W        W14942   9.118   9.109   4.865 -0.0873 -0.1897 -0.0744
14079W        W14943   8.559   1.800   3.756 -0.1299 -0.0638 -0.3751
14080W        W14944   7.543   6.391   4.950 -0.1576  0.2142  0.1884
14081W        W14945   8.178   7.613   6.595 -0.2848 -0.0445  0.1281
14082W        W14946  10.245  10.474   8.748 -0.5366 -0.0635 -0.2116
14083W        W14947  11.236   6.590   6.389  0.2417  0.0383  0.2556
14084W        W14948   9.448   3.535   3.882  0.1759  0.3318 -0.2568
14085W        W14949  10.884   7.881   5.242 -0.0888  0.0599  0.0981
14086W        W14950   9.972   1.401   3.676 -0.1741  0.1743 -0.0321
14087W        W14951   8.108   0.667   4.516  0.1686  0.1072 -0.1922
14088W        W14952  11.307   6.660   3.446 -0.0365  0.1767 -0.1234
14089W        W14953   9.543   5.009   4.655  0.0770  0.2062 -0.3223
14090W        W14954  11.585   1.500   5.313 -0.0701 -0.0812  0.1665
14091W        W14955   7.513   3.877   6.007 -0.0512 -0.3758  0.1582
14092W        W14956  10.527   7.742   8.533  0.1200 -0.0240 -0.1215
14093W        W14957  10.106   6.646   5.075  0.2272 -0.1517  0.2275
14094W        W14958   8.706   8.804   5.207  0.3002 -0.2628 -0.0403
14095W        W14959   4.896   4.124   6.036  0.0895 -0.1944  0.2456
14096W        W14960   7.726   7.270   4.476  0.1732 -0.0484 -0.0514
14097W        W14961  10.018   7.236   6.194  0.1369  0.0425  0.0725
14098W        W14962   9.497   7.257   2.248 -0.0505 -0.1914  0.3192
14099W        W14963   9.795   5.341   6.017  0.0969  0.0430 -0.2067
14100W        W14964   9.207   9.000   6.646 -0.0291 -0.1515  0.0725
14101W        W14965  10.856   5.153   5.360  0.0197 -0.0814  0.0318
14102W        W14966  11.815   4.306   6.673 -0.2766  0.0559 -0.1376
14103W        W14967  10.602   5.726   7.685 -0.2753  0.0868 -0.1316
14104W        W14968   8.692   3.771   9.261  0.0377 -0.0448  0.2593
14105W        W14969   8.253   4.644   6.670 -0.0515  0.0145  0.0608
14106W        W14970   7.661   3.577   7.302 -0.0998  0.3375 -0.2618
14107W        W14971  10.047   5.344   5.353 -0.1998 -0.1970  0.1012
14108W        W14972   9.807   5.735   9.824 -0.1766 -0.3179 -0.0763
14109W        W14973   8.816   8.459   5.543 -0.2231 -0.0581 -0.0509
14110W        W14974   8.730   6.319   3.778  0.2126 -0.0030 -0.4197
14111W        W14975   8.131   5.760   4.962  0.1449 -0.1771  0.0284
14112W        W14976   5.249   6.952   5.307  0.1846 -0.4465 -0.0358
14113W        W14977  11.050   3.966   2.722  0.1493 -0.2326 -0.0410
14114W        W14978  13.488   3.882   6.835  0.0818  0.0060  0.2306
14115W        W14979   7.746   5.421   6.009 -0.1910  0.1039 -0.2056
14116W        W14980  10.172   4.647   5.961  0.3418 -0.1108 -0.1131
14117W        W14981  11.958   3.798   5.238 -0.2819  0.3139  0.0632
14118W        W14982   7.377   6.792   5.262  0.2412  0.0468  0.1129
14119W        W14983   9.132   3.135   4.773  0.0029 -0.3493 -0.0155
14120W        W14984   8.431   6.027   4.676 -0.3069  0.0866 -0.0077
14121W        W14985   5.314   6.305   4.096 -0.1516  0.1342  0.0440
14122W        W14986  11.386   6.207   3.751 -0.2211  0.2170 -0.3722
14123W        W14987   8.413   3.813   5.735 -0.1144  0.0774 -0.0671
14124W        W14988   9.582   5.232   9.089 -0.1315 -0.3276 -0.1051
14125W        W14989  12.474   6.359   6.420 -0.0954  0.0635  0.2194
14126W        W14990  10.722   2.815   7.237 -0.2916 -0.0278 -0.2094
14127W        W14991   4.363   7.265   3.390 -0.1718 -0.2068  0.0263
14128W        W14992   5.763   5.981   3.270  0.2770  0.1969 -0.0335
14129W        W14993   4.900   3.571   9.528  0.0343 -0.1728  0.0223
14130W        W14994   6.082   5.890   7.041  0.2978  0.2867  0.2312
14131W        W14995   9.850   8.007   6.737  0.0475 -0.1997  0.0623
14132W        W14996  11.024   6.915   2.960  0.1964 -0.0738 -0.1075
14133W        W14997   9.380   9.225   8.098  0.3427 -0.1470 -0.0912
14134W        W14998  11.698   8.405   8.033  0.0559  0.1567 -0.4892
14135W        W14999   7.680   3.384   4.644 -0.0706 -0.1656 -0.0901
14136W        W15000  12.069   5.593   7.783 -0.0091 -0.1982  0.2492
14137W        W15001   8.201   2.389   4.315  0.1416 -0.0025 -0.2317
14138W        W15002   8.994   3.254   1.936 -0.1557  0.0623 -0.1137
14139W        W15003   7.883   3.655   9.262 -0.0636  0.1537  0.2545
14140W        W15004  11.004   6.897   5.455  0.1352 -0.0399  0.2793
14141W        W15005  10.771   6.820   6.474  0.0602 -0.3399 -0.1710
14142W        W15006  10.271   6.475   8.261  0.0241  0.2535 -0.2509
14143W        W15007   6.005   4.972   7.262  0.3214  0.0598  0.0806
14144W        W15008   9.720   3.756   5.052  0.0238  0.1551  0.1543
14145W        W15009   8.685   2.396   3.578  0.1760 -0.1241  0.0071
14146W        W15010   9.779   8.821   5.141  0.0808  0.1848  0.0341
14147W        W15011   8.604   2.857   3.853 -0.2135 -0.2233 -0.3593
14148W        W15012   9.547   7.271   4.480  0.1138  0.2761  0.0650
14149W        W15013  11.924   7.141   4.413  0.2398 -0.1690 -0.2364
14150W        W15014   7.855   5.625   6.500  0.0877 -0.0737  0.1538
14151W        W15015  11.063   6.451   6.846 -0.0009  0.0769 -0.0009
14152W        W15016   8.052   4.338   2.659 -0.1111  0.1955  0.0178
14153W        W15017   7.285   4.901   8.044  0.2858  0.2567 -0.2433
14154W        W15018   8.975   4.036   7.128 -0.0994  0.2090 -0.1130
14155W        W15019   7.986   6.471   2.191 -0.0554 -0.1478 -0.0527
14156W        W15020   8.115   3.923   3.885  0.0439  0.1577  0.0724
14157W        W15021   8.347   2.790   6.310 -0.1251 -0.2116  0.0606
14158W        W15022   8.678   5.775   5.074 -0.0081  0.1973  0.0353
14159W        W15023  11.291   3.148   3.965 -0.1006 -0.1006  0.1532
14160W        W15024  11.222   7.208   8.127  0.0414 -0.0583 -0.2747
14161W        W15025  11.890   9.172   7.856  0.0479  0.1071  0.0488
14162W        W15026  11.777   5.424   8.237  0.1797  0.1437 -0.2493
14163W        W15027   9.939   7.035   7.470 -0.0846 -0.1397  0.2913
14164W        W15028   8.633   8.205   3.184  0.1909 -0.1692 -0.1514
14165W        W15029  12.949   7.121   3.547  0.2098 -0.1153  0.0903
14166W        W15030   9.645   3.391   5.456  0.1592  0.0550  0.6253
14167W        W15031   7.799   2.078   6.221  0.3029 -0.0960  0.3264
14168W        W15032   6.034   7.489   4.919  0.3129  0.1096 -0.0148
14169W        W15033  10.046   4.606   7.540 -0.1167  0.2452  0.0648
14170W        W15034   9.090   1.782   6.183 -0.0240 -0.1725 -0.4246
14171W        W15035   9.875   9.094   3.885  0.1704  0.1367  0.0123
14172W        W15036  10.828   6.542   3.264 -0.0952 -0.0668 -0.1089
14173W        W15037   7.702   6.088   7.157 -0.0073 -0.1629  0.1813
14174W        W15038   9.709   3.925   5.579 -0.2931  0.1055 -0.2926
14175W        W15039   6.449   3.470   4.705 -0.0996  0.0077  0.0408
14176W        W15040  10.312   5.206   5.919  0.0594  0.2178 -0.1565
14177W        W15041   8.449   5.906   3.887  0.2926  0.1184 -0.0656
14178W        W15042   9.452   4.710   5.330  0.2035 -0.0994 -0.0612
14179W        W15043  11.461   2.273   2.847 -0.0721 -0.1349  0.3051
14180W        W15044   8.753   4.916   5.321 -0.1685 -0.1471 -0.0792
14181W        W15045   9.701   7.522   6.516  0.0365 -0.0460 -0.2666
14182W        W15046   8.151   7.630   5.468  0.1291  0.2163 -0.0512
14183W        W15047  10.986   5.584   3.421  0.0610  0.1645  0.1753
14184W        W15048   7.424   6.275   5.419  0.0349 -0.0281  0.0521
14185W        W15049   9.096   4.801   5.656 -0.1054  0.2365  0.1639
14186W        W15050   7.335   3.416   6.081  0.2245  0.1629 -0.3479
14187W        W15051   5.611   5.557   2.960 -0.0118 -0.0823  0.0021
14188W        W15052  10.557   2.907   5.878  0.2830  0.1174  0.0908
14189W        W15053  10.505   7.740   6.887  0.0837 -0.3837 -0.2668
14190W        W15054   8.847   2.970   5.351 -0.0690  0.1786 -0.1785
14191W        W15055  10.842   4.309   7.572 -0.0383  0.0726  0.0505
14192W        W15056  10.337   6.520   6.109  0.1444 -0.1111  0.0270
14193W        W15057   9.372  10.540   9.014 -0.2589  0.2658 -0.1435
14194W        W15058   9.796   6.781   4.166  0.0334 -0.1328 -0.1251
14195W        W15059  11.285   6.384   5.365 -0.1637  0.1718 -0.3397
14196W        W15060  10.400   2.807   3.584  0.0732  0.1507  0.3561
14197W        W15061   0.014   3.480   6.122  0.5123 -0.1103 -0.1219
14198W        W15062   7.378   4.476   4.147  0.0961 -0.2297 -0.1140
14199W        W15063   9.259   3.185   6.622  0.2142 -0.2155  0.0061
14200W        W15064  12.143   8.262   2.742  0.0281  0.5257  0.3490
14201W        W15065   9.524   8.009   6.368 -0.0819 -0.0121  0.0415
14202W        W15066  12.748   7.659   6.679 -0.1976  0.2386 -0.0817
14203W        W15067   9.326   3.772   7.466 -0.0465 -0.3035  0.0584
14204W        W15068   7.431   2.265   5.415 -0.2615 -0.0268 -0.0835
14205W        W15069  12.549   8.253   7.254 -0.1983 -0.0347 -0.0768
14206W        W15070   5.997   3.243   7.234 -0.2595  0.1212 -0.2431
14207W        W15071   7.858   5.079   7.373 -0.0182 -0.0029  0.1033
14208W        W15072  11.403   3.926   4.856  0.2261  0.1473  0.0141
14209W        W15073   7.502   7.705   6.253  0.0909  0.0069 -0.2446
14210W        W15074  10.942   6.061   5.789 -0.1304 -0.0883 -0.0587
14211W        W15075   8.702   7.039   7.237 -0.2693 -0.2326  0.0920
14212W        W15076   8.539   7.256   6.677  0.2039 -0.0685 -0.0282
14213W        W15077   7.432   5.337   7.136 -0.0961 -0.4189 -0.0458
14214W        W15078   8.555   7.606   7.131 -0.0997 -0.0602 -0.0738
14215W        W15079   8.549   4.940   6.341 -0.4713 -0.1019  0.2192
14216W        W15080   8.665   7.872   4.530 -0.2366 -0.1255  0.1926
14217W        W15081   8.259   8.109   6.387 -0.0274  0.1250 -0.3076
14218W        W15082  11.172   5.932  11.190 -0.0476  0.3564  0.0632
14219W        W15083   8.914   3.833   5.601  0.1310  0.2448  0.0210
14220W        W15084  11.064   5.001   6.339 -0.2377  0.0921  0.2322
14221W        W15085   9.326   7.212   6.659  0.0290  0.0025  0.0930
14222W        W15086   7.769   5.835   5.374 -0.2532  0.1209  0.2116
14223W        W15087  10.451   6.898   7.458 -0.1955 -0.0272 -0.0430
14224W        W15088   8.643   5.146   4.905 -0.0904  0.2459  0.0937
14225W        W15089  10.587   6.386   7.114 -0.0642  0.0969 -0.1765
14226W        W15090   8.813   3.546   6.021 -0.2093 -0.1718  0.3058
14227W        W15091   6.733   6.043   3.227 -0.0503 -0.1642 -0.3951
14228W        W15092   6.064   5.049  10.590  0.0163 -0.0862 -0.1798
14229W        W15093   5.535   6.067  13.463  0.0267  0.0716  0.2720
14230W        W15094  10.961   6.725   8.825  0.1675 -0.2222 -0.3390
14231W        W15095  10.297   8.430  12.004  0.1587 -0.2437 -0.3382
14232W        W15096   8.779   5.582   7.243  0.1636 -0.0248 -0.1993
14233W        W15097   9.137   5.022   6.198 -0.1465  0.2698  0.0150
14234W        W15098  10.621   6.586   9.141  0.2075 -0.3246 -0.0449
14235W        W15099  10.561   5.256   7.202  0.3041  0.1045 -0.0338
14236W        W15100  12.461   7.177  12.069 -0.0805 -0.3927 -0.0508
14237W        W15101   8.129   3.104   6.802 -0.0071 -0.0398 -0.1271
14238W        W15102   6.203   4.955  11.491  0.1866  0.0100  0.0506
14239W        W15103  11.453   3.728   8.942 -0.0784  0.2426  0.3162
14240W        W15104  10.529   3.599   7.496  0.2402  0.2291  0.1209
14241W        W15105  10.287   5.052  13.379  0.1836  0.0341  0.1558
14242W        W15106   6.408   3.667   9.022 -0.0600 -0.1263 -0.0463
14243W        W15107   8.250   5.983  12.082 -0.0080  0.1368 -0.2106
14244W        W15108  11.534   8.681   7.655  0.0797 -0.0943 -0.1087
14245W        W15109   8.791   4.636  10.616 -0.1002 -0.3074  0.0378
14246W        W15110   6.990   4.660   9.635  0.1089  0.1212 -0.2267
14247W        W15111  10.648   7.211   8.192  0.0208  0.2854  0.0195
14248W        W15112  10.025   6.179  12.283 -0.1956 -0.0290 -0.1467
14249W        W15113   8.918   8.483   8.341 -0.1624  0.0190 -0.4878
14250W        W15114   9.816   6.984   9.513 -0.0138  0.0264 -0.2700
14251W        W15115   6.840   4.711   8.183 -0.3198  0.0867  0.0286
14252W        W15116   5.923   2.943   9.144 -0.0393  0.1040 -0.0543
14253W        W15117   8.522   6.018  10.009 -0.1561 -0.0232  0.1573
14254W        W15118  10.384   8.546  11.517  0.1461  0.2612  0.0252
14255W        W15119   6.943   3.124  10.101  0.1836  0.1806 -0.2202
14256W        W15120   6.990   4.542  12.101  0.3060  0.2330  0.3548
14257W        W15121   8.546   2.816  10.453 -0.0173  0.3739 -0.0683
14258W        W15122   8.359   4.998   9.463  0.1007  0.0089  0.2100
14259W        W15123  11.193   8.413  12.174  0.2275 -0.3893 -0.0047
14260W        W15124   7.195   3.174  12.274 -0.0661 -0.0658  0.0522
14261W        W15125   7.602   2.803   8.294  0.3262 -0.2739  0.0468
14262W        W15126   6.657   3.563  10.931 -0.2401  0.3624  0.1915
14263W        W15127   9.082   7.685  10.352 -0.2397  0.0208  0.1680
14264W        W15128   8.802   4.326   9.368 -0.0126  0.0080 -0.0560
14265W        W15129   5.976   3.841   9.293 -0.1935  0.2498  0.1166
14266W        W15130  13.237   7.791   7.781  0.2833  0.2472 -0.0835
14267W        W15131   9.865   5.420  10.624  0.0891 -0.1797  0.4607
14268W        W15132  11.934   6.044   7.813  0.0683 -0.1397  0.0454
14269W        W15133  10.870   5.087  12.801  0.1960  0.0407  0.2151
14270W        W15134   9.004   8.043   9.358 -0.0281 -0.3296  0.1133
14271W        W15135  12.205  10.585  10.670  0.1585  0.1243  0.4308
14272W        W15136   8.532   6.519   7.269 -0.1933  0.2072 -0.0312
14273W        W15137  10.647   6.072   8.129 -0.1144  0.0398  0.1142
14274W        W15138   6.355   5.529  10.569  0.2425  0.1920  0.2693
14275W        W15139  10.649   3.583   9.103  0.0599 -0.0016 -0.1291
14276W        W15140  10.630   4.617   9.472 -0.1265  0.0077 -0.1314
14277W        W15141  11.253   6.215   4.565 -0.0597  0.1030 -0.2354
14278W        W15142   7.957   8.416   6.632  0.1454  0.0874  0.1939
14279W        W15143   8.104   3.008  10.291  0.3489 -0.0557 -0.1169
14280W        W15144   7.808   6.493   9.055  0.1641  0.1919 -0.0315
14281W        W15145  11.866   3.737   8.416 -0.0068 -0.1941 -0.1575
14282W        W15146   8.203   4.954   7.715 -0.3935 -0.2126 -0.1302
14283W        W15147   5.787   4.808   9.660 -0.0425 -0.0341  0.0411
14284W        W15148   6.106   2.219   8.436  0.4389  0.1737 -0.1799
14285W        W15149   9.870   7.182   7.936  0.0981 -0.0789  0.1165
14286W        W15150   6.665   7.387  10.221 -0.0656  0.0363 -0.2922
14287W        W15151   8.680   8.768   6.499  0.2331 -0.0967  0.2462
14288W        W15152   9.938   5.912   8.981 -0.2004 -0.0230 -0.2457
14289W        W15153   6.102   4.583   9.975  0.3950  0.1548  0.1004
14290W        W15154   7.239   3.869  11.585  0.3390  0.0894  0.0586
14291W        W15155   9.691   4.011  10.855  0.0785  0.0259  0.1784
14292W        W15156   9.757   5.534   8.687 -0.0593  0.3383  0.2264
14293W        W15157   9.508   3.952   6.984 -0.1447  0.0078 -0.1037
14294W        W15158   9.132   6.774   8.330  0.0719  0.0722 -0.0748
14295W        W15159   6.252   3.304   7.943  0.5388  0.1171 -0.0232
14296W        W15160   7.026   4.094   9.655  0.1619  0.1123  0.3603
14297W        W15161   8.961   5.361   8.161 -0.1546 -0.3633 -0.0127
14298W        W15162  11.747   6.652  10.005  0.0103 -0.3460  0.0482
14299W        W15163   9.515   6.703   7.849  0.2069 -0.0921 -0.0726
14300W        W15164  11.545   8.435   7.203 -0.0210  0.1436  0.2067
14301W        W15165  10.430   3.987   8.880 -0.1505 -0.0535  0.0052
14302W        W15166  11.747   6.731   6.504  0.0127 -0.2503  0.1095
14303W        W15167  11.094   9.660  11.499 -0.0504  0.0068 -0.1993
14304W        W15168   6.911   0.512   8.707  0.2939  0.0496 -0.3551
14305W        W15169   8.362   2.038   8.967 -0.1502  0.0824 -0.0307
14306W        W15170   9.712   4.090   6.547  0.2841  0.0209  0.0318
14307W        W15171  10.176   6.115   7.889  0.2136 -0.1415 -0.1414
14308W        W15172   8.425   3.909   7.809  0.3224 -0.3778 -0.1605
14309W        W15173   8.691   2.626  11.882 -0.0951 -0.2200  0.2775
14310W        W15174   7.576   3.830   8.044 -0.1694 -0.1572  0.0890
14311W        W15175  11.925   5.274   7.448 -0.1736  0.0033  0.0423
14312W        W15176  10.337   4.711  10.776 -0.2792 -0.0684  0.0421
14313W        W15177   9.599   6.274  10.184 -0.1884  0.1334  0.0193
14314W        W15178   8.299   6.845  11.662 -0.2036 -0.1567 -0.0311
14315W        W15179   9.276   3.779  10.795  0.2957 -0.1104 -0.2138
14316W        W15180  10.208   8.787  12.334 -0.1409  0.0278 -0.2555
14317W        W15181  10.490   6.129  11.753  0.2541  0.1403 -0.1564
14318W        W15182  11.298   5.470   8.384  0.0806 -0.2375 -0.0339
14319W        W15183   7.647   6.212  12.818 -0.1267 -0.0212 -0.5307
14320W        W15184  10.062   4.741   9.850  0.0008 -0.0864  0.1128
14321W        W15185   7.614   3.270   7.633  0.2880  0.0059 -0.2226
14322W        W15186   7.424   1.733   9.814 -0.2917 -0.1660  0.2234
14323W        W15187  10.366   4.257   7.387  0.0419  0.0320 -0.0908
14324W        W15188   8.004   5.846   8.260  0.2574 -0.1832  0.0069
14325W        W15189   9.000   9.810  11.327  0.4516 -0.0865  0.3351
14326W        W15190   7.670   1.816   7.116  0.2558 -0.0888  0.1591
14327W        W15191   9.775   5.041   7.909  0.1269 -0.1366 -0.0628
14328W        W15192   0.241  10.438   8.903  0.0463 -0.1111  0.1114
14329W        W15193   5.466   3.764   7.928  0.1781  0.2091  0.3666
14330W        W15194   8.016   4.109   8.066 -0.0302  0.0312  0.4001
14331W        W15195  11.304   3.905   9.762  0.4090  0.0701 -0.1195
14332W        W15196  12.390   4.502   6.100 -0.0032  0.1412  0.3609
14333W        W15197   9.090   4.417  11.541 -0.1574  0.1587 -0.0591
14334W        W15198   9.016   8.008   6.548  0.1293 -0.0059  0.1268
14335W        W15199   8.917   5.674  10.107 -0.1339 -0.0348 -0.0047
14336W        W15200  11.588   1.824   8.932  0.0310 -0.2133 -0.0606
14337W        W15201   7.535   1.561   8.997  0.1459  0.4695 -0.2656
14338W        W15202   6.891   6.494  10.557  0.2545  0.0515 -0.1562
14339W        W15203   9.808   9.621   9.784  0.2150  0.1240 -0.1959
14340W        W15204  10.092   5.876  11.772 -0.0329 -0.2377  0.1297
14341W        W15205  11.254   8.378   9.829 -0.1553 -0.2981 -0.2718
14342W        W15206  12.693   5.002   6.963  0.2148  0.1890  0.2475
14343W        W15207   8.548   4.579   8.540 -0.0155 -0.1722 -0.0478
14344W        W15208  10.308   2.905   9.570 -0.0788  0.2212 -0.2886
14345W        W15209   9.298   6.999  11.425 -0.0308  0.0155  0.0787
14346W        W15210   9.580   4.397   8.684 -0.2171 -0.3007 -0.0802
14347W        W15211  11.001   4.715   7.825  0.1852  0.0245 -0.1322
14348W        W15212  11.319   4.539   7.506 -0.0369 -0.0531 -0.0852
14349W        W15213   9.981   3.757   9.223 -0.0498  0.1100  0.0624
14350W        W15214  11.218   7.183   9.011  0.1564  0.0568  0.1232
14351W        W15215  12.666   7.621   5.768 -0.0539 -0.0172 -0.0802
14352W        W15216   8.077   5.294   9.121 -0.3325 -0.1720  0.1091
14353W        W15217   9.380   5.380   6.492  0.0781 -0.2266  0.4145
14354W        W15218   6.890   1.767   8.163  0.1086 -0.0555 -0.0313
14355W        W15219   7.800   7.110  10.555 -0.0446  0.2474  0.3244
14356W        W15220  10.485   7.558   9.392  0.1692  0.1715 -0.0451
14357W        W15221   6.441   6.191   7.736  0.1943 -0.3419  0.1672
14358W        W15222   8.623  10.041  12.262  0.3348  0.0949  0.3099
14359W        W15223  10.995   4.130  10.121  0.2232  0.0807  0.0304
14360W        W15224   8.630   6.951   8.844  0.0960  0.0069 -0.0645
14361W        W15225  11.469   5.118   7.356  0.1188  0.1363 -0.1829
14362W        W15226   8.905   5.656  10.774  0.2471  0.2095  0.2287
14363W        W15227   7.398   2.944   8.795 -0.1772 -0.0290 -0.0373
14364W        W15228   9.458   5.756  10.291 -0.2680  0.0589  0.0577
14365W        W15229  12.481   3.642  11.201 -0.1348 -0.0643  0.3089
14366W        W15230   9.547   7.940   7.248  0.1927 -0.4099  0.1409
14367W        W15231   7.077   5.352   8.139 -0.3330 -0.3469 -0.0350
14368W        W15232   5.397   3.264   6.024 -0.0421 -0.3997 -0.1185
14369W        W15233   9.836   5.688   7.668 -0.0503  0.0380 -0.1762
14370W        W15234   7.601   4.388   3.600  0.0891  0.0379 -0.1178
14371W        W15235   9.720   5.876   6.165  0.2760 -0.1227  0.0104
14372W        W15236   7.327   7.850  10.773 -0.1860  0.4877  0.2789
14373W        W15237   7.743   2.662   7.060 -0.0774 -0.0386 -0.0572
14374W        W15238  10.065   2.256   8.610  0.0231 -0.2006  0.1135
14375W        W15239   9.278   8.457   9.193 -0.2526  0.0321 -0.3596
14376W        W15240   5.659   7.138   8.478  0.1794  0.2996  0.0153
14377W        W15241   8.037   5.080  11.966  0.0151 -0.1612 -0.1826
14378W        W15242   7.763   5.982  11.884 -0.2679 -0.1665 -0.1361
14379W        W15243   8.720   2.533   6.041  0.0143 -0.0116 -0.0222
14380W        W15244   8.741   6.855   7.957  0.1730  0.1763  0.1389
14381W        W15245   8.754   3.616   7.335 -0.3010  0.4478 -0.0223
14382W        W15246   7.595   2.154   9.956  0.1162  0.5336 -0.0573
14383W        W15247   9.339   3.886  11.352  0.3032  0.0085  0.4833
14384W        W15248   7.374   5.878   9.512 -0.0135 -0.1607  0.0466
14385W        W15249   8.196   3.497   6.525  0.0248  0.0589  0.1549
14386W        W15250   8.193   5.040   5.258 -0.1644 -0.1213 -0.3833
14387W        W15251   8.508   5.693   8.253 -0.0453  0.2040 -0.1136
14388W        W15252  12.610   1.768   9.318  0.1722 -0.0472 -0.2123
14389W        W15253   8.100   6.800  10.216  0.3628  0.0858 -0.0428
14390W        W15254   8.192   7.104   9.806  0.1524  0.0744 -0.2649
14391W        W15255   9.152   5.489   9.422  0.2192 -0.1397 -0.1954
14392W        W15256  10.097   2.145   9.133  0.1833  0.0209 -0.1445
14393W        W15257   8.740   5.056   7.461 -0.1489 -0.0234  0.1129
14394W        W15258   8.125   4.153  11.923  0.0788 -0.0570  0.3495
14395W        W15259   7.150   6.652   8.236  0.0846 -0.1857 -0.0059
14396W        W15260   7.276   3.499   9.973  0.1111 -0.1424 -0.2235
14397W        W15261   8.928   7.264   7.539 -0.1979  0.0880  0.0149
14398W        W15262   9.919   7.586   7.614  0.0015  0.2524  0.1013
14399W        W15263  10.795   4.904   9.100  0.1180  0.1234  0.1037
14400W        W15264   9.582   6.586   7.310  0.3636  0.2468 -0.2605
14401W        W15265  11.079   7.795   6.873 -0.0726  0.2210  0.0145
14402W        W15266   9.160   3.260   7.444  0.2669  0.0363 -0.3440
14403W        W15267  13.027   2.928  10.068 -0.3216 -0.0129 -0.1557
14404W        W15268   7.869   7.944  10.159  0.3999 -0.1581  0.1128
14405W        W15269   7.846   5.633   8.715  0.2357 -0.0206  0.0577
14406W        W15270   7.625   4.551   9.706 -0.0968 -0.1482  0.2298
14407W        W15271   7.618   6.530   8.614  0.1274  0.1990 -0.0557
14408W        W15272  10.301   4.854   6.952 -0.2740  0.0315 -0.0176
14409W        W15273  13.938   7.837   9.355  0.2623  0.2282 -0.0701
14410W        W15274   7.259   6.830   8.862  0.1586  0.2059  0.0269
14411W        W15275   6.923   3.458   6.452  0.0415 -0.3309  0.1900
14412W        W15276   6.075   5.493   7.812  0.0969  0.0444 -0.3089
14413W        W15277   9.751   4.553  12.675 -0.0946  0.0381 -0.1226
14414W        W15278   9.951   6.190   9.482  0.0459 -0.1848 -0.1058
14415W        W15279   3.509   3.917   4.568  0.2618  0.0627 -0.2145
14416W        W15280   7.528   5.749  10.344 -0.5104  0.0759  0.0468
14417W        W15281   8.400   8.708   8.253 -0.1241  0.1901 -0.0148
14418W        W15282   8.962   4.606   6.555 -0.1726 -0.2451  0.4538
14419W        W15283   8.333   5.345   6.573 -0.1874  0.0046 -0.1790
14420W        W15284   6.826   2.931  10.563  0.1732  0.0119 -0.1674
14421W        W15285   6.925   3.169  11.361  0.1815  0.0904 -0.0362
14422W        W15286   8.777   1.841  10.930  0.0592  0.0460  0.0440
14423W        W15287   7.268   6.386   9.142 -0.0560  0.1478 -0.0626
14424W        W15288   9.848   6.333   5.848  0.1628 -0.1875  0.0025
14425W        W15289  10.149   3.560   8.723 -0.1326  0.2493 -0.2417
14426W        W15290   5.224   4.071   8.649  0.0439  0.2995  0.1998
14427W        W15291   8.835   6.888   9.878  0.0388  0.0161  0.1581
14428W        W15292   7.580   0.489   8.280  0.3901  0.0235  0.1742
14429W        W15293   9.272   4.264   9.469 -0.1112  0.1054  0.2742
14430W        W15294   9.293   4.154   9.941  0.1751  0.0875 -0.1652
14431W        W15295   7.074   3.401   8.947  0.0264 -0.3250  0.0331
14432W        W15296   7.197   3.637  10.633 -0.0438  0.1197  0.1351
14433W        W15297   5.692   1.665   7.404  0.1226  0.2341 -0.1188
14434W        W15298   7.619   1.859  11.925 -0.0773  0.1011  0.0263
14435W        W15299   7.498   5.378   9.177  0.3377 -0.1742  0.1022
14436W        W15300   8.862   7.776   7.505 -0.0961 -0.0819  0.0447
14437W        W15301   8.310   4.513   9.260 -0.0513  0.2237 -0.4351
14438W        W15302   8.259   6.016  11.248  0.0295  0.1767  0.1780
14439W        W15303   7.798   5.639   9.438 -0.3192 -0.1653  0.1768
14440W        W15304   8.490   3.643   9.768  0.1606  0.0709  0.2990
14441W        W15305  10.417   8.450  12.671 -0.3257 -0.1228  0.1882
14442W        W15306   9.188   6.094  10.679  0.2283  0.1627  0.0185
14443W        W15307  10.937   4.969   5.798 -0.2925  0.0414 -0.1397
14444W        W15308  10.914   5.444   9.109 -0.0558  0.1107  0.3165
14445W        W15309   9.853   9.159  10.043  0.0359 -0.0141 -0.0413
14446W        W15310  11.904   4.543  11.085 -0.5192  0.1296 -0.2455
14447W        W15311   9.467   3.971  10.374  0.0527  0.0058  0.0303
14448W        W15312   9.073   5.221  10.291  0.0988 -0.4376 -0.0674
14449W        W15313   8.801   6.337   9.694 -0.1486  0.0112 -0.0018
14450W        W15314   9.156   5.143   9.789  0.3119  0.3014 -0.0859
14451W        W15315   9.318   3.035   5.257  0.0780  0.0154 -0.0938
14452W        W15316   8.264   6.079   7.266 -0.2816  0.3000 -0.0728
14453W        W15317  10.799   4.168  10.677 -0.0308 -0.3040 -0.2393
14454W        W15318  10.320   8.345  11.026  0.2678  0.1320  0.0446
14455W        W15319   8.019   6.319   9.985  0.0099 -0.1850 -0.1246
14456W        W15320  12.367   8.955   7.828 -0.2041 -0.0589 -0.1518
14457W        W15321   9.504   6.159   9.751 -0.1243  0.0520  0.0207
14458W        W15322  10.231   6.106   6.373 -0.0716  0.0617 -0.0206
14459W        W15323   7.217   3.955  10.244 -0.2448 -0.2585 -0.4708
14460W        W15324   7.628   9.277   5.685 -0.1625 -0.1403 -0.2052
14461W        W15325  10.075   6.781  10.934 -0.1863 -0.0735  0.3146
14462W        W15326   7.452   5.247  10.726 -0.5771  0.1394 -0.0629
14463W        W15327  10.585   8.216   6.151 -0.1718  0.2794  0.1359
14464W        W15328  11.004   5.730   7.983  0.1336 -0.1460 -0.0858
14465W        W15329  10.032   3.941  10.466 -0.3153 -0.0649 -0.0768
14466W        W15330   7.378   4.920   9.351  0.2923 -0.1836 -0.0121
14467W        W15331  12.620   7.701   7.936  0.1530 -0.0630  0.1304
14468W        W15332  10.238   4.840   8.567  0.0698  0.2567  0.2023
14469W        W15333   8.362   3.989  11.087  0.0890  0.2072 -0.0713
14470W        W15334   9.828   5.590   7.044  0.0639 -0.0808  0.0051
14471W        W15335   9.427   3.469   7.041 -0.2696  0.1066 -0.1146
14472W        W15336   8.755   6.254   9.217  0.2443  0.0992  0.0617
14473W        W15337   8.096   5.887   9.103 -0.1508  0.0830  0.3890
14474W        W15338   8.970   4.509   8.092  0.0052 -0.2775 -0.0147
14475W        W15339   9.363   5.382  10.717  0.0258 -0.4459  0.1146
14476W        W15340   9.465   6.789  10.261 -0.0658  0.1085 -0.1318
14477W        W15341  11.207   4.556   8.374 -0.1044  0.1213 -0.1954
14478W        W15342   8.246   3.969   9.452  0.1743 -0.1966  0.2263
14479W        W15343   9.152   8.007  11.117 -0.0884 -0.0862  0.0203
14480W        W15344  10.261   8.053   8.247 -0.0171 -0.0250 -0.0075
14481W        W15345   9.608   6.754  11.120 -0.0420  0.1098 -0.1620
14482W        W15346   5.693   7.947   5.753  0.3507  0.0734  0.2978
14483W        W15347   9.350   8.215   7.978 -0.1197  0.0586  0.2025
14484W        W15348  10.793   4.425   7.059  0.4493  0.0470  0.1216
14485W        W15349   7.342   1.826   8.624 -0.2663 -0.2777 -0.0318
14486W        W15350   9.144   8.914  10.662  0.2034  0.2683  0.0897
14487W        W15351   9.731   8.923   6.848  0.0986 -0.2484  0.1621
14488W        W15352   7.235   3.274   7.304  0.4555  0.0269 -0.2299
14489W        W15353   8.905   3.690  11.157  0.1693  0.0004 -0.2317
14490W        W15354   9.084   6.222  11.710 -0.0122  0.3012 -0.3000
14491W        W15355   8.970   4.179  10.980  0.2963  0.1673  0.3424
14492W        W15356   8.659   5.341   9.157 -0.2191 -0.0899  0.2417
14493W        W15357   8.314   8.692  11.544  0.1705 -0.0953  0.0757
14494W        W15358   8.883   8.935   7.035  0.2650 -0.0130 -0.4270
14495W        W15359  12.074   4.271   8.444  0.2155  0.2539  0.0578
14496W        W15360   9.076   4.636   9.749 -0.0413 -0.0276  0.2565
14497W        W15361  11.227   7.648   7.402 -0.1530  0.0329 -0.0526
14498W        W15362   9.986   5.476   9.321  0.4128 -0.4003  0.1419
14499W        W15363  10.500   3.842   8.399  0.0566  0.0444  0.1031
14500W        W15364   9.627   2.624   8.583  0.0251  0.2254 -0.1320
14501W        W15365   9.971   3.793   6.865  0.0354  0.0432 -0.1406
14502W        W15366   8.986  10.304   9.732  0.2629 -0.1354  0.0909
14503W        W15367  10.235   4.561  11.227  0.0551 -0.0178 -0.2851
14504W        W15368   5.633   1.941  10.712 -0.0027 -0.0458  0.2352
14505W        W15369   8.225   1.287   8.564 -0.0200 -0.1589 -0.1093
14506W        W15370   8.086   2.627   6.697  0.2176 -0.1267 -0.3833
14507W        W15371   8.826   5.597  11.912  0.0405 -0.0166  0.2211
14508W        W15372   8.276   6.426   9.252 -0.3495 -0.5689  0.0048
14509W        W15373   6.101   2.236   7.936 -0.1602  0.0176  0.1071
14510W        W15374   9.038   4.726   7.688 -0.1102 -0.0978 -0.1634
14511W        W15375   7.593   4.388  10.276  0.3531 -0.1688  0.0420
14512W        W15376  11.546   3.090   5.825  0.0089  0.1240  0.0429
14513W        W15377  10.887   3.086  10.893 -0.1216  0.1027 -0.0732
14514W        W15378   8.659   6.769   9.344 -0.3066  0.0454 -0.0265
14515W        W15379   6.053   2.212  10.875 -0.1215  0.1717  0.1177
14516W        W15380   9.813   2.992   8.295  0.2221  0.0336 -0.0229
14517W        W15381  11.812   7.593   8.999 -0.0640 -0.3948  0.1474
14518W        W15382   8.321   5.558   9.506  0.1112  0.0196 -0.0084
14519W        W15383  12.541   3.817   7.286 -0.3838 -0.0352 -0.1275
14520W        W15384  11.480   6.599  12.072 -0.0017 -0.0682 -0.3105
14521W        W15385   5.901   4.821   8.646  0.4118 -0.0889  0.0893
14522W        W15386   5.906   5.434  10.265  0.3303  0.1729 -0.1584
14523W        W15387   6.808   6.600   9.143 -0.0318  0.1651  0.3365
14524W        W15388  11.238   3.513  10.617  0.0382 -0.0746 -0.0901
14525W        W15389   9.333   5.621   8.921  0.1424 -0.1323  0.1719
14526W        W15390  11.418   7.479  11.030 -0.0844  0.1724  0.0736
14527W        W15391   8.844   5.960   7.979 -0.1037 -0.1796  0.0219
14528W        W15392   8.543   2.176  11.245 -0.2239 -0.0654  0.2256
14529W        W15393   9.598   5.802  10.909  0.0597 -0.1840 -0.0212
14530W        W15394   8.928   5.505  13.937 -0.2563 -0.1154  0.0328
14531W        W15395  10.662   3.913   7.839  0.2752  0.1321 -0.0266
14532W        W15396  10.749   8.605   6.908 -0.0496 -0.0073 -0.2010
14533W        W15397   9.484  10.361  11.276 -0.1793 -0.1776  0.0040
14534W        W15398   9.731   7.274  11.494 -0.1858  0.0013 -0.2562
14535W        W15399   7.219   5.387   7.642  0.4155  0.2155 -0.0918
14536W        W15400   8.853   4.860  11.634 -0.2722 -0.0841 -0.1661
14537W        W15401   7.902   4.507   8.531  0.2746 -0.0258 -0.0084
14538W        W15402   8.464   4.051   7.305 -0.0853  0.0491 -0.0380
14539W        W15403   7.706   3.936  11.791  0.2686  0.2789  0.0092
14540W        W15404  10.264   4.871   7.992  0.1692  0.1294 -0.0441
14541W        W15405  12.203   5.929   8.918 -0.0297  0.2262 -0.1528
14542W        W15406   6.608   2.745  10.076 -0.0933 -0.0449 -0.2267
14543W        W15407   9.155   5.932  12.152 -0.0134 -0.2876 -0.2366
14544W        W15408   8.539   6.446   7.752  0.1637  0.2396  0.1903
14545W        W15409  12.425   5.341   8.203  0.0846  0.0439  0.2856
14546W        W15410   8.966   6.674  10.328  0.0087 -0.0601  0.1619
14547W        W15411   7.711   5.119   7.855  0.1039 -0.2228 -0.1182
14548W        W15412   9.427   7.237   8.169 -0.0578  0.3476  0.2502
14549W        W15413  10.719   8.197   8.337 -0.1107  0.1720 -0.3941
14550W        W15414   5.996   3.585  12.110 -0.0818 -0.1021  0.3662
14551W        W15415   9.781   7.669   9.957 -0.3281 -0.1430  0.1976
14552W        W15416   5.638   3.025   6.938 -0.0755  0.3311 -0.0712
14553W        W15417   9.876   5.849   8.251 -0.1429  0.1112  0.2466
14554W        W15418  11.447   3.715   8.024  0.1075 -0.0553 -0.0403
14555W        W15419   7.656   4.616   7.492  0.0915  0.0130  0.1556
14556W        W15420   7.728   5.264  10.149 -0.0097 -0.1367  0.1586
14557W        W15421   8.421   4.381   8.013 -0.0265 -0.1724  0.1268
14558W        W15422   8.544   3.706   8.730  0.1228  0.1488 -0.1926
14559W        W15423   7.257   4.483   5.046 -0.0156 -0.0702  0.2212
14560W        W15424  12.440   8.838  11.032  0.0984  0.0782  0.3365
14561W        W15425   7.654   5.698   9.879 -0.1388 -0.1103  0.0941
14562W        W15426  11.485   7.360   9.951 -0.1059  0.3067  0.6058
14563W        W15427   9.565   6.186  12.446 -0.1201  0.1441  0.3845
14564W        W15428   4.462   6.265   5.801  0.0185 -0.0093  0.2379
14565W        W15429  11.476   7.290   7.642 -0.1708  0.1652  0.0132
14566W        W15430  10.774   6.072   6.808 -0.0473 -0.0949 -0.1027
14567W        W15431   9.659   2.133   7.816  0.2028 -0.0365 -0.2922
14568W        W15432   7.998   5.087   6.829  0.2648 -0.0089  0.1831
14569W        W15433   9.408   5.547   8.146 -0.1322  0.0368 -0.2352
14570W        W15434  11.489   3.525   6.039  0.1464  0.0002  0.2608
14571W        W15435   6.948   3.004   6.022 -0.0261  0.1912 -0.0284
14572W        W15436   7.990   6.844   8.383 -0.1073  0.0844  0.0746
14573W        W15437   8.818   5.781   8.993 -0.1555  0.0374  0.0333
14574W        W15438   5.877   3.489   7.691 -0.2530  0.1895 -0.2481
14575W        W15439   7.299   2.621   6.906  0.0233 -0.0246 -0.2260
14576W        W15440   8.543   6.456   8.710 -0.1539 -0.0135  0.1878
14577W        W15441   5.674   2.256   8.705  0.1234 -0.0151 -0.2779
14578W        W15442  10.679   4.768   8.301 -0.1964 -0.2037 -0.0286
14579W        W15443  11.729   3.789   6.813 -0.2134  0.0658  0.2176
14580W        W15444   9.838   5.833  11.322  0.2636  0.1810 -0.2511
14581W        W15445   6.896   7.445   8.790 -0.0528  0.0040 -0.6568
14582W        W15446   8.843   4.141   7.671 -0.0982 -0.0323  0.0011
14583W        W15447   9.056   5.763   8.476 -0.4059 -0.2023 -0.1562
14584W        W15448  10.649   5.097   7.702  0.1552  0.0353  0.0823
14585W        W15449   9.841   6.835   8.307  0.0849 -0.0739 -0.1330
14586W        W15450   8.960   5.023  12.940  0.2802  0.1176  0.0482
14587W        W15451   5.885   3.226   9.963 -0.3158 -0.0073 -0.0846
14588W        W15452   9.929   6.515   6.801  0.1228 -0.0756 -0.2314
14589W        W15453   8.112   5.711   9.920 -0.4277 -0.1649  0.0035
14590W        W15454   7.617   4.385   8.911  0.2299 -0.1084 -0.0197
14591W        W15455   9.382   4.446   6.792 -0.2844 -0.1810  0.0533
14592W        W15456  10.210   7.908   9.763 -0.1169 -0.0955 -0.1514
14593W        W15457  10.559   7.450  11.577  0.1483 -0.0307 -0.2066
14594W        W15458  11.956   9.052  10.092 -0.1377 -0.0936  0.0343
14595W        W15459  11.729   9.586   8.019  0.0045  0.3022  0.0173
14596W        W15460  10.359   3.006   7.486 -0.1875 -0.1484 -0.1517
14597W        W15461  10.621   3.396   5.913  0.2178  0.0235  0.2463
14598W        W15462   8.414   5.743   6.945 -0.1092 -0.0755 -0.2677
14599W        W15463  12.701   2.721   7.990 -0.0358  0.2180 -0.2174
14600W        W15464   9.688   6.193   7.698  0.1809 -0.0565  0.1011
14601W        W15465   9.509   7.719   8.797 -0.2423 -0.0385 -0.0453
14602W        W15466  10.920   5.213   8.126 -0.3513 -0.0203 -0.0906
14603W        W15467  11.021   4.583   6.697 -0.0546 -0.1665 -0.0901
14604W        W15468   8.147   7.871   8.514 -0.1212 -0.0930 -0.1947
14605W        W15469   9.324   5.997  11.240 -0.1009  0.1091  0.1329
14606W        W15470  10.047   5.167   8.883  0.0783  0.0633  0.0121
14607W        W15471   8.691   4.883   7.998 -0.2999 -0.0948  0.1562
14608W        W15472  10.246   4.200  10.826 -0.0071 -0.1349  0.2660
14609W        W15473   5.737   3.816   5.947 -0.0547  0.1002  0.3849
14610W        W15474   9.080   4.409   8.578  0.2406  0.2195 -0.0154
14611W        W15475   8.317   6.261  10.779  0.1000 -0.0715 -0.1621
14612W        W15476  11.059   7.435  11.832  0.1284  0.1630  0.0821
14613W        W15477  11.743   4.116  10.662  0.3206 -0.1512 -0.2884
14614W        W15478   9.043   6.489   7.936  0.1751 -0.3572 -0.2442
14615W        W15479   7.893   7.673   8.895 -0.1617  0.2734  0.3275
14616W        W15480   7.357   6.462   9.617 -0.1749  0.0300 -0.2597
14617W        W15481   9.949   4.985  10.879  0.2512  0.1046 -0.3249
14618W        W15482  10.292   5.597  12.231  0.1186  0.2021 -0.0759
14619W        W15483   7.768   7.313   9.512  0.1060 -0.1764  0.2935
14620W        W15484  11.035   8.635   7.419 -0.2701  0.0574  0.0361
14621W        W15485  10.837   4.721  10.821  0.1294 -0.1767  0.4927
14622W        W15486   9.443   4.891  10.530 -0.2131 -0.1062 -0.1160
14623W        W15487   7.437   7.286  10.877 -0.0426  0.1951  0.1558
14624W        W15488   9.777   8.191   8.513 -0.3915  0.0016 -0.1247
14625W        W15489   7.841   4.977  11.014 -0.3047  0.0765 -0.0405
14626W        W15490   9.254   6.267   7.469 -0.2785 -0.0092 -0.1553
14627W        W15491   5.505   5.671   6.229 -0.1742 -0.1568 -0.0315
14628W        W15492   5.826   4.724  13.572 -0.1742  0.0277 -0.1748
14629W        W15493   9.627   7.178  12.040  0.3679  0.0347 -0.1887
14630W        W15494  10.399   6.516  12.536  0.0895  0.2125  0.1754
14631W        W15495  10.570   4.415  12.265 -0.0472  0.0953 -0.1008
14632W        W15496   6.919   4.356  13.847  0.3055  0.2831 -0.0471
14633W        W15497   6.505   7.170  13.640 -0.0014 -0.0726 -0.3798
14634W        W15498   7.936   5.642  13.652 -0.0327  0.0095 -0.3797
14635W        W15499   9.259   5.975   0.509  0.0482  0.1424  0.2853
14636W        W15500   9.132   3.864   0.764 -0.2262  0.0545  0.2632
14637W        W15501   9.655   3.894   9.589  0.0702  0.2627  0.0415
14638W        W15502   6.513   2.815  11.477  0.0757  0.1474 -0.1490
14639W        W15503   7.974   6.985  11.214 -0.1819 -0.2707  0.0832
14640W        W15504   5.757   4.087  11.331 -0.1204  0.1006  0.3719
14641W        W15505  13.085   2.591  12.416 -0.0673  0.3881 -0.0629
14642W        W15506   9.308   4.966   0.623  0.1702  0.1610 -0.2775
14643W        W15507   9.023   2.417  13.342  0.1511 -0.1442 -0.5716
14644W        W15508   9.558   5.335  12.130  0.0130  0.2979 -0.2142
14645W        W15509   7.425   6.909  13.875 -0.0624 -0.1310  0.0181
14646W        W15510   8.785   5.765  12.398  0.0392  0.0918 -0.1850
14647W        W15511   6.131   5.493  11.665 -0.3136  0.0351 -0.2144
14648W        W15512   7.326   7.347  10.332 -0.1285 -0.1798 -0.2087
14649W        W15513  10.552   8.540  13.202 -0.1756  0.1163 -0.1537
14650W        W15514  10.194   3.282   9.251 -0.0470  0.1902  0.0689
14651W        W15515  10.637   6.377  13.072 -0.0179 -0.2981  0.0708
14652W        W15516   8.754   4.839  10.074 -0.0950  0.1116  0.0057
14653W        W15517  10.792   8.893  12.759 -0.1237 -0.2783 -0.0958
14654W        W15518   8.934   5.224  13.493 -0.2430  0.1229 -0.2691
14655W        W15519  10.494   3.931  10.176  0.0313  0.0138  0.0438
14656W        W15520  11.442   4.179   2.325 -0.3047  0.2389  0.3042
14657W        W15521   7.780   5.526  12.071 -0.0437  0.1356 -0.1029
14658W        W15522  10.563   8.100  13.074 -0.0144  0.0298  0.1993
14659W        W15523   6.891   5.181   9.483 -0.1449  0.0341 -0.2537
14660W        W15524   7.760   4.177   9.369  0.2252  0.2551  0.0226
14661W        W15525   5.265   0.694  13.402  0.2806  0.0006 -0.1274
14662W        W15526  10.188   4.638  12.489 -0.3738 -0.1432 -0.0149
14663W        W15527  10.184   7.066  11.561  0.0490  0.1807  0.0428
14664W        W15528  10.716   4.619  11.767  0.2651 -0.1731 -0.0762
14665W        W15529  10.346   7.021   0.092 -0.1864  0.0937  0.0373
14666W        W15530   8.722   5.977  11.076  0.2442  0.3384  0.4037
14667W        W15531   9.121   9.286  13.883  0.2088  0.2592  0.0895
14668W        W15532  10.573   4.615  12.735 -0.2469  0.0450 -0.0725
14669W        W15533  10.194   3.500  12.770  0.2156  0.2010  0.2226
14670W        W15534   7.482   7.652   9.942 -0.0943  0.0646 -0.1444
14671W        W15535   9.815   3.792  12.558 -0.1305 -0.0893 -0.2903
14672W        W15536   9.449   6.462  11.474 -0.0409  0.1283 -0.4806
14673W        W15537   6.886   6.599  11.070 -0.0920  0.0906  0.0281
14674W        W15538  10.972  10.854  12.562 -0.1278 -0.1828  0.0225
14675W        W15539   9.504   7.375   9.647 -0.1273  0.0323 -0.0845
14676W        W15540   7.982   7.662  11.453  0.1943 -0.0361  0.0316
14677W        W15541   8.985   4.813   0.281 -0.1091  0.2199  0.0772
14678W        W15542   8.091   4.390   0.146  0.0083 -0.0707  0.0536
14679W        W15543  11.727   4.082  11.266  0.1995  0.2702  0.1558
14680W        W15544   6.305   6.336   8.934 -0.0098  0.1498 -0.0787
14681W        W15545   6.450   6.178  10.658 -0.3477  0.1984  0.1693
14682W        W15546   7.537   4.066   9.809 -0.0444 -0.1125  0.2205
14683W        W15547   7.324   4.450  12.445  0.0539  0.0283  0.0011
14684W        W15548   9.464   5.756   0.100 -0.4363  0.0417  0.1412
14685W        W15549   8.638   4.444  11.308 -0.2240 -0.1229 -0.1126
14686W        W15550   9.966   7.256   0.918 -0.2487  0.0018 -0.1158
14687W        W15551   7.707   3.683  13.789 -0.2224  0.2052  0.0753
14688W        W15552  10.015   8.431   0.529  0.3470 -0.0416 -0.0521
14689W        W15553   9.306   4.783   1.115 -0.0987 -0.1343 -0.0359
14690W        W15554   6.663   2.352   9.723  0.1300 -0.1499  0.3044
14691W        W15555   8.617   6.132  11.596  0.0488  0.0834  0.2692
14692W        W15556  10.825   7.088  11.436  0.0445  0.0317 -0.1803
14693W        W15557   6.535   7.380  11.878  0.2664  0.2205 -0.2205
14694W        W15558   4.583   4.558  12.001 -0.1778 -0.0770  0.1470
14695W        W15559   7.483   3.595  12.885 -0.2292 -0.0679 -0.0208
14696W        W15560   8.311   3.460   0.168  0.0409  0.1822  0.1838
14697W        W15561  11.638  13.825  12.125  0.1099 -0.0186  0.0109
14698W        W15562  10.022   6.140   0.110  0.0789  0.1915 -0.1152
14699W        W15563   9.949   5.385  12.514 -0.4411  0.3128 -0.4522
14700W        W15564   5.959  10.519  11.362 -0.0215 -0.3172 -0.1901
14701W        W15565  11.291   3.974  10.489 -0.0154 -0.0044  0.0653
14702W        W15566  10.926   7.009  10.960 -0.3264 -0.1896  0.1533
14703W        W15567   8.978   5.309  11.237 -0.1761  0.1092 -0.3428
14704W        W15568   5.898   2.511  11.261  0.1174  0.2437 -0.0410
14705W        W15569  10.813   5.685  12.184  0.1389 -0.0173  0.0482
14706W        W15570  11.524   5.574   0.032  0.0122  0.1293  0.2398
14707W        W15571  11.063   4.971  13.693  0.2341  0.0478  0.1592
14708W        W15572  10.843   4.268   9.101 -0.0142 -0.2774 -0.2701
14709W        W15573  12.611   3.095  13.323  0.3170  0.2127 -0.0579
14710W        W15574  10.198   3.220  13.207 -0.3419 -0.2670 -0.0351
14711W        W15575   7.365   4.669  13.045 -0.2675 -0.1182 -0.1035
14712W        W15576  11.842   5.989  10.630  0.0726 -0.1400 -0.2930
14713W        W15577   8.741   3.580   0.393  0.0054 -0.1850  0.1057
14714W        W15578   6.862   5.749  12.153 -0.2975  0.1064 -0.0387
14715W        W15579   7.172   6.269  12.735 -0.0612 -0.1367  0.3053
14716W        W15580   8.659   6.661  12.487  0.0009  0.0504 -0.1123
14717W        W15581  10.079   3.719  10.937  0.0763  0.1168  0.1201
14718W        W15582   9.850   6.997   0.076  0.0901  0.3185  0.4865
14719W        W15583  10.017   7.515  13.514  0.0800 -0.2025 -0.1228
14720W        W15584   7.383   8.154  11.797  0.0697 -0.0067  0.0292
14721W        W15585  10.745   4.920   0.153 -0.1837 -0.1709  0.2015
14722W        W15586  11.771   6.183   1.255 -0.3222 -0.1783  0.1481
14723W        W15587  11.013   5.653  12.807  0.0591 -0.4499 -0.0852
14724W        W15588  10.170   2.867  12.252  0.5097 -0.2742 -0.3988
14725W        W15589  11.541   6.794  12.527 -0.0378  0.5747  0.0762
14726W        W15590   8.381   7.686  10.047  0.1260  0.2169  0.1496
14727W        W15591   9.806   5.891   0.482 -0.0512  0.1675 -0.1067
14728W        W15592  12.124   4.946   9.334  0.0687 -0.1531  0.0269
14729W        W15593   9.842   5.088  12.937 -0.1379 -0.0773 -0.0271
14730W        W15594  11.762   6.380  12.608 -0.0675 -0.0771  0.0270
14731W        W15595   6.660   6.411  13.693  0.0192  0.3394 -0.0356
14732W        W15596   9.084   4.112  12.878  0.4339 -0.1973  0.0587
14733W        W15597   8.649   5.196  12.523 -0.1445 -0.0853  0.0187
14734W        W15598   7.041   6.762   0.756 -0.1174 -0.0616  0.0221
14735W        W15599   9.695   7.059  12.527  0.2059  0.0655  0.2653
14736W        W15600  13.233   7.472  11.936  0.0791 -0.1482  0.0403
14737W        W15601  10.333   8.893  12.816 -0.1581 -0.0195  0.2814
14738W        W15602  13.268   5.413  11.603  0.2837  0.2688  0.1180
14739W        W15603   8.286   4.793  11.534  0.3003  0.4645  0.2033
14740W        W15604   4.220   5.874  13.543  0.0219 -0.0736  0.1177
14741W        W15605  11.820   3.855  11.772  0.0880  0.0568 -0.1174
14742W        W15606   9.394   4.132  13.953 -0.0960  0.2038 -0.0700
14743W        W15607  10.719   6.610  11.658  0.1425  0.0194 -0.1019
14744W        W15608   8.012   4.312  10.819 -0.2063  0.0923 -0.0515
14745W        W15609   8.511   4.967  13.405 -0.2548 -0.0771 -0.0735
14746W        W15610   6.972   7.789  10.021  0.0040 -0.1854 -0.2524
14747W        W15611  10.202   6.186  10.959 -0.2630  0.1267  0.1749
14748W        W15612  11.169   7.020   1.513  0.0553 -0.1874 -0.0883
14749W        W15613   9.625   4.086   0.874 -0.0800 -0.2856 -0.0410
14750W        W15614   9.334   2.547  12.446 -0.2227 -0.1756  0.1896
14751W        W15615  10.743   8.654  11.228 -0.1246 -0.0106 -0.0300
14752W        W15616  10.865   6.405   1.031 -0.0026  0.0775  0.1905
14753W        W15617   8.910   6.663  11.536 -0.1435 -0.1379 -0.2105
14754W        W15618   5.245   5.576  12.701  0.0878 -0.3479 -0.1735
14755W        W15619   9.178   3.301  10.882 -0.0335  0.1614 -0.3538
14756W        W15620   8.716   6.865  11.970  0.2325  0.0400 -0.0262
14757W        W15621   7.079   6.599  10.034  0.2506 -0.1613 -0.1816
14758W        W15622   7.762   4.808  12.773  0.0432  0.1590 -0.0478
14759W        W15623   8.498   5.178  11.832 -0.2178 -0.1723 -0.1424
14760W        W15624   7.610   5.565  13.212 -0.2006  0.2475  0.1585
14761W        W15625   9.246   3.619   8.238  0.1598  0.1430 -0.5764
14762W        W15626   6.134   2.156   8.963  0.0235 -0.3452  0.0490
14763W        W15627   7.767   4.303  12.297  0.0951 -0.1441 -0.1454
14764W        W15628  12.981   2.756  12.938  0.0956 -0.0681  0.0470
14765W        W15629   8.368   5.816   0.689 -0.0938 -0.0186  0.0881
14766W        W15630   6.288   2.748  11.932  0.3658 -0.0453  0.3365
14767W        W15631   6.286   4.569  12.771  0.5445 -0.2401 -0.0306
14768W        W15632   8.124   9.289  10.379 -0.3025 -0.3639 -0.0865
14769W        W15633   8.577   5.017  11.221 -0.0354 -0.1884  0.3444
14770W        W15634   7.276   7.114  12.435  0.2606 -0.0637 -0.1327
14771W        W15635  10.755   4.379  11.216 -0.2248 -0.3410  0.0847
14772W        W15636   8.327   5.862  13.299 -0.2829 -0.3384 -0.0227
14773W        W15637  11.868   7.643  10.755 -0.0316 -0.1118  0.0616
14774W        W15638  10.594   5.565  12.638  0.6107  0.1214 -0.2824
14775W        W15639  10.364   8.087  10.600  0.0558 -0.2813 -0.0290
14776W        W15640   7.988   4.743   1.305  0.0244 -0.2236  0.4601
14777W        W15641   8.197   5.434   1.095 -0.0007 -0.0793 -0.2005
14778W        W15642   5.851   6.306  12.363 -0.1478 -0.1069  0.1089
14779W        W15643   9.180   3.794  13.683  0.1399  0.0857  0.0124
14780W        W15644   5.205   4.678  12.814  0.0825 -0.0403 -0.1790
14781W        W15645  11.647   9.618  10.938  0.0446 -0.1176  0.0141
14782W        W15646   8.176   4.146  10.223  0.0246 -0.1249  0.7358
14783W        W15647   7.152   6.588  11.810 -0.3318 -0.1429 -0.1845
14784W        W15648   8.409   2.120  10.618  0.0161  0.0709  0.1996
14785W        W15649  12.026   4.342  11.561  0.0382 -0.0377 -0.1512
14786W        W15650   8.113   2.721  13.105 -0.5258  0.2926 -0.1140
14787W        W15651   7.923   5.835  12.929 -0.2551  0.1405 -0.1345
14788W        W15652   6.954   5.841  12.594  0.0964 -0.3523 -0.0920
14789W        W15653  11.662   6.156  11.208  0.1593 -0.0481  0.0093
14790W        W15654   8.248   3.245  12.172  0.0824 -0.0506  0.0338
14791W        W15655   8.425   5.613  12.782  0.0794  0.1617 -0.0701
14792W        W15656  10.666   3.804   0.461  0.3514 -0.2929 -0.0347
14793W        W15657   9.558   4.479  12.078 -0.3442 -0.1435 -0.0214
14794W        W15658   8.843   3.538   0.984  0.0492  0.3895  0.1840
14795W        W15659   9.606   4.134  12.992  0.1881  0.1613  0.0595
14796W        W15660   9.831   4.485  11.609 -0.0725 -0.0134  0.0229
14797W        W15661   7.642   1.288  11.708  0.3800  0.0666 -0.1354
14798W        W15662   7.816   5.892  11.364  0.2091 -0.0126 -0.4374
14799W        W15663   8.651   4.346  10.214 -0.1523  0.0292  0.2450
14800W        W15664   7.822   8.205  13.091  0.0142 -0.2198  0.0769
14801W        W15665   6.272   3.222   8.456 -0.1045  0.1379 -0.1478
14802W        W15666   9.216   4.288  13.297  0.0666  0.0174  0.0050
14803W        W15667   7.990   7.766  13.238  0.0698  0.0383 -0.4189
14804W        W15668   6.662   2.889   9.562 -0.0736 -0.1622  0.0129
14805W        W15669   8.023   6.058   1.495 -0.2966 -0.0044  0.4066
14806W        W15670   7.783   6.599  13.594 -0.0971  0.1789 -0.0219
14807W        W15671   9.210   5.363  11.737 -0.0094  0.1106 -0.2102
14808W        W15672   8.688   2.218  12.800  0.2657  0.1511  0.2368
14809W        W15673  12.314   6.675  12.895 -0.0100  0.1184  0.2153
14810W        W15674   9.502   8.599  11.269  0.1040 -0.3783 -0.0393
14811W        W15675   7.534   6.175  10.050 -0.0619  0.1794  0.1398
14812W        W15676  11.309   6.205  12.538 -0.4124 -0.1519 -0.1729
14813W        W15677   6.951   4.369  11.598 -0.3924 -0.3529 -0.2273
14814W        W15678  10.176   5.532  12.918 -0.0079  0.4044 -0.2093
14815W        W15679   6.460   5.564  12.463  0.0888 -0.0849  0.1563
14816W        W15680  10.786   4.879   0.777  0.0500  0.1864 -0.0271
14817W        W15681   8.824   7.418   9.992  0.0748 -0.0687  0.0544
14818W        W15682  11.899   4.218  12.179  0.0236 -0.1589 -0.1630
14819W        W15683   7.672   3.147  12.455 -0.1728 -0.1746 -0.3124
14820W        W15684   5.436   5.407  11.131  0.1806 -0.1486  0.1202
14821W        W15685  13.096   4.058  10.457 -0.0784 -0.1763 -0.1274
14822W        W15686   6.900   7.506  13.844  0.1162  0.0928 -0.2726
14823W        W15687   9.277   4.855  11.888 -0.0393  0.0140 -0.1119
14824W        W15688   9.723   7.821  11.427 -0.3367 -0.1406  0.0548
14825W        W15689   9.636   4.626  13.217  0.2169 -0.0895  0.0687
14826W        W15690  10.103   8.755   2.998  0.0381 -0.0954  0.1347
14827W        W15691   7.406   4.665   0.508  0.2360 -0.0510  0.1779
14828W        W15692   8.318   6.597  12.102 -0.0119  0.1222 -0.1949
14829W        W15693   7.302   5.589   1.497 -0.3089 -0.0049 -0.2027
14830W        W15694   7.999   3.233   0.996  0.0501  0.1633  0.4570
14831W        W15695   6.803   3.263  12.590  0.1102  0.0926 -0.0444
14832W        W15696  11.374   3.805  11.435 -0.1835  0.3243 -0.1555
14833W        W15697   9.460   7.939  10.249 -0.0078  0.1044 -0.0731
14834W        W15698  11.225   6.675   9.921  0.2584 -0.2301 -0.0259
14835W        W15699   8.991   5.711  13.448 -0.5013  0.2237  0.3267
14836W        W15700   6.381   6.417  13.042  0.2513  0.2584  0.1506
14837W        W15701   7.916   7.499  10.998 -0.0710 -0.1150  0.0428
14838W        W15702   9.001   5.971   1.407 -0.0252 -0.0553  0.4668
14839W        W15703   8.955   6.244  12.560  0.1904 -0.0924 -0.1891
14840W        W15704   4.881   5.268  12.215 -0.1470  0.1056  0.1513
14841W        W15705   9.380   6.813   0.969 -0.3270  0.2086  0.4207
14842W        W15706   9.740   5.283  10.169  0.1592  0.1576  0.1642
14843W        W15707   9.768   8.904  13.606  0.3538 -0.3079 -0.0585
14844W        W15708  10.121   4.641  12.974 -0.1315 -0.0525 -0.0240
14845W        W15709   7.391   3.334  13.407 -0.0197 -0.3792  0.0284
14846W        W15710  12.455   7.249  13.735  0.3728  0.2622 -0.2418
14847W        W15711   8.534   7.846   4.063  0.2767  0.0286  0.0692
14848W        W15712   9.574   2.924  10.962 -0.0610  0.0429 -0.0822
14849W        W15713  11.385   6.244  13.393  0.2635 -0.0205 -0.1492
14850W        W15714   6.031   7.148   9.008 -0.1081 -0.2178  0.0918
14851W        W15715  11.583   4.836   1.895  0.1259 -0.1034  0.2077
14852W        W15716  10.407   6.461  10.552  0.0159  0.0890 -0.0590
14853W        W15717   8.798   4.853   9.455 -0.4292  0.1194 -0.1413
14854W        W15718  11.327   7.104  13.838 -0.0182  0.0631 -0.1576
14855W        W15719   9.927   5.388   1.193 -0.2040  0.4041  0.0878
14856W        W15720   8.242   4.281  13.050  0.0164 -0.0343  0.1421
14857W        W15721  10.518   5.344   2.147 -0.0380 -0.1413 -0.1101
14858W        W15722   5.657   4.234  13.338  0.0685 -0.0751 -0.2035
14859W        W15723   8.370   5.371  13.761  0.0763 -0.0434 -0.1851
14860W        W15724   9.022   1.305  11.907 -0.0037 -0.1467 -0.0890
14861W        W15725   6.148   8.835  11.601  0.0993 -0.1036 -0.0290
14862W        W15726  10.723   6.735   0.656 -0.1021  0.1829  0.1307
14863W        W15727   9.777   3.472  10.586  0.0296 -0.1348  0.1012
14864W        W15728   7.538   5.120  11.808  0.0145 -0.2571 -0.0648
14865W        W15729   7.087   7.606  11.669  0.0519  0.2898  0.0490
14866W        W15730   8.985   5.532  12.845  0.0945  0.3451  0.0417
14867W        W15731   9.451   6.440   1.368 -0.0201 -0.3097 -0.1859
14868W        W15732   7.517   2.939  11.954  0.1667 -0.0642 -0.0501
14869W        W15733   8.705   6.624  10.772 -0.1350  0.1512 -0.1704
14870W        W15734   7.259   4.349   9.296 -0.1375  0.2100  0.1128
14871W        W15735   7.409   3.121  11.120 -0.2378 -0.1010 -0.1403
14872W        W15736   9.794   5.432  11.688  0.0674  0.2761  0.0088
14873W        W15737   7.767   7.771   9.357 -0.1717 -0.3102 -0.0968
14874W        W15738   8.511   5.443  10.885  0.0686 -0.1175 -0.0031
14875W        W15739  10.277   6.513  11.984  0.4095 -0.3361 -0.1172
14876W        W15740   8.163   3.298  12.658  0.3921  0.1527  0.2763
14877W        W15741   9.947   6.963  13.597 -0.0827  0.2166 -0.0732
14878W        W15742  12.812   4.681  13.708 -0.1329 -0.0324  0.0317
14879W        W15743   7.978   7.494  12.820 -0.1237  0.0648  0.0453
14880W        W15744   6.161   5.919  11.037  0.1881 -0.1372 -0.1763
14881W        W15745  10.111   6.341  11.473  0.0672  0.0403  0.3571
14882W        W15746  10.868   7.455  10.728  0.0759  0.2778  0.2490
14883W        W15747   8.983   9.040  12.376 -0.2645  0.1179  0.1597
14884W        W15748   8.298   1.940  11.657 -0.0991  0.0711 -0.0491
14885W        W15749  10.904   7.300  12.865 -0.0846 -0.0772  0.0358
14886W        W15750   7.150   7.063  11.275 -0.2408 -0.1005 -0.2601
14887W        W15751   8.208   3.238  11.563 -0.2575  0.2107 -0.1197
14888W        W15752   9.778   6.576  10.575  0.1176 -0.1565 -0.0395
14889W        W15753  12.083   7.029   0.052  0.0766 -0.2351 -0.2173
14890W        W15754   9.570   6.323  13.059 -0.2517 -0.0581 -0.0116
14891W        W15755   5.916   4.435  11.746 -0.0171 -0.1078  0.2487
14892W        W15756   7.540   4.220  11.394 -0.0441 -0.1259 -0.0161
14893W        W15757  10.505   5.109   2.808 -0.2702 -0.4422 -0.3311
14894W        W15758   9.036   7.050  11.010  0.0005 -0.1619 -0.2478
14895W        W15759   9.302   7.537  12.453 -0.2277  0.1597  0.1848
14896W        W15760   7.932   6.459  11.268 -0.2994 -0.2702 -0.0890
14897W        W15761   7.442   7.987   0.309 -0.0371 -0.1629  0.0347
14898W        W15762   8.376   6.071  12.589 -0.0863 -0.0132  0.0357
14899W        W15763   5.829   6.347  10.238  0.1861 -0.1258  0.1806
14900W        W15764  12.045   5.806  13.306 -0.0620 -0.0593 -0.2550
14901W        W15765   6.129   3.507  12.740 -0.1396  0.1701 -0.0393
14902W        W15766   5.568   3.727  11.686 -0.0843  0.2167 -0.1296
14903W        W15767   8.513   3.196  10.011  0.0680  0.0422 -0.2962
14904W        W15768   6.799   6.778  11.579 -0.1639 -0.0122  0.2302
14905W        W15769  10.272   4.313  13.705 -0.2025  0.0543 -0.0306
14906W        W15770   8.900   3.325   9.633 -0.0042  0.2855 -0.0771
14907W        W15771  10.543   5.837   2.247  0.2496 -0.4571  0.0138
14908W        W15772   7.752   6.735  11.709  0.1244 -0.0367 -0.0332
14909W        W15773  10.195   6.982  12.614 -0.1594 -0.3042 -0.1363
14910W        W15774   8.505   4.274  12.290 -0.0679 -0.0456  0.2112
14911W        W15775   9.190   4.349   0.626 -0.0106  0.0217 -0.1771
14912W        W15776   9.935   6.344  12.730 -0.0945  0.1617 -0.2517
14913W        W15777   7.280   4.334  13.467 -0.1342 -0.0950  0.1824
14914W        W15778   7.914   2.109  10.994 -0.3460  0.0334  0.0007
14915W        W15779   7.880   7.976  10.990  0.2177 -0.2618  0.0540
14916W        W15780   7.884   5.817  12.443 -0.1816  0.3685 -0.0155
14917W        W15781   6.329   6.753  13.410 -0.0655 -0.4735 -0.0028
14918W        W15782   7.481   5.293  11.188 -0.0364  0.2283 -0.0264
14919W        W15783   6.770   6.999  12.632 -0.2253 -0.0201  0.0876
14920W        W15784   8.227   6.872  13.138 -0.1044  0.1829  0.0622
14921W        W15785   7.756   3.090  10.624 -0.0343  0.1256  0.0610
14922W        W15786  10.190   6.569  13.942 -0.1530  0.0907 -0.1391
14923W        W15787   9.337   6.100   8.090  0.1251  0.1840 -0.1400
14924W        W15788  10.419   7.513  12.642 -0.3033 -0.2028 -0.1309
14925W        W15789   8.851   7.748  11.888 -0.0943  0.1280 -0.1080
14926W        W15790   9.076   7.111  10.534 -0.0278  0.2572 -0.2123
14927W        W15791  11.095   3.367  11.297  0.0209 -0.0162 -0.0407
14928W        W15792   8.330   7.202  12.681  0.2613  0.2363  0.0375
14929W        W15793   5.365   3.818  11.195 -0.1014  0.2769 -0.0936
14930W        W15794  10.769   5.717  10.952 -0.0320  0.2546 -0.0162
14931W        W15795   7.288   6.806  10.652  0.0179 -0.1230 -0.0686
14932W        W15796   9.191   1.377  13.533  0.3432 -0.0767 -0.0546
14933W        W15797   8.639   9.030   3.157  0.4097  0.0705  0.3458
14934W        W15798   8.510   5.677  10.409 -0.0948 -0.0096  0.0069
14935W        W15799   7.716   7.145  12.656 -0.1502 -0.3525  0.2089
14936W        W15800   8.598   2.859  11.409 -0.1781 -0.0951  0.0886
14937W        W15801   8.259   4.712  10.995  0.1951 -0.2127  0.1082
14938W        W15802   8.382   2.855   9.375  0.0686  0.1640  0.1800
14939W        W15803   9.779   5.593  13.233  0.0532  0.0003  0.0619
14940W        W15804   5.930   3.627  11.250 -0.2405 -0.2158  0.0321
14941W        W15805  11.599   5.998  12.939  0.0877 -0.1157  0.0709
14942W        W15806  10.367   8.932  11.872 -0.2875  0.2562 -0.1061
14943W        W15807   8.547   4.698  12.554 -0.2519  0.1468  0.1319
14944W        W15808  11.539   7.930   2.710 -0.0505  0.0042 -0.1614
14945W        W15809   7.357   4.582  11.720  0.0138 -0.2355  0.1721
14946W        W15810  11.041   5.253   0.370 -0.0452 -0.1309 -0.1628
14947W        W15811   7.030   5.224   8.970 -0.0644  0.0449 -0.2367
14948W        W15812   6.897   7.771  12.908 -0.0029  0.4424  0.2771
14949W        W15813   9.488   5.910  13.514 -0.0518  0.4458  0.0193
14950W        W15814  10.488   4.475  13.243  0.0732 -0.1402 -0.0569
14951W        W15815   9.658   8.123  13.113 -0.3979  0.0631  0.0365
14952W        W15816   6.005   6.214  13.389 -0.0740  0.0349 -0.1935
14953W        W15817   8.226   5.588  11.746 -0.2696 -0.1025 -0.0711
14954W        W15818   9.108   6.568  13.064 -0.0538  0.1975 -0.2033
14955W        W15819   6.396   5.369  12.903  0.0109  0.1257 -0.2420
14956W        W15820  12.024   6.385  12.083  0.0052  0.0677  0.1526
14957W        W15821  11.328  10.283  12.673 -0.0103  0.1239 -0.0474
14958W        W15822  10.995   5.220  10.769  0.0392 -0.0202  0.1733
14959W        W15823   9.733   5.130  13.420 -0.0480 -0.0655 -0.3208
14960W        W15824  10.433   5.518  11.739  0.0964 -0.2557  0.3372
14961W        W15825   8.295   1.743  11.047  0.3377  0.1389  0.0573
14962W        W15826   8.648   7.609   5.302  0.0807  0.1880 -0.0340
14963W        W15827   7.662   6.608   2.654  0.2650 -0.0872  0.1118
14964W        W15828  11.882  12.197   2.310 -0.1803  0.1888 -0.0148
14965W        W15829  12.781  13.751   2.957 -0.1177 -0.3891 -0.2520
14966W        W15830   8.607  10.679  13.966  0.0175  0.1131 -0.1437
14967W        W15831   8.591   5.280   0.210  0.2502  0.3853  0.2183
14968W        W15832   8.968   7.215  13.337 -0.0940  0.3165  0.0325
14969W        W15833   9.096   7.905  12.976  0.0432 -0.1004 -0.2916
14970W        W15834  10.909   9.107   2.000  0.0502  0.1765  0.2658
14971W        W15835   9.533   5.208   0.954  0.0404  0.2459 -0.1010
14972W        W15836   6.663   6.062   0.992  0.1706  0.1335 -0.0204
14973W        W15837  11.078   8.042   6.264 -0.2172 -0.0418  0.2102
14974W        W15838  10.654   7.565   3.097 -0.1969 -0.3876 -0.0325
14975W        W15839  11.460   8.323   3.078  0.0156  0.3149  0.0595
14976W        W15840   9.228   7.369   0.308 -0.2086  0.1719  0.0170
14977W        W15841   8.177   8.482   2.675 -0.0432  0.0005  0.0455
14978W        W15842  10.073  11.336   1.385 -0.1266 -0.2255 -0.2240
14979W        W15843   7.051   7.396   1.839  0.1842 -0.0040 -0.0903
14980W        W15844   7.383   8.012   5.848  0.2225  0.1174  0.0041
14981W        W15845  11.206   7.430   3.032  0.2466 -0.0319  0.0708
14982W        W15846  11.841   8.653   2.237 -0.4742  0.0881 -0.5051
14983W        W15847   9.310   8.690  13.471  0.0402  0.2609 -0.3545
14984W        W15848  10.696  10.377   1.314 -0.2020  0.1566  0.4392
14985W        W15849   8.627   7.300   1.619 -0.1279  0.0489  0.4029
14986W        W15850   4.579   7.701   2.112 -0.0481  0.0272  0.0869
14987W        W15851   7.758   8.124   4.699  0.1244  0.2525 -0.1783
14988W        W15852  13.573   8.481   2.601 -0.0336  0.0903 -0.2367
14989W        W15853   9.427  11.086   2.772  0.0706 -0.2309  0.0114
14990W        W15854   9.769   9.993   4.048  0.0253  0.1301  0.2188
14991W        W15855   9.136   8.007   1.669  0.0644 -0.2362  0.1183
14992W        W15856  10.028   8.637   0.990  0.4014 -0.1556  0.0915
14993W        W15857  12.052  12.663   2.790 -0.1015 -0.0092 -0.1407
14994W        W15858   7.916   7.614   4.830 -0.1864  0.0248  0.2208
14995W        W15859  10.311   7.400   2.706  0.1212 -0.1334 -0.0902
14996W        W15860   7.906   6.321   5.686  0.1095 -0.2411  0.0180
14997W        W15861  10.087   9.885   3.069 -0.0397  0.2155  0.0321
14998W        W15862   9.796   6.529   0.334  0.1625 -0.0375  0.0140
14999W        W15863   9.532   9.989  14.009  0.0588 -0.1658  0.0949
15000W        W15864  12.273  11.699   2.798  0.3317 -0.3064  0.1091
15001W        W15865   9.689   7.562   5.363  0.0522  0.0806  0.1003
15002W        W15866   8.323   7.620   0.091  0.3004  0.0831  0.0574
15003W        W15867  13.034   8.548   2.268  0.2164 -0.0064 -0.2058
15004W        W15868   9.675  10.727   2.989  0.0994  0.0083 -0.3813
15005W        W15869  10.446   9.375   1.768  0.3350 -0.1172  0.1259
15006W        W15870   5.744  11.579   2.745 -0.5365  0.0046  0.3619
15007W        W15871   9.923  13.808   0.385 -0.0585  0.5402  0.2915
15008W        W15872   8.681   7.265   2.762  0.1990  0.1386 -0.0737
15009W        W15873  13.708   7.973   4.451  0.0301  0.1899 -0.0371
15010W        W15874  13.652  10.160   3.713  0.1510  0.0337 -0.0649
15011W        W15875  11.891   9.524  14.010  0.5061 -0.0264 -0.3656
15012W        W15876  12.533  10.459   0.808 -0.0310 -0.1211  0.4005
15013W        W15877   9.941   7.104   2.206 -0.0476 -0.1819  0.1499
15014W        W15878  11.280  10.749   4.133  0.0436  0.5293 -0.0850
15015W        W15879  12.027   7.618   4.484  0.0576  0.0792  0.0076
15016W        W15880  10.557   8.252   1.832 -0.2345  0.0218  0.3398
15017W        W15881   8.536   9.775   0.640  0.1639  0.0845 -0.0100
15018W        W15882   7.676   5.047  13.164  0.0478  0.1036 -0.1330
15019W        W15883  10.068   7.609   2.240  0.0989  0.0963 -0.1002
15020W        W15884   6.904   7.485   1.137  0.2020  0.1371 -0.3611
15021W        W15885  10.351   9.943   1.148  0.2318 -0.1241  0.2132
15022W        W15886  10.252   8.780   2.252  0.0351  0.0073 -0.3970
15023W        W15887   7.365   9.167   1.747 -0.1742 -0.2693 -0.0192
15024W        W15888   7.701  10.427   0.974  0.2792  0.1256  0.2501
15025W        W15889   6.788  10.729   2.526 -0.0353 -0.2727 -0.0523
15026W        W15890   8.110   6.498   1.643  0.0622  0.2046 -0.1379
15027W        W15891  12.359   8.518   2.166 -0.2779  0.0629 -0.1371
15028W        W15892   7.529   8.261  13.859  0.0627 -0.0425 -0.0207
15029W        W15893   9.048   9.851   0.961 -0.2626  0.0304  0.0357
15030W        W15894  11.185  10.244   0.083 -0.1132  0.2730  0.2448
15031W        W15895   9.783  11.104   3.659  0.1766 -0.0080  0.1963
15032W        W15896  11.394  11.233   5.608 -0.0050 -0.2228 -0.0046
15033W        W15897  10.766   4.426   1.061 -0.1157 -0.2670  0.6563
15034W        W15898  12.416  12.408   0.804  0.0888 -0.0221  0.2395
15035W        W15899  12.850   9.232   2.998  0.0782  0.1974 -0.0557
15036W        W15900  11.278   9.155   2.794 -0.0047  0.0805  0.0661
15037W        W15901   9.545   6.979   0.475  0.0027 -0.0087 -0.1985
15038W        W15902   6.226   9.950   3.004 -0.2019  0.2471  0.2064
15039W        W15903   6.593   7.717   1.525 -0.1937 -0.1471  0.1032
15040W        W15904  10.820   9.766   3.079  0.0472  0.2007  0.0500
15041W        W15905   8.546   8.162   2.583  0.3658  0.2967 -0.0077
15042W        W15906   7.307   7.208   4.838  0.1220 -0.1066 -0.2337
15043W        W15907   8.974   6.062   1.952 -0.0515  0.0360  0.0865
15044W        W15908  10.031   8.410   1.903 -0.3546 -0.2666 -0.0405
15045W        W15909  10.515   6.533   3.710  0.2912 -0.0718 -0.0307
15046W        W15910   7.916   8.206   0.890  0.0849 -0.1464  0.0535
15047W        W15911  12.877  12.512   6.591  0.0233 -0.1503  0.3285
15048W        W15912  10.630   7.932   4.350  0.3204  0.0591  0.1253
15049W        W15913  10.724  10.009   5.127 -0.0491 -0.1640 -0.1544
15050W        W15914  13.330   8.843   4.368  0.2100  0.0763 -0.1232
15051W        W15915  11.707   6.389   0.808 -0.1698 -0.0702 -0.1921
15052W        W15916  11.606  10.212   2.869  0.0285 -0.0527 -0.1136
15053W        W15917   7.585   8.804   1.479 -0.1821 -0.0379  0.0060
15054W        W15918   9.511   7.805  12.111 -0.0855  0.2076 -0.0471
15055W        W15919   9.290   7.911   5.087  0.1701  0.0344 -0.1402
15056W        W15920  12.123  10.261   1.548 -0.3846 -0.0970 -0.0665
15057W        W15921   9.433   9.097   3.471 -0.1254  0.2289  0.2090
15058W        W15922   9.710   8.664   2.244  0.2133 -0.2285 -0.0923
15059W        W15923   8.660   4.133  13.845  0.2207  0.2251 -0.0937
15060W        W15924  12.188   7.932   2.022 -0.1886 -0.4157  0.1643
15061W        W15925   9.275   9.267   2.175  0.0589 -0.1300  0.1317
15062W        W15926   9.137   8.676  12.037  0.0808 -0.1271  0.1104
15063W        W15927  11.034   8.653   2.755 -0.1537  0.2495  0.5580
15064W        W15928  13.167  11.757   2.435 -0.3142  0.3355  0.0621
15065W        W15929  12.086   6.860   3.327  0.0146 -0.1266 -0.2486
15066W        W15930  10.234  10.336   5.622 -0.2536  0.2977 -0.1061
15067W        W15931  10.783  13.257   0.997  0.1103  0.1000  0.1243
15068W        W15932   9.243   8.484   3.089 -0.1744 -0.0049  0.3144
15069W        W15933   7.032   6.352   5.140 -0.1497 -0.0292 -0.2119
15070W        W15934   7.527   9.658   3.551  0.1157  0.1498  0.1053
15071W        W15935   8.373   8.999   3.632  0.1416  0.2611  0.1801
15072W        W15936   7.600  10.763   1.979  0.1979  0.0941 -0.0454
15073W        W15937  11.812   7.846   5.576 -0.0398  0.0298  0.1225
15074W        W15938   9.465  11.227   2.003  0.2430 -0.3700 -0.2358
15075W        W15939  12.010  12.876   0.596  0.0951 -0.0248 -0.3015
15076W        W15940  11.024  11.830   2.421  0.1998  0.1563  0.1916
15077W        W15941  12.499   8.328   4.300  0.2308  0.1625 -0.3071
15078W        W15942  11.857   9.097   6.619  0.1404  0.0339 -0.1738
15079W        W15943  11.388   7.163   3.621  0.0950 -0.0531  0.0881
15080W        W15944  13.042  10.453   1.861 -0.0723 -0.0026  0.0537
15081W        W15945  10.298   9.838   1.710 -0.0783  0.0023  0.1522
15082W        W15946   7.743  10.021   4.354  0.1673  0.3268  0.0986
15083W        W15947  10.030   9.634   3.847 -0.1073 -0.0022  0.1092
15084W        W15948   9.032   6.958   3.117 -0.1590  0.1218 -0.1894
15085W        W15949   6.227   7.642  13.937  0.1739 -0.2057  0.0410
15086W        W15950  11.100  10.209   1.612  0.1625  0.3138  0.1112
15087W        W15951  13.068  10.905   2.104 -0.1154 -0.2508  0.2010
15088W        W15952   9.485   9.591   3.754 -0.0095 -0.2393  0.2075
15089W        W15953   9.147  10.796   3.110 -0.2153  0.0975  0.0558
15090W        W15954  11.886   7.723   1.165  0.2116 -0.0339  0.3668
15091W        W15955   7.013   8.449  12.324  0.0771  0.0467 -0.1394
15092W        W15956  11.200   6.012   0.884  0.1070  0.0098  0.2154
15093W        W15957  11.601   7.951   4.077  0.2078  0.4166  0.2418
15094W        W15958   6.941   8.187   5.516 -0.3965 -0.0291  0.0559
15095W        W15959   9.099   8.010   3.291 -0.2175 -0.1435  0.0936
15096W        W15960  12.421  10.965   7.433 -0.1248  0.1285  0.0376
15097W        W15961   7.645  10.399   5.102  0.0797 -0.0734  0.0591
15098W        W15962   7.899   8.998  12.833  0.0943  0.1938  0.3273
15099W        W15963   9.341   8.226  13.876 -0.0332  0.2489 -0.0476
15100W        W15964  11.602  11.333   2.218 -0.1964 -0.1085 -0.2840
15101W        W15965   6.204   8.001   1.874  0.1231 -0.2285 -0.1780
15102W        W15966   9.278   7.332   1.762 -0.0473 -0.1226  0.0665
15103W        W15967  11.550   7.588   3.445  0.1936 -0.0281  0.2105
15104W        W15968  10.455   5.862   1.671 -0.1402 -0.2251  0.0875
15105W        W15969  10.956   7.090   0.230 -0.0866  0.0951 -0.0435
15106W        W15970   8.623   9.918   2.237  0.0057  0.0060  0.1769
15107W        W15971   7.628  12.386   3.154 -0.0071  0.0963 -0.0756
15108W        W15972  12.425   9.332   2.126 -0.1124 -0.1188 -0.3236
15109W        W15973  12.313   9.584   0.215 -0.0461 -0.1177  0.2054
15110W        W15974   7.768   7.528   1.709 -0.4387 -0.0830 -0.0219
15111W        W15975  10.901  10.968   1.332  0.0972  0.2042  0.1765
15112W        W15976  11.630   7.200   0.194  0.0247 -0.1356  0.0252
15113W        W15977  11.129   9.350   3.253 -0.1741 -0.0202  0.2490
15114W        W15978  10.033   6.861   0.652 -0.1536 -0.0633  0.0045
15115W        W15979   6.804   7.438   0.701  0.0706 -0.0347  0.1612
15116W        W15980   6.548   7.263   0.140 -0.0082  0.1778  0.1460
15117W        W15981   5.588   7.168   2.749 -0.2536 -0.2653 -0.0623
15118W        W15982  11.270   7.083   0.609  0.1076 -0.1106  0.1527
15119W        W15983  11.102   9.265   3.783  0.1410  0.1486  0.2669
15120W        W15984   8.576   9.383   0.940  0.0669  0.0443  0.0878
15121W        W15985  10.472   9.724   3.464  0.2472  0.0591 -0.1122
15122W        W15986  11.356   8.937   4.086  0.2171 -0.2012 -0.1070
15123W        W15987   9.257   7.541   7.239  0.3178 -0.0969  0.0783
15124W        W15988   8.017  10.356   1.604 -0.0587 -0.0470  0.6613
15125W        W15989   5.624   7.752   0.641 -0.2757  0.1050  0.0229
15126W        W15990   8.221   9.366   1.674 -0.0838 -0.2522 -0.2297
15127W        W15991   7.927  11.924   4.383  0.1527  0.0700 -0.2288
15128W        W15992   7.204  10.230   2.606  0.3891 -0.0339  0.1925
15129W        W15993  10.281   8.192   2.971 -0.0169 -0.1106 -0.1121
15130W        W15994  10.382   8.654   4.966  0.1542 -0.1633  0.0445
15131W        W15995   8.189   8.167   1.417  0.1886  0.1624  0.3560
15132W        W15996  11.100  12.917   2.178 -0.1884 -0.1057  0.1852
15133W        W15997  11.311   7.549   3.977  0.2690  0.4767  0.0136
15134W        W15998   9.956   9.892   1.376 -0.0409 -0.1070  0.0558
15135W        W15999   6.320  10.875   4.542 -0.0316 -0.1652 -0.1333
15136W        W16000  10.032  12.417  13.418 -0.0453 -0.1983 -0.1101
15137W        W16001   7.364   8.847  13.695  0.0180  0.1848  0.0339
15138W        W16002  10.390   7.400   4.481 -0.3457  0.0213 -0.1237
15139W        W16003   8.825  10.187   0.682 -0.3021 -0.3692 -0.0143
15140W        W16004  13.837   9.673   1.444  0.0291  0.1431 -0.3915
15141W        W16005  12.900  11.859   1.992  0.3082 -0.0458  0.0681
15142W        W16006   9.638   8.945   3.038 -0.2670 -0.0823  0.0939
15143W        W16007   9.931  11.370   2.052 -0.0091  0.0408  0.0706
15144W        W16008   9.404   6.285   2.431 -0.0006  0.1513  0.0884
15145W        W16009   5.920   6.476   3.456 -0.1703 -0.4737 -0.1269
15146W        W16010   9.632   9.974   1.821  0.1148 -0.3791  0.1059
15147W        W16011  11.080   7.786   3.342  0.0170 -0.1830 -0.0630
15148W        W16012   7.759   8.380   1.330  0.2096 -0.2089  0.0991
15149W        W16013   7.271  10.122   1.186  0.0182  0.1492 -0.0745
15150W        W16014   8.245   6.227   3.589 -0.0916 -0.0950 -0.0020
15151W        W16015   9.316   8.623   4.703  0.0158  0.0680  0.1378
15152W        W16016  10.477   6.340   4.401 -0.4518 -0.2166  0.1106
15153W        W16017   9.817   6.858   1.166 -0.3200  0.1140 -0.0718
15154W        W16018  10.432   7.098   2.322  0.2116  0.1204  0.2156
15155W        W16019   7.677   7.530   2.989  0.2452 -0.0156 -0.0700
15156W        W16020   6.968   9.836   0.872 -0.0022  0.3236 -0.1636
15157W        W16021  11.471  10.142   3.787  0.1492 -0.1681  0.3325
15158W        W16022   5.643   7.204   0.866 -0.0095 -0.2589  0.0328
15159W        W16023  10.671   7.072   4.088 -0.1300  0.2512  0.0133
15160W        W16024  10.629   8.001   0.080  0.0397 -0.0367  0.0222
15161W        W16025   7.700   7.123   2.584  0.0260 -0.0019  0.0271
15162W        W16026   9.422   6.757   4.577 -0.0293  0.2308  0.1008
15163W        W16027   8.813   7.148  12.545 -0.0864 -0.1038  0.0889
15164W        W16028   8.490   7.416   0.986 -0.3134  0.1235  0.0761
15165W        W16029  10.552   7.222   6.166  0.0209  0.0308 -0.4371
15166W        W16030  11.906  11.284   0.538  0.0022  0.0591  0.0988
15167W        W16031   7.551   7.469   0.101 -0.1335 -0.2410 -0.1298
15168W        W16032   8.309   7.196   5.240 -0.4826  0.1848  0.1588
15169W        W16033   7.201   7.865   2.055  0.1153  0.0266 -0.0312
15170W        W16034  10.443   9.295   3.816  0.1807  0.0495  0.0394
15171W        W16035  12.610   6.604   3.322  0.3987 -0.1960  0.1270
15172W        W16036  11.433   6.861   5.238  0.1509 -0.1298 -0.2802
15173W        W16037  12.736  10.653  13.495  0.1417 -0.0843  0.2721
15174W        W16038   9.343   9.495   1.666 -0.0048  0.1809  0.1234
15175W        W16039  11.821  10.180   0.330  0.0799 -0.2822  0.1530
15176W        W16040   7.651   6.817   4.647 -0.2385  0.1019 -0.0657
15177W        W16041   6.900   8.956   2.850  0.3018 -0.0796 -0.0489
15178W        W16042   9.943   7.904   3.798  0.2879  0.1724 -0.0762
15179W        W16043  13.371   8.799   5.247 -0.1468 -0.0855  0.1688
15180W        W16044   7.208   9.474   2.140 -0.1589 -0.0941 -0.0650
15181W        W16045   9.936  13.004   1.612 -0.1171  0.1285 -0.2185
15182W        W16046  10.384   8.547   4.047 -0.1123 -0.0983  0.0635
15183W        W16047   8.040  10.560   2.217  0.1759 -0.0340  0.2030
15184W        W16048   8.481   7.953   7.717 -0.1469  0.0006  0.2184
15185W        W16049  10.828  11.739   1.508  0.1199 -0.1141  0.2771
15186W        W16050  12.301   9.894   2.226  0.2868 -0.1516 -0.1374
15187W        W16051  10.135   5.666   3.966 -0.1976 -0.1374  0.2066
15188W        W16052   6.694  10.345   1.690  0.0995  0.1333  0.1834
15189W        W16053  10.464  12.769   1.600 -0.0692 -0.1439 -0.0793
15190W        W16054  10.658   8.096   3.316 -0.1291 -0.2256  0.0757
15191W        W16055   8.112   7.405   2.687 -0.2796  0.1165 -0.0295
15192W        W16056  11.163   9.878   3.451  0.0892  0.0548  0.3275
15193W        W16057  11.916   9.750   1.584  0.0474 -0.1501 -0.0029
15194W        W16058  10.632   7.522   2.226 -0.3064 -0.1630 -0.2168
15195W        W16059  10.115  11.134   4.768  0.0373 -0.0048 -0.1633
15196W        W16060  10.791  12.442   1.352 -0.2034  0.2889  0.1379
15197W        W16061   8.548  11.193   2.526  0.1290  0.1619  0.0934
15198W        W16062   7.062   9.346   0.663  0.3009  0.0535 -0.3333
15199W        W16063   7.518   8.466   3.326  0.1903 -0.0129  0.2304
15200W        W16064   6.890   8.737  13.864 -0.1492  0.3063 -0.0731
15201W        W16065   9.495   7.314   4.005  0.1563 -0.1991 -0.1659
15202W        W16066  10.134   9.328   2.367  0.0749  0.4177  0.0701
15203W        W16067  10.760   8.997   4.064  0.0563 -0.0970 -0.0421
15204W        W16068   7.581  11.399   2.738 -0.0717 -0.0541 -0.3902
15205W        W16069   8.552   7.708   2.372  0.2448 -0.2593  0.1887
15206W        W16070  10.337   7.489   1.850 -0.0237  0.3926  0.0884
15207W        W16071   7.753   9.573   0.109  0.0684 -0.1584 -0.1489
15208W        W16072  10.757   9.880   1.451  0.1344 -0.2981  0.1464
15209W        W16073  10.490  11.940   3.819 -0.0400 -0.0258 -0.1118
15210W        W16074   8.155   9.741   3.599 -0.1351  0.1666 -0.2563
15211W        W16075   8.054  10.878   1.354  0.2029  0.2102  0.0302
15212W        W16076   9.037  11.196   4.467 -0.2383  0.0907  0.1766
15213W        W16077  11.138   8.790   3.208 -0.0586 -0.0298 -0.1927
15214W        W16078   7.838   7.445   3.458 -0.1433 -0.1932 -0.1022
15215W        W16079   9.008  10.190   2.449  0.2065 -0.1205  0.1947
15216W        W16080   9.982   9.106   1.141  0.0799  0.2247 -0.2881
15217W        W16081   7.727   8.332   4.178  0.0525 -0.2107  0.2352
15218W        W16082   9.649   6.772   5.991 -0.1194 -0.0650  0.0293
15219W        W16083  10.188  11.037   0.489  0.0032  0.4093 -0.3006
15220W        W16084   8.887   9.060   3.657  0.0195  0.0277  0.3627
15221W        W16085   8.749   7.755   2.874  0.0643 -0.0533  0.0271
15222W        W16086   9.582   8.939   4.382 -0.2350  0.1003 -0.1572
15223W        W16087   8.549   9.940   1.218 -0.1231  0.0554 -0.2123
15224W        W16088   8.813   9.638   0.119 -0.1478 -0.1181  0.0342
15225W        W16089   8.165   6.078   1.956  0.0102  0.1195  0.1621
15226W        W16090   9.407   8.703   0.003  0.0609 -0.0223  0.1835
15227W        W16091   9.204  11.963   0.374 -0.1476 -0.0926  0.1733
15228W        W16092  10.460   7.709   3.547  0.1016 -0.0051 -0.1876
15229W        W16093  10.193   7.405   3.230  0.0266  0.0148  0.0070
15230W        W16094   8.979   9.618   2.451  0.0799 -0.0881 -0.1669
15231W        W16095  11.834  13.720   2.744  0.2429  0.5017  0.1316
15232W        W16096   7.870   8.840   3.187 -0.1518 -0.0169 -0.4366
15233W        W16097   8.913   6.244   2.557 -0.1794 -0.1860 -0.0568
15234W        W16098   9.453   9.189   0.808  0.1340  0.0746  0.1061
15235W        W16099  10.319   6.632   1.004  0.2815  0.2467 -0.0686
15236W        W16100   6.173   8.116   2.454  0.3597 -0.2196 -0.0454
15237W        W16101  11.488   7.433   4.433  0.0990  0.2165 -0.3489
15238W        W16102  11.123   7.943   0.023 -0.0324 -0.1016 -0.0287
15239W        W16103  10.898  11.252   0.786  0.0069 -0.0669  0.1477
15240W        W16104   6.324  10.288   1.381  0.0934  0.1493  0.0301
15241W        W16105  11.353   8.820   2.350 -0.1121  0.0406  0.0698
15242W        W16106  12.453   8.153   3.823  0.0426  0.2745 -0.2011
15243W        W16107   9.883   9.382   1.620 -0.0914  0.3223  0.2250
15244W        W16108   6.851   8.556   4.669 -0.3347  0.2695  0.0581
15245W        W16109   8.125  10.042   0.962 -0.2432  0.2461  0.0257
15246W        W16110  11.929   6.844  12.255 -0.1323 -0.2537  0.2130
15247W        W16111   9.020   8.520   2.368  0.0794  0.0342 -0.2309
15248W        W16112  11.442   7.969   0.431 -0.0078 -0.1358 -0.0142
15249W        W16113  13.629   7.733   2.725 -0.2660 -0.0733 -0.2836
15250W        W16114   8.923  10.253   1.260  0.1999  0.5031  0.1592
15251W        W16115  10.167  10.365   1.538  0.1467 -0.0412  0.3038
15252W        W16116  12.599  10.784   3.718 -0.0147 -0.0052 -0.0233
15253W        W16117  10.398   9.378   3.086 -0.1648 -0.0497  0.0290
15254W        W16118  11.640   6.224   6.232  0.1378 -0.0693 -0.0406
15255W        W16119  11.820  10.438   3.227 -0.0871  0.0183 -0.0797
15256W        W16120   8.154  10.490   0.101  0.0677 -0.0675 -0.0332
15257W        W16121  10.789   9.697   1.936  0.0420 -0.1145  0.0150
15258W        W16122   9.208   6.330   4.496  0.0291 -0.2167 -0.1491
15259W        W16123   9.789   8.745   3.502 -0.5104  0.1451  0.2609
15260W        W16124  10.566  10.848   0.908 -0.0853  0.1130  0.0009
15261W        W16125  11.912  10.123  13.659 -0.1027 -0.1189  0.0046
15262W        W16126  11.285  11.906   1.388  0.0222  0.0266 -0.0589
15263W        W16127  10.322   9.453   6.048  0.0274 -0.1430 -0.0177
15264W        W16128   9.568   4.459  13.649  0.1747  0.0718  0.3314
15265W        W16129  12.630  10.169   1.873 -0.0472 -0.0544 -0.0398
15266W        W16130   5.916   8.721   4.069  0.1877 -0.2808 -0.1549
15267W        W16131   8.464   8.330   0.913 -0.1878 -0.0565 -0.1938
15268W        W16132   6.469   7.658   3.724 -0.1094  0.1504  0.0103
15269W        W16133  11.132   9.452   2.257 -0.0395  0.0385 -0.4163
15270W        W16134  10.580  10.500   4.141  0.1031  0.0727 -0.0231
15271W        W16135   6.211  12.440   3.497  0.2335  0.3049  0.1795
15272W        W16136   8.336   8.729   5.554 -0.1716  0.1141  0.0119
15273W        W16137   9.129   5.688   0.985  0.0252  0.0941  0.1217
15274W        W16138  10.762   8.922   5.351  0.0656  0.1243 -0.0455
15275W        W16139  11.834   9.049   1.584  0.3243 -0.1422 -0.0669
15276W        W16140   9.065   6.717   3.578  0.0960  0.1629  0.2096
15277W        W16141   7.637  10.004   2.735  0.0475 -0.2296 -0.1960
15278W        W16142  11.305  10.933   2.447  0.0110 -0.2198  0.0407
15279W        W16143   5.771   8.922   1.821 -0.0588 -0.1695  0.1114
15280W        W16144   9.494   8.328   1.861  0.2497  0.1576  0.1061
15281W        W16145   7.394   8.182   2.936  0.0011 -0.3546  0.0950
15282W        W16146   9.045   9.388   1.134 -0.0135  0.3264  0.2178
15283W        W16147  10.010   7.879   1.836  0.0469 -0.0852 -0.1318
15284W        W16148   9.902  10.365   0.735 -0.3436  0.1491  0.0712
15285W        W16149   8.431   9.235   0.476  0.0204  0.3160 -0.0882
15286W        W16150   7.392   6.543   1.131 -0.0571 -0.1550  0.1104
15287W        W16151  10.147   6.880   3.810 -0.0121  0.2568 -0.2743
15288W        W16152  13.422   7.058   1.366 -0.0897  0.1995 -0.1445
15289W        W16153  12.938   9.706   3.033  0.0485  0.0584 -0.0178
15290W        W16154  10.100  11.307   2.537  0.0126 -0.0741 -0.1055
15291W        W16155  10.126   5.986   4.392 -0.2603  0.2500  0.2321
15292W        W16156  10.055   9.516   4.705 -0.0971  0.2046  0.0276
15293W        W16157  10.066  10.397   3.882  0.2346 -0.1650  0.1471
15294W        W16158  10.670  12.246   0.934 -0.1148  0.1370  0.2796
15295W        W16159  12.324   9.848   1.246 -0.1765  0.0515 -0.2730
15296W        W16160  11.341   6.479   1.242  0.1430  0.0504  0.0408
15297W        W16161  10.380  10.293   2.439 -0.1697 -0.1506 -0.3610
15298W        W16162   8.091   8.038   4.052 -0.2839 -0.4458 -0.1061
15299W        W16163   9.394   5.472   0.549 -0.0250  0.1631  0.3533
15300W        W16164   8.735  11.628   1.572 -0.0631  0.0547 -0.2890
15301W        W16165  10.942  11.093   3.419 -0.1640 -0.2663  0.0893
15302W        W16166   6.073   9.038   1.466  0.1976 -0.0173 -0.0728
15303W        W16167  10.083   8.386   2.531  0.1162 -0.1160 -0.0117
15304W        W16168  10.734   5.854   0.769  0.2682  0.0428  0.1349
15305W        W16169  10.859   9.471   2.699 -0.0432  0.3285  0.3333
15306W        W16170   7.996   6.112   0.426 -0.0371 -0.1172 -0.0344
15307W        W16171  11.980   8.370   3.241  0.0100 -0.0667 -0.0111
15308W        W16172   8.658   8.634   0.500 -0.1100 -0.1848  0.1288
15309W        W16173   8.165   8.543   4.036 -0.1324  0.0490  0.0931
15310W        W16174   9.488   7.740   2.038 -0.1548  0.4550  0.2553
15311W        W16175   9.403   8.959   2.560  0.0430 -0.1279  0.0721
15312W        W16176  10.174   7.160   1.419 -0.3961 -0.0208  0.0384
15313W        W16177   7.528   9.506   0.530 -0.0886 -0.0547 -0.0891
15314W        W16178  10.862   8.120   5.713  0.2217  0.2325 -0.0494
15315W        W16179   7.569   6.939   3.498 -0.2121  0.0283  0.2313
15316W        W16180   9.423   7.355   0.830 -0.3674 -0.0294  0.0818
15317W        W16181   8.232   8.763   0.218  0.0152  0.0140  0.2430
15318W        W16182   7.769   7.896   5.197  0.2542 -0.1402  0.0189
15319W        W16183   8.862   9.458   2.941  0.0038 -0.1316  0.1384
15320W        W16184  12.771   7.496   3.300 -0.1290  0.0321  0.1181
15321W        W16185   9.549   9.889   0.840 -0.2350  0.1258 -0.1448
15322W        W16186  11.425   9.675   0.374  0.1380  0.1182  0.2187
15323W        W16187   6.911  11.157   1.697 -0.2739 -0.1831  0.0647
15324W        W16188  13.219   9.516   2.695 -0.0646  0.1576  0.0324
15325W        W16189   6.849   5.686   1.367 -0.2843 -0.3506 -0.1910
15326W        W16190  11.667   8.152  13.901 -0.2135 -0.3011 -0.0190
15327W        W16191   6.883   9.245   1.765  0.0140 -0.1022 -0.1682
15328W        W16192  12.998   8.956   0.342 -0.0399  0.0252 -0.2224
15329W        W16193  10.952  11.254   2.230  0.1934  0.1411 -0.1448
15330W        W16194  13.508   8.430   3.109  0.4733  0.4609  0.4423
15331W        W16195  10.804  10.376   0.828  0.2845  0.2280 -0.0016
15332W        W16196   5.844   7.722   4.392  0.2716 -0.0995  0.0377
15333W        W16197  10.146   8.324   3.606 -0.2694  0.1301 -0.0363
15334W        W16198  12.540  11.609   3.240  0.0182  0.1335  0.0260
15335W        W16199  11.995   6.390  13.688  0.1613 -0.3527  0.0497
15336W        W16200   6.739   7.042   4.076 -0.1933  0.0955  0.1066
15337W        W16201   8.874   7.621   1.913 -0.0479  0.0982  0.0962
15338W        W16202   7.552   8.766   1.998 -0.0363 -0.2470 -0.1106
15339W        W16203   9.589   6.916   3.594  0.3725 -0.1314  0.0780
15340W        W16204   7.419   8.360   0.610  0.2643 -0.2503  0.0478
15341W        W16205  11.137   8.882   4.895  0.1545  0.1269 -0.1599
15342W        W16206   9.393  10.818   2.348  0.0990 -0.3521 -0.1367
15343W        W16207   7.971   9.986   4.797 -0.2999 -0.0441  0.2375
15344W        W16208   7.973   8.424   1.895 -0.2053 -0.2836 -0.3023
15345W        W16209  10.521   8.457   5.421  0.0019  0.0915 -0.3909
15346W        W16210  11.621  10.549   4.799  0.4116  0.2533  0.0317
15347W        W16211   6.930   7.980   0.035  0.0268  0.0706  0.5438
15348W        W16212  11.611  11.226   1.627  0.0639  0.0705  0.1080
15349W        W16213   8.380  10.656   3.881  0.0097  0.1863 -0.2302
15350W        W16214   5.959   9.950   2.143  0.1162  0.2510  0.3699
15351W        W16215   8.127   9.236   4.021  0.0701  0.2051 -0.2744
15352W        W16216   7.650  11.327   2.180 -0.2945 -0.0320 -0.0830
15353W        W16217   9.802   7.383   1.810  0.0687 -0.1874  0.0348
15354W        W16218   8.792   8.883   1.163  0.0407  0.0674  0.1893
15355W        W16219   8.370   8.918  13.645  0.1224  0.1126  0.2969
15356W        W16220   6.441  10.225   6.783  0.0365 -0.0370  0.0720
15357W        W16221   7.489   9.234   6.442  0.1006 -0.3259 -0.1022
15358W        W16222  11.009   9.168   5.748 -0.1065 -0.2636  0.0502
15359W        W16223  11.522  11.193   9.005  0.0845  0.2940 -0.0115
15360W        W16224   8.181  10.985   5.409 -0.2650 -0.0221 -0.3003
15361W        W16225   9.030   9.413   4.046 -0.2388  0.0074  0.3467
15362W        W16226   6.175   7.244   2.797  0.0562  0.0991  0.0420
15363W        W16227   8.356   8.665   3.090  0.0690 -0.0438 -0.1406
15364W        W16228  11.998   9.399   8.832  0.0143  0.0123 -0.1644
15365W        W16229   7.348   7.179   6.482 -0.1627 -0.0500 -0.3511
15366W        W16230   9.053   5.065   7.054  0.0420  0.0906  0.2136
15367W        W16231   9.998   7.359   5.715  0.4080 -0.0660 -0.1426
15368W        W16232   8.934   7.415   6.904 -0.4420  0.0434  0.1409
15369W        W16233   9.763   6.970   7.008  0.0123  0.0451 -0.0135
15370W        W16234   7.125   8.830   6.223  0.0246  0.0714  0.6765
15371W        W16235   9.021  11.207   9.268  0.0573 -0.0230  0.1394
15372W        W16236  10.322   9.722   4.207 -0.4307 -0.0849  0.0043
15373W        W16237   5.964   7.222   6.617 -0.2727  0.2508  0.1329
15374W        W16238   9.079   7.547   8.919 -0.0630 -0.0246 -0.4016
15375W        W16239   9.562   8.457   7.467  0.0669  0.1619 -0.2392
15376W        W16240  11.004   6.035   7.600  0.0382  0.1434  0.0008
15377W        W16241  11.312  11.201   3.842  0.0236 -0.2425 -0.0845
15378W        W16242   9.807  10.966   6.233 -0.3683 -0.2164  0.1415
15379W        W16243   6.769   9.446   5.012 -0.1950  0.0816  0.0069
15380W        W16244   5.487   8.894   4.597  0.1617  0.1167  0.0131
15381W        W16245   7.527   8.899   7.236  0.1216 -0.1877 -0.1029
15382W        W16246  12.649  13.056   5.743 -0.0550 -0.0338  0.0421
15383W        W16247   7.708   9.916   8.539 -0.1477 -0.1001  0.1256
15384W        W16248   9.258   9.977   4.690  0.2122  0.0123 -0.0350
15385W        W16249   9.688   7.885   4.809  0.0945  0.1415 -0.3074
15386W        W16250   8.007   6.651   6.529 -0.1594 -0.0880 -0.1139
15387W        W16251   9.260  10.065  10.856  0.0147  0.2918 -0.1876
15388W        W16252   9.619   8.438  10.076  0.1377 -0.2476  0.3756
15389W        W16253   8.560   8.619   7.279 -0.0679 -0.1841  0.0858
15390W        W16254   7.813   6.014   7.782  0.2614  0.1256 -0.3186
15391W        W16255  10.192   9.998   8.542  0.0433 -0.0292 -0.0344
15392W        W16256   8.468   8.093   5.459  0.1251 -0.3165  0.0155
15393W        W16257  10.628   8.620   6.416  0.1645 -0.0156 -0.0801
15394W        W16258  12.330  13.292   5.451 -0.4986  0.0626  0.0205
15395W        W16259  12.150   7.719   7.576  0.1104 -0.0320 -0.0749
15396W        W16260  12.960   7.503   3.915  0.0130  0.0553  0.0284
15397W        W16261  13.837  10.662   7.941 -0.2003 -0.0092  0.0420
15398W        W16262  10.862   9.604   4.753  0.1321  0.1763 -0.0723
15399W        W16263   9.342  11.531   4.681  0.0127 -0.0320  0.5393
15400W        W16264   8.893  10.286   4.032 -0.0469  0.2715 -0.2216
15401W        W16265  10.071  11.622   5.060  0.2200  0.1460  0.0161
15402W        W16266  12.155   9.106   7.390  0.2336  0.0317 -0.0116
15403W        W16267  11.256   8.161   7.666  0.2748 -0.0118  0.1018
15404W        W16268  12.800   7.741   4.982  0.3908 -0.0593 -0.0774
15405W        W16269   8.884   9.744   4.440 -0.0346 -0.0801 -0.0718
15406W        W16270  10.510  10.658   7.653  0.0373 -0.1562 -0.1828
15407W        W16271  10.115   8.156   4.250  0.0701 -0.1949  0.0199
15408W        W16272   9.085   9.829   1.972 -0.3682 -0.1816  0.0333
15409W        W16273  10.169   9.115   4.991 -0.2054  0.1039 -0.4383
15410W        W16274  10.190   7.836   4.627 -0.2074  0.0051 -0.1622
15411W        W16275   7.086   9.280   8.392 -0.2201  0.1080 -0.0850
15412W        W16276   7.070   7.029   3.756  0.2918  0.1566  0.0256
15413W        W16277  10.439   9.803   5.586  0.4218 -0.2557  0.2086
15414W        W16278  10.372  10.493   7.184 -0.1819 -0.0513  0.0192
15415W        W16279  10.606   8.766   1.823  0.3777 -0.1687 -0.0513
15416W        W16280  11.677   9.277   3.208  0.0528  0.0474  0.1143
15417W        W16281   6.905   9.662   7.432 -0.2417 -0.2281 -0.0563
15418W        W16282   7.867   4.602   7.069 -0.4320  0.1270  0.0579
15419W        W16283   9.329   9.513   6.234  0.0416  0.2414  0.2765
15420W        W16284  10.143  10.205   4.349 -0.1209 -0.1431 -0.3383
15421W        W16285  12.953   8.146   6.559 -0.2090 -0.0632  0.1857
15422W        W16286   9.124   8.958   2.995 -0.1357 -0.0509  0.0319
15423W        W16287   6.892   8.984   4.354 -0.3810 -0.0148 -0.1784
15424W        W16288   8.514  10.018   6.728  0.1277  0.0863  0.1337
15425W        W16289   7.621   9.924   5.170  0.1626 -0.1497 -0.1221
15426W        W16290   8.444  10.344   9.509  0.1905 -0.0966 -0.0917
15427W        W16291  11.528   8.298  13.377 -0.0323  0.1060 -0.0663
15428W        W16292   9.735  11.205   6.728 -0.4137 -0.0894  0.0220
15429W        W16293   9.579   7.816   8.211 -0.1556  0.0386 -0.3616
15430W        W16294  10.832  11.572   5.727  0.0084  0.1320 -0.1170
15431W        W16295  10.103   9.297   9.516  0.1419 -0.3019  0.1453
15432W        W16296   9.380   7.777   5.650 -0.1411 -0.1972 -0.3913
15433W        W16297   9.259   9.577   8.462  0.0947 -0.0189  0.3155
15434W        W16298   9.585   8.166   3.551  0.0810 -0.1359 -0.1201
15435W        W16299   9.188  10.473   6.083  0.0478  0.0314 -0.0451
15436W        W16300   6.814   7.943   5.079  0.0849 -0.0422 -0.2644
15437W        W16301   6.398   6.031   6.688  0.1106 -0.1930 -0.0936
15438W        W16302   4.154   7.959   3.641  0.1069  0.0629  0.0514
15439W        W16303   8.749   9.914   8.808 -0.0789 -0.1905  0.0502
15440W        W16304  11.576   6.831   8.108  0.0645  0.4257 -0.3075
15441W        W16305   9.723   6.429   3.676 -0.2296 -0.0754  0.0759
15442W        W16306  11.112  10.129   8.775  0.1565  0.2930  0.0598
15443W        W16307   8.918   7.406   4.797  0.0474  0.0221  0.1485
15444W        W16308  12.740  12.000   5.815 -0.2274 -0.2301 -0.2688
15445W        W16309  11.474   9.158   7.582  0.1608 -0.0352 -0.2308
15446W        W16310  11.780   7.241   4.891  0.0045  0.1663 -0.1632
15447W        W16311  12.539  11.687   8.303 -0.0422 -0.3253  0.3777
15448W        W16312   8.969   6.728   7.509  0.2241 -0.1769  0.0047
15449W        W16313   8.967   7.956   5.516  0.0280  0.0438  0.1468
15450W        W16314  10.873   5.473   6.514  0.1167  0.0270 -0.0079
15451W        W16315   9.105   5.422   5.260 -0.0417  0.3209 -0.1062
15452W        W16316  12.210   7.685   5.814 -0.0850  0.0818  0.1029
15453W        W16317   9.324   8.513   4.182  0.0946  0.0363  0.1524
15454W        W16318   9.805   9.313   6.071  0.2141 -0.2027  0.2303
15455W        W16319  10.803  12.560   4.907  0.1558 -0.3122 -0.4899
15456W        W16320   8.138   8.628   6.259  0.0999  0.2600  0.0411
15457W        W16321  11.609   8.831   3.030 -0.1099  0.1307  0.0252
15458W        W16322  11.891  10.964   7.172  0.1131  0.0406 -0.0599
15459W        W16323  11.679  10.366   7.132  0.0576 -0.0192 -0.0011
15460W        W16324  11.369   9.272   9.003 -0.0525 -0.0609  0.1058
15461W        W16325   9.704   9.871   4.590 -0.0329 -0.2645 -0.3073
15462W        W16326  10.337   9.397   7.966  0.0735 -0.0390  0.1720
15463W        W16327   8.431   7.318   7.537  0.3735 -0.0934  0.2323
15464W        W16328   7.145   8.502   7.700  0.0365 -0.0370 -0.1006
15465W        W16329   5.997   6.313   6.771  0.1035 -0.4124 -0.0914
15466W        W16330  11.865   9.130   6.110  0.2508 -0.1714 -0.1026
15467W        W16331  13.141   9.227   6.696  0.3452  0.2904  0.1202
15468W        W16332   8.073  11.008   5.913  0.0462 -0.0463 -0.0495
15469W        W16333  13.343  10.154   4.088 -0.0365 -0.0032 -0.0797
15470W        W16334  11.483   9.269   4.729  0.0445  0.1581  0.2014
15471W        W16335  10.408   8.344   9.417  0.0107  0.3727 -0.1258
15472W        W16336  10.555  11.055   7.268 -0.0829 -0.0092  0.0483
15473W        W16337   9.280   9.375   4.494 -0.0204  0.1542  0.2169
15474W        W16338   9.601   8.372   5.010  0.0961  0.0340 -0.3513
15475W        W16339  12.662   8.706   3.916  0.2495 -0.0295 -0.0173
15476W        W16340   8.580  12.359   6.094 -0.3094 -0.2151 -0.0407
15477W        W16341  10.141   9.253   4.290 -0.2407 -0.0616 -0.0435
15478W        W16342  10.665  10.256   2.895  0.3275 -0.2403 -0.0414
15479W        W16343  10.480   7.962   5.481  0.2190  0.0708  0.2527
15480W        W16344  10.832   9.082   2.989 -0.0432 -0.1860  0.2339
15481W        W16345   9.692   7.015   5.131  0.0570 -0.2793 -0.0026
15482W        W16346  10.957  10.529   7.394 -0.3664 -0.0429  0.1985
15483W        W16347  10.590  10.352   6.337 -0.0889  0.2286  0.1057
15484W        W16348   8.187   7.108   4.657 -0.0560 -0.2790  0.2685
15485W        W16349  11.567  10.666   6.778 -0.0388  0.2534  0.0770
15486W        W16350  12.711   8.686   7.636 -0.2455 -0.1340  0.0804
15487W        W16351   9.940   9.307   5.557 -0.2784  0.0153 -0.0394
15488W        W16352  11.520   7.941   6.036 -0.1866  0.2234 -0.2779
15489W        W16353  10.410   7.693   5.944  0.2027 -0.0505 -0.0835
15490W        W16354   9.321  10.046   8.782  0.0762 -0.1257 -0.0047
15491W        W16355  11.663   9.346   4.146 -0.0316  0.1429 -0.3438
15492W        W16356  12.553  11.913   6.350  0.0718  0.3278 -0.0708
15493W        W16357   9.852   7.994   5.674 -0.0939  0.0311 -0.4053
15494W        W16358   8.867  12.020   5.873  0.0990  0.2326  0.1953
15495W        W16359   8.190   8.003   3.371  0.0787 -0.2434  0.0679
15496W        W16360   7.714   7.621   5.765 -0.0914  0.2393  0.3393
15497W        W16361   6.909  10.072   4.775  0.1837 -0.3569 -0.0151
15498W        W16362   6.438   5.246   4.495 -0.0299 -0.3922  0.1552
15499W        W16363   9.999   8.744   4.581  0.1003 -0.0269  0.0488
15500W        W16364  12.154   6.208   5.587  0.0414 -0.2696 -0.0838
15501W        W16365   9.070   6.971   4.888  0.0670 -0.2691 -0.1452
15502W        W16366   9.430  10.688   5.439 -0.0181  0.0863  0.1906
15503W        W16367   9.926   8.674   8.221 -0.0317  0.3539 -0.1745
15504W        W16368   9.403   8.255   6.901  0.1279 -0.1801  0.0838
15505W        W16369  12.298  10.867   7.889 -0.1168  0.3269 -0.2629
15506W        W16370  10.778   5.816   4.758 -0.1898  0.1010  0.1495
15507W        W16371  10.030   9.165   3.389 -0.0539  0.1156  0.0656
15508W        W16372   8.477   7.417   5.752 -0.1336 -0.1293  0.0492
15509W        W16373  12.088  10.635   6.276  0.0270 -0.1055 -0.2517
15510W        W16374  13.094  10.744   6.054  0.1133 -0.1937 -0.4128
15511W        W16375   6.405   7.308   5.443 -0.2330  0.0176 -0.1015
15512W        W16376   6.486   9.375   2.607 -0.1054  0.1094  0.2635
15513W        W16377   7.800   7.036   3.094  0.0055 -0.1303  0.0392
15514W        W16378   8.513   9.250   5.079 -0.2832  0.0414 -0.0687
15515W        W16379  13.220   8.458   7.707  0.0803  0.0217  0.2323
15516W        W16380   9.174   7.150   8.631  0.0862  0.0271 -0.0612
15517W        W16381  11.107  11.786  11.091  0.2288 -0.0523  0.0746
15518W        W16382   9.356   8.852   7.160  0.3988 -0.0853  0.1591
15519W        W16383   9.398   6.289   6.906 -0.0827 -0.1396 -0.0398
15520W        W16384   8.757   9.266   4.580 -0.2322 -0.0386  0.1370
15521W        W16385   7.480   7.188   5.564  0.0391 -0.3043 -0.0913
15522W        W16386   8.586   9.166   4.094  0.0639  0.1226 -0.4575
15523W        W16387   8.159   8.731   8.719  0.4398  0.1882  0.2786
15524W        W16388   9.031   9.936   6.001 -0.0294  0.0534  0.2780
15525W        W16389  11.668  10.809   5.790  0.0482  0.1457  0.1917
15526W        W16390  10.850  10.583   5.886  0.2563 -0.1006 -0.0535
15527W        W16391  12.742   9.295   6.175  0.3141 -0.1287 -0.2290
15528W        W16392   8.095  10.070   5.252  0.1512 -0.1524  0.0633
15529W        W16393  10.219   7.248   8.472  0.1911  0.2345 -0.0231
15530W        W16394  10.353   6.066   5.897 -0.0329 -0.1984 -0.0853
15531W        W16395   8.507  10.415   7.057 -0.3003  0.1099 -0.2234
15532W        W16396   7.233   8.026   7.045 -0.0151  0.0415 -0.0618
15533W        W16397   5.454  12.083   5.808 -0.0724  0.0378 -0.2315
15534W        W16398   7.808   8.591   5.701  0.2730  0.0519  0.0278
15535W        W16399   7.773  11.122   3.218  0.0870 -0.1184 -0.3068
15536W        W16400   7.701   8.712   3.757 -0.1519  0.3011 -0.5566
15537W        W16401   8.192   9.646   2.115 -0.3250  0.1623  0.2019
15538W        W16402   8.633   8.754   5.975  0.1358  0.1067  0.1523
15539W        W16403   8.347  10.710   7.434 -0.0794  0.3518  0.1422
15540W        W16404  13.820   9.046   4.452  0.0770  0.2036  0.1660
15541W        W16405   9.689   8.326   4.458  0.3096 -0.3258  0.1044
15542W        W16406   9.215   8.762   5.258  0.0679 -0.3778  0.0964
15543W        W16407   8.998   9.120   6.140  0.1868 -0.0436  0.1180
15544W        W16408  11.088   8.753   3.744 -0.0222  0.3767  0.1621
15545W        W16409   7.654   8.927   6.095  0.3117  0.0749  0.3988
15546W        W16410   8.311   5.919   7.812 -0.1761  0.2156 -0.0562
15547W        W16411   8.749   9.229   8.903 -0.2856 -0.2479 -0.1561
15548W        W16412   9.771   9.386   7.125 -0.0997 -0.0544  0.2896
15549W        W16413  10.873   9.523   6.833 -0.3529 -0.0957 -0.1792
15550W        W16414   9.125   8.109   6.032 -0.3145  0.3884  0.0692
15551W        W16415   8.222   3.173   3.008 -0.1982  0.1503 -0.2369
15552W        W16416   6.048   6.091   4.783  0.2033  0.1675 -0.0106
15553W        W16417   8.064   9.170   8.171  0.1366 -0.0744  0.0926
15554W        W16418   7.688   9.584   2.380 -0.0269 -0.2586 -0.2721
15555W        W16419   8.622   8.715   8.705  0.0016 -0.2335  0.2892
15556W        W16420  12.774  10.997   8.116 -0.0413  0.2019  0.2425
15557W        W16421   8.030   8.388   5.250 -0.2781  0.0479 -0.0701
15558W        W16422  12.297  10.352   7.796 -0.1016  0.1428  0.1435
15559W        W16423   8.440   6.449   2.487 -0.1762  0.1468  0.1262
15560W        W16424   8.092   8.410   7.151  0.2618 -0.1069  0.0868
15561W        W16425   9.706   8.614   5.566 -0.0708 -0.1352 -0.1678
15562W        W16426  11.540  10.891   5.230  0.1484 -0.2353 -0.0402
15563W        W16427   4.476   9.528   4.671 -0.0113  0.1170  0.2090
15564W        W16428   9.374  11.457   9.722  0.1056  0.1905 -0.0989
15565W        W16429   9.522   9.980   7.110 -0.2661 -0.0139  0.1087
15566W        W16430   7.906   9.189   8.629  0.0172 -0.0676  0.0792
15567W        W16431   9.120   7.611   8.347 -0.0087  0.0280  0.1594
15568W        W16432  11.143   7.751   7.917  0.0047  0.0990 -0.2498
15569W        W16433  11.320  10.443   5.913  0.0208 -0.1753 -0.0847
15570W        W16434  12.792  10.248   3.099  0.2752  0.0457  0.1213
15571W        W16435   9.782  10.734   4.810  0.1403 -0.0886 -0.0323
15572W        W16436  10.071  10.877   6.953  0.0176  0.4611  0.1232
15573W        W16437   7.975   6.556   7.086 -0.0071 -0.1574  0.3048
15574W        W16438  10.320  11.310   6.880 -0.4338 -0.1736  0.2818
15575W        W16439  10.071  10.207   6.661  0.4557  0.0377 -0.3799
15576W        W16440   7.756   9.114   9.140  0.1221 -0.1145  0.2805
15577W        W16441   9.673   9.458   4.164  0.0152 -0.1435 -0.0786
15578W        W16442  10.735   0.952   5.716 -0.0851 -0.4180  0.1580
15579W        W16443   6.515   7.650   7.106  0.0283 -0.0972  0.1118
15580W        W16444  12.253   7.905   9.608  0.1970  0.1870 -0.0012
15581W        W16445  11.222   8.793   6.960  0.0363  0.1501 -0.0266
15582W        W16446  11.298  10.497   5.410  0.0444 -0.2639  0.2420
15583W        W16447  10.658  11.359   4.351 -0.1830 -0.0025 -0.0914
15584W        W16448  12.055   6.040   8.411  0.0791  0.1213  0.3620
15585W        W16449   7.242   7.561   6.752 -0.1058 -0.1578 -0.0184
15586W        W16450   9.376   9.023   3.956 -0.2840 -0.2807  0.2904
15587W        W16451  12.180   9.999   5.360  0.0536  0.2138  0.0316
15588W        W16452   8.559  10.480   4.402  0.0692 -0.0092  0.0258
15589W        W16453  10.397   9.893   4.710  0.0506  0.2632 -0.2049
15590W        W16454  11.312   9.280   6.108  0.1973 -0.0417  0.1980
15591W        W16455  10.847   8.436   9.154 -0.0679 -0.1541 -0.1727
15592W        W16456   9.176  10.177   7.465 -0.3649 -0.0238 -0.0737
15593W        W16457  10.957   8.716   4.419 -0.2354 -0.0177 -0.0011
15594W        W16458   8.719  10.279   3.475 -0.0382  0.2618  0.0372
15595W        W16459   9.321  10.035   7.929 -0.0132 -0.1609  0.1257
15596W        W16460   8.015   7.773   8.033  0.1187 -0.3001 -0.1630
15597W        W16461   5.553   5.889   7.189  0.3241  0.0902  0.1603
15598W        W16462   7.611   8.442   6.952 -0.3217  0.1163 -0.0430
15599W        W16463   8.861   7.002   3.991  0.0562  0.0775  0.3516
15600W        W16464  11.816   7.639   6.768 -0.0661  0.0880  0.1667
15601W        W16465   6.884   8.442   4.139 -0.3748  0.1975  0.0644
15602W        W16466   7.820  11.058   4.037 -0.2092  0.4115  0.1862
15603W        W16467  12.724   8.748   4.714 -0.0047 -0.0671  0.2000
15604W        W16468   7.634   7.897   8.375  0.0402  0.0148 -0.3185
15605W        W16469  10.468   9.786   2.700  0.3815  0.2638  0.0761
15606W        W16470   9.220  10.214   5.576  0.0829 -0.0543 -0.1034
15607W        W16471  10.768   8.687   5.808 -0.0444 -0.0981 -0.1811
15608W        W16472   9.116   8.123   2.670  0.2499  0.0789 -0.5055
15609W        W16473   8.760  11.530   7.062  0.3217 -0.0503 -0.0333
15610W        W16474  10.864   7.505   3.808  0.0176 -0.2913 -0.3318
15611W        W16475   7.509   6.757   7.891 -0.0775 -0.1298  0.0014
15612W        W16476  10.647   9.376   4.355 -0.2968  0.1745 -0.2660
15613W        W16477   6.435   9.235   4.674 -0.1394 -0.2793  0.0860
15614W        W16478   8.082   9.046   5.833  0.4738  0.1418  0.0238
15615W        W16479  10.659  10.388   8.021  0.0820  0.0934  0.0007
15616W        W16480   6.716   7.363   8.339  0.1497  0.0240 -0.0768
15617W        W16481   8.712   9.238   6.707 -0.0319 -0.2800  0.0757
15618W        W16482   8.870  10.266   9.230  0.1372  0.1501 -0.0972
15619W        W16483   6.647   9.032   3.316  0.1431  0.1713 -0.3335
15620W        W16484   9.201  10.977   6.388 -0.1500 -0.2002 -0.1450
15621W        W16485   8.542  11.700   6.151  0.1090 -0.2274  0.0659
15622W        W16486  11.628  11.233   6.044  0.3134  0.0708 -0.0394
15623W        W16487   9.561   7.989   3.000 -0.0734  0.1339 -0.2182
15624W        W16488  10.094   9.024   6.432 -0.1624  0.3235  0.3113
15625W        W16489  10.031   8.050   6.181 -0.0580 -0.2006 -0.0732
15626W        W16490   5.960   7.774   7.677  0.1389  0.4069  0.0343
15627W        W16491  12.044   8.658   7.594  0.0844 -0.3388  0.1335
15628W        W16492  10.784  11.362   8.574  0.4414  0.0843 -0.0704
15629W        W16493   7.586   8.030   6.647 -0.3671  0.0261  0.1491
15630W        W16494   9.950   7.895   3.279  0.2290  0.1525  0.3878
15631W        W16495   9.908  10.601   5.317  0.4695 -0.0213 -0.1836
15632W        W16496  10.889  10.670   1.764 -0.0605  0.3534 -0.2783
15633W        W16497  10.443   6.979   3.120 -0.3647  0.0848 -0.2560
15634W        W16498   8.832   6.598   4.295  0.1614  0.0513 -0.1705
15635W        W16499   6.600   7.031   8.739  0.0279 -0.0877  0.1295
15636W        W16500  12.934   8.532   4.312 -0.3227 -0.3882  0.1007
15637W        W16501  11.243   9.807   9.836 -0.1568  0.0333 -0.0348
15638W        W16502   8.874  10.339   4.808 -0.1324 -0.0417  0.1949
15639W        W16503   6.446   7.138   7.982  0.3094  0.1525 -0.2559
15640W        W16504  12.109   8.160   5.261 -0.1767 -0.0003 -0.0046
15641W        W16505  10.234  10.621   4.596  0.3732 -0.3568  0.1605
15642W        W16506   7.713   8.550   4.927  0.0791 -0.1355  0.2360
15643W        W16507   8.525  10.111   6.214  0.2506 -0.0203  0.3545
15644W        W16508   9.128   5.676   7.632  0.4549  0.1118  0.0225
15645W        W16509   5.471   7.696   5.285 -0.0884  0.2381 -0.1752
15646W        W16510   8.755  10.289   5.778 -0.0953  0.0232 -0.2944
15647W        W16511  13.173   8.599   6.124  0.0213  0.0805 -0.2968
15648W        W16512  11.486   5.243   9.325 -0.2591 -0.2043 -0.2542
15649W        W16513  12.198   9.398   6.797 -0.1030 -0.1120  0.2479
15650W        W16514  13.049  11.137   6.890  0.2006  0.1241 -0.1159
15651W        W16515   5.476  10.804   3.240 -0.3582  0.0680  0.2071
15652W        W16516   8.043   7.895   1.798  0.0322 -0.1230 -0.0176
15653W        W16517   7.474   6.320   7.535  0.5137 -0.1335  0.0076
15654W        W16518   8.184  10.081   8.741 -0.1311  0.0016  0.0639
15655W        W16519  11.521   9.868   7.253 -0.0157  0.0182  0.1059
15656W        W16520  11.948  10.329   6.718  0.1333  0.1458  0.0898
15657W        W16521   7.972   8.725   7.973 -0.0301  0.0917  0.1559
15658W        W16522   8.330  11.571   6.721 -0.2334  0.2723 -0.0723
15659W        W16523   8.754   8.001   5.025 -0.1221  0.2915  0.3482
15660W        W16524   8.513   9.316   7.737  0.1555  0.1479  0.3569
15661W        W16525   3.694   7.012   3.719 -0.2869 -0.0689  0.2710
15662W        W16526  12.891   9.989   4.777 -0.1706 -0.0767  0.1778
15663W        W16527   9.534   5.972   8.594 -0.1961 -0.1774  0.2323
15664W        W16528  11.134   7.882   4.348 -0.1841 -0.0267 -0.2138
15665W        W16529  11.501   8.852   6.273 -0.2099  0.1699 -0.4229
15666W        W16530   8.065   8.549   4.592 -0.3296 -0.2071 -0.1360
15667W        W16531   7.404   9.202   8.789 -0.2914 -0.0784  0.1550
15668W        W16532   9.247   9.797   2.802  0.2709 -0.0354  0.1422
15669W        W16533   9.323   6.800   4.091  0.1445 -0.1208  0.1291
15670W        W16534  12.101   9.323   8.282  0.2800  0.3829  0.1237
15671W        W16535   9.393   9.552   4.984  0.2870 -0.0440  0.0941
15672W        W16536   9.645  10.725   6.687 -0.2571  0.2927  0.0273
15673W        W16537  11.889  10.914   3.171  0.0404 -0.0215 -0.1123
15674W        W16538   6.605   9.106   5.861  0.1674  0.1171 -0.0806
15675W        W16539  10.304   9.489   6.560 -0.0474  0.2275 -0.0335
15676W        W16540   8.748   7.428   4.276 -0.2596  0.0632 -0.2321
15677W        W16541  10.200   9.119   6.929  0.0694  0.1008  0.2396
15678W        W16542   7.027   8.492   2.846  0.3329 -0.2410 -0.0935
15679W        W16543   7.988   6.636   3.736 -0.0327 -0.1121  0.0316
15680W        W16544  11.751   9.456   6.960 -0.4267 -0.3075  0.0088
15681W        W16545   9.020   8.122   3.745 -0.1912  0.0296 -0.3787
15682W        W16546  10.648  10.146   7.466 -0.0995 -0.0694 -0.0813
15683W        W16547  12.615   8.285   4.908 -0.1524 -0.1400  0.0391
15684W        W16548  10.752  11.340   6.458 -0.5187  0.0193  0.0701
15685W        W16549  12.243   9.934   7.523  0.0503 -0.0234 -0.0325
15686W        W16550   7.608  11.093   6.475  0.1533  0.3031  0.1164
15687W        W16551  12.490  11.563   5.978 -0.0373  0.2839  0.2116
15688W        W16552   9.422  12.252   5.520  0.1908 -0.3073 -0.0032
15689W        W16553  11.632   7.971   4.587  0.0019 -0.1180  0.1340
15690W        W16554  12.570  10.679   1.587  0.1503 -0.4914  0.1208
15691W        W16555   9.377   8.247   5.495 -0.2388 -0.0365  0.3745
15692W        W16556   7.764   9.593   6.219 -0.0237  0.1134  0.2237
15693W        W16557   7.407   9.651   5.588  0.0564  0.0575  0.0077
15694W        W16558   8.511   6.789   6.339 -0.3190  0.4043  0.0207
15695W        W16559   9.364   9.784   6.640  0.1017 -0.0663  0.0407
15696W        W16560  11.486   9.056   3.581 -0.0558 -0.3597  0.1403
15697W        W16561   9.010  10.151   6.488  0.0363  0.2770 -0.0600
15698W        W16562   8.804   8.669   3.934  0.0064  0.1660 -0.2187
15699W        W16563  10.134  10.240   6.128 -0.4030 -0.0567 -0.0928
15700W        W16564   8.848   8.623   3.409  0.1078 -0.2650  0.0735
15701W        W16565   3.384   9.213   2.610 -0.2794  0.1038  0.2586
15702W        W16566  10.353   9.215   7.460 -0.0346  0.0824 -0.3819
15703W        W16567  12.456   8.091   6.819  0.1103  0.0129  0.3751
15704W        W16568  11.843   6.533   8.410  0.0376 -0.3620 -0.2270
15705W        W16569   7.542   9.733   6.648  0.0760  0.0801 -0.0986
15706W        W16570   7.148   9.957   4.370 -0.2313 -0.1940  0.2318
15707W        W16571   7.845   4.960   5.805  0.1283 -0.1914  0.0490
15708W        W16572   7.824   9.225   0.962  0.0707  0.0078 -0.1328
15709W        W16573   9.236   6.830   6.299  0.2017  0.4281  0.0302
15710W        W16574   5.083   5.658   9.452  0.3349  0.1226  0.2271
15711W        W16575   8.800   6.659   5.469  0.2209 -0.1685 -0.2714
15712W        W16576  10.195   7.671   6.465 -0.0864  0.3994 -0.0715
15713W        W16577   9.905   9.465   8.976  0.0164  0.3317  0.2148
15714W        W16578   8.437   9.096   7.254  0.1264 -0.0669 -0.0332
15715W        W16579  11.753   7.026   5.741  0.2895 -0.0579 -0.0924
15716W        W16580   8.328   9.969   5.728 -0.0585 -0.0521  0.1143
15717W        W16581  10.815  10.845   6.351 -0.2344 -0.0444 -0.1091
15718W        W16582   8.926  10.840   5.776  0.0604 -0.0092  0.3913
15719W        W16583  11.365   9.802   4.540 -0.0067  0.1221 -0.0771
15720W        W16584   8.442   8.362   4.960 -0.2489  0.0841  0.1778
15721W        W16585  10.032   8.383   5.281 -0.2854  0.0238  0.0810
15722W        W16586  10.210   6.617   2.451 -0.0578  0.0061 -0.2319
15723W        W16587  12.368   9.541   7.303  0.3797  0.0351  0.0328
15724W        W16588   9.555   9.462   3.121 -0.0559 -0.2620 -0.2901
15725W        W16589  12.181  11.970   5.995  0.3172  0.3708 -0.0380
15726W        W16590  10.864   9.574   5.390  0.1590  0.1067 -0.2500
15727W        W16591   8.454   9.807   7.907 -0.0645 -0.1300  0.0615
15728W        W16592   8.037   9.316   7.130 -0.0677 -0.2337 -0.3326
15729W        W16593  11.139  10.486   6.456 -0.2910 -0.1597  0.3142
15730W        W16594  10.189   8.390   5.757  0.0832 -0.1501 -0.1638
15731W        W16595   7.054   6.634   6.360  0.0368 -0.0248  0.0259
15732W        W16596  11.163   9.160   6.633  0.1152 -0.1147  0.1178
15733W        W16597   8.969   7.426   2.385 -0.0424  0.1723  0.0439
15734W        W16598   7.934   7.179   6.569  0.0963  0.1211 -0.0371
15735W        W16599   7.862  12.477   7.689  0.1658 -0.2961  0.0257
15736W        W16600  12.517  13.219   6.712 -0.3215  0.0338 -0.0592
15737W        W16601   9.216   8.088   8.479  0.2103  0.0490 -0.0481
15738W        W16602   9.612  10.621   3.616  0.2054 -0.1160  0.2159
15739W        W16603   9.665   9.193   4.779 -0.0448  0.1044  0.3238
15740W        W16604   8.824   9.817   5.555  0.1516  0.3263 -0.1728
15741W        W16605   9.423  10.259   6.690 -0.0299  0.1761 -0.2888
15742W        W16606  10.260  10.950  10.012 -0.2929  0.0757 -0.0274
15743W        W16607   7.104   9.348   3.606  0.1251  0.0411 -0.0877
15744W        W16608   8.744   9.476   1.965 -0.0200  0.2496  0.2094
15745W        W16609   8.848   6.542   6.053  0.1542  0.0288 -0.1109
15746W        W16610   9.308  10.231   3.795 -0.0892 -0.1247 -0.0551
15747W        W16611   8.660   8.004   5.914  0.0634  0.1654 -0.2361
15748W        W16612   7.905   7.662   2.196 -0.0178 -0.0942 -0.1730
15749W        W16613   7.902   7.273   7.519 -0.1119  0.0417  0.0545
15750W        W16614  11.976  10.116   3.621  0.2178 -0.2051  0.1760
15751W        W16615   6.956   6.613   4.013 -0.1844  0.0441 -0.1982
15752W        W16616   6.823  12.250   0.529  0.1330  0.3277 -0.1658
15753W        W16617   7.605  10.680   9.868  0.1958  0.2267  0.1616
15754W        W16618   7.663  10.846   8.727  0.0481  0.0181  0.3534
15755W        W16619  11.209  13.955  12.495  0.1489  0.2820 -0.2096
15756W        W16620   8.801   9.392   7.296 -0.0302 -0.0584  0.1094
15757W        W16621   9.250   8.381  10.493  0.2603  0.0229  0.0506
15758W        W16622   7.117   9.161   9.318  0.2221  0.4515  0.0380
15759W        W16623   8.994  11.155   8.440  0.0957  0.0808 -0.0776
15760W        W16624   9.602   9.447  12.485 -0.0531  0.0037  0.2112
15761W        W16625   8.329  11.852  10.139 -0.1188 -0.2785  0.0045
15762W        W16626   7.140   4.757   8.972  0.0369  0.3727 -0.2356
15763W        W16627  11.184   8.106   9.259  0.2371 -0.1233  0.0708
15764W        W16628   9.099  10.570  10.909  0.0336  0.0122 -0.3655
15765W        W16629   9.323   7.511  11.697 -0.0886 -0.0458  0.0264
15766W        W16630   5.830   5.256   9.367 -0.0900  0.3766 -0.2393
15767W        W16631   8.259   9.891  11.896 -0.2929  0.4975 -0.0064
15768W        W16632  11.475  10.165   6.632 -0.2370  0.0153 -0.3785
15769W        W16633   7.409   7.908   8.982  0.4599  0.1520 -0.1820
15770W        W16634  10.305  11.480  11.485  0.2971 -0.0877 -0.1305
15771W        W16635   9.547   8.661  10.775 -0.0504  0.1344  0.0870
15772W        W16636  12.714  10.729   9.211 -0.1522  0.0132 -0.0535
15773W        W16637   7.435   8.383   8.301 -0.3154  0.1246 -0.3185
15774W        W16638   9.460  11.499  10.197 -0.0940  0.0774  0.1929
15775W        W16639   9.410   9.118  11.049 -0.0701 -0.1784  0.2112
15776W        W16640   7.991   8.874   7.295 -0.2576  0.0365  0.2062
15777W        W16641  10.647   6.971  10.134 -0.1203 -0.1094  0.2145
15778W        W16642   9.626   8.171  11.074  0.1017 -0.0331  0.1641
15779W        W16643   8.802  10.599  11.808 -0.2439  0.2661  0.2987
15780W        W16644   9.965  11.735  11.152  0.3014 -0.0250  0.0270
15781W        W16645   8.194   7.747  10.578  0.1977  0.0792 -0.0210
15782W        W16646   9.081   9.466  10.860 -0.0091 -0.2660  0.1063
15783W        W16647  10.912   9.487  11.963 -0.0097  0.2019 -0.0110
15784W        W16648  12.437   8.576   9.791  0.1334  0.0327 -0.3324
15785W        W16649   8.266  10.525  10.432 -0.0266  0.0348  0.0944
15786W        W16650   9.590   7.353   9.171 -0.1186  0.2327 -0.0009
15787W        W16651  13.721   9.821  13.395 -0.0819 -0.0732  0.4051
15788W        W16652   5.937   8.097   7.044  0.3074  0.1692 -0.2191
15789W        W16653   9.012  10.278  11.443  0.0801 -0.2372 -0.0396
15790W        W16654  12.443  11.384   7.920  0.0020 -0.2436  0.2149
15791W        W16655   9.871   9.014   9.185  0.0955  0.0344 -0.0182
15792W        W16656   6.068   4.918   6.469 -0.0783 -0.2370 -0.0783
15793W        W16657  10.709   8.615  12.307  0.1618 -0.3267 -0.1991
15794W        W16658   9.450  10.486   9.958 -0.0161 -0.0610  0.0580
15795W        W16659  12.410  11.655   9.566 -0.0397  0.1059 -0.0835
15796W        W16660  10.683   9.246   8.685  0.0325  0.0296 -0.0757
15797W        W16661   8.284   8.095   9.754 -0.0980 -0.2092 -0.3076
15798W        W16662   5.958   7.324   7.931  0.2744 -0.1092  0.0685
15799W        W16663  12.850   8.230   9.842  0.2576  0.4319  0.2811
15800W        W16664  11.994   8.217  10.604  0.0804 -0.0174 -0.0368
15801W        W16665   9.745  10.151   8.145  0.1756 -0.0741 -0.1822
15802W        W16666   9.133   9.249  11.476  0.0284  0.2806  0.1608
15803W        W16667   7.536   8.843   7.732  0.3443  0.1570  0.2151
15804W        W16668   8.874  11.755  11.134  0.1362  0.2240  0.1223
15805W        W16669   8.675   7.536   7.894  0.3057  0.1899 -0.1239
15806W        W16670   7.961   9.188   7.667 -0.0765  0.0476 -0.1007
15807W        W16671   7.364  10.667   5.550  0.0763  0.0884  0.0493
15808W        W16672   7.317   6.701   7.198  0.1127  0.1488  0.0654
15809W        W16673  11.212  10.394   9.178 -0.0476 -0.1845  0.1358
15810W        W16674   8.081   6.327  11.724 -0.0369 -0.0919 -0.3940
15811W        W16675   9.682  11.674   8.796 -0.1118  0.2542  0.1064
15812W        W16676   8.562   5.109  10.479  0.2759  0.0623  0.1224
15813W        W16677   7.913  10.356   9.651 -0.3236 -0.1103  0.0656
15814W        W16678   6.339   6.935  11.344 -0.0310  0.0181  0.0306
15815W        W16679   5.560   6.572   9.693 -0.1483  0.0102 -0.1144
15816W        W16680   7.946   5.228   9.604  0.0134  0.1328  0.0555
15817W        W16681  11.567   5.162  10.568 -0.0578 -0.1475  0.1958
15818W        W16682   9.787   9.848   7.558  0.1926  0.0668 -0.1356
15819W        W16683   6.759   8.493   8.911 -0.0814 -0.0401 -0.1832
15820W        W16684   8.807   9.767  10.546 -0.0670 -0.0200 -0.0959
15821W        W16685   8.904   8.830   9.168  0.1912  0.3070 -0.0073
15822W        W16686  10.642   9.504  11.451 -0.2599 -0.1881 -0.3525
15823W        W16687  13.197   9.571   8.504  0.0722  0.1440  0.1589
15824W        W16688   9.126  11.180  10.203  0.0387  0.1037  0.2092
15825W        W16689   6.562   7.949  10.869  0.1854 -0.3250  0.0085
15826W        W16690   8.364  12.878   8.503 -0.0840 -0.3252  0.2185
15827W        W16691  10.189   9.847  12.668  0.1674 -0.1157 -0.0423
15828W        W16692   6.862   7.890   8.988 -0.2430  0.0923  0.2143
15829W        W16693   8.992   7.509  10.850  0.0182  0.0317  0.0229
15830W        W16694  10.093  11.176   9.239  0.1211  0.1002 -0.1873
15831W        W16695   7.293   8.740   9.051 -0.0460  0.0632 -0.0199
15832W        W16696   8.144   9.302  10.933  0.1455 -0.1962 -0.1432
15833W        W16697   9.054  10.202  12.148 -0.2598 -0.2772 -0.1375
15834W        W16698   6.866   6.896   9.568  0.2002  0.0397 -0.0859
15835W        W16699   9.474   9.737  13.300 -0.2030  0.0661  0.1320
15836W        W16700   7.518   6.995   8.329  0.2327 -0.0724  0.0207
15837W        W16701   8.426   9.184   8.486  0.2919  0.0102  0.2274
15838W        W16702  11.472  11.132  10.952 -0.0258 -0.0283 -0.1186
15839W        W16703   9.134   5.991   9.348 -0.0088 -0.0876 -0.0469
15840W        W16704  11.716  13.507  11.029 -0.1016  0.0983 -0.0329
15841W        W16705   9.882  10.143   9.564  0.3163  0.2103 -0.1926
15842W        W16706   8.065  10.119   8.254  0.2213 -0.0360 -0.2291
15843W        W16707   8.624  12.208  11.443  0.0795 -0.3671  0.1694
15844W        W16708   5.408   7.809  10.754  0.1457  0.0763  0.1961
15845W        W16709   9.266   9.247   7.489 -0.2527  0.2774 -0.0377
15846W        W16710   6.974   5.365  12.559  0.0761 -0.2556  0.0313
15847W        W16711   9.890   9.217   8.210  0.4815 -0.0860 -0.1036
15848W        W16712   8.736   8.541  10.628 -0.0641 -0.2284 -0.0001
15849W        W16713   8.928  10.258  12.600 -0.1560  0.0810 -0.2004
15850W        W16714   9.772   6.354   8.130  0.0409  0.0209  0.1064
15851W        W16715  10.729   6.773   9.666 -0.1927 -0.2089  0.2018
15852W        W16716  10.600  11.148   7.893  0.2921  0.1042  0.2864
15853W        W16717   8.373   6.578   9.734  0.4297  0.1782 -0.3906
15854W        W16718   9.243   8.440   6.439 -0.0995 -0.0437  0.1647
15855W        W16719  10.591  11.161  10.744 -0.0586 -0.3121 -0.0975
15856W        W16720   9.323   8.571   8.669 -0.0060  0.1739  0.2274
15857W        W16721  12.333   6.016   9.952 -0.3656  0.2003  0.1299
15858W        W16722  11.523   6.129   7.568  0.0741  0.0707  0.0520
15859W        W16723   7.248   9.853  12.032  0.0365  0.2515  0.0130
15860W        W16724   9.424   6.459   8.548  0.0705 -0.0081  0.0508
15861W        W16725   6.925   8.359   8.147 -0.0243 -0.0323 -0.1240
15862W        W16726   5.953   8.092   8.130 -0.0594 -0.1401  0.0348
15863W        W16727  11.198   9.885   9.195  0.1390  0.0720  0.1456
15864W        W16728   9.018   7.530   9.491 -0.1583  0.0274 -0.1057
15865W        W16729   9.749  10.626  12.903  0.1179  0.2259  0.0459
15866W        W16730  11.798  10.134   7.625  0.2694  0.0154  0.2315
15867W        W16731   5.598   5.246   8.925  0.0543  0.0573 -0.3826
15868W        W16732  11.950   6.820  11.788  0.1888  0.2124  0.0888
15869W        W16733   8.648   8.951   9.603 -0.0216  0.1463 -0.0011
15870W        W16734   8.010   5.202  10.538  0.0407 -0.2657 -0.0455
15871W        W16735   8.202   8.361   7.680 -0.0939 -0.2413 -0.0552
15872W        W16736  12.654   8.634   9.360  0.2934  0.0997  0.3693
15873W        W16737  12.058  12.557   7.885 -0.0630  0.2081  0.1106
15874W        W16738   9.513  10.846  11.040 -0.0808  0.2219 -0.1459
15875W        W16739  10.863   9.017   8.223  0.3963  0.3480 -0.1602
15876W        W16740   6.621   9.622   8.034  0.1153 -0.0022 -0.2389
15877W        W16741  10.242   6.732   9.777  0.0451 -0.3224 -0.0764
15878W        W16742   6.396   7.504   9.764  0.1802 -0.1326  0.2328
15879W        W16743   5.357   6.347  10.076 -0.1799 -0.3770 -0.0738
15880W        W16744  13.680  12.840  10.680 -0.1285 -0.1123  0.2946
15881W        W16745   8.412   9.936   9.225  0.1980 -0.1154 -0.0622
15882W        W16746   9.083  11.179  12.746  0.1278  0.0084  0.2010
15883W        W16747  10.071   8.484   7.562  0.0143  0.1728 -0.1697
15884W        W16748   8.054  10.294   9.174 -0.0871  0.0705  0.0583
15885W        W16749   9.087   7.099   9.169  0.2372 -0.2300 -0.0692
15886W        W16750   9.716  11.873   9.966  0.1303 -0.0777  0.0888
15887W        W16751   7.913   8.526   9.917 -0.0707 -0.2030 -0.1829
15888W        W16752  10.728  10.054  10.001 -0.0077 -0.1054  0.0276
15889W        W16753  10.569   8.507   7.559  0.0105 -0.0273 -0.1076
15890W        W16754  12.180  10.647   9.102 -0.2617  0.1472  0.2795
15891W        W16755   5.997  10.522   8.557 -0.2591 -0.0977  0.1251
15892W        W16756   7.226   5.812   8.738 -0.1216 -0.1886 -0.2193
15893W        W16757   8.577   9.258  10.667  0.1523  0.1575 -0.2331
15894W        W16758  11.104  11.583   4.131  0.0556 -0.0896 -0.2111
15895W        W16759   9.444   8.889  10.259  0.0427 -0.1181 -0.1575
15896W        W16760   9.130  12.250  11.591  0.2873  0.0426 -0.3691
15897W        W16761   8.243   7.599   9.322 -0.0545  0.1790 -0.4002
15898W        W16762   9.097   6.142   8.786  0.0404  0.1407 -0.2763
15899W        W16763   9.113  12.972  10.147 -0.3278  0.2442  0.0191
15900W        W16764  10.553  10.805   8.301  0.1680  0.1947 -0.0630
15901W        W16765   7.181   9.836   8.222 -0.0446  0.0437 -0.2430
15902W        W16766  13.813  12.486  10.312 -0.0414  0.1298  0.0138
15903W        W16767   7.898   6.423   8.133  0.0937 -0.1441  0.1245
15904W        W16768   8.135  12.329   7.260  0.2119  0.1572  0.2709
15905W        W16769   8.914   7.974   8.023  0.0419 -0.5378  0.0340
15906W        W16770   7.089   8.703   9.647 -0.0310  0.2407 -0.0675
15907W        W16771   9.265   8.364   9.687  0.0169  0.0186 -0.1878
15908W        W16772   7.709   6.730  10.907  0.3282  0.1693  0.2852
15909W        W16773  10.698   7.685   9.818 -0.2033 -0.0929  0.2464
15910W        W16774   9.631   8.146   8.982 -0.1549 -0.1999 -0.0130
15911W        W16775   8.150   6.723   8.849 -0.1012 -0.3008 -0.1645
15912W        W16776  10.206   9.177  10.484 -0.0157  0.0538 -0.0697
15913W        W16777   9.898  12.150  11.613  0.1601 -0.0105 -0.0968
15914W        W16778   9.971   9.287  10.973  0.2365  0.1511  0.0868
15915W        W16779   8.563   8.964  10.141 -0.2405 -0.0172  0.1138
15916W        W16780   9.952   8.188  12.367  0.0214 -0.1386 -0.2561
15917W        W16781   5.135   9.118   9.508 -0.2485 -0.3020 -0.3052
15918W        W16782   8.959   8.492   6.832 -0.1848  0.0180  0.0203
15919W        W16783   6.487   9.954   6.237  0.2338  0.0864 -0.1055
15920W        W16784   8.289  12.658  10.685 -0.1721  0.1216  0.2096
15921W        W16785   6.887   8.070   7.660  0.2281 -0.0785 -0.2552
15922W        W16786   8.269   8.338  10.226  0.4120 -0.0396 -0.0275
15923W        W16787   7.763  10.510  10.309 -0.0817 -0.0791 -0.0764
15924W        W16788  11.870  11.136  10.005 -0.1733  0.0034  0.1830
15925W        W16789  11.524  10.093   8.090 -0.3273 -0.1411  0.0230
15926W        W16790   9.107   9.056   8.521  0.0334 -0.0961  0.0471
15927W        W16791   9.765   9.370   6.556  0.0205 -0.0821  0.1226
15928W        W16792   7.621  11.288  11.613  0.0026  0.2276  0.0162
15929W        W16793   7.435   7.692  11.227  0.1313 -0.0306  0.0286
15930W        W16794   9.265  11.622   8.511  0.0763  0.0813 -0.1863
15931W        W16795  10.272   6.928   8.069 -0.0995 -0.0458 -0.3057
15932W        W16796   9.252  10.403   8.200 -0.2359 -0.1615 -0.0807
15933W        W16797  10.905   0.765  11.048 -0.0201 -0.0185  0.2252
15934W        W16798  10.312  10.734   9.528  0.2116  0.0093  0.0760
15935W        W16799   7.157   6.313   8.660 -0.2410 -0.0180  0.1480
15936W        W16800  12.576  10.937   6.915 -0.0573 -0.3830 -0.0103
15937W        W16801  11.056   8.943  10.924 -0.1922 -0.1924 -0.2030
15938W        W16802  10.274   8.779   7.234  0.4161 -0.0735  0.1755
15939W        W16803   6.720   5.919   7.051  0.2346 -0.1519 -0.0192
15940W        W16804  10.777  10.814   8.773 -0.0708  0.0680  0.3700
15941W        W16805   8.300   9.060   9.038  0.0035  0.2474 -0.3580
15942W        W16806   8.600   9.459   3.407 -0.0283 -0.0196 -0.1086
15943W        W16807   6.354   8.933   7.328 -0.0461  0.1361  0.0694
15944W        W16808   8.278   8.219  10.804  0.2211  0.2508  0.1609
15945W        W16809   7.633   7.286  11.414  0.0454 -0.1773 -0.2070
15946W        W16810  10.282   7.444  10.695 -0.0864 -0.2357 -0.1677
15947W        W16811  10.014   7.759   8.508  0.2506  0.3938 -0.0243
15948W        W16812  11.304   6.860   8.559  0.0644 -0.1319  0.3707
15949W        W16813   6.927   7.127  10.799 -0.1683 -0.0422 -0.1318
15950W        W16814   5.909   8.001   8.740  0.2073  0.0145  0.1285
15951W        W16815   9.890   7.732  10.536 -0.1452 -0.0726  0.1847
15952W        W16816   9.497   7.157  10.802  0.0139  0.1657  0.2162
15953W        W16817   0.498  10.022   9.060  0.3295 -0.0256  0.1559
15954W        W16818  10.367   8.974   8.264  0.1807 -0.1509  0.0522
15955W        W16819   6.559   4.143   8.633 -0.4055 -0.0712  0.2111
15956W        W16820   7.394   9.396   7.478  0.2321  0.1652  0.3580
15957W        W16821   8.987   6.503   7.064 -0.0270  0.1251 -0.0875
15958W        W16822   6.587   9.243   7.683 -0.1050 -0.0022 -0.3230
15959W        W16823  12.614   9.918   9.966 -0.4195  0.1127 -0.3687
15960W        W16824  12.196   9.853   9.067 -0.1374  0.1048 -0.2649
15961W        W16825   6.784   6.581   8.671  0.0768  0.0059 -0.0717
15962W        W16826   9.556   7.427  10.356  0.1748  0.0224 -0.2212
15963W        W16827   7.050   8.191   6.206  0.0791 -0.0185  0.2275
15964W        W16828   9.506   8.417  11.751  0.1035  0.2970 -0.1394
15965W        W16829   8.807   4.888  12.145 -0.1356  0.1693  0.0469
15966W        W16830   9.334   9.703  10.448  0.0083 -0.1265  0.0049
15967W        W16831  13.148  10.634   9.535 -0.1796 -0.2737 -0.1063
15968W        W16832  10.942   6.169   9.774 -0.0483 -0.1028  0.0336
15969W        W16833   9.700  10.436   7.124  0.1058  0.0689 -0.2314
15970W        W16834   9.207   8.043  11.640 -0.1038 -0.1387  0.0232
15971W        W16835   6.647   8.261  11.266 -0.1430  0.2951  0.1387
15972W        W16836   6.807   9.515   9.049 -0.0085  0.0355 -0.0618
15973W        W16837   9.069   9.284   9.377 -0.1727 -0.2253 -0.1244
15974W        W16838   8.600  12.199  10.946 -0.2245 -0.0866 -0.2748
15975W        W16839  10.016   9.857   5.828  0.1394 -0.1509  0.0385
15976W        W16840  10.197   6.617  13.065  0.0676  0.0413  0.0161
15977W        W16841   8.946   9.837  10.053 -0.0514 -0.1584 -0.2997
15978W        W16842  12.509   7.866   6.314 -0.0702 -0.2819 -0.1741
15979W        W16843  11.290  12.098   8.718 -0.1257 -0.2641  0.1462
15980W        W16844  11.473   9.711  10.402 -0.2398 -0.3267 -0.3670
15981W        W16845   7.794   5.656  10.733 -0.0677 -0.2128 -0.2085
15982W        W16846   9.889   9.640  11.729  0.1000 -0.0815 -0.1487
15983W        W16847   8.914   6.281   8.341 -0.1170  0.0642  0.2460
15984W        W16848  10.386   7.880  11.896  0.3029  0.0973 -0.2181
15985W        W16849   5.456   8.091   8.409  0.0393 -0.2797  0.1939
15986W        W16850   9.707  11.068  10.133 -0.0370  0.3490 -0.0224
15987W        W16851  13.546   8.761   8.164 -0.0304 -0.2116  0.0062
15988W        W16852  10.066   7.897  11.018  0.1613  0.0340  0.0381
15989W        W16853   8.232  12.598  11.211 -0.1440  0.1641 -0.0351
15990W        W16854  11.356  10.911  10.007 -0.1563 -0.0987 -0.2893
15991W        W16855  10.866  13.023   7.606  0.4332  0.1340 -0.5320
15992W        W16856   7.332  11.116  12.984  0.0543  0.0225 -0.4259
15993W        W16857   6.604   6.828   6.493  0.0633 -0.2223 -0.0848
15994W        W16858   7.373   6.938   9.365  0.2700 -0.0373 -0.1314
15995W        W16859   7.743   8.203   7.872 -0.1091 -0.0963  0.1214
15996W        W16860   6.968   5.494  10.613  0.1101  0.0848  0.2366
15997W        W16861  11.638  11.070  12.482  0.2542 -0.3405 -0.1134
15998W        W16862   7.932   9.937  11.466 -0.0697 -0.2085  0.3629
15999W        W16863  12.327  11.374  10.750 -0.1805 -0.0002 -0.2841
16000W        W16864   6.146   8.494   7.678  0.2363  0.1688 -0.1861
16001W        W16865   7.341  10.509   7.810  0.1766 -0.2356  0.0868
16002W        W16866   9.674  10.449  10.792  0.2179  0.1976 -0.2419
16003W        W16867  11.090   2.145  12.692 -0.1011  0.2682  0.1392
16004W        W16868  10.153   9.666  11.330 -0.0346 -0.0057 -0.2894
16005W        W16869   6.640   6.789   6.017  0.0368  0.1442 -0.2030
16006W        W16870   9.922  13.263   7.464  0.1442 -0.1323 -0.0034
16007W        W16871  12.721   8.306   8.031 -0.3728 -0.0289  0.0570
16008W        W16872   6.262   5.743  10.006 -0.1179 -0.2058 -0.0589
16009W        W16873  10.469  11.398  10.125 -0.0788 -0.0530  0.0103
16010W        W16874  10.902   8.806  11.862 -0.3024  0.2054  0.0413
16011W        W16875   9.218   9.700   9.656  0.1807  0.2067 -0.0455
16012W        W16876   6.662   9.661  10.712  0.1959  0.0183 -0.1878
16013W        W16877   7.107  11.240  10.847  0.3741  0.4230  0.0748
16014W        W16878  10.533   7.685  10.348  0.0134 -0.0407 -0.1836
16015W        W16879   7.315   9.077  10.530  0.2120 -0.1550  0.0251
16016W        W16880   8.760   9.870   9.627 -0.0533 -0.1513  0.0663
16017W        W16881   9.626   9.660  10.894  0.0274  0.1399  0.1868
16018W        W16882   9.052  12.461   8.989 -0.0295 -0.0181 -0.1110
16019W        W16883   6.985   9.990   9.059  0.2864  0.2711 -0.0484
16020W        W16884  11.379   9.730   7.729 -0.0159  0.0849  0.0571
16021W        W16885   5.588   7.482   9.378  0.0806 -0.1591  0.1637
16022W        W16886   8.268   5.248  10.106  0.1997  0.0588  0.0512
16023W        W16887   7.998   8.369   8.327 -0.0902  0.0028  0.2782
16024W        W16888   6.199   8.000   9.655  0.1056  0.2574  0.2779
16025W        W16889   8.763  11.447  10.672  0.1784  0.0844 -0.1648
16026W        W16890   7.661   8.986  11.055 -0.2673 -0.2998  0.2788
16027W        W16891   7.627   7.887  12.732 -0.0836  0.0062 -0.0677
16028W        W16892   7.639   6.037   8.957  0.3093 -0.1077 -0.2201
16029W        W16893   8.690   8.309   6.307 -0.3487 -0.0093 -0.1834
16030W        W16894   7.787  12.330   9.401  0.2350  0.1069  0.1992
16031W        W16895   8.243   9.920   9.711 -0.0583 -0.3332  0.1669
16032W        W16896   8.135  10.067   7.197 -0.0758 -0.4900 -0.1764
16033W        W16897   6.446   6.815   5.578  0.3915 -0.0485  0.1297
16034W        W16898   9.941   8.522   9.298 -0.1728 -0.0192  0.0021
16035W        W16899  11.148   9.352   9.439 -0.3597 -0.0389 -0.2370
16036W        W16900  11.438   9.705  11.899  0.3166 -0.2709  0.0925
16037W        W16901   0.069   9.761   9.568  0.0218 -0.1041 -0.0594
16038W        W16902   9.246   6.410  12.159 -0.0292  0.1462 -0.3170
16039W        W16903  10.324   5.693   8.181  0.3010  0.0056 -0.1579
16040W        W16904  12.429   9.369   9.095 -0.0436 -0.0271 -0.1092
16041W        W16905   7.280  10.206   8.608 -0.0661  0.2343  0.1469
16042W        W16906  10.653  10.007   9.154 -0.2670 -0.0227  0.0368
16043W        W16907   8.890  10.453  13.070  0.2451 -0.0325  0.0056
16044W        W16908   6.601   7.633   7.594  0.1361  0.1207  0.1755
16045W        W16909   5.692   8.181   7.456 -0.1841  0.0740 -0.2180
16046W        W16910  11.857   8.808   8.236 -0.0082  0.0808  0.4108
16047W        W16911  11.640   9.952   8.595 -0.0267  0.2176 -0.0312
16048W        W16912  12.161   9.913   8.022 -0.3173  0.0641  0.0055
16049W        W16913  10.462   7.257   9.772 -0.3376 -0.2572 -0.3288
16050W        W16914   8.410  10.091  10.589  0.0007 -0.0913  0.4238
16051W        W16915   9.251   5.848   6.362  0.2131 -0.0158  0.5337
16052W        W16916   8.711   7.907   9.702  0.0148  0.0538 -0.0592
16053W        W16917   7.858  12.534  10.883  0.1872  0.2289 -0.0301
16054W        W16918  10.354   8.707   9.004  0.1669  0.0370 -0.0278
16055W        W16919  10.980  10.830   7.819 -0.0026  0.2016 -0.1053
16056W        W16920  11.762   8.989   9.212  0.3252 -0.1684 -0.1819
16057W        W16921   7.595  11.421  11.083 -0.0503  0.0306  0.4272
16058W        W16922   6.846   6.142   8.991 -0.0448 -0.2240  0.2064
16059W        W16923   8.827   9.388   9.859 -0.1975  0.1060 -0.1288
16060W        W16924   9.696   9.815   8.545 -0.0312  0.3771 -0.0235
16061W        W16925   7.235   5.328  10.222 -0.0086 -0.0317  0.1779
16062W        W16926   8.976   9.274  10.362  0.2038  0.3584  0.0099
16063W        W16927   9.838   8.608   8.790 -0.2533 -0.0392 -0.1546
16064W        W16928   8.019  12.909   8.936  0.1637 -0.3202 -0.0532
16065W        W16929   7.555  11.482  10.587  0.3255  0.0383 -0.0335
16066W        W16930   8.481   9.080  11.257 -0.2551 -0.0151  0.1025
16067W        W16931   6.215   6.383  12.020 -0.0330  0.2096 -0.2654
16068W        W16932  10.445   9.906   8.077 -0.0532 -0.2448 -0.3441
16069W        W16933   7.614  10.753  11.650  0.0062  0.0005 -0.5232
16070W        W16934   8.129   9.635   8.417  0.0199 -0.1467  0.0671
16071W        W16935   6.039   9.483   7.868 -0.1575  0.3303 -0.0557
16072W        W16936  11.659  10.619   8.938 -0.0173 -0.2099 -0.1688
16073W        W16937   6.374   7.625  10.542 -0.0740  0.0827 -0.0451
16074W        W16938   8.618   6.952  11.231 -0.1898  0.1395 -0.1276
16075W        W16939   6.246   7.278   7.483  0.0589 -0.2312  0.0816
16076W        W16940   9.847   7.470  10.938  0.0177  0.0515 -0.0203
16077W        W16941   9.251   7.181  10.018 -0.1194 -0.2195 -0.0349
16078W        W16942   7.031   6.928   6.754  0.2994 -0.3678 -0.1767
16079W        W16943  10.246  10.234   9.181 -0.0273  0.1847 -0.2772
16080W        W16944   7.868   9.665   9.978  0.5888 -0.0330  0.3396
16081W        W16945   7.614   6.038   8.467  0.0386  0.0840 -0.0020
16082W        W16946  12.104   9.833   8.544  0.0511  0.2453 -0.4278
16083W        W16947  11.840   9.616   7.547  0.5521  0.3250 -0.0852
16084W        W16948  10.946  12.305   0.062 -0.1184 -0.0079  0.1009
16085W        W16949   9.742   9.599  10.281 -0.0579 -0.1029 -0.0310
16086W        W16950  11.661  11.742   0.492 -0.1776 -0.0165  0.1837
16087W        W16951   8.135   9.442   9.322  0.0872  0.1434  0.0127
16088W        W16952  12.339  11.028   9.441  0.3553  0.0752 -0.1955
16089W        W16953   9.287  11.641   9.206  0.1112 -0.1300  0.1587
16090W        W16954  10.102   7.965   9.305 -0.4341 -0.1123  0.0472
16091W        W16955   9.246  11.526   7.990 -0.1233  0.0867 -0.0539
16092W        W16956   7.317   7.095   9.822 -0.2595 -0.0187 -0.3568
16093W        W16957   9.440   7.804   9.296  0.3613  0.0998  0.1855
16094W        W16958   6.148   9.256   6.831  0.2445  0.1496 -0.1536
16095W        W16959   8.178  11.279  11.481 -0.1086  0.2886  0.0446
16096W        W16960   8.180   6.749  10.703 -0.3015 -0.0148 -0.0083
16097W        W16961   7.590  10.046   8.994  0.4269  0.1340  0.4340
16098W        W16962   5.154   7.475   9.847 -0.3527  0.0412 -0.3565
16099W        W16963   8.438   6.733   8.309  0.2215  0.1255 -0.1444
16100W        W16964   5.217   4.612   5.882  0.1867  0.0387 -0.3345
16101W        W16965  10.905   9.457  10.059 -0.1356  0.0283  0.3418
16102W        W16966   8.425   6.815   6.900 -0.2421  0.5033 -0.3201
16103W        W16967  12.264   8.902   9.223  0.2966 -0.1671  0.1805
16104W        W16968  10.264   7.502   8.964 -0.0702 -0.0591  0.0249
16105W        W16969   9.335  11.981  10.342 -0.0376  0.0560 -0.2207
16106W        W16970  10.238   6.671   8.720  0.3180  0.0399  0.1516
16107W        W16971   8.477  13.265   6.541  0.1183  0.0636  0.1401
16108W        W16972  10.658   6.948  12.437 -0.4091  0.0596 -0.1527
16109W        W16973   9.871   9.617   0.063  0.0285  0.0553 -0.0440
16110W        W16974   5.172   7.682   7.514 -0.2193  0.0188 -0.2085
16111W        W16975   5.254   8.623   6.141 -0.0583  0.0971  0.2977
16112W        W16976   8.610   9.839  13.690 -0.1763  0.3120  0.1518
16113W        W16977  10.051   8.156  10.157 -0.0526 -0.0106 -0.0792
16114W        W16978   9.852   8.161   8.004  0.1908 -0.0817  0.1924
16115W        W16979   9.883  11.696   8.142  0.0872 -0.2928 -0.2021
16116W        W16980   9.790  11.533  12.137  0.1831 -0.0544 -0.4130
16117W        W16981  11.932  10.828   8.575  0.3642 -0.3823 -0.0991
16118W        W16982  10.342   9.775   7.566  0.0475  0.0117  0.3394
16119W        W16983   7.196   7.486   9.280 -0.1037 -0.0810 -0.0613
16120W        W16984   9.980   7.069   8.903 -0.1502 -0.1349 -0.1610
16121W        W16985   9.336  10.116   9.372  0.0988  0.1045 -0.1107
16122W        W16986  10.194   7.577   8.091  0.2762 -0.1428 -0.0121
16123W        W16987  11.033  11.376   9.004 -0.2338 -0.0016 -0.1919
16124W        W16988  11.693   8.889  11.613  0.1024 -0.0623 -0.0292
16125W        W16989   9.466   9.925  10.020  0.3544 -0.0569  0.1112
16126W        W16990   9.514   9.836  11.381 -0.0286 -0.1930  0.1242
16127W        W16991   9.136   6.532   9.319  0.2513  0.0165  0.0664
16128W        W16992   9.800  10.292   8.637  0.2275  0.0550 -0.0841
16129W        W16993   9.542   9.217   9.551  0.1218 -0.2229  0.4839
16130W        W16994   6.805   8.090  10.439 -0.4025 -0.2000 -0.2602
16131W        W16995   9.322  10.367  11.810 -0.5195 -0.2641 -0.0187
16132W        W16996   7.664   8.763   8.763 -0.3216  0.2114 -0.1233
16133W        W16997   6.284   6.881  11.812 -0.0041  0.2362  0.1561
16134W        W16998   8.450  12.715  12.114  0.0614 -0.0740 -0.0304
16135W        W16999   7.636  11.085  12.098  0.0458 -0.2108 -0.1709
16136W        W17000   9.406   8.972   9.098 -0.2908 -0.2046 -0.3559
16137W        W17001   9.898  10.141  10.132 -0.0678 -0.1212 -0.1135
16138W        W17002   9.481  11.838  10.880  0.0442 -0.1284 -0.3275
16139W        W17003  10.978   8.899   9.971  0.0972 -0.1180 -0.2105
16140W        W17004   9.009   7.271  12.038 -0.0823  0.3910 -0.0194
16141W        W17005  10.417   7.995  11.390  0.0077 -0.0964  0.2479
16142W        W17006  10.272   8.850   9.497 -0.2536  0.0623  0.0850
16143W        W17007  10.537   9.709  12.273 -0.0916 -0.0494 -0.2338
16144W        W17008  10.913   0.566  12.489 -0.3409 -0.0353 -0.1905
16145W        W17009   6.918   8.533  10.194  0.1948  0.2469  0.2551
16146W        W17010   9.436   9.049  12.224  0.0530  0.0419  0.1634
16147W        W17011  10.675  12.702  12.158 -0.0493 -0.4936 -0.0830
16148W        W17012   7.290  12.744  13.746 -0.1729 -0.1163  0.2369
16149W        W17013   7.065   9.552   6.569 -0.3281  0.0296  0.2597
16150W        W17014   7.122   8.730   8.524  0.3706  0.3185 -0.2209
16151W        W17015  10.302   9.735  13.756 -0.2721  0.2935  0.0168
16152W        W17016   8.644  13.490  11.556 -0.0054 -0.3732 -0.0808
16153W        W17017  10.899   9.908   0.468 -0.0866  0.1658 -0.1439
16154W        W17018  10.464  10.735  12.473 -0.0380 -0.0443  0.0216
16155W        W17019   7.903  10.212  10.789 -0.3217  0.0457  0.0681
16156W        W17020   8.626   6.645   0.262  0.0887  0.0200 -0.2024
16157W        W17021   8.663  11.830  12.250  0.0313  0.0667 -0.1823
16158W        W17022   8.473  10.626   0.523 -0.0682 -0.0588  0.3237
16159W        W17023  10.329   8.464   1.437  0.1647 -0.2175  0.0696
16160W        W17024   9.807   9.027  12.602 -0.1477  0.1171  0.0920
16161W        W17025   7.721   7.176   0.415 -0.0315  0.4351 -0.3753
16162W        W17026  10.732  10.679  10.781 -0.0858  0.0950  0.3084
16163W        W17027   7.362  10.334  12.840 -0.2559 -0.4295 -0.1669
16164W        W17028   9.305   7.063  12.939  0.2938  0.2544 -0.1883
16165W        W17029  10.559   7.836   2.639  0.6625 -0.0144  0.1284
16166W        W17030   8.540   8.580  11.089  0.1786  0.0627  0.0294
16167W        W17031   9.499   8.272   1.276  0.1456 -0.1038 -0.1997
16168W        W17032  10.605   8.408   2.472 -0.0918  0.1339 -0.0688
16169W        W17033   7.981   7.635   9.790 -0.0717 -0.1329  0.0254
16170W        W17034   8.285   6.740  13.677 -0.3180 -0.4282  0.1079
16171W        W17035   7.630  13.112  13.858 -0.0746  0.2920 -0.0413
16172W        W17036  10.829  11.064  13.684 -0.1701 -0.3071  0.0948
16173W        W17037   9.623   8.401   0.837  0.5180 -0.0069 -0.0505
16174W        W17038   9.569  10.839  13.654  0.2538  0.0254 -0.1123
16175W        W17039   5.056   5.566  11.866  0.0199  0.2559  0.1652
16176W        W17040   8.146  10.208  13.698  0.0612  0.1169 -0.1459
16177W        W17041  12.047   9.106  11.241  0.0438 -0.4131  0.1019
16178W        W17042   7.162  11.132  11.758 -0.0099  0.0907 -0.1430
16179W        W17043  11.113  10.993  12.037 -0.0365  0.3479  0.2517
16180W        W17044   9.597   7.288   1.322  0.0409 -0.1064 -0.1132
16181W        W17045   9.787  10.852   0.778 -0.0338  0.1811  0.1596
16182W        W17046   9.751  10.194  12.567 -0.2410 -0.2302 -0.1296
16183W        W17047   9.377  10.584  13.250 -0.1631  0.1788 -0.3521
16184W        W17048  10.300  13.785   0.001 -0.0460 -0.0499  0.1228
16185W        W17049   8.743   8.021  13.868 -0.0192  0.4320  0.0223
16186W        W17050  11.749   7.198   0.874 -0.1225  0.5037 -0.0168
16187W        W17051  10.213  10.191  12.002  0.1385  0.1009 -0.0220
16188W        W17052   9.581   8.982   8.559 -0.1041  0.0286  0.1678
16189W        W17053  10.903  12.720   0.842  0.0130 -0.0204 -0.0354
16190W        W17054   9.857   9.940  13.636 -0.0383 -0.0905 -0.1538
16191W        W17055  10.068  11.240   0.060 -0.0986 -0.0517  0.3822
16192W        W17056  11.056   8.311  13.510  0.2306  0.2018 -0.0149
16193W        W17057  10.566   9.396  12.726 -0.0865 -0.0300  0.0483
16194W        W17058   8.642  13.527   9.618 -0.2189  0.1201 -0.0239
16195W        W17059   6.911   9.014  11.340 -0.4568 -0.2157 -0.2287
16196W        W17060  12.277   8.812  12.561 -0.1592 -0.0732  0.0358
16197W        W17061   8.517  10.938  12.034  0.1076 -0.2323 -0.0403
16198W        W17062   8.577  11.374   8.676  0.0325 -0.0323 -0.0787
16199W        W17063   8.353   7.426   8.621 -0.2176 -0.0081  0.1838
16200W        W17064   7.015   9.278  13.778  0.0521  0.0715  0.0027
16201W        W17065  10.518  11.531   0.701 -0.1967 -0.0659  0.2221
16202W        W17066   7.641   7.721  11.792 -0.1626  0.1873  0.0665
16203W        W17067   6.986   7.018  10.328  0.0817  0.0740 -0.1435
16204W        W17068   8.745   6.220  12.115  0.3280  0.1121  0.2627
16205W        W17069   7.972   7.257  11.815  0.0026  0.0367  0.1095
16206W        W17070   9.269   9.764  11.825  0.1968 -0.1186 -0.1322
16207W        W17071   6.777   8.834   0.989  0.0671 -0.0271  0.2452
16208W        W17072   6.630  11.768   0.427  0.2343 -0.0744  0.0540
16209W        W17073  10.903  10.260   2.211 -0.1217  0.2174  0.0472
16210W        W17074  10.289   6.530   0.389  0.0811 -0.0773 -0.1375
16211W        W17075  10.664  11.837  11.880  0.1027  0.1623  0.1467
16212W        W17076  12.250   9.352   1.423 -0.4495 -0.0589 -0.0036
16213W        W17077  11.606   9.214   0.667 -0.0037  0.1211  0.2265
16214W        W17078   8.030   9.911   1.699 -0.1591 -0.0956 -0.2229
16215W        W17079  10.108  11.229  10.908  0.4080 -0.1840  0.1305
16216W        W17080  10.394   8.460   0.085  0.1717 -0.0781  0.1882
16217W        W17081   8.140   9.214   0.009  0.1043  0.2981  0.2851
16218W        W17082  11.659   8.454  11.930  0.0578  0.0691 -0.4006
16219W        W17083   6.728  10.933  12.896  0.0046 -0.0008 -0.0578
16220W        W17084   7.278   5.536  12.183 -0.1926  0.1036  0.0670
16221W        W17085   7.621   5.587   2.233 -0.0175 -0.1348 -0.0175
16222W        W17086   8.790  10.015  11.778 -0.0946  0.2509 -0.1554
16223W        W17087  12.717   8.150   2.038 -0.0208 -0.3350  0.0051
16224W        W17088   9.332   8.786   2.002 -0.1026  0.1022  0.1746
16225W        W17089   8.899  13.006   1.312  0.1542 -0.2062  0.0306
16226W        W17090   8.470   8.449  13.887  0.0767  0.2077 -0.1688
16227W        W17091   9.920   8.108  11.879 -0.0957  0.0714  0.1755
16228W        W17092  12.423   8.441  13.461  0.1049 -0.0183 -0.0159
16229W        W17093   8.726   6.678  13.328  0.0987 -0.0353  0.0842
16230W        W17094   9.952   8.776  11.039  0.0192 -0.1445 -0.0080
16231W        W17095  10.466  12.128  10.531  0.0175  0.0097  0.0153
16232W        W17096   8.631  11.298  13.004  0.0700  0.0587 -0.1821
16233W        W17097   8.583   7.927   9.134  0.0861  0.3031 -0.1863
16234W        W17098  13.377   9.958  12.967 -0.0353  0.0473  0.0836
16235W        W17099  10.979   5.633  13.362 -0.0371  0.1435  0.0069
16236W        W17100   8.976   8.436   1.894 -0.1200 -0.0319 -0.1448
16237W        W17101   9.190   8.626   0.617  0.2407 -0.0896  0.0017
16238W        W17102   8.442   7.845  11.577 -0.2174  0.3013  0.4800
16239W        W17103  10.276  10.217  13.576  0.0054 -0.2052 -0.1200
16240W        W17104  10.885   7.810  12.747 -0.1734 -0.1652 -0.1880
16241W        W17105  11.465  12.773   1.359 -0.3513  0.4617  0.2854
16242W        W17106   9.854  10.213  11.560 -0.0487 -0.1346  0.0284
16243W        W17107   8.182  11.772  12.358  0.2108  0.0490  0.0383
16244W        W17108   9.975   6.267   0.719 -0.1985 -0.2072 -0.0538
16245W        W17109  10.959   8.457   2.076  0.0625 -0.0202 -0.0607
16246W        W17110  12.491   7.985   2.497  0.0550  0.1960  0.3829
16247W        W17111   9.659   8.779   0.504 -0.1383  0.1143  0.2123
16248W        W17112   8.701   6.995  12.979 -0.1171 -0.1613  0.0185
16249W        W17113  11.351  10.534  12.002  0.0438  0.5914 -0.0875
16250W        W17114  10.018  13.069  10.155 -0.0480 -0.0096 -0.0598
16251W        W17115   8.765   8.234  11.622 -0.0962 -0.1530 -0.0034
16252W        W17116   8.963  11.385  11.757  0.0021  0.0863 -0.0897
16253W        W17117  10.846  10.122  11.465  0.3446  0.0961 -0.0392
16254W        W17118   9.223   8.138  13.414 -0.2084 -0.1268  0.3110
16255W        W17119  11.006   8.078   0.453 -0.2287  0.4806  0.0011
16256W        W17120   9.420  13.421   0.487 -0.0319 -0.1022  0.0149
16257W        W17121  10.429  10.060   0.646 -0.2250  0.0772  0.2524
16258W        W17122   9.625  11.095  12.736  0.0250 -0.2588 -0.2523
16259W        W17123   7.683   9.951   0.719  0.0019  0.2935  0.1586
16260W        W17124   7.477   9.002   0.633  0.1922 -0.2514 -0.1443
16261W        W17125   9.975  11.128  11.908 -0.1659 -0.0925 -0.1891
16262W        W17126  13.743  12.992   1.531  0.1719  0.1219  0.0395
16263W        W17127   7.491   7.909  12.247  0.3557  0.0093  0.0084
16264W        W17128  12.328   7.441   0.227  0.3568 -0.2902  0.2123
16265W        W17129  11.466  11.823  13.704  0.1505  0.2371 -0.2267
16266W        W17130  11.423  11.300   0.749 -0.1753  0.0248  0.0934
16267W        W17131  10.146   7.539  14.000  0.0420 -0.0320  0.2688
16268W        W17132   7.877   7.524  12.321  0.0422  0.0203 -0.0842
16269W        W17133  10.166  11.845  10.265  0.0199 -0.2262  0.1023
16270W        W17134  10.484  10.194  12.415 -0.0839  0.1083 -0.3212
16271W        W17135  10.383   9.013   2.701  0.2066 -0.2216  0.3541
16272W        W17136   9.153   8.540  12.492 -0.1556 -0.0935  0.0838
16273W        W17137  11.237   9.875   1.952 -0.1729  0.1868  0.1226
16274W        W17138  10.980  11.612   0.411  0.3435  0.0553 -0.2839
16275W        W17139   9.362  10.472   2.735  0.1808  0.2144  0.1975
16276W        W17140  10.974  11.182  11.092 -0.1212 -0.1422  0.1337
16277W        W17141  12.404  12.880  13.992 -0.0380 -0.0699  0.2111
16278W        W17142  10.649  11.074  12.173 -0.1339 -0.0814 -0.2064
16279W        W17143  11.309  10.358   0.538 -0.1111  0.0903 -0.0233
16280W        W17144  12.221   8.331   9.384  0.1348 -0.1431  0.2831
16281W        W17145   9.065   8.032   2.218 -0.2777  0.2475  0.1085
16282W        W17146  10.429  11.115  13.345  0.2686 -0.3689 -0.5476
16283W        W17147   8.692   9.632  12.573  0.0743 -0.1673 -0.2042
16284W        W17148   5.367   7.063   9.702 -0.0434 -0.3105 -0.0050
16285W        W17149  10.307  10.439  11.546 -0.1124  0.0884 -0.0216
16286W        W17150   8.210   9.688  12.336  0.0955  0.1670 -0.0116
16287W        W17151   9.669   7.407  13.928 -0.0639  0.0179 -0.1866
16288W        W17152   9.749   9.112   0.098  0.0144 -0.0319  0.1158
16289W        W17153   8.057   6.766  12.646 -0.0099  0.2063 -0.1169
16290W        W17154   9.232   6.807  11.870  0.0905  0.0427  0.1961
16291W        W17155   8.270   0.030  13.987  0.2500 -0.0686 -0.0383
16292W        W17156   7.809  10.992  11.275  0.0114  0.0262 -0.0896
16293W        W17157   9.593   9.404   1.229 -0.3686 -0.2439  0.4896
16294W        W17158  12.400   9.006  13.537  0.0847  0.0503  0.1519
16295W        W17159  10.142   8.944   1.752  0.0905  0.2273 -0.2114
16296W        W17160   8.267  12.633  13.110 -0.0514  0.0911  0.0137
16297W        W17161   9.167   7.626  13.456 -0.1486 -0.4229  0.1922
16298W        W17162   8.633   8.283  12.443 -0.0233 -0.2441  0.1942
16299W        W17163  11.904  11.897   0.935 -0.1023  0.0728 -0.2180
16300W        W17164   8.474   9.987  11.387 -0.0257 -0.1107 -0.0465
16301W        W17165   6.385   9.947  11.763  0.1134  0.0777  0.1750
16302W        W17166  11.533   6.855  13.380  0.1220  0.0516 -0.1197
16303W        W17167  10.457  13.713  11.819  0.0089 -0.0454  0.0040
16304W        W17168  10.147  12.673  10.408 -0.0880  0.2517 -0.1912
16305W        W17169   8.358  10.465  13.052  0.0194 -0.0068 -0.4449
16306W        W17170   8.161   8.872  11.993 -0.1523  0.3392  0.1710
16307W        W17171  11.110   7.062  10.315 -0.2198 -0.0990 -0.0974
16308W        W17172   9.332   6.861  13.400 -0.0290 -0.1442 -0.1095
16309W        W17173   6.246   5.997  11.515  0.6324  0.0684 -0.1776
16310W        W17174  11.389   8.462   0.328 -0.3637  0.3343 -0.0782
16311W        W17175  10.712  10.752  13.022 -0.0316 -0.0298  0.1252
16312W        W17176   7.988   6.882   9.348  0.0410 -0.0058 -0.1038
16313W        W17177  10.266  11.493  12.046 -0.0810 -0.0227 -0.5157
16314W        W17178   9.041   6.952   2.483 -0.3073  0.1473 -0.0615
16315W        W17179   8.736   7.573  12.348 -0.2519  0.1249 -0.0758
16316W        W17180  10.845   5.995  12.520 -0.3251  0.1104  0.3613
16317W        W17181   7.701   7.607  10.467 -0.0919  0.2719 -0.1125
16318W        W17182   8.502  10.501  11.355 -0.1113 -0.0148  0.4812
16319W        W17183   8.277   7.795  12.508  0.1680  0.1603 -0.2733
16320W        W17184   6.690   7.541  13.290  0.0292  0.0890 -0.0280
16321W        W17185   9.067   8.145  12.102 -0.0699 -0.1674  0.3050
16322W        W17186  11.118   9.781  13.543  0.4793 -0.0403 -0.2897
16323W        W17187   7.412   7.042   1.744 -0.1191  0.0738  0.0256
16324W        W17188   7.780   7.241  10.067  0.0471  0.0325 -0.0075
16325W        W17189   9.773   8.741   1.439 -0.0555  0.0443  0.1667
16326W        W17190   8.049  11.628   8.879  0.1941 -0.0921 -0.1373
16327W        W17191   8.152  11.393  12.824 -0.1019  0.1747  0.1080
16328W        W17192   9.621  10.117   2.924  0.1074  0.2317 -0.1485
16329W        W17193   7.446   8.654   0.215 -0.0932  0.0184 -0.4734
16330W        W17194   9.330   8.756   1.182  0.0197 -0.2572  0.0295
16331W        W17195  11.556   6.227  13.908 -0.1592 -0.0912  0.0398
16332W        W17196  12.734   7.846  12.609 -0.1164 -0.1183 -0.0509
16333W        W17197   7.073  11.021   9.969  0.0072  0.0802  0.3255
16334W        W17198  11.813  11.855  12.167  0.0352  0.0811 -0.0255
16335W        W17199   9.586   7.281  13.444  0.0936  0.0295 -0.2980
16336W        W17200   4.412   8.403   1.948  0.0666 -0.0549 -0.0194
16337W        W17201  13.158  10.755  10.509 -0.1780  0.0610 -0.1755
16338W        W17202   9.257   6.619   2.820 -0.0998  0.0067  0.2027
16339W        W17203  12.280   7.629  12.397 -0.0675  0.1951  0.0359
16340W        W17204  11.445  13.093  12.687  0.2045 -0.0687 -0.2201
16341W        W17205  12.372  11.402  13.802 -0.2829  0.1616 -0.0263
16342W        W17206   9.122   6.548  13.870 -0.1237 -0.2171 -0.1739
16343W        W17207   6.315   8.410  10.843  0.0004  0.0681  0.0053
16344W        W17208  12.376  12.049  13.969 -0.1676 -0.0408 -0.0414
16345W        W17209   6.753   7.039   1.614 -0.0574 -0.0468 -0.2579
16346W        W17210   9.663  11.276   0.509  0.1511 -0.0014 -0.0723
16347W        W17211  10.297   7.141  13.148 -0.3018  0.2336 -0.1952
16348W        W17212  10.432   7.076   0.944 -0.0026 -0.4335 -0.1370
16349W        W17213  11.239   7.805  13.415 -0.3331  0.0076  0.1083
16350W        W17214  10.612  12.215  12.319  0.2377 -0.0954 -0.0440
16351W        W17215  11.140  12.302  11.058  0.0027  0.1122 -0.2027
16352W        W17216   9.920   8.305  11.438 -0.1545  0.0941  0.1123
16353W        W17217  10.566  10.323  13.191 -0.2215  0.0944  0.0326
16354W        W17218   8.253  10.021  12.716 -0.2322 -0.0022 -0.1977
16355W        W17219   8.584   9.347  13.800  0.1087 -0.0632  0.0682
16356W        W17220   9.556   9.279  12.984  0.0214  0.0883 -0.2922
16357W        W17221  11.163  11.105   1.810  0.0517  0.0817 -0.2513
16358W        W17222  12.348  11.138  11.951  0.0509 -0.3155  0.0387
16359W        W17223   9.348   7.830   0.523  0.2058  0.0171  0.1409
16360W        W17224   7.853   8.410   0.337  0.2728 -0.4160  0.4132
16361W        W17225  11.343  10.869   0.355 -0.0247 -0.0814 -0.1227
16362W        W17226  10.848   8.005   2.230  0.1306  0.2262  0.2605
16363W        W17227   7.966   8.619   9.160  0.0152  0.0075  0.3450
16364W        W17228   9.932   9.628   0.963 -0.2005 -0.3657  0.1916
16365W        W17229   9.764   9.110   2.030 -0.1751  0.1516  0.0044
16366W        W17230  10.622  10.190   1.811 -0.0201  0.1539 -0.4252
16367W        W17231  10.546   8.854   0.657  0.2018  0.0045  0.3430
16368W        W17232   8.845   5.995  12.939  0.0579  0.0810 -0.1097
16369W        W17233   8.384   5.038  12.919  0.2644  0.5234  0.4718
16370W        W17234  12.251  11.641   1.430  0.1417  0.0577  0.1096
16371W        W17235   9.396   5.625   2.958 -0.1983  0.0179 -0.1307
16372W        W17236   8.885  13.223  12.200  0.0503  0.0478 -0.0365
16373W        W17237   8.465   8.465   9.238 -0.0071  0.2731  0.1376
16374W        W17238   9.725  11.041  10.633  0.0421  0.2865 -0.0191
16375W        W17239   9.947   7.601  12.367 -0.0135 -0.0404 -0.1123
16376W        W17240   9.779  10.509  12.008  0.1882  0.1227 -0.0785
16377W        W17241  10.244   8.864   3.704 -0.1222  0.2113  0.1991
16378W        W17242   7.603   8.283   2.270 -0.0090 -0.0621  0.3288
16379W        W17243   8.416  10.450   0.989 -0.0040  0.0076  0.0349
16380W        W17244   8.755   5.742   0.296  0.1815  0.2172  0.1530
16381W        W17245   8.279   8.004  13.787 -0.0115 -0.2502 -0.0439
16382W        W17246   8.623   8.771  12.084  0.0702  0.2184 -0.0462
16383W        W17247   8.569   9.054  13.230  0.2285 -0.0196 -0.1904
16384W        W17248  10.667   9.887  13.453 -0.0056 -0.4877 -0.2151
16385W        W17249   9.754   6.791  11.677 -0.0100 -0.2570 -0.0652
16386W        W17250  10.186  10.350  12.794  0.2829 -0.0072  0.2826
16387W        W17251   5.833  11.777   0.816  0.0778 -0.2365  0.1773
16388W        W17252  10.958   8.097  10.955  0.0751  0.2058 -0.0955
16389W        W17253  10.635   8.767  13.676 -0.3116 -0.0602 -0.2160
16390W        W17254   8.490   7.152  13.422 -0.1086  0.1234 -0.0601
16391W        W17255  10.271  11.274   9.653  0.2564 -0.2216 -0.3334
16392W        W17256   9.922  10.690  12.448  0.0456  0.0190 -0.1330
16393W        W17257   9.203   7.724  13.931  0.1543 -0.1808  0.3398
16394W        W17258  11.050  10.705  14.004  0.0492 -0.2260  0.2702
16395W        W17259   7.638  11.000   0.958  0.3591 -0.1094 -0.0199
16396W        W17260   7.233   8.170  13.008  0.1429  0.3040  0.1624
16397W        W17261  12.970  11.352  12.824 -0.0418  0.1790 -0.2589
16398W        W17262  10.622   7.464   1.341  0.0133  0.2024 -0.1114
16399W        W17263  11.137  10.843   0.784  0.2810 -0.0088 -0.1120
16400W        W17264   9.430   4.557   0.198  0.1605 -0.2112 -0.1198
16401W        W17265   8.505   9.542  13.019  0.1883 -0.0508  0.3482
16402W        W17266   7.856   9.001   9.988  0.2172 -0.0285  0.0459
16403W        W17267  10.367   9.849   0.190  0.2862  0.2440  0.0510
16404W        W17268  10.231   9.660  10.205 -0.2467 -0.1683 -0.1185
16405W        W17269  10.148  13.567  13.620  0.3444  0.2093 -0.4566
16406W        W17270   5.025   4.636  11.675 -0.1519 -0.1331  0.0460
16407W        W17271  10.357  13.142   1.249 -0.0479  0.1451  0.0503
16408W        W17272   8.774  11.310   0.026 -0.0327  0.2388 -0.3334
16409W        W17273   7.816   8.588  11.779 -0.1408  0.1682 -0.2954
16410W        W17274  12.861  11.378  13.671  0.0658  0.0200 -0.0831
16411W        W17275   7.803   8.741   0.995  0.2655 -0.3687  0.1341
16412W        W17276   9.984   9.311   2.869  0.0581  0.0234  0.2859
16413W        W17277   8.572   6.981  10.246  0.0172  0.1279 -0.0048
16414W        W17278   9.424  10.497  12.345  0.0785 -0.0851  0.0155
16415W        W17279   9.634  11.855   2.036 -0.0897 -0.4470 -0.1797
16416W        W17280   8.674   7.852  12.767  0.1475  0.0449 -0.1676
16417W        W17281   9.422  10.466  13.994 -0.2553  0.1356 -0.3842
16418W        W17282  10.360  11.720  12.556  0.2278  0.1442 -0.2113
16419W        W17283   9.445   6.256   0.119  0.1629 -0.0032 -0.4697
16420W        W17284  10.899  10.308  13.634  0.1502 -0.0438 -0.0938
16421W        W17285  12.251  11.036   0.334  0.2371  0.4277  0.2077
16422W        W17286   7.518  11.775  11.544  0.2384 -0.3031 -0.1228
16423W        W17287   9.477   6.627  12.664 -0.2264  0.2283 -0.2665
16424W        W17288   7.833  10.358  11.817 -0.3088 -0.2189  0.1027
16425W        W17289   8.398  10.385  11.897  0.0673  0.0327 -0.2334
16426W        W17290   8.953   8.802  13.132  0.1905  0.2195  0.3663
16427W        W17291   7.166   5.375  13.447  0.2760 -0.2762  0.2393
16428W        W17292   9.586   9.343  11.889  0.1013  0.1128  0.0389
16429W        W17293  12.793   9.858  13.296  0.0764  0.0132  0.2394
16430W        W17294   8.376  11.087   0.233  0.0180 -0.1042 -0.1836
16431W        W17295  10.124   9.193  13.784 -0.2209 -0.1119  0.0253
16432W        W17296  10.355   9.134  11.295 -0.0382  0.2168  0.0325
16433W        W17297   9.795  10.219  13.147  0.0523  0.4318  0.1954
16434W        W17298   5.196   4.720   0.278 -0.1311 -0.0076 -0.3018
16435W        W17299   9.948   8.810  11.644  0.2948 -0.0456 -0.2499
16436W        W17300   8.193   9.935  13.243  0.1881  0.2970  0.2458
16437W        W17301  10.121  11.176  12.420  0.2786 -0.0213  0.2774
16438W        W17302   9.115  11.775   1.081 -0.2472  0.0606 -0.1710
16439W        W17303   7.323   8.089  10.183  0.3561 -0.2508 -0.0591
16440W        W17304  10.170   7.953  12.756 -0.0727 -0.4324  0.0631
16441W        W17305  10.306  10.710  12.002  0.1406  0.2511  0.1979
16442W        W17306   8.132   5.552  11.110 -0.4607  0.0710 -0.0127
16443W        W17307  10.823   8.981   0.104 -0.2623 -0.2321  0.0141
16444W        W17308   9.225  10.931  11.863 -0.0742 -0.3365  0.0523
16445W        W17309  11.340   9.085   1.175 -0.0970 -0.0142 -0.0845
16446W        W17310   9.819  11.674  11.641  0.0816  0.0043  0.1939
16447W        W17311   9.614   0.623  12.593  0.2101 -0.2845  0.2705
16448W        W17312   9.291   5.313  13.163 -0.2327  0.2933  0.0998
16449W        W17313   8.683   8.772  12.649  0.0985  0.0804 -0.1849
16450W        W17314   9.359   7.504  11.197  0.0645 -0.1373 -0.2050
16451W        W17315   9.718   8.398  13.596  0.2315 -0.0287  0.1272
16452W        W17316   8.066   9.721  13.764  0.0095 -0.0378  0.0956
16453W        W17317   8.814   4.921  13.858 -0.3856  0.2722 -0.0513
16454W        W17318   7.987   7.952   0.416 -0.0755  0.0685 -0.1375
16455W        W17319  11.675  10.377   1.815  0.0802 -0.2423  0.0566
16456W        W17320  10.673  12.854  12.886  0.3409 -0.2435  0.5202
16457W        W17321  10.180   8.553  13.629 -0.1237  0.3146  0.4202
16458W        W17322   8.528   7.104  10.749 -0.1097 -0.0014 -0.4666
16459W        W17323  10.815  10.304  12.767  0.1766  0.0461  0.0872
16460W        W17324   8.794   7.983  10.674  0.1422  0.1604  0.1550
16461W        W17325  10.877   7.064  13.445  0.0267 -0.0795  0.0920
16462W        W17326  10.114  10.611  13.271  0.0471  0.1390 -0.1225
16463W        W17327   9.968  10.814   1.307 -0.0216  0.0372 -0.0967
16464W        W17328  12.288   9.071  10.600  0.2610 -0.0662  0.0137
16465W        W17329  10.470   6.338   1.418 -0.3698 -0.0661 -0.3279
16466W        W17330  11.232   8.832  12.555  0.2203 -0.1147 -0.1586
16467W        W17331   8.038   7.030   0.842  0.2817  0.0699  0.0971
16468W        W17332   9.216   7.833   1.189  0.3309 -0.0054  0.1501
16469W        W17333   8.944  10.956  10.627 -0.0413 -0.0763 -0.4604
16470W        W17334  10.665   9.843  12.926  0.1538  0.0147  0.0275
16471W        W17335   9.132   9.546  12.264  0.2057  0.0129 -0.2192
16472W        W17336  13.212  10.415   3.425  0.0419 -0.4816 -0.3123
16473W        W17337  10.091  13.089  10.660  0.2237  0.2257  0.0782
16474W        W17338   9.928   9.652   2.046  0.2571  0.1376  0.2264
16475W        W17339   5.846   7.882  13.610 -0.0387  0.1886  0.0324
16476W        W17340  12.721   9.688  12.488 -0.1954  0.0292 -0.1042
16477W        W17341  10.738   9.777   0.895  0.0586 -0.1195 -0.0173
16478W        W17342  12.538   7.927  13.107 -0.1022  0.0848  0.0157
16479W        W17343  11.509   9.434  13.380 -0.1349 -0.1746 -0.3467
16480W        W17344  10.274   7.811   0.417  0.0136 -0.1378 -0.1761
16481W        W17345   9.514  12.364  10.661 -0.1291 -0.0567 -0.0989
16482W        W17346   9.006  12.475  10.705 -0.1663 -0.0265  0.0355
16483W        W17347  10.119   8.049  13.399  0.1778 -0.3295 -0.0888
16484W        W17348   9.108  12.680   2.070  0.0786  0.0889 -0.1502
16485W        W17349  10.385   0.295   1.273 -0.0614 -0.2958  0.0515
16486W        W17350   9.029   9.513   0.528  0.0737  0.1511  0.2481
16487W        W17351   7.840  10.959   2.568 -0.2494  0.1701 -0.1106
16488W        W17352  11.919   0.995  13.652  0.0294  0.2067 -0.2298
16489W        W17353   5.231  11.247   3.817  0.3421 -0.2563 -0.1121
16490W        W17354   7.221  11.188   5.191  0.2034 -0.0317 -0.4773
16491W        W17355  10.033  11.865   2.511 -0.2498 -0.2920 -0.4948
16492W        W17356   9.950  10.183   0.186 -0.1837 -0.0297 -0.0456
16493W        W17357  10.569  13.748   3.654  0.0261 -0.0496  0.1227
16494W        W17358   8.406  10.758   1.945  0.0790  0.2296 -0.0912
16495W        W17359   7.597   4.636   3.129 -0.1284 -0.2145  0.1954
16496W        W17360  11.278   1.992   2.471 -0.1272  0.2119  0.1790
16497W        W17361   9.960  11.165  13.220  0.2950 -0.1948 -0.0808
16498W        W17362   8.507  12.185   5.441  0.1327  0.0966 -0.1718
16499W        W17363  13.602  10.857   1.926  0.3064  0.0205 -0.1898
16500W        W17364  11.473   1.221   1.753  0.2856  0.1856  0.2323
16501W        W17365   7.722  12.207   0.381 -0.0335  0.2441  0.2964
16502W        W17366   7.941  12.380   2.255 -0.0806  0.2642  0.0942
16503W        W17367   6.708  10.885   3.052  0.2486 -0.1045 -0.0523
16504W        W17368   5.673  13.564   4.209 -0.0937  0.1122 -0.0576
16505W        W17369   9.021  12.066   4.389 -0.0632 -0.0307 -0.0542
16506W        W17370   6.966   0.347   4.290  0.2418 -0.1802 -0.0836
16507W        W17371  10.739  13.138   3.032 -0.0457  0.0986 -0.0737
16508W        W17372   9.230  12.458   3.608 -0.1640 -0.2120  0.0398
16509W        W17373   7.132  13.934   3.873  0.1739  0.0084 -0.0974
16510W        W17374   8.564   0.545   4.793 -0.1307 -0.0806 -0.0880
16511W        W17375  11.574   0.439   2.708  0.0832 -0.0137  0.0091
16512W        W17376   8.804  11.647   2.112  0.1393  0.2523  0.3465
16513W        W17377   6.759  10.273   3.967 -0.1280 -0.1959 -0.1379
16514W        W17378  11.960  13.494   6.794  0.1775 -0.2923 -0.1910
16515W        W17379   8.022  11.040   2.050  0.1230 -0.0755  0.2529
16516W        W17380   9.612  12.646   3.849  0.0211  0.0605  0.0435
16517W        W17381   9.962  13.092   3.473 -0.0848 -0.3606 -0.1411
16518W        W17382   8.487  11.656   2.716 -0.2113 -0.0277 -0.0346
16519W        W17383  10.837  12.619   3.091  0.1073 -0.2999  0.4276
16520W        W17384  12.180   0.175   3.408 -0.0357  0.2235  0.0070
16521W        W17385  12.614  12.544   2.685  0.0545  0.0192  0.2245
16522W        W17386   6.573   9.444   3.662  0.0899  0.1513 -0.3210
16523W        W17387  11.788  11.012   4.079 -0.1708 -0.1245 -0.1053
16524W        W17388   9.997  12.069   1.635  0.1944 -0.1325 -0.0296
16525W        W17389   9.327  11.832  11.890 -0.1092 -0.2408 -0.0791
16526W        W17390   9.941  12.514  13.874  0.0022 -0.0953 -0.2776
16527W        W17391   8.119  13.493   3.945 -0.2922  0.2500  0.1256
16528W        W17392   8.256   7.858   0.996  0.5933  0.0280 -0.0570
16529W        W17393   8.009   0.008   1.833  0.0561 -0.1509  0.2040
16530W        W17394   8.221  11.662   1.457  0.0145  0.0348  0.4210
16531W        W17395  10.173   0.425   3.791 -0.2017  0.5784 -0.3838
16532W        W17396  12.490  13.905   0.081  0.2401 -0.0829 -0.0193
16533W        W17397   8.331  13.783   5.503 -0.2320  0.2213 -0.0875
16534W        W17398  10.103  11.075   5.282  0.1284  0.1416  0.0787
16535W        W17399   8.914  12.337   0.070  0.0765  0.1287  0.4373
16536W        W17400   7.156  10.609   2.927  0.0979 -0.1944  0.1409
16537W        W17401  11.949   9.991   2.556  0.0386  0.0962  0.3082
16538W        W17402   8.255   9.409  13.421  0.2916  0.1219  0.2277
16539W        W17403   9.620  11.688   0.173  0.0649  0.2514  0.1855
16540W        W17404   8.465  13.056   1.033 -0.4037 -0.0910  0.0373
16541W        W17405   8.063  11.545   3.352 -0.0057  0.2709  0.0919
16542W        W17406   9.854  12.674   2.748  0.3248  0.0566  0.2808
16543W        W17407   9.250  12.430   4.142  0.0879 -0.1613  0.2292
16544W        W17408   8.483  11.705   5.655  0.0729 -0.0201 -0.2103
16545W        W17409   8.074  13.239  13.433 -0.1187  0.0108  0.3141
16546W        W17410   5.284  13.731   4.005  0.0854 -0.0920 -0.0075
16547W        W17411   9.095  10.914   0.050  0.1200  0.1697  0.2548
16548W        W17412   7.996  13.311   4.723 -0.0649  0.1090 -0.0106
16549W        W17413   5.828  12.313   0.792  0.0498  0.0173  0.1777
16550W        W17414   7.166  13.732   3.045 -0.0007 -0.0335  0.2233
16551W        W17415   6.792  10.500   1.157 -0.2501  0.1745 -0.0331
16552W        W17416   6.427   9.769   4.014 -0.0790  0.0808  0.2338
16553W        W17417   8.930  11.602   5.554 -0.1540 -0.0486  0.1377
16554W        W17418   9.285  13.049  13.086 -0.2918 -0.0657  0.2717
16555W        W17419   9.924   1.471   6.008 -0.0422  0.0895 -0.0214
16556W        W17420   8.912   9.003   5.671  0.0251 -0.2231  0.1216
16557W        W17421  11.609   0.625   4.926  0.3520  0.1529  0.0650
16558W        W17422  10.460  10.100   3.909 -0.3589 -0.3673 -0.1232
16559W        W17423   9.529   9.570   0.501 -0.2506 -0.1381 -0.0696
16560W        W17424  12.017  13.801   4.443  0.0228 -0.0647 -0.0975
16561W        W17425   7.911  10.423  12.712 -0.3634  0.0675 -0.3802
16562W        W17426   6.015  11.514   3.169 -0.1220  0.2068 -0.0340
16563W        W17427   8.686  13.776   0.034  0.1905 -0.1553  0.2452
16564W        W17428  10.042  12.950   2.104 -0.0877  0.2657  0.1596
16565W        W17429   7.770  11.915   2.375  0.0060  0.0346  0.1426
16566W        W17430   9.769  11.270   4.137  0.0939 -0.1787 -0.3108
16567W        W17431   9.505   1.870   0.860 -0.0722  0.2426  0.0606
16568W        W17432   7.166  11.901   4.919 -0.1082 -0.0247  0.0137
16569W        W17433  10.919  13.990   3.044  0.1468  0.0657  0.3008
16570W        W17434  10.505  11.423   4.913  0.3565  0.0917  0.0936
16571W        W17435  10.675  13.622  13.592 -0.2007 -0.1231  0.2938
16572W        W17436   9.330  11.145   3.954  0.0514  0.2128 -0.4915
16573W        W17437  10.822  10.681   2.456 -0.6119 -0.3984  0.4021
16574W        W17438   7.885  10.890  13.822  0.1787 -0.2821 -0.0946
16575W        W17439   8.090  13.151   2.322  0.0858 -0.0170  0.0773
16576W        W17440   7.661  12.652   5.477 -0.1074 -0.3932 -0.0146
16577W        W17441   9.933  13.191   2.685 -0.1375 -0.1824 -0.0214
16578W        W17442   7.280  10.927   2.512 -0.0569  0.1058  0.0650
16579W        W17443  11.411  10.956   3.371 -0.1602  0.0703 -0.1382
16580W        W17444   9.700  10.349   1.161  0.1038 -0.0293  0.2798
16581W        W17445   9.816  11.708   3.073 -0.0284 -0.0879  0.1867
16582W        W17446   8.206  12.460  13.645 -0.1919 -0.0732 -0.3676
16583W        W17447   9.475   0.279   0.269  0.1433 -0.0163 -0.2420
16584W        W17448   8.782  10.902   4.131  0.1516 -0.3269 -0.1471
16585W        W17449   8.910  12.776   3.084  0.1506  0.0292 -0.4366
16586W        W17450   9.781  12.252   2.348  0.1488  0.2156 -0.1439
16587W        W17451   9.966  10.713   2.115 -0.0761  0.1156 -0.0426
16588W        W17452   9.346  10.281   2.096  0.0965 -0.2705 -0.0855
16589W        W17453  10.600  12.733   2.154 -0.0838  0.2515 -0.1301
16590W        W17454   8.572  12.970   2.299  0.2680 -0.0877 -0.0825
16591W        W17455   8.907  10.151   2.900  0.0247 -0.2027  0.2020
16592W        W17456  10.288  10.202   3.426 -0.0122  0.4409 -0.0120
16593W        W17457   9.855  10.733   2.558  0.1079  0.0622  0.2014
16594W        W17458   5.132  10.214   2.646 -0.1401 -0.2419  0.1221
16595W        W17459  12.476  11.074   0.845 -0.2628 -0.3598 -0.0775
16596W        W17460  11.536   1.544   6.429  0.0718 -0.0968  0.2138
16597W        W17461   9.409  10.861   0.452  0.0916  0.1425  0.2119
16598W        W17462  11.925  11.737   2.080 -0.0958  0.2549  0.0599
16599W        W17463   7.542   9.624   4.081 -0.0510 -0.0431  0.1693
16600W        W17464   6.717  13.181   1.637  0.3314  0.0441  0.3193
16601W        W17465  10.963  10.879   5.441  0.0588 -0.0486  0.1066
16602W        W17466   9.871   8.559   0.058  0.0386  0.1214  0.2584
16603W        W17467  10.820   8.372   1.425  0.2687  0.0413  0.2323
16604W        W17468   5.801  12.708   3.681 -0.1625 -0.0901 -0.1722
16605W        W17469   9.634   4.132   6.067 -0.0441  0.1412  0.0284
16606W        W17470   8.356   7.105   0.040 -0.1941  0.1033 -0.0635
16607W        W17471   8.014  10.334   2.707  0.2026 -0.1623 -0.1852
16608W        W17472   8.132  13.370   1.508  0.0805  0.0900 -0.0229
16609W        W17473   7.801  11.432   0.679  0.1371  0.1776 -0.0319
16610W        W17474   6.616  11.621   3.109  0.1415 -0.0025  0.0469
16611W        W17475   7.997  12.485   3.504 -0.3764  0.0248  0.3635
16612W        W17476  10.663  12.218   2.224  0.0619  0.3450  0.0579
16613W        W17477   6.198  13.247   4.611 -0.1525  0.0603  0.3560
16614W        W17478   8.474  12.892   0.489 -0.3559  0.2526  0.0063
16615W        W17479   9.244  10.810   1.824 -0.1623 -0.1399  0.2258
16616W        W17480   9.579  11.837   5.128  0.2448 -0.1754 -0.0854
16617W        W17481   8.606  11.037   7.058  0.1028 -0.4376 -0.1521
16618W        W17482   8.873  11.442   4.077 -0.1575  0.2430  0.1935
16619W        W17483  11.287  13.492   6.462 -0.1630  0.0569 -0.0685
16620W        W17484  12.124  12.161   1.252  0.0553  0.1008 -0.0849
16621W        W17485   7.387  11.246   1.714 -0.4645 -0.0418 -0.1268
16622W        W17486   9.192  10.287   3.327  0.0048 -0.1453 -0.2135
16623W        W17487   9.376  13.576   1.925  0.3789  0.2284  0.0770
16624W        W17488   9.222  12.442   4.660 -0.2117  0.3585  0.0992
16625W        W17489  11.969  13.085   1.991 -0.2207  0.0845 -0.0866
16626W        W17490   8.030  11.616   1.926 -0.3179  0.1785  0.1046
16627W        W17491  10.040   0.872   0.776  0.1991  0.2937 -0.2122
16628W        W17492  10.259  11.939   2.077 -0.3231 -0.1229  0.0436
16629W        W17493  13.252  12.789   4.355 -0.0271 -0.1839 -0.2969
16630W        W17494   7.117   0.769   0.236 -0.0116 -0.1343  0.0093
16631W        W17495   9.330  10.759   7.563  0.1567 -0.1351  0.2731
16632W        W17496   8.418  11.274   2.045 -0.1497  0.0676 -0.2349
16633W        W17497  11.594  12.550   2.521 -0.0206  0.2572 -0.0094
16634W        W17498   8.397  11.940   0.617  0.1470 -0.1363 -0.3051
16635W        W17499  10.302  12.760   0.104  0.0907 -0.1682  0.0662
16636W        W17500   8.980  12.713  12.037 -0.1596 -0.2005  0.1704
16637W        W17501   8.502  13.443   2.532  0.1547  0.0998  0.0827
16638W        W17502  12.157  11.214   1.834 -0.1341  0.1121  0.1059
16639W        W17503   9.794   8.393   3.149 -0.3199  0.1857  0.1468
16640W        W17504   7.574  13.311   4.216  0.0130  0.1768  0.2076
16641W        W17505   8.064   0.126   2.470  0.0052 -0.2960  0.1409
16642W        W17506   9.464  11.629   0.755 -0.2649  0.1206 -0.1321
16643W        W17507   9.629  13.472   0.025 -0.2029  0.0895  0.1151
16644W        W17508   8.200  12.558   4.028  0.1303 -0.2183 -0.0530
16645W        W17509   8.886  11.682   0.647  0.1242  0.0414  0.2791
16646W        W17510   7.759  11.073   4.545  0.0682 -0.0492  0.1158
16647W        W17511   6.476   9.914   1.899  0.3922 -0.1766 -0.0998
16648W        W17512  10.385  12.704   0.820  0.1244 -0.0227  0.1568
16649W        W17513   7.970  11.683   3.916 -0.0219 -0.3671  0.1513
16650W        W17514   6.453   9.989   0.806  0.0626 -0.1534 -0.0182
16651W        W17515  13.051  11.836   0.433  0.2988  0.3179  0.2251
16652W        W17516   8.288   9.652   0.180  0.0466  0.1967 -0.0208
16653W        W17517   7.906  10.160   3.807 -0.2367  0.2053  0.1620
16654W        W17518   9.789   1.136   0.097 -0.2029  0.0009  0.2255
16655W        W17519   6.320   9.126   0.199  0.1848 -0.2973 -0.1419
16656W        W17520   8.143  11.235   2.935  0.1112 -0.2442  0.0008
16657W        W17521   7.657  12.709   0.111  0.0710 -0.0642 -0.1267
16658W        W17522   6.569  13.556   3.288 -0.0921 -0.2231  0.3198
16659W        W17523   9.694  13.012   3.062 -0.0726 -0.0901 -0.0071
16660W        W17524   4.890   2.328  13.118  0.0303  0.2001  0.1575
16661W        W17525   9.239  10.878   4.973 -0.2141  0.0622 -0.0852
16662W        W17526   9.034  11.685   3.557  0.1588  0.2303  0.3880
16663W        W17527   9.686  13.754   2.390 -0.1770  0.2199 -0.4028
16664W        W17528  12.100   9.708   3.436  0.0773 -0.0278 -0.1117
16665W        W17529  10.245  12.448   2.486  0.1095  0.1699 -0.3081
16666W        W17530   9.872  12.187   2.994  0.1507 -0.0170  0.0608
16667W        W17531   9.469  12.573   3.151 -0.0240 -0.0531 -0.0441
16668W        W17532   9.679  11.144   5.528  0.0390 -0.0527  0.2884
16669W        W17533  11.797  12.611   6.349  0.0802 -0.0533 -0.2659
16670W        W17534  10.938  12.195   4.574 -0.2129 -0.0310 -0.0256
16671W        W17535  12.139  12.686   3.533  0.3491 -0.1352 -0.0033
16672W        W17536   8.946  10.816   1.413 -0.2346  0.1543 -0.0730
16673W        W17537  11.778   1.332   2.979 -0.3379  0.1843  0.0878
16674W        W17538   5.903   9.182   4.257  0.2863  0.0903  0.0294
16675W        W17539   9.776   2.029   1.793  0.2916  0.0107 -0.0194
16676W        W17540  12.868  12.852   3.154 -0.0989 -0.4139 -0.0350
16677W        W17541  10.517  13.705   3.078 -0.1153 -0.1722  0.1709
16678W        W17542   9.184  11.831   2.393 -0.2551  0.0841 -0.0334
16679W        W17543  11.160  11.000   4.919 -0.3696 -0.1846  0.0551
16680W        W17544   8.167   0.360  13.626 -0.0558 -0.1093 -0.0450
16681W        W17545   8.873   0.714   0.286 -0.1342  0.2958  0.2642
16682W        W17546   7.663  12.313   2.625  0.0173  0.1802  0.2778
16683W        W17547  12.364  12.821   4.444 -0.2466  0.0999 -0.0347
16684W        W17548   8.913   9.111   2.556  0.3426 -0.1142 -0.1857
16685W        W17549   9.281  12.959   3.437 -0.1286  0.1562  0.4211
16686W        W17550  10.626   1.609   0.062 -0.0438  0.3246  0.0631
16687W        W17551   5.635   1.188   4.339  0.2600  0.0949 -0.0927
16688W        W17552   7.509   9.671   1.777  0.1907 -0.1676 -0.0329
16689W        W17553  10.344  10.774   2.486 -0.2476 -0.0243 -0.2304
16690W        W17554   9.577  13.426   3.414  0.0096  0.3864  0.3495
16691W        W17555   9.444   9.928   1.315  0.1303 -0.2915 -0.1016
16692W        W17556   8.594  13.305   3.852  0.0218  0.0431 -0.2125
16693W        W17557   8.516   1.445   4.178 -0.0946  0.2931 -0.2807
16694W        W17558   7.231  11.112   1.275 -0.0059 -0.0645 -0.2330
16695W        W17559   8.596  13.027   2.817  0.1246 -0.0241 -0.3841
16696W        W17560  11.665   0.037   1.242  0.0411  0.0656 -0.3698
16697W        W17561  10.255  10.423   1.088 -0.1950  0.0984  0.2479
16698W        W17562   9.328  10.363   1.572 -0.1763  0.0342  0.0692
16699W        W17563   8.248  12.586   5.658 -0.1062  0.3656  0.3442
16700W        W17564  10.363   0.099   0.457  0.1846  0.5009 -0.0674
16701W        W17565   9.075  13.362   2.744  0.1735 -0.3622  0.0649
16702W        W17566   7.978  10.174   3.337  0.0367 -0.1910  0.1514
16703W        W17567   8.562  11.265   4.414 -0.0708  0.0374 -0.1887
16704W        W17568   9.151  13.018   3.901 -0.1233  0.1032 -0.1411
16705W        W17569   5.973   8.196   4.285  0.2613 -0.1039  0.0386
16706W        W17570   8.645   1.209   0.080 -0.3002 -0.1356  0.0637
16707W        W17571   7.777  13.093   3.728 -0.1428 -0.3442 -0.1554
16708W        W17572   8.411  12.946   1.495  0.2723  0.0501  0.3588
16709W        W17573   9.947   0.532   1.100  0.2019 -0.0125 -0.1220
16710W        W17574  10.195  13.001   3.054 -0.1057 -0.0909 -0.0764
16711W        W17575  11.160  10.206   3.010  0.1980  0.4150 -0.0034
16712W        W17576   9.777  12.350   4.184  0.3156  0.1448  0.1449
16713W        W17577  10.862  13.203   4.321 -0.1743 -0.1623  0.0183
16714W        W17578  10.600  10.582   3.647  0.0245  0.0355 -0.1296
16715W        W17579   4.328   8.432   3.792 -0.1594 -0.2447  0.2596
16716W        W17580   8.916  10.739   2.233  0.0205  0.0942 -0.1970
16717W        W17581   9.246  10.349   0.897  0.2445  0.0815 -0.0999
16718W        W17582   6.425   0.036   3.622  0.0282  0.1934  0.0686
16719W        W17583  10.403  13.623   0.502  0.1104  0.0352 -0.0873
16720W        W17584  10.687  11.164   2.754  0.1434  0.1692  0.1180
16721W        W17585   6.936   9.409   3.060 -0.1279 -0.0115  0.1218
16722W        W17586  12.619   0.823   3.044  0.1233  0.0882 -0.1182
16723W        W17587  10.085  11.765   3.543 -0.0267 -0.0306  0.1536
16724W        W17588  10.206  12.379   3.777 -0.1082  0.1266 -0.2024
16725W        W17589   8.925  12.122   1.986  0.0583  0.0828 -0.1735
16726W        W17590  12.263  10.010   0.003  0.1789  0.2559  0.3756
16727W        W17591  10.174  12.831  13.120 -0.0556  0.1136  0.0303
16728W        W17592   9.096  13.858   1.041 -0.0090 -0.1358 -0.1708
16729W        W17593  11.216   9.933   0.853 -0.3260  0.0343  0.0273
16730W        W17594  10.744   9.654   3.950 -0.0941  0.2674  0.2918
16731W        W17595   7.355  10.358  11.893 -0.1753  0.2133 -0.0681
16732W        W17596   9.421  12.442   2.650  0.3337 -0.0449  0.0814
16733W        W17597   7.829  10.821   0.306  0.2001 -0.0034  0.2148
16734W        W17598   8.516  10.943   1.085 -0.1792 -0.0867 -0.5166
16735W        W17599   9.453  13.056   1.770 -0.0507  0.0533  0.0450
16736W        W17600   9.461   9.815   2.375  0.1807 -0.2285 -0.0607
16737W        W17601   9.303  13.252   0.927 -0.0461  0.1938 -0.1403
16738W        W17602   4.528   7.288   5.614  0.2258  0.2354 -0.0966
16739W        W17603   6.928  11.988   2.152 -0.0177  0.2593 -0.2929
16740W        W17604   9.734  13.335   1.226  0.1655  0.0193 -0.3629
16741W        W17605  10.253  12.359   1.203 -0.2943 -0.3756  0.1159
16742W        W17606  11.698   1.762   7.046 -0.0425 -0.1150 -0.0063
16743W        W17607   9.054  13.090   2.318 -0.0684  0.1612 -0.1197
16744W        W17608  11.337  11.548   2.674  0.2447 -0.0452 -0.0725
16745W        W17609   7.764  11.980   3.515  0.0700 -0.1302 -0.1180
16746W        W17610  10.440  10.620   2.037 -0.0274  0.1899 -0.4577
16747W        W17611  10.910   9.938   4.347 -0.0593 -0.0561  0.1909
16748W        W17612   7.877  10.090   2.287 -0.2571  0.1953 -0.2606
16749W        W17613  10.187  13.151   4.947  0.0049 -0.0117  0.0397
16750W        W17614   4.171  13.223   1.839 -0.0324  0.0223 -0.0496
16751W        W17615   6.586   2.205   1.876 -0.3079 -0.0228 -0.0515
16752W        W17616   8.519  12.445   2.324 -0.3198 -0.1980 -0.1117
16753W        W17617  11.390  12.096   2.653  0.0632  0.1145 -0.0057
16754W        W17618   7.990  13.994   5.297  0.1099  0.1129  0.4002
16755W        W17619   9.055  12.331   2.994 -0.1917 -0.0056 -0.1710
16756W        W17620   8.615  10.854   3.197 -0.0753 -0.1498  0.1282
16757W        W17621  10.100  12.923   3.906 -0.0884  0.2283 -0.0038
16758W        W17622   9.263   1.299   2.412 -0.0332 -0.0775 -0.3060
16759W        W17623   9.383  10.735   1.174  0.0083  0.0681 -0.0252
16760W        W17624   7.149  10.961   2.063  0.1151  0.0977 -0.3061
16761W        W17625   8.310  12.096  13.204  0.0086 -0.0654  0.1975
16762W        W17626   8.465   0.019   2.729 -0.2224  0.0495 -0.0719
16763W        W17627   7.209  13.203   2.065 -0.2581 -0.0642 -0.2653
16764W        W17628   9.555  11.995   4.541  0.1542  0.2925 -0.1048
16765W        W17629  11.135  13.220   1.770  0.0010  0.0861  0.1406
16766W        W17630  12.062   0.057   3.976  0.1316 -0.1938  0.1723
16767W        W17631  10.814  12.723   3.899 -0.0034  0.0418  0.1672
16768W        W17632   9.558   2.570   5.054 -0.0424  0.3487  0.0403
16769W        W17633  10.723   0.540   2.358  0.0075 -0.3560 -0.3676
16770W        W17634   8.150  13.702   2.915 -0.3580 -0.3374 -0.0668
16771W        W17635  10.202   7.050  12.082 -0.1057  0.3863  0.1585
16772W        W17636   7.924   0.729  13.995  0.2126 -0.0314 -0.0732
16773W        W17637   8.257  11.697   4.658 -0.0872 -0.2443  0.0066
16774W        W17638   8.108  10.995   0.706 -0.1131  0.0484  0.1658
16775W        W17639   9.809  13.396   1.883  0.1830  0.1186  0.1422
16776W        W17640   7.059   1.660   1.909  0.0010  0.4982 -0.2954
16777W        W17641   9.157  13.252  13.978 -0.0333  0.1502  0.0918
16778W        W17642   7.648  10.390   0.356 -0.1530  0.0387 -0.1625
16779W        W17643   6.208  12.860   1.751 -0.2399  0.2834  0.0902
16780W        W17644   8.600  11.713   1.121  0.0401 -0.1459  0.1278
16781W        W17645  11.839  13.017   4.180 -0.1153  0.0119  0.0945
16782W        W17646  10.860  11.720   1.008  0.0961  0.1225 -0.1552
16783W        W17647   8.799  13.722   4.057 -0.1888 -0.1877 -0.0891
16784W        W17648   7.028   1.290   7.173  0.4085 -0.0634  0.1510
16785W        W17649  10.548  11.305   1.153 -0.0842  0.2124 -0.0038
16786W        W17650   8.862  11.945   3.954 -0.0714  0.0801 -0.3667
16787W        W17651   8.781  11.049   0.499 -0.4319 -0.3555 -0.2340
16788W        W17652   6.012   9.460  13.763 -0.1821 -0.1350  0.0387
16789W        W17653   8.796  11.837   0.157  0.0018  0.2121 -0.0408
16790W        W17654  10.335  13.919   2.303 -0.3072  0.0947 -0.2246
16791W        W17655  10.018  10.752   3.409  0.0106  0.1065 -0.0550
16792W        W17656  11.334  10.559   2.126 -0.1036 -0.2713  0.0517
16793W        W17657   9.277  13.939   2.753  0.0440  0.1276  0.2490
16794W        W17658  11.337  10.693   1.631 -0.1091 -0.6304  0.0534
16795W        W17659  10.948  11.151   0.218  0.1779  0.2475  0.1155
16796W        W17660  13.175  12.238   1.969 -0.2285  0.2211  0.0737
16797W        W17661   9.346  10.203  12.946 -0.1507  0.0928 -0.0292
16798W        W17662  11.309  12.752   3.403 -0.1011 -0.0686  0.2887
16799W        W17663  11.013  13.458  12.709 -0.0413 -0.2446  0.4271
16800W        W17664   9.864  12.599   5.778  0.1163  0.3518 -0.1793
16801W        W17665   9.810   0.732   2.830 -0.0446 -0.0521 -0.1859
16802W        W17666  10.380  11.449   3.033  0.2359 -0.0852  0.0750
16803W        W17667   7.812   8.824   4.275  0.0136  0.0705  0.1203
16804W        W17668   8.833   0.153   4.198 -0.0718  0.1728 -0.0358
16805W        W17669   7.258  11.205   4.675  0.0423  0.1039 -0.1750
16806W        W17670   7.742  12.528   4.909  0.0669 -0.0432  0.1614
16807W        W17671   6.238   0.810  13.313  0.0305  0.1677  0.1457
16808W        W17672   7.401  12.331   2.150 -0.2099  0.0528  0.1107
16809W        W17673   8.895  11.368   2.903  0.0027 -0.2315 -0.3779
16810W        W17674   9.910  12.637   3.401  0.0876 -0.2565  0.3253
16811W        W17675   9.979  11.537   6.340 -0.1485  0.0086  0.1069
16812W        W17676   8.679  13.778   5.110  0.2789  0.2134  0.1513
16813W        W17677  12.025  13.458   7.462  0.1895 -0.2164 -0.0552
16814W        W17678   7.244  11.683   4.492  0.2100 -0.0828  0.2765
16815W        W17679  10.547  12.815   2.697  0.2526 -0.1121 -0.0978
16816W        W17680   6.459  11.374   1.442  0.2191 -0.2276  0.0265
16817W        W17681   9.777  10.237   2.415 -0.2584  0.1801  0.2958
16818W        W17682   7.606  13.597   6.097  0.1074 -0.0632 -0.2607
16819W        W17683   9.160  13.390   1.475  0.2192  0.0644 -0.0474
16820W        W17684   7.778  11.393  13.192 -0.1191  0.0679 -0.0773
16821W        W17685  10.241  13.526   7.044  0.1034 -0.1647  0.1236
16822W        W17686  11.278  13.977   6.703  0.2510  0.0439  0.1271
16823W        W17687  10.471  11.636   2.480  0.1788  0.1805 -0.1305
16824W        W17688   7.841  10.528   7.184 -0.0300 -0.2149  0.1427
16825W        W17689   8.927  10.304   1.855  0.2263 -0.2134  0.1566
16826W        W17690   8.493  10.636   5.137  0.1672 -0.0985  0.2780
16827W        W17691   8.056  11.980   7.859  0.1514 -0.0563  0.3481
16828W        W17692   7.501  10.470   3.540 -0.3937 -0.1230 -0.0048
16829W        W17693   9.310   9.854   4.149 -0.1101 -0.0533  0.0653
16830W        W17694  11.517  11.446   8.129  0.2563 -0.2738 -0.1670
16831W        W17695   7.768  12.700   6.962  0.2944 -0.0739  0.1858
16832W        W17696   7.427  12.299   8.601 -0.1597 -0.1365  0.2589
16833W        W17697   9.391  11.983   3.204  0.0141 -0.0494 -0.0747
16834W        W17698   7.265  11.112   5.885 -0.1177  0.0997  0.0643
16835W        W17699   7.623  12.315   7.240 -0.1717 -0.0371 -0.0368
16836W        W17700   9.642  11.405   5.972  0.0448 -0.0102  0.1832
16837W        W17701  11.691  13.919   7.439 -0.1761  0.1156  0.1612
16838W        W17702  10.937  13.893   6.309 -0.2031  0.0044 -0.0975
16839W        W17703   9.181   0.738   7.537  0.1833  0.1486 -0.0439
16840W        W17704   6.980  12.361   6.445 -0.2334  0.1221 -0.1493
16841W        W17705   7.512   9.135   3.395 -0.4418  0.1676 -0.0889
16842W        W17706   8.637  13.579   7.934 -0.0293  0.0393 -0.0570
16843W        W17707  10.958  12.920   8.401  0.0259  0.0708  0.0595
16844W        W17708   5.617  13.329   5.601  0.2957 -0.1684 -0.1656
16845W        W17709   7.339  11.699   8.386  0.2625 -0.0798 -0.2892
16846W        W17710   8.835  11.053   5.202  0.4171 -0.1493 -0.1599
16847W        W17711   9.632  10.458   6.205  0.2147  0.3332  0.1399
16848W        W17712  10.813   1.074   9.678 -0.1172  0.2226 -0.1523
16849W        W17713   9.343   0.697   8.734  0.0667  0.4863 -0.1444
16850W        W17714   7.581   0.034   8.635  0.0864 -0.2465 -0.5321
16851W        W17715   8.142  10.604   8.343 -0.0733  0.1613 -0.0605
16852W        W17716   9.403   0.617   5.431  0.0034 -0.1125 -0.3641
16853W        W17717   8.418   9.714   5.298  0.0136  0.1843  0.1466
16854W        W17718   7.910   0.457   5.939 -0.0521 -0.1200  0.2222
16855W        W17719  11.607  13.105   6.634 -0.3219  0.0591 -0.1234
16856W        W17720  10.021  11.672   4.504 -0.0823  0.2843 -0.0470
16857W        W17721   9.852  11.750   3.998  0.2438 -0.1446 -0.2027
16858W        W17722  10.122  12.712   7.901 -0.1565 -0.0628  0.0497
16859W        W17723  10.362  13.445   7.630  0.1255  0.1093  0.2157
16860W        W17724   9.449   9.046   5.837 -0.2175 -0.2278  0.1246
16861W        W17725   8.236   9.663   7.497  0.2230 -0.1436  0.2682
16862W        W17726  11.367  12.968   6.240  0.2607  0.0707  0.2174
16863W        W17727   8.616  10.988   6.319  0.2114  0.0758 -0.1127
16864W        W17728   7.509   0.135   6.115  0.0319 -0.0691  0.0314
16865W        W17729   8.844   9.649   4.900 -0.1045  0.2063 -0.2449
16866W        W17730  11.083   1.395   6.011 -0.0524 -0.1291  0.0922
16867W        W17731   8.039  13.524   6.391 -0.0591  0.0327 -0.1217
16868W        W17732   9.779  10.790   4.092 -0.0847  0.0676  0.0276
16869W        W17733  11.409   2.896   5.396 -0.0440  0.2802  0.2820
16870W        W17734   8.426   8.941   2.635 -0.1899 -0.2212 -0.0085
16871W        W17735   9.712   0.055   9.356  0.0661  0.1001  0.1583
16872W        W17736  11.148  12.349   2.268 -0.0875  0.0183  0.1354
16873W        W17737   7.576   1.275   7.024 -0.1283 -0.2795  0.0868
16874W        W17738   8.016   0.324   8.647 -0.5872 -0.0108  0.0324
16875W        W17739   9.042  11.927   6.851  0.2914 -0.0380 -0.0110
16876W        W17740  11.662  11.473   7.273 -0.0892  0.0824 -0.4206
16877W        W17741  12.993  13.030   6.551 -0.0719  0.0290  0.1918
16878W        W17742   9.826  12.358   7.690  0.3672  0.0489  0.0969
16879W        W17743   8.558   9.994   4.239 -0.2693 -0.2253 -0.0707
16880W        W17744   7.283  12.542   5.097 -0.2612 -0.1519  0.0848
16881W        W17745  11.029  12.200   5.167 -0.2319  0.1650  0.2862
16882W        W17746   6.149   9.562   4.397 -0.1873 -0.3093 -0.3086
16883W        W17747   9.151  12.938   9.079 -0.0509  0.2698 -0.1401
16884W        W17748  12.028  10.588   7.446 -0.2610 -0.3976  0.2250
16885W        W17749   6.923  12.176   3.933 -0.1435  0.1472 -0.0378
16886W        W17750   6.953  12.136   8.551  0.0524  0.1822  0.3848
16887W        W17751   8.654  11.930   4.963 -0.0255 -0.0946  0.0203
16888W        W17752  10.266  13.183   4.301  0.1228  0.0720 -0.1209
16889W        W17753   8.022   9.729   6.864  0.1123 -0.6399 -0.1128
16890W        W17754   6.162  10.406   6.396  0.2432  0.2097  0.2081
16891W        W17755   7.565  12.144   5.177  0.0670  0.4759  0.2676
16892W        W17756   8.218   9.106   4.512  0.1350  0.3356 -0.1234
16893W        W17757   8.446  10.627   6.027 -0.1289 -0.1188 -0.1214
16894W        W17758   9.253  10.641   4.067  0.0449  0.0448  0.3269
16895W        W17759  11.775   2.293   8.942 -0.1660  0.0098 -0.2135
16896W        W17760  10.342  10.728   6.031 -0.0775  0.0288  0.1424
16897W        W17761   9.504   2.055   9.302  0.0608 -0.3122 -0.0478
16898W        W17762   9.967  12.329   6.217 -0.1199 -0.0606 -0.0436
16899W        W17763  10.675  10.874   4.542  0.4036  0.2018  0.1291
16900W        W17764   8.435  12.765   7.984 -0.0416  0.0411  0.1540
16901W        W17765   6.287  10.797   3.530  0.2450 -0.0721  0.1516
16902W        W17766   9.892   9.311   7.593 -0.2369  0.2574 -0.0642
16903W        W17767  11.390  13.173   5.589 -0.1578  0.1074  0.1830
16904W        W17768  10.968  11.339   5.238 -0.1773  0.4382 -0.0461
16905W        W17769   5.668  11.836   4.482  0.0752  0.0268  0.3076
16906W        W17770  10.969  13.522   7.503 -0.1361 -0.0294 -0.3745
16907W        W17771  11.531   1.150   4.633 -0.0302 -0.0708 -0.3277
16908W        W17772   4.905  10.174   3.401 -0.1631  0.0534 -0.0281
16909W        W17773  10.133  11.255   5.851 -0.3855  0.1036  0.0669
16910W        W17774  11.074   9.309   7.856 -0.3701  0.0263  0.0562
16911W        W17775   8.029  12.886   6.569  0.0470 -0.0554  0.1918
16912W        W17776   9.515   0.776   3.257 -0.0533  0.0583 -0.0581
16913W        W17777  10.614  12.414   8.262  0.4561  0.0128 -0.2310
16914W        W17778   8.224  12.041   3.333  0.2614 -0.0462  0.1291
16915W        W17779   6.487   9.281   4.189 -0.1358  0.2375  0.0576
16916W        W17780   6.907  13.088   5.750  0.0602 -0.0057 -0.0444
16917W        W17781  10.489  12.984   8.304 -0.1096 -0.1186  0.1072
16918W        W17782  10.545  13.118   3.905 -0.1536 -0.0262  0.0567
16919W        W17783  10.707  13.272   5.865 -0.3796 -0.5358  0.2194
16920W        W17784  11.738  13.132   7.293 -0.1111 -0.1019  0.1058
16921W        W17785   7.598   0.252   5.249 -0.2112  0.3643  0.3040
16922W        W17786   8.434  11.185   3.952  0.0171 -0.1590  0.0467
16923W        W17787   7.690  13.281   9.104  0.3200  0.0253 -0.2479
16924W        W17788  11.366  12.618   6.626  0.0639 -0.0952 -0.1923
16925W        W17789  10.908   3.294   4.311  0.0518  0.0914 -0.0787
16926W        W17790   9.958  11.911   5.956 -0.0650  0.2162 -0.0839
16927W        W17791  10.672  10.351   4.689 -0.0030 -0.2863 -0.1408
16928W        W17792   8.851   2.541   7.354 -0.0988  0.5248 -0.0212
16929W        W17793  10.221  11.060   1.771  0.0067  0.0003 -0.2095
16930W        W17794   9.438  10.942   5.882  0.0575 -0.0207 -0.0553
16931W        W17795   8.004   0.119   6.937  0.0069  0.0472 -0.1010
16932W        W17796   8.026  10.686   6.402 -0.0787 -0.0403  0.2826
16933W        W17797  10.407  10.444   5.126  0.1073  0.0283 -0.1334
16934W        W17798   9.368  12.260   6.047  0.1702  0.1731 -0.0916
16935W        W17799   7.639  10.859   5.054 -0.2122  0.0970 -0.0551
16936W        W17800   8.917  11.889   7.802  0.2392  0.2213  0.1362
16937W        W17801   7.298  13.643   7.340  0.3229  0.0092  0.1837
16938W        W17802   7.728  10.578   4.113 -0.0718  0.2295 -0.0540
16939W        W17803   8.036   9.750   4.067 -0.1062  0.2488 -0.1415
16940W        W17804   6.400  12.542   4.621 -0.0428 -0.0891  0.2421
16941W        W17805   9.308   1.826   8.028 -0.3038  0.0956 -0.1629
16942W        W17806   6.570   8.263   2.765  0.0456 -0.0202  0.2232
16943W        W17807   9.037  11.240   2.346 -0.1286 -0.1434 -0.1685
16944W        W17808   6.611   1.124   5.440 -0.0096  0.1262  0.3967
16945W        W17809  10.293  13.306   6.261 -0.3177  0.3027  0.1171
16946W        W17810  10.877  12.713   4.401  0.1795 -0.0988  0.0063
16947W        W17811   8.279   2.090   4.832 -0.0667 -0.0438 -0.0312
16948W        W17812   6.339  13.220   2.014 -0.2054  0.0411 -0.2718
16949W        W17813   6.964  12.617   8.592  0.0243  0.1368  0.0121
16950W        W17814   8.148   8.564   3.514  0.2014  0.2397 -0.0338
16951W        W17815   6.761  11.907   5.684 -0.1068 -0.0435 -0.4248
16952W        W17816   9.508  11.010   4.519  0.3824 -0.2621  0.0890
16953W        W17817   9.829   8.470   3.954  0.1858  0.2422 -0.0317
16954W        W17818   5.267  11.527   4.281  0.0769 -0.4743  0.1384
16955W        W17819   8.886  12.653   8.234  0.0186 -0.1550  0.0654
16956W        W17820   9.531   1.661   9.570 -0.0525 -0.0421  0.2026
16957W        W17821  11.560  12.773   7.917  0.0438  0.1257 -0.0548
16958W        W17822  11.059   0.701   9.905  0.2336 -0.0033  0.0609
16959W        W17823   7.129  11.174   8.679 -0.1912  0.2834 -0.1861
16960W        W17824  10.018  12.436   6.735 -0.3151 -0.1738  0.0676
16961W        W17825   8.385  10.135   3.800  0.0363  0.3440  0.1003
16962W        W17826   8.952   0.216   8.504  0.1012  0.1779  0.1779
16963W        W17827  10.023  12.153   9.593  0.0445 -0.1198 -0.3187
16964W        W17828  10.472  12.212   6.635  0.0586 -0.3020  0.1118
16965W        W17829   8.218  11.004   6.753 -0.0017 -0.2585  0.0991
16966W        W17830   8.664  12.140   8.135  0.0775 -0.0608 -0.0690
16967W        W17831  12.917  11.529   5.678 -0.0824  0.0337 -0.0123
16968W        W17832   9.519  10.323   4.400 -0.1089 -0.0230 -0.1340
16969W        W17833   0.202  13.586   6.363 -0.2239 -0.1725 -0.0169
16970W        W17834  11.365   0.306   7.531  0.3545  0.0383 -0.4349
16971W        W17835   9.096  10.662   4.539 -0.0952  0.3763  0.0652
16972W        W17836   9.394  13.539   4.214 -0.2046 -0.2688 -0.1163
16973W        W17837  11.530  13.400   4.068 -0.0145  0.0246 -0.0669
16974W        W17838   8.933  11.491   5.001  0.0512  0.0695  0.0562
16975W        W17839   8.151  10.926   4.828 -0.0104  0.1601 -0.1708
16976W        W17840   9.884  11.623   5.516 -0.0261  0.0363 -0.0799
16977W        W17841   9.420  13.283   9.369 -0.0638 -0.1463 -0.0219
16978W        W17842  10.650  12.931   5.172 -0.2156 -0.1656  0.1157
16979W        W17843   6.395   9.496   3.133  0.2698  0.0414 -0.1678
16980W        W17844   7.626  12.165   8.197  0.0439 -0.0123  0.3661
16981W        W17845  10.393  13.290   5.447 -0.0683  0.2435  0.1068
16982W        W17846   8.497  13.574   6.128 -0.1567 -0.0140 -0.0666
16983W        W17847   8.912   0.716   6.197 -0.1509 -0.1991  0.3576
16984W        W17848   8.274  10.629   9.942 -0.0731 -0.1962 -0.1924
16985W        W17849   5.954  10.266   6.851 -0.0637 -0.0786 -0.0715
16986W        W17850   6.104  10.899   3.970  0.1164 -0.1732 -0.1225
16987W        W17851   6.048  11.635   3.670 -0.0655  0.0460 -0.0238
16988W        W17852   8.736  10.943   4.733  0.1183 -0.0590  0.0096
16989W        W17853   7.639   8.869   8.295 -0.4024  0.2445 -0.2462
16990W        W17854   8.257  11.096   3.523  0.0038  0.2959 -0.0248
16991W        W17855  10.746  10.294   6.854 -0.0684  0.0392 -0.3162
16992W        W17856   7.116  10.192   3.166  0.0653 -0.1658 -0.2811
16993W        W17857   9.953  10.224   4.800 -0.0623  0.0115 -0.1323
16994W        W17858  13.837  13.498   5.482  0.0090 -0.1413  0.0843
16995W        W17859   8.812  11.242   7.440  0.3276  0.3042 -0.1603
16996W        W17860   8.433  11.972   7.077 -0.1922  0.1269 -0.2397
16997W        W17861   5.802  11.334   6.827 -0.2237  0.1083 -0.0955
16998W        W17862   9.760  12.899   6.160 -0.0569 -0.1140  0.3279
16999W        W17863  11.133  12.808   5.313 -0.0090  0.0695 -0.0354
17000W        W17864   7.196  13.295   5.259  0.0545 -0.1414  0.0035
17001W        W17865  10.098   1.360   5.502  0.2180  0.1417 -0.1410
17002W        W17866   6.415   9.086   5.137  0.0623  0.1623  0.1246
17003W        W17867   8.791  12.431   7.794  0.0538 -0.0162  0.2145
17004W        W17868  10.462   9.571   5.098 -0.1177  0.0266  0.1893
17005W        W17869  10.441   0.294   7.990 -0.1533  0.0595  0.1745
17006W        W17870  10.520  10.928   5.036 -0.2161  0.1397  0.0067
17007W        W17871  10.554   0.076   2.770  0.1347  0.0876  0.2198
17008W        W17872  11.314   0.937   8.923 -0.0082 -0.1743  0.1946
17009W        W17873   9.158  12.783   5.942 -0.0580 -0.1553  0.0353
17010W        W17874  10.642  11.642   7.114  0.0422 -0.0665  0.2563
17011W        W17875   8.836  11.656   4.535 -0.2916 -0.2112 -0.0505
17012W        W17876   8.104  11.365   4.273 -0.1096  0.0201  0.0769
17013W        W17877   9.762   0.984   4.523  0.3052 -0.0883 -0.1626
17014W        W17878   7.112  10.837   6.804  0.1920  0.1133 -0.0003
17015W        W17879  10.073   0.543   7.250 -0.1923 -0.0131  0.1355
17016W        W17880   8.044  10.272   6.002  0.2171  0.0186  0.0014
17017W        W17881   7.674  13.034   5.143  0.0355 -0.2004  0.0340
17018W        W17882   9.850   9.771   6.812 -0.3414 -0.0509  0.0866
17019W        W17883   9.620  11.888   6.307  0.0980 -0.0186  0.0179
17020W        W17884   7.173  13.521   5.692  0.0203 -0.1737  0.2739
17021W        W17885   6.775  10.530   7.019  0.1858 -0.2386 -0.4231
17022W        W17886   8.575  10.071   7.422 -0.0904  0.0833 -0.0563
17023W        W17887   9.742  13.251   4.305 -0.0764  0.2668 -0.1623
17024W        W17888  10.475   9.914   6.767 -0.0521  0.0672  0.3545
17025W        W17889  10.100   1.711   7.937 -0.1128  0.2069 -0.0921
17026W        W17890   8.686   0.004   5.737 -0.0118 -0.1710 -0.3321
17027W        W17891   5.732  13.110   3.416  0.0043  0.2550 -0.0482
17028W        W17892  10.173  12.607   7.279  0.2513 -0.0446 -0.1614
17029W        W17893  10.167  13.452   3.844 -0.0568  0.3002 -0.2304
17030W        W17894   9.179  11.983   4.881  0.0318  0.2142 -0.0198
17031W        W17895   5.681  12.577   6.559  0.0022 -0.2756 -0.1182
17032W        W17896  10.516   0.251   9.686  0.0457  0.2023  0.1418
17033W        W17897   7.990   1.250   8.158  0.0255 -0.0807  0.0402
17034W        W17898   8.095   9.483   4.861 -0.3346 -0.1249 -0.1774
17035W        W17899   9.590  13.205   7.902  0.0782  0.1148 -0.1007
17036W        W17900   6.716   0.517   8.255 -0.1893 -0.0802  0.0544
17037W        W17901   6.203  13.554   3.633 -0.1807  0.0403  0.0555
17038W        W17902  10.716  13.401   5.015 -0.0559  0.0930  0.1468
17039W        W17903   9.481   9.589   7.793  0.2309  0.1457 -0.2494
17040W        W17904   9.923   0.943   6.422 -0.0121  0.3197 -0.0117
17041W        W17905   7.943  12.399   8.947 -0.0306 -0.2787 -0.4474
17042W        W17906  10.338  11.769   5.526 -0.0349  0.0767  0.1291
17043W        W17907  10.696  11.056   5.914  0.2519 -0.0719 -0.0434
17044W        W17908  10.154   1.497   7.431  0.2171  0.2277 -0.1577
17045W        W17909   9.400  11.438   6.397 -0.1110 -0.1159  0.2134
17046W        W17910   8.963  12.911   4.478 -0.0924 -0.0014 -0.2923
17047W        W17911   9.385  13.760   5.020  0.3143  0.1886  0.0240
17048W        W17912   6.317  10.760   5.522 -0.0887  0.3475  0.1091
17049W        W17913  12.103  11.455   4.205 -0.0052  0.1717 -0.1255
17050W        W17914   7.928  11.318   5.082  0.3407  0.0692 -0.0635
17051W        W17915   9.215  11.260   5.390  0.1709 -0.1536 -0.2434
17052W        W17916   9.523  11.994   6.856 -0.2773  0.0150 -0.0710
17053W        W17917   7.026   9.324   7.032 -0.2393  0.1552  0.0536
17054W        W17918   8.838  10.717   7.473 -0.0822  0.0125 -0.0615
17055W        W17919   8.529   9.275   5.625 -0.1218 -0.1223 -0.0038
17056W        W17920   6.934   9.454   4.106  0.1266 -0.0104 -0.2115
17057W        W17921   6.348  12.191   4.252  0.2241  0.2884  0.0447
17058W        W17922   7.087  13.844   6.858 -0.1549 -0.0308  0.1055
17059W        W17923   6.621  10.317   3.403 -0.1389 -0.1815  0.1985
17060W        W17924   5.615  12.719   5.442 -0.2154  0.1051  0.0143
17061W        W17925   8.886  12.885   7.761  0.3084 -0.1072 -0.0537
17062W        W17926  10.145  12.609   4.982  0.1437 -0.1268 -0.0229
17063W        W17927  11.414  10.681   7.398 -0.0406 -0.0396 -0.0572
17064W        W17928  11.815   1.157   5.608  0.3636  0.0486 -0.0229
17065W        W17929  10.999   0.255   4.953 -0.0668 -0.1490 -0.0041
17066W        W17930  10.047  11.983   6.533  0.0514  0.0928 -0.0770
17067W        W17931   9.563  13.069   5.734 -0.0725  0.4154  0.0105
17068W        W17932   8.949   9.850   3.806  0.1484  0.0558  0.3441
17069W        W17933  10.944  13.403   3.829 -0.2693 -0.5601 -0.1907
17070W        W17934  13.717  13.263   7.279 -0.1255  0.0606  0.1413
17071W        W17935   9.088  10.028   5.150  0.0707  0.0968 -0.2418
17072W        W17936   9.338  13.281   6.114 -0.2747  0.1236  0.2072
17073W        W17937   9.063  11.667   7.396  0.1565  0.2457 -0.0697
17074W        W17938   9.744  10.272   5.738  0.0114  0.2473  0.0764
17075W        W17939  10.818  12.408   6.140  0.0950  0.2915 -0.1211
17076W        W17940  10.222  11.481   7.782 -0.0198 -0.4641  0.2468
17077W        W17941   8.037  12.307   5.329 -0.0222  0.2262  0.0109
17078W        W17942   8.100  11.296   6.322  0.2922 -0.0023 -0.1272
17079W        W17943   8.078   1.986   6.596  0.1095 -0.1759 -0.1954
17080W        W17944   9.951   0.482   3.250  0.1966 -0.0178  0.0296
17081W        W17945   8.605  12.904   4.882 -0.1659 -0.0774  0.2134
17082W        W17946  10.205   0.884  10.313 -0.1702  0.0064 -0.0768
17083W        W17947  10.061   8.294   4.773  0.0870 -0.1484  0.1825
17084W        W17948   8.723   0.548   8.021  0.2150 -0.0109 -0.1629
17085W        W17949   6.496  12.518   5.267 -0.0518  0.0760  0.2220
17086W        W17950  10.419  10.805   5.544 -0.4312 -0.1745  0.3211
17087W        W17951   9.334   1.207   9.456 -0.1429  0.1504  0.2394
17088W        W17952  10.134  13.059   7.039 -0.1342 -0.3838 -0.0406
17089W        W17953   8.844   1.691   5.794  0.1614  0.2445  0.1101
17090W        W17954   7.875  13.992   6.403 -0.3510 -0.1842 -0.2380
17091W        W17955   9.125   3.379   5.639 -0.0906 -0.0094  0.2588
17092W        W17956   8.495  11.175   5.757  0.2534  0.2840  0.2186
17093W        W17957   9.971  12.074   4.822  0.2486  0.4096  0.1761
17094W        W17958  11.253   1.781  10.568  0.1001  0.1851 -0.2380
17095W        W17959   8.261  10.755   2.718  0.2238 -0.0379  0.1398
17096W        W17960   7.586   0.450   7.200 -0.3109  0.1749  0.0988
17097W        W17961   8.511   9.590   3.882  0.2806 -0.1295 -0.2655
17098W        W17962   7.307   1.028   3.072 -0.2726  0.1405 -0.0970
17099W        W17963   6.325  12.933   5.011  0.2796 -0.0633  0.2129
17100W        W17964  10.416   9.274   5.584 -0.1897 -0.4398  0.0676
17101W        W17965   6.268  12.906   3.704 -0.2546  0.2577 -0.0604
17102W        W17966   9.806  13.953   5.270  0.0831  0.4336 -0.2790
17103W        W17967   8.765  11.270   7.952  0.2343  0.2278  0.2148
17104W        W17968  10.627  11.628   8.052  0.0533 -0.0485  0.3217
17105W        W17969  13.675  12.578   4.427 -0.2752 -0.1248  0.2084
17106W        W17970   9.557   2.166   8.373 -0.1849 -0.0983  0.1770
17107W        W17971  11.132  11.535   6.111  0.1368 -0.1276  0.0104
17108W        W17972  11.666   0.442   8.459 -0.0565  0.1157  0.0743
17109W        W17973   9.652  12.771   6.811 -0.2243  0.1760 -0.0342
17110W        W17974   8.751  12.415   4.083  0.0579  0.3896 -0.0543
17111W        W17975   7.101   9.948   6.235  0.3364  0.1871 -0.0962
17112W        W17976   8.120  11.530   5.916  0.0058  0.0303  0.2751
17113W        W17977   7.622  12.631   8.083  0.2818 -0.0697  0.1287
17114W        W17978   9.653  10.320   7.631  0.0564 -0.0492  0.1526
17115W        W17979   6.001   8.901   4.645 -0.0560 -0.4112  0.3291
17116W        W17980   7.327  12.129   4.220 -0.0173  0.6009 -0.1033
17117W        W17981   7.236  11.109   3.032  0.0959  0.1434  0.3868
17118W        W17982   8.646  12.854   4.082  0.0307  0.1186 -0.0165
17119W        W17983  11.260  11.771   5.021  0.2540 -0.0557  0.2221
17120W        W17984   9.736  10.517   1.730 -0.1176 -0.0410  0.1237
17121W        W17985   8.625  12.816   5.899  0.1744  0.0074  0.1659
17122W        W17986   7.523  11.602   5.239  0.0535  0.1872  0.0782
17123W        W17987   9.305   4.219   7.838  0.0456  0.3229  0.1261
17124W        W17988  10.493  13.781   6.067  0.2291 -0.0816  0.1446
17125W        W17989   7.274  10.783   4.073  0.1512 -0.0218  0.3076
17126W        W17990  11.192  13.186   8.032 -0.1891 -0.0671 -0.1064
17127W        W17991   8.314   0.652   9.045 -0.5254 -0.0848 -0.0407
17128W        W17992   8.080   9.235   5.347 -0.2184  0.0885 -0.1290
17129W        W17993   7.441  12.722   4.146  0.0412 -0.0220  0.1605
17130W        W17994   9.350  11.280   7.394 -0.1174 -0.1933 -0.0696
17131W        W17995   5.781  10.854   7.033  0.1729 -0.0019  0.0243
17132W        W17996  11.725   9.905   4.974  0.2177 -0.1097 -0.0152
17133W        W17997   9.435  13.194   6.579 -0.0356  0.0808 -0.1165
17134W        W17998   6.733  13.100   6.974  0.2551 -0.0433 -0.1723
17135W        W17999   7.828  10.526   4.599  0.2321  0.2543 -0.1360
17136W        W18000  13.088  11.023   4.954 -0.1535 -0.1485 -0.0893
17137W        W18001   7.795  12.242   3.910  0.3365 -0.0597 -0.1498
17138W        W18002  12.976  10.315   6.278  0.2285 -0.1802 -0.4001
17139W        W18003   8.678   0.868   5.787  0.0537 -0.0185  0.1424
17140W        W18004  11.028  10.691   8.311 -0.0637  0.0054  0.1670
17141W        W18005   9.302  13.325   4.615 -0.0839  0.0386  0.0738
17142W        W18006   9.638  10.661   8.084 -0.1160  0.1671 -0.1488
17143W        W18007   9.132  10.977   6.949  0.0759  0.0661  0.1863
17144W        W18008  11.051   7.964   3.820 -0.0292  0.0295 -0.1437
17145W        W18009   8.426  13.241   8.836 -0.0183 -0.3025  0.1078
17146W        W18010  10.333   0.620   5.641  0.0827  0.3768  0.2133
17147W        W18011   8.023  11.803   7.345 -0.0591  0.0939 -0.0407
17148W        W18012   7.896  10.754   3.615  0.2676 -0.0070  0.2128
17149W        W18013   8.986  13.661   5.485 -0.0979  0.1884  0.2234
17150W        W18014   8.652  12.411   6.825  0.0185  0.1960  0.1280
17151W        W18015   8.077  13.982   8.334  0.1377 -0.1811  0.0969
17152W        W18016  10.202   0.179   7.547 -0.0812  0.0887 -0.1508
17153W        W18017   8.992   0.078   8.029  0.1313 -0.0485 -0.3944
17154W        W18018  10.543   0.210   6.346  0.4476  0.0941  0.1559
17155W        W18019  10.878  13.608   6.819 -0.1140  0.1204 -0.2098
17156W        W18020  10.510   0.489   6.997  0.0139 -0.2590 -0.2621
17157W        W18021   8.142  11.938   6.357  0.0131 -0.2397 -0.3355
17158W        W18022   9.989   0.894   8.210 -0.0298  0.0833  0.0635
17159W        W18023   8.459  12.717   3.281  0.0631  0.0223  0.1828
17160W        W18024   8.092   9.343   3.346 -0.1089 -0.3619  0.0598
17161W        W18025   6.358  11.435   9.530 -0.0633  0.2261 -0.1994
17162W        W18026  12.109  12.691   9.671 -0.0167  0.0422 -0.0943
17163W        W18027   8.986  12.010   9.359 -0.0675  0.0037 -0.1256
17164W        W18028  10.037  13.179   8.134 -0.1145  0.0009  0.0031
17165W        W18029   9.511   9.964   6.067 -0.1001  0.2232 -0.0990
17166W        W18030   8.309  11.417  10.366  0.1266 -0.0136  0.2566
17167W        W18031   8.475   9.178  12.330  0.1489 -0.0862 -0.0044
17168W        W18032  11.877  10.902  10.844  0.2363  0.6102  0.0091
17169W        W18033   9.935  13.808   7.322  0.4679  0.0964 -0.0091
17170W        W18034   8.969  13.603  11.895 -0.2643  0.3093 -0.0167
17171W        W18035   9.604  11.256   9.279  0.0365  0.1131 -0.0072
17172W        W18036   9.460   0.974  10.856  0.1252 -0.2182  0.2023
17173W        W18037   9.665   1.680   7.643 -0.1868 -0.1386 -0.2401
17174W        W18038   8.310  12.352  10.041  0.3250  0.3416  0.2580
17175W        W18039   7.891  12.519   9.851 -0.2724  0.1758  0.0657
17176W        W18040  10.606  11.082   9.259  0.1733  0.0734 -0.0155
17177W        W18041   8.550  10.284   8.449 -0.0491  0.0156 -0.1679
17178W        W18042   9.215   0.310  10.520 -0.0760 -0.2517 -0.5394
17179W        W18043   7.043  12.712   9.055 -0.0716 -0.0714  0.2536
17180W        W18044   8.737  13.147   8.260 -0.0271 -0.1142 -0.2526
17181W        W18045   8.075  12.974  11.624  0.1675  0.2123 -0.0137
17182W        W18046  11.763   0.136  12.557  0.0267  0.2447 -0.2765
17183W        W18047   9.004   0.928  10.277  0.0964 -0.1421 -0.3389
17184W        W18048   7.502   0.829  12.581 -0.1103  0.0879 -0.0226
17185W        W18049   9.791  10.025   9.046 -0.2158 -0.4361  0.1134
17186W        W18050   5.541  13.204  11.536 -0.1863 -0.0963  0.2994
17187W        W18051   9.506   0.125   8.136 -0.3231 -0.3589 -0.0693
17188W        W18052  10.584  13.883  10.240  0.3517 -0.0046 -0.2211
17189W        W18053   9.332  13.843  10.443 -0.0997  0.2983  0.1760
17190W        W18054   9.170   0.601  11.023  0.3594  0.0502 -0.1892
17191W        W18055  11.051   0.944  11.454 -0.2892 -0.0197  0.2918
17192W        W18056  10.087  10.953   7.945 -0.1536  0.0702 -0.1062
17193W        W18057   7.515  13.523   8.637 -0.0974 -0.0364  0.0636
17194W        W18058  10.585   0.200   9.172 -0.0222  0.0750  0.0983
17195W        W18059   8.797  12.650  11.132  0.4400 -0.0011  0.3239
17196W        W18060  10.679  12.539   7.589 -0.0364  0.1169  0.1274
17197W        W18061   9.614  11.351  11.075  0.2052 -0.1332 -0.0136
17198W        W18062  13.636  13.619   6.464  0.0616  0.0390  0.0146
17199W        W18063   7.692   9.308   9.598  0.0957 -0.1282 -0.3171
17200W        W18064   9.020  10.801  12.327 -0.1457 -0.3140  0.1794
17201W        W18065   9.981  10.651  10.330  0.2996  0.0649  0.3564
17202W        W18066   8.780   2.628   8.293 -0.2544 -0.0008 -0.2531
17203W        W18067  11.050  13.936  13.451  0.0005 -0.1433 -0.1422
17204W        W18068   8.264   8.786  10.507  0.0830  0.1476 -0.0605
17205W        W18069  11.681  13.687   9.806  0.3222  0.0113 -0.0364
17206W        W18070   8.922  13.323   8.714  0.1084  0.2921  0.2812
17207W        W18071   7.922  11.012   8.041 -0.1094  0.4115  0.1159
17208W        W18072   7.310   0.807   9.886 -0.0035 -0.0197  0.1218
17209W        W18073   8.800  11.544   9.669  0.1468 -0.1560  0.2866
17210W        W18074   9.371   1.277   9.988 -0.0168 -0.0386 -0.0436
17211W        W18075  13.079  13.584   7.990 -0.0954  0.2668  0.4047
17212W        W18076   9.765  12.671   8.741 -0.0809  0.3242 -0.0032
17213W        W18077   9.703   0.962   7.761  0.2345 -0.0526 -0.1399
17214W        W18078  10.827   9.501   9.087  0.0378 -0.0341  0.0248
17215W        W18079  12.837  11.132   9.628  0.1452 -0.1472 -0.0166
17216W        W18080   9.459  12.010   7.362  0.0580  0.2482  0.1589
17217W        W18081   8.581  11.960   6.622  0.0609  0.1456 -0.2687
17218W        W18082   7.880   0.504   9.301 -0.1835 -0.4846 -0.2488
17219W        W18083   9.619   0.216   8.674 -0.0505  0.3196 -0.0893
17220W        W18084   8.545  10.858   8.706 -0.0081  0.1058  0.1122
17221W        W18085   9.491  13.333  11.758  0.1359 -0.1194  0.1775
17222W        W18086   9.984  13.948  10.272  0.0811 -0.1773  0.4066
17223W        W18087   6.048  11.202   7.218  0.2171 -0.0318 -0.0609
17224W        W18088  12.651  13.878   8.879 -0.0390  0.0230 -0.1832
17225W        W18089  10.713   0.260   8.700 -0.0062 -0.1033 -0.0298
17226W        W18090  11.474   0.707   7.794  0.1407  0.3305  0.2019
17227W        W18091   7.858  13.187  10.187  0.0928  0.0448 -0.1795
17228W        W18092   8.852  11.626  10.223 -0.0499  0.0698 -0.1340
17229W        W18093   9.355  12.444   9.386  0.0479 -0.3323 -0.0168
17230W        W18094  10.189  13.936   9.220  0.1050 -0.0018  0.1217
17231W        W18095   7.606  13.101   8.332 -0.0631  0.0175  0.2685
17232W        W18096   9.823   1.221   9.500 -0.1988 -0.0567 -0.0903
17233W        W18097   9.490  12.646  11.120 -0.1119  0.0919  0.2227
17234W        W18098  10.100   0.356   9.449  0.0615  0.0795 -0.1326
17235W        W18099   7.905  11.570  10.076 -0.1813  0.0732  0.1350
17236W        W18100  10.088  13.136   5.817  0.3107  0.1946 -0.2027
17237W        W18101   9.317   0.317   9.551 -0.2683  0.4838 -0.0375
17238W        W18102  10.380  11.054   8.749  0.0693 -0.1102 -0.2769
17239W        W18103   7.446  10.473  10.687  0.3369  0.2873 -0.0073
17240W        W18104  11.099  12.469  12.470 -0.0523 -0.2838  0.2801
17241W        W18105   7.199  12.106  11.907  0.0664  0.0472 -0.2862
17242W        W18106   9.961  11.150   7.401  0.2115 -0.1778  0.2779
17243W        W18107   9.723  11.396   7.758  0.4477 -0.1433 -0.1102
17244W        W18108   7.720   3.793  10.368  0.0466 -0.3928 -0.2430
17245W        W18109   8.548   0.209   7.659 -0.0188  0.0603 -0.0157
17246W        W18110  10.757   9.481   7.492 -0.1962  0.0904  0.2227
17247W        W18111   9.980  12.055  10.738 -0.4576  0.1969  0.1720
17248W        W18112   6.235  12.848  10.624 -0.0592 -0.3374 -0.0630
17249W        W18113  10.630   1.816   9.089 -0.2484  0.4137  0.2363
17250W        W18114   9.674   0.815  10.316 -0.1089 -0.2316 -0.2764
17251W        W18115   9.218  12.909  10.715 -0.0818  0.1014 -0.1127
17252W        W18116  10.171  10.417   8.209  0.0068 -0.1904 -0.1158
17253W        W18117   8.054  13.030  11.053  0.0242 -0.1051 -0.1683
17254W        W18118  10.734  10.579   9.253 -0.1335 -0.2195  0.0085
17255W        W18119   8.906  13.934   9.475  0.0640 -0.0804  0.1671
17256W        W18120   8.898  11.347   6.617 -0.1833 -0.2105  0.2151
17257W        W18121  10.382  10.251  11.049 -0.1468  0.1104 -0.2358
17258W        W18122   8.073  13.482   7.702  0.0565 -0.1259 -0.0391
17259W        W18123   9.222  13.059   8.407  0.1246 -0.1660  0.2143
17260W        W18124  10.833  13.386  10.503 -0.1217 -0.0107 -0.0929
17261W        W18125  11.477  13.591   6.992  0.0727  0.2665 -0.3144
17262W        W18126  10.134  13.535   8.502  0.0557 -0.1458  0.1484
17263W        W18127  11.711   0.061   8.828 -0.2051 -0.1030  0.4661
17264W        W18128   7.894   9.626   7.902 -0.2979 -0.1287  0.0278
17265W        W18129  10.295  12.349  10.033 -0.2490 -0.0434  0.1513
17266W        W18130   9.596  13.169  10.867 -0.0403  0.2139 -0.1554
17267W        W18131   9.397  13.678   9.061  0.1071 -0.0831 -0.3483
17268W        W18132   7.740   9.861   9.463  0.0805 -0.2246 -0.0704
17269W        W18133  12.791   9.194   9.425  0.0843  0.0713 -0.0864
17270W        W18134   8.381  10.529  10.882 -0.1958  0.0213 -0.1848
17271W        W18135  11.127  11.538  10.674 -0.1554 -0.2456 -0.2191
17272W        W18136  12.008  11.158   9.035  0.3781  0.0400  0.0440
17273W        W18137   6.904  12.286   9.508  0.1007 -0.2840  0.2513
17274W        W18138   7.717  10.300   5.614  0.0500 -0.4602  0.1859
17275W        W18139  10.437  12.977   9.636 -0.2917  0.0048 -0.0345
17276W        W18140   7.666   1.197   8.596  0.1108 -0.1796  0.0419
17277W        W18141   9.595  12.792   9.836  0.1024  0.2841 -0.3378
17278W        W18142  10.161  10.249  10.596 -0.2554  0.3171  0.0554
17279W        W18143  10.944  10.374  10.475 -0.0362 -0.2108 -0.1774
17280W        W18144   8.412   0.892   8.133 -0.0709 -0.2761 -0.2908
17281W        W18145   9.626   0.442  10.809  0.1366  0.3132  0.0887
17282W        W18146   7.085   9.985  10.049 -0.1313  0.0037  0.1767
17283W        W18147   5.779  13.168  10.667 -0.1195  0.0099  0.2287
17284W        W18148   8.997  12.300   6.425  0.1124  0.2109 -0.0363
17285W        W18149   8.093  11.479  10.973  0.0630 -0.0896  0.0000
17286W        W18150   6.803   0.624  10.119  0.1688 -0.2180  0.0810
17287W        W18151   7.394  12.345   9.107 -0.3493 -0.0118 -0.0488
17288W        W18152   7.354  11.554   7.899  0.0067  0.3854  0.2321
17289W        W18153   7.160  12.943   8.181 -0.0178 -0.1225 -0.0307
17290W        W18154   7.549  10.074   9.905  0.0508  0.0640  0.3804
17291W        W18155   9.959  13.631  12.654 -0.1489 -0.0254  0.0615
17292W        W18156  10.538  13.277  10.011 -0.1096 -0.3112 -0.3962
17293W        W18157   9.123  12.862   9.622  0.1588 -0.2184  0.0768
17294W        W18158  10.592   9.985  10.555 -0.0219  0.0354  0.0557
17295W        W18159  10.640   0.235  10.691  0.0876 -0.1972  0.1388
17296W        W18160   9.088  10.190  10.408  0.1803 -0.1841 -0.2068
17297W        W18161   6.108  11.155   8.570 -0.1782 -0.1503 -0.0605
17298W        W18162   9.137  12.125  13.673  0.4183  0.0760  0.0731
17299W        W18163  10.995  12.648   7.954 -0.5480  0.0231 -0.1577
17300W        W18164   8.194   0.651  10.410 -0.1628  0.0281 -0.1183
17301W        W18165  11.479  12.020  10.793  0.4222  0.1146  0.2986
17302W        W18166  11.142   0.059  10.465 -0.1097 -0.1210 -0.0474
17303W        W18167   8.523   1.605   9.309  0.2904  0.0808  0.0429
17304W        W18168   9.898  13.123   9.613 -0.0311  0.0381  0.2931
17305W        W18169   0.598  11.409   6.389  0.2813 -0.2256 -0.0280
17306W        W18170   9.886   9.687   8.046  0.1233  0.0973 -0.1098
17307W        W18171  10.601  11.522  11.081  0.0767  0.0660 -0.2820
17308W        W18172   7.341   1.596   7.411 -0.1242  0.2656 -0.3773
17309W        W18173  12.080  12.058   7.699 -0.0719 -0.3011 -0.2769
17310W        W18174   9.054  12.957   6.813 -0.1297  0.1683 -0.1423
17311W        W18175   7.129  10.461   6.520 -0.1649  0.4572 -0.1479
17312W        W18176   9.549  10.900   7.157  0.1594 -0.0777 -0.0853
17313W        W18177   8.777  13.831  11.168 -0.1354  0.0383  0.0503
17314W        W18178  10.468  12.595   9.272  0.0831  0.0827 -0.1643
17315W        W18179   9.689  11.585   7.176 -0.0584  0.0029 -0.1723
17316W        W18180  10.535  10.665  13.581 -0.0837 -0.1307  0.2671
17317W        W18181   9.187   0.747   9.324 -0.1389 -0.0472  0.0889
17318W        W18182  10.642   2.043   8.650  0.3381  0.0684 -0.0312
17319W        W18183   8.675   1.304   8.277 -0.0181 -0.2379  0.1825
17320W        W18184   9.360  12.288  12.716  0.1822  0.0573 -0.0631
17321W        W18185   8.548  13.604  12.552  0.2172  0.0064 -0.0973
17322W        W18186   8.576  12.060   9.762  0.1701  0.0719  0.1255
17323W        W18187   7.568  11.408   8.776  0.1351  0.2041 -0.0774
17324W        W18188   7.390  10.395   7.110 -0.4451 -0.2992  0.3759
17325W        W18189   6.252  11.937  12.336 -0.2080 -0.0790 -0.1656
17326W        W18190   8.919  12.188   7.277 -0.0300 -0.4149  0.0485
17327W        W18191  10.170  11.854  13.960 -0.0365  0.2192 -0.1042
17328W        W18192   9.307   9.362  10.039 -0.0689 -0.0594  0.0406
17329W        W18193   8.760  12.615   9.355 -0.4520  0.1375 -0.0638
17330W        W18194   9.692   0.482   7.626  0.5627  0.1582  0.2273
17331W        W18195   8.605  10.189  10.058 -0.1771 -0.1195  0.0960
17332W        W18196  10.754  13.815  10.750  0.0310  0.0513  0.1987
17333W        W18197   6.166   8.962   9.580 -0.0692  0.1130  0.0673
17334W        W18198   9.966  13.524   9.950  0.0045  0.3253  0.1072
17335W        W18199  10.104  12.915   9.084 -0.1779  0.2838  0.2809
17336W        W18200   5.440  10.258   4.028 -0.0147  0.3729 -0.2239
17337W        W18201   8.008  12.021   9.700 -0.0064  0.2717 -0.1356
17338W        W18202   7.979  13.240   8.590 -0.1622  0.0683  0.2291
17339W        W18203   7.522   0.267  10.778  0.0530 -0.2615 -0.0813
17340W        W18204  10.726   8.948  10.410 -0.0284  0.0299 -0.0961
17341W        W18205  12.172  10.516  11.129 -0.0953 -0.1657  0.4120
17342W        W18206  13.565  12.106   6.761 -0.0474 -0.2849 -0.1073
17343W        W18207  11.554  13.542   8.341 -0.1131 -0.0760  0.0870
17344W        W18208  11.368  13.093  10.785 -0.0794 -0.4726 -0.0210
17345W        W18209   8.521  10.429   8.975  0.4441 -0.1262 -0.1293
17346W        W18210  10.442  12.025   9.283  0.2358 -0.0204  0.1219
17347W        W18211   9.323  12.791   7.903  0.0994 -0.1378 -0.0677
17348W        W18212   8.868  11.019   9.715 -0.1876 -0.0533  0.0640
17349W        W18213  10.277   0.101   5.362  0.0103  0.1543 -0.0904
17350W        W18214   9.546  13.897  10.029 -0.3159 -0.1104 -0.1206
17351W        W18215   8.568   1.783   9.790  0.1260 -0.0504 -0.0451
17352W        W18216  13.548  11.513  11.014  0.0171 -0.2525  0.0851
17353W        W18217  10.337  12.941   7.541 -0.0570 -0.2189  0.0253
17354W        W18218  10.161   9.850  13.142  0.2255 -0.1579  0.1899
17355W        W18219   8.466  13.113  12.488 -0.1787  0.1893  0.1227
17356W        W18220   7.059  12.763   7.708  0.1572 -0.1954 -0.4175
17357W        W18221   6.719  12.700   8.106  0.1828 -0.1596  0.1371
17358W        W18222  10.709  10.577  11.305  0.1950 -0.2691 -0.3262
17359W        W18223  10.859   0.276  10.079  0.1962  0.0003 -0.3783
17360W        W18224   9.586  10.794  11.526 -0.1909 -0.1196  0.3676
17361W        W18225   9.748  13.573  11.372  0.2951  0.2842 -0.2832
17362W        W18226  11.083   1.344   7.042  0.0058  0.0417  0.0403
17363W        W18227   7.541  11.867  13.317  0.0772  0.3163  0.0689
17364W        W18228   8.728  10.858  11.085 -0.1094 -0.2362  0.0705
17365W        W18229   7.782  12.832   9.404 -0.0149  0.2884  0.1216
17366W        W18230  10.950   9.417  10.566  0.2071 -0.2097  0.2767
17367W        W18231   6.528  11.933   8.270 -0.0512 -0.0545  0.0558
17368W        W18232  11.287  13.570  10.526  0.0302 -0.1457 -0.0605
17369W        W18233   9.265   0.538  10.051  0.1131  0.2003 -0.0779
17370W        W18234   9.685  12.789   9.284  0.0301 -0.0053  0.0742
17371W        W18235   7.998  13.707   9.754  0.2067  0.1443 -0.2174
17372W        W18236  10.703  11.631  10.460 -0.1243  0.0851 -0.1557
17373W        W18237   7.893   9.709   5.563 -0.0152  0.1197  0.1811
17374W        W18238   8.109  13.640   6.882  0.1297  0.2824  0.3377
17375W        W18239  11.566  12.534  10.857  0.1837  0.0321  0.0304
17376W        W18240  10.621  12.302   7.117  0.0651  0.2530 -0.0862
17377W        W18241  10.032  12.662   9.642 -0.0563 -0.0612  0.1394
17378W        W18242   7.618   0.065   9.956  0.0745  0.0859  0.0352
17379W        W18243  10.716  13.201  11.861 -0.0288  0.1886  0.1614
17380W        W18244  10.012   1.609   9.266 -0.1852 -0.1222  0.4187
17381W        W18245   7.907  12.266  11.453  0.0174 -0.5129  0.0281
17382W        W18246   6.728   0.190   9.080 -0.1116  0.1370 -0.0084
17383W        W18247  10.591   1.394   8.664  0.3774  0.1281 -0.1240
17384W        W18248  10.107   9.727  10.695  0.0467  0.0036  0.0296
17385W        W18249  11.198  11.074   8.631 -0.1006 -0.2730  0.2638
17386W        W18250   7.163  12.305   7.568  0.1811 -0.0697  0.2447
17387W        W18251  10.266  13.220  12.765 -0.1074 -0.2864  0.2077
17388W        W18252   9.493  12.752  12.782  0.2836  0.3197  0.1061
17389W        W18253   8.523   1.025  10.397 -0.4300 -0.1490 -0.0381
17390W        W18254  10.514  12.467  13.193  0.1920 -0.1124  0.0011
17391W        W18255   9.963  11.508  12.829 -0.1954 -0.1529 -0.1931
17392W        W18256   9.839  11.028   9.680  0.0693  0.0709  0.2545
17393W        W18257   5.876  12.064  10.118 -0.1625 -0.2802  0.1175
17394W        W18258   9.698  13.350   8.515  0.0583  0.0124 -0.0005
17395W        W18259   8.651  13.058   7.141 -0.0756  0.2213  0.0856
17396W        W18260   9.606  11.249   8.312  0.1955 -0.0241 -0.3082
17397W        W18261  11.112   2.030   8.902  0.2718 -0.0755 -0.2228
17398W        W18262   8.309   9.620   8.862  0.1982 -0.4041 -0.0569
17399W        W18263   8.989  13.116  11.697  0.0837  0.0069  0.0949
17400W        W18264   8.111  10.691   8.879  0.0958 -0.0733  0.0096
17401W        W18265   9.013  10.461   7.011 -0.0103 -0.0250 -0.0486
17402W        W18266  12.510   1.755  10.955  0.0018 -0.0194  0.2755
17403W        W18267   8.656   0.982   6.899  0.0720 -0.1049  0.0973
17404W        W18268  10.828  12.158   7.881 -0.0541  0.1748 -0.0649
17405W        W18269  10.290   0.035  12.221  0.0812 -0.1746 -0.2701
17406W        W18270   7.881  12.527  10.402 -0.1242 -0.0196  0.4594
17407W        W18271   7.640  13.688   7.711  0.2081 -0.1808 -0.2474
17408W        W18272   9.081  13.318   7.906  0.3269  0.0241 -0.3351
17409W        W18273  10.764   9.510   8.242  0.2632  0.0592 -0.2581
17410W        W18274  11.086   1.436   7.641  0.1045 -0.0696 -0.0336
17411W        W18275  11.201  10.362  10.065 -0.0186 -0.0579  0.0403
17412W        W18276  11.535   1.257   9.218 -0.1625  0.1015  0.0866
17413W        W18277   8.199  11.139  13.248  0.1658 -0.0488  0.2603
17414W        W18278  11.756   0.086  11.693 -0.0800 -0.1426 -0.0098
17415W        W18279  11.512  14.008   9.368 -0.2969 -0.3860  0.2940
17416W        W18280  10.665   1.088   7.641  0.4026 -0.0414 -0.0673
17417W        W18281  11.722  13.261  12.261 -0.2289 -0.0587 -0.0288
17418W        W18282   6.803  10.792   9.210 -0.1314 -0.2028  0.0734
17419W        W18283   9.009  10.876   8.924  0.2132  0.2097 -0.2142
17420W        W18284   9.417  13.802   8.534 -0.0238 -0.0783 -0.1626
17421W        W18285  10.123  10.207   7.767 -0.2343 -0.1680  0.0357
17422W        W18286   4.933   0.084  10.832  0.1268  0.2369 -0.0483
17423W        W18287   9.807   0.371   6.257  0.2330  0.0196  0.1982
17424W        W18288  11.768   0.628  12.450  0.0454  0.0053 -0.1656
17425W        W18289   7.784  12.992  10.629 -0.0276 -0.1592 -0.2829
17426W        W18290   8.646  13.109  10.092 -0.0679  0.0490 -0.2219
17427W        W18291   6.423  10.137   9.829  0.0142 -0.3705  0.0689
17428W        W18292   9.793  12.821   7.507  0.4347  0.1266  0.0178
17429W        W18293   9.696   0.593   9.265  0.1002  0.2432 -0.0974
17430W        W18294  10.317  11.274   8.274  0.1440 -0.0430 -0.1006
17431W        W18295   8.227  12.824  10.201  0.1506  0.1356 -0.1632
17432W        W18296   9.823  13.598   9.501  0.2059  0.0789  0.0275
17433W        W18297   7.499  12.743   8.769 -0.0945  0.3447  0.1257
17434W        W18298   7.216   2.066   6.621 -0.1055 -0.0349 -0.0703
17435W        W18299   9.107  10.647   9.409  0.3656 -0.2930 -0.1628
17436W        W18300   8.037   2.356   9.752 -0.2389 -0.2199 -0.1606
17437W        W18301   6.338   0.701   7.448  0.0178  0.2101  0.1838
17438W        W18302   8.947  10.659  10.091 -0.1429  0.0451 -0.2903
17439W        W18303  10.603  12.752   8.757  0.0556  0.0847 -0.1741
17440W        W18304  11.040  11.507  13.831 -0.1390 -0.2730 -0.1700
17441W        W18305  10.139   0.886   9.333 -0.1313 -0.4147  0.1010
17442W        W18306  12.336   0.200  10.998 -0.0756  0.0989  0.2436
17443W        W18307  10.238   0.404   8.450  0.0978  0.0447 -0.0414
17444W        W18308  13.016  11.841   7.058 -0.1272 -0.0361 -0.1038
17445W        W18309   9.594   9.634   9.343  0.2615 -0.0348 -0.1002
17446W        W18310   8.149   3.500   8.894  0.0102 -0.1858 -0.1058
17447W        W18311  10.393  10.401  10.211 -0.0159  0.0349 -0.3696
17448W        W18312   8.972  10.396   8.697 -0.0864 -0.0483  0.1519
17449W        W18313   8.618   0.310   9.215  0.2102 -0.0802  0.3470
17450W        W18314   8.483   0.539  12.914 -0.0398 -0.0873 -0.1182
17451W        W18315   7.183   0.166   8.374  0.0728 -0.0559  0.4164
17452W        W18316   8.104  12.294   8.255 -0.1777  0.0952  0.2153
17453W        W18317   8.438  11.812  10.678 -0.2523  0.0801  0.1093
17454W        W18318   6.103   9.372   7.404 -0.0695 -0.0987  0.1352
17455W        W18319  10.080   0.649   9.885 -0.0226  0.0300  0.1828
17456W        W18320   7.176  13.172   8.655  0.0938  0.0610 -0.1976
17457W        W18321   8.813   2.052   7.162 -0.2032  0.1999  0.0411
17458W        W18322  10.428   3.108   8.841 -0.3553 -0.0267  0.1669
17459W        W18323  10.857  11.228   6.915  0.0424 -0.3130 -0.1076
17460W        W18324   9.671  12.202  11.152 -0.1087  0.0617 -0.0866
17461W        W18325   6.582  12.953  12.170  0.0378  0.1458  0.2034
17462W        W18326   5.822  10.456  10.681  0.0933  0.0814 -0.1725
17463W        W18327   7.191  12.431   8.065 -0.1229 -0.0004  0.1159
17464W        W18328   7.706  11.874   9.150 -0.1253  0.0673  0.2213
17465W        W18329   7.812  11.210   9.188 -0.2309 -0.1575 -0.0665
17466W        W18330  11.031  10.121   8.239  0.0874 -0.0620  0.0724
17467W        W18331  11.163   0.523  10.691  0.4403  0.1286  0.0111
17468W        W18332   9.828  13.777   8.879 -0.0285 -0.3533  0.1956
17469W        W18333  10.654  13.251   7.210  0.0761 -0.4009 -0.4273
17470W        W18334   9.763  12.427   8.206 -0.0871 -0.1713 -0.0043
17471W        W18335  10.237  12.182   8.073 -0.0394 -0.0070  0.1134
17472W        W18336   9.581  10.033  12.105 -0.1497  0.3457 -0.2468
17473W        W18337   8.995  12.674   7.279 -0.1416  0.3552  0.0456
17474W        W18338  10.172  12.576   8.429  0.1279 -0.0755  0.1227
17475W        W18339   8.628   9.494   9.358 -0.0950  0.0649 -0.0554
17476W        W18340   9.323  13.717   9.602 -0.0643  0.0299  0.2719
17477W        W18341   9.228  12.546  13.177  0.0789 -0.2026 -0.0024
17478W        W18342   6.111  11.013   9.435  0.1824  0.1648 -0.0055
17479W        W18343   8.547  12.714   9.841  0.1412  0.1307 -0.0264
17480W        W18344   7.854  13.532   8.130 -0.0720  0.1684 -0.0037
17481W        W18345   7.812  11.651   8.238  0.1319  0.2155 -0.0944
17482W        W18346   8.839   2.902   9.275 -0.0200  0.0002 -0.0768
17483W        W18347   9.305  13.329  10.470  0.0765 -0.0048  0.3691
17484W        W18348   7.400  11.857  10.261 -0.1024 -0.1943  0.0768
17485W        W18349   9.880  12.611  11.477 -0.2011 -0.2210  0.2069
17486W        W18350  10.484  13.423  10.858 -0.0731  0.2897 -0.0139
17487W        W18351   7.150   0.024   9.984  0.2281  0.2512 -0.1052
17488W        W18352  10.733  13.151  11.368 -0.2516  0.2890  0.1333
17489W        W18353   6.977  13.671   8.652 -0.0508 -0.0256  0.2262
17490W        W18354   9.486  13.896  11.800  0.0280 -0.0646  0.0108
17491W        W18355  10.182  12.290  11.158 -0.2713  0.1612  0.2476
17492W        W18356   8.539  13.735   9.114  0.1905  0.0996 -0.2856
17493W        W18357   7.065  13.593   9.642 -0.0765  0.0181  0.4367
17494W        W18358   6.444   0.036   0.389 -0.0129  0.2053 -0.0703
17495W        W18359  10.939   0.109  12.906  0.0133 -0.2228 -0.0332
17496W        W18360  10.823  12.722  11.696  0.1527  0.0153 -0.1587
17497W        W18361   7.977  12.209  12.625  0.3743 -0.1002 -0.0237
17498W        W18362   7.959  13.986  10.761  0.0167  0.1832  0.1579
17499W        W18363  12.491  10.948  10.998  0.0672  0.1007  0.3414
17500W        W18364   6.863  12.794  13.129  0.1020  0.0979 -0.0863
17501W        W18365   8.483  10.144   0.261  0.2057 -0.1135  0.0098
17502W        W18366   8.773   0.540  10.615  0.0858  0.2441  0.3296
17503W        W18367   7.820  12.762  13.489 -0.0216 -0.0344  0.2657
17504W        W18368  11.757  10.759  13.603 -0.0506 -0.4153 -0.1649
17505W        W18369  12.234  13.141   0.920  0.2990  0.0757 -0.0747
17506W        W18370   9.522  12.114  13.964 -0.0129  0.0961 -0.1856
17507W        W18371   9.529  11.998   1.379  0.0566 -0.0383  0.2589
17508W        W18372   8.637  13.839  10.086  0.0511  0.0371  0.2999
17509W        W18373   7.891  13.150   0.314  0.0897  0.0148 -0.0843
17510W        W18374   9.775  10.772   0.131  0.2239  0.2835 -0.0427
17511W        W18375   9.832  13.238  12.324 -0.0357  0.2184  0.0966
17512W        W18376  10.639   0.633   1.690 -0.4020 -0.0642 -0.3351
17513W        W18377   9.450  12.190   0.877  0.1107  0.1075 -0.2778
17514W        W18378   7.456  11.552  12.071  0.2716 -0.1382  0.1472
17515W        W18379   6.255  11.416  13.706 -0.1879 -0.1730 -0.2287
17516W        W18380  10.587  11.271  12.727  0.1215 -0.1116  0.2184
17517W        W18381   9.886  11.949  13.157  0.1474  0.1653  0.1446
17518W        W18382   9.764  11.780  13.618  0.0184 -0.2271 -0.2905
17519W        W18383   9.146  11.895   9.862 -0.1125 -0.0011 -0.0160
17520W        W18384  10.231   0.004  12.949 -0.0980 -0.3924  0.0764
17521W        W18385  10.313  11.971  13.447 -0.0064  0.0919 -0.1789
17522W        W18386   6.595  11.335  11.919  0.0118  0.1953 -0.2972
17523W        W18387   9.965  12.867   1.136 -0.2584 -0.0868 -0.3964
17524W        W18388   8.969  12.331  12.420 -0.2033  0.1834 -0.0348
17525W        W18389   7.501  13.552  12.697 -0.0929 -0.0870  0.0523
17526W        W18390   8.831  13.071   1.860  0.3498 -0.0792  0.0167
17527W        W18391  10.096  10.911  13.691 -0.1308 -0.0776  0.0247
17528W        W18392  10.347  13.191   0.781 -0.1341  0.0029  0.0171
17529W        W18393   8.324  12.273  12.303 -0.0956 -0.2585 -0.4910
17530W        W18394   8.472  12.625   0.010  0.2943  0.3039  0.4354
17531W        W18395   7.442   2.058   0.544  0.2032  0.0625 -0.0236
17532W        W18396   7.821   0.043  12.226  0.4022 -0.0517  0.0808
17533W        W18397  10.586  13.070   0.348 -0.2233 -0.2362  0.1348
17534W        W18398  11.041   1.652   8.619  0.0534  0.2440 -0.1838
17535W        W18399  10.577  13.776   1.172 -0.0511 -0.2341 -0.1560
17536W        W18400   5.751  12.823  13.284  0.0403 -0.1087 -0.4732
17537W        W18401   8.496  13.153  11.883  0.0761  0.1758 -0.0170
17538W        W18402   8.079  12.584   0.417  0.0066  0.0886  0.1240
17539W        W18403   7.866  12.044  12.125  0.1062 -0.2372 -0.2497
17540W        W18404   7.328  13.023   9.262  0.0097  0.2438  0.2350
17541W        W18405   6.907  11.900  10.491 -0.0170 -0.0460  0.1429
17542W        W18406   7.335   0.941  11.478 -0.1630  0.0391  0.1778
17543W        W18407   9.039   0.051  11.592 -0.0073  0.0609  0.2623
17544W        W18408   9.913   1.148  10.043 -0.0147 -0.3703 -0.1504
17545W        W18409  11.002  13.212   0.561 -0.4759  0.2092 -0.2721
17546W        W18410  10.344  11.800   1.228 -0.0087  0.0597 -0.1130
17547W        W18411   9.963   2.533  11.383  0.0797  0.1019  0.3663
17548W        W18412   8.644  12.489   1.809 -0.2762 -0.1208  0.1419
17549W        W18413   7.186   1.567  11.896  0.0483  0.0487  0.0680
17550W        W18414   9.734   0.328  13.083  0.3434  0.0930 -0.2712
17551W        W18415   8.916  11.639  12.679 -0.2271  0.3140  0.0923
17552W        W18416   8.538  11.030  10.122 -0.2154 -0.0539 -0.4440
17553W        W18417  11.151  13.090  11.654 -0.0326 -0.0105  0.0772
17554W        W18418   8.830  11.276   1.194  0.0640 -0.1090 -0.0645
17555W        W18419   9.975  13.119  13.663 -0.2784  0.0223  0.0636
17556W        W18420   7.805   9.313  13.692 -0.0256  0.0077 -0.1571
17557W        W18421   9.737  12.036  12.152  0.1718 -0.1999 -0.1338
17558W        W18422   9.932  11.139  11.388  0.0539 -0.0562  0.1384
17559W        W18423  11.337  10.139  11.661 -0.0071  0.0780  0.0896
17560W        W18424  10.935  10.397  12.313  0.3043  0.0702 -0.0207
17561W        W18425  10.542  12.571  10.770  0.1308 -0.1618 -0.1050
17562W        W18426  11.054   5.173   9.556 -0.0304 -0.2965 -0.1464
17563W        W18427   8.347  11.623   0.140  0.2011  0.0930 -0.0809
17564W        W18428   8.263  10.978  11.093 -0.3533 -0.0151  0.1243
17565W        W18429  11.629  11.496  13.377 -0.1152  0.1906  0.1425
17566W        W18430   8.476   0.459   0.129 -0.3874 -0.2684  0.2662
17567W        W18431  10.155  11.478  13.669 -0.1304 -0.2041 -0.0351
17568W        W18432  11.366  11.424   0.193  0.1088 -0.0087 -0.0281
17569W        W18433  10.005   9.813  12.216  0.1582  0.0143  0.0828
17570W        W18434   6.438  12.498   0.060 -0.0003  0.1293  0.0052
17571W        W18435  11.294   8.831   0.783 -0.2857  0.1212 -0.0099
17572W        W18436  10.019   0.748   1.598  0.1404  0.2174  0.0171
17573W        W18437   9.975  12.813  12.641  0.2515 -0.1580 -0.0236
17574W        W18438  11.937  12.679   1.669 -0.3247 -0.1774  0.0465
17575W        W18439   7.706  10.405  13.875 -0.1033 -0.2094  0.0393
17576W        W18440   9.716  12.786  13.247  0.1704 -0.0616  0.3601
17577W        W18441  11.100  11.732  13.335  0.1357 -0.0523 -0.2341
17578W        W18442   7.736  13.109  13.083  0.0459 -0.3519  0.0096
17579W        W18443   9.552  12.676   0.940  0.3825  0.1030 -0.4412
17580W        W18444  11.132   1.553  13.375  0.0312  0.3172 -0.0193
17581W        W18445   7.491  12.109  12.818 -0.2071 -0.1019 -0.3424
17582W        W18446  11.873   0.568  11.880  0.0858 -0.2306  0.2012
17583W        W18447   6.591  12.575   0.917  0.1989 -0.3500  0.1687
17584W        W18448  11.634   0.900   0.925  0.1440 -0.1170 -0.1565
17585W        W18449   9.917   1.357  12.956  0.2265 -0.0296 -0.2102
17586W        W18450   9.848  13.261   0.740  0.0950  0.3575 -0.0974
17587W        W18451  10.301  12.047  12.982 -0.0973 -0.1849 -0.0174
17588W        W18452  10.280  10.526  13.980  0.2002 -0.4973 -0.0610
17589W        W18453   6.694  13.352   0.291  0.2040 -0.2768  0.0687
17590W        W18454  11.499  11.313  10.478  0.0139  0.1884  0.0011
17591W        W18455  12.845  13.351   1.357  0.0549 -0.3122 -0.1746
17592W        W18456  10.455  12.427  11.821 -0.1267  0.2337 -0.1476
17593W        W18457  11.084  13.151  13.074  0.1810 -0.1519 -0.1060
17594W        W18458  12.450   1.613  13.428 -0.1433 -0.1221 -0.2906
17595W        W18459   8.384  12.153   1.100 -0.3143 -0.1151  0.1980
17596W        W18460   7.645  11.657   9.654 -0.1842 -0.0061 -0.0672
17597W        W18461  10.845  12.195  11.502  0.1704 -0.3131  0.1874
17598W        W18462   9.000  10.628   0.422 -0.2392  0.1266 -0.1208
17599W        W18463  10.696  13.662  13.088  0.0438  0.2932  0.0917
17600W        W18464   8.007  10.554  11.299 -0.0021  0.0429 -0.1736
17601W        W18465   9.530   0.194   1.408 -0.1320  0.2330  0.1885
17602W        W18466   9.461  11.345  11.691  0.1050 -0.1859 -0.1045
17603W        W18467   7.313  13.567   1.105 -0.1551 -0.2665 -0.2343
17604W        W18468   9.678   0.274   2.580  0.0841 -0.0755 -0.2493
17605W        W18469   7.043   0.771   1.228 -0.1451  0.0676 -0.1324
17606W        W18470   9.860  12.399  12.890  0.2987 -0.1590 -0.3447
17607W        W18471  10.845  13.633   0.213 -0.1127 -0.2175 -0.2227
17608W        W18472   9.566  12.371  13.517 -0.2207  0.0551 -0.2900
17609W        W18473  10.104  11.436   0.883 -0.1027  0.2105 -0.1393
17610W        W18474   7.057  13.517   3.531 -0.0773  0.2205 -0.0474
17611W        W18475  10.600  13.347  13.938  0.0665 -0.1238  0.2227
17612W        W18476  11.291  11.957   0.124  0.0947  0.2080 -0.0197
17613W        W18477   5.724  13.975  12.021 -0.3461 -0.1707 -0.1539
17614W        W18478   9.660  11.324  13.590 -0.3765  0.0637  0.0020
17615W        W18479  11.852   0.083  13.507  0.1521  0.0461 -0.2545
17616W        W18480   9.934  12.801   0.580  0.2148 -0.0005  0.1493
17617W        W18481  10.645  13.250  12.387  0.1969  0.2176 -0.0040
17618W        W18482   7.876  10.296  13.242 -0.1487 -0.2542 -0.0951
17619W        W18483  10.294  13.355  11.370 -0.0107  0.2987  0.0498
17620W        W18484   8.542   1.933  12.427  0.2744  0.0662 -0.1899
17621W        W18485   7.652   0.650   3.052  0.3155 -0.3022 -0.0358
17622W        W18486   9.347   2.091  12.290  0.0350  0.1066 -0.1666
17623W        W18487   9.336   2.349  10.529 -0.0258 -0.0098  0.1545
17624W        W18488  11.823  11.368  11.587  0.0063  0.1614 -0.1715
17625W        W18489   7.737  13.691   0.163 -0.1310  0.0391 -0.0616
17626W        W18490   7.535  12.463  11.801 -0.1387  0.0049 -0.1089
17627W        W18491   8.973  11.945  10.685  0.2841  0.0803 -0.0341
17628W        W18492   8.620  11.029  11.518  0.2222 -0.1416  0.0783
17629W        W18493   9.848  11.861   1.007  0.0743 -0.1251  0.0299
17630W        W18494   6.627  12.776  13.620  0.0153 -0.1877  0.1482
17631W        W18495  10.281  13.537  12.246 -0.0791  0.1143 -0.1705
17632W        W18496   6.509   0.431  12.291  0.0965 -0.0811 -0.2395
17633W        W18497   9.327  12.950   2.743  0.0233 -0.0570  0.0226
17634W        W18498   8.053  10.210  12.268 -0.0959 -0.0314 -0.0486
17635W        W18499  10.976  12.320  11.965 -0.2764  0.2175  0.0370
17636W        W18500   4.642  12.919  12.046 -0.0906 -0.0610 -0.2519
17637W        W18501   8.573  11.169  12.483  0.0795  0.2086 -0.1074
17638W        W18502  11.720  10.919  11.309 -0.0966  0.1324  0.1402
17639W        W18503   8.970  10.936  13.247  0.2995 -0.4705 -0.0274
17640W        W18504  13.398   0.246   1.934 -0.0902  0.1138  0.1953
17641W        W18505   9.389   1.926  10.951 -0.0937  0.2001  0.1018
17642W        W18506   7.907  11.273   0.188 -0.3577  0.0245 -0.1757
17643W        W18507   7.120  13.177   9.859 -0.2300  0.1385 -0.1710
17644W        W18508  10.739  11.677   2.049  0.0840  0.1505 -0.0719
17645W        W18509   8.029  13.074   0.792  0.1503  0.1240 -0.0781
17646W        W18510   9.438  11.075  13.212 -0.1510  0.1392 -0.0720
17647W        W18511   9.101  11.443  12.215  0.0709 -0.1781 -0.0838
17648W        W18512  11.382  11.774   0.912  0.0407 -0.2523  0.0077
17649W        W18513  10.231  10.954  12.895  0.2789 -0.3635  0.2274
17650W        W18514  11.923  12.801  13.569  0.2164 -0.1587 -0.0026
17651W        W18515  10.244  11.989  12.052  0.1916 -0.1976 -0.1301
17652W        W18516   9.247  11.931  12.380 -0.2513 -0.3414 -0.0909
17653W        W18517   9.732  11.969  12.658 -0.0865  0.0320  0.3959
17654W        W18518   8.870   1.342  12.378  0.1910  0.0205  0.2634
17655W        W18519   7.174  13.417  13.090  0.1135  0.0776 -0.0899
17656W        W18520  12.387  12.554   1.425  0.2367  0.0805 -0.0532
17657W        W18521   8.364   0.367   1.934 -0.0861  0.1733 -0.2124
17658W        W18522   8.954  13.654  13.616  0.0419  0.0837  0.1212
17659W        W18523   9.015  13.454  10.920  0.1404  0.0014 -0.1451
17660W        W18524   8.554  11.360  11.122 -0.0311 -0.1096 -0.0256
17661W        W18525   9.822   9.369  13.364 -0.0100 -0.1358 -0.0250
17662W        W18526  10.712  11.875  13.834 -0.3775 -0.0074  0.2516
17663W        W18527   9.230  13.842   0.093 -0.1346  0.0241 -0.0090
17664W        W18528   8.531   1.369  10.847  0.4413  0.1335 -0.1957
17665W        W18529   8.225  11.248  13.760 -0.0523  0.0138 -0.0053
17666W        W18530   8.662  13.409   1.543  0.0281 -0.1223 -0.0673
17667W        W18531   8.144  10.861  12.668  0.0550 -0.0427  0.1051
17668W        W18532   8.884  12.305  12.891  0.2038 -0.0376  0.0942
17669W        W18533   9.296   0.464  12.049  0.0846 -0.1177 -0.0890
17670W        W18534  11.461  13.592   0.337  0.2158  0.2434  0.1381
17671W        W18535   9.495  10.354   0.470 -0.0365 -0.1356  0.0642
17672W        W18536   9.736   0.327   9.769 -0.2259  0.2108 -0.0813
17673W        W18537  11.257  11.609   1.825 -0.4071 -0.0149  0.1750
17674W        W18538   5.501  12.361  11.983  0.1726 -0.1508 -0.1478
17675W        W18539  12.036   0.121  12.132 -0.0711 -0.4147  0.1284
17676W        W18540   9.312   1.430  10.946  0.1516  0.1690 -0.2880
17677W        W18541   9.980   1.645  13.864 -0.3574  0.0801 -0.1165
17678W        W18542   9.038  10.635  13.660 -0.2473  0.2987  0.0714
17679W        W18543   9.629  12.476   0.369  0.0225 -0.0393  0.1126
17680W        W18544  10.134  13.480   2.257 -0.1624  0.1257 -0.2229
17681W        W18545  10.021   0.245   1.696  0.1190  0.0756  0.0877
17682W        W18546   9.224   0.083  10.994  0.1638  0.0779 -0.1331
17683W        W18547  12.748   0.165  12.744  0.2935 -0.0324 -0.1989
17684W        W18548  12.295   9.481  13.678  0.2120  0.0461 -0.0062
17685W        W18549   7.909  11.857  12.964 -0.2219 -0.0545 -0.1490
17686W        W18550   8.937  12.822   0.255  0.2248 -0.1388  0.0795
17687W        W18551   8.047   0.917  12.701  0.0896  0.3512 -0.1712
17688W        W18552   9.067   9.759  12.943 -0.2292 -0.1291  0.0716
17689W        W18553   8.733   0.288   1.550  0.2455 -0.2617 -0.1159
17690W        W18554   7.120  12.284  10.760 -0.1809 -0.1130  0.0151
17691W        W18555   9.766  12.004   0.524 -0.0459 -0.0340  0.2109
17692W        W18556   7.139   0.665  12.897 -0.1143 -0.4156  0.2567
17693W        W18557   8.293  13.730  10.512  0.0522  0.5443  0.0771
17694W        W18558   6.727  13.283  10.287 -0.0545  0.3565 -0.1525
17695W        W18559  12.878   1.602  13.639  0.1492 -0.2921 -0.1818
17696W        W18560  10.556   0.083  13.479 -0.4738  0.0253  0.2480
17697W        W18561  12.484  12.398  10.544  0.0382 -0.1410  0.2711
17698W        W18562   9.681   0.322  10.242 -0.2946  0.0644 -0.2122
17699W        W18563  12.124  10.276  12.051  0.2485  0.1011  0.2199
17700W        W18564  10.606   1.297  13.614  0.1249  0.2350 -0.0960
17701W        W18565   7.202  10.480  10.183 -0.0621 -0.0912  0.1072
17702W        W18566  12.435   1.711  12.044 -0.4080 -0.0069  0.0401
17703W        W18567   8.702  13.020  10.763  0.0287  0.1821  0.1187
17704W        W18568   9.259  10.751  12.779 -0.2110  0.1239 -0.2328
17705W        W18569  11.668  12.338   1.214  0.3024  0.1704  0.1611
17706W        W18570   9.854  10.463  13.723 -0.0348  0.0696 -0.1687
17707W        W18571   5.331   0.393  11.843  0.1037  0.1555  0.0427
17708W        W18572  10.372  11.535  13.148  0.1290 -0.0102 -0.0990
17709W        W18573  10.544   0.200  11.170  0.2106 -0.0923  0.0044
17710W        W18574  10.946   8.621   0.505 -0.0948  0.1574 -0.0629
17711W        W18575  11.463  12.699   0.824 -0.2287 -0.2964  0.2481
17712W        W18576   9.722   0.880  11.637  0.1481 -0.1255  0.1632
17713W        W18577  13.660  10.933  10.714 -0.1796  0.2217  0.2632
17714W        W18578  11.836  12.946   0.034  0.1928  0.1424  0.3428
17715W        W18579  12.638  13.686   2.185  0.0323  0.2405 -0.0727
17716W        W18580   6.940  12.479   2.328 -0.4173  0.0964 -0.2466
17717W        W18581   9.013  10.041  13.370 -0.0525 -0.1297  0.3844
17718W        W18582  11.120  12.836  11.227  0.4911 -0.1674 -0.2890
17719W        W18583   9.195   0.074  12.793  0.0754 -0.2000 -0.1189
17720W        W18584   9.800  12.426   1.364 -0.0832 -0.0484  0.1048
17721W        W18585  10.097  13.564  13.145 -0.2512 -0.0541 -0.0151
17722W        W18586   7.725   0.716  11.714  0.0485 -0.1063 -0.2109
17723W        W18587   7.862   1.677  13.744  0.1503 -0.0541 -0.6150
17724W        W18588   9.669  13.424  13.325 -0.4604 -0.2233 -0.0087
17725W        W18589   7.707  12.749  11.359 -0.0273  0.0371  0.2984
17726W        W18590   6.268  12.357  11.554  0.0778 -0.2521 -0.0375
17727W        W18591   7.942  11.784   1.063 -0.3564 -0.4379 -0.1900
17728W        W18592   8.441  13.377   0.643 -0.0087  0.1318 -0.0422
17729W        W18593  10.986  13.470  11.065 -0.2982  0.1814  0.2277
17730W        W18594  11.415   0.389   0.223  0.2139  0.0512 -0.1843
17731W        W18595  12.021  12.300  11.387 -0.0172  0.1686 -0.1100
17732W        W18596  11.669   0.031  13.999 -0.0548  0.0240 -0.2937
17733W        W18597   5.806   0.522  12.063  0.1813  0.0441 -0.1130
17734W        W18598  10.956  12.832  13.387  0.2285  0.1904  0.3083
17735W        W18599   8.535  11.641   3.722 -0.1385 -0.0941  0.3896
17736W        W18600  12.563   8.306  13.989 -0.2044 -0.1564 -0.3028
17737W        W18601  10.261  13.924  10.788 -0.1560 -0.1073 -0.0060
17738W        W18602   8.545  10.520  12.410  0.4054  0.1126  0.1232
17739W        W18603   5.964  12.354   0.102  0.0958 -0.1784 -0.2264
17740W        W18604  12.607   0.946  12.988  0.2249  0.0103 -0.2410
17741W        W18605   8.652  10.331  13.547 -0.0192 -0.0007  0.1849
17742W        W18606  12.854   0.017   1.408  0.2014  0.0813 -0.0614
17743W        W18607  10.019   0.960  12.664  0.2528  0.2659 -0.2369
17744W        W18608  12.056  13.864   0.348 -0.0951  0.1763  0.2204
17745W        W18609   9.889   2.641  12.555  0.0304  0.2566 -0.1398
17746W        W18610   9.572   9.266  10.581 -0.0221  0.0281  0.0165
17747W        W18611   8.927  12.730  13.774  0.1763 -0.0374 -0.0450
17748W        W18612   6.560  11.589  11.489  0.0648 -0.2612 -0.3360
17749W        W18613   7.222  12.424  13.282 -0.1535 -0.1015 -0.0987
17750W        W18614  12.106  13.202  11.023 -0.1580 -0.0316  0.3743
17751W        W18615  11.565   2.028  12.811 -0.1118  0.1227 -0.2607
17752W        W18616   9.768   0.280  12.152 -0.3393 -0.1147 -0.4165
17753W        W18617   9.384  12.958  13.601 -0.2226  0.0876  0.3114
17754W        W18618  12.383  11.368  12.903 -0.0714  0.1068 -0.0984
17755W        W18619   8.197  13.217  12.923 -0.1864  0.2708 -0.0296
17756W        W18620  10.530  13.221  13.226  0.1435  0.1629  0.1955
17757W        W18621   9.509   1.002   9.056 -0.1588  0.1812  0.0980
17758W        W18622  12.903  13.166  12.992  0.1503 -0.1145  0.1183
17759W        W18623   8.092  12.985   9.750 -0.2218  0.4464  0.2680
17760W        W18624  10.864   9.851  13.951  0.0044 -0.3490  0.1381
17761W        W18625   6.698  12.273  13.075 -0.0239 -0.1802  0.2348
17762W        W18626   7.974   0.273   0.291  0.1608 -0.1756 -0.0552
17763W        W18627   6.766  13.141  12.827  0.1022 -0.1602  0.0042
17764W        W18628   6.933   0.076  12.483 -0.0138 -0.1390 -0.2467
17765W        W18629   9.323  12.247   2.192 -0.0502  0.1345 -0.1250
17766W        W18630   8.775  12.064   2.569  0.0433 -0.2663 -0.0622
17767W        W18631   9.506   0.049   1.961 -0.0477  0.0973  0.2409
17768W        W18632  10.196   0.645  11.805 -0.2062 -0.0452 -0.0735
17769W        W18633   8.028  13.640  12.511  0.3796  0.0828 -0.0336
17770W        W18634  10.087  13.326   0.227  0.0551  0.1240  0.2599
17771W        W18635   6.986  12.683   9.947  0.0464  0.2591 -0.2709
17772W        W18636   9.690  12.980   0.109 -0.2200  0.0297 -0.0864
17773W        W18637   9.575   0.484  13.539 -0.0927 -0.0823  0.6643
17774W        W18638  12.755   6.488   3.847 -0.3215 -0.1339  0.0221
17775W        W18639  11.622   2.919   4.394  0.0802  0.0530  0.0719
17776W        W18640  10.937   1.898   1.290  0.0285 -0.1121 -0.0817
17777W        W18641  11.006   4.521   2.518 -0.1384  0.1440 -0.1738
17778W        W18642   0.299   1.888  13.860 -0.1647  0.0130 -0.2759
17779W        W18643   9.421   2.672   3.337  0.1705  0.1450 -0.0894
17780W        W18644  12.478   1.136   2.181 -0.2124  0.2244  0.3155
17781W        W18645  11.374   2.790   3.617  0.1262  0.3381  0.0825
17782W        W18646  12.640   4.134   4.013  0.0100 -0.1695 -0.3206
17783W        W18647   9.189   0.896   3.605 -0.1521 -0.1838 -0.4191
17784W        W18648   1.054   0.277   1.527 -0.2708 -0.1938 -0.0288
17785W        W18649  13.750   0.201   1.525 -0.0530 -0.2491 -0.2591
17786W        W18650   0.300   1.599   3.607 -0.1539  0.3430 -0.3268
17787W        W18651  11.768   1.844   2.998 -0.1479  0.1546  0.0570
17788W        W18652   9.392   3.549   4.766  0.3977 -0.4236  0.0391
17789W        W18653   1.304   1.286  13.243  0.0091 -0.2372  0.0983
17790W        W18654   9.477   1.503   1.543  0.0159  0.0310  0.1136
17791W        W18655  10.205   0.383   2.791  0.1392 -0.2035  0.4193
17792W        W18656   3.862  12.853   1.463 -0.2435 -0.5004  0.0084
17793W        W18657  11.190   4.846   3.904 -0.3167  0.1592  0.1364
17794W        W18658  11.371   3.063   1.652 -0.0630 -0.2457 -0.0927
17795W        W18659  10.259   2.321   3.661 -0.2481  0.2795 -0.0968
17796W        W18660  11.450   0.817   3.475  0.1483  0.0530  0.4862
17797W        W18661   9.658   0.123   3.483  0.0466  0.1525  0.3090
17798W        W18662  12.557   2.027   4.869 -0.1680 -0.0468  0.1711
17799W        W18663   8.504   2.429   5.253 -0.1538  0.4249 -0.0216
17800W        W18664  12.729   1.262   0.892  0.0727  0.0683 -0.3736
17801W        W18665  13.753   3.652   1.982  0.0181 -0.2554  0.1904
17802W        W18666  12.418   0.815   6.219  0.0385  0.0306 -0.1191
17803W        W18667  13.239  13.798   3.226 -0.1894  0.0004  0.6766
17804W        W18668  10.596   1.960   3.649 -0.0191 -0.0326 -0.3668
17805W        W18669  10.182   1.549  11.922  0.1810  0.2839 -0.0483
17806W        W18670  13.075   1.200  12.710  0.1940  0.1325 -0.1159
17807W        W18671   1.221   0.649   1.854 -0.0711 -0.0329 -0.1523
17808W        W18672  11.348   1.330   0.773 -0.1420 -0.1424  0.0082
17809W        W18673  13.972   2.543   3.130 -0.2128  0.1898 -0.0503
17810W        W18674  10.914   3.885  12.279  0.1763  0.1432  0.1137
17811W        W18675  12.042   3.521  10.089  0.1692  0.0861  0.4894
17812W        W18676  10.924   1.059   5.263  0.1288 -0.0313 -0.2668
17813W        W18677   0.608   0.216   2.544  0.2285 -0.0678 -0.0610
17814W        W18678  11.909   1.745   1.408 -0.0053 -0.0912 -0.0666
17815W        W18679   9.888   2.883   5.312 -0.0406 -0.2445  0.1161
17816W        W18680  10.219   1.256   0.601 -0.1471 -0.1953  0.0514
17817W        W18681  13.329   3.586   4.448 -0.2644  0.0525 -0.0181
17818W        W18682   0.730   2.938  13.603 -0.0465  0.2901  0.0048
17819W        W18683  11.836   1.721   1.989  0.0435 -0.1349 -0.3062
17820W        W18684  11.470   2.615   0.833  0.0390 -0.3311 -0.0081
17821W        W18685  11.909   0.159   2.967 -0.0932  0.0087 -0.0946
17822W        W18686  13.373   2.763   0.146  0.2583  0.2223  0.2178
17823W        W18687   9.323   0.821   2.170 -0.1175 -0.0641  0.0307
17824W        W18688  13.315   3.737   3.505 -0.0938 -0.3798 -0.3071
17825W        W18689  11.135  13.909   1.890  0.0480  0.0761 -0.2417
17826W        W18690  11.511   1.574   5.838  0.0629 -0.1050 -0.0760
17827W        W18691  12.865  12.972   1.783  0.1059  0.0168 -0.2204
17828W        W18692  10.088  13.872   2.745 -0.0890 -0.0217  0.1865
17829W        W18693  11.802   2.148   1.118 -0.2947 -0.0508  0.2848
17830W        W18694  10.837   1.230  12.657  0.1563  0.2441  0.0723
17831W        W18695  13.888   1.194   3.566 -0.2394 -0.3274 -0.0888
17832W        W18696  11.422   1.271   0.234 -0.1895 -0.0316  0.0273
17833W        W18697  11.901   4.257   2.740  0.0591  0.0151 -0.0356
17834W        W18698  11.960  13.514   1.707  0.0545 -0.1232 -0.1549
17835W        W18699  13.897   2.265   4.359  0.1465 -0.0079 -0.2116
17836W        W18700  12.733  13.482   3.360 -0.1131  0.3610 -0.1590
17837W        W18701   9.763   1.988  13.582 -0.2918 -0.3621  0.0166
17838W        W18702  11.410   2.629   0.336 -0.3437  0.1026  0.1604
17839W        W18703  12.592   1.575   0.275  0.0376 -0.1462  0.1452
17840W        W18704   1.035  13.864   3.990 -0.0419 -0.3289 -0.2535
17841W        W18705  11.361   3.057   2.161  0.0466 -0.0993  0.0502
17842W        W18706  13.302  12.437   5.291 -0.3218 -0.1397  0.0401
17843W        W18707  11.143  11.200   2.940  0.3000  0.4442  0.1519
17844W        W18708   2.797   0.312   0.849 -0.0922 -0.0488 -0.2230
17845W        W18709  13.538   0.842   3.440 -0.2986  0.1444  0.1048
17846W        W18710  11.281   1.994  13.645 -0.1416  0.3474 -0.2227
17847W        W18711  12.502   1.471   3.618  0.1782  0.0308 -0.0462
17848W        W18712  13.749   2.252   0.977  0.3270 -0.1240  0.3313
17849W        W18713  13.588   0.523   3.972 -0.0635  0.4168  0.1159
17850W        W18714   4.783   1.562   4.249 -0.1564 -0.2541  0.5563
17851W        W18715   9.422   1.814   2.496  0.0000 -0.1020 -0.1720
17852W        W18716  12.034   2.558  13.529  0.0800  0.0884  0.1055
17853W        W18717  10.044   0.891   3.545 -0.2996  0.2142 -0.0289
17854W        W18718   2.090   1.925  13.934 -0.3182  0.0435 -0.0557
17855W        W18719  12.895   2.736   4.432 -0.0080 -0.0666 -0.1101
17856W        W18720  10.605   2.326   0.646  0.2114 -0.1713 -0.2126
17857W        W18721   9.283  13.957   3.936  0.1893  0.0321  0.0541
17858W        W18722  11.695   0.811   1.574  0.0233 -0.1147  0.1182
17859W        W18723  12.953   0.999   1.674  0.0104 -0.0396 -0.3409
17860W        W18724  11.785   2.823  13.158  0.0199  0.1713 -0.1055
17861W        W18725   1.230   2.986   6.518 -0.4444  0.2539  0.3236
17862W        W18726   0.209  13.825   4.331  0.0867 -0.3724  0.2064
17863W        W18727  10.407   1.271   3.443  0.1014 -0.0658 -0.2201
17864W        W18728  12.466   1.540   2.412  0.1598 -0.1349 -0.0663
17865W        W18729  11.094   1.950   0.860 -0.0566 -0.2980  0.1220
17866W        W18730  12.655   2.526   2.888  0.0534 -0.0559  0.4479
17867W        W18731  12.442   3.041  13.811  0.0101  0.1568  0.0478
17868W        W18732  13.967   2.317   1.909 -0.0219 -0.2262 -0.1161
17869W        W18733  11.220   1.098   3.072  0.0227  0.1615  0.0838
17870W        W18734  12.288   1.365   1.291 -0.0186  0.1448 -0.3753
17871W        W18735  13.274   0.814  13.917 -0.1480 -0.0372 -0.0387
17872W        W18736  12.193   2.503   0.983 -0.4988 -0.1932  0.2802
17873W        W18737  13.079   2.576   3.180 -0.0815  0.3988  0.2138
17874W        W18738   9.828   2.983  13.516  0.1951  0.2259 -0.2964
17875W        W18739  11.803   3.838   0.698 -0.2731 -0.1349  0.1742
17876W        W18740   9.545   1.845   3.448  0.0047  0.2414  0.0380
17877W        W18741   0.325   2.649   2.081 -0.1716  0.1179  0.1970
17878W        W18742   0.538   2.241   1.813  0.0984 -0.1126  0.0606
17879W        W18743  11.270   2.641   4.080  0.0302  0.1209  0.1193
17880W        W18744   1.497   1.931   5.820 -0.4188  0.1720  0.2891
17881W        W18745   0.538   2.950   1.362  0.0757  0.2854 -0.0511
17882W        W18746   0.696   1.175   4.121  0.1608  0.1233  0.1781
17883W        W18747  12.004   1.308   2.231  0.3725  0.3842 -0.0296
17884W        W18748   0.810   1.930   2.037  0.1090  0.1126 -0.0471
17885W        W18749  13.232   2.194   2.355  0.0215  0.0318  0.1079
17886W        W18750  12.633   3.068   4.059  0.1889  0.2146  0.2245
17887W        W18751  10.797   2.351   1.181 -0.0284  0.1219 -0.4447
17888W        W18752  11.435  13.991   3.217  0.0255  0.0793  0.1327
17889W        W18753  10.472   7.727  13.683  0.0179 -0.1050 -0.3994
17890W        W18754  11.220   3.670   0.100 -0.5554 -0.3712  0.0483
17891W        W18755  13.129   4.358   4.882 -0.1923  0.3623  0.2687
17892W        W18756  11.444   1.194  13.769 -0.1546 -0.1585 -0.0334
17893W        W18757  13.006   0.580   2.677  0.2705  0.0450  0.0211
17894W        W18758   0.695   3.941   1.525  0.0521  0.1839 -0.1281
17895W        W18759  13.143   3.040   1.446  0.0355  0.0093  0.1703
17896W        W18760  13.251   1.466   2.915  0.5313  0.1550  0.0268
17897W        W18761  11.008   0.975   1.067  0.0131 -0.0201 -0.0278
17898W        W18762  13.947   1.459   2.707  0.0630 -0.0171  0.0179
17899W        W18763  11.805   3.141   1.423  0.1462  0.1214 -0.0059
17900W        W18764  13.354   0.810   1.847 -0.1103 -0.1964  0.1400
17901W        W18765  12.975   0.409   2.175 -0.1764 -0.2908 -0.0719
17902W        W18766   8.931   0.934   2.547  0.1687  0.0100 -0.3808
17903W        W18767  11.416   1.249   2.593  0.5134 -0.3244 -0.1677
17904W        W18768  11.070   0.303   2.720  0.1472 -0.0745  0.0823
17905W        W18769   0.036  13.804   0.862 -0.0078 -0.1736 -0.0997
17906W        W18770  10.688  13.203   2.356  0.2754  0.0196  0.3134
17907W        W18771  13.521   1.287   2.539  0.0241  0.2094 -0.4540
17908W        W18772  11.937   0.663   3.307 -0.1000 -0.0514  0.0472
17909W        W18773   0.972   0.117   4.474  0.0366 -0.0301  0.1652
17910W        W18774  13.421   1.408   3.422 -0.2182  0.3086  0.0232
17911W        W18775  10.559   2.744   4.452  0.0949  0.0237  0.0738
17912W        W18776  11.491  13.607   1.655 -0.0820  0.1977  0.0637
17913W        W18777  11.420   3.629   2.357  0.0021  0.0302  0.0412
17914W        W18778   9.102   2.666   5.048  0.0531 -0.0494  0.1324
17915W        W18779   9.636   4.140   0.386  0.3285 -0.1843 -0.0969
17916W        W18780  13.043   2.816   0.996  0.1767 -0.0959  0.0425
17917W        W18781  12.475   0.969   3.709  0.2489 -0.1897 -0.0090
17918W        W18782  13.305   2.064   1.382 -0.4975 -0.1422 -0.2119
17919W        W18783  13.425   5.255   1.294  0.1771  0.1432  0.2679
17920W        W18784   2.830   1.739   0.736 -0.1834  0.1696 -0.0862
17921W        W18785   9.426   1.523   3.810 -0.1193 -0.1291  0.0116
17922W        W18786   9.804   0.719   2.276  0.3407 -0.3180 -0.2476
17923W        W18787  12.564   5.858  13.200  0.3671  0.1843  0.0584
17924W        W18788  12.949  13.552   2.539 -0.0881  0.0576 -0.1751
17925W        W18789  11.279   3.047  11.741 -0.0091 -0.1691  0.1363
17926W        W18790  10.709   3.858   3.223 -0.3697 -0.0204  0.0425
17927W        W18791  13.152   1.878  13.182  0.0471 -0.0835  0.1102
17928W        W18792  10.538   4.505   0.509  0.0768  0.0953  0.1191
17929W        W18793   1.599   1.469   5.257 -0.1098  0.3255 -0.0744
17930W        W18794  12.064  13.244  11.885 -0.0798 -0.0431  0.0424
17931W        W18795  12.230   1.092   3.255 -0.0250  0.1403  0.2907
17932W        W18796   2.253   3.122   0.655  0.2912  0.1715  0.2025
17933W        W18797  12.303   3.482  13.601 -0.0710  0.0511 -0.1895
17934W        W18798  12.820   0.099   3.304 -0.1163 -0.3408 -0.1988
17935W        W18799  13.318   1.778   3.787 -0.0033  0.0540  0.0323
17936W        W18800  11.357  13.983   6.025  0.0518 -0.0534 -0.1908
17937W        W18801  11.883   1.015   3.669  0.2065  0.2712  0.0023
17938W        W18802  13.719  13.128  13.484 -0.2151 -0.2876 -0.1607
17939W        W18803  11.361   0.912  12.513 -0.1642 -0.4375 -0.2037
17940W        W18804  13.151   2.302   0.952 -0.1951 -0.0923  0.0848
17941W        W18805   9.268   1.606   3.004 -0.0015 -0.2092 -0.2266
17942W        W18806   1.658   0.626  13.971 -0.1750 -0.0077  0.1740
17943W        W18807  10.232   1.158   1.649  0.4056 -0.1264 -0.1182
17944W        W18808  12.359   0.437   0.961 -0.1667  0.1364 -0.1103
17945W        W18809  13.784   1.592   0.154 -0.1913 -0.3405 -0.0893
17946W        W18810   9.563   3.682   0.578  0.2601  0.1756 -0.1764
17947W        W18811  12.690   2.986   3.453 -0.0799 -0.0144 -0.0775
17948W        W18812  12.166   3.044   2.302 -0.1110  0.0430  0.0797
17949W        W18813  13.452   5.909   0.580  0.1861  0.0924  0.2317
17950W        W18814  11.756   3.334  13.776 -0.1696  0.0717  0.2493
17951W        W18815  12.441   1.840   3.283  0.4340 -0.1762  0.2281
17952W        W18816   0.240   1.346   3.192 -0.0069 -0.0343 -0.1958
17953W        W18817   9.362  12.023   3.826  0.0430  0.0069  0.1152
17954W        W18818  13.469   0.806   2.393 -0.0788 -0.0106 -0.1695
17955W        W18819  13.021   2.855  13.480 -0.1263 -0.0534 -0.0925
17956W        W18820  12.346   1.965   1.097  0.1509 -0.0926 -0.1974
17957W        W18821   2.042   1.809   1.804 -0.1601 -0.0745 -0.0952
17958W        W18822   9.872   2.392   4.209  0.0389  0.2418 -0.1281
17959W        W18823  12.116   5.260   4.222 -0.2223  0.2100 -0.1969
17960W        W18824  12.763   0.057   1.888  0.3410 -0.0494 -0.0315
17961W        W18825  12.140   2.778   4.296 -0.0568  0.0545 -0.2736
17962W        W18826  11.555   2.332   3.355 -0.0548  0.0862  0.1653
17963W        W18827  13.772   3.388   0.669 -0.0371  0.0648  0.2695
17964W        W18828  12.174  12.210   3.685  0.0082  0.1220  0.2883
17965W        W18829  13.376   1.053   5.193  0.2307 -0.1230  0.2462
17966W        W18830  13.399   2.961   0.639 -0.1866  0.0438 -0.3278
17967W        W18831   0.544   0.844   1.026  0.0247 -0.0838 -0.3883
17968W        W18832  11.355   1.165   3.868  0.3088 -0.0212 -0.2791
17969W        W18833  12.424   3.014   2.988 -0.3154  0.0752  0.3045
17970W        W18834  11.606   0.845   2.965  0.1303 -0.0464 -0.0768
17971W        W18835   0.179   0.303   1.781 -0.0159  0.0083  0.0063
17972W        W18836   3.228   1.107   1.778  0.0521 -0.1197 -0.1108
17973W        W18837  13.520   0.115   2.424  0.1343  0.0222 -0.0277
17974W        W18838  10.684   1.353   5.004 -0.1249  0.1441 -0.1093
17975W        W18839   9.870   3.461   3.174  0.0743 -0.5331 -0.0315
17976W        W18840  11.488   0.360   1.601  0.3525  0.2375 -0.1326
17977W        W18841   0.029   0.407   4.181  0.0958 -0.3186 -0.0115
17978W        W18842  12.921   2.451  13.976 -0.0358  0.0721 -0.1580
17979W        W18843  12.512   3.666   3.931  0.2574 -0.2394 -0.0917
17980W        W18844   0.810   3.288   0.948  0.1167  0.1354  0.0232
17981W        W18845  11.665   2.196   1.607  0.0293  0.2180 -0.0884
17982W        W18846   9.452   4.680   3.290 -0.1145  0.2627 -0.1599
17983W        W18847  11.998   0.880   4.656  0.2234 -0.1915 -0.1895
17984W        W18848   2.895   2.078   3.485 -0.1012  0.0201  0.5754
17985W        W18849  10.507   0.254   1.952 -0.2743 -0.0904 -0.2108
17986W        W18850  11.983   1.300   1.683 -0.1592  0.3620  0.0200
17987W        W18851  13.397   3.094   2.877  0.2606  0.1082 -0.2190
17988W        W18852  10.907   0.460   0.492 -0.2844 -0.1616  0.0523
17989W        W18853  13.175  13.499   3.584  0.4635 -0.0139  0.0700
17990W        W18854   0.186  11.832   2.638 -0.0808 -0.0700  0.1322
17991W        W18855   1.348   1.650   3.394 -0.0525 -0.0289  0.2106
17992W        W18856  10.585   1.695   0.618  0.1327  0.1343 -0.0453
17993W        W18857  13.897   0.975   2.593 -0.0750 -0.2650 -0.0221
17994W        W18858  10.188   6.103   3.045 -0.3185  0.0036 -0.0157
17995W        W18859   8.956   3.225   0.195 -0.1926 -0.0894 -0.2368
17996W        W18860   0.842   1.504   3.476  0.3483 -0.1716 -0.2181
17997W        W18861  12.164   0.533   3.804  0.1712  0.0853  0.0390
17998W        W18862  10.172   3.011   0.835 -0.5009 -0.2072  0.1615
17999W        W18863  12.929   2.608   0.481  0.0313 -0.0969  0.0776
18000W        W18864   0.690   1.600   0.731  0.2314 -0.0541 -0.0390
18001W        W18865  10.985   3.365   2.384  0.2089  0.2756 -0.3922
18002W        W18866  13.494   6.627   4.874 -0.2043  0.1036  0.1001
18003W        W18867  11.830   1.778   4.199 -0.1098  0.0939 -0.0915
18004W        W18868   9.207  13.867   3.391 -0.1713  0.3193  0.1042
18005W        W18869  12.213   1.444  11.699  0.0648 -0.0874 -0.1705
18006W        W18870  13.283   0.027   3.820 -0.0372  0.1141 -0.1744
18007W        W18871  11.925   1.812   5.085  0.0460  0.2599  0.1812
18008W        W18872  10.621   0.984   0.819 -0.0556 -0.4376  0.3133
18009W        W18873  11.950   2.139   0.185 -0.0992  0.0342 -0.1141
18010W        W18874  10.689   5.316   4.633 -0.1536 -0.1245  0.2130
18011W        W18875   1.821   1.262  13.526  0.2169 -0.0030  0.5526
18012W        W18876  12.576   2.906   0.921 -0.1977  0.2132 -0.0434
18013W        W18877  10.774   3.061   4.782  0.1656  0.0030 -0.0345
18014W        W18878  12.576   2.217   0.245  0.0201  0.1304  0.2994
18015W        W18879   0.208   4.566  13.948 -0.1398  0.0845  0.0402
18016W        W18880   1.235   0.482  12.318 -0.0717  0.4086 -0.2270
18017W        W18881  10.664   0.112   0.873  0.1745  0.1282  0.0737
18018W        W18882  11.911   2.047  13.723  0.3221  0.1837  0.1567
18019W        W18883  11.705   0.762   0.267  0.1922 -0.4212  0.1701
18020W        W18884  11.796   0.005   1.988 -0.1288 -0.0105 -0.1663
18021W        W18885  12.616   2.294   0.822 -0.1040 -0.0110  0.3325
18022W        W18886   9.747   2.096  12.621  0.0160 -0.2584  0.2946
18023W        W18887  12.662  13.356   3.867  0.0876  0.0396  0.1046
18024W        W18888  10.896   1.484   4.492 -0.0112  0.2394  0.1408
18025W        W18889  12.024   1.680   0.363 -0.2654 -0.0191 -0.1339
18026W        W18890  10.567   3.724   4.258 -0.1611  0.0694  0.2329
18027W        W18891   0.775   2.522   4.082 -0.0109  0.3968  0.0936
18028W        W18892   9.952   2.909   0.011  0.0558  0.0627 -0.2629
18029W        W18893  13.635   0.098   3.005  0.0474 -0.0028  0.0301
18030W        W18894  10.430   1.575   2.405 -0.1813  0.0238  0.0258
18031W        W18895  12.814  12.082   0.886  0.1971 -0.0130  0.1380
18032W        W18896  12.781   1.526   5.670 -0.1499  0.1897 -0.1067
18033W        W18897   0.944   0.768   1.355  0.1805 -0.0709  0.1882
18034W        W18898  13.623   3.283   2.421 -0.0520 -0.0648 -0.0633
18035W        W18899   8.265   1.762   5.532 -0.4527 -0.0806  0.2314
18036W        W18900  12.330   1.422   5.480 -0.2138  0.0880  0.0274
18037W        W18901  10.862   0.500   1.167  0.1095  0.1348 -0.0051
18038W        W18902  12.631   0.018   0.938 -0.0909 -0.0580 -0.0443
18039W        W18903  13.938   2.803   3.607  0.1857 -0.0225  0.0141
18040W        W18904  11.974   0.353   2.396  0.2138 -0.0936 -0.0417
18041W        W18905  12.991   2.286   4.026 -0.0832 -0.0154 -0.0918
18042W        W18906  12.787   2.520   4.898 -0.2833  0.1697  0.0699
18043W        W18907  12.199   0.717  13.985  0.1878 -0.3497 -0.2956
18044W        W18908  11.411   3.695  13.544 -0.0822  0.0158  0.1228
18045W        W18909   0.234   0.864   4.369 -0.3231 -0.0712  0.1524
18046W        W18910  12.158  10.577   3.582  0.0737  0.0937  0.0928
18047W        W18911  11.995   2.356  13.011 -0.0731  0.0743 -0.0876
18048W        W18912  11.178   0.729   1.528 -0.0723 -0.1064 -0.2602
18049W        W18913  11.196   3.943   3.231  0.0702 -0.1698  0.1509
18050W        W18914   1.031  13.809   4.888 -0.0797 -0.0512  0.0213
18051W        W18915  13.277   1.744   4.567  0.0583  0.0414 -0.1453
18052W        W18916  13.154   4.220   1.239  0.1332 -0.1311  0.0891
18053W        W18917  10.911   3.056   1.956 -0.2305 -0.1400 -0.0228
18054W        W18918  12.277   0.036   2.071 -0.3904 -0.2170 -0.0156
18055W        W18919  10.633   3.159   1.183 -0.5780 -0.0150 -0.1953
18056W        W18920   0.558   0.052   3.004 -0.1063 -0.0182 -0.0864
18057W        W18921   1.374   0.891   3.556 -0.1053  0.0947 -0.0835
18058W        W18922   9.747   3.217  13.003 -0.3351  0.2502 -0.0131
18059W        W18923   0.380   1.131   3.743  0.1442  0.0832 -0.0918
18060W        W18924  11.359   4.386   2.837  0.0009 -0.1049 -0.0969
18061W        W18925   9.435   2.393  13.703  0.0469  0.0255 -0.2059
18062W        W18926  11.288   0.455   3.132  0.2545  0.1557 -0.3329
18063W        W18927  13.157   1.020   2.694 -0.1026  0.2030  0.0200
18064W        W18928   9.967  13.957  13.369  0.0472 -0.1450  0.0320
18065W        W18929   1.023   0.220   3.123 -0.1418 -0.0696  0.0947
18066W        W18930  12.538   0.404   1.520 -0.0123 -0.1978  0.3367
18067W        W18931  12.489   1.144   1.687  0.0187 -0.0145 -0.0760
18068W        W18932   0.124   2.355  13.729 -0.0619  0.2903 -0.1951
18069W        W18933  13.859  13.175  12.920  0.0908  0.2717  0.1782
18070W        W18934  11.480   1.839   4.746  0.1458  0.2579  0.1271
18071W        W18935  13.553   3.186   3.749  0.1261 -0.2138  0.0728
18072W        W18936  10.767   1.489   5.486  0.0600 -0.0194 -0.0606
18073W        W18937  10.188   2.521   0.766 -0.2044 -0.3321  0.0487
18074W        W18938   9.871   2.187   1.078  0.1343  0.1973  0.1855
18075W        W18939   0.724   0.889   2.106 -0.1503 -0.0113  0.1999
18076W        W18940  11.802   1.290   1.196 -0.2045  0.4441 -0.1247
18077W        W18941  12.298  13.196   1.474  0.1344  0.0250  0.0582
18078W        W18942  11.847   5.546   3.791  0.0571 -0.1117  0.0672
18079W        W18943  13.197   3.596   2.446  0.3238 -0.3421  0.2142
18080W        W18944  13.077   1.354   0.488  0.1840 -0.0308 -0.1452
18081W        W18945  10.946   2.553  13.017 -0.1274 -0.2132  0.1293
18082W        W18946  11.031   1.485   1.784  0.0945  0.4108 -0.0276
18083W        W18947  13.757   2.929  13.603  0.1683  0.2086 -0.2072
18084W        W18948   0.992  13.052   3.977 -0.2093 -0.0129 -0.0318
18085W        W18949  12.395   3.113   0.346  0.0132  0.1918  0.1938
18086W        W18950   0.936   1.379   4.619 -0.2886 -0.2250 -0.1136
18087W        W18951  11.601   6.734   4.560 -0.1382  0.1057  0.2980
18088W        W18952  13.441   1.421   4.166 -0.0654 -0.0233 -0.2559
18089W        W18953  11.225   0.759   2.526 -0.3816 -0.1380 -0.2510
18090W        W18954  12.080   0.377   5.694  0.0842 -0.2373  0.1335
18091W        W18955   9.374   2.827  13.400 -0.1971 -0.0802  0.1827
18092W        W18956  10.721   1.068   2.424 -0.2525  0.1863 -0.3675
18093W        W18957   0.565   0.140   4.226 -0.0567 -0.1151 -0.0530
18094W        W18958   0.747   0.852   4.693 -0.0234 -0.0689  0.0412
18095W        W18959  13.339   0.315   3.408  0.1850  0.0839 -0.1563
18096W        W18960  12.862   1.899   2.335 -0.1209 -0.2807  0.0037
18097W        W18961  12.981   1.410   3.791 -0.2398 -0.0241 -0.1091
18098W        W18962  12.126   2.206   4.176 -0.1274  0.2113 -0.0835
18099W        W18963  13.471   2.098   4.122  0.4443  0.1722 -0.0006
18100W        W18964  13.659   3.386   4.801 -0.1397  0.0131  0.0639
18101W        W18965  13.422   2.776  13.198  0.1266 -0.0557 -0.2389
18102W        W18966  12.790   1.795   2.840 -0.0145 -0.0214 -0.0811
18103W        W18967  12.609   3.394   0.798 -0.0490  0.1150 -0.3563
18104W        W18968  11.659   2.936   4.909  0.0125 -0.0978 -0.4182
18105W        W18969   2.649   2.064   5.016  0.2226 -0.1013 -0.0448
18106W        W18970   1.670   4.031  13.801  0.3013  0.2454  0.0039
18107W        W18971  11.638   3.696   3.346 -0.1445  0.0545 -0.0882
18108W        W18972  11.994   1.741  13.173  0.1816 -0.0102  0.1223
18109W        W18973  10.891   2.033  13.924 -0.4305 -0.2210  0.1012
18110W        W18974  10.755   3.823   5.605  0.1938 -0.1103 -0.0806
18111W        W18975   9.653   3.344   7.468  0.2270 -0.1365 -0.1017
18112W        W18976   0.637   2.952   5.651  0.0415 -0.2167 -0.2331
18113W        W18977  11.199   3.473   3.498 -0.1622 -0.1881  0.0761
18114W        W18978  11.814   0.734   6.874  0.1283 -0.3527 -0.1277
18115W        W18979  11.198   1.754   5.282 -0.1367 -0.0695 -0.2560
18116W        W18980  10.833   3.349   3.793  0.2724  0.0257 -0.0046
18117W        W18981   0.634   3.434   5.007  0.1836 -0.1243 -0.2996
18118W        W18982  11.129   0.300   9.472  0.1533 -0.1449 -0.2690
18119W        W18983  12.544   1.245   7.240  0.0416 -0.1677  0.1829
18120W        W18984   1.890  12.274   3.905  0.1618 -0.0359  0.1257
18121W        W18985   0.390   3.112   6.191  0.2586 -0.1084  0.0099
18122W        W18986   0.137   2.955   7.710  0.1193  0.1969 -0.1030
18123W        W18987   9.244  11.473   6.941 -0.0932  0.0602  0.0251
18124W        W18988  12.333   3.374   7.291  0.1498 -0.0523 -0.0049
18125W        W18989  12.148   3.484   4.810  0.0498 -0.0421  0.1487
18126W        W18990  10.240   1.547   6.937 -0.0726 -0.0603  0.2341
18127W        W18991  10.172   1.803   6.480  0.1915  0.4762 -0.4809
18128W        W18992   0.544  13.679   3.985  0.0229 -0.3039  0.0564
18129W        W18993  12.137   0.630   2.816  0.0759 -0.1831 -0.3735
18130W        W18994  13.253   3.087   5.678  0.0033 -0.0411  0.1881
18131W        W18995  10.588   1.892   6.710 -0.1883 -0.1475 -0.1858
18132W        W18996  10.432   2.436   6.257 -0.3103 -0.0107  0.1294
18133W        W18997  11.504   1.022   5.198 -0.0708  0.1526 -0.0523
18134W        W18998   0.874   4.706   4.860 -0.0080 -0.0427  0.0099
18135W        W18999  11.130   1.789   6.677 -0.0297  0.2919 -0.1433
18136W        W19000  11.079   2.023   5.659  0.0705  0.1427  0.0222
18137W        W19001  12.951   5.243   5.309 -0.0599 -0.0390  0.1157
18138W        W19002   1.818   1.951   5.414 -0.0588 -0.0677 -0.0649
18139W        W19003  13.993   4.275   4.826 -0.3804  0.1220  0.1062
18140W        W19004  10.435   0.632   8.952 -0.0346 -0.0008  0.3538
18141W        W19005  13.172   2.318   5.925 -0.2527  0.0771 -0.0516
18142W        W19006  10.952   1.897   7.863  0.1583  0.1860 -0.0573
18143W        W19007  10.775  13.638   4.599 -0.0141  0.3461  0.0569
18144W        W19008  12.848   1.876   3.691 -0.0970  0.0673  0.2272
18145W        W19009  10.818   1.801   4.062 -0.0577  0.3673  0.0673
18146W        W19010  12.227   3.380   1.102  0.2284 -0.0500 -0.3662
18147W        W19011  11.822   5.153   3.213 -0.0867  0.2601  0.1190
18148W        W19012  10.128  13.038   8.601 -0.0021  0.2003 -0.2846
18149W        W19013   1.892   3.922   4.350 -0.0671 -0.0441 -0.2993
18150W        W19014   2.892   2.491   5.129  0.0282  0.1567  0.1725
18151W        W19015  12.437   2.717   5.201  0.0766  0.1393  0.0368
18152W        W19016   0.214   3.848   5.686 -0.2889 -0.0224 -0.2274
18153W        W19017  12.779   4.990   4.186  0.0176  0.1466  0.2349
18154W        W19018   1.634   1.594   4.165  0.0945 -0.1532  0.0065
18155W        W19019  11.529   1.323   3.425 -0.2543  0.1158 -0.0914
18156W        W19020  12.538   2.569   4.069 -0.1581  0.0172 -0.1144
18157W        W19021  12.055   2.147   6.602  0.0356 -0.1583 -0.0636
18158W        W19022   2.213   0.229   2.471 -0.0171 -0.0836 -0.1709
18159W        W19023  11.616   5.555   5.021  0.0183  0.1813  0.5429
18160W        W19024  12.919   3.368   3.698  0.0022  0.3759  0.5303
18161W        W19025   9.848   0.739   5.951  0.0497 -0.0422  0.1190
18162W        W19026  12.493   0.878   7.654 -0.0089  0.0802  0.0043
18163W        W19027  12.593   2.055   4.229 -0.3553  0.0089 -0.0487
18164W        W19028   2.023   0.855   5.268 -0.1407  0.3215 -0.0838
18165W        W19029  10.039   2.531   4.911  0.1646 -0.1199  0.2170
18166W        W19030  11.634   2.145   3.876  0.1763 -0.1431  0.1673
18167W        W19031  11.847   3.898   6.313  0.0554 -0.1762  0.0280
18168W        W19032  12.303   2.002   5.850 -0.0881 -0.1226 -0.3286
18169W        W19033   1.119   2.595   4.435 -0.3922  0.1019 -0.2392
18170W        W19034   1.219   1.674   5.489  0.3285 -0.1072  0.0964
18171W        W19035   1.518   3.652   7.760  0.0004 -0.1220  0.0650
18172W        W19036   9.542   2.421   7.404  0.0513  0.0380  0.4649
18173W        W19037  13.231   1.900   3.308  0.1303 -0.2539 -0.0241
18174W        W19038  12.672   0.464   7.955  0.1402  0.4715  0.2202
18175W        W19039   2.574   0.805   3.379 -0.2203 -0.2255 -0.2165
18176W        W19040  11.183   0.179   4.012 -0.0205 -0.0740  0.0934
18177W        W19041   8.570   1.543   6.776  0.0696 -0.1197  0.4249
18178W        W19042  10.236   2.144   8.193 -0.1395 -0.1656 -0.0985
18179W        W19043  11.181  13.908   7.254 -0.1927 -0.0974 -0.1103
18180W        W19044  13.363   1.190   6.368  0.3677 -0.3079 -0.3365
18181W        W19045   1.190   0.952   4.905  0.1045  0.3325 -0.1990
18182W        W19046  11.551   1.130   6.089 -0.2143  0.1449 -0.1625
18183W        W19047   0.829   4.218   7.198 -0.4852 -0.0523 -0.0877
18184W        W19048   0.182   0.288   5.032  0.0660 -0.2196 -0.0265
18185W        W19049   0.921   1.059   3.704  0.1050 -0.0562 -0.2261
18186W        W19050   1.022   2.422   5.931  0.3469  0.0358 -0.1114
18187W        W19051  13.733   4.233   6.622  0.1006  0.3342 -0.3956
18188W        W19052  13.002   1.192   4.453 -0.2377  0.1050 -0.0244
18189W        W19053  13.839   0.678   8.362 -0.2823  0.1069  0.1726
18190W        W19054  13.950   1.610   5.456 -0.2198  0.3284 -0.0352
18191W        W19055  14.000   2.912   9.133  0.1308 -0.0713 -0.3794
18192W        W19056  11.883  13.408   5.601 -0.0170  0.0147  0.1589
18193W        W19057  13.984  11.746   5.002 -0.0569  0.1565  0.2167
18194W        W19058   3.205   2.386   5.470 -0.3689  0.2596  0.0505
18195W        W19059   0.841   1.963   6.768 -0.3019  0.0437  0.0540
18196W        W19060  13.434   2.675   2.275 -0.1176  0.1208 -0.1968
18197W        W19061  13.265   4.105   6.345 -0.2412  0.2800 -0.2866
18198W        W19062  12.464   1.150   5.105  0.1886  0.2605 -0.1377
18199W        W19063   9.461   1.973   4.115  0.0230  0.0773 -0.1212
18200W        W19064  12.513   1.559   6.047  0.1645 -0.1807 -0.2175
18201W        W19065  11.515   4.523   5.895 -0.0569  0.4214 -0.1040
18202W        W19066   0.985   2.602   7.403  0.0568 -0.1516 -0.1137
18203W        W19067   0.049   0.618   3.644 -0.2341 -0.0817 -0.4836
18204W        W19068  13.600   2.040   5.250  0.0378  0.4005 -0.2000
18205W        W19069  11.587   1.238   6.840  0.3601 -0.2084 -0.0942
18206W        W19070   1.853  13.806   4.859 -0.1257 -0.2537  0.0351
18207W        W19071   1.592   0.878   3.122 -0.0518 -0.0242  0.0338
18208W        W19072  13.273   2.358   5.418 -0.1636 -0.1604  0.0155
18209W        W19073   2.398   3.418   5.962  0.0893  0.0149 -0.0418
18210W        W19074   2.796   2.795   4.611  0.2951 -0.2561  0.1075
18211W        W19075  12.747   3.473   4.535 -0.1011  0.0687  0.0325
18212W        W19076  13.721   2.841   4.674  0.1083 -0.1652  0.1184
18213W        W19077   0.021   1.979   4.754  0.2097  0.0090 -0.1382
18214W        W19078  13.392   2.876   7.469  0.2281 -0.0033 -0.1623
18215W        W19079   0.397   4.503   4.935  0.2785 -0.1517  0.0190
18216W        W19080  12.687   1.621   8.099 -0.0410  0.0516 -0.0893
18217W        W19081  13.148   4.418   5.466  0.0385  0.0897 -0.0793
18218W        W19082  13.797   2.536   6.348  0.3130  0.0699 -0.4394
18219W        W19083  10.430   1.518   5.968  0.2631  0.2754 -0.3710
18220W        W19084  10.899   2.723   5.424 -0.2663  0.1355  0.1096
18221W        W19085  13.689   1.055   5.599  0.0645  0.0810  0.0916
18222W        W19086  12.343   7.372   4.875 -0.0045  0.1043  0.0682
18223W        W19087   0.502   0.812   7.340 -0.0350  0.2611 -0.1631
18224W        W19088  11.104   4.161   5.670  0.0323 -0.1305  0.0784
18225W        W19089  12.645   2.875   2.472  0.2385 -0.4053  0.0695
18226W        W19090  10.693   2.695   6.751 -0.1242 -0.1164  0.2255
18227W        W19091  13.682   1.290   4.572 -0.0324 -0.0957 -0.0476
18228W        W19092   0.090   0.241   3.281 -0.2201 -0.5981  0.1654
18229W        W19093   1.616   3.964   4.792 -0.0484 -0.3747  0.0765
18230W        W19094   1.530   4.751   5.171  0.2021  0.1332  0.2894
18231W        W19095  13.666   3.250   4.305  0.0930 -0.0750  0.0938
18232W        W19096  12.603  13.790   6.695  0.0948 -0.1828  0.0989
18233W        W19097   1.306   2.444   6.416  0.0559  0.0413  0.3804
18234W        W19098  11.492  11.352   4.889 -0.3066  0.1745 -0.0939
18235W        W19099  12.272  13.883   4.905 -0.3148  0.2254 -0.2766
18236W        W19100  12.617   0.379   6.539  0.1375 -0.2758  0.0237
18237W        W19101  10.902   3.561   6.644  0.2208 -0.2029  0.1316
18238W        W19102   0.317   3.985   4.520 -0.1142  0.0356 -0.0737
18239W        W19103  12.204   0.841   4.189 -0.1588 -0.0162 -0.0872
18240W        W19104  11.910   0.226   4.717  0.0441 -0.1727 -0.2627
18241W        W19105  11.974   1.420   7.343  0.1149  0.1126 -0.2116
18242W        W19106   9.864   1.845   5.481  0.3597 -0.1210  0.0152
18243W        W19107   0.648   1.539   6.978 -0.1290 -0.1092  0.0310
18244W        W19108   0.495   2.628   7.579  0.1337 -0.1422  0.1789
18245W        W19109   0.159  13.120   7.590  0.3027  0.2069 -0.0962
18246W        W19110  10.403   0.833   6.665  0.0496 -0.0737  0.1013
18247W        W19111  13.475   2.767   6.034 -0.0654  0.0313  0.0728
18248W        W19112  13.697   3.327   5.813 -0.0514  0.1285 -0.0943
18249W        W19113  13.004   1.465   9.512 -0.1275  0.1863 -0.3432
18250W        W19114  10.634   1.871   5.047  0.1762  0.0064  0.1642
18251W        W19115  12.889   1.705   6.471 -0.0657 -0.2226 -0.5536
18252W        W19116  11.910   1.130   6.451 -0.1090 -0.1332 -0.5175
18253W        W19117   0.659   3.863   7.666  0.2275 -0.0993  0.1811
18254W        W19118  13.833   5.363   5.682  0.0543  0.1206 -0.0408
18255W        W19119  12.631   4.735   4.765 -0.0785 -0.0785 -0.1081
18256W        W19120  12.286   4.209   6.507  0.0351 -0.1216 -0.1119
18257W        W19121  11.153   7.101   4.178  0.0712  0.1975 -0.1967
18258W        W19122  13.117   0.053   5.028  0.2409  0.3382 -0.0266
18259W        W19123  10.981   4.555   6.060  0.1421 -0.2638 -0.5092
18260W        W19124  12.382   2.602   3.301  0.0182  0.0696  0.1110
18261W        W19125  12.367  12.807   5.259  0.1634 -0.0004 -0.0128
18262W        W19126  13.816   1.716   3.654 -0.2222  0.3032  0.1569
18263W        W19127  13.757   3.846   5.923 -0.2053 -0.3546  0.2634
18264W        W19128  12.844  13.312   4.383 -0.1783 -0.3022  0.0383
18265W        W19129  11.514   2.939   6.323  0.1543 -0.0264 -0.2737
18266W        W19130  13.241   4.865   4.003 -0.0526 -0.1416  0.1125
18267W        W19131  12.050   1.550   3.475 -0.1898  0.0842 -0.0444
18268W        W19132  13.158   2.573   6.403 -0.1539 -0.1179 -0.0498
18269W        W19133   9.684   1.557   5.071 -0.2405 -0.1818  0.2038
18270W        W19134   0.800   0.786   6.215 -0.1842  0.0155  0.0985
18271W        W19135  11.637   0.318   6.603  0.0397  0.1596  0.1932
18272W        W19136  11.178   0.330   5.749 -0.1556  0.0985 -0.2308
18273W        W19137  12.524   0.353   2.966  0.1964  0.1055 -0.1904
18274W        W19138  11.433   0.324   7.022  0.2160 -0.1632 -0.0240
18275W        W19139  10.822   2.408   5.846 -0.3642  0.0373  0.1254
18276W        W19140  13.309  12.898   5.284  0.1349  0.1280 -0.0146
18277W        W19141  12.184   3.466   6.831 -0.2192 -0.0770  0.3100
18278W        W19142  12.288   1.802   4.509 -0.0060  0.1347  0.1265
18279W        W19143   0.283  12.095   5.706 -0.3248  0.1291  0.1180
18280W        W19144  11.902   3.901   4.627  0.3156 -0.0488  0.1440
18281W        W19145   8.201   0.960   5.647 -0.0959 -0.0986  0.2542
18282W        W19146   0.440   5.101   3.775  0.2437  0.1406  0.1769
18283W        W19147   2.045   4.159   6.823  0.1376 -0.1301  0.0449
18284W        W19148   9.668   2.894   7.728 -0.1747 -0.0581  0.2466
18285W        W19149  12.956   3.630   9.090  0.0795 -0.1034 -0.1198
18286W        W19150   9.113   0.171   4.797  0.0089 -0.3446  0.2431
18287W        W19151  13.270   1.283   7.109  0.1889  0.0851  0.2754
18288W        W19152   0.561  13.016   4.832 -0.1419 -0.0432  0.0115
18289W        W19153   0.813   4.270   4.609 -0.1459 -0.1389  0.2443
18290W        W19154   1.220   1.606   4.954  0.2541 -0.1459 -0.0287
18291W        W19155  13.715   1.174  10.163 -0.0768  0.1368  0.1263
18292W        W19156  10.992   0.012   7.683 -0.2571  0.4151  0.0497
18293W        W19157   1.722   1.850   4.858 -0.1360 -0.1046  0.1891
18294W        W19158  12.398   2.137   2.841 -0.0518 -0.0143 -0.0954
18295W        W19159  13.792   0.462   2.644 -0.2966  0.3201  0.1918
18296W        W19160  11.161   2.329   5.191  0.0334  0.1859  0.0998
18297W        W19161   2.328   3.764   8.384 -0.0140  0.1271 -0.1363
18298W        W19162   1.524   1.382   4.622 -0.0747  0.2376 -0.0009
18299W        W19163  11.559  11.973   7.247  0.1055 -0.0733  0.0466
18300W        W19164  13.905   1.706   7.303  0.0079 -0.0091 -0.0277
18301W        W19165  10.608   3.474   4.992 -0.3675 -0.0747  0.2452
18302W        W19166  12.868   1.232   6.221  0.1676  0.2588  0.4039
18303W        W19167  13.621  13.045   5.754 -0.2666  0.1021 -0.0202
18304W        W19168   0.383   1.181   5.359 -0.1352 -0.0446 -0.2914
18305W        W19169   0.408  13.538   6.938 -0.0187  0.1295 -0.0935
18306W        W19170   0.210   4.299   6.360  0.2193  0.0014 -0.0750
18307W        W19171   0.212   2.806   6.633  0.1907 -0.0049 -0.1897
18308W        W19172  13.790   3.624   5.470  0.2884 -0.2410 -0.0012
18309W        W19173  10.909   3.734   4.664 -0.2571  0.0161 -0.1618
18310W        W19174  10.858  12.756   7.168  0.2215  0.0647 -0.0317
18311W        W19175  12.043   2.458   3.696  0.0186 -0.2298 -0.0120
18312W        W19176   2.385   0.105   4.069  0.0026 -0.1216 -0.1099
18313W        W19177  11.404   5.413   3.165  0.2131 -0.1400  0.4649
18314W        W19178   9.264   2.326   6.981  0.2007 -0.1542 -0.2993
18315W        W19179  11.954   3.754   4.125  0.2602 -0.0307  0.2048
18316W        W19180  11.299  13.136   7.046 -0.1634  0.1082  0.1309
18317W        W19181  11.321   2.398   6.160 -0.3743 -0.1752 -0.0549
18318W        W19182  12.304   3.804   8.652  0.2150  0.0898 -0.0120
18319W        W19183  12.822  13.555   7.110  0.1543  0.0612  0.2414
18320W        W19184  11.885   2.115   4.711 -0.1360  0.2596  0.2250
18321W        W19185  13.588   0.568   7.022 -0.1762 -0.1172  0.2262
18322W        W19186   2.416   0.984   5.661  0.1698  0.1443 -0.2659
18323W        W19187   4.081   1.129   5.620 -0.3067 -0.1537 -0.1666
18324W        W19188  12.447   2.420   7.210  0.1587 -0.0706  0.0017
18325W        W19189   0.226   1.904   7.028 -0.2583 -0.1893 -0.0205
18326W        W19190   1.457   4.113   6.080 -0.0182  0.1002  0.0133
18327W        W19191  11.544   1.167   7.904  0.2840 -0.1929 -0.0514
18328W        W19192  11.898   4.059   3.683  0.0093  0.1442 -0.3092
18329W        W19193   9.700   1.511   7.093  0.1657  0.1769 -0.1826
18330W        W19194  10.440   5.162   6.456 -0.1609 -0.1092  0.2175
18331W        W19195  10.529   1.956   7.380  0.2185  0.0032 -0.1766
18332W        W19196  11.213   3.311   5.155  0.2184  0.0447 -0.1559
18333W        W19197   1.386   2.750   5.151  0.1501 -0.0530 -0.0034
18334W        W19198  12.429   0.927   6.723 -0.0316 -0.2419  0.2206
18335W        W19199  12.504   2.278   3.668 -0.0547 -0.0200  0.2278
18336W        W19200  12.930   5.291   7.900  0.1786 -0.1075 -0.0075
18337W        W19201   1.789   0.657   4.683 -0.0608  0.3434  0.1348
18338W        W19202  12.679  13.903   7.498 -0.1570  0.1783 -0.0200
18339W        W19203  11.017   3.379   5.606 -0.0971  0.0049 -0.3522
18340W        W19204  10.295   1.782   4.624  0.2677  0.0726  0.0568
18341W        W19205   9.717   3.179   6.337 -0.2042 -0.1950  0.3494
18342W        W19206  12.089   2.223   5.272  0.0560 -0.0262 -0.0902
18343W        W19207  13.432   1.497   5.443  0.0060  0.0041 -0.3477
18344W        W19208  14.011   5.555   6.515 -0.2837  0.0938 -0.2799
18345W        W19209   1.232   2.467   3.048 -0.0598 -0.1720  0.4966
18346W        W19210  12.939   2.788   5.327 -0.0018 -0.0075 -0.1325
18347W        W19211   8.718   2.474   7.829 -0.0789  0.0108  0.0195
18348W        W19212  12.679   2.327   2.401  0.0708 -0.3008 -0.0226
18349W        W19213  13.671   0.665   5.199 -0.1616  0.3517  0.2495
18350W        W19214  12.493  13.967   5.731  0.0678 -0.1828 -0.0550
18351W        W19215   0.115   4.565   3.911 -0.1204 -0.1543  0.3014
18352W        W19216  13.863   0.409   6.196  0.0268 -0.1600  0.1151
18353W        W19217  12.059   1.286   6.869  0.0482 -0.1793 -0.0516
18354W        W19218  12.020   6.098   6.574  0.0933  0.2682  0.0778
18355W        W19219  11.601   0.633   5.601  0.0858  0.2110  0.4531
18356W        W19220  13.030   0.301   6.309  0.0399 -0.0444 -0.3792
18357W        W19221   1.414   1.639   8.284  0.0523  0.0046 -0.3058
18358W        W19222   0.531  12.443   0.763  0.1338  0.0772  0.0872
18359W        W19223  12.569   5.942   6.759 -0.0864  0.0901  0.1733
18360W        W19224  13.114   4.119   8.782  0.1128  0.1578 -0.2938
18361W        W19225  12.276   0.519   4.931  0.2509 -0.0528 -0.2324
18362W        W19226  12.926   1.020   4.888 -0.0700  0.1528 -0.3008
18363W        W19227  11.601   2.830   7.416  0.1296 -0.2817 -0.0060
18364W        W19228  12.916   1.471   3.312  0.0721 -0.2827  0.0116
18365W        W19229   0.345   0.444   6.960 -0.2696  0.3352 -0.3490
18366W        W19230  11.149   2.050   3.166  0.1089 -0.0422  0.1351
18367W        W19231  12.096   2.866   6.022 -0.1960  0.1529  0.0177
18368W        W19232  12.293   0.195   6.155 -0.2062 -0.0281 -0.1458
18369W        W19233  11.924   3.697   5.789  0.1862 -0.0676 -0.0348
18370W        W19234  13.187   1.587   6.046  0.4287  0.1291 -0.1046
18371W        W19235   0.475   0.633   3.918  0.2159  0.1469  0.1015
18372W        W19236   2.126   3.902   5.451  0.2702 -0.2272  0.0308
18373W        W19237  13.875   1.716   4.387  0.1011 -0.1896  0.2137
18374W        W19238  12.970   2.822   5.972 -0.0341  0.1170  0.4025
18375W        W19239  10.605   2.677   7.732 -0.1826 -0.2833 -0.1774
18376W        W19240  12.479   3.763   5.675 -0.1720 -0.3431  0.0327
18377W        W19241  13.234   0.755   6.068  0.1714  0.0197  0.0814
18378W        W19242  12.469   4.870   5.737  0.2326 -0.0763 -0.2369
18379W        W19243  12.313  11.746   4.645  0.4340 -0.0263  0.2560
18380W        W19244  12.922   3.908   4.825  0.0484  0.2218 -0.0890
18381W        W19245  13.465   1.911   5.732  0.0871 -0.0150 -0.1166
18382W        W19246   9.376   0.036   5.508  0.2818 -0.1545 -0.1024
18383W        W19247  13.354   1.879   8.051  0.1487  0.0084 -0.1966
18384W        W19248  12.868   5.706   5.454  0.0940  0.0482 -0.2328
18385W        W19249  11.461   3.723   4.376  0.1056  0.1325  0.4130
18386W        W19250  13.187   2.078   2.821 -0.1078 -0.2841  0.0101
18387W        W19251  12.700   0.277   4.931 -0.4005  0.0813 -0.0348
18388W        W19252  13.684   2.366   5.834  0.0955 -0.3322 -0.0422
18389W        W19253  12.224  13.663   6.412 -0.1395  0.0231  0.2971
18390W        W19254  11.415   0.206   4.713  0.0375 -0.0673  0.4448
18391W        W19255  11.920   3.791   2.539  0.0655 -0.3210 -0.0633
18392W        W19256  12.601   2.316   1.401  0.4042 -0.2108  0.0061
18393W        W19257  11.978   2.516   7.533  0.3952 -0.0141  0.1017
18394W        W19258   8.889   3.709   4.611  0.3164 -0.2203 -0.1164
18395W        W19259  10.638   1.107   6.201  0.4016 -0.2798  0.3048
18396W        W19260  12.720   2.316   6.325  0.0002 -0.0196  0.0012
18397W        W19261  10.570  13.714   5.535 -0.0863  0.1341  0.0256
18398W        W19262  13.760   1.456   6.413 -0.1396 -0.0763  0.0224
18399W        W19263   0.027  12.801   3.897  0.1535  0.0124 -0.0036
18400W        W19264  10.759   5.024   6.802 -0.1188 -0.1296  0.1015
18401W        W19265  12.138   5.288   6.409 -0.1874  0.0511  0.0913
18402W        W19266  10.863  11.703   4.716  0.2742 -0.1793 -0.3833
18403W        W19267  10.617   4.345   5.700 -0.1461 -0.0796  0.2206
18404W        W19268  13.946   0.493   6.647 -0.1107  0.1473  0.3077
18405W        W19269   9.608   3.636   7.881 -0.0470 -0.3152  0.2078
18406W        W19270  10.030   2.844   4.424  0.1183 -0.0975  0.0548
18407W        W19271  12.029   3.562   3.593 -0.3036  0.2920 -0.2147
18408W        W19272   1.451   1.150   8.202 -0.1006  0.1721  0.0164
18409W        W19273  12.601   0.883   2.570  0.0723 -0.2045 -0.2641
18410W        W19274  13.339   0.292   5.388 -0.2291  0.0647 -0.1258
18411W        W19275   8.991   6.436   6.523  0.1073 -0.1270  0.0567
18412W        W19276   1.764   3.568   7.164  0.0842  0.0152  0.1174
18413W        W19277  12.279   1.819   3.856  0.2898  0.1727 -0.0748
18414W        W19278   9.713   4.036   4.629 -0.0407 -0.2783 -0.0630
18415W        W19279  11.302   1.163   5.617 -0.0381  0.0687  0.2379
18416W        W19280   0.607   1.817   7.412 -0.2705 -0.0516  0.2185
18417W        W19281  12.550   4.932   5.208  0.1846  0.1051 -0.1926
18418W        W19282  12.960   1.544   7.591 -0.1086  0.0393  0.2485
18419W        W19283  12.188  13.403   9.132  0.0641  0.0365 -0.0955
18420W        W19284  13.372  12.408  11.522  0.0047  0.0528  0.1931
18421W        W19285   9.946  13.491   6.667 -0.0400  0.2359  0.1003
18422W        W19286   0.724  13.713   4.442  0.2461 -0.2396  0.1791
18423W        W19287  12.414   1.894   5.383 -0.0999 -0.0310  0.2881
18424W        W19288  12.093   4.809   3.407  0.2409 -0.0907 -0.2071
18425W        W19289  13.687   2.712   6.819  0.3927 -0.0652  0.1164
18426W        W19290   1.268   4.332   6.831  0.0156  0.0054 -0.1804
18427W        W19291   0.117   1.319   5.804  0.2452  0.0701 -0.1728
18428W        W19292   1.347   3.281   4.975  0.2849 -0.0229  0.0980
18429W        W19293   9.932   3.533   8.221  0.1089  0.1159  0.3121
18430W        W19294   9.068   2.624   5.631  0.3542 -0.0482  0.0466
18431W        W19295   0.260   4.341   5.793 -0.2236 -0.0431  0.0492
18432W        W19296  11.612   2.148   5.372  0.1002 -0.0385  0.2347
18433W        W19297  11.658   2.355   8.007 -0.0546 -0.0628  0.1005
18434W        W19298  13.103   2.039   4.966  0.0201 -0.0570 -0.0229
18435W        W19299  13.177   0.731   5.538  0.0276  0.1248 -0.3102
18436W        W19300  11.363   6.937   6.835  0.3371 -0.0452  0.0949
18437W        W19301  13.845   3.041   7.275 -0.1141  0.2600 -0.2627
18438W        W19302  11.836   5.131   4.977  0.2902 -0.2957  0.1542
18439W        W19303  12.358   3.020   6.875  0.1669 -0.0861 -0.2384
18440W        W19304  11.338   5.765   4.062  0.0316 -0.3250 -0.1383
18441W        W19305  13.239   2.339   3.571  0.2612 -0.4096  0.2319
18442W        W19306   9.880   6.326   8.693 -0.0995 -0.1614  0.0104
18443W        W19307  13.691   5.523   9.337  0.3451 -0.1139 -0.2082
18444W        W19308   1.242   0.118   7.140  0.0735 -0.2933 -0.0771
18445W        W19309  13.789   2.170   7.172 -0.3651 -0.3310  0.0138
18446W        W19310   0.101   0.226   5.815  0.1466  0.3325  0.1577
18447W        W19311  13.802   3.302   7.755  0.0582 -0.0371 -0.3851
18448W        W19312  13.226   4.232   7.607 -0.0709  0.2202 -0.0238
18449W        W19313  12.879   3.012   7.650 -0.0654 -0.0564  0.1802
18450W        W19314  13.511   0.179   9.441 -0.0350 -0.0962  0.4975
18451W        W19315  12.099  13.526  10.121 -0.2972  0.1330  0.0335
18452W        W19316  13.589   3.919   7.515 -0.0838 -0.3339 -0.0502
18453W        W19317   1.003   1.327   8.370 -0.2142  0.0498  0.0977
18454W        W19318   0.692   2.911   6.547 -0.0016  0.0214 -0.0367
18455W        W19319  11.728  10.540   9.902 -0.0702 -0.0120  0.0132
18456W        W19320  11.946   4.206  12.733  0.0038 -0.0643  0.3269
18457W        W19321   9.437   4.550   8.221  0.0013  0.1251 -0.1362
18458W        W19322  13.581   0.771   9.355 -0.1507  0.0801  0.2004
18459W        W19323  12.435   1.346  11.219 -0.1139  0.3004 -0.2234
18460W        W19324  12.338   1.533   9.739  0.1354 -0.2109 -0.0208
18461W        W19325   2.337   4.466   9.298 -0.0364 -0.0981 -0.2548
18462W        W19326  10.991   3.512   7.926  0.1539 -0.0967 -0.1779
18463W        W19327   8.953   2.099   9.122 -0.1693  0.0660 -0.0766
18464W        W19328  13.443  13.833   9.935 -0.0693  0.0591 -0.0546
18465W        W19329  11.574   4.303   9.642  0.2006  0.2132  0.1238
18466W        W19330  13.621   4.514   9.906  0.0687  0.0992  0.0040
18467W        W19331  13.852  13.873  12.152 -0.2517  0.2743 -0.3221
18468W        W19332  12.411   3.276   6.429  0.1062  0.1780 -0.5507
18469W        W19333  12.451   2.395  11.293 -0.2873 -0.2080 -0.0544
18470W        W19334   0.255   3.143  12.147  0.1787 -0.1191  0.0165
18471W        W19335  10.464   2.666  13.094  0.1963 -0.1345  0.0244
18472W        W19336  10.366   3.135  11.880 -0.3111 -0.0216 -0.3041
18473W        W19337   0.893   2.380   8.384 -0.1066 -0.0278 -0.0302
18474W        W19338  13.623   3.153   8.244 -0.0882 -0.1832 -0.2095
18475W        W19339   0.060   0.872   9.049 -0.0430 -0.2043  0.5539
18476W        W19340   1.601  11.602   7.227  0.3035 -0.2435 -0.0535
18477W        W19341  13.850   1.700  10.938  0.1563 -0.0647  0.2207
18478W        W19342  11.363   4.175   6.868  0.3737 -0.1356  0.0115
18479W        W19343  13.303   5.790   6.614  0.0222  0.0220  0.0433
18480W        W19344  10.209  13.444   9.024 -0.3016  0.3597 -0.0229
18481W        W19345   0.509   2.187   8.056  0.1249  0.1223 -0.0573
18482W        W19346   0.800  13.522   7.947 -0.0401  0.2953  0.0500
18483W        W19347   0.670   4.292   6.120  0.1297 -0.0160  0.2250
18484W        W19348  13.898   0.607  10.312  0.3723  0.2245  0.2242
18485W        W19349  13.177   2.337   8.300 -0.0970  0.0164  0.1131
18486W        W19350  13.405   4.024   5.259  0.1445  0.1044  0.1565
18487W        W19351  13.478   0.093   6.270  0.0970  0.0830  0.0758
18488W        W19352  10.548  13.884   7.812  0.1312  0.0317  0.1112
18489W        W19353  13.112   0.741   7.808 -0.0683  0.0964 -0.1822
18490W        W19354  13.024   3.547  11.921  0.3400  0.1063 -0.2300
18491W        W19355  13.255   2.733   9.527 -0.0985 -0.1451 -0.0955
18492W        W19356  13.172   4.824   8.664  0.1329  0.1880  0.0585
18493W        W19357  12.706   3.183   8.226 -0.1992  0.0086  0.0789
18494W        W19358  12.627   2.929  10.351 -0.2490  0.0998  0.2250
18495W        W19359  11.264   0.777   6.000  0.0609  0.1627  0.0100
18496W        W19360   1.419   1.320  11.211  0.3040 -0.1714  0.0275
18497W        W19361   0.001   2.314   6.723  0.2782  0.0619  0.2139
18498W        W19362   8.989   2.365   6.509 -0.0334 -0.1772 -0.3661
18499W        W19363  11.209   3.152   8.312 -0.0216  0.1250 -0.1668
18500W        W19364   0.762   0.072   8.672  0.1271 -0.1562 -0.1370
18501W        W19365  12.559   2.173  11.759 -0.0473  0.2178  0.1162
18502W        W19366  12.804   1.179   7.936  0.1580 -0.1431 -0.3515
18503W        W19367  13.583   2.847  10.894 -0.1796  0.1673  0.0788
18504W        W19368  12.858   4.466  13.296 -0.3392  0.2749 -0.1508
18505W        W19369  10.235   1.498   8.360  0.0052 -0.1373 -0.2654
18506W        W19370  11.564   4.633   7.083  0.0004 -0.4615 -0.2382
18507W        W19371  13.955   4.743   4.702 -0.0871 -0.1815  0.1961
18508W        W19372   0.820   2.183   7.640  0.0482  0.2172  0.0272
18509W        W19373   9.068   2.811  11.104  0.1649 -0.1075  0.1680
18510W        W19374  13.314   3.329   9.138  0.3844  0.0245  0.0978
18511W        W19375  12.959   0.020  10.648 -0.2621  0.1044 -0.2027
18512W        W19376   0.179   0.436   8.730 -0.5300  0.0913 -0.1351
18513W        W19377   0.308   1.995  11.844  0.0240  0.0086 -0.4000
18514W        W19378  13.261   1.499   8.706 -0.0057 -0.1242  0.0246
18515W        W19379  13.446   0.954  12.931 -0.0588 -0.1695  0.2836
18516W        W19380  13.438   1.689  10.272 -0.1726  0.0945 -0.1167
18517W        W19381   0.227   2.549   7.145  0.3266 -0.0370  0.0531
18518W        W19382  12.485   3.824  10.024 -0.2334  0.1176  0.3161
18519W        W19383  10.925   2.851   9.728 -0.1472  0.0767  0.3662
18520W        W19384  12.277  13.771   8.424 -0.0468 -0.1260 -0.0353
18521W        W19385  12.135   3.369  11.753  0.0454  0.1593  0.0891
18522W        W19386  13.949   0.212  10.687 -0.2398 -0.0415  0.1353
18523W        W19387  10.465   5.175   9.431 -0.1058  0.2489  0.0139
18524W        W19388   0.651   0.534   8.464  0.2030 -0.0929 -0.3822
18525W        W19389  11.954   1.660   7.923 -0.0499 -0.1222  0.0289
18526W        W19390   0.547  11.673   7.277  0.1713  0.0349  0.1156
18527W        W19391  13.041   1.864   9.036 -0.0098  0.1843 -0.1803
18528W        W19392   0.369   4.148   8.054 -0.0396  0.0463  0.0200
18529W        W19393  13.457   1.809   9.474  0.1198  0.3152 -0.0642
18530W        W19394  13.650   0.355  12.073 -0.1232  0.2075  0.0885
18531W        W19395  10.156   1.237  11.525 -0.0146  0.1617  0.1696
18532W        W19396  12.999   3.467  11.430  0.0137 -0.3223 -0.1818
18533W        W19397  13.786   3.272   6.843 -0.1407  0.3417 -0.0567
18534W        W19398  10.883   4.882  11.286  0.1189 -0.2498 -0.2817
18535W        W19399   0.718   1.692   7.963  0.0466  0.2051 -0.1240
18536W        W19400  13.628   2.231   9.166 -0.1247 -0.1058 -0.0480
18537W        W19401  13.135   2.964  11.088 -0.1068 -0.1976  0.0811
18538W        W19402   1.198   0.114   6.577  0.2311  0.0160 -0.1897
18539W        W19403   2.244   2.198  10.565  0.0213 -0.0388  0.2012
18540W        W19404   1.959   4.484   8.887 -0.1277  0.0492 -0.0665
18541W        W19405  13.685   1.285   8.357  0.3501 -0.3540 -0.0393
18542W        W19406  13.585  13.416  10.584 -0.2292 -0.2455 -0.0461
18543W        W19407   0.680   2.783   7.017  0.0068 -0.3936  0.2158
18544W        W19408  13.321   2.291   8.757 -0.1526  0.0298  0.0234
18545W        W19409  13.627   1.329  11.890 -0.2362  0.1509  0.4767
18546W        W19410   0.639   2.271   7.150 -0.2168  0.1034 -0.1411
18547W        W19411  13.032   4.665   9.688  0.3144 -0.1127 -0.1446
18548W        W19412   0.658   2.071   6.100 -0.0205  0.2130  0.2050
18549W        W19413  12.732   4.707   8.844 -0.1443  0.0528 -0.5366
18550W        W19414  12.851   2.576  11.700  0.3821 -0.3029 -0.1259
18551W        W19415  11.429  13.675   8.968  0.0330  0.0250 -0.0147
18552W        W19416   2.461  13.560   9.776 -0.0246 -0.0919  0.0788
18553W        W19417  13.754   1.942   6.320 -0.2427  0.0532  0.1696
18554W        W19418   1.994   1.338   5.602 -0.1694  0.0279 -0.2788
18555W        W19419  10.025   2.054   7.486 -0.1994  0.0629 -0.0394
18556W        W19420   0.606   1.239  10.765 -0.2344 -0.1212 -0.0081
18557W        W19421  13.381   4.627   6.604  0.2617 -0.0641 -0.1879
18558W        W19422  12.916   2.081   7.993 -0.0977 -0.2755 -0.1933
18559W        W19423  12.007   2.563  11.288  0.1609  0.1571  0.0412
18560W        W19424  12.651   0.877   9.048 -0.3511  0.0799 -0.0531
18561W        W19425   2.044   1.648   9.081 -0.0051 -0.1479 -0.0556
18562W        W19426  11.582   3.522   7.344  0.0557 -0.2149  0.0095
18563W        W19427  12.905   6.035  10.188  0.0219  0.1845  0.2440
18564W        W19428  13.342   1.943   7.084 -0.0988  0.0176 -0.1701
18565W        W19429  12.255  12.030   9.207  0.0075 -0.0833  0.1535
18566W        W19430  13.048   1.801   9.975 -0.0777  0.0134  0.0882
18567W        W19431   9.195  13.420   7.055  0.0461  0.2201  0.1784
18568W        W19432  11.513   2.051   9.975 -0.1149 -0.2232  0.1527
18569W        W19433   1.365   2.180  10.842 -0.1493 -0.3464  0.1132
18570W        W19434  12.357   0.975  10.013 -0.0416 -0.2916 -0.2525
18571W        W19435   1.688   0.951   8.659 -0.2434  0.1575  0.1323
18572W        W19436  11.112   1.111   6.417 -0.0634  0.1234  0.1867
18573W        W19437  13.353   0.741  10.284 -0.3188  0.2974  0.0571
18574W        W19438  13.793   0.321  11.204  0.0333  0.0117  0.0198
18575W        W19439  11.208   1.612  11.895  0.0849  0.0159 -0.1954
18576W        W19440  13.830   1.819  12.024  0.1394  0.1391  0.1794
18577W        W19441  13.936   1.194   9.500  0.3210  0.2932  0.1158
18578W        W19442   0.810   0.737  11.385 -0.2763 -0.3517 -0.0532
18579W        W19443  12.700   4.018   9.232  0.0024 -0.2768 -0.4678
18580W        W19444  12.174   0.332   8.221 -0.0974  0.1878  0.2138
18581W        W19445  12.764   4.217   9.699 -0.1843 -0.1108  0.1499
18582W        W19446  12.436   5.678  12.688  0.0327 -0.1035  0.2512
18583W        W19447  13.682   4.432   7.828  0.0846 -0.0148  0.3149
18584W        W19448   0.578   1.447   8.718  0.0747 -0.1088 -0.4371
18585W        W19449  13.502   2.072  12.265 -0.1658  0.0895 -0.0881
18586W        W19450  13.177   1.057  11.655  0.0538  0.0911 -0.1045
18587W        W19451  13.714   3.536   9.230 -0.0836 -0.0733 -0.0330
18588W        W19452   0.753  12.441   9.874  0.2885 -0.4889  0.3035
18589W        W19453  13.585   4.253  11.361 -0.1907 -0.3653  0.0060
18590W        W19454  13.993   3.388  10.793  0.0036 -0.2037  0.2358
18591W        W19455  12.277   4.160   5.403 -0.0497 -0.2793  0.1213
18592W        W19456   0.224  13.531   8.970  0.3418 -0.2516 -0.0364
18593W        W19457   0.531   3.244   8.471  0.0352 -0.0813  0.2423
18594W        W19458  11.906   1.210  10.264 -0.4263 -0.1828 -0.0676
18595W        W19459  12.152   1.952   7.140  0.3875 -0.1220 -0.0382
18596W        W19460   1.610   1.983   7.828  0.0173  0.2252 -0.0527
18597W        W19461  12.008   1.100  11.323 -0.0533 -0.0004  0.3307
18598W        W19462  12.175  14.014   7.332  0.1004  0.0634 -0.1769
18599W        W19463   0.299   3.139   7.234  0.0248  0.2901  0.3394
18600W        W19464   0.900   0.854   8.071 -0.0210  0.0221 -0.1919
18601W        W19465  12.690   1.359   8.544 -0.6124  0.1547  0.1118
18602W        W19466  12.803   4.132   6.433  0.0932  0.2492 -0.1359
18603W        W19467  10.739   2.988   8.081 -0.0070  0.0911 -0.1056
18604W        W19468  11.616  13.225   8.856 -0.0250  0.0012  0.0629
18605W        W19469  13.698  12.985   9.395  0.1376  0.1573 -0.3268
18606W        W19470  10.307   2.192  11.028 -0.1424  0.1007 -0.0157
18607W        W19471  13.160   0.221   7.653  0.4938  0.0982  0.0728
18608W        W19472  11.119  11.960   9.500  0.0462 -0.1747 -0.0562
18609W        W19473  10.647   1.158  11.196 -0.0757  0.0268  0.1584
18610W        W19474   3.451  13.527   9.831 -0.0584  0.2826  0.1159
18611W        W19475  10.932   4.272   4.912  0.0218 -0.0836 -0.0894
18612W        W19476  11.238  13.838  11.331  0.2229 -0.1815 -0.1085
18613W        W19477   0.419   1.325   9.210 -0.0066 -0.4109 -0.0458
18614W        W19478   9.833   2.944  10.428  0.4012  0.0846  0.0728
18615W        W19479  12.522   2.348   9.584  0.1509 -0.0265  0.0006
18616W        W19480  12.836   2.707  10.723  0.0887  0.0171  0.2091
18617W        W19481  12.981   4.472   6.101  0.3037  0.2433  0.4674
18618W        W19482  11.941   3.614   8.890 -0.0532 -0.1919  0.3262
18619W        W19483  11.259   2.453   9.177  0.1302  0.0789  0.0612
18620W        W19484   9.731   1.283  11.284 -0.0619  0.0154 -0.0113
18621W        W19485  13.774   1.552   9.795 -0.1672 -0.1612 -0.0054
18622W        W19486   0.376  13.729  10.360 -0.1066 -0.0947  0.2547
18623W        W19487   0.422   3.940  10.855 -0.2424  0.0541 -0.1199
18624W        W19488   1.520   5.250  10.282 -0.0716  0.0453 -0.0197
18625W        W19489  12.586   3.105  11.801 -0.1071 -0.0401 -0.0100
18626W        W19490  12.923   4.493  10.531 -0.1825  0.0683  0.4139
18627W        W19491   0.874   4.930   9.882 -0.2456  0.1592  0.0696
18628W        W19492   1.086  13.296   4.762 -0.2279  0.0528 -0.0467
18629W        W19493  10.608   3.116   6.432 -0.0520  0.2074 -0.0871
18630W        W19494  12.459   2.172   9.078  0.1441  0.0651  0.0521
18631W        W19495  12.683   3.282  10.811  0.2372  0.0587 -0.3936
18632W        W19496   0.771   5.458   9.063  0.3233 -0.2015 -0.0063
18633W        W19497  10.144   1.619  11.199  0.1476  0.0021 -0.1456
18634W        W19498   0.957   3.023   5.238  0.0082  0.0018  0.0891
18635W        W19499  13.520   0.888   7.429 -0.0999 -0.0831  0.2538
18636W        W19500  12.315   0.759   9.448 -0.1800 -0.3030  0.1067
18637W        W19501   0.682   4.701   6.407 -0.0516 -0.0091 -0.0771
18638W        W19502  12.611  13.394  11.031 -0.0895  0.0295  0.2549
18639W        W19503  13.260   3.460   6.728 -0.1148 -0.1647 -0.0674
18640W        W19504  12.261   3.661  10.717  0.1522  0.1813  0.0069
18641W        W19505   0.996   1.594   5.895  0.1615 -0.0376 -0.1197
18642W        W19506  12.843   0.510   9.494  0.1090 -0.2060 -0.0103
18643W        W19507  12.671   1.620  11.550  0.0383 -0.0868  0.0283
18644W        W19508  11.988   1.030   7.654  0.0480  0.1324  0.0443
18645W        W19509  13.593   2.180  10.583  0.2944 -0.2231 -0.1230
18646W        W19510   0.086   2.452   8.004  0.2219 -0.1676 -0.2011
18647W        W19511   8.444   6.462  10.305 -0.0549  0.0746 -0.1957
18648W        W19512   0.314   4.259   9.280 -0.1696 -0.0502  0.3698
18649W        W19513  12.148  13.097   7.805 -0.0072 -0.1519 -0.2666
18650W        W19514  13.330   1.605   6.701  0.3793  0.0266 -0.1645
18651W        W19515  13.373   3.688   8.808  0.3140 -0.1911 -0.1000
18652W        W19516  12.660  12.867   9.722  0.0859 -0.2241  0.0129
18653W        W19517  12.380   0.157   9.727  0.0737  0.3367  0.1252
18654W        W19518  11.999   0.544  11.309 -0.0493 -0.0058 -0.1668
18655W        W19519  13.002   5.588   6.986  0.2924  0.2723  0.1139
18656W        W19520   0.122   1.053   8.564  0.1224  0.0638 -0.0295
18657W        W19521  12.977   2.538   7.603 -0.1082  0.3780  0.0413
18658W        W19522  12.997  13.375  10.598 -0.0190 -0.1382 -0.0051
18659W        W19523   0.680   0.666  12.236  0.2529  0.3061  0.2150
18660W        W19524  13.792   1.251   7.009  0.0369 -0.0807  0.1988
18661W        W19525  11.404   5.060   5.966 -0.1923  0.0666 -0.2149
18662W        W19526   1.172   3.454   9.355 -0.0808  0.1659  0.1449
18663W        W19527  13.013   1.929   8.514 -0.2102  0.2012 -0.0688
18664W        W19528  13.422   1.163   9.677 -0.1292 -0.1328  0.0045
18665W        W19529  11.491   1.032   9.929 -0.3691 -0.2189  0.1643
18666W        W19530   0.073   4.029   7.615 -0.0418 -0.1557 -0.1921
18667W        W19531  11.814   2.037  11.416  0.2491 -0.0444 -0.0060
18668W        W19532   2.322   0.406   8.068  0.1050 -0.1600 -0.1237
18669W        W19533  12.400   2.776   8.436  0.4524  0.1015 -0.1300
18670W        W19534  11.948   3.251  10.846  0.1595 -0.1764 -0.0230
18671W        W19535   0.716   1.009  10.141 -0.2679 -0.2137  0.2980
18672W        W19536  13.041   0.964   9.334  0.2137  0.1634  0.0427
18673W        W19537   9.286   1.385   8.346  0.0756  0.0256 -0.0518
18674W        W19538   0.429   0.532   9.231 -0.2747  0.1887  0.1147
18675W        W19539  10.677   2.022  10.223  0.4723 -0.1901  0.0888
18676W        W19540  13.395   2.952  12.216  0.0503  0.1309  0.2069
18677W        W19541  13.977   1.633   8.602 -0.2050 -0.0014  0.3671
18678W        W19542  13.310   2.218  10.209  0.2060  0.1479  0.1752
18679W        W19543  12.284   4.077   9.608  0.1227  0.3195 -0.0075
18680W        W19544   2.157   0.774   9.505 -0.3545 -0.0906 -0.4296
18681W        W19545   1.263   0.138  10.315  0.0276 -0.0437  0.3000
18682W        W19546  11.856   1.388   8.883 -0.2318  0.2501  0.4058
18683W        W19547  13.972   2.831   8.374  0.1522  0.2970 -0.1211
18684W        W19548  13.959   2.081   8.762 -0.0094  0.0357 -0.0483
18685W        W19549   0.283   3.507   5.359  0.1598  0.1973  0.0455
18686W        W19550  12.298   1.988   8.111  0.0406 -0.3745 -0.0472
18687W        W19551  12.573   2.331   8.262  0.2521  0.1186  0.2185
18688W        W19552   0.346   0.232  10.383 -0.0901  0.2249 -0.4282
18689W        W19553  10.733  12.518  10.291 -0.1849 -0.3834 -0.1410
18690W        W19554  11.843   3.063   9.673  0.1087 -0.0300  0.1172
18691W        W19555  12.391   1.416   8.969  0.0681 -0.0034  0.0212
18692W        W19556  12.043   1.626  11.044  0.0744  0.0891  0.1326
18693W        W19557   9.978   5.356  11.259  0.1738  0.2271 -0.2683
18694W        W19558  13.906   3.028   6.249  0.1876 -0.1927  0.0722
18695W        W19559  12.856   5.225   9.129 -0.2651  0.1481 -0.1112
18696W        W19560   0.536   2.140  10.389  0.1036 -0.1170  0.1405
18697W        W19561  10.863   0.074   8.145  0.0996 -0.3372  0.0351
18698W        W19562  13.049  13.624   9.686  0.0645  0.1972  0.3389
18699W        W19563  12.114   1.987   7.643 -0.0809  0.0009  0.0498
18700W        W19564  12.874   0.755   8.387  0.0562  0.0072  0.1401
18701W        W19565  13.399   3.855  10.092  0.1701  0.2870  0.0985
18702W        W19566  13.050   0.059   8.531 -0.2161  0.1523 -0.0547
18703W        W19567  10.889   2.334   7.463 -0.0533 -0.0926 -0.1501
18704W        W19568  12.059   1.057   9.208 -0.1042 -0.0626 -0.0285
18705W        W19569  12.190   4.066  11.037 -0.0365 -0.1583 -0.2528
18706W        W19570  13.236   2.988   6.944  0.2298  0.2035 -0.0442
18707W        W19571  13.712   0.182   8.509  0.1047 -0.0242 -0.0361
18708W        W19572  12.433   4.435  12.491 -0.2025  0.1524 -0.5367
18709W        W19573   0.804   2.576   7.928 -0.1859  0.0016 -0.0460
18710W        W19574  11.409   3.639   8.484  0.2747  0.1598 -0.0497
18711W        W19575  11.989   1.556   9.350  0.0007  0.0595 -0.0686
18712W        W19576  13.053   2.923   8.958 -0.2631  0.2137 -0.0998
18713W        W19577  11.243   2.444   6.690  0.1450  0.1292 -0.0021
18714W        W19578  11.217   5.218  10.235  0.0265  0.1451  0.1526
18715W        W19579  10.943  12.072  10.643 -0.3643 -0.0405 -0.1135
18716W        W19580  13.852   0.364   7.963  0.0720  0.1486  0.3572
18717W        W19581  10.242   1.779   8.805 -0.1051 -0.2475 -0.2331
18718W        W19582  10.445   1.989  11.977 -0.0754  0.1140 -0.1951
18719W        W19583  13.348   1.983  11.769 -0.0367 -0.1228 -0.4272
18720W        W19584  10.816   3.192   7.600 -0.1342 -0.3193 -0.1375
18721W        W19585  11.205   0.368  11.591  0.1261  0.1031  0.0158
18722W        W19586  12.952   1.442  11.056 -0.1273 -0.1176 -0.1583
18723W        W19587  12.153   2.524   8.024 -0.2853  0.2160  0.1104
18724W        W19588  11.740   1.756  10.616  0.1394  0.1099 -0.0533
18725W        W19589  13.899  13.796   8.243 -0.0750  0.0100 -0.0532
18726W        W19590  11.869   2.646   5.283  0.2975 -0.0697  0.0735
18727W        W19591  12.184   4.037   9.110 -0.2103  0.5627  0.2068
18728W        W19592   9.945   0.794   8.772  0.1528  0.1157 -0.3026
18729W        W19593  12.938   3.027   6.465 -0.1566  0.0772  0.0944
18730W        W19594  13.747   0.427   8.971  0.2653  0.2354 -0.0615
18731W        W19595  13.599   0.802   7.935 -0.3217 -0.0758 -0.0529
18732W        W19596  13.505  13.371   9.644 -0.1074  0.5955 -0.2181
18733W        W19597  13.498  13.729   6.920  0.1140  0.1228  0.0672
18734W        W19598   1.079   5.041   9.371 -0.0440  0.1101  0.1179
18735W        W19599  13.959   3.835   6.514  0.2181 -0.2193  0.1679
18736W        W19600  13.711   0.952   6.115 -0.0444  0.0950 -0.1956
18737W        W19601  11.497   3.998   5.956  0.1890 -0.1006  0.2065
18738W        W19602   0.307   0.622  10.043  0.1308  0.1838  0.1196
18739W        W19603  12.957   1.783  12.060  0.2300 -0.0954 -0.2375
18740W        W19604  13.158   0.556   7.286  0.1789 -0.1122  0.0938
18741W        W19605  10.116   2.496   7.677 -0.1041 -0.1155  0.0746
18742W        W19606  13.159   2.325  12.804 -0.0961  0.0912 -0.1331
18743W        W19607  13.443   1.453  12.835  0.0569  0.2882 -0.0600
18744W        W19608  10.313   2.374   6.748 -0.1121 -0.0764 -0.1197
18745W        W19609  10.497   3.730   6.264  0.0511 -0.1580  0.0046
18746W        W19610  13.265   1.988   6.343  0.0140 -0.0297  0.0544
18747W        W19611  13.627   0.370   7.508  0.4332 -0.1025  0.0860
18748W        W19612  13.346   0.092   8.993 -0.1122  0.1364  0.2115
18749W        W19613  12.596   2.793   6.254  0.1266  0.1109 -0.1477
18750W        W19614  13.445  13.229   6.772 -0.1143 -0.0217 -0.3150
18751W        W19615   1.359   5.119   9.769 -0.1656 -0.2895 -0.2673
18752W        W19616   1.737   3.091   7.085  0.1787  0.1313  0.1432
18753W        W19617   0.138   1.105  10.401  0.1093  0.2462  0.1141
18754W        W19618  10.367   2.504  10.458 -0.4176  0.1779  0.0485
18755W        W19619   0.145   0.516  12.102 -0.0773 -0.0468  0.3262
18756W        W19620   9.174   2.382  11.889 -0.1023  0.0613 -0.1534
18757W        W19621  13.232   2.437  11.997 -0.0053 -0.1357 -0.3855
18758W        W19622  13.941   2.359  10.893  0.1787  0.0769  0.0992
18759W        W19623  12.412   0.847   8.112  0.1027  0.0186 -0.0737
18760W        W19624  13.036   3.773   9.628  0.0148  0.1749  0.0295
18761W        W19625   1.672   5.107  11.316 -0.3825 -0.1617 -0.1071
18762W        W19626   2.915  13.107   9.858  0.0315  0.2603 -0.1615
18763W        W19627   0.770   4.392   7.694  0.0001 -0.0141 -0.3176
18764W        W19628  13.567   0.284  10.407 -0.3789  0.1049 -0.3256
18765W        W19629  11.658   3.219   8.123  0.1849  0.0576 -0.0497
18766W        W19630   1.608   3.745   9.238  0.1597  0.1189  0.1217
18767W        W19631   0.886   2.307  10.677 -0.0234 -0.1245  0.0100
18768W        W19632  10.490   1.249  10.193 -0.2356 -0.0316  0.1503
18769W        W19633   1.164   1.583   7.107 -0.1234 -0.0692 -0.0634
18770W        W19634  12.572   3.966   8.271 -0.0282 -0.0750 -0.0067
18771W        W19635  12.129   1.987   9.582  0.0350  0.2541 -0.6145
18772W        W19636  13.984   0.456   9.401 -0.1988 -0.1274 -0.1213
18773W        W19637  13.374   5.688   5.455 -0.1466 -0.1409  0.0471
18774W        W19638  11.983   2.131  10.932  0.1020 -0.1130  0.0407
18775W        W19639  13.404  13.851  10.445  0.2075  0.2659  0.0407
18776W        W19640   0.078   2.707   5.888  0.2258  0.0633 -0.0722
18777W        W19641  11.414   2.905  13.655 -0.2128  0.1134  0.1369
18778W        W19642  12.945   2.736   8.478 -0.1013  0.1484  0.0250
18779W        W19643  11.907   4.418   9.285 -0.1302  0.3621 -0.1792
18780W        W19644   0.303   0.585  12.635  0.2679  0.1410  0.0129
18781W        W19645  13.085   0.914   1.066  0.1019  0.0230  0.0037
18782W        W19646  10.493   3.407  11.005  0.0532 -0.2446  0.1821
18783W        W19647  13.820   3.419  13.711  0.1222 -0.0949 -0.2595
18784W        W19648  12.631   1.118  12.503  0.3153 -0.0001 -0.0842
18785W        W19649   0.172  13.919  13.193  0.1285 -0.0985  0.0763
18786W        W19650  11.151   2.297  10.257 -0.1420 -0.2595 -0.0336
18787W        W19651  12.924   4.966  11.368  0.0392 -0.4674 -0.4335
18788W        W19652   9.066   2.857  11.633 -0.4260  0.0453  0.0655
18789W        W19653  12.991   1.116  13.540 -0.0064  0.2683  0.3104
18790W        W19654  13.290   5.163  12.650 -0.2001 -0.2942 -0.0662
18791W        W19655  10.981   3.721  12.809 -0.1914  0.0647  0.1451
18792W        W19656  10.027   4.212  12.181  0.1625  0.3130  0.1462
18793W        W19657  10.978   1.471   2.429 -0.0712  0.2418  0.2045
18794W        W19658  11.992   2.280  10.013  0.1695  0.3601 -0.1527
18795W        W19659  13.177   0.671  12.058 -0.1197 -0.0268 -0.2112
18796W        W19660  11.969   1.500  13.667 -0.0848 -0.0362  0.0778
18797W        W19661  12.224  13.678  11.133  0.1626 -0.2071  0.2487
18798W        W19662  11.782   0.517  13.854  0.1138 -0.3287 -0.3025
18799W        W19663  12.796   2.137  13.643  0.1824  0.2146  0.1638
18800W        W19664  11.421   2.348  12.440  0.0191 -0.0758  0.0602
18801W        W19665   1.332   2.561  11.176 -0.0338  0.4154 -0.1102
18802W        W19666  13.947   1.028  13.939 -0.0132  0.0437 -0.0373
18803W        W19667   9.793   3.725   0.075 -0.2885 -0.1050  0.2548
18804W        W19668  11.537   4.556  11.426  0.0230 -0.2084  0.0842
18805W        W19669  10.930   2.163  11.200 -0.1319  0.0729  0.3196
18806W        W19670   1.194   1.546  10.057  0.2206 -0.3344 -0.1383
18807W        W19671  12.764   1.594  12.450  0.0097 -0.0336  0.0918
18808W        W19672  13.637   2.160  11.371  0.2981 -0.1590  0.0397
18809W        W19673  11.075   2.317   0.497 -0.0359 -0.3218  0.0788
18810W        W19674  12.498   0.472  13.126  0.3896  0.2555  0.0716
18811W        W19675   0.043   2.090   0.256  0.0226 -0.0447  0.0023
18812W        W19676   0.595  13.747  12.050  0.1450  0.1207 -0.2505
18813W        W19677  11.704   2.335  10.528  0.0201  0.1437 -0.0968
18814W        W19678  10.656   0.545  11.549 -0.1290 -0.1833 -0.2245
18815W        W19679  10.690   2.311  13.495 -0.1053  0.1260  0.1451
18816W        W19680  10.568   3.439  11.544 -0.0151  0.4056  0.0338
18817W        W19681  12.454   3.375  10.334 -0.0287 -0.2334  0.1635
18818W        W19682  13.574   2.244  13.324 -0.0693  0.2142 -0.0932
18819W        W19683  12.893   3.178  12.412 -0.1643 -0.1036 -0.3837
18820W        W19684  12.225   2.370   8.676 -0.1861 -0.1426 -0.1098
18821W        W19685  11.891   1.201   0.090  0.1917  0.0932  0.0079
18822W        W19686  11.428   3.493  12.927  0.1714 -0.0092  0.1547
18823W        W19687  12.555   1.850   8.700  0.0857 -0.3264  0.0485
18824W        W19688  11.877   4.423  13.390 -0.2162 -0.0048 -0.1539
18825W        W19689   0.513  13.388  11.009  0.0683  0.0104 -0.1254
18826W        W19690   0.939   2.201  13.186 -0.0734  0.2025  0.2377
18827W        W19691  11.810  13.896  13.014 -0.0704  0.0467  0.0156
18828W        W19692  12.841   3.760   0.934 -0.0145  0.0196  0.0081
18829W        W19693  11.434  13.694   0.875 -0.0156  0.2402 -0.1802
18830W        W19694  11.866   2.219  12.481 -0.1185 -0.1908  0.3654
18831W        W19695  11.096   4.121  13.104 -0.0659  0.0816  0.1836
18832W        W19696  13.820  13.129  11.787 -0.1783  0.1440 -0.0038
18833W        W19697   2.509   1.875  12.553 -0.1772  0.1460  0.0898
18834W        W19698   9.158   0.807  13.479  0.2716 -0.2756  0.0137
18835W        W19699  11.658  13.435   2.177 -0.1913  0.0085  0.2564
18836W        W19700  11.716  11.845  11.699  0.0449 -0.4858 -0.6477
18837W        W19701   1.151   1.173  11.563  0.3014 -0.1617  0.0427
18838W        W19702  12.098  13.257   0.310 -0.4153  0.3909  0.1188
18839W        W19703  12.509  12.889  11.945  0.0091  0.0529  0.0892
18840W        W19704  10.712   5.032  10.318  0.1988 -0.1668  0.0708
18841W        W19705  12.280   0.875  11.777 -0.0107 -0.0175  0.0250
18842W        W19706  13.139  13.121  11.890 -0.0326  0.2176 -0.0662
18843W        W19707  12.920  13.467  13.444  0.3518  0.1429 -0.0842
18844W        W19708  13.066  13.598  11.895  0.2351  0.0034 -0.0602
18845W        W19709   0.349  13.859  10.882  0.1760  0.0545 -0.1991
18846W        W19710  12.217   1.864  10.521 -0.1478 -0.1189 -0.2112
18847W        W19711   0.814   0.739   9.733  0.0015 -0.0296 -0.0302
18848W        W19712  13.214   1.230  10.150  0.0407  0.0615 -0.3180
18849W        W19713  11.691   0.885  12.899  0.0120  0.1046  0.0462
18850W        W19714   9.783   1.153   2.464  0.0300  0.1111 -0.0556
18851W        W19715  10.523   0.861  12.793 -0.2096 -0.4244 -0.1527
18852W        W19716  12.918   4.178   0.032 -0.0736  0.2328 -0.0690
18853W        W19717  13.596   1.920  12.780  0.0347  0.1279 -0.1236
18854W        W19718  13.499   3.336  11.910 -0.0835  0.1570 -0.0071
18855W        W19719  12.459   0.430  11.774  0.0469  0.4411  0.1967
18856W        W19720   1.420  13.855  12.453  0.4834  0.1135 -0.2036
18857W        W19721   1.253   2.647  12.981 -0.1753  0.0798  0.0101
18858W        W19722  13.484   2.733   9.078  0.0193 -0.1663  0.0183
18859W        W19723  13.973   3.024  13.183 -0.0256  0.0777  0.0440
18860W        W19724   1.997   1.966  11.726  0.0743  0.0700  0.2289
18861W        W19725  13.684   1.695  11.498  0.0573  0.1488  0.0857
18862W        W19726  11.380  13.317  11.315  0.2442  0.2023  0.0248
18863W        W19727  13.452   4.056   0.209  0.2572  0.2196  0.0435
18864W        W19728  11.935   3.195  12.374 -0.0730 -0.0383  0.0623
18865W        W19729  12.962   2.966  13.941 -0.3641 -0.0828  0.0669
18866W        W19730  12.898   1.869   0.030 -0.2015  0.1367 -0.1731
18867W        W19731  11.194   3.566   1.936 -0.0141 -0.0430  0.0686
18868W        W19732  13.609   2.410  12.875 -0.0383 -0.4103 -0.0848
18869W        W19733  11.440   1.751   1.606 -0.1815 -0.1669  0.1058
18870W        W19734   0.173  13.251  13.337 -0.0544 -0.2401  0.0741
18871W        W19735  13.730   4.429  12.058  0.1305  0.3039 -0.2327
18872W        W19736  11.313   1.949   9.385 -0.0923  0.0181  0.0088
18873W        W19737  11.229  13.851  11.891  0.0456 -0.2559 -0.0648
18874W        W19738  11.487   3.007  12.255  0.0093 -0.1837 -0.1239
18875W        W19739  13.354   3.310  10.102 -0.1928  0.1910  0.1699
18876W        W19740  13.030   0.292  10.271 -0.0599 -0.0064  0.0271
18877W        W19741  10.637   2.556  12.639 -0.1162 -0.1365 -0.0439
18878W        W19742  11.376   0.572   0.703 -0.1186 -0.3004 -0.0114
18879W        W19743  13.242   1.575  11.552 -0.2806  0.0776  0.2045
18880W        W19744   0.010   6.149  10.929 -0.0846 -0.3079 -0.3575
18881W        W19745  12.658   2.381  13.027  0.1132 -0.0935 -0.1859
18882W        W19746  11.707   1.533  12.813 -0.2824 -0.3027 -0.2673
18883W        W19747  12.067  13.827  10.672  0.3102  0.0052 -0.1174
18884W        W19748  12.395   5.916  13.711 -0.2072 -0.0375 -0.0691
18885W        W19749  11.560   3.022  12.719 -0.1204 -0.4120 -0.1129
18886W        W19750  10.455   3.872   0.878 -0.1905 -0.1091  0.1339
18887W        W19751  13.940   2.546  13.164 -0.3138 -0.0271  0.0528
18888W        W19752  11.329   1.694  12.497 -0.3161 -0.1098  0.0281
18889W        W19753  12.138   4.040  13.182  0.1261  0.1352  0.3761
18890W        W19754   9.939   2.100  11.754 -0.2380 -0.0954  0.2080
18891W        W19755  13.898  12.576   1.787  0.2187  0.2446 -0.0912
18892W        W19756  10.138  13.576   0.975 -0.1824  0.0426 -0.1374
18893W        W19757  11.482   0.114   2.343 -0.0616  0.0132 -0.1183
18894W        W19758  10.835   2.004  11.708  0.0746 -0.0081 -0.1024
18895W        W19759  10.851   2.629  10.487  0.0415  0.1926  0.1119
18896W        W19760  12.307   2.235  12.237  0.0468 -0.0841 -0.0453
18897W        W19761  10.997   1.680  12.888 -0.1795  0.1371  0.1678
18898W        W19762  13.831   2.560   0.085 -0.0127 -0.0928 -0.1414
18899W        W19763   9.314   0.602  13.029 -0.2247  0.0873  0.0148
18900W        W19764  10.976   3.222  12.793 -0.2518 -0.0231 -0.1074
18901W        W19765   9.714   2.095   0.036 -0.1788  0.0138  0.2257
18902W        W19766  11.632   1.667  13.920  0.2220  0.1326  0.0678
18903W        W19767  10.686   2.479  12.152 -0.1490 -0.2713  0.0925
18904W        W19768  12.863   1.351   1.380 -0.1371 -0.2129 -0.0744
18905W        W19769  12.140   4.042  10.355  0.4125  0.3052  0.0977
18906W        W19770  13.082   2.381  13.288 -0.3402 -0.4414  0.0181
18907W        W19771  13.541   0.475  13.077 -0.2697  0.2761 -0.1036
18908W        W19772  13.065   0.524  10.712 -0.0360 -0.0053 -0.2699
18909W        W19773  12.077  12.665  10.516 -0.2093  0.0593  0.0796
18910W        W19774  13.893   3.920  12.961  0.0415  0.1445 -0.1565
18911W        W19775   0.276   0.969  12.306 -0.4435 -0.5752  0.0915
18912W        W19776  11.003   4.584  12.988  0.0498  0.0559 -0.2494
18913W        W19777  10.335   2.033  11.508  0.1126  0.1667 -0.1020
18914W        W19778   1.456   0.150   0.720  0.1180  0.2454 -0.1973
18915W        W19779   9.689   0.645  11.242  0.0093  0.1387  0.1354
18916W        W19780  11.270  13.779  13.920  0.0145  0.2751  0.0602
18917W        W19781  13.179   0.527   9.167 -0.2378 -0.0113  0.0777
18918W        W19782   1.155   0.441  11.804  0.0945 -0.2930 -0.0224
18919W        W19783  10.671   1.738  11.093  0.1267  0.2770 -0.0225
18920W        W19784  12.219   0.714  12.258 -0.2346 -0.4300  0.0136
18921W        W19785  10.031   2.479   9.472 -0.2431 -0.0687  0.0613
18922W        W19786  13.193   1.876   1.898  0.3220 -0.0071 -0.0448
18923W        W19787  11.341   5.159  11.314  0.0595 -0.2118 -0.0907
18924W        W19788  13.429   2.813   8.541 -0.0618 -0.1359  0.1469
18925W        W19789   0.100   2.119  12.297  0.2382 -0.1874 -0.0290
18926W        W19790   8.728   0.586  13.700 -0.1127 -0.0097  0.0330
18927W        W19791  10.242   2.184  13.289  0.2163  0.2548  0.3802
18928W        W19792  12.359  12.945   3.078 -0.0065  0.1395  0.1648
18929W        W19793  12.451   3.165  12.796 -0.2075 -0.4848 -0.1424
18930W        W19794   0.302   3.442  11.625  0.1784 -0.1175 -0.0511
18931W        W19795  11.461   1.337  12.193  0.0300  0.1140 -0.0500
18932W        W19796  12.907   4.471  11.018 -0.0416  0.0344  0.1654
18933W        W19797  10.902   1.450   0.956  0.2754 -0.3244 -0.5119
18934W        W19798   1.052   5.033  11.594  0.3108  0.1359 -0.0047
18935W        W19799  10.619  12.503   0.356  0.3222  0.3915  0.0456
18936W        W19800  11.549   2.531   9.742 -0.0997 -0.1885 -0.1277
18937W        W19801   0.813   0.704  13.592  0.4690 -0.1680  0.3004
18938W        W19802   8.916   0.327  13.213  0.0165 -0.1606  0.0465
18939W        W19803  12.289   2.924  12.137  0.4469 -0.1154  0.0855
18940W        W19804  13.648   1.972   0.539  0.0886 -0.1034  0.2384
18941W        W19805  13.383   1.573  12.284  0.0543  0.2837  0.0306
18942W        W19806  12.272   6.332  12.533 -0.0061  0.0803  0.3243
18943W        W19807  13.878   6.049  10.355 -0.1610  0.1336  0.3721
18944W        W19808  12.969   0.957   2.167  0.1547  0.0250  0.1420
18945W        W19809   9.171  12.419   0.528  0.2423  0.0303  0.1546
18946W        W19810  12.144   0.886  12.748  0.3257  0.0206 -0.0081
18947W        W19811  13.335   1.336  13.295  0.1709 -0.1041  0.0959
18948W        W19812  12.733   2.812  12.161 -0.0988 -0.1511 -0.1484
18949W        W19813  12.908   5.885  12.835  0.0157 -0.1146 -0.1608
18950W        W19814  10.820   2.264   9.214 -0.1330  0.3210 -0.3601
18951W        W19815  13.320   1.735   0.280  0.1911 -0.0373 -0.2879
18952W        W19816  10.149   3.468   1.070 -0.1682 -0.2901  0.3690
18953W        W19817   0.473   0.545  13.205 -0.2501 -0.2601 -0.3291
18954W        W19818  12.455   3.572   9.056 -0.0473  0.0699  0.1083
18955W        W19819  12.329   5.381  13.082 -0.1558 -0.1358 -0.1038
18956W        W19820   0.056   2.308  12.748  0.2592 -0.1765 -0.0642
18957W        W19821  11.853   1.679  12.317 -0.1790  0.2569  0.1514
18958W        W19822  13.178  13.842   2.226  0.0863 -0.2160 -0.2876
18959W        W19823  10.850   3.006  11.926 -0.0835 -0.0205  0.2307
18960W        W19824  12.139   0.524  13.517 -0.2435  0.0171  0.2633
18961W        W19825  11.184   5.272  13.135 -0.0721 -0.1833 -0.0767
18962W        W19826  11.476   3.622  10.168 -0.0626 -0.0015  0.0952
18963W        W19827  13.806   2.281  11.818 -0.0192 -0.2866  0.0736
18964W        W19828  13.384   5.188   8.902 -0.2883 -0.0296  0.1465
18965W        W19829  13.620   1.862   2.729  0.1295 -0.2308  0.2463
18966W        W19830  11.642   2.294  13.359  0.2209 -0.0887 -0.4632
18967W        W19831  11.270   1.342   1.268  0.1073  0.1570 -0.0543
18968W        W19832   0.065   4.151  11.454 -0.2285 -0.1874  0.0680
18969W        W19833   8.690   2.057  13.557 -0.3143  0.2636 -0.1553
18970W        W19834  12.005   1.249  13.220  0.3820  0.2813  0.0484
18971W        W19835  13.282   1.890  13.710 -0.0626  0.0221  0.0346
18972W        W19836   9.855   2.583   9.928 -0.2031  0.2784 -0.1310
18973W        W19837  13.882   0.780  12.774 -0.0955 -0.1821  0.1324
18974W        W19838   0.206   0.994  13.120  0.0270  0.4422  0.0079
18975W        W19839   9.916   2.039   0.605  0.1673 -0.0069  0.3220
18976W        W19840   9.994   4.732  13.652  0.1809 -0.1230  0.6127
18977W        W19841  13.946   1.566  10.350 -0.0397  0.1813  0.2439
18978W        W19842  13.078   3.644  13.287 -0.0643 -0.1041 -0.0332
18979W        W19843  13.019   0.588  12.971  0.1889  0.1295 -0.1149
18980W        W19844  11.054   2.066  12.189  0.3757 -0.2782  0.5035
18981W        W19845   0.534   1.000  11.741  0.0351  0.1082  0.0627
18982W        W19846   9.274   0.498  11.465  0.0956  0.2891 -0.0103
18983W        W19847   9.660   3.472  13.469  0.1231  0.0989 -0.1600
18984W        W19848  11.537   1.703   0.483 -0.0614 -0.2075 -0.2161
18985W        W19849  10.961   0.231   1.588 -0.2426 -0.0608  0.0086
18986W        W19850  12.741   5.196  12.838 -0.0198 -0.2290 -0.1089
18987W        W19851  12.388   2.608  10.022  0.0852  0.3138 -0.2746
18988W        W19852  13.304   3.992   9.215 -0.0242  0.3108  0.0022
18989W        W19853   0.339   3.913  11.855  0.1103  0.0955  0.1693
18990W        W19854  10.917  13.586  11.608  0.3231  0.3137  0.3431
18991W        W19855  13.289   0.854  11.074 -0.0156  0.0631  0.0163
18992W        W19856   2.044   1.370  11.099 -0.0296 -0.4949  0.0956
18993W        W19857  12.334   2.107  13.315 -0.0976 -0.0326  0.1257
18994W        W19858  10.682   3.008  12.389 -0.0271  0.0703  0.1135
18995W        W19859   9.304   2.926   0.912  0.1433  0.1006 -0.1394
18996W        W19860  11.213   2.609  12.020  0.2524  0.0235  0.0352
18997W        W19861   1.504   0.819  11.991 -0.0415 -0.2251  0.0774
18998W        W19862  13.969   3.715   0.997 -0.0577 -0.3610  0.3094
18999W        W19863  13.232   1.074  10.671  0.2192 -0.1299  0.0726
19000W        W19864  12.123   3.445   0.580  0.2348 -0.2397  0.2092
19001W        W19865   8.686   3.536  13.858 -0.0031  0.0079  0.0773
19002W        W19866  11.151   2.684  11.119 -0.0299  0.1045  0.1171
19003W        W19867   6.968   6.235  11.435 -0.2074 -0.1674 -0.1684
19004W        W19868  13.530   3.919  13.226  0.1699  0.1650  0.2020
19005W        W19869   9.710  12.480  12.367  0.1558  0.0681  0.0605
19006W        W19870  12.014   3.685  11.333 -0.1202  0.0116 -0.0151
19007W        W19871   0.069   0.344  13.021  0.0910 -0.1123 -0.2197
19008W        W19872   9.921   1.941  10.287 -0.0574 -0.3704 -0.1897
19009W        W19873  12.168   0.838   1.427 -0.0633  0.2154 -0.0482
19010W        W19874  13.008   4.199  12.488 -0.0784 -0.0714  0.1106
19011W        W19875  11.149   2.778  12.559  0.1006  0.1543  0.1746
19012W        W19876   8.745   1.196  13.538  0.2859  0.0179 -0.3264
19013W        W19877  11.299   3.717   0.636  0.0370  0.0345  0.1059
19014W        W19878  10.331   1.183  14.006  0.1220  0.0863  0.2017
19015W        W19879  12.968  12.144  11.717  0.1755  0.0282 -0.0287
19016W        W19880  11.169   3.330   9.894 -0.5185 -0.2946 -0.0345
19017W        W19881   0.543   4.550   0.730  0.0780 -0.2368  0.0480
19018W        W19882   9.578   2.967   1.696 -0.2965  0.2258 -0.1683
19019W        W19883  10.832   2.930  11.411 -0.0865 -0.1302 -0.1126
19020W        W19884  11.791   0.892   8.666  0.0578  0.2249 -0.1175
19021W        W19885  12.064  13.595  13.321 -0.0241  0.0276  0.0854
19022W        W19886  11.566  13.139  13.552  0.0215  0.3563  0.2842
19023W        W19887  11.236   1.263  12.882 -0.1278 -0.0621  0.1965
19024W        W19888  13.393   0.142  10.900  0.2135  0.1769  0.1542
19025W        W19889  13.437   2.896  12.691 -0.1231  0.1141  0.2040
19026W        W19890  12.087   2.648   9.625  0.1294 -0.4615 -0.2557
19027W        W19891   1.367  12.833  10.700 -0.1247 -0.0786 -0.0855
19028W        W19892  13.724   2.540  12.272 -0.2821 -0.1252 -0.1468
19029W        W19893  13.884   0.343  12.516  0.0546  0.1234  0.2767
19030W        W19894  11.598   3.625  10.957  0.2454 -0.0211 -0.0214
19031W        W19895  13.143   1.816  12.652 -0.2550  0.0120  0.2640
19032W        W19896  11.753   1.557  11.852  0.4084  0.0059  0.0172
19033W        W19897  10.988   3.179  10.365  0.3719 -0.0733 -0.2748
19034W        W19898  11.694   5.214  13.082 -0.1187  0.1907 -0.0272
19035W        W19899  14.010   3.624  12.036 -0.3341 -0.0715 -0.0283
19036W        W19900  13.309   1.849  11.139  0.0049 -0.0572  0.1180
19037W        W19901  12.864   3.409  10.000 -0.0429  0.3828 -0.0476
19038W        W19902  12.785   1.320  10.476 -0.0763  0.3118  0.1062
19039W        W19903  13.526   3.148   1.118 -0.0147  0.2027  0.3749
19040W        W19904  13.883   3.567   1.483 -0.0086 -0.2071 -0.1638
19041W        W19905  13.097   3.247  12.957  0.1402 -0.0538 -0.0436
19042W        W19906  10.906   2.879  13.708 -0.1315 -0.1755  0.2137
19043W        W19907   9.451   1.640  13.886  0.2581  0.1638 -0.1047
19044W        W19908  11.641   3.361  11.508  0.0940 -0.2283  0.1449
19045W        W19909  11.291   0.687  13.842  0.0188  0.1351  0.1064
19046W        W19910  12.727   0.023  11.831 -0.1364  0.0341 -0.2502
19047W        W19911  13.420   2.178   0.098 -0.1053 -0.0288  0.0580
19048W        W19912  13.046   4.966  11.873  0.0197  0.0407 -0.1776
19049W        W19913  12.331   1.829  12.552 -0.0920 -0.3321 -0.0992
19050W        W19914  12.572   4.291  10.171  0.3646  0.0775  0.0655
19051W        W19915   1.416   2.099  13.068 -0.2575  0.2323  0.1879
19052W        W19916  12.307   3.976  11.908  0.2947  0.0891 -0.1012
19053W        W19917  13.473  12.749  11.926 -0.0073 -0.0823  0.1367
19054W        W19918  11.542   0.726  11.562  0.0095  0.1630  0.0490
19055W        W19919  11.914   3.645  13.380 -0.3554  0.1372 -0.0733
19056W        W19920  13.366   5.803  10.268 -0.0237  0.0145  0.1136
19057W        W19921  12.569   6.876  10.422  0.1763  0.0757 -0.1234
19058W        W19922   0.047   2.028  10.513 -0.1480 -0.2457  0.0945
19059W        W19923   0.714   9.423   3.750  0.2514 -0.1136 -0.0443
19060W        W19924  11.132   6.155   3.340 -0.0812 -0.1097 -0.0895
19061W        W19925  11.968   8.822  12.017  0.1883  0.1795  0.1284
19062W        W19926  13.779   4.356  13.047  0.2128  0.2500  0.2349
19063W        W19927  12.421   4.598   1.725  0.0526  0.2339 -0.0886
19064W        W19928  13.005   5.032   0.534 -0.0748 -0.1166  0.0290
19065W        W19929  12.713   7.176   6.537  0.1689 -0.1471  0.0969
19066W        W19930  11.954   4.863   4.540  0.1235 -0.0061  0.2030
19067W        W19931  13.511   2.484   2.751  0.2877  0.0554 -0.1443
19068W        W19932  12.707   1.284   2.844 -0.0107 -0.0926 -0.0387
19069W        W19933  11.157   2.070  13.155 -0.0723  0.0039 -0.1781
19070W        W19934  12.411   3.845   4.418 -0.1003  0.0370 -0.1399
19071W        W19935   9.986   4.950   0.982 -0.0812 -0.0178 -0.0411
19072W        W19936  11.986   7.795   2.559  0.1140 -0.0454  0.2791
19073W        W19937   0.499   8.247  11.714  0.1273  0.1015  0.1171
19074W        W19938  11.722   4.868  13.632  0.1320 -0.1193  0.2833
19075W        W19939   9.617   6.307   4.192 -0.0686 -0.1808 -0.4269
19076W        W19940  13.129   5.598   1.444  0.1526 -0.1135 -0.2308
19077W        W19941   0.277   6.361   2.891 -0.0048  0.2642  0.4377
19078W        W19942  10.458   5.113  12.409 -0.0675 -0.1933  0.0917
19079W        W19943  11.631   5.643   1.153 -0.3696  0.1061 -0.2300
19080W        W19944  13.033   7.354   1.607  0.0446 -0.0149 -0.0537
19081W        W19945  10.921   7.228   3.343 -0.0858 -0.0971  0.1615
19082W        W19946  13.033   6.928   4.645  0.1835  0.4110 -0.1028
19083W        W19947  13.354   3.121   1.965  0.1457 -0.3428  0.1454
19084W        W19948  12.200   4.382   1.322 -0.2451  0.0498 -0.0250
19085W        W19949  11.522   7.175   6.391 -0.1315  0.2592  0.2927
19086W        W19950  10.271   6.811   1.938  0.0172  0.1775 -0.0064
19087W        W19951  11.582   5.287   1.520 -0.5031  0.1389  0.2842
19088W        W19952  10.340   6.809   4.342 -0.2255  0.0754  0.1759
19089W        W19953  12.292   2.882   1.371 -0.2800  0.1847 -0.1506
19090W        W19954  13.376   7.610   2.118  0.0214 -0.1553 -0.1736
19091W        W19955  13.617   5.442   0.567 -0.0831 -0.0000  0.2245
19092W        W19956  13.213   4.668  12.346 -0.0075  0.1115 -0.1847
19093W        W19957  12.859   7.487   0.452  0.2262  0.0106 -0.0632
19094W        W19958  10.752   4.900  13.286 -0.0481 -0.0137 -0.0483
19095W        W19959  12.045   7.655   1.642  0.0506 -0.0604 -0.2437
19096W        W19960  11.319   4.048   1.858 -0.1657  0.0858 -0.4514
19097W        W19961  13.826   6.077   1.940  0.1256  0.0547 -0.2746
19098W        W19962   0.596   5.160   1.160  0.0718  0.1451 -0.1607
19099W        W19963  12.107   7.960   4.148 -0.0954 -0.0188 -0.1967
19100W        W19964   0.960   4.102   0.514  0.0703 -0.0059  0.3088
19101W        W19965   0.604   8.288   1.239 -0.1723  0.1461 -0.2125
19102W        W19966   0.293   6.164   2.050  0.0491  0.0077 -0.3308
19103W        W19967   1.243   1.085   2.194  0.5021 -0.3844  0.2398
19104W        W19968  11.398   4.609  13.920 -0.0634 -0.1180  0.1013
19105W        W19969  11.022   3.349   1.545  0.1802  0.3590 -0.1712
19106W        W19970  12.448   3.441   3.399  0.0525  0.0656  0.1499
19107W        W19971  13.074   8.581   1.672 -0.0436 -0.1425  0.0482
19108W        W19972   0.626   7.546  12.490 -0.1896  0.2939  0.1928
19109W        W19973  11.206   5.851   2.916 -0.1043  0.0296  0.0792
19110W        W19974  13.964   9.293   3.176 -0.0839  0.0880  0.0954
19111W        W19975  13.968   4.630  13.502  0.0197 -0.1116 -0.0358
19112W        W19976  12.236   2.960   3.826 -0.3266 -0.2942  0.0669
19113W        W19977  10.034   5.334  13.716  0.3463 -0.2002  0.2014
19114W        W19978  10.603   3.607   1.310  0.1795 -0.0271 -0.3416
19115W        W19979  12.273   8.900   0.952 -0.2277  0.0391 -0.1362
19116W        W19980  13.845   6.213  13.756 -0.0546  0.0972 -0.2407
19117W        W19981  13.021   7.320   4.995  0.1300 -0.1604  0.2090
19118W        W19982  11.160   3.789   1.446 -0.3533 -0.2195  0.0871
19119W        W19983  12.341   5.248   2.982  0.0649  0.2818  0.0975
19120W        W19984   0.409   4.269   1.140 -0.2315 -0.2010  0.2010
19121W        W19985  12.096   6.598   1.493  0.0431 -0.3836  0.0991
19122W        W19986  13.544   4.172   0.771 -0.0614 -0.0051 -0.2940
19123W        W19987  11.373   5.322   1.934 -0.0419 -0.2784 -0.1226
19124W        W19988  10.359   6.196  13.488 -0.1763 -0.3193  0.0507
19125W        W19989   9.908   4.842   2.863  0.0836 -0.0514  0.2520
19126W        W19990   9.790   5.799  12.769 -0.2918 -0.0156 -0.2490
19127W        W19991   0.243   2.596   1.615 -0.0799  0.3109  0.0065
19128W        W19992  12.986   2.728   2.097 -0.0588 -0.0691 -0.0946
19129W        W19993  12.112   5.824   1.103  0.0285  0.0631 -0.2753
19130W        W19994  10.809   2.336   2.300  0.1018 -0.3953 -0.0363
19131W        W19995   0.052   5.585   0.868  0.0166 -0.0024 -0.0589
19132W        W19996   1.919   2.873   2.762 -0.2474 -0.0296 -0.2071
19133W        W19997  13.507   9.682   3.768 -0.2754  0.0248 -0.0029
19134W        W19998  13.490   8.940   0.826 -0.1450  0.1947  0.0691
19135W        W19999  12.068   5.378   1.432  0.3228  0.1771  0.0545
19136W        W20000  10.440   3.641   3.631 -0.0187  0.0092 -0.1012
19137W        W20001   0.412   5.713   2.278  0.3402  0.0111  0.0024
19138W        W20002   0.010   8.774   1.790 -0.0230 -0.1741 -0.2408
19139W        W20003  11.020   3.441  13.296  0.0155 -0.1602  0.1142
19140W        W20004  11.428   5.049   0.073  0.1645 -0.2652  0.1368
19141W        W20005  13.210   6.622  12.917  0.2774 -0.0486  0.1012
19142W        W20006   1.013   6.992   3.749 -0.2237 -0.1750 -0.0184
19143W        W20007  11.699   5.169   2.297  0.3242 -0.2255 -0.0290
19144W        W20008  11.635   6.146   3.354 -0.1008  0.0190 -0.0263
19145W        W20009  13.652   1.104   3.038 -0.1476  0.2482  0.2349
19146W        W20010  10.093   6.069   3.547  0.0452 -0.2157 -0.2432
19147W        W20011  11.135   6.610  13.746 -0.4207 -0.0625  0.2170
19148W        W20012  13.733   5.612   1.577 -0.2095  0.2738  0.0230
19149W        W20013  10.533   5.496   5.131 -0.3665  0.1988  0.0385
19150W        W20014  13.340   7.692   0.665  0.0575  0.2095 -0.3756
19151W        W20015  13.486   7.065   3.527  0.1831  0.0325  0.0314
19152W        W20016  11.727   4.485   1.164 -0.0959 -0.0181  0.0873
19153W        W20017  13.710   3.615   0.209 -0.0215  0.0225 -0.1516
19154W        W20018  10.917   5.980   1.818 -0.0490  0.2630 -0.1413
19155W        W20019  13.202   8.060   1.888 -0.1053  0.4647 -0.1567
19156W        W20020  12.215   3.416   2.577 -0.1431  0.0531  0.2034
19157W        W20021  12.228   6.325   1.977 -0.1030  0.1692  0.0768
19158W        W20022  11.442   4.901   2.785  0.1343 -0.0961  0.2615
19159W        W20023  10.407   2.252   2.052 -0.2125  0.2225  0.1187
19160W        W20024  11.600   5.995   2.705 -0.2123 -0.0178  0.3369
19161W        W20025  12.358   9.984   0.638 -0.0495 -0.1682 -0.3451
19162W        W20026  12.653   8.400   1.201 -0.0104  0.4122 -0.0261
19163W        W20027  11.332   3.239   4.634 -0.1110 -0.3886 -0.2637
19164W        W20028   1.242   7.302   2.054 -0.1578 -0.1588 -0.0847
19165W        W20029   0.355   6.246   4.984  0.2577 -0.0748  0.2513
19166W        W20030  10.079   3.691   4.135 -0.0603  0.2272  0.0874
19167W        W20031   0.711   4.680   1.392  0.0437  0.0935 -0.2211
19168W        W20032  13.983   6.949   3.422  0.1512  0.2979 -0.0728
19169W        W20033  11.073   6.170   0.054 -0.0996  0.1833  0.0710
19170W        W20034  13.895   4.672   2.022 -0.0074 -0.0296 -0.1262
19171W        W20035  13.680   5.634   2.754 -0.1274  0.1079 -0.0808
19172W        W20036  10.804   7.260   0.723 -0.0081  0.0415 -0.0482
19173W        W20037  10.385   4.728   0.969  0.0570  0.2088 -0.1357
19174W        W20038  12.746   6.850   5.090  0.1264  0.0683  0.2191
19175W        W20039  10.762   4.627   1.572 -0.2816 -0.0758 -0.0736
19176W        W20040   1.171   4.083   2.767 -0.4008 -0.0385  0.0114
19177W        W20041   0.465   9.069  12.376 -0.0132  0.0266 -0.0973
19178W        W20042  13.786   6.487   2.304 -0.0524  0.0628 -0.1769
19179W        W20043  12.643   7.103   0.777 -0.1115 -0.0177  0.1416
19180W        W20044  13.172   3.036   2.482 -0.1199 -0.2373 -0.0104
19181W        W20045  13.061   5.839  13.432  0.1245 -0.0597  0.0443
19182W        W20046  10.846   4.103   3.646 -0.2289 -0.1319 -0.1646
19183W        W20047   1.164   2.971   1.610 -0.0474 -0.1088 -0.0433
19184W        W20048  10.587   6.355   2.335  0.2001  0.1416  0.1880
19185W        W20049  12.818   5.389   2.884 -0.0542  0.1698 -0.1851
19186W        W20050  11.231   4.895   1.543 -0.1424 -0.1126  0.3438
19187W        W20051  10.709   3.615   1.846 -0.1094 -0.0783  0.0196
19188W        W20052   0.679   5.458   0.751  0.1393  0.0452  0.0832
19189W        W20053  12.503   7.078   3.148 -0.0672 -0.1439 -0.0617
19190W        W20054  12.243   5.314   2.417 -0.1899  0.1870 -0.0005
19191W        W20055  11.345   2.976   2.668  0.2188 -0.0531 -0.1855
19192W        W20056   9.358   5.821   4.338  0.2384  0.1248  0.0105
19193W        W20057  10.960   5.957   3.781  0.1160 -0.3958 -0.2406
19194W        W20058  13.954   4.466   1.543 -0.1572 -0.0025  0.1345
19195W        W20059   9.945   7.407  12.875 -0.0812  0.0122 -0.1974
19196W        W20060  10.642   3.375   3.295 -0.2391 -0.0188 -0.4425
19197W        W20061   9.461   3.563   2.905  0.0025  0.1891  0.1479
19198W        W20062  10.727   7.771   1.804  0.0745 -0.2876  0.1012
19199W        W20063   1.357   5.332   1.829 -0.4037 -0.2159  0.1448
19200W        W20064   9.738   6.870  13.105 -0.3221 -0.0020  0.1002
19201W        W20065  12.181   6.054   1.523 -0.0692 -0.2640 -0.0060
19202W        W20066  12.278   3.857   0.830 -0.0178 -0.3339 -0.1841
19203W        W20067  12.639   6.935   2.699  0.4700 -0.0453  0.0008
19204W        W20068  13.224   6.497  14.012 -0.1369  0.1110 -0.0861
19205W        W20069  11.747  10.555   1.349 -0.0464 -0.4813  0.0536
19206W        W20070  10.950   5.010   1.942 -0.1407  0.3611 -0.0840
19207W        W20071  13.812   7.444  11.649  0.0122  0.3704  0.0044
19208W        W20072  12.558   6.852  13.372 -0.3569  0.0952  0.2289
19209W        W20073  11.733   4.393   1.958 -0.5820  0.1536  0.2404
19210W        W20074  12.802   4.657  12.795  0.0859  0.1497 -0.2186
19211W        W20075  12.704   6.527   2.403 -0.0032  0.2064  0.0205
19212W        W20076  13.437   5.257   1.776  0.0719  0.1630  0.1932
19213W        W20077  13.478   8.481   1.959 -0.1330  0.1932 -0.0780
19214W        W20078  11.535   8.366   0.858 -0.1348 -0.1862  0.0801
19215W        W20079  10.650   4.351   0.097 -0.2432 -0.1030 -0.6288
19216W        W20080   8.531   3.076   1.201 -0.1358 -0.0403  0.1237
19217W        W20081   9.492   4.434   4.248  0.2338 -0.2524 -0.0690
19218W        W20082   9.788   4.202   1.633  0.1893  0.3289  0.1225
19219W        W20083  11.440   3.223   3.127 -0.0600 -0.0611  0.3911
19220W        W20084  11.921   2.845   1.788  0.4148  0.1564 -0.1266
19221W        W20085   0.717   3.937  12.899 -0.0574 -0.0815 -0.1403
19222W        W20086  13.242   3.268  13.634 -0.2931  0.0096  0.1795
19223W        W20087  11.635   5.219   4.193  0.2023 -0.0579 -0.2194
19224W        W20088   1.442   4.786   1.547  0.2301 -0.2114  0.0270
19225W        W20089  10.348   2.001   4.095 -0.3171  0.0054  0.3080
19226W        W20090  11.438   6.262   0.397  0.3349  0.0791  0.4924
19227W        W20091  12.098   4.064   0.320 -0.1321  0.3407  0.0500
19228W        W20092   9.219   4.717   2.180  0.1261  0.0732 -0.0212
19229W        W20093  11.600   5.667   2.220  0.1271  0.0751 -0.2672
19230W        W20094  10.344   7.643  13.132  0.2214 -0.5062 -0.0771
19231W        W20095  11.059   6.132  13.003 -0.1214 -0.5327  0.2089
19232W        W20096  12.272   5.835   4.646 -0.1149  0.3671 -0.0884
19233W        W20097  11.845   6.140   2.269 -0.1433 -0.1299 -0.0251
19234W        W20098  10.584   4.251   2.006  0.0499  0.0720 -0.1808
19235W        W20099   0.517   1.507   4.921  0.3794 -0.2090  0.0545
19236W        W20100  13.649   6.813  13.217  0.1112  0.2906  0.0815
19237W        W20101  12.914   9.465  12.961 -0.2543 -0.0996  0.0035
19238W        W20102  11.428   5.755   3.532  0.1401 -0.0202 -0.0525
19239W        W20103  12.158   6.175   0.617 -0.5882  0.0305  0.0504
19240W        W20104  10.781   6.899   7.000  0.1348 -0.0440  0.0598
19241W        W20105  10.092   3.639   0.571 -0.1618 -0.1548  0.0943
19242W        W20106   9.847   4.941   3.502 -0.1012 -0.1415 -0.0384
19243W        W20107   9.906   4.475   3.259 -0.2362  0.1256 -0.2620
19244W        W20108  11.426   6.455  10.368 -0.3745  0.4075  0.0475
19245W        W20109  10.477   6.107   5.337  0.1418  0.3003 -0.1504
19246W        W20110  10.882   6.029   4.266 -0.0661  0.1185 -0.1744
19247W        W20111  13.533   4.846  13.804  0.1262 -0.1117  0.0571
19248W        W20112  13.579   7.524   1.118 -0.0130 -0.1303 -0.0556
19249W        W20113  12.650   3.786   1.895  0.3408 -0.0095  0.0450
19250W        W20114  13.483   6.378  13.468  0.1629  0.1305 -0.0567
19251W        W20115  12.992   3.953   2.212  0.1071  0.1007  0.1314
19252W        W20116  13.897   5.222   2.488  0.0768 -0.1484 -0.2437
19253W        W20117   1.428   4.349   2.341 -0.0341  0.1028 -0.1288
19254W        W20118  13.632   6.692  12.698  0.0724 -0.1365 -0.0415
19255W        W20119  14.006  10.419   3.007 -0.0121  0.0349  0.1745
19256W        W20120  11.024   6.038   2.435 -0.0399  0.1432 -0.0068
19257W        W20121  11.639   3.256  13.280  0.1262  0.0247  0.1117
19258W        W20122  12.959   5.395   1.851  0.2934 -0.2344 -0.0276
19259W        W20123  12.359   6.620   0.629 -0.0314  0.3028 -0.1106
19260W        W20124  13.381   6.107   4.714 -0.1696  0.0670 -0.0179
19261W        W20125  13.425   5.353   3.728  0.2074  0.1390  0.2189
19262W        W20126   9.076   2.238   0.904 -0.3582 -0.2553 -0.2375
19263W        W20127   8.642   5.521   2.393 -0.1640 -0.2020 -0.1638
19264W        W20128  12.683   8.372   0.449  0.0336  0.1620  0.0711
19265W        W20129  12.530   3.113   1.925  0.0173  0.0420 -0.4068
19266W        W20130  13.034   6.122   2.643  0.1219  0.0983 -0.0609
19267W        W20131  10.304   4.427   1.499  0.0332 -0.0924  0.1439
19268W        W20132  11.899   4.839   1.495  0.1897 -0.1968 -0.0227
19269W        W20133  13.382   4.073   4.606 -0.0465  0.0115  0.0118
19270W        W20134   0.010   4.371   0.844  0.2933 -0.0244  0.2016
19271W        W20135  10.608   4.222   2.509  0.1263 -0.0674  0.1205
19272W        W20136   2.039   5.581   4.089  0.0990  0.0097 -0.0428
19273W        W20137  12.771   2.177   3.251  0.2317  0.0272 -0.0079
19274W        W20138  12.193   6.114  12.941  0.0140  0.4220 -0.0573
19275W        W20139  10.802   7.132   4.646  0.2675 -0.1521  0.0870
19276W        W20140  10.770   6.591   0.192  0.0533 -0.0832  0.0354
19277W        W20141  13.235   4.796   1.415  0.2563 -0.3151  0.1912
19278W        W20142  10.729   5.571   2.623 -0.4437 -0.1931  0.0251
19279W        W20143  11.909   0.491   0.744 -0.2671 -0.1919  0.0438
19280W        W20144  11.727   5.484   2.770 -0.1176 -0.0924 -0.3506
19281W        W20145  10.417   5.230   0.916  0.1582  0.0540  0.3042
19282W        W20146   9.989   7.813   2.748  0.2517  0.0453 -0.0224
19283W        W20147  13.398   7.510   5.219  0.0703  0.1921  0.0979
19284W        W20148  12.256   4.704   2.437 -0.0640 -0.1735  0.0813
19285W        W20149  12.754   4.731   1.323  0.1925  0.2264  0.1798
19286W        W20150  13.246   5.407  13.097 -0.1647  0.1235 -0.1757
19287W        W20151  12.595   2.600  13.563  0.2374  0.0931  0.4836
19288W        W20152  10.037   5.814   1.427 -0.0619  0.0847 -0.1182
19289W        W20153  10.551   6.156   0.043  0.4758  0.0183 -0.0875
19290W        W20154  11.708   3.094   0.338  0.0866  0.0291  0.1974
19291W        W20155  10.867   5.109   2.489 -0.0624 -0.0014  0.1224
19292W        W20156  11.743   6.460   2.745  0.0788 -0.1874 -0.1782
19293W        W20157  13.772   6.587   1.256 -0.4526 -0.1741  0.1456
19294W        W20158  13.619   7.741   0.294 -0.2494  0.2508 -0.0530
19295W        W20159  12.988   7.764   5.424 -0.1149  0.0468  0.1653
19296W        W20160  11.365   2.994   1.156  0.2105 -0.3295 -0.0206
19297W        W20161  12.598   4.194   0.537 -0.1474  0.0521 -0.0851
19298W        W20162  11.855   2.858   2.881  0.0544  0.2222  0.1346
19299W        W20163  12.418   2.630   0.499 -0.0418  0.0315 -0.3776
19300W        W20164  10.423   7.235  13.669  0.1858  0.0769 -0.1867
19301W        W20165  13.309   3.231   0.237  0.1554 -0.1335 -0.2478
19302W        W20166  10.845   1.899   2.119  0.1829 -0.5744 -0.2588
19303W        W20167  12.201   8.962   2.426  0.1324  0.0128  0.0674
19304W        W20168  11.200   5.889  13.701  0.0086 -0.2932  0.0669
19305W        W20169  11.151   4.992   3.417  0.0941  0.0943 -0.3552
19306W        W20170  12.459   6.510   4.671 -0.2049  0.1192 -0.3581
19307W        W20171  13.730   6.262  11.826 -0.0265  0.0307  0.0832
19308W        W20172  11.708   7.700   2.073  0.0995 -0.0498  0.1789
19309W        W20173  11.700   6.367   4.125  0.2359 -0.0905  0.2827
19310W        W20174  11.717   2.652   2.469 -0.1445  0.2721  0.1111
19311W        W20175   9.792   2.807   1.050  0.0670  0.1450 -0.1627
19312W        W20176  11.582   9.595   2.470  0.4627 -0.1024 -0.0074
19313W        W20177  10.300   3.254   2.979  0.1955 -0.0960 -0.0620
19314W        W20178   1.253   5.112   4.232 -0.0897 -0.0161  0.3216
19315W        W20179  13.115   4.118   1.779  0.0906  0.1421 -0.3330
19316W        W20180  10.783   6.735   2.065 -0.2315  0.1089 -0.0436
19317W        W20181  12.315   8.004   1.014  0.1248  0.1140 -0.0142
19318W        W20182   8.638   5.996   3.413 -0.1393  0.0099 -0.0927
19319W        W20183  13.918   4.112  13.464  0.1284 -0.0625 -0.1224
19320W        W20184   0.826   6.422   1.926  0.0284 -0.2130  0.2145
19321W        W20185  10.795   7.582   5.649 -0.1282  0.2611 -0.2815
19322W        W20186  13.406   3.437   1.569 -0.1753  0.0706 -0.1356
19323W        W20187  11.080  11.105   4.418 -0.2098 -0.0938  0.0753
19324W        W20188   9.068   5.223   3.107 -0.0636  0.0661 -0.0604
19325W        W20189   0.124   5.399   1.413 -0.0476 -0.1183  0.0972
19326W        W20190   9.895   6.438  13.429  0.0398  0.0991  0.1115
19327W        W20191  13.503   8.726   0.399 -0.2184  0.2489 -0.1211
19328W        W20192  10.649   2.051   1.678 -0.0369 -0.1532 -0.3320
19329W        W20193   8.336   4.890   2.628  0.1414  0.2234 -0.0206
19330W        W20194  10.908   6.277   0.537  0.0247 -0.0903 -0.1766
19331W        W20195   9.334   6.538   0.549  0.0574  0.1362  0.2232
19332W        W20196  10.927   4.866   4.847  0.0946  0.1837  0.1607
19333W        W20197  12.410   6.500   5.197  0.1154 -0.2431  0.0607
19334W        W20198  11.224   9.162  13.002  0.0687  0.1155 -0.0007
19335W        W20199  12.579   5.487   1.404  0.0977  0.0912  0.0107
19336W        W20200  13.973   2.226   2.771 -0.0176  0.1419 -0.0048
19337W        W20201   9.991   7.683   1.330  0.0157  0.0507  0.3183
19338W        W20202  10.395   6.522   2.946 -0.0970  0.1198 -0.0176
19339W        W20203   0.424   2.886   3.170 -0.1382  0.2463  0.2226
19340W        W20204  11.394   6.928   1.054 -0.2265  0.0269  0.0776
19341W        W20205   9.409   6.339   1.922 -0.0910  0.0176  0.1763
19342W        W20206  13.376   5.096   0.839 -0.0764  0.1556  0.1957
19343W        W20207  10.687   5.824  13.717  0.0945  0.1388  0.1836
19344W        W20208  11.696   4.098   1.550 -0.0653  0.1039 -0.0246
19345W        W20209  11.445   4.195  13.554  0.2165  0.0380  0.0171
19346W        W20210  11.707   3.307   0.793  0.0778  0.1059 -0.1944
19347W        W20211   0.958   5.498   1.585 -0.3371 -0.1645  0.3180
19348W        W20212  13.304   4.541   0.183 -0.0062 -0.0309  0.3134
19349W        W20213  11.834   5.918   0.251 -0.1402 -0.0846 -0.1837
19350W        W20214  12.242   7.320   0.967  0.2408 -0.0241 -0.1083
19351W        W20215  13.309   4.532  11.795  0.2107  0.0714  0.0072
19352W        W20216  12.047   9.226   0.467 -0.3381  0.0747 -0.1290
19353W        W20217  13.885   4.117   3.798  0.2034  0.0150  0.0588
19354W        W20218  11.709   6.356   5.749  0.0514  0.0607  0.0928
19355W        W20219  12.051   5.578   0.004  0.0158  0.2491  0.0656
19356W        W20220  11.925   4.476  13.843 -0.0196 -0.0171 -0.2222
19357W        W20221   0.922   4.328   1.717 -0.3651  0.2311  0.1084
19358W        W20222   8.804   5.908   4.317 -0.1193  0.0797 -0.1407
19359W        W20223  13.866   1.538   2.172  0.0286 -0.4813 -0.0840
19360W        W20224  10.814   5.477   1.748  0.0383 -0.1732  0.5879
19361W        W20225  10.595   5.899  13.153 -0.0364 -0.1049  0.0226
19362W        W20226  12.750   7.617  12.027  0.0847  0.0569 -0.0101
19363W        W20227  12.139   3.546   0.067 -0.2702 -0.2202  0.3095
19364W        W20228  12.465   6.879  12.448 -0.1740 -0.2804 -0.0240
19365W        W20229   1.884   4.653   1.402 -0.3293 -0.0752  0.0317
19366W        W20230  13.234   8.159   3.483  0.3542  0.1477  0.1378
19367W        W20231   0.230   3.448   3.107 -0.3703 -0.0435 -0.2149
19368W        W20232  10.984   5.632   2.167  0.1594 -0.1137  0.1006
19369W        W20233  11.736   4.655   2.454 -0.2584  0.0547  0.0052
19370W        W20234   9.285   5.062   1.787  0.0218 -0.1975  0.0940
19371W        W20235   0.670   6.036   5.338  0.0367  0.0555  0.2443
19372W        W20236  10.141   4.176   1.099 -0.2081 -0.0618 -0.1112
19373W        W20237  13.423   5.810   1.949 -0.0487 -0.3909  0.0289
19374W        W20238  13.331   4.532   2.869 -0.2101 -0.1512  0.1536
19375W        W20239  13.793   4.959   3.751  0.0258 -0.3499  0.0790
19376W        W20240  12.226   2.617   2.661  0.0310  0.0923 -0.0404
19377W        W20241  13.710   6.706  13.905  0.1422 -0.2310  0.0595
19378W        W20242   0.810   7.157   1.382 -0.1592 -0.0493 -0.3211
19379W        W20243  10.981   3.016   3.286  0.2763 -0.2555  0.0489
19380W        W20244  12.767   4.366   2.537  0.0629  0.1737 -0.0447
19381W        W20245  12.758   6.420   1.871  0.5149 -0.0369 -0.1865
19382W        W20246  12.254   4.762   0.304  0.1758 -0.3424  0.0569
19383W        W20247  13.955   5.397   3.680 -0.1039 -0.1524  0.0965
19384W        W20248  12.705   4.798   2.249  0.1178  0.0042 -0.1618
19385W        W20249  12.836   7.480   4.497 -0.0824  0.1228  0.1101
19386W        W20250  12.339   5.442  13.551  0.1146  0.0551 -0.0033
19387W        W20251  11.848   8.543   5.380  0.0954  0.2311 -0.0283
19388W        W20252  12.845   6.799  13.788  0.0185 -0.0462 -0.1731
19389W        W20253   9.731   5.770  12.174 -0.0831  0.1152 -0.1320
19390W        W20254  10.712   7.637   4.813  0.3139 -0.1341  0.2246
19391W        W20255  12.179   6.728   8.795 -0.2205 -0.1044  0.1767
19392W        W20256   2.357   6.927   3.896  0.2330  0.2320  0.0204
19393W        W20257  12.356   7.721   5.225  0.1857  0.1072 -0.0244
19394W        W20258  13.202   3.484   4.999  0.1071 -0.2264 -0.0058
19395W        W20259  10.863   5.200   3.716  0.0701 -0.0544 -0.0019
19396W        W20260  13.221   6.712   3.714  0.1415  0.3905  0.2752
19397W        W20261  11.522   5.825   8.109  0.1615 -0.0679  0.1763
19398W        W20262   8.093   5.452   7.854  0.0382 -0.0634  0.1299
19399W        W20263  13.086   3.769   7.086  0.0807 -0.0687  0.0701
19400W        W20264   1.216   5.148   5.075  0.1579 -0.1316 -0.0121
19401W        W20265  12.625   4.277   2.034 -0.1526  0.2201 -0.1668
19402W        W20266  11.940   8.243   8.491  0.1041 -0.2642  0.1099
19403W        W20267  12.897   5.223   4.754 -0.1977 -0.1569 -0.0269
19404W        W20268  10.092   6.523   7.297  0.0949 -0.0783 -0.0692
19405W        W20269  11.715   4.663   3.103  0.1236  0.0976 -0.0263
19406W        W20270  11.918   5.771   7.337  0.1169  0.1054 -0.0550
19407W        W20271  11.924   4.647   8.095 -0.0340  0.0928 -0.2307
19408W        W20272  11.289   7.802   5.566  0.0347 -0.0240 -0.2072
19409W        W20273   0.027   8.786   7.825 -0.2549  0.2806 -0.2725
19410W        W20274  10.898   7.421   7.666  0.3330  0.4427  0.0166
19411W        W20275  12.025   2.613   4.788  0.0429 -0.2332 -0.2228
19412W        W20276  13.297   6.133   8.117 -0.0130  0.1284  0.3947
19413W        W20277  12.680   6.062   4.713  0.5688  0.1836  0.0343
19414W        W20278  12.885   6.705   6.380  0.0250  0.2438  0.0990
19415W        W20279  11.690   6.843   7.323  0.0258 -0.0676 -0.0925
19416W        W20280   0.102   7.553   7.130 -0.1689 -0.1500 -0.3493
19417W        W20281  13.756   7.103   7.758 -0.0006  0.0663  0.3768
19418W        W20282   0.349   5.902   6.284 -0.2634  0.0228 -0.2148
19419W        W20283  13.149   7.284   7.583  0.0040 -0.0907 -0.1522
19420W        W20284  11.922   3.205   7.612 -0.1586  0.2463  0.0469
19421W        W20285  12.558   5.057   6.216  0.4326 -0.0646 -0.3247
19422W        W20286  11.523   7.938   7.116 -0.0018  0.4119  0.0311
19423W        W20287   2.181   5.457   3.087  0.1584 -0.2098 -0.2260
19424W        W20288  13.815   7.506   3.457  0.2020  0.4127  0.0169
19425W        W20289  13.088   8.922   5.748 -0.1327 -0.0362 -0.0531
19426W        W20290   8.992   5.994   6.974 -0.1216  0.0235 -0.0271
19427W        W20291  10.388   7.578   4.005  0.1492  0.0103  0.0626
19428W        W20292  11.237   4.241   6.341 -0.0546  0.3638  0.0077
19429W        W20293   0.779   3.904   5.492 -0.2775  0.3209  0.0799
19430W        W20294  12.783   7.193   5.937  0.1871  0.1473  0.3565
19431W        W20295  12.758   9.244   5.641 -0.0795  0.0601 -0.0859
19432W        W20296  12.707   5.441   3.374  0.1771 -0.0196 -0.1146
19433W        W20297  13.093   7.034   8.547 -0.0707 -0.0630 -0.0338
19434W        W20298   0.044   4.973   3.315 -0.1745 -0.1247  0.0669
19435W        W20299  10.383   4.763   5.511 -0.0884 -0.2425 -0.3268
19436W        W20300  11.724   5.955   6.905 -0.0210 -0.1007 -0.1061
19437W        W20301   0.026   3.197   3.988  0.0638 -0.1912  0.0833
19438W        W20302  14.009   7.141   5.670  0.6128 -0.2180 -0.5444
19439W        W20303  10.784   7.717   6.428 -0.0206 -0.0865 -0.0560
19440W        W20304  13.760   6.329   4.201  0.0158 -0.2295  0.1155
19441W        W20305  10.279   6.833   6.967 -0.0357 -0.1030 -0.0620
19442W        W20306  10.000   6.658   7.764 -0.1787 -0.2892 -0.3141
19443W        W20307  11.739   4.750   5.293 -0.2728 -0.1854  0.3227
19444W        W20308   1.037   3.476   7.859  0.1534 -0.1414 -0.0344
19445W        W20309  10.644   6.031   3.346  0.0580  0.1753  0.0548
19446W        W20310  11.144   6.547   5.860 -0.1647 -0.1725 -0.1667
19447W        W20311   9.667  10.165   5.218  0.0439 -0.0500  0.0283
19448W        W20312  12.481   5.374   5.400  0.0180 -0.0745 -0.0584
19449W        W20313   0.942   7.315   5.800 -0.2505 -0.1238 -0.0261
19450W        W20314  12.827   7.108   4.154  0.1352 -0.0456 -0.0730
19451W        W20315   1.654   2.346   5.170  0.3210  0.0647  0.0015
19452W        W20316   1.414   8.693   4.969  0.1599 -0.2536 -0.1201
19453W        W20317   9.518   3.596   6.467  0.2241  0.0839 -0.2009
19454W        W20318  11.488   4.989   8.319 -0.3827  0.2395  0.0606
19455W        W20319  11.751   5.110   1.024 -0.0937  0.2952 -0.1077
19456W        W20320   0.588   8.655   4.153 -0.3200 -0.2382  0.3577
19457W        W20321  12.308   7.630   7.022 -0.2194 -0.0724  0.1043
19458W        W20322  13.774   6.896   7.194 -0.3515 -0.0552 -0.1003
19459W        W20323  12.139   5.635   6.890  0.1230  0.1941 -0.0771
19460W        W20324  13.770   5.365   4.158 -0.0498  0.1878 -0.0961
19461W        W20325  11.700   4.218   7.202 -0.0630  0.2275 -0.3190
19462W        W20326  12.383   5.814   3.056 -0.0933  0.1717 -0.0742
19463W        W20327  12.938   4.806  10.186 -0.2117  0.0984 -0.0829
19464W        W20328   2.487   5.723   6.952  0.0199 -0.2694 -0.2543
19465W        W20329  12.769   4.224   3.454  0.0225  0.0390  0.1208
19466W        W20330  12.355   5.174   4.666 -0.1386 -0.0687 -0.2435
19467W        W20331  12.161   9.955   5.863  0.1345 -0.0539 -0.4672
19468W        W20332  10.811   6.475   5.467 -0.1969  0.3506 -0.0678
19469W        W20333  12.306   4.336   7.498 -0.0584  0.0409 -0.2993
19470W        W20334  13.590   4.514   4.529 -0.2384 -0.4605 -0.0106
19471W        W20335  10.927  10.106   6.010  0.0451 -0.2676 -0.1487
19472W        W20336  11.225   7.586   4.848  0.0308  0.0686  0.1670
19473W        W20337  11.211   4.691   5.515 -0.1593  0.4003  0.1420
19474W        W20338  13.334   3.629   5.618 -0.2115 -0.0315  0.2243
19475W        W20339  13.293   6.502   7.206  0.3809  0.0425 -0.1059
19476W        W20340  12.445   5.436   1.894 -0.1662  0.1056 -0.0710
19477W        W20341  11.286   4.999   6.849  0.0105 -0.2429 -0.0594
19478W        W20342  12.166   4.103   5.912  0.4065  0.2102  0.1144
19479W        W20343  12.044   6.489   6.153 -0.0730  0.0620 -0.0888
19480W        W20344  12.910   3.915   5.409 -0.2042 -0.0800 -0.1987
19481W        W20345  11.832   8.885   3.864 -0.0586  0.1832 -0.4826
19482W        W20346  13.867   6.804   6.043  0.1906 -0.1121 -0.0082
19483W        W20347  13.161   4.570   3.510  0.0324 -0.2222 -0.0457
19484W        W20348  11.883   7.127   9.691  0.1080 -0.3584  0.2291
19485W        W20349  11.494   5.647   7.519 -0.2093  0.1140  0.0805
19486W        W20350  12.095   6.171   4.985  0.0352 -0.1108 -0.0187
19487W        W20351  11.807   3.397   4.483  0.1117  0.1305 -0.2201
19488W        W20352   1.558   6.612   4.032 -0.3592 -0.1314 -0.1114
19489W        W20353  13.263   5.689   7.928  0.1829 -0.0486 -0.1215
19490W        W20354   1.292   5.324   2.460  0.0454  0.0018  0.1678
19491W        W20355  11.334   8.059   5.054 -0.3276  0.0569  0.0760
19492W        W20356  10.983   4.911   7.326  0.1484 -0.0055 -0.0591
19493W        W20357  12.192   6.708   4.252 -0.1067  0.1319 -0.1336
19494W        W20358  13.572   9.754   5.506  0.0331  0.0707 -0.3407
19495W        W20359   0.314   8.299   8.621 -0.1401  0.1650 -0.3731
19496W        W20360  13.341   4.089   5.741 -0.1554  0.0311  0.1448
19497W        W20361  12.097   6.948   8.184 -0.2056 -0.2677  0.2942
19498W        W20362   1.632   8.251   4.870 -0.0705 -0.0709 -0.3700
19499W        W20363  11.586   6.700   6.040 -0.0823 -0.0425 -0.1026
19500W        W20364  13.202   4.138   3.217 -0.0752  0.1506 -0.1808
19501W        W20365  13.727   9.729   6.096  0.1291  0.2098 -0.1310
19502W        W20366  13.212   9.516   4.870  0.0924 -0.1572 -0.1365
19503W        W20367  11.060   5.277   4.191 -0.2588  0.0163  0.0631
19504W        W20368  13.754   3.457   3.383  0.0439  0.2012 -0.0028
19505W        W20369  13.284   5.417   4.996  0.1357  0.0008  0.1145
19506W        W20370  13.546   4.606   5.638  0.1992 -0.0323  0.2565
19507W        W20371  11.648   4.496   3.703 -0.2752 -0.0783 -0.0867
19508W        W20372  11.353   5.147   4.604  0.1175  0.1850  0.1663
19509W        W20373   0.152   3.563   4.872  0.1566 -0.1829 -0.2136
19510W        W20374  12.919   9.727   5.787  0.1256  0.0231 -0.2473
19511W        W20375  13.450   7.502   6.324  0.0788  0.2825  0.1588
19512W        W20376  10.475   7.521   5.222 -0.1464  0.1433 -0.2045
19513W        W20377   9.645   2.197   5.853 -0.3414  0.1017  0.0796
19514W        W20378  13.359   6.838   7.588 -0.2449  0.3057  0.1967
19515W        W20379  10.358   1.299   4.630 -0.0571 -0.3234 -0.3916
19516W        W20380  13.492   7.988   5.447  0.4114  0.3442 -0.1652
19517W        W20381   2.869   6.075   2.355 -0.2130 -0.2864  0.0167
19518W        W20382  11.122   5.447   4.973 -0.1267 -0.1584 -0.0620
19519W        W20383  11.593   6.889   4.107  0.1126 -0.0513 -0.1572
19520W        W20384  12.595   6.389   2.856 -0.1247  0.0159 -0.1584
19521W        W20385  12.089   3.090   5.054  0.1560  0.1478 -0.3899
19522W        W20386  12.962   6.527   8.814  0.1231  0.1763  0.2462
19523W        W20387   0.231   8.089   6.782  0.0093 -0.0350  0.0948
19524W        W20388   0.559   3.599   8.091  0.1263  0.1134 -0.0297
19525W        W20389   0.295   4.169   6.858 -0.3066 -0.2727  0.1995
19526W        W20390   9.431   5.152   8.625  0.4241  0.2715  0.0206
19527W        W20391  13.372   6.621   6.345  0.1446 -0.1720  0.0816
19528W        W20392  13.082   5.676   4.614  0.1446 -0.0907  0.1458
19529W        W20393  10.254   6.485   5.558  0.2675  0.2183  0.4460
19530W        W20394  11.135   7.504   6.082  0.0220  0.2444  0.2998
19531W        W20395  11.790   4.184   5.496 -0.1715  0.2504  0.0330
19532W        W20396   1.962   5.210   3.700 -0.0061 -0.0348 -0.4353
19533W        W20397   2.924   3.722   8.040  0.0021  0.2847  0.0293
19534W        W20398   0.064   2.239   5.304 -0.0124 -0.1241 -0.2397
19535W        W20399  12.804   4.611   3.901 -0.0861  0.0372  0.1631
19536W        W20400  12.643   4.839   3.393  0.1864  0.0088  0.0078
19537W        W20401  10.913   8.926   6.177  0.1347 -0.0135  0.0362
19538W        W20402  10.985   7.210   9.838  0.1277 -0.1551 -0.0512
19539W        W20403  12.289   8.819   4.421 -0.0033  0.2840  0.0001
19540W        W20404  13.431   6.070   3.022 -0.1611  0.0324 -0.1204
19541W        W20405  13.455   7.110   4.966 -0.2154 -0.3140  0.0043
19542W        W20406   0.247   4.979   2.847  0.0595 -0.3859  0.3719
19543W        W20407  10.692   2.393   3.890  0.4767  0.3337 -0.1254
19544W        W20408  11.696   3.319   5.401 -0.0014  0.0561 -0.1567
19545W        W20409   0.847   7.134   6.541  0.0031  0.2541 -0.1974
19546W        W20410   9.070   2.536   3.904 -0.1944 -0.1811 -0.1983
19547W        W20411  13.923   7.724   5.995 -0.0149 -0.1966 -0.4204
19548W        W20412  10.410   5.645   3.029 -0.5235 -0.2355  0.0006
19549W        W20413  11.907   8.457   4.312  0.1830  0.1748 -0.1169
19550W        W20414  11.313   8.413   4.555  0.0582 -0.0701  0.1242
19551W        W20415  10.202   5.664  10.864  0.0267  0.0215 -0.1919
19552W        W20416  11.979   3.828   7.973 -0.2138 -0.2572  0.1317
19553W        W20417   0.190   8.523   5.221 -0.0695  0.1236 -0.1176
19554W        W20418   0.117   4.924   7.187  0.0111 -0.0195 -0.0066
19555W        W20419  13.523   2.186   4.718  0.0614  0.6461 -0.3914
19556W        W20420  11.955   7.459   5.401 -0.0449 -0.0446  0.1072
19557W        W20421  12.066   3.115   5.635  0.2561  0.0967  0.2388
19558W        W20422  13.061   6.153   5.626  0.2715  0.1109 -0.2776
19559W        W20423  12.898   5.888   3.104  0.0519 -0.1917 -0.1012
19560W        W20424   0.452   2.897   3.802 -0.0283  0.1160 -0.1066
19561W        W20425  12.395   5.849   8.057 -0.4540 -0.0681  0.0386
19562W        W20426  10.828   4.262   4.376 -0.1786  0.3483 -0.0178
19563W        W20427  13.562   6.252   6.735  0.1335  0.4082  0.1127
19564W        W20428  12.984   4.866   5.727  0.1352 -0.2123 -0.1454
19565W        W20429  13.786   7.087   4.325  0.0477 -0.0843  0.3876
19566W        W20430  10.469   8.058   4.978  0.0814 -0.1617 -0.0572
19567W        W20431  13.233   7.554   5.810 -0.0723 -0.1697 -0.1814
19568W        W20432   1.112   3.913   7.606 -0.3873 -0.1006 -0.0402
19569W        W20433  13.591   5.619   4.721  0.1364  0.0389  0.2226
19570W        W20434  13.675   1.460   5.946 -0.0905  0.0221 -0.2030
19571W        W20435   0.062   5.917   3.578  0.1938  0.1053  0.0100
19572W        W20436  13.122   5.825   3.576 -0.2913  0.0417 -0.0627
19573W        W20437  12.393   5.189   7.608  0.1041  0.2892  0.0902
19574W        W20438  11.567   3.530   9.689 -0.1106  0.1446  0.0004
19575W        W20439   9.928   8.416   7.017  0.2447  0.1730  0.3037
19576W        W20440   0.277   3.824   4.077  0.0365  0.1943  0.1590
19577W        W20441  13.817   7.495   4.665  0.1502 -0.2202 -0.1545
19578W        W20442  10.053   2.791   6.526  0.1610  0.1906  0.1059
19579W        W20443  11.716   7.356   8.095  0.0319 -0.0749 -0.2003
19580W        W20444  12.184   7.202   5.795  0.1411 -0.0014  0.0665
19581W        W20445  11.882   6.543   5.303  0.2205 -0.0762 -0.0849
19582W        W20446  10.660   4.213   6.229  0.1186  0.1016 -0.1917
19583W        W20447  13.317   6.467   4.373  0.3426 -0.2508  0.0414
19584W        W20448   0.198   5.650   4.063 -0.1723  0.0937  0.0126
19585W        W20449  12.030   6.038   3.740  0.0899 -0.0273  0.0027
19586W        W20450  12.306   6.823   6.596 -0.1806 -0.0507  0.0435
19587W        W20451   1.613   3.766   6.738 -0.0917 -0.0299 -0.0264
19588W        W20452  12.796   6.617   4.342  0.1207 -0.0972  0.0370
19589W        W20453  12.652   8.126   5.392  0.1190 -0.1929  0.1930
19590W        W20454   0.738   6.934   1.945 -0.0482 -0.0298 -0.1009
19591W        W20455  11.133   8.030  10.364  0.1042  0.1113  0.1293
19592W        W20456  11.167   7.097   7.293 -0.0634  0.3096 -0.1370
19593W        W20457  11.377   3.758   6.478 -0.3373  0.0063  0.3135
19594W        W20458   0.812   3.575   7.303  0.1195  0.1958  0.3257
19595W        W20459  13.484   6.073   6.233 -0.2955 -0.0942 -0.1413
19596W        W20460  11.892   4.860   6.754 -0.1516  0.1844  0.1566
19597W        W20461  10.474   4.462   4.791 -0.1585  0.2659  0.2455
19598W        W20462   0.375   5.358   3.144  0.3875 -0.1304  0.5112
19599W        W20463   0.572   4.637   3.744  0.1158 -0.0326 -0.0096
19600W        W20464  13.834   4.921   5.856 -0.2450 -0.0735  0.1646
19601W        W20465  12.762   5.981   7.212 -0.0247 -0.2884  0.0438
19602W        W20466   8.633   4.373   6.923 -0.0739  0.0815 -0.1041
19603W        W20467   0.347   1.824   5.278 -0.0753  0.1038 -0.2445
19604W        W20468   2.584   4.924   2.945 -0.1024  0.0130  0.2195
19605W        W20469   1.752   5.685   3.716  0.0971  0.1128 -0.0393
19606W        W20470  12.133   5.569   5.043  0.0581 -0.0741 -0.1444
19607W        W20471  12.369   5.735   6.283  0.0815 -0.0144  0.1012
19608W        W20472  11.170   8.407   5.935  0.0065  0.2589 -0.2865
19609W        W20473  13.970   5.799   4.465  0.0118 -0.0643  0.0161
19610W        W20474   1.639   9.459   4.190 -0.2095 -0.1793 -0.1424
19611W        W20475  13.717  10.745   9.211 -0.1752 -0.1947 -0.1247
19612W        W20476  13.123   8.192   5.026  0.1207 -0.3336 -0.0596
19613W        W20477   0.910   7.925   5.197 -0.0279 -0.1686 -0.0200
19614W        W20478  11.097   6.521   9.366 -0.0278  0.0788  0.0030
19615W        W20479  13.974   6.837   2.721  0.1181  0.1132 -0.0504
19616W        W20480  13.647   6.594   5.692 -0.3569 -0.2156  0.0914
19617W        W20481  13.762   6.676   3.773 -0.0532  0.2489 -0.1346
19618W        W20482  13.930   6.316   6.048  0.0415 -0.0125  0.0253
19619W        W20483   3.755  10.001   9.111 -0.1173  0.0223  0.2978
19620W        W20484   2.217   1.044   8.410  0.1305  0.3413 -0.0148
19621W        W20485  12.895   3.868   5.943 -0.0318 -0.2009 -0.0505
19622W        W20486   9.395   6.720   6.749 -0.0824  0.0066  0.0214
19623W        W20487  11.846   5.843   4.218 -0.1410 -0.0226  0.2184
19624W        W20488  12.257   8.469   8.039 -0.1921 -0.1613  0.1526
19625W        W20489  13.092   6.741   5.841 -0.0969  0.1883 -0.1419
19626W        W20490  11.959   2.392   3.003 -0.1137 -0.2148 -0.0974
19627W        W20491  13.426   4.814   7.448 -0.0911  0.4524 -0.2618
19628W        W20492  10.500   5.957  10.601  0.2048  0.0151 -0.0377
19629W        W20493   1.508   5.326   4.618 -0.0566  0.0112 -0.6362
19630W        W20494  11.761   5.372   5.962  0.0075 -0.1613  0.0426
19631W        W20495  11.762   6.026   5.359  0.1926 -0.0190 -0.2379
19632W        W20496  11.739   5.655   6.500  0.1148  0.0162  0.0589
19633W        W20497  11.602   4.207   3.267  0.2514 -0.0363 -0.0866
19634W        W20498  10.039   5.195   4.770  0.0314  0.0376 -0.0749
19635W        W20499  12.275   7.345   6.669 -0.1117  0.0718  0.1621
19636W        W20500   1.422   4.295   1.873 -0.0563  0.2074 -0.0817
19637W        W20501   9.829   5.517   6.504 -0.0046 -0.2442  0.1681
19638W        W20502   9.618   5.628   5.452  0.1815  0.1601  0.1412
19639W        W20503   9.847   4.153   4.112 -0.1563 -0.0514  0.3152
19640W        W20504  12.849   2.177   7.209 -0.0203  0.1823 -0.2239
19641W        W20505  12.950   9.034   8.532  0.1346  0.1107  0.2362
19642W        W20506  12.685   3.426   2.366 -0.1519 -0.0935  0.0662
19643W        W20507   0.569   7.058   5.555  0.2207 -0.0145  0.1795
19644W        W20508   0.167   7.072   7.365  0.1663 -0.0009 -0.1469
19645W        W20509  11.909   5.878   5.989 -0.0669 -0.3011 -0.0712
19646W        W20510   0.741   4.315   4.097  0.3017 -0.0249  0.2402
19647W        W20511   8.504   4.312   6.420  0.1754  0.2902 -0.0579
19648W        W20512  12.748   5.891   9.469  0.0258  0.0475  0.2347
19649W        W20513  10.243   5.378   7.793  0.0801 -0.2354 -0.1502
19650W        W20514  11.886   4.272   5.033 -0.0546 -0.0666 -0.2173
19651W        W20515  12.641   5.619   4.432  0.1847  0.3404  0.1702
19652W        W20516  12.288   5.666   4.005  0.0729  0.2895  0.0992
19653W        W20517  12.422   7.356   6.173 -0.1848 -0.1962  0.0792
19654W        W20518  11.343   5.303   3.729 -0.0847  0.0871 -0.1653
19655W        W20519   0.580   3.493   4.478  0.1045 -0.0584  0.2093
19656W        W20520  10.821   7.444   7.167 -0.0192  0.0444  0.1549
19657W        W20521  11.758   5.961   4.696 -0.0317  0.2087 -0.0361
19658W        W20522  11.907   8.131   6.711 -0.0498  0.0038  0.1268
19659W        W20523  12.110   7.954   8.096 -0.1929  0.1319 -0.1245
19660W        W20524  13.289   7.748   4.243 -0.2180  0.1482 -0.0049
19661W        W20525  10.986   8.198   7.136  0.2041 -0.1173  0.0595
19662W        W20526  10.570   9.098   6.540  0.0626 -0.0550 -0.0691
19663W        W20527   9.484   2.329   3.723  0.2873  0.1644  0.0602
19664W        W20528   9.568   6.636   3.167 -0.1882 -0.0895 -0.0467
19665W        W20529  13.383   7.046   2.138  0.3070  0.0230 -0.2535
19666W        W20530  10.641   5.623   4.141 -0.2016 -0.1852  0.1984
19667W        W20531  13.170   3.405   6.060 -0.0069  0.3542 -0.2992
19668W        W20532   0.962   7.293   7.794 -0.2352  0.1248  0.4068
19669W        W20533  13.205   7.165   6.653  0.0851  0.0614  0.1926
19670W        W20534  12.897   2.968   2.932  0.0368  0.3814  0.0092
19671W        W20535  10.790   7.246   2.654  0.3928 -0.1508 -0.1067
19672W        W20536   0.356   8.954   5.580 -0.1605  0.1538  0.1128
19673W        W20537  12.812   5.065   8.394 -0.3462  0.1109 -0.1790
19674W        W20538   0.419   1.788   5.765 -0.1790 -0.1059  0.0283
19675W        W20539  10.831   6.210   5.027 -0.1938  0.0857  0.1295
19676W        W20540  11.960   6.591   6.938  0.0917 -0.2023 -0.0356
19677W        W20541  11.396   7.662   6.477 -0.3882 -0.0359  0.0788
19678W        W20542   9.149   7.461   5.366 -0.1299  0.1802 -0.0804
19679W        W20543  11.133   2.814   5.020  0.2246 -0.0718  0.3989
19680W        W20544  12.175   8.241   4.635  0.0511 -0.0847 -0.1015
19681W        W20545  13.206   3.016   4.096 -0.0786  0.1328  0.0440
19682W        W20546  11.987   6.337   4.544 -0.2308 -0.0712  0.0280
19683W        W20547   1.845   1.835   3.183 -0.2910 -0.1318  0.0795
19684W        W20548  10.012   6.167   5.172 -0.0516 -0.2876  0.0635
19685W        W20549   0.502   8.830   3.585 -0.3014 -0.1677 -0.2675
19686W        W20550  12.239   4.698   2.936  0.1940  0.1382 -0.0145
19687W        W20551  13.207   6.726   5.274  0.0180  0.0906 -0.1212
19688W        W20552  12.883   6.095   4.290  0.0083  0.1861 -0.0249
19689W        W20553   9.568   2.336   4.622  0.2959 -0.0778 -0.2452
19690W        W20554  11.288   5.146   1.100 -0.2765 -0.0921 -0.0255
19691W        W20555  11.260   4.415   4.544  0.0007 -0.0103 -0.0505
19692W        W20556   1.445   4.875   7.214 -0.2624 -0.0832 -0.2561
19693W        W20557  13.527   7.116   5.772  0.0081  0.2327  0.0485
19694W        W20558  12.931   3.962   2.799 -0.1420 -0.1954  0.0841
19695W        W20559  10.364   7.119   4.912 -0.2656 -0.1292  0.0867
19696W        W20560   0.016   8.623   5.786  0.0511 -0.2110  0.1277
19697W        W20561   1.645   6.892   6.699 -0.1982 -0.0780  0.0272
19698W        W20562  11.267   7.243   5.719  0.2417 -0.2940 -0.1775
19699W        W20563  11.206   6.866   2.544 -0.0577 -0.0201  0.1813
19700W        W20564   1.209   7.733   5.562  0.3437 -0.0641  0.3969
19701W        W20565  13.337   5.294   4.453  0.2019  0.1724  0.0680
19702W        W20566  12.903   3.377   7.340 -0.0096 -0.0606  0.0899
19703W        W20567  12.577   5.501   7.228 -0.0259  0.0327 -0.2982
19704W        W20568  13.580   3.541   6.351 -0.1515  0.0524  0.4168
19705W        W20569   9.306   5.486   4.764  0.1060  0.0959 -0.0208
19706W        W20570  12.966   7.914   8.215  0.2074  0.0118  0.0500
19707W        W20571  11.318   5.547   6.100  0.1557  0.0408  0.3776
19708W        W20572  10.274   7.432   7.262 -0.0572  0.1417 -0.0913
19709W        W20573  12.458   6.787   6.099  0.0326 -0.0601 -0.2717
19710W        W20574  12.930   4.824   6.516 -0.0694  0.0054  0.3967
19711W        W20575  13.191   4.356   4.264  0.1549 -0.1219  0.1196
19712W        W20576   0.289   8.153   4.905 -0.1578 -0.0221  0.0849
19713W        W20577   2.120   8.155   6.526 -0.0643  0.1024 -0.0559
19714W        W20578  12.052   8.015   7.155 -0.5634 -0.2370  0.1043
19715W        W20579   2.107   6.551   4.240 -0.3742  0.1197 -0.1520
19716W        W20580  13.950   7.704  10.361 -0.0769 -0.0461  0.1772
19717W        W20581  11.023   7.287   6.566 -0.0253  0.2855  0.1988
19718W        W20582   0.093   4.982   5.120 -0.1514 -0.3722 -0.0442
19719W        W20583   0.616   4.909   7.907  0.0400 -0.0742  0.2787
19720W        W20584  10.913   7.252   5.113  0.2685  0.1176  0.1857
19721W        W20585  10.206   2.871   7.963 -0.0887  0.1320 -0.2493
19722W        W20586   2.447   4.454   2.232  0.2449 -0.1193 -0.3392
19723W        W20587   0.583   4.945   5.236  0.2219  0.0301 -0.4115
19724W        W20588  11.537   8.456   2.622  0.0721  0.1595  0.2926
19725W        W20589  12.224   4.031   1.749 -0.0575 -0.0719 -0.0779
19726W        W20590   8.401   9.733  10.225 -0.2023  0.2245  0.0562
19727W        W20591  10.095   8.470  13.131  0.2946 -0.0520 -0.0886
19728W        W20592  13.161   7.200  10.385 -0.1344 -0.2192  0.2409
19729W        W20593  13.437   8.212   7.299  0.1783  0.0639 -0.1121
19730W        W20594  11.372   5.884   5.698 -0.2343  0.1297  0.4554
19731W        W20595  11.753   2.710  10.173  0.3778 -0.4331 -0.0119
19732W        W20596  11.684   6.677   9.468  0.1581  0.1107 -0.4993
19733W        W20597  11.521   8.356   8.887 -0.0853  0.2296  0.0329
19734W        W20598   9.750   4.888  11.826  0.0295 -0.1452 -0.2247
19735W        W20599   9.677   4.054   8.237  0.0124 -0.2041 -0.0638
19736W        W20600  13.475   6.830  10.412 -0.0762  0.1198  0.1083
19737W        W20601  13.085   6.227   9.340  0.0935 -0.0802  0.3873
19738W        W20602   0.695   5.660  12.551 -0.1675 -0.0962  0.0856
19739W        W20603   8.607   3.670  10.718  0.0593 -0.0471 -0.0523
19740W        W20604   9.250   7.864   9.787  0.1527  0.0928 -0.2274
19741W        W20605  10.698   4.248   8.289  0.3935 -0.2077 -0.0569
19742W        W20606  10.658   4.516   8.701 -0.0366 -0.1371  0.1490
19743W        W20607   0.708   6.342  11.677 -0.1148 -0.0064  0.2117
19744W        W20608  11.463   3.968   7.583  0.0711  0.0608  0.0417
19745W        W20609  11.423   6.214   9.788 -0.0801 -0.3868  0.1017
19746W        W20610   8.056   3.801  10.709 -0.1803 -0.1644 -0.0350
19747W        W20611  10.207   5.621   8.642 -0.1372  0.1884  0.2584
19748W        W20612  11.312   4.490  10.553 -0.1501 -0.1524 -0.1782
19749W        W20613  11.674   8.057   9.324 -0.1655  0.0115  0.2602
19750W        W20614  10.613   4.924   9.835 -0.0480  0.3063 -0.1302
19751W        W20615  12.589   4.393   6.889 -0.0145  0.0835  0.0541
19752W        W20616  10.762   9.027   7.224 -0.0739 -0.3234 -0.3663
19753W        W20617   1.088   6.832  11.878 -0.1109  0.3709 -0.2572
19754W        W20618  10.584   7.047   8.871 -0.0778  0.0673  0.1462
19755W        W20619  11.544   4.322  10.147  0.2862 -0.0949 -0.4122
19756W        W20620  10.461   3.896  11.330  0.0159  0.0194  0.2669
19757W        W20621   9.307   1.811   8.589 -0.1132 -0.0354 -0.1108
19758W        W20622  10.326   6.052   8.518  0.3023  0.1751 -0.1030
19759W        W20623  12.435   3.835   7.767 -0.0756  0.1941  0.1180
19760W        W20624   0.781   2.597   8.939  0.3695  0.1226  0.0078
19761W        W20625  12.171   7.477   9.339  0.2435  0.0757  0.3616
19762W        W20626   9.658   8.806   7.802  0.0180 -0.1566 -0.4404
19763W        W20627  10.269   8.485   8.495  0.0871  0.0089  0.0069
19764W        W20628  10.813   3.734   9.711 -0.2852  0.0222 -0.1743
19765W        W20629  12.466   5.377   9.564  0.3054  0.1626 -0.0902
19766W        W20630   9.805   4.599   6.879  0.1175  0.0198  0.1681
19767W        W20631  10.448   3.368   7.921 -0.1858 -0.0039 -0.4120
19768W        W20632  13.306   8.511   9.900  0.0212  0.0215 -0.0665
19769W        W20633  11.649   9.403   8.501 -0.0261  0.0417 -0.1838
19770W        W20634  11.132   2.999   6.751 -0.1399 -0.2867  0.0662
19771W        W20635   9.636   8.770   9.666 -0.0814 -0.0957  0.1062
19772W        W20636  11.039   3.924   8.234  0.3458 -0.0083 -0.0709
19773W        W20637   0.308   3.599   7.075  0.1164 -0.1558  0.0108
19774W        W20638  10.353   7.161  11.098 -0.0515 -0.0437 -0.0881
19775W        W20639  10.404   5.653   9.170  0.2888  0.0966 -0.3528
19776W        W20640  10.522   7.690  11.042 -0.1570 -0.1092 -0.0959
19777W        W20641  11.463   7.445  10.506 -0.0762 -0.2780 -0.0185
19778W        W20642  11.936   7.029   9.186  0.0769  0.0125 -0.0259
19779W        W20643  13.348   2.445   7.133 -0.0214 -0.2669  0.0500
19780W        W20644  12.422   5.947   5.321  0.1811 -0.1517 -0.2640
19781W        W20645  11.012   5.037   8.601 -0.0262 -0.1580 -0.0198
19782W        W20646   8.895   9.403   8.057  0.1439  0.2550  0.3458
19783W        W20647  10.439   4.402   7.853  0.0746 -0.1266  0.1710
19784W        W20648  13.144   7.997  11.877  0.2490  0.2835  0.1470
19785W        W20649  12.691   4.420   5.144 -0.3293 -0.0818  0.2055
19786W        W20650   0.354   6.974  10.609  0.1281  0.4216 -0.0033
19787W        W20651  10.736   6.694   8.400 -0.1165 -0.1068 -0.0278
19788W        W20652   9.932   6.076  10.536 -0.3507 -0.1537 -0.1600
19789W        W20653   2.109   9.888   9.877 -0.3292  0.0542 -0.0991
19790W        W20654  12.198   5.103   9.874  0.2020 -0.1392 -0.0403
19791W        W20655  13.354   5.986   7.153  0.2638  0.1164  0.2889
19792W        W20656  11.420   6.715   9.047  0.2528 -0.3019 -0.1787
19793W        W20657  10.737   8.631   9.617 -0.2554 -0.3127  0.0601
19794W        W20658  10.473   1.410   9.364 -0.0237 -0.0486  0.1433
19795W        W20659  12.157   5.507   8.589 -0.2890 -0.1418  0.2881
19796W        W20660  13.676   3.149   8.757  0.1302  0.2310 -0.2451
19797W        W20661   0.200   3.811   8.459  0.0020 -0.2119 -0.0940
19798W        W20662  13.116   3.174   9.589  0.2773 -0.0962  0.1543
19799W        W20663  13.732   5.433   8.042 -0.1318  0.1388 -0.1565
19800W        W20664  12.815   6.234   5.229 -0.1953  0.1011 -0.0697
19801W        W20665  13.517   7.909  12.739  0.0570 -0.1066  0.0835
19802W        W20666  12.897   8.062  11.331  0.2433  0.1042  0.1017
19803W        W20667   1.014   6.757   8.539 -0.0225  0.2143  0.0291
19804W        W20668  12.780   5.376  11.589 -0.0059  0.0973 -0.1982
19805W        W20669   0.819   3.105   7.393  0.0068 -0.1292 -0.1154
19806W        W20670  13.272   7.108  12.922 -0.1628 -0.0416 -0.3427
19807W        W20671  11.968   1.662  10.057 -0.0666 -0.1823 -0.2401
19808W        W20672   8.992   5.082  10.793  0.0000 -0.1344 -0.1087
19809W        W20673   1.967   4.692   4.888 -0.4148 -0.3012 -0.1512
19810W        W20674  13.151   7.565  11.021 -0.0472  0.3948  0.4056
19811W        W20675  11.980   6.537   7.822 -0.3651 -0.1611  0.1988
19812W        W20676  13.483   5.988   9.426  0.1703  0.0166  0.1313
19813W        W20677  13.679   2.358   8.333 -0.1326 -0.0061  0.1577
19814W        W20678   9.037   4.650  11.031 -0.1953  0.1191 -0.2660
19815W        W20679   9.804   6.530   9.845 -0.0995  0.2057 -0.1736
19816W        W20680  13.024   8.411   9.040 -0.2240 -0.1062 -0.3556
19817W        W20681  11.813   6.446  10.805 -0.1875 -0.1765  0.0866
19818W        W20682  12.820   8.485   8.538 -0.0533 -0.1022  0.1174
19819W        W20683  13.110   7.381   9.876 -0.0902  0.0193  0.4227
19820W        W20684  12.825   6.242  11.111 -0.2009 -0.0131 -0.1802
19821W        W20685  13.113   5.527   7.446 -0.2164 -0.1074  0.1781
19822W        W20686  13.849   4.135   5.527 -0.0092 -0.0540 -0.1187
19823W        W20687  13.260   9.217   9.693  0.1720  0.0008  0.1176
19824W        W20688  12.687   8.101   9.358 -0.0927 -0.0944  0.0841
19825W        W20689  11.911   5.296   9.025  0.1263 -0.0665  0.2574
19826W        W20690   0.183   5.741   8.072  0.3214  0.2698  0.0087
19827W        W20691  11.931   5.052   8.601 -0.0632  0.0413 -0.0068
19828W        W20692  11.490   7.457   8.560 -0.2238 -0.1350 -0.1697
19829W        W20693  11.455   9.031   8.113  0.0939  0.1774  0.1538
19830W        W20694   2.233   6.883  11.551  0.0314 -0.2697 -0.1776
19831W        W20695   0.258   3.899   9.982 -0.1221 -0.1450  0.0619
19832W        W20696   1.726   9.458  11.414  0.2897 -0.1911 -0.1439
19833W        W20697  13.405   3.335   7.261 -0.0770 -0.2358 -0.1109
19834W        W20698  10.573   4.713   7.417  0.1308  0.0837 -0.0562
19835W        W20699   0.891   4.075   8.082  0.0852 -0.2238  0.0960
19836W        W20700  12.602   7.199   7.784 -0.0064  0.2921 -0.3500
19837W        W20701   0.330   9.584  10.684  0.0561 -0.0209  0.0578
19838W        W20702  12.961   3.627   8.049  0.0866  0.1876 -0.0020
19839W        W20703  11.485   2.284   8.534  0.0410 -0.0835  0.0465
19840W        W20704   8.585   7.908   6.773  0.1659  0.1343  0.2838
19841W        W20705  10.631   7.729   7.972  0.0240 -0.0657 -0.0032
19842W        W20706  10.786   8.455  10.725  0.1003  0.3639  0.0229
19843W        W20707  12.559   3.340   7.735  0.1235 -0.1807 -0.1593
19844W        W20708  13.185   2.816   8.000  0.1826 -0.0523  0.1763
19845W        W20709   1.110   9.881   9.689 -0.1889  0.0634 -0.2759
19846W        W20710  13.451   9.240  12.112 -0.0661 -0.3376 -0.0970
19847W        W20711  10.379   9.216   9.086 -0.0546 -0.2229  0.1022
19848W        W20712  12.890   3.040   4.879  0.1439 -0.2344 -0.2922
19849W        W20713  13.294   8.313   9.403 -0.1672 -0.2393  0.0171
19850W        W20714  12.150   4.084   7.004 -0.2853 -0.1233 -0.0112
19851W        W20715   9.295   5.716   9.817 -0.0857 -0.1975  0.2682
19852W        W20716  10.180   8.252   8.909  0.0534 -0.0282  0.1611
19853W        W20717  11.057   5.449   7.611 -0.1721 -0.1924  0.1821
19854W        W20718  11.638   7.761   7.626 -0.2345 -0.1654 -0.1452
19855W        W20719  12.893   1.272   6.729 -0.2981 -0.1905  0.0706
19856W        W20720  11.711   5.567  10.235 -0.0111 -0.0773 -0.1707
19857W        W20721  12.650   4.894  10.983 -0.0437  0.1481 -0.0364
19858W        W20722  11.406   8.591   8.455 -0.0393 -0.0601  0.1363
19859W        W20723  12.079   5.919  11.079 -0.2660  0.2846 -0.2886
19860W        W20724  12.546   5.602   9.112  0.4189  0.0642 -0.1125
19861W        W20725  12.056   3.636  12.186 -0.3782 -0.2589  0.0409
19862W        W20726  12.799   3.702   8.629  0.0603 -0.1859 -0.3032
19863W        W20727   8.126   5.992  10.389 -0.0852 -0.2520 -0.0920
19864W        W20728  10.558   7.912   9.037  0.0358  0.1103 -0.0245
19865W        W20729   0.456   7.178  11.080  0.0890  0.2312 -0.1879
19866W        W20730  10.885   4.077   6.660 -0.0486  0.2293 -0.3260
19867W        W20731  10.915   6.618  10.596  0.1638  0.3175 -0.1301
19868W        W20732  11.470   4.727   7.914 -0.2957  0.0009 -0.0430
19869W        W20733  11.214   3.442   9.343  0.0785  0.0737 -0.3193
19870W        W20734  12.661   6.911   8.774  0.0518  0.1380  0.0745
19871W        W20735   9.544   2.505   9.588  0.0234  0.1092  0.0650
19872W        W20736  11.209   9.653   8.740 -0.1341 -0.0818 -0.0100
19873W        W20737  11.600   6.957  10.362 -0.3662 -0.2957  0.1213
19874W        W20738  10.295   6.969   9.315 -0.3037  0.0542 -0.0894
19875W        W20739  13.876   2.548   8.798 -0.3386 -0.0707 -0.1359
19876W        W20740  10.813   7.126   9.312 -0.0080  0.4120  0.0033
19877W        W20741  12.624   5.379   6.651  0.2624 -0.2789  0.1299
19878W        W20742  13.602   4.551   5.061  0.0289  0.0339  0.0631
19879W        W20743  13.777   4.411   6.048 -0.2875 -0.1382 -0.0002
19880W        W20744  13.811   6.579  11.013  0.1812  0.2783 -0.1022
19881W        W20745  12.006   4.928   6.151 -0.1569  0.1538 -0.0830
19882W        W20746  10.203   4.418  10.265 -0.1309  0.1422  0.1031
19883W        W20747  11.289   6.997   9.497 -0.3941 -0.0594  0.0989
19884W        W20748  11.527   6.320   8.009 -0.0262 -0.0061 -0.0411
19885W        W20749  10.518   8.263  10.002 -0.0836 -0.2290 -0.1089
19886W        W20750  13.057   6.107  10.699  0.1260 -0.1908 -0.1663
19887W        W20751  12.734   3.927  12.184  0.1407 -0.3029 -0.0665
19888W        W20752  13.671   5.048   8.501  0.1007  0.0146  0.0240
19889W        W20753  12.409   3.538   8.197  0.1978 -0.2259 -0.0405
19890W        W20754   1.670   4.166   7.712 -0.0100  0.4321  0.0439
19891W        W20755   9.099   0.868   7.039  0.1302  0.0518 -0.0704
19892W        W20756  10.360   6.149   9.168 -0.2012  0.1286 -0.2276
19893W        W20757  13.301   4.217   9.627  0.4363  0.0076 -0.0715
19894W        W20758  13.695   5.023   6.614  0.0976 -0.1536 -0.0669
19895W        W20759  11.600   2.782   6.835  0.2375  0.0055  0.2768
19896W        W20760   0.697   5.229  10.924  0.0005 -0.2668  0.0588
19897W        W20761  10.680   3.349   7.075  0.0734 -0.1884 -0.1564
19898W        W20762  10.281   5.733   9.647  0.1784  0.0472  0.1438
19899W        W20763  12.247   5.831   9.447 -0.0113  0.4226  0.0474
19900W        W20764  11.595   7.917   8.587 -0.1404 -0.1668 -0.0188
19901W        W20765  12.484   6.931   7.010 -0.2207 -0.1458  0.0973
19902W        W20766  12.429   8.175   8.418 -0.0335  0.1630 -0.1582
19903W        W20767  10.530   4.050   9.411 -0.0589 -0.1044  0.0869
19904W        W20768  10.627   5.437   9.866 -0.0965  0.4227  0.1885
19905W        W20769  10.351   2.445   7.257 -0.0447  0.1110  0.3538
19906W        W20770  13.561   5.767   7.554  0.1263 -0.0992 -0.0156
19907W        W20771  13.925   6.067   6.456 -0.0580 -0.1743 -0.1670
19908W        W20772  13.084   4.329  10.084  0.0927 -0.2415 -0.0848
19909W        W20773  12.081   6.836  11.032 -0.2471  0.0380  0.2596
19910W        W20774  12.215   8.263  11.845 -0.1491 -0.1594  0.0657
19911W        W20775  13.870   3.587   7.311 -0.1823 -0.0797  0.1593
19912W        W20776  10.433   8.531   8.025 -0.2071 -0.2894  0.2956
19913W        W20777   9.758   4.797  11.262  0.0331  0.2290  0.1434
19914W        W20778  13.096   8.147  12.764 -0.1199 -0.0315  0.1702
19915W        W20779  13.909   8.941   8.504  0.1193  0.0513 -0.0740
19916W        W20780  13.812   5.527  10.460 -0.1374 -0.0074 -0.1550
19917W        W20781  11.505   4.961   0.654  0.2360  0.0988  0.1712
19918W        W20782  11.369   7.420   6.939 -0.5566  0.2416  0.3099
19919W        W20783  12.963   8.090   7.500  0.1994  0.1811  0.0646
19920W        W20784  11.007   4.237   9.649  0.1477 -0.3072  0.1185
19921W        W20785  12.603   6.312   9.626 -0.0963  0.1983  0.3846
19922W        W20786  11.419   3.113  10.928  0.5292 -0.1425  0.0850
19923W        W20787  12.197   7.233  10.665  0.2165 -0.0807  0.0789
19924W        W20788   0.890   5.874   8.541 -0.3223  0.1796 -0.0072
19925W        W20789  12.623   6.349   5.808  0.1105 -0.2671 -0.0459
19926W        W20790   0.133   8.376  11.318 -0.1739  0.0281  0.0268
19927W        W20791  12.142   2.549   9.168 -0.2683  0.0989  0.1542
19928W        W20792  12.566   3.614  11.668 -0.0465 -0.0790  0.0232
19929W        W20793  13.221   6.440   9.816  0.0809 -0.1699 -0.0867
19930W        W20794  12.641   7.140   9.977  0.0390  0.0336 -0.1539
19931W        W20795  10.873   8.164   9.656 -0.1249  0.0921  0.0054
19932W        W20796   0.303   6.081   5.755 -0.2632 -0.4062 -0.0158
19933W        W20797  12.685   4.368   5.646  0.1462 -0.0708  0.2659
19934W        W20798  10.874   5.374  11.411 -0.1172  0.2123 -0.0597
19935W        W20799  12.539   9.173  12.218 -0.2258  0.2648  0.2334
19936W        W20800  12.034   3.594   9.514  0.0881 -0.1130  0.3867
19937W        W20801   8.450   6.292   5.783 -0.0823  0.1490  0.1102
19938W        W20802  12.007   3.806   7.465  0.0085 -0.2259 -0.0496
19939W        W20803  10.045   7.441   9.544 -0.0357 -0.0180  0.0871
19940W        W20804   2.161   7.368   9.305 -0.0806 -0.0640 -0.1049
19941W        W20805  10.018   4.907  10.337  0.2920 -0.3904 -0.1575
19942W        W20806  11.757   5.709   9.228  0.1071 -0.3438 -0.2294
19943W        W20807  12.447   8.723  11.977  0.0375 -0.1926  0.2860
19944W        W20808  11.203   4.734   8.930  0.2671  0.0849  0.1449
19945W        W20809  12.525   8.795   8.307 -0.2760  0.0068 -0.3066
19946W        W20810  11.462   4.816  10.978 -0.1947 -0.0336 -0.1061
19947W        W20811  12.375   6.189   7.570 -0.0948 -0.1542 -0.1595
19948W        W20812  12.201   7.206   7.276  0.1496 -0.0279 -0.2495
19949W        W20813  10.984   7.666  11.255 -0.1482 -0.1965  0.1541
19950W        W20814  11.739   7.147  11.300 -0.2029  0.0417 -0.2611
19951W        W20815  13.627   6.057   9.946 -0.1397  0.1155  0.0157
19952W        W20816  13.323   5.128  11.120 -0.2326  0.1994 -0.4624
19953W        W20817  13.484   7.751   9.141 -0.1309  0.1535  0.0626
19954W        W20818  13.479   3.722   7.958 -0.0321  0.1336  0.1168
19955W        W20819   8.447   4.564   9.766 -0.1093  0.0291 -0.0515
19956W        W20820  11.430   7.605  11.573  0.1673 -0.1393 -0.1619
19957W        W20821  13.170   1.453   8.223 -0.1328  0.1156  0.4627
19958W        W20822  11.825   3.638  10.498 -0.3563 -0.0494  0.3474
19959W        W20823  10.912   5.829  11.685 -0.1150  0.0135  0.0848
19960W        W20824   9.801   1.702   8.465 -0.0489 -0.1553  0.0609
19961W        W20825   9.885   6.614   9.158  0.0692  0.0549  0.0388
19962W        W20826   8.470   7.597  11.007 -0.1329 -0.2116 -0.1967
19963W        W20827  11.553   4.729   4.235 -0.2706 -0.3700 -0.0407
19964W        W20828   0.043   6.636   8.628  0.2239 -0.2982 -0.1357
19965W        W20829  11.176   4.792  11.745  0.0883 -0.0287 -0.1308
19966W        W20830  10.785   8.161   7.887  0.2758  0.0233  0.0772
19967W        W20831  13.985   5.961   7.192  0.1929  0.1940 -0.0012
19968W        W20832  13.501   3.041   6.494  0.3198 -0.1643  0.0470
19969W        W20833  11.759   4.819   8.997  0.3162 -0.0805  0.0732
19970W        W20834  12.924  10.530   8.288  0.2778  0.1806  0.0121
19971W        W20835  13.137   5.912   9.768  0.0135  0.0267  0.1089
19972W        W20836  13.852   2.075   9.607 -0.2190  0.1069 -0.3599
19973W        W20837   8.734   6.115  10.531  0.2693  0.1835 -0.0634
19974W        W20838   8.772   7.198   8.387  0.0440  0.2357  0.1437
19975W        W20839   0.084   2.907  10.899 -0.1981  0.1896  0.1621
19976W        W20840  11.804   7.682  11.280 -0.1883  0.1320 -0.0905
19977W        W20841  12.588   3.217   8.709  0.3228 -0.2020 -0.2444
19978W        W20842  11.326   7.613  12.969  0.2827 -0.3089 -0.0343
19979W        W20843   0.025   7.504   8.972  0.0928  0.0851  0.0978
19980W        W20844  10.647   5.905  10.034  0.2491  0.3216  0.0631
19981W        W20845  12.222   7.255   8.837 -0.1649 -0.2015  0.0476
19982W        W20846  10.174   5.241   9.871 -0.0602 -0.0190 -0.1743
19983W        W20847  12.768   2.638   6.747 -0.2066 -0.0399 -0.1165
19984W        W20848  10.781   6.270   8.643 -0.1434 -0.0838 -0.1805
19985W        W20849   0.070   7.482  11.219 -0.0160  0.0765 -0.1065
19986W        W20850  13.427   7.294   8.890 -0.0873 -0.0686 -0.1543
19987W        W20851  10.980   6.488   7.962 -0.2524 -0.0561  0.0778
19988W        W20852  12.399   9.910  11.068  0.0699 -0.0863  0.0396
19989W        W20853  11.744   5.698   8.736  0.0975  0.1099 -0.3376
19990W        W20854  12.317   4.686   6.556  0.4380 -0.1054  0.0766
19991W        W20855  11.730   4.794   9.565 -0.2875  0.0236 -0.1513
19992W        W20856  13.852   4.136  10.105 -0.0950  0.2246 -0.0260
19993W        W20857  11.277   5.656  10.662  0.0954  0.1521  0.1141
19994W        W20858  11.713   7.157  10.831 -0.0130 -0.0153  0.0919
19995W        W20859  10.672   5.549  10.352 -0.0883 -0.4762  0.1958
19996W        W20860  11.306   5.728   9.507 -0.0190 -0.1035  0.3570
19997W        W20861   0.277   8.722  12.061  0.0752  0.0588 -0.1637
19998W        W20862  12.529   5.834   8.589 -0.3121  0.2042 -0.0230
19999W        W20863  10.245   9.776   9.477  0.1854 -0.1544 -0.0871
20000W        W20864  13.079   4.221   6.800  0.3315  0.0500  0.1770
20001W        W20865  12.025   7.635   8.547  0.0593  0.1304  0.0835
20002W        W20866   0.148   1.927  10.056  0.1303 -0.0330  0.0475
20003W        W20867  12.598   8.009  11.702 -0.3125 -0.2346  0.3675
20004W        W20868  10.806   8.282  11.933  0.1847 -0.2745  0.1033
20005W        W20869  12.653   5.713   7.637 -0.1553 -0.0438 -0.0486
20006W        W20870   0.543   4.355   5.394  0.0757 -0.3695 -0.3379
20007W        W20871  10.455   6.199   9.706  0.2314 -0.0765 -0.0030
20008W        W20872   0.413   2.175  10.918 -0.1255  0.0232  0.3141
20009W        W20873  12.018   4.937  11.506  0.0630  0.0684 -0.1687
20010W        W20874  10.817   6.909   7.790  0.2016 -0.3944 -0.0392
20011W        W20875  12.116   7.912  10.104  0.1809  0.4913  0.0671
20012W        W20876  13.646   8.929   9.845 -0.1709  0.2181  0.5327
20013W        W20877  12.421   4.698   7.815  0.1028  0.1062  0.0296
20014W        W20878   9.693   6.294  10.975  0.1192  0.0491 -0.1521
20015W        W20879  12.042   4.436   9.888 -0.1907 -0.1852  0.0344
20016W        W20880  11.441   4.673   6.374  0.0546 -0.0793  0.0141
20017W        W20881  12.649   7.157  11.225 -0.1554 -0.0792  0.1220
20018W        W20882   1.672   3.720   5.297  0.0649 -0.2736 -0.3423
20019W        W20883  11.883   9.919  11.679 -0.1209  0.0719 -0.0992
20020W        W20884  12.495   7.691   8.478 -0.2005 -0.0982  0.2321
20021W        W20885  13.241   2.024   7.574  0.2060  0.3845  0.2478
20022W        W20886   9.295   6.918   9.573  0.0285  0.1928  0.0119
20023W        W20887  12.245   7.902  11.392  0.2771 -0.2110  0.1284
20024W        W20888  12.913   3.584  10.444 -0.1057  0.0732 -0.2157
20025W        W20889  11.347   3.183   7.714 -0.1580 -0.5413 -0.2166
20026W        W20890  10.119   8.927   7.841  0.2732  0.2909  0.2301
20027W        W20891  11.368   6.153  10.776 -0.1595  0.0513 -0.1173
20028W        W20892   8.835   8.514   9.587  0.0556  0.1639 -0.0098
20029W        W20893  13.742   2.339   3.628 -0.1806  0.0781 -0.0978
20030W        W20894  13.140   9.476  11.321 -0.1806 -0.0594 -0.5045
20031W        W20895   0.780   8.225   8.984  0.2010 -0.0981 -0.2423
20032W        W20896  11.240   3.112   7.206 -0.0139 -0.1682 -0.2136
20033W        W20897   1.497   3.383   5.747  0.1485 -0.0044 -0.4168
20034W        W20898  12.183   4.630   7.050  0.0780  0.0432  0.0755
20035W        W20899  13.336   5.772   8.477 -0.0300  0.1359 -0.1368
20036W        W20900  11.210   4.279   7.938  0.1974 -0.3193 -0.2238
20037W        W20901   0.402   4.958   4.715 -0.1098  0.0153  0.1008
20038W        W20902   9.965   5.354   8.259 -0.1497  0.1420 -0.1473
20039W        W20903   9.873   4.455  10.641 -0.1013  0.0813 -0.2606
20040W        W20904  11.488   6.003  10.242 -0.2282  0.0035 -0.0638
20041W        W20905  10.402   5.839  11.275 -0.3152  0.0432  0.1296
20042W        W20906  13.446   8.733   7.100 -0.0979 -0.1038 -0.1046
20043W        W20907  11.591   5.173   6.447  0.0828 -0.0203  0.1520
20044W        W20908   8.443   6.511  11.290 -0.0193  0.1316 -0.1329
20045W        W20909  13.135   7.333   9.331  0.2388  0.4175  0.0501
20046W        W20910  11.986   7.464  11.646 -0.0297 -0.1334 -0.2052
20047W        W20911  12.687   6.807  10.910  0.2321  0.1707  0.1388
20048W        W20912  13.666   6.208   8.461 -0.0182  0.1423  0.1785
20049W        W20913  12.386   7.864  10.651  0.2539  0.0699 -0.0653
20050W        W20914  12.574   9.368  11.236 -0.0333  0.0671  0.1078
20051W        W20915   1.715   4.518   6.911 -0.2065  0.0727  0.2307
20052W        W20916  13.507   7.596  10.064  0.4422 -0.1677 -0.0766
20053W        W20917   9.203   6.567   9.914  0.0784  0.1004 -0.1326
20054W        W20918  11.026   7.574  10.189  0.4221  0.2469 -0.1420
20055W        W20919  12.949   7.701  10.342  0.4556 -0.0811 -0.0081
20056W        W20920  11.253   7.901   9.762  0.1527 -0.0527 -0.1769
20057W        W20921  13.093   6.038   7.644  0.0658 -0.0336  0.0130
20058W        W20922  13.076   9.514   7.771 -0.1062 -0.0274 -0.1901
20059W        W20923  11.572   6.099  12.051  0.3719  0.0576 -0.3965
20060W        W20924  13.974   5.492   8.532  0.0372 -0.0117  0.1731
20061W        W20925  10.796   6.341   6.291  0.0813  0.0609 -0.0673
20062W        W20926  10.791   5.963   1.308 -0.0437 -0.0644 -0.0708
20063W        W20927  11.410   7.929  10.765 -0.0266 -0.2954  0.3054
20064W        W20928  12.985   7.599  11.518 -0.0074  0.0771 -0.1516
20065W        W20929  11.219   6.251  11.592 -0.1809 -0.1062  0.1042
20066W        W20930  12.644   7.672  11.068 -0.1402  0.0806  0.2113
20067W        W20931  13.399   4.655   0.657 -0.0185 -0.1663  0.3951
20068W        W20932  11.146   4.261  11.492 -0.1053  0.3270  0.0927
20069W        W20933   1.277   5.112  13.073 -0.1292 -0.0638 -0.0078
20070W        W20934   8.444   4.809   0.307 -0.0574  0.1661  0.0400
20071W        W20935   3.350   9.557  10.470  0.2810  0.2033 -0.0287
20072W        W20936  12.540   4.958  11.808  0.0015 -0.0648  0.1326
20073W        W20937  13.140   6.766  11.956 -0.0618  0.0348  0.1792
20074W        W20938  11.043   6.625  11.256  0.0631  0.1794 -0.0868
20075W        W20939   0.270   2.748   0.008  0.2684 -0.2263 -0.0660
20076W        W20940  11.780   5.853   0.719 -0.0357  0.1892  0.2979
20077W        W20941   7.970   5.368  12.786 -0.2830 -0.0575  0.0875
20078W        W20942  13.247   7.624  13.373 -0.1981  0.1783  0.0348
20079W        W20943  13.123   4.896  13.097 -0.3590 -0.0665  0.3943
20080W        W20944  12.171   8.418  12.286  0.1564  0.1881  0.0515
20081W        W20945   9.769   2.041  11.238 -0.1531  0.0666  0.0292
20082W        W20946  11.280   4.345   1.479  0.1625  0.2025  0.1565
20083W        W20947   1.483   3.257  12.040  0.0175 -0.0399  0.2047
20084W        W20948  11.967   6.205  10.177 -0.0747 -0.1676  0.0288
20085W        W20949  13.771   9.179  11.725 -0.3284  0.2922  0.2752
20086W        W20950   8.618   6.388  13.877 -0.2342 -0.2031 -0.3231
20087W        W20951   8.363   5.227   0.612 -0.1824  0.0263 -0.3858
20088W        W20952   9.193   0.663  13.943  0.1724  0.0552  0.1663
20089W        W20953  13.477   5.814  11.814 -0.0978 -0.4788  0.1355
20090W        W20954  13.278   5.390  12.148 -0.0590  0.0931  0.0961
20091W        W20955   0.000   7.800  13.207  0.0724 -0.0153 -0.4061
20092W        W20956  12.033   4.262   0.830  0.1758 -0.3483  0.1511
20093W        W20957  13.954   8.703  11.652  0.2397 -0.1341 -0.1470
20094W        W20958   0.637   7.535  10.777 -0.4065  0.0599  0.1810
20095W        W20959  12.516   3.458  12.158  0.0794 -0.1133  0.0901
20096W        W20960  11.833   4.589  10.589 -0.1648 -0.0251  0.3779
20097W        W20961  12.444   6.354  13.457 -0.1911 -0.1413  0.3310
20098W        W20962   0.251   4.387  10.289  0.1307  0.0569 -0.0371
20099W        W20963  11.442   7.580  13.867 -0.0829 -0.2443 -0.0170
20100W        W20964  11.668   8.931  12.988 -0.0799 -0.1032 -0.0184
20101W        W20965  10.989   4.311  11.983  0.1610 -0.2114  0.0839
20102W        W20966  12.884   7.271  12.441 -0.0614 -0.1777 -0.0580
20103W        W20967   0.098   3.727  11.233  0.1880 -0.1080  0.2599
20104W        W20968  13.197   4.155  13.540  0.2598  0.0142 -0.0062
20105W        W20969  12.877   7.280  13.970 -0.0047 -0.0951  0.0148
20106W        W20970  10.977   6.113  10.377 -0.1301  0.2598  0.2430
20107W        W20971  10.729   7.049  11.947  0.1900  0.0654  0.1233
20108W        W20972  10.766   6.201  11.319 -0.0249 -0.0129  0.0691
20109W        W20973   0.624   7.764  11.710 -0.3148 -0.2597  0.0978
20110W        W20974  12.209   3.525   1.669  0.0206 -0.3316  0.0587
20111W        W20975  11.705   6.385  11.659  0.0606 -0.4027 -0.1131
20112W        W20976  11.053   5.281  12.324 -0.1626 -0.1953 -0.1357
20113W        W20977   0.689   5.713  13.056 -0.0007  0.1249  0.2395
20114W        W20978  12.236   7.221  13.200  0.2124 -0.2055 -0.1551
20115W        W20979  10.510   3.343   0.664 -0.3171  0.1877 -0.1978
20116W        W20980  11.106   3.869  11.007  0.1555  0.1837 -0.0785
20117W        W20981  11.793   2.944  11.778  0.1097 -0.4010  0.1661
20118W        W20982   0.525   4.633  12.310  0.0640  0.0006 -0.0679
20119W        W20983  13.086   6.949  13.363  0.0155 -0.0318 -0.0891
20120W        W20984  13.900   5.921  12.884  0.1635 -0.3592 -0.1850
20121W        W20985  11.579   8.743   9.996 -0.0594  0.0424 -0.0723
20122W        W20986   0.066   5.151  11.604 -0.0056  0.1557  0.3816
20123W        W20987  10.732   3.287   9.524  0.1019  0.2246  0.2790
20124W        W20988  12.514   7.503  11.617  0.2904 -0.1241 -0.2274
20125W        W20989  12.990   3.691  10.956 -0.2067 -0.0038  0.0524
20126W        W20990  11.335   6.744   0.178  0.1033 -0.1142  0.0419
20127W        W20991  10.864   4.811  12.336 -0.2305  0.1791 -0.0658
20128W        W20992  11.533   5.727  13.325  0.0557 -0.1535  0.0670
20129W        W20993   8.499   3.816   1.644 -0.0636  0.0727 -0.2720
20130W        W20994  11.461   4.411  12.874  0.3394  0.1540  0.2521
20131W        W20995  12.763   8.890  11.599  0.2832 -0.1113  0.0177
20132W        W20996  13.847   7.092   1.103  0.2937 -0.0239  0.1945
20133W        W20997  13.588   5.100  13.263 -0.0395 -0.1206 -0.1460
20134W        W20998   9.960   9.258   0.600  0.1088  0.1581  0.0035
20135W        W20999  11.209   5.401  11.864 -0.1744  0.0871  0.0027
20136W        W21000   0.488   7.491  10.275  0.1394  0.1697 -0.1681
20137W        W21001   0.828   7.333   9.506  0.1379  0.0865 -0.0558
20138W        W21002   2.229   6.444  12.632 -0.1399 -0.0541  0.1519
20139W        W21003  12.989   1.849  10.549  0.0162  0.1230 -0.0256
20140W        W21004  11.866   5.371  13.546 -0.2981  0.2747 -0.0343
20141W        W21005  11.917   4.844  12.025 -0.0350 -0.1469  0.3256
20142W        W21006  12.810   7.087  11.713  0.0824 -0.0288  0.0720
20143W        W21007  11.364   4.959  12.720 -0.3238 -0.0601 -0.3644
20144W        W21008   0.111   6.972  13.797 -0.3295 -0.4974  0.1626
20145W        W21009  12.992   4.048  11.262 -0.3235 -0.1156 -0.2003
20146W        W21010  12.525   4.153  11.465 -0.0944  0.0121 -0.2755
20147W        W21011  12.642   8.143  12.205  0.1618 -0.1041  0.0577
20148W        W21012  10.148   1.798   2.085  0.0894 -0.3613 -0.1301
20149W        W21013  13.534   6.584  12.224 -0.1231 -0.0984 -0.0138
20150W        W21014   0.149   5.197  10.358 -0.3571  0.1571  0.0556
20151W        W21015  13.876   9.449  12.323  0.0610 -0.1291  0.2434
20152W        W21016  11.426   6.501  12.956 -0.0603  0.2114  0.1657
20153W        W21017  12.828   4.521  11.539  0.1724  0.1799 -0.1404
20154W        W21018   9.499   6.256   9.074 -0.0593  0.1000  0.3344
20155W        W21019  11.980   5.492  11.462 -0.0989  0.0912 -0.3169
20156W        W21020   0.003   7.693   0.001 -0.0572  0.1779  0.3328
20157W        W21021   0.194   5.520  12.347 -0.1945 -0.3079 -0.1846
20158W        W21022   0.240   5.591  11.797 -0.2018 -0.2135  0.0362
20159W        W21023   0.497   7.964  12.216 -0.0723 -0.0041  0.1782
20160W        W21024  13.141   7.863  12.311  0.1125  0.0779 -0.2296
20161W        W21025  10.121   7.560  11.387  0.3978  0.0440 -0.1913
20162W        W21026  11.040   6.150  12.064  0.3769 -0.0926  0.1640
20163W        W21027  11.505   8.440  11.454 -0.0936 -0.1180 -0.0993
20164W        W21028  10.767   3.410   8.370  0.1447 -0.2408  0.0673
20165W        W21029  12.321   4.623  12.956  0.2931 -0.4691 -0.0848
20166W        W21030  12.132   5.795   2.054  0.3039 -0.2189  0.0716
20167W        W21031  10.925   6.537  12.662 -0.0142 -0.0869 -0.1974
20168W        W21032  13.569   5.930  10.693 -0.1121  0.3449 -0.0975
20169W        W21033  11.614   2.870  11.324  0.1555  0.1569 -0.0212
20170W        W21034  11.065   3.890   9.310 -0.0480 -0.1254  0.0611
20171W        W21035   1.443   5.746   0.258  0.2635  0.0319 -0.0187
20172W        W21036  10.256   5.728   0.011  0.1057  0.1089  0.0613
20173W        W21037  11.936   5.586  12.807 -0.0503  0.4659 -0.0732
20174W        W21038  10.883   3.485  13.850  0.0001  0.0205 -0.2382
20175W        W21039   9.891   8.791  10.444  0.0841  0.1725 -0.5151
20176W        W21040  10.985   8.306  11.420  0.1991  0.3161 -0.2518
20177W        W21041  12.511   7.401  12.783 -0.2418  0.0972  0.2219
20178W        W21042  12.638   5.600   0.920 -0.2458 -0.1446  0.2103
20179W        W21043  13.954   6.985  11.406  0.2689  0.1088  0.1371
20180W        W21044  10.674   6.859  12.933  0.2244  0.1063  0.0226
20181W        W21045  13.843   5.604  10.949 -0.0628  0.2509 -0.2218
20182W        W21046  11.776   5.878  12.441 -0.0923 -0.0917  0.0526
20183W        W21047  11.890   8.122  11.063  0.1185  0.0557 -0.0035
20184W        W21048  10.868   7.864  11.679  0.0731  0.2018  0.0143
20185W        W21049  11.557   4.403   0.692  0.2201 -0.0710 -0.1864
20186W        W21050  12.106   7.649  12.978 -0.1134 -0.0481  0.1300
20187W        W21051   0.380   6.854  11.503  0.0173  0.1162  0.1988
20188W        W21052  11.589   5.106  11.770 -0.0658 -0.3006  0.0688
20189W        W21053  12.372   5.069   8.906 -0.3907 -0.0895  0.1325
20190W        W21054  11.771   4.121   8.840 -0.1591  0.0571  0.0636
20191W        W21055  12.997   6.855   0.399  0.0291 -0.0618 -0.2139
20192W        W21056  13.507   9.193  11.043  0.1023 -0.3767  0.1457
20193W        W21057  13.473   9.778  10.244  0.0656  0.0031  0.1446
20194W        W21058   9.378   4.921  13.713  0.3252  0.2378 -0.1075
20195W        W21059  13.886   2.838   2.016  0.2346  0.2708  0.0180
20196W        W21060  11.325   3.975  12.606 -0.1496 -0.0930  0.1184
20197W        W21061   0.026   2.024  13.350  0.0058 -0.1815 -0.0766
20198W        W21062  11.514   4.042   1.070 -0.2823 -0.0835  0.2336
20199W        W21063  13.584   6.225   0.221  0.2260  0.1478 -0.0869
20200W        W21064  12.729   4.891  12.348  0.0445  0.0590 -0.0060
20201W        W21065  10.647   5.407  13.086  0.1396 -0.0989  0.1716
20202W        W21066  10.858   3.860  11.673 -0.1785  0.0763  0.1582
20203W        W21067  11.830   5.291  12.397 -0.1373  0.1733 -0.1198
20204W        W21068   0.790   6.371   0.222 -0.0276  0.3506  0.1569
20205W        W21069  12.631   5.308  10.321 -0.1565  0.2244  0.3834
20206W        W21070  11.619   8.864  11.066  0.0981  0.1619 -0.2053
20207W        W21071  12.848   5.508   0.357  0.1479 -0.3369 -0.1572
20208W        W21072  12.595   3.618   9.528  0.2961  0.1941  0.1370
20209W        W21073  12.967   5.506  12.534 -0.0032  0.0394 -0.1723
20210W        W21074   1.390   4.903  13.577  0.2013  0.5012  0.0021
20211W        W21075  12.757   5.402  12.073  0.1425  0.1744 -0.0160
20212W        W21076   1.520  10.687  11.629 -0.0532  0.1929 -0.2451
20213W        W21077  11.910   5.371   9.543  0.1192  0.1691 -0.1325
20214W        W21078  13.786   6.024  12.257  0.1909 -0.0862  0.3401
20215W        W21079  12.833   5.877  11.910  0.1427  0.5770  0.0802
20216W        W21080  11.576   5.703  11.018 -0.1390 -0.0194  0.0505
20217W        W21081  11.330   8.032  11.812 -0.1318 -0.0189 -0.1799
20218W        W21082   0.630   6.512  10.694 -0.2411  0.0237  0.0540
20219W        W21083  12.592   3.931  13.437  0.1320 -0.3553  0.2546
20220W        W21084  11.343   6.808  10.763 -0.0660  0.0931 -0.2372
20221W        W21085  13.352   6.045  13.826  0.0617  0.0129  0.0773
20222W        W21086  13.268   6.152  13.006  0.0894  0.3920  0.0151
20223W        W21087   2.407   6.628  12.066 -0.1531  0.2544 -0.0762
20224W        W21088   1.071   9.004  12.303  0.0154  0.1701  0.2287
20225W        W21089  11.691   9.903  12.739 -0.3238 -0.0800 -0.1256
20226W        W21090  11.263   4.421  12.379  0.3036  0.0543 -0.0359
20227W        W21091   0.405   6.101   9.437  0.4430 -0.0049 -0.0077
20228W        W21092  13.495   4.607  13.374 -0.0179  0.1993  0.1618
20229W        W21093  11.119   4.783   9.980  0.1058 -0.0606 -0.1212
20230W        W21094   3.463   7.972  10.985 -0.0709  0.1225 -0.1593
20231W        W21095   0.188   2.730  11.815  0.1479  0.2951 -0.0414
20232W        W21096  10.137   6.751  10.281  0.4534  0.3204 -0.1640
20233W        W21097  12.765   4.643   0.284 -0.0484  0.1195 -0.1915
20234W        W21098  13.994   6.868  12.404  0.1671 -0.0669 -0.0486
20235W        W21099  10.468   8.878  10.833  0.3844 -0.1256 -0.0795
20236W        W21100  12.672   6.342  12.992 -0.1113 -0.0808 -0.0272
20237W        W21101   0.066   7.053  11.908 -0.1123 -0.1643  0.2942
20238W        W21102  10.277   5.954  12.686 -0.0357 -0.1917 -0.1832
20239W        W21103   1.320   4.015   0.954  0.2114  0.1978  0.0990
20240W        W21104  12.991   6.335  13.416 -0.1816 -0.1633  0.0069
20241W        W21105  12.599   3.778  13.902 -0.0229 -0.3338  0.1879
20242W        W21106   9.096   4.486  13.869 -0.1396 -0.1494  0.0555
20243W        W21107  10.480   6.084  12.241 -0.0490  0.0989 -0.0954
20244W        W21108   4.039   4.436  10.798  0.0789 -0.0993 -0.2548
20245W        W21109  13.562   7.703  10.627  0.1011 -0.0239 -0.2270
20246W        W21110  12.796   3.377  13.741 -0.0823 -0.1407  0.0918
20247W        W21111  13.473   5.102  10.330  0.1971  0.1125  0.0030
20248W        W21112  11.984   2.931  13.975 -0.2118 -0.0896 -0.0895
20249W        W21113   0.135   7.778  11.933 -0.1701  0.0050 -0.2041
20250W        W21114  11.244   3.170   0.067  0.1610 -0.1204 -0.0273
20251W        W21115  12.357   4.815  13.821  0.0888  0.0423 -0.1234
20252W        W21116  12.618   3.973  10.586 -0.0001 -0.1322 -0.1019
20253W        W21117  11.267   5.750  12.314  0.1792 -0.1776 -0.2421
20254W        W21118  13.880   5.406  13.072 -0.1362  0.1206  0.1732
20255W        W21119  12.411   5.130  11.297  0.2028  0.2218  0.3348
20256W        W21120  11.938   3.246  12.881  0.2460 -0.0149  0.0042
20257W        W21121   9.636   8.492  12.678 -0.0305  0.0743  0.0717
20258W        W21122  13.696   6.041  11.360 -0.2156 -0.2074 -0.0609
20259W        W21123  13.105   5.452  10.081  0.2259 -0.4326  0.1934
20260W        W21124  12.775   6.840  12.862 -0.1561  0.0795 -0.1346
20261W        W21125  10.689   3.532  12.030  0.2315 -0.0635 -0.1557
20262W        W21126  12.025   6.008  11.677  0.1664  0.2098  0.1208
20263W        W21127  10.473   3.559  13.546  0.0706 -0.2553  0.2488
20264W        W21128  12.713   5.640   9.888 -0.0942 -0.0684 -0.1058
20265W        W21129   2.800   5.554  10.164  0.2397 -0.5197  0.1716
20266W        W21130  12.682   5.985   1.266 -0.0723  0.3078  0.1018
20267W        W21131  11.495   7.328  12.586  0.0468  0.3730  0.3266
20268W        W21132  11.737   4.594  12.484 -0.0228  0.0147  0.0938
20269W        W21133  12.658   6.017  12.395  0.0027  0.0899 -0.0586
20270W        W21134  12.673   8.398  12.997 -0.2454 -0.2505  0.0330
20271W        W21135  13.749   4.633  10.992 -0.0115  0.2891  0.0080
20272W        W21136   0.756   3.650  11.739  0.1608  0.3372 -0.1397
20273W        W21137  11.694   3.600   0.240  0.1589  0.0874  0.1053
20274W        W21138  10.167   4.212   8.466 -0.1413 -0.0802 -0.0923
20275W        W21139   0.601   3.866  11.303 -0.3052  0.3372  0.0310
20276W        W21140  10.198   4.954   0.511 -0.0257 -0.0971  0.1738
20277W        W21141  10.547   5.180  11.072  0.3070  0.1172  0.0628
20278W        W21142  10.490   8.019  12.388  0.0648 -0.0080  0.1701
20279W        W21143  11.862   6.342  13.200 -0.2058 -0.2563  0.1235
20280W        W21144  11.051   6.629  13.214  0.0858  0.0397 -0.1949
20281W        W21145  10.670   5.177   1.315  0.0661  0.0267 -0.0386
20282W        W21146  10.523   6.574  11.068  0.2788  0.1304  0.1074
20283W        W21147  12.971   5.501  11.028  0.0637 -0.2994 -0.0222
20284W        W21148   9.035   4.726  13.398  0.1140  0.0314 -0.0106
20285W        W21149  11.810   4.715  12.989 -0.1046 -0.0711 -0.0107
20286W        W21150   9.997   5.901  13.628  0.1131 -0.1094  0.1116
20287W        W21151   1.668   4.070  11.491  0.3193 -0.0240 -0.0052
20288W        W21152  12.015   8.602  10.926 -0.2327 -0.1154  0.0451
20289W        W21153  13.350   3.758   2.973 -0.1265  0.1674 -0.0224
20290W        W21154   9.885   6.214   1.255 -0.0667  0.1638 -0.1424
20291W        W21155  12.381   3.819  12.544  0.0563 -0.3917  0.0818
20292W        W21156   1.068   2.311  12.079  0.1714 -0.3740  0.1345
20293W        W21157  10.652   6.478  10.093 -0.2523 -0.0168 -0.1696
20294W        W21158  12.849   3.733  12.706  0.0330  0.0776  0.1595
20295W        W21159   0.064   4.655   2.515 -0.0240  0.0452 -0.1653
20296W        W21160  11.818   8.056  11.607  0.0254 -0.1759  0.0838
20297W        W21161   0.480   5.704  11.014 -0.2352 -0.2320 -0.1372
20298W        W21162  11.912   5.040   0.034 -0.0955  0.2174 -0.1042
20299W        W21163  10.315   5.255  10.611 -0.1037 -0.3045 -0.0915
20300W        W21164  12.974   2.465   9.874 -0.0483 -0.1246  0.0895
20301W        W21165  10.864   6.171  10.882  0.0785 -0.1616 -0.1393
20302W        W21166   8.721   6.163  13.421  0.4159 -0.1551 -0.0078
20303W        W21167  13.361   6.297  11.059 -0.1111 -0.1244  0.3414
20304W        W21168  13.582   3.835  11.058 -0.1376  0.1672 -0.1371
20305W        W21169  11.060   8.137   8.709  0.0053  0.1806  0.1070
20306W        W21170  12.468   6.137  11.463 -0.0518 -0.1583 -0.1977
20307W        W21171  13.362   4.658  10.667 -0.2538 -0.2843  0.1958
20308W        W21172  12.261   5.675   0.535  0.2713 -0.0871  0.1881
20309W        W21173  11.890   6.536   0.240  0.1471 -0.2805 -0.0047
20310W        W21174  12.462   4.453  10.746 -0.0739  0.0198 -0.2708
20311W        W21175  10.214   3.696  11.814 -0.1303 -0.5070 -0.0817
20312W        W21176  13.709   3.145  10.460 -0.3280 -0.0508  0.3660
20313W        W21177  10.797   7.563  13.315 -0.0184  0.1518  0.2641
20314W        W21178   0.684   5.795  11.560  0.1524 -0.1092 -0.1158
20315W        W21179   1.016   7.714  12.020 -0.0041 -0.1468  0.3901
20316W        W21180  13.256   3.890   8.348 -0.0980 -0.0207  0.1377
20317W        W21181  11.199   7.036  12.259 -0.1702 -0.4201  0.0698
20318W        W21182   3.005   6.810  10.895 -0.1966  0.1930  0.0277
20319W        W21183   2.750   5.719  12.389  0.0249 -0.0849 -0.1857
20320W        W21184  12.445   4.489   9.270 -0.5328 -0.0171 -0.2507
20321W        W21185  13.408   3.730   1.098 -0.0065 -0.0077  0.0811
20322W        W21186   9.036   3.996   0.255  0.0985 -0.1135 -0.1083
20323W        W21187   0.662   5.196  11.389 -0.0115 -0.3160  0.2242
20324W        W21188  10.486   7.414  12.168 -0.0556 -0.4460 -0.1268
20325W        W21189  11.569   3.956  13.186  0.2443  0.0911  0.0139
20326W        W21190   2.707   8.084  11.484  0.1050  0.2136  0.2394
20327W        W21191  11.374   4.738  13.307  0.0176  0.1052  0.1527
20328W        W21192   0.128   8.780  10.273 -0.2083  0.2661 -0.1962
20329W        W21193   1.041   8.463  11.004  0.1783 -0.0846  0.1732
20330W        W21194  12.059   9.249  12.265 -0.1782 -0.1855 -0.0970
20331W        W21195   0.428   7.071  12.500 -0.5967  0.1712 -0.0110
20332W        W21196  12.430   4.650   0.734 -0.0120 -0.0620 -0.1522
20333W        W21197  11.571   5.772  11.576 -0.0281 -0.0691  0.1135
20334W        W21198  11.662   8.018  12.983 -0.0246 -0.0322 -0.0096
20335W        W21199   9.443   5.904  11.785 -0.1538 -0.1143  0.0463
20336W        W21200  12.129   5.304  11.942 -0.4454  0.0369  0.0233
20337W        W21201  12.554   5.711  11.222 -0.2351 -0.0449 -0.0914
20338W        W21202  12.507   4.716   9.843 -0.1549 -0.0365  0.0811
20339W        W21203  10.214  11.069   4.322  0.2941  0.0124  0.2040
20340W        W21204   8.705   8.277   1.471  0.3197 -0.1437 -0.1803
20341W        W21205   1.551   9.929   0.850  0.2171  0.0271  0.0242
20342W        W21206  11.793  12.229  13.536  0.2767  0.0610 -0.0861
20343W        W21207   0.130  10.743   0.216 -0.2969  0.0313 -0.0468
20344W        W21208  12.426  10.275   2.528 -0.3226 -0.1813  0.1279
20345W        W21209  11.479   8.526   1.919  0.1278 -0.0110  0.3435
20346W        W21210  14.011   9.878   5.128  0.2163  0.0354  0.3036
20347W        W21211   9.255   8.077   4.644  0.0799 -0.2027 -0.0692
20348W        W21212  13.518   6.237  12.595  0.0696  0.1488 -0.1625
20349W        W21213  11.945   6.795   1.013 -0.4593 -0.0143  0.0507
20350W        W21214   9.789   7.830   0.128  0.1575  0.1612 -0.1986
20351W        W21215   1.684   7.273   1.713 -0.2226  0.1706 -0.1607
20352W        W21216  12.479   9.053   5.106  0.2534 -0.1325 -0.2280
20353W        W21217  11.802  11.733   2.623  0.3684  0.0982  0.0174
20354W        W21218  11.763  11.015   0.056  0.1949  0.2727 -0.1306
20355W        W21219  11.197   9.366   4.336 -0.2582 -0.2386  0.2938
20356W        W21220  13.213   6.626   2.495  0.0007 -0.1883 -0.0524
20357W        W21221  12.832   8.892   0.855 -0.1312 -0.5009  0.1629
20358W        W21222  13.663  11.870   6.390  0.0833 -0.0967  0.1570
20359W        W21223  11.017   8.680   1.172 -0.0458 -0.4776 -0.3172
20360W        W21224  10.979   9.953   2.578 -0.1043 -0.0343 -0.0403
20361W        W21225   0.522   6.539   4.186  0.3176  0.1766  0.1060
20362W        W21226  13.983  11.292   1.302  0.0468 -0.1074  0.0600
20363W        W21227   0.325  10.336   5.567  0.0977 -0.0969  0.0914
20364W        W21228  12.606  10.767  13.946  0.4217 -0.1897 -0.4626
20365W        W21229  10.863   8.372   4.103 -0.2458 -0.1332  0.0614
20366W        W21230  13.204  13.223   2.253  0.0793 -0.1267 -0.1677
20367W        W21231   0.294  10.035   4.334  0.1150  0.0946  0.1692
20368W        W21232  12.334   9.133   5.844  0.0374  0.1386 -0.1893
20369W        W21233  12.222   6.886   2.328  0.1929 -0.0139 -0.1443
20370W        W21234  12.861  10.349   1.329  0.1372  0.1030 -0.0610
20371W        W21235  11.112   8.766   1.621 -0.1704 -0.0232  0.4518
20372W        W21236  12.207  11.643  11.690  0.1225  0.1766  0.2091
20373W        W21237   1.844  11.087   0.581 -0.2634  0.1628  0.2229
20374W        W21238  12.858  11.625   2.807  0.1118  0.2176 -0.1240
20375W        W21239  10.885   9.386   0.463 -0.0527  0.2061  0.2233
20376W        W21240  13.072   8.016   2.353 -0.0146  0.0214  0.1061
20377W        W21241  13.650  10.275  13.548 -0.0423 -0.1048  0.0954
20378W        W21242   2.755   8.246   0.568 -0.1504  0.0630  0.1701
20379W        W21243   1.466   8.066   1.169  0.0461  0.0605  0.2749
20380W        W21244  11.243   7.014  12.923 -0.0578  0.2400 -0.1921
20381W        W21245   1.944   9.815   1.283  0.1676 -0.0130  0.0705
20382W        W21246  13.465   8.109  13.962 -0.2670  0.0508  0.2057
20383W        W21247  12.224   8.429   0.820  0.2292  0.2940 -0.3237
20384W        W21248  10.121  10.187   2.021  0.0735  0.1330  0.0015
20385W        W21249   8.593   9.833   2.719  0.1313  0.0158  0.1534
20386W        W21250  13.934   8.163   0.200  0.1608 -0.2394  0.0078
20387W        W21251  13.399   9.086   2.530 -0.0481 -0.0060  0.2629
20388W        W21252  13.855  11.795  12.259  0.0184 -0.1619 -0.0302
20389W        W21253  12.273  10.680   1.188  0.3968  0.1082  0.1343
20390W        W21254  10.832  10.242   3.418  0.0873  0.3302  0.0066
20391W        W21255  11.083   7.697   0.780 -0.1505  0.4472  0.1779
20392W        W21256  13.071   7.962   0.199  0.1212 -0.0117 -0.1372
20393W        W21257  11.042   5.528   1.329 -0.2059 -0.3014 -0.0567
20394W        W21258  12.043   7.132  12.708  0.0091 -0.0856 -0.1566
20395W        W21259  13.397  10.554   1.497  0.0341  0.2628  0.2395
20396W        W21260  13.776   7.828   1.857  0.1475 -0.1144  0.1797
20397W        W21261  12.038  11.452   3.241  0.1341 -0.0769  0.2024
20398W        W21262  11.998   7.545   0.600 -0.0769 -0.0478 -0.1104
20399W        W21263  12.068   9.534   2.480 -0.3209 -0.1735 -0.2165
20400W        W21264  13.527   9.080   4.880  0.0900  0.0783  0.0976
20401W        W21265  12.226   9.521   0.880  0.1505  0.0398 -0.1568
20402W        W21266   0.868   9.613   0.360  0.2096  0.0379  0.0425
20403W        W21267  13.081   6.832   1.744  0.1394 -0.2136 -0.0115
20404W        W21268  12.016   9.232  12.753 -0.0086  0.3532  0.0680
20405W        W21269   9.072   8.962   4.335 -0.0110  0.0765 -0.2230
20406W        W21270   0.173   7.186  13.300  0.0942  0.0824  0.0002
20407W        W21271  11.715   6.971   2.693  0.3245 -0.0508  0.0123
20408W        W21272  11.441   5.451   0.708 -0.1369 -0.0532 -0.1169
20409W        W21273   1.579   7.544   2.924  0.2568  0.2988  0.0881
20410W        W21274   0.084   6.604  13.489  0.2146 -0.2128 -0.2476
20411W        W21275  11.292   5.709   4.554  0.1071  0.3004  0.3804
20412W        W21276  13.713   9.914   1.893  0.1049 -0.0694  0.0581
20413W        W21277  11.341   7.303  13.359  0.1430 -0.0911  0.2627
20414W        W21278  13.580   6.545   3.266  0.1486  0.2624 -0.0925
20415W        W21279  13.299  10.185   1.002 -0.0316  0.2747  0.0429
20416W        W21280  13.279   6.839   0.895 -0.5260  0.0859  0.1457
20417W        W21281  11.542   7.899   1.624  0.0068  0.4200  0.0678
20418W        W21282   1.982   5.560   0.247  0.0008 -0.0601  0.0037
20419W        W21283   8.987  10.660   3.623  0.0741 -0.0578  0.1877
20420W        W21284  12.606  10.301  13.215  0.2436 -0.0600  0.0158
20421W        W21285  10.468   8.884   4.452 -0.1778 -0.1230 -0.0215
20422W        W21286  11.374   8.863  11.997  0.0792 -0.1750  0.0509
20423W        W21287   2.376   8.453   4.927 -0.0299  0.1523 -0.0832
20424W        W21288  13.775   9.940   4.147 -0.0507  0.0850 -0.0955
20425W        W21289  13.255   9.357   4.169  0.2215  0.1704  0.2066
20426W        W21290   0.026   6.093   1.341  0.0600  0.2009 -0.1341
20427W        W21291  11.715   6.762  13.846 -0.1345 -0.2680 -0.1076
20428W        W21292  13.202   9.891   0.591  0.1353  0.1940 -0.0900
20429W        W21293  13.976  10.602   2.144  0.0631 -0.0803  0.0107
20430W        W21294  12.437  10.352   3.929  0.1011  0.2107 -0.2501
20431W        W21295  10.589   9.386   2.268 -0.2068 -0.1441 -0.1899
20432W        W21296  11.732   6.363   1.723 -0.1567  0.1731 -0.0636
20433W        W21297   1.140   8.497   2.926  0.0058  0.4830 -0.2430
20434W        W21298  11.241   5.777   0.331 -0.2881 -0.1498 -0.1199
20435W        W21299  13.079   6.623   2.971  0.1616 -0.1576  0.2721
20436W        W21300   1.234  10.873   2.556  0.4406  0.3370  0.0069
20437W        W21301   0.461   9.151   1.062 -0.0652 -0.1633  0.1007
20438W        W21302  13.263   9.988  13.452  0.0592  0.1670 -0.1460
20439W        W21303   0.229   7.831   1.925  0.0164  0.0671 -0.1688
20440W        W21304   9.673   8.368   6.022  0.3949 -0.1022  0.1507
20441W        W21305  13.110   8.742   2.796 -0.0335 -0.0427  0.1072
20442W        W21306  11.837   8.015   0.749 -0.1338 -0.0189  0.3297
20443W        W21307  13.872  11.182   2.831 -0.0906 -0.1253  0.1062
20444W        W21308   0.969   7.989   2.941 -0.0008  0.0013 -0.3421
20445W        W21309   0.666  10.584   0.446 -0.0483 -0.2097 -0.0442
20446W        W21310   9.758   7.452   0.422  0.1090 -0.0291 -0.0700
20447W        W21311   0.131   8.222   2.296  0.2335 -0.1844  0.0299
20448W        W21312  13.200   7.604   2.579 -0.0318  0.1276  0.2104
20449W        W21313   0.788   9.101   2.317 -0.3293  0.0311 -0.0045
20450W        W21314   0.996  13.521   0.870  0.3570 -0.1513 -0.2077
20451W        W21315  12.892   8.007   1.454  0.2425 -0.0667  0.1104
20452W        W21316  13.192   8.093   1.053 -0.1570  0.2243 -0.0157
20453W        W21317  12.380  12.764   1.866  0.0658  0.1280  0.0194
20454W        W21318  12.150   7.065   0.548 -0.2116 -0.2285  0.0231
20455W        W21319  11.820  12.164   4.048  0.0210  0.5348 -0.1069
20456W        W21320  12.734  10.803   0.406  0.0338 -0.4536  0.0355
20457W        W21321  12.469   7.661   0.674  0.0607  0.0675  0.3546
20458W        W21322  13.382  11.452   2.803 -0.0201 -0.1450  0.1073
20459W        W21323   2.000  11.863   1.280  0.2169  0.2323  0.0566
20460W        W21324  11.825   9.107   1.116  0.2601  0.2565  0.3388
20461W        W21325  11.873   7.698   0.090  0.0478 -0.0727 -0.4303
20462W        W21326   0.399   9.713   4.846 -0.0704 -0.2091 -0.0581
20463W        W21327  10.604   7.500   0.154 -0.0995  0.1212 -0.2910
20464W        W21328  13.299   8.856  13.848  0.0572 -0.2751 -0.1704
20465W        W21329  12.226   8.613   4.929  0.1772  0.1916  0.1681
20466W        W21330  12.321  10.352   4.863  0.0851 -0.3610  0.4346
20467W        W21331  10.946   9.288   1.464  0.0186 -0.0629 -0.0564
20468W        W21332  11.323   8.237   1.310  0.0406 -0.0222  0.0704
20469W        W21333   1.036  10.042   2.634 -0.2856  0.0382  0.1371
20470W        W21334  13.760   7.987   1.351 -0.3156  0.0256 -0.2704
20471W        W21335   0.441   8.171   4.139  0.3200  0.2201 -0.0264
20472W        W21336  13.880   9.932   4.657  0.0555 -0.1907 -0.2802
20473W        W21337  11.949   3.788   1.222 -0.1541  0.0410  0.1835
20474W        W21338  13.435   6.288   5.247  0.0536  0.2137  0.4549
20475W        W21339  12.363   9.198   3.432 -0.1098  0.3479  0.0491
20476W        W21340  11.383   6.036   1.991  0.2219 -0.1889  0.0987
20477W        W21341  12.622   9.416   2.567 -0.3398  0.0634 -0.1808
20478W        W21342  12.404   9.841   3.956 -0.0891 -0.1804  0.2381
20479W        W21343  12.755   9.993   0.945  0.2304  0.3018  0.3338
20480W        W21344  11.920   6.965   1.869 -0.2891  0.1710  0.0232
20481W        W21345  13.951   7.767   2.367  0.1023 -0.0542  0.1322
20482W        W21346   0.182   8.378   1.459 -0.0896 -0.1440 -0.0060
20483W        W21347   0.393  11.280   0.919 -0.1125 -0.2686  0.1011
20484W        W21348  13.606   8.249  13.097  0.1008 -0.0803 -0.0621
20485W        W21349  12.120   9.357   4.237 -0.0399 -0.1161  0.0697
20486W        W21350   0.561  10.569   3.596  0.1571  0.2060 -0.1918
20487W        W21351  11.256  10.434   2.582  0.0863  0.0185  0.0180
20488W        W21352   0.320   8.940   4.516 -0.1728  0.0449  0.1551
20489W        W21353  12.274  12.515   0.297 -0.4567  0.3117 -0.2568
20490W        W21354  13.821  11.424  13.279  0.1159 -0.1549 -0.0573
20491W        W21355   1.525  10.567   1.513 -0.0949  0.0721  0.1384
20492W        W21356  11.603   9.912  13.278  0.0180 -0.3230 -0.0299
20493W        W21357  13.255  11.278   5.964  0.0008 -0.0718 -0.1798
20494W        W21358   9.825   6.326   2.722  0.0777  0.0285 -0.1109
20495W        W21359   1.405   9.494   1.953  0.4741 -0.2191  0.0156
20496W        W21360  13.292   8.947   1.973 -0.2562 -0.0085 -0.1108
20497W        W21361  10.669   8.602   3.123  0.1641 -0.0139 -0.0333
20498W        W21362  12.090  10.268   0.921  0.0271 -0.0785  0.0132
20499W        W21363  12.540   8.824   3.119  0.2915  0.1675 -0.3519
20500W        W21364  13.552   8.057   2.317  0.0304  0.0263  0.0437
20501W        W21365  10.506   6.043   3.950 -0.1116 -0.1584  0.0051
20502W        W21366  10.076   6.052  13.124  0.3584  0.0429 -0.0202
20503W        W21367  12.795   5.411  13.309 -0.0721  0.0576 -0.0198
20504W        W21368  12.398   9.227   4.644  0.3841  0.1118 -0.1274
20505W        W21369   9.666   7.893   0.926  0.2716  0.1569 -0.0065
20506W        W21370  13.170   7.210   3.028  0.0150 -0.1407  0.2124
20507W        W21371  10.758  10.235   5.570  0.0008 -0.1023  0.0422
20508W        W21372  13.498   8.799   1.446 -0.1630  0.2616 -0.1447
20509W        W21373  12.550   7.267   1.400 -0.2748  0.0940  0.0752
20510W        W21374  11.997   8.553  11.531 -0.1352  0.0391  0.5163
20511W        W21375  13.426   9.172   3.065 -0.0337 -0.1490 -0.0616
20512W        W21376  11.573   7.404   1.405 -0.0423  0.1039  0.0655
20513W        W21377   0.636  13.362   1.937 -0.2862 -0.2566 -0.2500
20514W        W21378  10.815   9.104   0.976  0.1708 -0.0600  0.0163
20515W        W21379  12.918  10.231   4.278 -0.3048  0.1984 -0.0966
20516W        W21380   1.497   8.471   2.543  0.1484  0.0756  0.0486
20517W        W21381  11.499  10.700   2.885 -0.3373  0.1224  0.2095
20518W        W21382  13.997   7.342   0.428  0.1258  0.2792 -0.1396
20519W        W21383   0.020   8.939  13.738  0.0354 -0.0379  0.3372
20520W        W21384   0.133   9.609  13.628  0.2800  0.0564 -0.4279
20521W        W21385   1.069   9.446   4.496 -0.1894  0.2449  0.0617
20522W        W21386  12.739  10.308   5.144  0.2238  0.2321  0.0948
20523W        W21387   1.182   9.478   3.960  0.2557 -0.1139  0.0495
20524W        W21388  13.050   6.710  11.300 -0.1017 -0.2048  0.0258
20525W        W21389   0.630   4.696   1.974 -0.0240 -0.0141  0.0173
20526W        W21390  13.596  10.695   3.242 -0.0005 -0.0296 -0.1461
20527W        W21391  14.013  12.134   2.946  0.0240  0.1991 -0.1011
20528W        W21392  10.745   9.048   3.453 -0.3064  0.0121  0.1636
20529W        W21393  11.978   9.367   1.955 -0.0072  0.0547  0.1291
20530W        W21394   0.985  10.674   5.739 -0.2733 -0.0886  0.1707
20531W        W21395   1.463  10.005   1.468 -0.1980 -0.0213 -0.1049
20532W        W21396  11.346   5.943   1.452 -0.0554 -0.1049  0.2066
20533W        W21397  13.562   8.441   0.914  0.0868  0.3547 -0.0831
20534W        W21398  11.856   7.548   3.997 -0.2330 -0.3161  0.0095
20535W        W21399  13.219   9.903   1.969 -0.2951  0.2579  0.2225
20536W        W21400   2.398  10.993   2.669 -0.1252  0.1975 -0.0365
20537W        W21401  13.438  11.786   1.995 -0.1235 -0.1400  0.0056
20538W        W21402  12.623   9.628   3.425  0.0680  0.1379  0.2073
20539W        W21403  10.596   7.724   0.831 -0.1528  0.1902  0.0479
20540W        W21404  11.435  10.941   1.197  0.2488  0.0012  0.0101
20541W        W21405  13.303   7.614   3.525 -0.2240 -0.0784  0.0212
20542W        W21406  12.394   8.598  10.518 -0.0420 -0.1807 -0.0557
20543W        W21407  12.664   7.430   2.562 -0.2958  0.0045 -0.1963
20544W        W21408   0.228   0.837   1.970 -0.2692  0.1524  0.2009
20545W        W21409  10.951   8.458   0.042  0.1365  0.2057  0.2008
20546W        W21410   0.013  13.427   1.244 -0.0130 -0.1295  0.0491
20547W        W21411  11.094  10.569   4.602  0.0048  0.1121  0.0561
20548W        W21412   1.120   8.172  13.303  0.0965  0.0421  0.1803
20549W        W21413  10.565   8.291   0.548  0.1698 -0.1388  0.1906
20550W        W21414   0.096   9.212   2.186 -0.0348 -0.0834 -0.1063
20551W        W21415   1.335  10.345   1.075  0.2607 -0.0148  0.2445
20552W        W21416   9.817   6.614   2.069 -0.2964 -0.0849  0.0419
20553W        W21417  12.709   9.243  13.959  0.0389  0.2756 -0.0384
20554W        W21418   0.409   8.721   2.109 -0.1421  0.0554 -0.1246
20555W        W21419   0.088   9.190   1.401  0.1380 -0.0501  0.1650
20556W        W21420  12.557   7.722   4.159  0.3470 -0.1708  0.2181
20557W        W21421  12.895  10.398   3.824  0.1280 -0.0082 -0.1806
20558W        W21422  12.088  10.637   5.279  0.2913  0.0263  0.0536
20559W        W21423   0.238  10.407   2.574  0.2467 -0.1363 -0.0349
20560W        W21424   0.847   9.497   1.136 -0.1843  0.0625  0.0512
20561W        W21425  13.786   8.877   2.226 -0.1574 -0.0009  0.2494
20562W        W21426   0.974  10.720   1.736 -0.1677  0.0002  0.1636
20563W        W21427  12.922   8.388   3.105  0.1913 -0.0977  0.0832
20564W        W21428  13.210   9.452   2.190  0.4839  0.2796 -0.0566
20565W        W21429  11.743   9.563   6.411  0.2120  0.0920  0.5212
20566W        W21430   1.744  12.031   1.704 -0.4222  0.1147  0.3924
20567W        W21431  13.353   8.278   4.341 -0.1138  0.1717 -0.0647
20568W        W21432  11.957   7.082   3.772 -0.0234  0.0155 -0.4827
20569W        W21433  12.787   7.835   2.868  0.1642  0.3057  0.1750
20570W        W21434  13.364   9.956   1.504 -0.6456  0.0004 -0.2132
20571W        W21435   9.649  11.276   5.031 -0.1685 -0.2803  0.0948
20572W        W21436  12.740   8.925   1.941 -0.3999 -0.1566  0.2419
20573W        W21437  11.849   7.445  10.204 -0.2629  0.0472 -0.1115
20574W        W21438  10.480  11.238   2.199 -0.1523 -0.0323 -0.1502
20575W        W21439   1.137   9.280   2.908 -0.1676  0.0312  0.1018
20576W        W21440   0.413   7.937  13.583  0.0463  0.0222 -0.2614
20577W        W21441   0.106   9.944   1.053 -0.1165 -0.1618 -0.1303
20578W        W21442  11.963   9.363   3.731  0.1401 -0.1091 -0.1173
20579W        W21443   0.585  10.405  13.407 -0.1793 -0.0318  0.0707
20580W        W21444   0.792   9.201   3.244 -0.0832 -0.1020  0.1095
20581W        W21445   0.507   8.419  13.398 -0.0434 -0.4025  0.1705
20582W        W21446  12.804   7.972   0.748 -0.0603  0.0787 -0.0108
20583W        W21447  13.315   9.524   1.645  0.1879 -0.0112 -0.1054
20584W        W21448   0.220   8.802  12.993 -0.2098  0.1491 -0.0978
20585W        W21449  13.972   9.748   3.342 -0.3779 -0.1888 -0.1074
20586W        W21450   8.902   9.831   3.260  0.0118  0.0980 -0.2438
20587W        W21451  12.506   7.313   5.406 -0.1105  0.0349 -0.0247
20588W        W21452  12.570  10.879   4.888 -0.1987 -0.3045  0.0748
20589W        W21453   0.475   9.642   0.791 -0.0411 -0.1234 -0.0907
20590W        W21454  12.276  12.096  13.283 -0.4068  0.0914 -0.0219
20591W        W21455  13.901   6.906   2.140 -0.1159 -0.4195  0.0595
20592W        W21456  12.354   5.239  12.472 -0.0684 -0.1622  0.0415
20593W        W21457  12.540   8.471   1.694 -0.2424  0.0918 -0.0477
20594W        W21458  13.060  12.547   3.817 -0.4180 -0.0180  0.2322
20595W        W21459   1.922   9.127   0.516 -0.1044 -0.1592 -0.1101
20596W        W21460  12.764   7.886   3.572 -0.2037 -0.3066  0.1664
20597W        W21461  11.400   5.290  13.610 -0.0562  0.0872 -0.0757
20598W        W21462  13.219   6.246   2.113  0.3001 -0.1289  0.0794
20599W        W21463   0.521  10.957   3.310  0.0245 -0.1628 -0.0054
20600W        W21464  11.239  11.110   6.568 -0.0176 -0.1525  0.0512
20601W        W21465  12.731   8.641  12.381 -0.1503  0.4591  0.0603
20602W        W21466   1.561  10.464   3.239 -0.2056  0.0161 -0.0476
20603W        W21467  12.233   8.918   1.889 -0.0360  0.0018 -0.0277
20604W        W21468  11.565   9.129   2.077 -0.1852 -0.1223 -0.4538
20605W        W21469   8.209  10.825   4.317  0.0311  0.0031 -0.0891
20606W        W21470  10.994   8.204   0.937 -0.0294  0.0623  0.0758
20607W        W21471   1.639   7.213  12.937 -0.1245 -0.3009  0.0684
20608W        W21472  11.975   8.485   1.786  0.1053 -0.2717 -0.2383
20609W        W21473   0.221   9.227   6.472  0.1352 -0.1267  0.2777
20610W        W21474  11.173   8.129   1.808 -0.0371  0.3253 -0.1457
20611W        W21475   0.046  10.205   0.304 -0.0875 -0.2903  0.0008
20612W        W21476  13.594   9.201  13.616 -0.2331  0.0832 -0.0776
20613W        W21477  12.152  10.919   2.245 -0.0968  0.4037  0.1459
20614W        W21478  12.570   8.791   2.668 -0.1061 -0.1795  0.0602
20615W        W21479   1.902  11.795   4.900  0.1184  0.1222 -0.0572
20616W        W21480  12.161   8.694   1.405 -0.0019 -0.0893  0.3287
20617W        W21481  12.289   6.340   1.040  0.0124  0.3372 -0.3423
20618W        W21482   0.380   6.043  12.825 -0.0321  0.0857  0.0305
20619W        W21483  12.378   9.671   1.773 -0.2879  0.0149  0.1722
20620W        W21484  12.972   8.147  13.750 -0.0803 -0.1413  0.2598
20621W        W21485  11.217   6.595   0.736  0.2586  0.1235 -0.0874
20622W        W21486  11.899  12.413   0.756 -0.1331 -0.2632 -0.2285
20623W        W21487   0.418  11.609   1.298  0.0860 -0.1649  0.1509
20624W        W21488  11.229   9.774   4.038 -0.1859 -0.4386  0.3121
20625W        W21489  11.889   8.215   1.337  0.1204 -0.1941  0.1455
20626W        W21490  12.000   7.016   6.231 -0.1671 -0.0453 -0.3882
20627W        W21491  13.004  13.015   2.615 -0.1056 -0.0340 -0.0777
20628W        W21492   7.947   9.168   0.484  0.2175  0.0512 -0.1446
20629W        W21493  13.283   7.283   0.288  0.2120 -0.1873  0.2002
20630W        W21494  11.918   7.256  13.677  0.0837  0.2936  0.0009
20631W        W21495  14.004  11.437   3.618 -0.0411  0.2982 -0.1440
20632W        W21496  13.918  10.285   0.800 -0.2009  0.1129 -0.1461
20633W        W21497   0.125   6.340   3.886 -0.0199 -0.5131 -0.0305
20634W        W21498   1.765  12.898   0.332 -0.1704 -0.3174 -0.0292
20635W        W21499   0.073   8.635   2.553  0.2145  0.0126 -0.0278
20636W        W21500  13.445   9.284   5.376  0.3872  0.1032 -0.0755
20637W        W21501  11.071   8.349   3.435  0.4093  0.1227 -0.0674
20638W        W21502   1.813   7.199  12.437 -0.1916  0.0369 -0.0669
20639W        W21503  13.107   9.961   3.451 -0.1856  0.3354 -0.1074
20640W        W21504  12.980   8.860   3.379 -0.1221  0.3659  0.0044
20641W        W21505  13.583   7.933  13.514 -0.1209  0.3025  0.2084
20642W        W21506  13.179  10.581   2.960  0.0679  0.0781  0.3299
20643W        W21507   0.192  12.438   3.282  0.1700  0.1052 -0.0454
20644W        W21508  13.781  10.721   0.523  0.2380  0.2401  0.2822
20645W        W21509   0.133   8.604  12.530 -0.4537 -0.1119  0.1893
20646W        W21510   0.020  10.436  13.031  0.2676  0.0952  0.1682
20647W        W21511  10.838   6.930   1.121 -0.0309 -0.2985 -0.0975
20648W        W21512   0.090  11.951   1.368  0.3656  0.1490 -0.1672
20649W        W21513   0.061  10.366   1.735  0.2678  0.0002  0.1520
20650W        W21514  13.913   7.124   3.848 -0.1662 -0.0302 -0.1212
20651W        W21515  12.343   9.346   2.978  0.0305 -0.1152  0.0321
20652W        W21516  13.896   8.161   2.815  0.4288 -0.1008  0.1954
20653W        W21517  11.677  10.067   0.785  0.1635  0.0564 -0.2493
20654W        W21518  13.761   9.260   3.626  0.1258 -0.1430 -0.0276
20655W        W21519  11.887   8.350   0.335 -0.0212 -0.2565  0.0630
20656W        W21520   0.260   9.664  13.107 -0.0322  0.0222 -0.0006
20657W        W21521   0.684  10.124   0.229  0.1758 -0.1148 -0.1009
20658W        W21522   0.608  10.042   2.361  0.1303 -0.0813 -0.1351
20659W        W21523   1.341  10.050   4.016  0.0688  0.0647 -0.0142
20660W        W21524   1.769  11.419   1.593 -0.1217 -0.0812 -0.0754
20661W        W21525  11.665  12.240   5.806 -0.0135 -0.0297 -0.2226
20662W        W21526  11.784  11.020   2.626  0.0245  0.1528 -0.1670
20663W        W21527  12.242  11.094   2.835  0.0711 -0.1095  0.0366
20664W        W21528   1.069   8.198   1.948  0.2638 -0.2975  0.2041
20665W        W21529  10.997  10.307   3.907  0.1595  0.1998  0.2952
20666W        W21530  13.786   9.366   2.695  0.3093  0.1275  0.3082
20667W        W21531   0.090   9.642   2.435  0.1291  0.0404  0.2350
20668W        W21532   9.279  11.137   3.454  0.2236  0.0620  0.3650
20669W        W21533  12.410   7.444   3.600 -0.1434 -0.0437  0.0087
20670W        W21534   0.091   7.311   2.610  0.0773  0.0915  0.0315
20671W        W21535   0.816   8.312   4.464  0.1750  0.1529  0.3214
20672W        W21536   0.460   9.170   1.815  0.1898  0.1857 -0.1750
20673W        W21537  11.161  10.598  13.015  0.2009  0.0429  0.2193
20674W        W21538  10.303  11.097   6.396 -0.0601 -0.0094  0.0958
20675W        W21539  10.223  10.848   3.877 -0.1923 -0.2493  0.2787
20676W        W21540   0.932  10.003   4.718 -0.2336 -0.0220 -0.1588
20677W        W21541  12.901   9.023   2.395  0.0592  0.1218  0.0901
20678W        W21542  12.757   9.265   3.797  0.1831  0.1162 -0.1894
20679W        W21543  11.994  11.310   4.682  0.2796  0.0044  0.4149
20680W        W21544  11.516   9.567   3.631  0.0684  0.0572  0.1720
20681W        W21545   9.183  12.279   8.084 -0.1069 -0.0319  0.1641
20682W        W21546  10.056  10.001   7.209 -0.0390 -0.0636  0.2789
20683W        W21547  11.968   7.583   6.292 -0.2623  0.1389  0.0936
20684W        W21548  13.711   6.885   5.321  0.1361  0.2549 -0.0453
20685W        W21549   1.582   7.069   3.724  0.2548 -0.1424  0.3751
20686W        W21550   1.266   9.302   6.969  0.2118 -0.0990  0.0960
20687W        W21551  10.076   7.311   6.806  0.1878  0.5070  0.0801
20688W        W21552  13.678  11.136   6.784 -0.2317  0.1894  0.2827
20689W        W21553  12.477  10.093   3.466 -0.1334 -0.0227 -0.3870
20690W        W21554  10.320   8.185   6.603 -0.0221 -0.1306  0.1274
20691W        W21555  13.341   8.222   6.840  0.1920 -0.0649 -0.0690
20692W        W21556  12.884   7.921   7.041  0.0790 -0.0191 -0.4815
20693W        W21557  12.285   9.556   6.150 -0.0097  0.2093  0.0803
20694W        W21558  10.694   9.782   8.653  0.0825  0.2806 -0.0205
20695W        W21559  10.131  10.657   6.497  0.0319  0.0788  0.1018
20696W        W21560  12.017   9.857   7.057 -0.1275 -0.1084 -0.2774
20697W        W21561  12.242  10.804   4.081  0.1722 -0.2197  0.0460
20698W        W21562   2.054  11.007   5.870  0.0925  0.1020  0.0077
20699W        W21563  12.270   9.422   7.775 -0.1064  0.2606  0.1008
20700W        W21564  11.414   9.522   5.633 -0.3416 -0.1135 -0.1026
20701W        W21565   0.259  12.276   3.732 -0.3566 -0.1084  0.0261
20702W        W21566  13.546  11.382   6.336  0.0700 -0.2531  0.2091
20703W        W21567   1.532   9.648   6.605  0.0465 -0.4372 -0.0185
20704W        W21568  10.274   9.504   8.537  0.1921 -0.1868 -0.2251
20705W        W21569  12.280   9.473   5.165  0.0229 -0.2007 -0.0864
20706W        W21570   1.243   8.287   5.351 -0.1723 -0.4598 -0.2354
20707W        W21571  13.658   7.061   6.456  0.1286 -0.1316  0.2230
20708W        W21572   0.936   6.036   1.452  0.1358 -0.1060 -0.0413
20709W        W21573   0.648  10.101   6.820 -0.0037 -0.2565 -0.1002
20710W        W21574  10.154  10.428   2.850  0.1116 -0.0823 -0.3384
20711W        W21575  12.043  12.484   6.922  0.1350  0.2662 -0.4546
20712W        W21576  13.252   8.336   8.255  0.0655  0.2610 -0.0119
20713W        W21577   0.197  11.419   6.780  0.0145  0.1213 -0.0540
20714W        W21578   1.961   8.384   2.864  0.0756  0.1274  0.3139
20715W        W21579  11.709   9.429   5.218  0.2328 -0.0077  0.0425
20716W        W21580   0.328   8.971   3.132 -0.0386  0.0773 -0.2328
20717W        W21581  12.663  12.904   8.758  0.0086  0.0987  0.0540
20718W        W21582  13.623   9.495   4.530  0.1741  0.0129  0.2623
20719W        W21583  13.493  10.340   2.006  0.1822 -0.0165 -0.0046
20720W        W21584   9.799   8.909   7.381  0.3500  0.1425  0.1233
20721W        W21585  11.831   5.468   4.591 -0.0989  0.1966  0.0691
20722W        W21586   1.193   7.642   8.311 -0.1563  0.5092 -0.0588
20723W        W21587  10.415  11.598   6.100  0.2867  0.0254 -0.0407
20724W        W21588  13.779  12.217   5.735  0.3218  0.0404 -0.0506
20725W        W21589   9.555   9.719   5.576  0.1612  0.0488  0.1871
20726W        W21590  11.273   9.744   6.815 -0.0511 -0.2127  0.2005
20727W        W21591  11.564   8.889   5.179 -0.1004  0.3675 -0.0437
20728W        W21592   1.574   6.387   6.277  0.1435 -0.0615  0.1175
20729W        W21593  12.222  10.051   3.045  0.1595 -0.1443  0.1034
20730W        W21594  10.572   5.583   5.660 -0.1151  0.1000  0.0258
20731W        W21595  12.441  12.702   6.703  0.3487  0.1826 -0.1032
20732W        W21596  12.376  11.262   6.568  0.0440 -0.3341 -0.4606
20733W        W21597  13.834  10.384   7.101  0.2381  0.4021 -0.1105
20734W        W21598   1.261   8.998   4.134  0.1624  0.1632 -0.3367
20735W        W21599   1.722   9.212   9.137 -0.0841 -0.1063  0.2186
20736W        W21600   0.366   9.018   5.091  0.0504 -0.0606 -0.0809
20737W        W21601  11.251   8.714   5.590 -0.1472  0.5081 -0.1334
20738W        W21602  12.546  12.562   7.193 -0.2200 -0.4474  0.0751
20739W        W21603  13.762   8.558   4.390 -0.3254 -0.2406 -0.0336
20740W        W21604   2.999   9.844   3.315 -0.0402  0.0778  0.0302
20741W        W21605   9.899  11.826   7.616 -0.0418  0.0953 -0.2001
20742W        W21606  10.071   9.087   8.702  0.0614  0.0852  0.2185
20743W        W21607  13.107   6.247   6.613  0.0029 -0.3972 -0.1752
20744W        W21608   1.808   7.846   4.571 -0.2399  0.1080 -0.0258
20745W        W21609  12.982   6.804   6.883  0.0308  0.4981 -0.0033
20746W        W21610  13.053   4.978   3.090 -0.2807 -0.3353  0.2328
20747W        W21611  12.916   7.546   6.254  0.0584  0.0687  0.0266
20748W        W21612   0.699   6.842   6.024 -0.3617  0.1126  0.2920
20749W        W21613   0.698   7.778   5.762  0.0889 -0.0542 -0.2741
20750W        W21614  13.380  10.218   7.129  0.0890  0.0136  0.0730
20751W        W21615  12.767   0.700   6.987  0.0782 -0.3086  0.0849
20752W        W21616   0.225   6.874   5.212 -0.2467  0.0149  0.1273
20753W        W21617  12.598  10.139   5.606  0.1909  0.0346 -0.0472
20754W        W21618   1.496   7.328   6.427  0.2503 -0.0084  0.1912
20755W        W21619   0.686  11.819   7.766 -0.0878  0.1398  0.2606
20756W        W21620  12.790  11.055   5.844  0.0967  0.1019  0.0343
20757W        W21621  13.883  10.228   6.487  0.0282 -0.0488  0.1514
20758W        W21622   2.704   6.611   5.505 -0.4269 -0.1308  0.0078
20759W        W21623   0.409   7.072   7.823 -0.0324  0.0406 -0.0849
20760W        W21624  12.641  12.044   2.858 -0.3511  0.1372 -0.1005
20761W        W21625   0.715   9.970   8.173  0.2292  0.0912  0.4569
20762W        W21626  13.333   9.427   5.840  0.0406  0.1973  0.2463
20763W        W21627  13.007   9.726   3.918 -0.0403 -0.0602  0.0544
20764W        W21628   8.642  12.095   8.964  0.0870  0.1838  0.1395
20765W        W21629  13.062  11.494   5.155  0.0497 -0.0188 -0.0894
20766W        W21630  13.693   9.924   6.892  0.1003 -0.1511 -0.0813
20767W        W21631  11.220  10.254   7.037  0.0825  0.0522  0.2058
20768W        W21632  12.722  10.826   6.410  0.0070  0.1188 -0.2014
20769W        W21633  13.491   9.608   7.344  0.1954 -0.0582 -0.1637
20770W        W21634  12.196   6.491   3.744  0.1540  0.2753 -0.0316
20771W        W21635   1.917  10.342   1.697 -0.0440  0.5581  0.1853
20772W        W21636   0.563  11.021   4.344 -0.1313 -0.0793 -0.0812
20773W        W21637   0.081   9.563   1.805  0.2277 -0.1682  0.1332
20774W        W21638   1.372   5.783   3.411  0.5274 -0.0602  0.2133
20775W        W21639  12.958  10.527   5.668  0.1936  0.0524  0.0369
20776W        W21640  13.068   9.100   4.689  0.1979 -0.1092  0.0171
20777W        W21641   0.775   8.501   8.419  0.3186  0.2911  0.2573
20778W        W21642  12.296   9.025   3.923 -0.2741  0.3341  0.1211
20779W        W21643  11.258   9.663   5.052 -0.4084  0.1843 -0.1517
20780W        W21644  11.777   7.525   7.237 -0.0517 -0.2998  0.1782
20781W        W21645  13.748  11.037   8.275  0.2498  0.1261  0.0513
20782W        W21646  13.562   8.873   5.679 -0.0441  0.1157 -0.2711
20783W        W21647  10.426   8.966   5.989  0.0803 -0.0919  0.0263
20784W        W21648   1.862   8.625   7.407  0.3471  0.1546  0.0687
20785W        W21649   0.566  10.899   5.649 -0.2987 -0.1006 -0.0112
20786W        W21650  11.232  11.999   5.966 -0.2705  0.0065  0.1745
20787W        W21651  12.039   9.036   5.414  0.1037  0.0435  0.1180
20788W        W21652   0.050   9.306   4.786 -0.0669  0.1894 -0.2263
20789W        W21653  13.204  10.591   5.233 -0.1456  0.2214 -0.1646
20790W        W21654  13.631  10.159   3.221  0.0767  0.0267  0.0866
20791W        W21655  13.098  10.077   5.447 -0.0607 -0.0127 -0.3803
20792W        W21656  13.758   8.333   3.536 -0.1059  0.1693  0.1362
20793W        W21657  13.981   7.573   4.109 -0.0616 -0.2439 -0.0572
20794W        W21658  13.006  11.175   4.427 -0.0820 -0.2110 -0.2324
20795W        W21659  10.377  12.565   6.353 -0.1909  0.0270 -0.2461
20796W        W21660  13.099   9.005   7.636 -0.3170  0.1609  0.4253
20797W        W21661  11.825   9.667   2.958 -0.0725 -0.2226 -0.1315
20798W        W21662   1.585   9.744   5.369  0.0162 -0.1500 -0.3974
20799W        W21663  13.766   8.199   5.856  0.4063  0.1995  0.1409
20800W        W21664  13.977   7.638   6.667  0.2787  0.0417  0.2662
20801W        W21665   1.805   8.444   4.126  0.2048  0.1929  0.2718
20802W        W21666  12.719   8.546   6.750 -0.1352 -0.2891  0.0024
20803W        W21667  11.958   9.071   4.883  0.0108  0.2450 -0.1413
20804W        W21668  13.071   7.129   5.505 -0.2569  0.4981  0.0324
20805W        W21669  12.493   8.162   3.232 -0.1265  0.1636 -0.5720
20806W        W21670  13.453   5.241   7.689  0.1431  0.0704 -0.0939
20807W        W21671   0.815  10.498   8.565 -0.0788  0.1130  0.1447
20808W        W21672   2.219   9.971   5.066 -0.1613 -0.0229 -0.0560
20809W        W21673   0.912   8.791   4.558 -0.0539  0.0178 -0.0212
20810W        W21674  10.478   8.231   7.103 -0.1209  0.1042 -0.0281
20811W        W21675   9.802   8.504   6.557  0.3503  0.0102  0.1616
20812W        W21676  12.727   9.664   6.552  0.0017  0.2574 -0.4152
20813W        W21677  10.286  11.484   4.025  0.1456 -0.0730  0.0284
20814W        W21678  11.997  13.634   7.929 -0.0664 -0.1682  0.1559
20815W        W21679  12.762   9.099   4.278 -0.1961  0.0824 -0.1295
20816W        W21680   1.122   8.469   5.853 -0.1024  0.2618 -0.0611
20817W        W21681  12.400   8.114   7.686 -0.0972  0.1962 -0.0722
20818W        W21682   0.681   9.558   2.578  0.1204 -0.1288  0.2484
20819W        W21683   2.736   9.251   1.155  0.1185 -0.2690  0.1480
20820W        W21684   1.105   8.152   2.448  0.1117 -0.3045  0.1061
20821W        W21685  11.906  12.813   8.298  0.0552 -0.0018  0.0461
20822W        W21686  11.840  10.014   6.296 -0.0950 -0.2458  0.3285
20823W        W21687  10.766  12.061   5.758  0.3028  0.1716  0.1755
20824W        W21688   0.294   8.132   5.891 -0.1631 -0.0073  0.0435
20825W        W21689  12.023   7.914   3.681 -0.4511  0.1117 -0.1082
20826W        W21690   1.377   7.776   1.889 -0.0294  0.1168  0.2144
20827W        W21691  13.224   7.089   6.152  0.0247  0.1359 -0.1593
20828W        W21692  11.729   6.730   2.260 -0.0472  0.0343  0.0059
20829W        W21693  13.922   8.378   7.391  0.1034 -0.1094 -0.0494
20830W        W21694  12.320   9.090   6.361  0.2827 -0.0313  0.0331
20831W        W21695  13.424   9.977   6.423 -0.0359 -0.3449 -0.2938
20832W        W21696  11.407   8.393   3.940  0.2011  0.0479 -0.2067
20833W        W21697  11.309  10.227   4.235  0.0138 -0.1610 -0.0303
20834W        W21698  12.523   9.882   6.993 -0.1274  0.0700  0.2563
20835W        W21699  12.654   9.777   7.744 -0.2047  0.0808  0.0431
20836W        W21700  10.182   8.862   5.505  0.0974  0.2219 -0.3038
20837W        W21701  12.913   9.655   7.347  0.0551  0.2490 -0.3490
20838W        W21702  12.174   8.668   5.802  0.1359 -0.0234  0.1171
20839W        W21703  12.059   8.738   2.835 -0.2127  0.0337 -0.2924
20840W        W21704   0.482   9.374   9.599  0.3157 -0.3020 -0.0773
20841W        W21705  11.342   8.250   6.761  0.2353 -0.1186 -0.1086
20842W        W21706  12.626   6.865   5.592 -0.1967  0.0052  0.0334
20843W        W21707  11.306   7.048   4.777  0.0174  0.0739  0.2488
20844W        W21708   0.952   9.895   7.209 -0.1177  0.0430  0.0381
20845W        W21709  12.413  11.720   6.853  0.1182 -0.0723 -0.1521
20846W        W21710  10.656   8.544   3.625  0.0706 -0.0034 -0.0714
20847W        W21711   0.923   7.793   7.940 -0.2194 -0.1947  0.0292
20848W        W21712  13.253   8.114   2.825  0.1996 -0.1632 -0.0705
20849W        W21713  12.767  12.768   6.142  0.3733  0.1187 -0.0227
20850W        W21714  10.804   9.466   6.344 -0.0688  0.1634  0.2278
20851W        W21715   0.401   9.229  10.293  0.3144  0.0383 -0.4457
20852W        W21716  12.263  11.650   7.489 -0.1276  0.2041  0.1410
20853W        W21717  13.237   9.689   6.862  0.3289 -0.0160 -0.2263
20854W        W21718   1.842   7.838   6.938  0.1660 -0.1942 -0.1372
20855W        W21719   1.253  10.005   5.138 -0.1044  0.2889 -0.2090
20856W        W21720   0.492   9.967   5.837  0.0930  0.0172  0.1902
20857W        W21721  13.376  10.573   8.442  0.0499  0.1363 -0.2236
20858W        W21722   0.244  11.273   7.254  0.3705 -0.2704  0.1156
20859W        W21723  12.947  12.330   7.062 -0.0888  0.0392  0.4803
20860W        W21724  10.498   8.095   3.891  0.0971 -0.0904 -0.0092
20861W        W21725   0.213  11.310   2.513 -0.3178  0.2978 -0.3323
20862W        W21726  12.232   7.424   8.142  0.1201 -0.1282 -0.0621
20863W        W21727  13.053   8.778   8.090  0.1666  0.1488  0.2237
20864W        W21728  12.114  13.500   3.967  0.2062 -0.3020  0.3282
20865W        W21729   1.313   6.898   6.345  0.2789  0.3016  0.1717
20866W        W21730  13.050  11.401   8.178 -0.1598 -0.2539  0.0822
20867W        W21731  12.853   8.645   5.206 -0.2700 -0.1773  0.1904
20868W        W21732  13.171   9.734   4.417 -0.0835 -0.1859  0.2182
20869W        W21733  13.261   7.782   6.730 -0.1123  0.0956 -0.1266
20870W        W21734  13.377  10.614   3.867  0.0857 -0.0859 -0.1655
20871W        W21735  11.608   8.328   6.324  0.1714  0.2395  0.1062
20872W        W21736   0.018  12.200   6.238 -0.0620 -0.1043  0.1563
20873W        W21737  11.272   9.743   6.263  0.0385 -0.1943 -0.0380
20874W        W21738   1.173  10.399   2.975  0.1931  0.1161 -0.1757
20875W        W21739  11.764  11.129   6.609 -0.2349 -0.0503  0.2284
20876W        W21740  13.579   9.278   7.707  0.0966  0.0920 -0.0484
20877W        W21741  11.166   9.976   5.442 -0.0620 -0.0436 -0.0317
20878W        W21742  13.472   6.747   6.794 -0.2462 -0.0478 -0.3501
20879W        W21743  12.502  11.722   5.435  0.1029  0.2511  0.1325
20880W        W21744  10.523  13.451   8.077 -0.1322 -0.1750 -0.1347
20881W        W21745  11.203  11.580   3.432 -0.0785  0.2282  0.3621
20882W        W21746  13.346   7.147   7.160  0.4755 -0.0215 -0.2147
20883W        W21747  10.671   9.131   4.886 -0.0490  0.3036  0.1003
20884W        W21748  12.246   7.437   9.855 -0.0350 -0.0685 -0.0238
20885W        W21749   0.500   9.834   5.360  0.2662 -0.0292  0.1905
20886W        W21750  13.343   7.991   5.997 -0.1478 -0.3151  0.1567
20887W        W21751   0.112   8.537   8.210 -0.2270  0.2567  0.4603
20888W        W21752  13.654   9.546   5.044  0.2346 -0.1247 -0.1630
20889W        W21753   2.086  10.784   7.220  0.1791  0.0879 -0.1009
20890W        W21754  11.786   8.368   5.862  0.1032 -0.2294  0.2840
20891W        W21755  11.907   8.137   7.668 -0.2616  0.2665  0.0192
20892W        W21756  12.760   0.984   5.865  0.0232 -0.1874  0.4566
20893W        W21757   0.131   9.316   6.946 -0.0012 -0.0821 -0.5124
20894W        W21758  13.222  13.691   6.072  0.1610  0.2411 -0.1214
20895W        W21759  10.013  10.833   8.424 -0.0834 -0.3289 -0.1943
20896W        W21760  11.421  12.476   5.003  0.2750 -0.0279 -0.0711
20897W        W21761  13.856   7.765   5.113 -0.3608  0.3406  0.1832
20898W        W21762  13.675  10.059   8.450 -0.1083  0.2638  0.0852
20899W        W21763  11.950   8.388   3.808 -0.1320  0.3037 -0.1393
20900W        W21764   0.366   7.745   6.163  0.0949 -0.0028 -0.2549
20901W        W21765  11.994  11.417   5.738  0.0244  0.0336 -0.0281
20902W        W21766  10.888  10.517   5.132 -0.1632  0.0165 -0.1238
20903W        W21767   0.580   8.676   7.945  0.1859 -0.0203  0.1596
20904W        W21768  12.680   9.862   5.246 -0.1118 -0.1886 -0.1697
20905W        W21769  13.448   9.128   8.615 -0.2084  0.0822  0.5285
20906W        W21770  12.328  11.125   6.098 -0.1104  0.0318  0.1224
20907W        W21771  12.566  10.715   5.486 -0.0870 -0.2138 -0.0788
20908W        W21772  10.102  13.955   9.731  0.0631  0.2185 -0.0348
20909W        W21773  12.179  10.823   5.741 -0.2781  0.0288 -0.2174
20910W        W21774  11.855   7.285   2.342  0.2489  0.0067  0.1864
20911W        W21775  13.039   6.094   1.622 -0.1517 -0.0038 -0.2091
20912W        W21776   0.097  12.539   8.109  0.1113 -0.2232  0.0945
20913W        W21777   0.622   7.805   6.596  0.0527 -0.3233 -0.0889
20914W        W21778  12.970   9.140   5.171  0.0698  0.0062  0.0108
20915W        W21779  11.832  10.478   9.407  0.1458  0.0023 -0.0786
20916W        W21780   0.743   8.418   3.708 -0.3843  0.1827 -0.1940
20917W        W21781  13.448  10.012   5.053  0.0424  0.0141 -0.0506
20918W        W21782   1.107   7.706   4.337 -0.0671 -0.2784 -0.4560
20919W        W21783   9.913   8.850   5.956  0.0858 -0.1100 -0.1791
20920W        W21784   1.066  10.755   1.229 -0.2585 -0.1495 -0.4086
20921W        W21785  13.336   7.727   4.790  0.0639  0.0474  0.4405
20922W        W21786  11.112   6.985   6.119  0.0603  0.1023  0.0137
20923W        W21787  11.173  10.149   4.883 -0.0859 -0.1550  0.0709
20924W        W21788  12.744   9.544   4.909  0.4853  0.2653  0.1437
20925W        W21789  13.267   9.234   8.124  0.1396 -0.1711  0.0196
20926W        W21790  13.171  12.353   8.196  0.0529  0.2333 -0.1636
20927W        W21791   2.538   9.317   2.965 -0.2427  0.1620 -0.1315
20928W        W21792  12.452  11.132   4.420  0.1810  0.0313 -0.3580
20929W        W21793   0.192  10.950   5.296 -0.1942  0.1812  0.0213
20930W        W21794   0.218   8.446   4.529  0.0688  0.0009  0.1382
20931W        W21795   2.067   6.114   4.823  0.0287  0.0038  0.1111
20932W        W21796  11.285   9.691   2.889 -0.1020  0.0766  0.2752
20933W        W21797   0.879   9.031   5.727  0.2538 -0.0099 -0.1528
20934W        W21798  13.001  11.055   5.435 -0.1049 -0.1104  0.2826
20935W        W21799  12.452   8.414   6.292 -0.1694  0.2485  0.0440
20936W        W21800   1.283   9.854   7.600  0.0095  0.1221 -0.0006
20937W        W21801  11.322  12.436   8.291  0.2791  0.1091  0.1236
20938W        W21802  12.736   8.845   6.338  0.0112  0.0967  0.1188
20939W        W21803  12.225   8.709   6.709  0.3221  0.2739 -0.1458
20940W        W21804   1.886   8.740   4.599  0.1190  0.1547 -0.3327
20941W        W21805   0.829   9.006   8.239  0.0423  0.0968  0.1674
20942W        W21806  14.010   8.795   7.167 -0.2853  0.1182  0.0153
20943W        W21807   0.741  11.598  10.578  0.2232  0.2729  0.1311
20944W        W21808  13.440  10.491   7.645 -0.3742  0.0516 -0.0789
20945W        W21809  13.863  12.309   7.212  0.0254  0.1075 -0.1604
20946W        W21810  12.134   6.683   5.688 -0.1525  0.0551  0.1362
20947W        W21811  10.697   9.157   9.516 -0.0470 -0.2992  0.1994
20948W        W21812  14.008   7.316   6.227  0.0612  0.0615  0.2162
20949W        W21813  12.393   9.889   4.788 -0.0453  0.1786 -0.2198
20950W        W21814   1.134   9.321   5.389  0.0208  0.0651 -0.1546
20951W        W21815  10.185  10.005   5.191 -0.0502  0.1559  0.1255
20952W        W21816  12.416   9.629   5.602 -0.0853 -0.3008  0.2534
20953W        W21817   0.520  12.361   7.982 -0.0025 -0.0231  0.2643
20954W        W21818  12.252  13.580   5.943  0.2727  0.1718 -0.0895
20955W        W21819   0.358  10.411   7.952  0.2356 -0.1550  0.0117
20956W        W21820  10.247   8.671   6.766  0.0023  0.2615 -0.0297
20957W        W21821  12.901   7.336   6.961  0.3979 -0.1098  0.0650
20958W        W21822   0.649   9.206   7.694  0.2538 -0.2069 -0.0361
20959W        W21823  12.234   9.860   6.556  0.0895 -0.0448  0.1615
20960W        W21824  11.937   9.480   4.658 -0.0372  0.1013  0.0997
20961W        W21825  13.823  10.879   4.333  0.1847 -0.1439  0.2419
20962W        W21826   8.377  11.871   8.521 -0.1622 -0.1300 -0.1498
20963W        W21827  10.946   9.862   7.216 -0.1323 -0.1076  0.0337
20964W        W21828   8.935  10.005   8.304  0.1211 -0.0196  0.0066
20965W        W21829  11.409  11.098   7.007  0.0037 -0.0702  0.4923
20966W        W21830  10.186   8.539   6.213 -0.0176 -0.0682  0.0142
20967W        W21831   0.326   5.542   5.874 -0.3230 -0.1896 -0.2023
20968W        W21832   1.475   7.892   5.165  0.0735  0.0889  0.0739
20969W        W21833  11.881   9.528   5.766 -0.1342  0.1364 -0.1264
20970W        W21834  11.589   9.050   5.644 -0.0827 -0.0979 -0.1148
20971W        W21835   1.186   8.410   3.483  0.1138  0.2827 -0.1650
20972W        W21836  12.469  10.212   4.411 -0.1270 -0.0840  0.1259
20973W        W21837   0.972   7.497   6.816 -0.2578 -0.1370 -0.0015
20974W        W21838  12.161   7.282   2.778  0.1915 -0.0311 -0.0114
20975W        W21839  12.856   8.094   5.898 -0.1104 -0.0770 -0.0982
20976W        W21840  13.029   6.540   7.840 -0.2835 -0.0447 -0.0620
20977W        W21841   0.044  10.636   6.190 -0.1078 -0.2262  0.0038
20978W        W21842  13.715   7.536   5.551  0.1176  0.2574  0.1821
20979W        W21843  13.775  12.734   6.137  0.0087 -0.2268  0.4489
20980W        W21844  10.622  11.771   3.368 -0.1233 -0.1565 -0.1391
20981W        W21845   2.194   7.165   5.018  0.0886 -0.2110 -0.2970
20982W        W21846  13.427  10.402   6.681  0.3407  0.0299 -0.1020
20983W        W21847   1.546   9.114   4.655 -0.0212 -0.0312 -0.3265
20984W        W21848   0.289   9.307   3.522 -0.1957  0.2412  0.1004
20985W        W21849  13.620   7.977   6.417  0.0626  0.0639  0.1938
20986W        W21850  12.657  10.580   2.178 -0.0008  0.2587  0.0000
20987W        W21851   0.081   7.956   8.044 -0.3789  0.0426  0.1599
20988W        W21852  13.317   7.653   7.272  0.1026 -0.1002 -0.1438
20989W        W21853  12.408  10.266   9.336 -0.0201  0.0300 -0.1770
20990W        W21854  13.577   9.439   6.526 -0.1308 -0.2145 -0.0889
20991W        W21855   0.554   8.207   5.340 -0.1171  0.2751 -0.0077
20992W        W21856  11.868  10.362   5.848 -0.0055 -0.3443  0.3710
20993W        W21857  11.099  11.130   7.380 -0.2307 -0.1332  0.0828
20994W        W21858  13.354   8.496   3.863  0.3901  0.1684  0.1763
20995W        W21859  12.479  13.468   8.058 -0.1433  0.1282 -0.1644
20996W        W21860   1.034   9.674   6.736  0.0665 -0.2121  0.2626
20997W        W21861   0.712   9.757   4.313  0.0007 -0.1269 -0.3602
20998W        W21862   0.300  11.565   4.653 -0.1670 -0.1160  0.0188
20999W        W21863  11.264  11.586   8.554  0.0306  0.1729  0.2289
21000W        W21864  13.818  10.204   5.492  0.1240  0.1612  0.1363
21001W        W21865  11.228   0.897   9.453  0.2501  0.0947  0.1028
21002W        W21866   9.892  10.785   5.780 -0.0005  0.0846  0.1547
21003W        W21867   1.264  10.350   8.353 -0.0951  0.1323 -0.0812
21004W        W21868  13.348  10.056   5.943  0.0778  0.2684  0.0945
21005W        W21869  12.239  12.025   5.085  0.0537  0.0540  0.0855
21006W        W21870  12.477   8.852   7.154  0.2381  0.1396 -0.1452
21007W        W21871   2.112  11.173   5.420  0.1442  0.2593  0.0684
21008W        W21872  12.632   9.839   8.648 -0.2395  0.2348  0.0106
21009W        W21873  11.161  11.643   6.596 -0.2255 -0.2445 -0.2643
21010W        W21874  10.481   8.339   4.529  0.2515  0.0004  0.2341
21011W        W21875  11.772  12.276  13.037 -0.0526  0.2486 -0.1158
21012W        W21876  13.392   9.851  10.773  0.3167  0.0224 -0.1103
21013W        W21877  11.854  11.501  10.790 -0.0055 -0.0728 -0.0831
21014W        W21878  11.673   9.681   8.995  0.2398 -0.3044 -0.3554
21015W        W21879  11.576   8.500   9.410 -0.0463 -0.2475  0.1093
21016W        W21880  11.159   9.011   8.635 -0.0667  0.0433 -0.0861
21017W        W21881  12.474  10.467  10.242 -0.2251  0.2858 -0.0154
21018W        W21882  10.723  12.568  11.215  0.1254  0.0508 -0.0460
21019W        W21883  13.228   8.907  10.664 -0.1862 -0.3355 -0.0687
21020W        W21884  11.595   7.149  11.868 -0.0266  0.1967  0.0477
21021W        W21885   0.129   9.099   9.839 -0.3203  0.0621  0.1629
21022W        W21886   0.073  11.045   8.613 -0.4295 -0.2600  0.1662
21023W        W21887   2.065  10.707  11.710 -0.2106  0.1611  0.2480
21024W        W21888  10.154  11.183  10.437 -0.2250 -0.1727  0.2017
21025W        W21889   9.845  10.629   8.999  0.0807 -0.2222 -0.1145
21026W        W21890   0.772  11.330   5.907  0.0474  0.2086 -0.0003
21027W        W21891  10.632   9.103  12.301  0.0291  0.0046 -0.2030
21028W        W21892  11.007   8.666  13.158  0.0523 -0.1536 -0.0033
21029W        W21893  11.263   9.222  11.672 -0.1325  0.4051  0.3295
21030W        W21894  13.278  13.181   9.182  0.0434 -0.0702 -0.1395
21031W        W21895  11.954   8.802   9.654 -0.0761  0.0484 -0.0271
21032W        W21896  11.199  10.740  11.062 -0.0329  0.1566  0.2602
21033W        W21897   8.141   9.515  11.517 -0.2955 -0.1297 -0.0545
21034W        W21898  12.417  10.000  12.893  0.0935 -0.0724  0.2266
21035W        W21899   0.024   9.615  11.620 -0.0440 -0.3942 -0.0875
21036W        W21900   0.900  10.358  11.733  0.2358 -0.1869 -0.0607
21037W        W21901  12.668  10.922  12.890  0.0311 -0.0721  0.6229
21038W        W21902  11.968   9.694  13.067  0.1025  0.3982  0.0636
21039W        W21903  10.702   9.799  11.064  0.1689  0.0143 -0.0794
21040W        W21904  12.370  10.654  12.290 -0.1624  0.0218 -0.3591
21041W        W21905  12.687   8.821   8.890  0.0023  0.0108 -0.2634
21042W        W21906  12.760  10.522  10.627 -0.3696 -0.0017  0.1903
21043W        W21907  12.440  10.635   8.347  0.0132  0.1041 -0.1904
21044W        W21908   0.189   9.338   8.615 -0.1061  0.1175  0.0598
21045W        W21909  11.118  11.739   8.055  0.1524  0.0537 -0.1577
21046W        W21910  13.246   9.956   7.622  0.1211 -0.0681 -0.0001
21047W        W21911   0.134  10.802   9.453 -0.0362  0.1001  0.0283
21048W        W21912  12.627   7.672   1.737  0.0055 -0.2257 -0.0700
21049W        W21913   3.240   6.900   9.956  0.2329 -0.0787  0.1524
21050W        W21914  13.500   7.870   8.258 -0.0704 -0.0765  0.0438
21051W        W21915  12.175   8.912   8.669 -0.1602  0.0281  0.2211
21052W        W21916  13.038   9.503  10.281 -0.0476 -0.3123  0.1815
21053W        W21917  12.156   9.854  10.287  0.0354  0.1035  0.2430
21054W        W21918  13.008   7.800   9.093 -0.0450  0.2301 -0.2318
21055W        W21919   0.076   7.291   9.428  0.1627  0.1640 -0.0518
21056W        W21920  11.498  10.810   6.286  0.1505 -0.1853  0.0919
21057W        W21921  12.527   5.921  10.744 -0.0252  0.1556  0.3987
21058W        W21922  13.779  10.367  10.640 -0.0587  0.0489 -0.0204
21059W        W21923  12.082  12.086  10.423 -0.0339 -0.0732  0.0419
21060W        W21924  10.392  13.542   9.539 -0.2231  0.3610 -0.0455
21061W        W21925  11.288   8.743   9.056 -0.3717 -0.1012  0.4385
21062W        W21926  12.711  10.381   9.730  0.2896  0.2651  0.3219
21063W        W21927  12.113  10.778   6.726 -0.3608 -0.0992 -0.0558
21064W        W21928  10.110   6.193  10.099  0.1181 -0.1883  0.0757
21065W        W21929  12.699  12.352   8.486  0.0244 -0.2711  0.0969
21066W        W21930   9.468   9.275   5.413 -0.1919 -0.1234  0.4529
21067W        W21931  12.235  11.506   8.683 -0.0738 -0.0890 -0.3700
21068W        W21932  13.528  10.248   9.380 -0.1225  0.1022 -0.0403
21069W        W21933   0.948   9.562  10.050  0.4104 -0.2890 -0.0452
21070W        W21934  11.929   7.092   7.695  0.2505 -0.1403  0.0012
21071W        W21935   1.776   7.696  10.499 -0.0658  0.2147  0.1041
21072W        W21936  11.405   9.279  10.198 -0.1448 -0.0419 -0.1788
21073W        W21937  12.313  10.310   7.065 -0.1224  0.0904  0.2542
21074W        W21938  10.755   9.724   9.560  0.1217 -0.2097  0.1887
21075W        W21939  13.279   8.709   6.567  0.1189 -0.1260  0.3054
21076W        W21940  12.693   7.415   8.890 -0.0415 -0.0646  0.0138
21077W        W21941   9.944  11.455  10.018  0.0265 -0.2351  0.0991
21078W        W21942  11.401   7.627  12.136  0.0533 -0.1545  0.0775
21079W        W21943   9.231   6.985   7.170 -0.1275 -0.0531 -0.3739
21080W        W21944   1.122  10.628  10.297  0.2998  0.1966 -0.0990
21081W        W21945  13.394   8.614  11.854 -0.1767  0.0057  0.2613
21082W        W21946   0.246   7.829   8.458  0.0983  0.3086 -0.1542
21083W        W21947   1.464   8.155  10.287 -0.1301  0.2166 -0.0287
21084W        W21948   2.467   7.588  11.075 -0.3754  0.1423  0.1510
21085W        W21949  11.992   4.786   7.494 -0.1909 -0.1926 -0.2344
21086W        W21950  12.144   9.546  10.866  0.0517 -0.0205  0.2194
21087W        W21951   9.538  11.983   8.367 -0.0940  0.0509  0.0753
21088W        W21952   0.277   8.307   7.745  0.3207  0.2282  0.1398
21089W        W21953  11.393   8.044  11.250  0.0326  0.3123 -0.2697
21090W        W21954  13.254   6.944   8.063  0.0636 -0.1104  0.1636
21091W        W21955  11.295  10.628  11.509  0.1072  0.1889 -0.0429
21092W        W21956  12.964   8.658   7.203 -0.1044 -0.0523 -0.0312
21093W        W21957  13.295   9.699   9.471 -0.0288  0.0530  0.3188
21094W        W21958   0.164   9.775   8.304  0.0328 -0.1335 -0.1137
21095W        W21959  13.930   9.359  10.867 -0.3996  0.0360 -0.1207
21096W        W21960  11.973  10.280   8.318  0.3030  0.4603 -0.0586
21097W        W21961  12.941   9.984  10.376 -0.0901 -0.0468  0.1765
21098W        W21962  12.505   7.102   9.252 -0.0018  0.4289 -0.1634
21099W        W21963  10.751   7.841   7.454 -0.6980 -0.0721 -0.0639
21100W        W21964  10.402  10.995  11.352  0.1773  0.2345 -0.1985
21101W        W21965   1.019   8.456   7.281 -0.0103  0.4048  0.1390
21102W        W21966  11.076  13.291   9.098 -0.0777 -0.2016  0.1096
21103W        W21967  13.443  12.453   9.569 -0.0437  0.0586 -0.1228
21104W        W21968  11.256   8.839  10.438  0.0549  0.0078 -0.0888
21105W        W21969  11.828   8.906  10.547  0.2915 -0.2140 -0.1308
21106W        W21970  13.960   6.140   9.187 -0.2807 -0.0263 -0.0987
21107W        W21971  13.601   6.267   7.530  0.2198 -0.2173  0.0880
21108W        W21972  13.864  13.718  10.251  0.1552  0.1669 -0.0553
21109W        W21973  13.594  10.850   9.724  0.2976  0.0854 -0.0820
21110W        W21974   1.764  10.406   8.646 -0.0990  0.0325  0.3155
21111W        W21975  12.707   8.607   5.813 -0.0883  0.0610 -0.0874
21112W        W21976   0.965   8.348  10.516 -0.0664  0.1620  0.0792
21113W        W21977  13.177  10.849   9.956 -0.2298 -0.1536  0.1230
21114W        W21978  12.626   9.746   9.345 -0.0793  0.0924 -0.0534
21115W        W21979   1.323  10.439  11.192  0.0315 -0.2526  0.0970
21116W        W21980   1.208   7.864   7.485 -0.2285  0.0434  0.0587
21117W        W21981   0.728  11.342   9.206 -0.0182 -0.0453 -0.1339
21118W        W21982  12.888   8.698  10.358 -0.0020  0.2069  0.1374
21119W        W21983  12.274   9.177  11.749  0.4241 -0.0830 -0.0789
21120W        W21984   0.701   7.510   8.487 -0.2907  0.1105 -0.0922
21121W        W21985   0.243   9.431   7.889 -0.1696 -0.2034  0.0732
21122W        W21986  12.328  12.023   8.640 -0.1595  0.1656  0.0704
21123W        W21987  11.099   8.635   6.527 -0.0040  0.0741 -0.2478
21124W        W21988  13.076   9.401  10.789  0.1700 -0.3176 -0.2211
21125W        W21989  10.484  12.282   8.834 -0.2674 -0.0348  0.3297
21126W        W21990  13.171  10.963   7.451 -0.1111 -0.1455  0.0836
21127W        W21991  12.249   9.694   9.760  0.0618  0.0367 -0.3093
21128W        W21992  11.748   8.923   7.189 -0.0074 -0.0065 -0.0222
21129W        W21993  12.985   6.779  10.170  0.1257  0.0170 -0.0432
21130W        W21994  13.957  11.561   8.599  0.1946  0.2105 -0.1174
21131W        W21995   0.609  10.934   9.486 -0.0243 -0.2608 -0.1775
21132W        W21996  12.348  11.239   9.902 -0.3009 -0.0392  0.1911
21133W        W21997  10.375  11.528   9.046 -0.0043 -0.2530  0.1028
21134W        W21998   0.864  11.062   8.814  0.0203 -0.0032 -0.3022
21135W        W21999  12.513   9.602   8.197 -0.1819 -0.3296 -0.0717
21136W        W22000  12.624   7.560   9.444 -0.2571 -0.3107  0.2980
21137W        W22001  13.365   9.301   9.179  0.1356  0.0832 -0.1832
21138W        W22002  10.039   8.674   9.981  0.1885  0.1391 -0.0621
21139W        W22003  12.579  12.477   8.032  0.0968 -0.1560  0.1413
21140W        W22004   0.382  10.174   8.535  0.3835  0.0343  0.3592
21141W        W22005  12.441  10.973   8.823  0.0398  0.1432 -0.1346
21142W        W22006   0.609   8.617  10.838  0.2221 -0.0688 -0.0770
21143W        W22007  12.184  11.036  10.388  0.0959 -0.0227 -0.0479
21144W        W22008  11.156   9.407  11.068  0.4646 -0.1952  0.2830
21145W        W22009  13.579   9.869  12.114  0.3675 -0.1043  0.1452
21146W        W22010  12.773   9.856  11.428  0.1898 -0.1762  0.0862
21147W        W22011   0.034  10.154   9.229 -0.1232 -0.2910  0.0936
21148W        W22012  12.002   8.058   8.919  0.2811 -0.0396  0.1718
21149W        W22013  10.829   8.918   9.017  0.0588  0.0056 -0.1669
21150W        W22014   0.912   8.259  11.431 -0.0761 -0.2975  0.2237
21151W        W22015  12.060  12.494   9.223 -0.0372  0.0988  0.0737
21152W        W22016   1.135  10.010  10.248  0.0998  0.3565 -0.3842
21153W        W22017  13.223   9.837  12.499 -0.1606  0.1905  0.4388
21154W        W22018  13.437   7.973  11.085 -0.0120 -0.2555 -0.0568
21155W        W22019  12.092  11.534   6.262 -0.0468  0.2052  0.0635
21156W        W22020   0.682   9.250   8.710  0.0002  0.0207 -0.0362
21157W        W22021  11.254  11.160  11.552 -0.2423  0.0132  0.1222
21158W        W22022   0.310  11.300   9.564 -0.0011  0.2958 -0.1146
21159W        W22023  11.472  10.918   8.215 -0.1319  0.1030  0.1651
21160W        W22024  11.570   7.855  10.202  0.0658 -0.0951  0.2320
21161W        W22025   1.053  11.965   5.367  0.1505 -0.1589 -0.0807
21162W        W22026   0.292   9.922   7.798  0.0146  0.0531 -0.1522
21163W        W22027  12.969  10.445  10.156 -0.2075 -0.1486  0.0009
21164W        W22028  13.247  10.869   7.982  0.2301  0.0328 -0.3109
21165W        W22029  13.635   7.545   7.902 -0.2046  0.0088  0.0630
21166W        W22030  11.286   7.679   9.018 -0.2541  0.1158  0.0207
21167W        W22031  10.923  10.211   9.580  0.1441  0.0180 -0.0538
21168W        W22032  13.906  12.583   9.787 -0.1910  0.3768  0.0632
21169W        W22033  12.550  10.314   6.595  0.2489  0.0190 -0.0012
21170W        W22034  11.956   8.569   8.933  0.2314  0.1614  0.1814
21171W        W22035  10.529   8.455   0.991  0.0363  0.2338 -0.0397
21172W        W22036  10.439   6.977  10.605 -0.3342  0.1698 -0.0148
21173W        W22037  13.261   9.937   8.963 -0.0346  0.1049  0.0396
21174W        W22038  11.200   8.208   8.155 -0.1046 -0.0861  0.1751
21175W        W22039  13.153   9.619   6.247 -0.0035 -0.0191  0.0216
21176W        W22040  12.824   9.504   9.800  0.0516  0.2421 -0.0193
21177W        W22041  13.767   7.905   7.041 -0.2888 -0.1898  0.0746
21178W        W22042   0.154   8.783   9.452  0.0256 -0.0802  0.2199
21179W        W22043   9.417   9.498   8.898 -0.0166  0.3148  0.1151
21180W        W22044   9.853   7.019  10.020 -0.0635 -0.0452  0.1124
21181W        W22045  12.806   8.020   8.698  0.1386  0.0118  0.0864
21182W        W22046   9.808   8.183   9.641 -0.1951  0.1179 -0.1671
21183W        W22047   9.109  10.738  11.406 -0.0164 -0.0142 -0.0619
21184W        W22048  12.770   9.129  10.491 -0.1206 -0.1762  0.0633
21185W        W22049  14.010  12.417   8.616 -0.3073 -0.2546  0.1871
21186W        W22050  11.407  12.081   7.726 -0.0836  0.2680 -0.3069
21187W        W22051  11.903   9.966   9.499  0.0339 -0.1928  0.3308
21188W        W22052  12.957   8.998  12.613 -0.1457  0.2967 -0.1231
21189W        W22053  13.232   9.131  11.671  0.0365 -0.0539 -0.2534
21190W        W22054  12.857   8.997   9.897 -0.0440 -0.1816 -0.0855
21191W        W22055   0.740   7.482   5.323  0.0485 -0.2009  0.2789
21192W        W22056   1.251  13.334   8.733  0.2496 -0.0436 -0.2515
21193W        W22057  12.204  10.921  12.704 -0.2418 -0.1221  0.4594
21194W        W22058  12.098  11.244  11.181 -0.0087 -0.0500  0.0246
21195W        W22059  12.774  12.634   0.181 -0.0337 -0.0089  0.1676
21196W        W22060   9.235   8.599   5.889 -0.0201 -0.0459  0.0849
21197W        W22061   1.546  10.208   7.854  0.0274  0.0392  0.3502
21198W        W22062  10.935  10.001  11.992 -0.0358  0.2687  0.2982
21199W        W22063   1.479   9.931   8.555 -0.1437  0.2567 -0.1210
21200W        W22064  13.345  12.585  10.088  0.0222  0.0957  0.1216
21201W        W22065  13.603   7.107  10.017  0.1198  0.0056 -0.3646
21202W        W22066   9.424   8.916  11.699 -0.2683  0.1792  0.0477
21203W        W22067  12.791  11.408   8.598  0.0720 -0.2038 -0.0359
21204W        W22068  11.766   8.202   9.829 -0.0940 -0.0879 -0.0498
21205W        W22069  11.234   9.663   8.206  0.1083 -0.0463  0.2960
21206W        W22070  12.749   8.202  10.340 -0.0019 -0.1082  0.0649
21207W        W22071   2.778   9.682   9.110  0.2614  0.4746  0.2233
21208W        W22072   2.536  10.818  11.537  0.0653  0.3928  0.2466
21209W        W22073  12.513  12.447  10.044  0.1623 -0.0760  0.0781
21210W        W22074   8.904  11.671   8.921 -0.2963  0.0333 -0.2935
21211W        W22075  11.446  10.180   9.621  0.0140 -0.0082 -0.1647
21212W        W22076  11.694   8.923   8.719  0.2345 -0.2171 -0.0975
21213W        W22077   0.426  10.764   8.458  0.4308  0.0067 -0.1403
21214W        W22078  12.396   8.515   5.418 -0.1667  0.1611 -0.3139
21215W        W22079  11.729   9.628   9.928 -0.1732  0.0206 -0.2061
21216W        W22080   0.298  11.452   7.686  0.1358  0.0414  0.1216
21217W        W22081  13.247   8.852   9.003  0.2569 -0.4284  0.0075
21218W        W22082   1.100   9.074  10.114  0.2358  0.0848  0.1589
21219W        W22083   0.786  11.415   9.765  0.0805 -0.3134  0.2107
21220W        W22084  13.915  11.684   9.128  0.2207  0.1417  0.1726
21221W        W22085  13.568   8.599   8.634  0.1361 -0.0757  0.1774
21222W        W22086  12.352   9.162   9.658  0.1391  0.1217 -0.2882
21223W        W22087   0.542  11.881   6.146 -0.3102  0.3367 -0.3122
21224W        W22088   1.684   8.585   8.384  0.0707 -0.0803 -0.1021
21225W        W22089   0.299   9.104   9.054 -0.0464  0.0203  0.2291
21226W        W22090   2.067  11.896   9.031 -0.3220 -0.0295  0.0490
21227W        W22091  12.589   9.638  10.611 -0.0886  0.0767 -0.1050
21228W        W22092  13.009  10.774  11.040  0.0719 -0.2118 -0.3605
21229W        W22093  11.374  11.606  12.236  0.0544  0.0650 -0.0274
21230W        W22094  11.850  10.659   7.937 -0.1719 -0.3713  0.0671
21231W        W22095   1.470   9.483   8.797 -0.3072 -0.2346  0.2536
21232W        W22096  12.193   7.466  11.100 -0.3049  0.0512  0.1542
21233W        W22097  13.251  11.256  10.635  0.0481 -0.1376  0.1904
21234W        W22098  11.170  10.644   9.618  0.1217 -0.0212  0.4454
21235W        W22099   0.430  10.983   8.992 -0.1241  0.1928  0.1780
21236W        W22100  13.287  11.299   9.716  0.1023 -0.3707 -0.3209
21237W        W22101  12.809  11.996   9.454  0.0854 -0.1910  0.1592
21238W        W22102  13.347   8.810  12.425  0.0623  0.0495  0.1101
21239W        W22103   8.978   6.621   8.841 -0.1810 -0.0020  0.0039
21240W        W22104  12.682   7.729   9.901 -0.0881 -0.0048 -0.1022
21241W        W22105   1.224   7.836   6.503 -0.0594  0.0339  0.0880
21242W        W22106  11.704  12.679   8.838 -0.0968 -0.2242 -0.0665
21243W        W22107   9.959  10.677  11.203 -0.1318 -0.0775  0.1486
21244W        W22108  12.825  10.752   7.694 -0.1226  0.1534  0.1890
21245W        W22109  11.987   8.693   6.265  0.2590  0.2655  0.3846
21246W        W22110  11.479  12.868   9.837  0.1412 -0.0247 -0.1022
21247W        W22111   1.010   5.375   8.527 -0.0929 -0.1646 -0.1974
21248W        W22112  11.650  11.572   5.294 -0.1668 -0.0921 -0.0041
21249W        W22113   8.300   9.321   9.847 -0.1613 -0.0656 -0.1139
21250W        W22114   2.376   8.711   7.164  0.3120 -0.2020 -0.3142
21251W        W22115   0.367   8.848   8.605  0.0041 -0.1601 -0.2012
21252W        W22116   1.449   7.761   9.219 -0.2767 -0.0019  0.0485
21253W        W22117  10.379   8.548  10.403  0.3580 -0.3014  0.0798
21254W        W22118  11.516   9.637   9.464  0.0483 -0.0770 -0.3255
21255W        W22119   1.719   7.170   9.357  0.1957 -0.0649 -0.0687
21256W        W22120   1.013   6.403   8.164 -0.0677 -0.1211  0.2407
21257W        W22121  11.749  10.146   9.058  0.1797  0.0228  0.1739
21258W        W22122   0.443   9.826  11.441 -0.0783 -0.1005 -0.0597
21259W        W22123  10.515   6.718  13.473  0.1939 -0.0370  0.0338
21260W        W22124  11.392  10.198  13.625 -0.1553  0.2291 -0.1752
21261W        W22125   0.360   6.538   7.307 -0.2076 -0.2164  0.0722
21262W        W22126   0.420  10.283  10.094 -0.2127 -0.1715  0.1306
21263W        W22127  13.275   9.010  10.143 -0.0781 -0.0407 -0.0064
21264W        W22128  13.831   9.270   9.493  0.0545  0.2228  0.1707
21265W        W22129  10.735   8.704   8.592  0.2086 -0.1062 -0.1122
21266W        W22130  10.527   9.355  10.917 -0.0493  0.0351  0.2773
21267W        W22131   9.431   6.851   8.997  0.0220 -0.1977  0.2396
21268W        W22132  13.379  10.239   8.051 -0.0922 -0.0295  0.2098
21269W        W22133  12.168  12.159   8.188  0.0337  0.2386 -0.0030
21270W        W22134  11.837  10.511  10.354  0.0857 -0.1534  0.2832
21271W        W22135  13.702  12.145   8.887  0.1538 -0.2409 -0.0496
21272W        W22136  11.382   6.702   7.696  0.1495  0.0306  0.3376
21273W        W22137  13.851   9.194   8.940  0.0612  0.2390 -0.0252
21274W        W22138   1.431   8.815   9.052  0.2100  0.0228  0.0835
21275W        W22139   0.633  10.682  10.241  0.1861  0.2477  0.0271
21276W        W22140  12.791  11.669  10.886 -0.0354 -0.1991  0.0088
21277W        W22141  11.402   9.666  12.386 -0.0810 -0.1999 -0.0650
21278W        W22142   0.909   9.549  10.973  0.1555 -0.0730  0.2441
21279W        W22143  11.912  11.350   9.530 -0.0223 -0.0793  0.0251
21280W        W22144   0.869   0.109   8.098 -0.3348  0.0806  0.3083
21281W        W22145   0.024   7.340   8.168  0.0856  0.0549  0.0498
21282W        W22146   0.546   9.689   8.646  0.2384 -0.0755 -0.1332
21283W        W22147   0.998   7.715   8.892  0.2385 -0.1145 -0.0544
21284W        W22148  10.645  10.251   8.507  0.0347 -0.1238 -0.0989
21285W        W22149   1.757   8.496   8.970 -0.2331  0.1797 -0.1390
21286W        W22150  13.706  10.125  11.097  0.1528  0.2098 -0.1673
21287W        W22151   0.600   9.878   9.587  0.0132 -0.2441 -0.1322
21288W        W22152  13.314  11.067   9.295  0.2238 -0.0784  0.1336
21289W        W22153   0.648   6.279   9.822 -0.1821 -0.0678  0.0455
21290W        W22154   9.297  11.400  10.649  0.1649 -0.1098  0.0678
21291W        W22155  11.228   4.681   9.405  0.3899  0.1291 -0.0813
21292W        W22156   9.427   7.764  10.718 -0.0869  0.3037 -0.0690
21293W        W22157  10.417  12.676   6.855 -0.1365  0.0110 -0.0340
21294W        W22158  13.303  13.225   6.237  0.2244  0.1684  0.2913
21295W        W22159  10.604  12.085  11.025  0.0417 -0.2336  0.0193
21296W        W22160  13.876   6.623   6.481  0.1530 -0.2015  0.5117
21297W        W22161  11.227   8.906   9.521  0.2770  0.0812  0.0781
21298W        W22162   1.267   8.899   8.365  0.1388  0.1437  0.0089
21299W        W22163  11.094  10.747   6.905  0.3901  0.2224  0.2239
21300W        W22164  13.227   5.637   9.108 -0.1262  0.2136  0.0793
21301W        W22165  12.771   9.208   7.996 -0.0834  0.0354 -0.1749
21302W        W22166  12.419   8.398   8.926  0.2551 -0.1654 -0.1338
21303W        W22167  12.970  12.535   5.718 -0.0528 -0.0745 -0.0393
21304W        W22168  11.050   8.677   7.873  0.0234  0.3968 -0.3232
21305W        W22169  13.274   9.942  11.245 -0.5781  0.0448  0.1344
21306W        W22170   2.065  10.461  10.773 -0.1344  0.2639 -0.2833
21307W        W22171  13.687   9.474  13.039  0.1096  0.1288 -0.0557
21308W        W22172  10.951  10.038   6.490  0.3258 -0.0410 -0.0925
21309W        W22173  14.001  11.143   6.372  0.1448 -0.0443 -0.0651
21310W        W22174  12.062  10.186  13.128 -0.0285  0.0493  0.5780
21311W        W22175   0.707   9.549   9.152  0.0185  0.1665 -0.1564
21312W        W22176  12.558   6.492   9.176  0.4037 -0.0228 -0.0745
21313W        W22177  12.467  11.443   9.119  0.0149  0.2138  0.6202
21314W        W22178   1.057   9.215   9.031 -0.2250  0.0056 -0.1125
21315W        W22179  11.716  12.408   7.522 -0.0512  0.1330  0.0818
21316W        W22180  12.668   9.242   7.456  0.1497 -0.0773 -0.0855
21317W        W22181  12.759  10.377   8.769 -0.0797 -0.4686 -0.1515
21318W        W22182   0.147  10.243   7.463 -0.1439  0.0253  0.2045
21319W        W22183  11.892   9.459  10.410 -0.3473 -0.3371  0.3396
21320W        W22184  14.007   8.569   8.887  0.0140  0.0211  0.3853
21321W        W22185   9.333   5.699  12.555 -0.0671  0.2991  0.0769
21322W        W22186  13.163   8.615  13.076  0.1141  0.0682  0.2308
21323W        W22187  10.804   6.577  12.142 -0.2309 -0.0276 -0.1159
21324W        W22188   9.170   8.884   9.730  0.1592 -0.0021  0.0368
21325W        W22189  13.485   9.762   8.080 -0.1589 -0.2772  0.0811
21326W        W22190   9.852   8.282  10.591  0.1748  0.0279 -0.1244
21327W        W22191  10.990   7.583   9.435  0.2081  0.1131 -0.0847
21328W        W22192   2.536  10.533  11.917  0.3372  0.0257  0.2776
21329W        W22193   0.327   9.733  12.088  0.3960  0.0392 -0.0405
21330W        W22194   0.868   8.789   8.872 -0.3051 -0.1770 -0.0747
21331W        W22195  13.795  11.674   7.652  0.0241  0.0137 -0.1476
21332W        W22196  11.924  10.107  10.637  0.3431 -0.4186 -0.2131
21333W        W22197   9.361  11.262   8.871  0.0318 -0.1363  0.0848
21334W        W22198   2.128   6.097   7.626 -0.2247  0.0659  0.0694
21335W        W22199  10.801  10.549  11.863  0.0088 -0.0629 -0.1200
21336W        W22200  12.543  12.839   7.650 -0.1890 -0.2721  0.0644
21337W        W22201  12.932   9.502   8.957 -0.1376 -0.1928  0.0698
21338W        W22202  12.778  11.066  10.612  0.0964  0.1631  0.1629
21339W        W22203  13.103  10.054   9.914  0.0541 -0.1650 -0.0083
21340W        W22204  13.276   8.371  10.492 -0.0470 -0.0605  0.1740
21341W        W22205   0.227   9.617   9.129 -0.1740  0.3990 -0.1328
21342W        W22206   9.963  10.557   9.871  0.2001  0.0552 -0.0207
21343W        W22207  13.975  10.480   8.441  0.2484  0.1638  0.1609
21344W        W22208   0.054   7.619   7.650 -0.0200 -0.2040  0.2304
21345W        W22209  10.423   9.863   2.221  0.0228 -0.2363 -0.2706
21346W        W22210   0.214  10.805  13.396  0.3883  0.1700 -0.0759
21347W        W22211   1.058  12.138  12.358  0.1541 -0.1387 -0.1861
21348W        W22212  12.807   9.751  13.785 -0.1040 -0.1175  0.0541
21349W        W22213  11.711   7.691  13.356 -0.2925 -0.4233 -0.2196
21350W        W22214  11.688   8.775  12.408  0.1925  0.1714  0.1660
21351W        W22215   0.347   0.180   0.876  0.3725  0.1721 -0.2590
21352W        W22216   0.423   7.218   9.826 -0.0867  0.0021  0.0486
21353W        W22217  11.243  11.884  11.586 -0.2849 -0.0031 -0.1177
21354W        W22218  12.122   4.829  12.510 -0.1429 -0.0792  0.1033
21355W        W22219  13.888   9.976  12.899 -0.0557  0.0296  0.1706
21356W        W22220  12.140   8.021  13.899  0.2079  0.1596  0.0922
21357W        W22221  11.806   7.728  12.561 -0.0998  0.0925 -0.1191
21358W        W22222  11.223   9.716  12.923 -0.1966 -0.0969  0.0066
21359W        W22223  10.588   8.219  13.568 -0.2981  0.1430 -0.0121
21360W        W22224   9.669   7.906  12.669  0.2877  0.1894  0.1361
21361W        W22225  12.954   8.574  11.320 -0.0118 -0.2842 -0.0948
21362W        W22226  11.546   8.465  12.868 -0.0088 -0.0652 -0.3740
21363W        W22227  11.423  10.044   2.409  0.5051  0.2029  0.2002
21364W        W22228  11.713  10.390  11.520  0.2450  0.2474 -0.0299
21365W        W22229   0.947   7.383  13.461  0.0947  0.1046 -0.0728
21366W        W22230  12.528   5.176   0.645  0.0073 -0.0717 -0.3804
21367W        W22231  11.374   8.811  13.392  0.1965  0.0004 -0.0788
21368W        W22232  12.119   7.038  10.223 -0.2179  0.0616 -0.0093
21369W        W22233   1.783   7.672   9.529  0.0735  0.3956 -0.0152
21370W        W22234   0.071   9.186  13.237  0.2647  0.1917 -0.0357
21371W        W22235  12.427  10.493  12.761  0.0549  0.1178 -0.3590
21372W        W22236  13.071   9.551  12.137 -0.0830  0.1953  0.3241
21373W        W22237  12.160   3.997  13.678 -0.0313 -0.1096 -0.1398
21374W        W22238  11.111   9.144  13.618  0.1480  0.2388 -0.2154
21375W        W22239  10.136   9.329  12.429  0.1745  0.4132 -0.0772
21376W        W22240  12.720   7.023   2.165  0.2997 -0.1139  0.1753
21377W        W22241   0.092   8.272  12.953 -0.0296  0.0739 -0.0508
21378W        W22242  13.984   8.966   0.754 -0.0492  0.2020  0.0048
21379W        W22243   0.777   9.808  10.570  0.1635  0.1904  0.3407
21380W        W22244  12.961   8.960  12.055 -0.0167 -0.2039 -0.0841
21381W        W22245   0.563  12.710  12.452 -0.0223  0.1067 -0.3090
21382W        W22246  11.660   8.993   0.197  0.1705 -0.0591  0.1278
21383W        W22247  13.370   9.296  12.624  0.0515 -0.0184 -0.2401
21384W        W22248  10.922  12.104   0.498  0.1908  0.0038  0.2363
21385W        W22249  11.978  10.292  12.618  0.2413 -0.1497  0.2802
21386W        W22250  12.684  11.262   0.144  0.1253  0.3321  0.2734
21387W        W22251  11.665   9.612   1.056  0.1332 -0.0252  0.1193
21388W        W22252  12.671  10.238  13.809 -0.1750  0.2489  0.1543
21389W        W22253  12.244   8.071  12.596  0.1527  0.1293 -0.0379
21390W        W22254   9.288   9.959  12.517 -0.0148 -0.1290  0.0694
21391W        W22255  11.574   9.416  12.791 -0.0787 -0.2565  0.3806
21392W        W22256  11.135  10.120  13.172  0.0677 -0.2971 -0.2032
21393W        W22257  13.276  10.585   2.437 -0.0913  0.0352  0.0162
21394W        W22258  13.889   0.598  13.447 -0.0126 -0.0023  0.2470
21395W        W22259  12.441   6.707  11.874  0.2797  0.1298  0.4364
21396W        W22260  12.101   8.112  13.306 -0.1007  0.2858 -0.1919
21397W        W22261  13.808  10.812  13.600  0.1262 -0.0290  0.2132
21398W        W22262   9.560   8.325   0.352 -0.0074 -0.0342 -0.0535
21399W        W22263  12.170   9.109   0.008  0.1523 -0.2674  0.0711
21400W        W22264   0.825   9.395  12.546  0.2592  0.1128  0.0388
21401W        W22265  13.594   8.825  12.887 -0.1060 -0.1771  0.0173
21402W        W22266  11.884   7.408  12.174  0.1601  0.0502  0.1266
21403W        W22267  13.116   9.084   1.233  0.0140 -0.1309 -0.0808
21404W        W22268  12.914  10.091  12.742 -0.1322  0.0574  0.3436
21405W        W22269  13.290   8.050   8.691 -0.0926 -0.3124 -0.1842
21406W        W22270  11.318   7.957  12.588 -0.3033 -0.3130  0.1998
21407W        W22271  11.817  11.471  13.917 -0.0821 -0.1142 -0.0280
21408W        W22272  11.560   9.242  12.322 -0.0917  0.0009 -0.1115
21409W        W22273   1.225   9.643  10.609  0.0556  0.2927  0.1273
21410W        W22274  11.028   7.712   8.403  0.1919 -0.1921 -0.0207
21411W        W22275  13.830   8.922  12.281  0.3385  0.3991 -0.2449
21412W        W22276   0.320  10.901   1.291 -0.1875 -0.0650  0.0620
21413W        W22277   0.263   9.980  12.593  0.4895  0.0140  0.0605
21414W        W22278  10.956   7.941  12.203 -0.0159  0.3172 -0.0530
21415W        W22279  10.696   9.348  13.737  0.2103 -0.3667  0.0549
21416W        W22280  12.790   8.363   2.626  0.3977  0.3059 -0.1980
21417W        W22281  13.041  10.996  13.308  0.0002 -0.0561 -0.4722
21418W        W22282  13.952   8.491   0.600  0.0664  0.0492  0.4056
21419W        W22283  11.773   8.257  12.475  0.1593 -0.0072  0.1656
21420W        W22284  11.358   8.771  13.912  0.1232 -0.0054 -0.1475
21421W        W22285  10.442   5.602   1.255 -0.2051  0.3193 -0.0213
21422W        W22286  12.762  12.363  12.131  0.1376  0.2112 -0.1073
21423W        W22287   0.704  10.341  12.180  0.1461  0.1981  0.2476
21424W        W22288   0.386  10.899  11.177 -0.0525 -0.1368  0.1431
21425W        W22289   0.469  10.161  12.976 -0.1286  0.0083 -0.1007
21426W        W22290  12.450   9.458  13.173  0.1890 -0.1870  0.0259
21427W        W22291  13.083   7.579  12.860  0.2041 -0.0460 -0.2112
21428W        W22292  12.281   7.636  13.508 -0.0621 -0.1183  0.0596
21429W        W22293   1.078   8.736   0.504  0.1023  0.1427 -0.1027
21430W        W22294  11.861   8.726   0.629  0.0941  0.1574  0.2763
21431W        W22295  13.666   8.867   3.978  0.0390 -0.2037  0.2572
21432W        W22296   1.382   6.470  11.483  0.3986 -0.1682  0.0880
21433W        W22297  13.259  13.201   0.756 -0.1316 -0.0278  0.0402
21434W        W22298  12.233   7.779  11.944  0.0328  0.0233 -0.3052
21435W        W22299  12.793   9.413  11.727  0.2022  0.0547 -0.0380
21436W        W22300   0.912  12.046  13.842  0.2439  0.1172  0.1755
21437W        W22301  12.153  10.354   2.033 -0.2404  0.0661  0.2434
21438W        W22302  11.830   9.716  12.142 -0.1760  0.0774 -0.0053
21439W        W22303  11.165   9.843  10.805  0.3560 -0.2114  0.1788
21440W        W22304  10.814  11.820   9.004  0.0025  0.4942 -0.0680
21441W        W22305  12.838   9.311   1.593 -0.1807 -0.2630 -0.3151
21442W        W22306  11.558  10.144  12.234  0.2177  0.3400 -0.0977
21443W        W22307  12.744   8.915  13.108  0.4722 -0.1276  0.0226
21444W        W22308  13.960   8.263  11.897 -0.0989  0.0663 -0.1108
21445W        W22309  12.412   9.575  11.991  0.0259  0.0623 -0.0529
21446W        W22310  13.142   9.510   0.211  0.0311 -0.2987  0.2738
21447W        W22311  12.566   6.961   0.246 -0.3738 -0.0600  0.1493
21448W        W22312  10.354   9.485  11.911  0.0427 -0.0135 -0.1411
21449W        W22313   0.597  11.041   0.146 -0.1893 -0.1632  0.1459
21450W        W22314  11.947   5.477  10.720 -0.0077  0.2307  0.1474
21451W        W22315  12.732   9.654   0.531  0.0496  0.2621  0.0913
21452W        W22316   2.134   7.480  12.774  0.0453 -0.1864 -0.1349
21453W        W22317  12.651   7.750  13.996 -0.1170 -0.1181 -0.0309
21454W        W22318  13.724   7.206  12.617  0.2263  0.2339  0.1642
21455W        W22319  11.077   9.347  12.584 -0.1884  0.0101  0.0006
21456W        W22320  11.345   8.472  10.835 -0.0532 -0.1949 -0.0204
21457W        W22321  12.093   5.180  10.347 -0.2751  0.2153  0.1278
21458W        W22322  11.238   9.762   1.369  0.2486 -0.3121 -0.0120
21459W        W22323  11.161   8.128  13.073  0.2845  0.0822  0.2061
21460W        W22324   9.622  11.518   2.422  0.1046 -0.0083  0.1502
21461W        W22325  11.029   9.856  10.307  0.0422 -0.0391 -0.0717
21462W        W22326  10.643   9.056  13.224  0.0831  0.1872  0.2396
21463W        W22327   0.120   7.997  10.830 -0.0134 -0.0894  0.3034
21464W        W22328   0.604   8.760  13.752  0.2392  0.3684  0.1725
21465W        W22329  12.248   6.213   0.101 -0.0474  0.1137  0.1403
21466W        W22330  11.736   7.348  13.004  0.2975  0.0513  0.0769
21467W        W22331   0.001  10.070  12.140  0.0429 -0.1401  0.0225
21468W        W22332  11.624   9.960   3.332  0.0560 -0.2275  0.0333
21469W        W22333  12.942  10.168   2.371  0.2121 -0.0692 -0.0971
21470W        W22334  11.452  10.240  10.585 -0.1839 -0.0446 -0.1751
21471W        W22335  13.016   5.524  13.851  0.1283 -0.0616 -0.1266
21472W        W22336  13.268  12.074  13.298 -0.0112 -0.1635  0.3728
21473W        W22337  12.735  10.689  11.917  0.2941 -0.1704  0.0084
21474W        W22338  12.855   8.625  10.859 -0.1509 -0.0710 -0.1539
21475W        W22339  12.028   8.526  10.158 -0.2999 -0.1060  0.1400
21476W        W22340  12.105   6.494  11.405 -0.2194 -0.1005 -0.1381
21477W        W22341   0.516   8.245   1.812 -0.0539 -0.1937  0.0662
21478W        W22342  12.513  10.181  12.374 -0.2439 -0.1624  0.2633
21479W        W22343   0.390   9.063  11.543  0.1741  0.1301  0.2130
21480W        W22344  10.900   9.456  13.175  0.0116 -0.2607 -0.1282
21481W        W22345   2.814   8.327  11.899 -0.1976  0.1716 -0.1177
21482W        W22346  11.470   9.236  10.751 -0.0679  0.1104  0.0836
21483W        W22347   1.522   8.526   9.492 -0.0463  0.0686  0.2024
21484W        W22348   8.626   5.411  13.172  0.1342 -0.2562 -0.1124
21485W        W22349  12.456   9.434  10.165  0.0423 -0.0502 -0.3633
21486W        W22350   3.029   9.541   9.572  0.1461 -0.0379  0.3119
21487W        W22351   9.268   9.212  13.366 -0.1741 -0.0695  0.0111
21488W        W22352  12.388   5.661  11.692  0.0145  0.2410  0.1623
21489W        W22353   9.501   5.358  11.219 -0.1572 -0.3069 -0.1580
21490W        W22354  13.317   8.294  11.471 -0.0584 -0.1381  0.1955
21491W        W22355  13.057  10.489  13.122 -0.0644 -0.1181  0.1382
21492W        W22356  12.014  11.252  13.487  0.0055 -0.2366  0.2621
21493W        W22357   9.983   9.769   2.556  0.0630  0.1357  0.1269
21494W        W22358  11.778   9.309  11.847  0.4042 -0.2846 -0.1098
21495W        W22359  12.036  11.797  13.612 -0.2124  0.0800 -0.3912
21496W        W22360   0.361   7.472  13.714 -0.0714  0.0349 -0.0716
21497W        W22361   1.133   8.634   9.917  0.0142  0.1131  0.0547
21498W        W22362   1.560   9.470  13.483 -0.2133  0.0322  0.3735
21499W        W22363  12.428   8.909  10.153 -0.0701 -0.0788  0.1705
21500W        W22364   1.384  11.114  12.132  0.0120  0.1476  0.0127
21501W        W22365  12.693   9.449   1.095  0.0693 -0.1554 -0.1771
21502W        W22366   0.127   9.837  11.040 -0.1013  0.1527 -0.1082
21503W        W22367   9.924   6.795   2.875 -0.0558 -0.0710 -0.1487
21504W        W22368  12.989   8.073  13.243 -0.0050  0.0702  0.0724
21505W        W22369  13.451   9.595  11.707 -0.0481 -0.1404  0.5292
21506W        W22370   9.323   8.884  12.783 -0.0557 -0.2099 -0.1777
21507W        W22371  11.942  12.441  13.940  0.0512 -0.4201  0.1588
21508W        W22372   0.624  12.413   2.186 -0.1362 -0.0424 -0.0761
21509W        W22373  13.577  11.293   3.264  0.0954 -0.1055 -0.2286
21510W        W22374   0.671   9.260  11.965 -0.0183 -0.0798  0.1045
21511W        W22375   0.840   8.590   1.797  0.0600 -0.3164  0.0880
21512W        W22376  13.850   8.688  13.358 -0.1832  0.1645 -0.2295
21513W        W22377  13.299   8.454  10.987  0.0340 -0.0192  0.0892
21514W        W22378  10.843  11.660  11.472 -0.1101  0.6335 -0.0818
21515W        W22379   0.111  10.861  12.513  0.0592 -0.2934  0.0506
21516W        W22380  11.792   7.914  12.055 -0.1543 -0.3138 -0.4418
21517W        W22381  12.090   0.387   1.767 -0.0509 -0.0641  0.2650
21518W        W22382  12.110   9.663  12.543  0.1270  0.1578 -0.3588
21519W        W22383  11.833  11.371  12.097  0.0275 -0.1183  0.1916
21520W        W22384   2.325   9.936  13.298  0.0646  0.0383  0.2248
21521W        W22385   1.874  10.057  13.191 -0.0880 -0.2984  0.2991
21522W        W22386  11.639   9.145   9.724  0.0355  0.2917  0.0488
21523W        W22387  11.950   9.225  13.290 -0.0119  0.0245 -0.4006
21524W        W22388  12.495  11.841  12.861  0.1725  0.3476  0.4043
21525W        W22389  12.764   7.305  13.199  0.2921  0.2525  0.2340
21526W        W22390  13.336  11.368  11.499 -0.1602 -0.1101 -0.2485
21527W        W22391  12.526   9.238  12.744 -0.0323 -0.1492  0.0247
21528W        W22392   0.989   9.174  13.691  0.0580  0.0337 -0.1055
21529W        W22393   9.089  11.251  11.172 -0.2084  0.0498  0.2450
21530W        W22394  11.687   9.046  13.728  0.0687  0.0305  0.0949
21531W        W22395  13.640  10.435   0.009 -0.1783  0.0455  0.0758
21532W        W22396  10.236   7.308   0.498 -0.0702 -0.0922  0.3611
21533W        W22397   1.119  11.038  12.783  0.0138 -0.0050  0.0185
21534W        W22398  12.846   7.616   1.151  0.1458 -0.0202 -0.1204
21535W        W22399  12.303   8.761   0.415  0.1363  0.1062 -0.2170
21536W        W22400   8.948   9.049   0.710  0.0719  0.4622  0.0341
21537W        W22401  11.672  11.546   1.214  0.1873 -0.2881  0.3131
21538W        W22402  13.644  11.884   1.156  0.3072 -0.0907 -0.2769
21539W        W22403  10.338   9.462  13.363 -0.4467  0.1183 -0.0659
21540W        W22404   9.549   9.463  13.742 -0.1503 -0.3683 -0.0028
21541W        W22405  10.742  13.616   1.971  0.0691 -0.0268  0.2039
21542W        W22406  12.931   9.914  10.919  0.5172  0.0741  0.0794
21543W        W22407  11.640  10.913  11.794 -0.0413 -0.1045  0.0332
21544W        W22408   1.426   9.178  10.487  0.0146 -0.1405 -0.0779
21545W        W22409   0.333   9.522  12.598 -0.1250 -0.0091  0.0592
21546W        W22410  13.496   7.015  11.035  0.2680  0.0544  0.0296
21547W        W22411   9.517   7.589  13.043 -0.0587  0.3564  0.0919
21548W        W22412  11.483   9.812  13.901  0.0911  0.0735  0.0949
21549W        W22413  13.712  10.613  12.094  0.3003 -0.0073 -0.0864
21550W        W22414  13.156   8.354  12.303  0.2852 -0.0602  0.0147
21551W        W22415  11.888   0.369  13.047  0.3020  0.0189  0.0075
21552W        W22416  10.375  11.994  11.518 -0.1555  0.0035 -0.0276
21553W        W22417  13.617  10.649  10.242 -0.1674 -0.0655 -0.0885
21554W        W22418  13.681  10.331   2.511 -0.3906 -0.1981  0.0225
21555W        W22419   1.130   7.146  12.909 -0.3182  0.0952 -0.2527
21556W        W22420   9.974   7.535  11.839 -0.1549  0.1321 -0.1815
21557W        W22421  10.256  12.008   0.768  0.1627 -0.1805 -0.2642
21558W        W22422  13.684   8.410  12.249  0.0474 -0.3416  0.1544
21559W        W22423   0.647   8.447  12.396 -0.1828  0.1537 -0.3122
21560W        W22424   0.466  11.918  13.596  0.1602 -0.2137 -0.0752
21561W        W22425  10.400   9.424   1.249  0.0028  0.1409  0.1046
21562W        W22426   9.752   6.277  11.882  0.3044 -0.0767  0.0026
21563W        W22427   1.688   9.327  11.907 -0.2841 -0.0935 -0.0836
21564W        W22428   1.203  11.554   2.238 -0.0328  0.0811  0.3257
21565W        W22429  10.966   9.849  12.489  0.1504  0.1188  0.1124
21566W        W22430  12.095  10.582  13.957  0.2452  0.2075 -0.1384
21567W        W22431  10.372   9.519   0.657 -0.3031  0.0768  0.0912
21568W        W22432  13.003   9.136  13.548 -0.0359  0.0194 -0.3102
21569W        W22433  10.065   9.327  12.953  0.0475 -0.0248 -0.5988
21570W        W22434  11.645  10.059   1.286 -0.1088 -0.0691 -0.2734
21571W        W22435  13.238  10.636  12.078  0.0333  0.2333 -0.1651
21572W        W22436  12.050  10.809  11.684  0.3182 -0.1232  0.1283
21573W        W22437  12.262   7.100  11.490 -0.0546  0.1730 -0.2419
21574W        W22438  11.656   9.459  11.390  0.0091 -0.1673  0.0001
21575W        W22439  12.211   5.773  12.157  0.1866  0.2276  0.0485
21576W        W22440  12.966  10.298  11.411 -0.1535 -0.0955  0.1952
21577W        W22441  12.694   7.290  10.755  0.0101  0.1878 -0.2860
21578W        W22442  12.051  11.832  11.279  0.1034 -0.3109 -0.0937
21579W        W22443  13.263  11.542  12.385  0.1635 -0.0564  0.1981
21580W        W22444  10.968   8.321  12.637  0.1976  0.0062 -0.0914
21581W        W22445  11.450   5.330   9.859  0.0220  0.0141 -0.1442
21582W        W22446  13.108  10.839  11.580  0.0419 -0.3165  0.1448
21583W        W22447  11.949  11.748   9.945 -0.4116  0.0493 -0.1356
21584W        W22448  10.504   7.966   1.249  0.2111  0.1997  0.1471
21585W        W22449  10.210   8.917   0.240 -0.0089 -0.1157  0.3661
21586W        W22450   9.083   5.335  12.202  0.0198 -0.3166  0.2492
21587W        W22451  10.362   7.995   2.209 -0.0401  0.4039 -0.2128
21588W        W22452   8.967   7.459  12.871 -0.3284  0.2214 -0.0861
21589W        W22453   1.945  10.220   2.217 -0.0340 -0.1859 -0.1346
21590W        W22454  13.515  10.939  13.160 -0.0507 -0.2771  0.0263
21591W        W22455  13.056  10.991  13.891 -0.1977  0.0400  0.0337
21592W        W22456  12.561  12.552  11.517 -0.0192  0.2254  0.2298
21593W        W22457  13.642   9.911   9.755 -0.0017 -0.2985 -0.0469
21594W        W22458  10.169   8.921  13.312 -0.0537  0.0156 -0.1476
21595W        W22459  12.079   8.411  12.880 -0.1978 -0.0177  0.0208
21596W        W22460  10.429   9.978  11.608 -0.1901  0.3900  0.2187
21597W        W22461   1.489   8.831  12.618  0.2534  0.2173 -0.1157
21598W        W22462   0.148   7.416  10.696 -0.2447 -0.2693 -0.1607
21599W        W22463  11.950   8.669  13.468 -0.2543 -0.3665 -0.0152
21600W        W22464   0.395   9.382  11.138 -0.2177  0.0088  0.2304
21601W        W22465  13.546   9.444   0.609  0.1661 -0.0293 -0.1204
21602W        W22466  11.596   6.686  11.263  0.0553 -0.0835  0.0475
21603W        W22467  10.185   8.054  13.896  0.3918  0.0873 -0.0265
21604W        W22468  12.230   9.649  11.467 -0.2448 -0.0058 -0.2075
21605W        W22469   1.612  11.985   0.380 -0.0277  0.0699  0.1724
21606W        W22470  11.206   8.789  11.364 -0.1523  0.2314 -0.0474
21607W        W22471  12.658   8.876   1.362  0.2791  0.3082 -0.1275
21608W        W22472  10.424   9.346   0.155  0.1933 -0.2680 -0.2610
21609W        W22473   0.345  10.167  11.773 -0.1539 -0.0981 -0.0558
21610W        W22474  11.416  12.544  13.439 -0.1686 -0.2169  0.0513
21611W        W22475  13.174  12.730  13.951 -0.2134  0.1802  0.1315
21612W        W22476   0.976   8.563   9.430  0.1838 -0.1293  0.2232
21613W        W22477   0.171   9.259  11.936  0.1781  0.1297  0.1164
21614W        W22478   0.032  11.671  11.418  0.0198 -0.0004 -0.1461
21615W        W22479  11.201  10.472   1.146  0.0507  0.0727  0.0379
21616W        W22480  11.805  11.980   0.025  0.1449  0.0097 -0.2528
21617W        W22481  12.687  10.318   0.232 -0.0053  0.0658 -0.1877
21618W        W22482  11.583   8.637   1.361  0.4602  0.0350 -0.1840
21619W        W22483   1.131  10.026  12.054  0.1503  0.0983  0.0332
21620W        W22484   0.933  12.551   0.454  0.1947  0.1565  0.1251
21621W        W22485  11.276   9.343   0.057 -0.0687  0.2624 -0.0049
21622W        W22486   2.151   9.268  11.718  0.1424 -0.1280 -0.1167
21623W        W22487  11.197   9.436   0.846  0.0240  0.0046  0.1947
21624W        W22488  10.228   4.611   0.113 -0.0998  0.0814 -0.1729
21625W        W22489  10.648   0.413   3.680 -0.2791 -0.2488  0.0969
21626W        W22490  13.660  13.502   0.765  0.2087 -0.2460 -0.0388
21627W        W22491  13.797   0.704   1.584  0.2993  0.1052  0.1165
21628W        W22492   0.013   1.083   0.495  0.0134 -0.1749 -0.1501
21629W        W22493  12.467  13.263   1.931  0.0737  0.0812  0.1883
21630W        W22494  12.557  12.474   3.986  0.0090  0.1183  0.1260
21631W        W22495  12.960  10.538   4.745 -0.0403 -0.0404  0.4620
21632W        W22496   1.332  11.606   3.940  0.1657 -0.0019  0.0670
21633W        W22497  13.218  13.066  13.513  0.0373 -0.0861 -0.1851
21634W        W22498  12.074  11.195   3.683 -0.0002  0.0438 -0.1040
21635W        W22499  12.441  11.777   1.892 -0.0699  0.3383  0.2964
21636W        W22500  12.381   1.276   6.411 -0.1224 -0.3574 -0.0845
21637W        W22501   0.211   1.334   1.823  0.0566 -0.0716 -0.6030
21638W        W22502   8.501  11.357   4.911  0.2131  0.0378  0.0540
21639W        W22503   8.294  12.446   4.931  0.1322 -0.1150  0.0376
21640W        W22504  13.325  11.361   3.786  0.1207 -0.1975 -0.2117
21641W        W22505  13.807  13.973   2.052  0.1665  0.0665  0.0951
21642W        W22506  10.498   9.873   6.188  0.3690 -0.1357 -0.0007
21643W        W22507   8.339  12.720   4.506  0.1199 -0.0694 -0.0471
21644W        W22508  10.220  12.060   4.272 -0.1087 -0.3240  0.0006
21645W        W22509  11.716   1.464   3.837 -0.1192 -0.3436 -0.2469
21646W        W22510  11.469   1.806   3.446 -0.4888 -0.0419 -0.1712
21647W        W22511  12.104  12.384   5.404 -0.0306 -0.2166 -0.1552
21648W        W22512   2.112   0.938   1.128 -0.2349 -0.0950 -0.1640
21649W        W22513  12.580   0.545   3.473  0.1087  0.0998  0.1000
21650W        W22514  11.160  13.722   4.192  0.0837 -0.0093 -0.1790
21651W        W22515  12.838  12.064   4.046  0.1536 -0.0634 -0.1906
21652W        W22516  10.418  11.892   4.710 -0.2226  0.1513 -0.2250
21653W        W22517  12.606  13.248   2.406 -0.1284 -0.0092 -0.0340
21654W        W22518   9.764  11.633   1.582 -0.0154  0.0971 -0.1678
21655W        W22519   1.371  13.268   3.745  0.0325  0.0992 -0.1502
21656W        W22520  12.813  12.656  13.625  0.0112  0.1002 -0.2047
21657W        W22521  11.546  13.353   3.167  0.2349  0.0417  0.0217
21658W        W22522  13.936   0.844   1.054  0.2888  0.3334 -0.0237
21659W        W22523  12.326  12.277  12.815  0.1065 -0.0824  0.0019
21660W        W22524  13.828   0.183   3.758  0.2244  0.2081 -0.1180
21661W        W22525  13.032  13.598   0.398  0.1140  0.2525 -0.0467
21662W        W22526   0.476  11.335   2.115 -0.0569 -0.1940 -0.0805
21663W        W22527   1.107   1.018   0.500  0.1971 -0.0981  0.5230
21664W        W22528  13.507  13.545   2.054  0.0047 -0.0033  0.0535
21665W        W22529  12.109   2.382   1.491 -0.1471 -0.0032 -0.1768
21666W        W22530  11.951  11.105   1.315  0.0338 -0.1250 -0.3598
21667W        W22531  13.237  12.879  12.644  0.1877 -0.1699  0.1211
21668W        W22532   8.734   0.223   3.161 -0.1330  0.1199 -0.0014
21669W        W22533   0.416  13.532   1.491  0.1704  0.0509 -0.0187
21670W        W22534  12.388  12.206   2.313  0.3424  0.3889  0.4104
21671W        W22535   0.430  10.165   0.640 -0.2813  0.3097 -0.0304
21672W        W22536  11.662  12.580   0.355  0.0278 -0.1274  0.1852
21673W        W22537  13.883  11.634   3.100  0.0127  0.0892  0.1503
21674W        W22538   9.035   0.374   0.582  0.0011  0.0300  0.0917
21675W        W22539   0.366   0.677   2.434  0.0805  0.3452  0.3559
21676W        W22540  13.360  12.154   1.476  0.1690 -0.0217 -0.1138
21677W        W22541  13.078  12.518   2.858  0.2938 -0.1620 -0.0389
21678W        W22542  10.555  10.853   3.222  0.0319  0.2861  0.1958
21679W        W22543  10.696  13.400   1.473  0.2533  0.0456  0.0921
21680W        W22544  11.146   0.421   3.586  0.3353  0.2652  0.1329
21681W        W22545  13.340  13.224   1.699 -0.0638  0.2711  0.1209
21682W        W22546   0.317   0.720  13.688  0.1259  0.1857  0.1656
21683W        W22547  10.885   0.888   3.423 -0.1092 -0.2212  0.0123
21684W        W22548  12.468  12.467   5.746  0.2645  0.1717  0.1160
21685W        W22549  10.992  12.143   3.140  0.0358  0.2516 -0.2485
21686W        W22550  13.024  11.346   0.670  0.0519  0.0611  0.1828
21687W        W22551  13.974  11.772   5.464 -0.1138 -0.0848 -0.2084
21688W        W22552  11.444   9.380   1.633  0.1616 -0.2833  0.1075
21689W        W22553   0.055  10.581   3.522 -0.0499 -0.0095  0.0488
21690W        W22554  13.610  12.447  13.983  0.2971  0.0793 -0.0935
21691W        W22555  13.109  11.536   3.224  0.1291  0.1534 -0.0728
21692W        W22556  10.656  11.251   1.672 -0.0560 -0.0973  0.0147
21693W        W22557  11.147  13.538   2.309 -0.0659  0.0360  0.1378
21694W        W22558  13.424  11.795  12.861 -0.1412  0.1076 -0.4001
21695W        W22559   1.579   0.131   0.152 -0.2751 -0.1280  0.0697
21696W        W22560   8.221   0.740   1.684  0.2491 -0.2954 -0.1507
21697W        W22561  13.094  11.323   1.256 -0.2037 -0.2259  0.2872
21698W        W22562  12.603  12.206   4.441  0.1220 -0.1374  0.1212
21699W        W22563  13.636  12.568   1.231 -0.2126  0.2095  0.2706
21700W        W22564   1.245  13.086   3.204  0.1987 -0.1548 -0.2143
21701W        W22565  12.220  13.517   2.367  0.1054  0.2135  0.1600
21702W        W22566  11.906  12.936   5.185  0.2881  0.0749  0.2015
21703W        W22567  12.124   0.968   0.988  0.3002 -0.0432 -0.0485
21704W        W22568   9.998  13.810   1.943 -0.3217 -0.0301 -0.2573
21705W        W22569  10.660  12.228   2.752 -0.0746 -0.3361  0.0246
21706W        W22570   0.676  11.149   2.636  0.1544 -0.2444  0.0041
21707W        W22571  12.524   0.600   0.371  0.0392 -0.0860  0.0563
21708W        W22572  13.486   0.231   0.328 -0.2892 -0.0267  0.2497
21709W        W22573   2.420   0.239   1.184 -0.0465  0.0905 -0.2018
21710W        W22574   1.025  13.444  13.661  0.2350  0.1712  0.0702
21711W        W22575  10.895  11.627   2.983 -0.1994  0.3816 -0.1858
21712W        W22576  11.811  13.154   3.644  0.0946  0.1814  0.0747
21713W        W22577   1.389  13.813   4.437 -0.1574  0.1741  0.1353
21714W        W22578  12.170  12.186   1.812  0.1281  0.2180  0.0341
21715W        W22579  13.632  13.023   2.049 -0.0780 -0.2122  0.1205
21716W        W22580   1.871  12.685   4.642  0.1554 -0.2175 -0.1815
21717W        W22581  11.837  12.838   3.195 -0.5731 -0.2974 -0.1593
21718W        W22582  13.531  11.268   4.241 -0.2845  0.2652  0.0914
21719W        W22583  13.759  12.091   1.709 -0.0565 -0.0532 -0.1589
21720W        W22584  11.026  12.673   2.600  0.2460 -0.0980 -0.0565
21721W        W22585   0.652   9.269   4.681 -0.0455  0.0067  0.0219
21722W        W22586  10.914  13.031   3.487 -0.1037 -0.0846 -0.2705
21723W        W22587  12.242   2.127   0.613 -0.3389 -0.2370  0.1385
21724W        W22588   0.914  11.934   2.200  0.1793 -0.2504 -0.2427
21725W        W22589   0.866  12.992   3.485 -0.1615  0.1257 -0.0381
21726W        W22590  13.008  11.758   3.635 -0.1802 -0.0707 -0.3024
21727W        W22591  13.917  10.728   1.124 -0.0334 -0.1082  0.1950
21728W        W22592  13.403  12.874   2.994 -0.4309 -0.2096 -0.3802
21729W        W22593  12.750  12.437   1.819  0.2220 -0.1111 -0.0014
21730W        W22594  11.031  12.569   1.786 -0.2225  0.0362  0.2081
21731W        W22595   1.396   9.007   0.912 -0.0197 -0.1628 -0.0231
21732W        W22596  12.408   0.209   4.511  0.5463  0.2493  0.1928
21733W        W22597  12.754  11.489   1.615  0.0999 -0.0264 -0.1771
21734W        W22598  13.547  13.379   3.262  0.0066 -0.2056  0.0620
21735W        W22599   0.802  12.001   0.573  0.3388 -0.3444 -0.2482
21736W        W22600  12.381  10.560   3.128  0.2139 -0.0876 -0.1437
21737W        W22601  12.175   2.032   1.811 -0.1389  0.0201 -0.2660
21738W        W22602  12.031  13.321   3.098  0.3161  0.0698 -0.0490
21739W        W22603  11.317  13.760   2.740 -0.1311 -0.2224 -0.1054
21740W        W22604  12.665   9.594   4.335  0.3513  0.2597 -0.1862
21741W        W22605  12.142  11.468   0.937 -0.0524  0.1014 -0.0508
21742W        W22606  13.453  13.355   1.251  0.1441 -0.0812 -0.1407
21743W        W22607  12.996   0.561   3.196  0.0047 -0.0791 -0.3386
21744W        W22608  11.435  12.372  13.844 -0.0715 -0.0607  0.0145
21745W        W22609  13.987  11.139   2.065  0.3336 -0.1606 -0.0570
21746W        W22610   0.212   9.533   4.387 -0.0081 -0.1953 -0.0721
21747W        W22611  12.348  12.425   3.218 -0.2383  0.1003 -0.0181
21748W        W22612  12.858  13.142  13.840 -0.0609  0.0482 -0.0410
21749W        W22613  12.066  10.782   4.727  0.2733 -0.0791  0.0343
21750W        W22614  10.112   1.028   4.057 -0.1491 -0.0514  0.0793
21751W        W22615  13.256  10.908   0.419 -0.1489 -0.2662 -0.1975
21752W        W22616  11.301  12.477   3.992 -0.1145 -0.0031 -0.2385
21753W        W22617  13.255   0.116  12.675  0.3358 -0.4241  0.3538
21754W        W22618  13.436   1.422  13.797 -0.1680 -0.1467 -0.1058
21755W        W22619   0.856  12.135   1.061  0.2070  0.0579  0.1579
21756W        W22620  13.381   1.077   3.840  0.2850  0.3807 -0.1730
21757W        W22621   0.176  12.943   1.171 -0.1135  0.0112 -0.0105
21758W        W22622  13.614  11.786   3.460  0.1254  0.1706 -0.3289
21759W        W22623  12.786  13.932   3.746  0.2530 -0.4627 -0.0354
21760W        W22624  13.426  13.905   0.679  0.0330 -0.1273 -0.1513
21761W        W22625  11.708  11.831   1.644 -0.3154  0.1225 -0.0412
21762W        W22626  12.079  13.396   5.008  0.0964 -0.4517  0.0599
21763W        W22627  11.213   9.201   5.298 -0.2915 -0.0634  0.3460
21764W        W22628   0.040  13.328   3.392  0.0259 -0.0095  0.4048
21765W        W22629   0.153  12.445   1.247 -0.1957 -0.0205 -0.3004
21766W        W22630  13.287  10.572  13.585  0.1528 -0.1719  0.1247
21767W        W22631  12.038  10.564   2.750  0.1937 -0.0108  0.2823
21768W        W22632  13.470  10.353   0.499 -0.0446  0.0202  0.0181
21769W        W22633   0.345  12.865   3.509  0.0480  0.2334 -0.1571
21770W        W22634  11.709  12.335   3.179 -0.1431  0.1667 -0.4865
21771W        W22635   0.774  13.234   0.510 -0.0844 -0.1269  0.0183
21772W        W22636  12.978  10.627   6.800 -0.0733  0.0186 -0.1249
21773W        W22637   9.543  13.799  13.621 -0.3382  0.1827 -0.1429
21774W        W22638  11.449  11.857   2.177 -0.5016  0.0483 -0.2186
21775W        W22639  13.156  11.610   4.191  0.3796  0.1646 -0.2659
21776W        W22640  11.646   0.513   2.015  0.0003  0.2398 -0.1089
21777W        W22641  13.405  13.309   4.460  0.0188  0.0771 -0.1563
21778W        W22642   8.274  12.960   3.669  0.0958  0.0841 -0.0010
21779W        W22643  10.318  12.481   3.000 -0.2118  0.3266 -0.0276
21780W        W22644  13.467  11.415   0.959  0.1852 -0.1059 -0.3234
21781W        W22645  11.521  12.286   1.954 -0.0947  0.0761 -0.0676
21782W        W22646  11.616  11.731   5.831 -0.1189 -0.1600 -0.0985
21783W        W22647  13.387  13.744   4.694 -0.2943 -0.0223 -0.0831
21784W        W22648  12.139  11.389   2.442  0.0724  0.4421  0.2742
21785W        W22649  11.184  10.945   5.953 -0.0651 -0.0121  0.1376
21786W        W22650  10.127  10.977   2.976  0.3594 -0.0934  0.1613
21787W        W22651  11.758   8.951   4.420  0.0816 -0.3095  0.2940
21788W        W22652  12.381  12.484   4.896 -0.2428 -0.2662  0.0662
21789W        W22653  10.802  13.597   2.707  0.0880  0.1120  0.0400
21790W        W22654  13.551   2.460   0.541  0.1152 -0.2083  0.0446
21791W        W22655  11.975  11.744   3.677  0.2877 -0.3244  0.2386
21792W        W22656   0.162  11.317   4.213 -0.0795 -0.3030 -0.0263
21793W        W22657   0.203  12.117   1.829 -0.2962  0.1443 -0.0615
21794W        W22658  10.544  13.595   4.143 -0.3423  0.0718 -0.1804
21795W        W22659  13.193   9.615   1.156  0.1383 -0.2627 -0.1496
21796W        W22660  12.844   9.835   1.556  0.0257  0.2930  0.2357
21797W        W22661   0.592  12.675   3.097  0.0483  0.1483 -0.2830
21798W        W22662  12.949   0.393   1.086 -0.3409 -0.2328  0.2201
21799W        W22663  11.709  12.035   6.246 -0.3775 -0.2390  0.1578
21800W        W22664  13.968  11.688   2.178 -0.0076 -0.3305 -0.1249
21801W        W22665  13.861   0.248   1.058  0.1015 -0.0348 -0.1329
21802W        W22666  11.588  11.366   3.040  0.0803 -0.1337  0.4521
21803W        W22667  12.082  10.736   1.686 -0.1022 -0.1401 -0.1077
21804W        W22668  11.778   9.919   2.054 -0.2447  0.0150 -0.0820
21805W        W22669  11.324   2.282   1.213  0.0789 -0.1581 -0.0366
21806W        W22670   2.190  11.539   0.799 -0.1682 -0.1778 -0.0469
21807W        W22671   2.129  11.905   0.477  0.1541  0.1569 -0.0318
21808W        W22672   9.347  11.527   3.080 -0.0190 -0.1348  0.2664
21809W        W22673   1.746   0.127  13.566  0.0673  0.0358 -0.2396
21810W        W22674  13.516  13.271   5.035 -0.0402 -0.2596 -0.0584
21811W        W22675  11.237  12.835  13.800  0.0736 -0.1313 -0.0055
21812W        W22676  12.602  13.429  12.583 -0.2817 -0.1785  0.0651
21813W        W22677  13.645  12.338   2.116 -0.2997 -0.0784 -0.1520
21814W        W22678  12.926   0.040   0.286  0.1794 -0.0952 -0.0256
21815W        W22679   0.539  13.221   3.827  0.0148 -0.1231  0.0551
21816W        W22680  12.566  13.751   4.169  0.0368  0.0365  0.0332
21817W        W22681  10.591  12.333   3.470 -0.1504 -0.2595  0.0141
21818W        W22682  13.717  10.788   5.153 -0.4597  0.1020 -0.2576
21819W        W22683  11.547  10.967   4.556  0.4005  0.1018 -0.3054
21820W        W22684  13.083   0.385   4.627 -0.1245  0.0500  0.1369
21821W        W22685  13.368  13.340   0.073  0.1538  0.0046 -0.1788
21822W        W22686  11.415   1.486   4.297  0.0944  0.0701 -0.0162
21823W        W22687  12.819  12.665   4.586 -0.0159 -0.0542 -0.3330
21824W        W22688  12.451  13.650   1.630 -0.0397 -0.1377  0.0187
21825W        W22689  12.173  12.907   5.703  0.0908 -0.1616 -0.1251
21826W        W22690  13.395  13.864  13.126  0.0106  0.0744 -0.1423
21827W        W22691   0.608   1.996  13.461  0.0982  0.0075 -0.1125
21828W        W22692  11.385  11.614   4.524 -0.0142 -0.0037 -0.1548
21829W        W22693   0.280   0.999   1.432 -0.1160  0.1917 -0.1107
21830W        W22694   0.910  11.361   1.838  0.1468  0.0894 -0.1678
21831W        W22695  12.358  13.861  12.809 -0.0398  0.2144  0.3301
21832W        W22696  12.805  10.782   3.295  0.2310 -0.1200 -0.0875
21833W        W22697   0.120   0.006   2.781  0.1727  0.0633  0.1097
21834W        W22698  13.095  12.924   1.290  0.2070 -0.0307  0.2990
21835W        W22699   0.577  12.114   1.458  0.2511  0.1314  0.2888
21836W        W22700   9.892   0.461   0.475 -0.1143 -0.1484 -0.2468
21837W        W22701  14.005  10.700   5.635 -0.2130 -0.3966 -0.0748
21838W        W22702  12.132  13.804   5.400 -0.0535  0.1302 -0.1124
21839W        W22703   0.911   0.164   0.807  0.1501  0.0070  0.0532
21840W        W22704   1.266   0.261   2.666  0.4793 -0.1000 -0.2147
21841W        W22705  13.514  11.087   1.433 -0.1853 -0.3709 -0.0457
21842W        W22706  12.466  11.790   3.730  0.0075  0.0344  0.0511
21843W        W22707  11.074  12.355   3.563  0.0436 -0.2340 -0.1277
21844W        W22708  13.445  11.167  13.660 -0.1567 -0.2047  0.0175
21845W        W22709  10.863  10.897   3.884 -0.0024 -0.0780  0.0000
21846W        W22710  12.895  12.209   2.404  0.1124 -0.1968  0.0376
21847W        W22711   1.525   0.605   2.229  0.2369 -0.5669 -0.1334
21848W        W22712   9.161  13.397   3.214  0.1870  0.2567 -0.0079
21849W        W22713  11.885  13.674   3.417  0.0966 -0.0106 -0.2453
21850W        W22714  11.710  10.885   1.979 -0.0152  0.0824  0.2434
21851W        W22715  13.376  11.270   1.907 -0.0416 -0.0040 -0.1709
21852W        W22716  12.571   0.329   4.055 -0.1034 -0.2717  0.2290
21853W        W22717  13.533  13.258   2.646 -0.1113  0.2853 -0.1002
21854W        W22718  10.590  13.968   4.982  0.1498  0.1017 -0.3461
21855W        W22719  13.775  12.311   3.484 -0.0156  0.2014  0.0616
21856W        W22720  11.594  12.800   2.054  0.1126  0.0191  0.0983
21857W        W22721  10.331   0.730   3.149 -0.2778  0.0859  0.4246
21858W        W22722   0.547  13.791   0.677 -0.3276  0.4247  0.1308
21859W        W22723  12.158  12.683   2.301 -0.1633  0.0130 -0.0871
21860W        W22724  13.381  13.751   2.742 -0.0406  0.2519 -0.0439
21861W        W22725  12.973  13.492   1.817 -0.1927 -0.1659  0.0241
21862W        W22726  11.649  10.678   3.746 -0.0425  0.1476 -0.0500
21863W        W22727   0.207  12.676   2.793 -0.1100 -0.1354  0.0315
21864W        W22728  12.623  11.076   1.872 -0.1951 -0.0881  0.1639
21865W        W22729  13.262  12.672   4.831  0.0253 -0.0506 -0.0543
21866W        W22730  12.167  11.950   3.236 -0.3305  0.2195  0.1793
21867W        W22731  13.073  11.001   3.963 -0.0876 -0.1630 -0.1222
21868W        W22732  12.740   0.874  13.939  0.0009  0.0653  0.2485
21869W        W22733   9.378   0.239   4.347  0.2364 -0.1568  0.0491
21870W        W22734   9.199  12.496   1.193  0.2489 -0.0851  0.1121
21871W        W22735  10.456  12.354   4.614  0.0072 -0.0478 -0.0477
21872W        W22736   0.180  13.103   1.688 -0.0035 -0.0405 -0.1298
21873W        W22737  10.400  13.234   1.912  0.4281 -0.1314  0.3125
21874W        W22738  13.343  13.842   1.679 -0.2508  0.3391  0.1308
21875W        W22739   0.573  11.714   1.787 -0.2952 -0.5556  0.2346
21876W        W22740  10.351   0.173   3.230  0.0394 -0.0276  0.1016
21877W        W22741  12.707   0.697   0.779 -0.0471  0.1676 -0.2346
21878W        W22742   0.680  13.859   1.165  0.0589 -0.0473  0.0340
21879W        W22743  12.576  12.257   5.338 -0.2674 -0.0205  0.2608
21880W        W22744  11.160   0.398   2.073 -0.2075 -0.0310 -0.0071
21881W        W22745  11.639   0.314   3.524  0.1251  0.1541  0.0954
21882W        W22746   2.088   0.420   5.563  0.1097 -0.2027 -0.2565
21883W        W22747   0.484  12.025   4.586 -0.0365  0.1120  0.0038
21884W        W22748   3.022  12.557   0.559  0.1059  0.0163  0.0306
21885W        W22749  13.737   1.303   1.152  0.1866 -0.0414 -0.2015
21886W        W22750  11.908  13.493   0.701 -0.2354  0.1343 -0.0958
21887W        W22751  12.637   0.897   1.264 -0.3682 -0.2937  0.1393
21888W        W22752  12.177  11.673   0.192  0.1715 -0.1017 -0.0235
21889W        W22753   0.913  13.500   3.598  0.0152 -0.3336 -0.0467
21890W        W22754  12.354  12.625  12.374  0.2410  0.2055  0.0512
21891W        W22755  11.146  13.260   4.774 -0.1340 -0.2547 -0.1443
21892W        W22756  13.001   0.452   1.592 -0.2077  0.1835 -0.1947
21893W        W22757  13.496   9.684   3.087 -0.0899 -0.2064  0.0253
21894W        W22758  12.476  11.255   3.921 -0.1428  0.3319  0.3645
21895W        W22759  13.714   0.901   4.257 -0.0800 -0.0981 -0.1690
21896W        W22760  10.998  13.522   3.251 -0.1123 -0.0094 -0.0906
21897W        W22761  10.512   0.372   4.719  0.1247 -0.0539 -0.1226
21898W        W22762   1.151  13.413   4.247  0.1967  0.0779  0.2288
21899W        W22763  11.058  12.040   1.876 -0.2277  0.3046  0.0575
21900W        W22764   8.602   0.557   2.868 -0.1759  0.0917 -0.1061
21901W        W22765  13.429   0.643   2.937 -0.0407 -0.1592 -0.0989
21902W        W22766  13.539  11.933   4.434  0.2201 -0.2696 -0.0399
21903W        W22767  11.093  13.172   2.691 -0.1181  0.1822 -0.1508
21904W        W22768   0.473  13.584   2.849  0.1869  0.0885 -0.4845
21905W        W22769   9.991   0.264   2.200  0.0675 -0.2803 -0.1723
21906W        W22770  12.637  12.868   3.616  0.1362  0.0194 -0.0190
21907W        W22771  12.627  13.307   2.909  0.1290  0.0827  0.4148
21908W        W22772  11.652   0.103   0.559  0.3605 -0.0631 -0.2695
21909W        W22773  10.899   0.018   2.362  0.0970  0.0022 -0.0753
21910W        W22774  10.819   0.668   6.111  0.0402 -0.1557  0.1039
21911W        W22775   1.081   0.467   5.450 -0.1369  0.0676  0.1387
21912W        W22776  13.107   1.054   3.186  0.2941 -0.0957 -0.0387
21913W        W22777  12.731  10.185   7.415 -0.0818 -0.0005 -0.0252
21914W        W22778  12.043   0.566   6.449 -0.3691  0.0309 -0.2814
21915W        W22779  10.391  12.100   6.171 -0.0412 -0.3280 -0.0686
21916W        W22780  13.906  10.131   8.029 -0.1113  0.2310 -0.1524
21917W        W22781  11.618  12.124   5.302  0.1114  0.1200  0.0402
21918W        W22782  12.315   0.191   5.306  0.1998  0.1122  0.0533
21919W        W22783   0.958  13.189   6.900 -0.1712 -0.0783 -0.3494
21920W        W22784  11.229  12.362   5.566 -0.0470 -0.2190  0.0383
21921W        W22785  11.698  13.217   7.950  0.0110  0.0627 -0.1498
21922W        W22786   1.436  12.839   1.311 -0.1664 -0.0006  0.0331
21923W        W22787  10.434  12.808   5.851 -0.4337 -0.1812 -0.2253
21924W        W22788  12.059  12.043   7.162  0.5027  0.2368  0.0800
21925W        W22789  11.696  11.821   3.127  0.0921 -0.2216  0.0907
21926W        W22790  11.534   2.082   6.535  0.0871  0.2180 -0.1794
21927W        W22791  11.295   0.321   8.118  0.0399 -0.2369 -0.2068
21928W        W22792  10.857  11.903   8.490 -0.0370 -0.0991  0.1623
21929W        W22793  13.296   0.098   7.162 -0.1169 -0.3339 -0.0232
21930W        W22794  11.972   1.662   6.609 -0.1271  0.1352 -0.1112
21931W        W22795  12.243   2.483   5.630 -0.1078 -0.1756 -0.0268
21932W        W22796  12.785   0.868   4.091  0.3512 -0.1212  0.3127
21933W        W22797  10.962  10.730   2.936 -0.1979  0.0347  0.0431
21934W        W22798  13.783  12.871   6.942  0.1107  0.1746  0.0193
21935W        W22799  12.970  12.832   7.968 -0.3588  0.5743 -0.1512
21936W        W22800  13.931  13.936   6.178  0.0643  0.2308  0.1114
21937W        W22801  12.358  13.157   7.317 -0.0779 -0.2867 -0.1791
21938W        W22802  13.454  11.785   5.019  0.1238 -0.0459 -0.1270
21939W        W22803  12.526   1.763   7.508 -0.0798 -0.0991  0.1045
21940W        W22804   0.307  13.414   4.672 -0.2901 -0.0214 -0.1428
21941W        W22805   2.407  12.946   4.117  0.2206 -0.2464  0.1750
21942W        W22806   0.340  10.432   7.018 -0.1055  0.0468 -0.2053
21943W        W22807   0.084   0.767   5.339  0.0750 -0.2366 -0.0137
21944W        W22808  13.735  13.039   4.194 -0.0111 -0.0951 -0.0344
21945W        W22809  11.957   1.780   5.576 -0.1019 -0.2003  0.4243
21946W        W22810  11.862  11.817   4.409  0.2195 -0.0353 -0.2813
21947W        W22811  13.025   2.220   6.714  0.0385  0.3018  0.0696
21948W        W22812  11.560   1.106   7.367  0.0994 -0.0988 -0.0934
21949W        W22813  11.694  12.576   3.671 -0.0631  0.2265  0.0829
21950W        W22814  12.365   1.577   4.981 -0.2955 -0.0009  0.1410
21951W        W22815  12.990  13.872   5.523  0.0096  0.2457 -0.2267
21952W        W22816  11.253  11.825   5.487  0.0703 -0.0266 -0.1739
21953W        W22817   9.902  13.315   5.313 -0.1141  0.1204  0.2112
21954W        W22818  10.542   2.205   7.791 -0.1716  0.0134  0.0882
21955W        W22819  11.449  13.466   7.572  0.0271 -0.0247  0.0153
21956W        W22820  13.174  11.412   7.267 -0.1349 -0.0702 -0.1184
21957W        W22821  11.149   1.063   4.343 -0.2068 -0.0409 -0.0559
21958W        W22822  10.860  12.256   4.006  0.0535  0.1123  0.0976
21959W        W22823  10.122   0.197   5.894  0.0323  0.0099 -0.0041
21960W        W22824  13.294  12.303   4.221 -0.2433  0.1734  0.2390
21961W        W22825   0.049  11.889   4.317  0.1406 -0.0210 -0.0630
21962W        W22826  12.825  11.506   6.634 -0.3312  0.2348 -0.0596
21963W        W22827  13.298  13.413   5.560  0.0268 -0.3563 -0.2580
21964W        W22828   9.319  11.663   4.149  0.0011 -0.2317 -0.2922
21965W        W22829  12.112  11.961   6.525  0.2490 -0.0426  0.1159
21966W        W22830  10.747  12.898   6.235 -0.3305 -0.0584 -0.2037
21967W        W22831  12.749   0.452   5.955 -0.1859  0.0280  0.1390
21968W        W22832  12.890  13.239   9.479  0.2117 -0.1522 -0.2538
21969W        W22833   9.750  13.241   8.965  0.0374 -0.1895 -0.0673
21970W        W22834   9.695  11.187   3.190  0.0642 -0.1558 -0.1390
21971W        W22835  12.485  13.046   4.884 -0.1975 -0.1052  0.2664
21972W        W22836  13.304  12.216   7.417 -0.1121  0.1683  0.1126
21973W        W22837  12.268  11.935   4.098 -0.0786  0.0312 -0.2771
21974W        W22838  13.454  12.705   9.048 -0.3342 -0.1187  0.3006
21975W        W22839  13.390  10.840   6.487  0.0668 -0.0273  0.0303
21976W        W22840  12.804  11.254   3.541  0.2386  0.3981 -0.0603
21977W        W22841   3.241  13.058   6.823 -0.0276 -0.3622  0.1243
21978W        W22842  13.522  12.688   3.845  0.0162 -0.1499  0.0064
21979W        W22843  12.221  10.221   9.874  0.0271 -0.2103  0.0806
21980W        W22844   1.350  11.002   6.417 -0.0439 -0.0681  0.0808
21981W        W22845   9.395  10.416   4.889  0.1837  0.2381  0.0171
21982W        W22846  12.944   1.014   7.424  0.0801 -0.1962  0.1894
21983W        W22847  12.696  11.861   4.981  0.2607 -0.0051  0.0195
21984W        W22848  11.318  12.486   6.078  0.0561 -0.1029 -0.2347
21985W        W22849   0.763  12.351   5.424 -0.0724  0.0481  0.1552
21986W        W22850  13.769  12.928   7.926 -0.3366  0.0012 -0.0157
21987W        W22851  12.783  13.339   7.599  0.2166 -0.0975 -0.3328
21988W        W22852  12.080  12.687   7.392  0.1904  0.0372  0.1730
21989W        W22853  13.169  13.724   7.499 -0.0867  0.0116 -0.0350
21990W        W22854  13.018  13.111   4.867  0.0518 -0.0781  0.0296
21991W        W22855  12.025   0.590   9.919  0.0402  0.3160 -0.0104
21992W        W22856  13.510  12.319   6.206 -0.0524  0.3189 -0.1093
21993W        W22857  12.711  12.174   3.531  0.1816  0.1484 -0.3970
21994W        W22858   2.143  13.695   3.837 -0.1204 -0.1691  0.1288
21995W        W22859  13.219   0.775   4.296  0.1576  0.1210  0.0593
21996W        W22860  13.100  13.669   4.092  0.0007 -0.1756  0.2352
21997W        W22861  13.513  12.277   4.831 -0.2848 -0.1348 -0.1758
21998W        W22862  11.558  12.538   4.367 -0.1439 -0.1949  0.0581
21999W        W22863   0.651  10.205   7.510 -0.1126 -0.1592  0.3620
22000W        W22864  10.877   0.581   4.446 -0.1517 -0.0309  0.1263
22001W        W22865   0.302  12.067   5.112  0.2814  0.0830  0.1723
22002W        W22866   0.155  12.693   4.888 -0.0028  0.0005 -0.3541
22003W        W22867  12.160  11.343   7.074  0.0034  0.0467 -0.2316
22004W        W22868   2.394  12.739   4.643 -0.0640 -0.4203 -0.1724
22005W        W22869   0.587   1.831   3.192  0.1493  0.0885  0.0810
22006W        W22870  11.513  11.025   7.738 -0.0931 -0.2146 -0.0249
22007W        W22871  13.434   0.571   6.513 -0.2748 -0.1297 -0.2237
22008W        W22872  12.049  12.567   4.161 -0.1108 -0.1578 -0.0484
22009W        W22873  11.824  13.980   8.344 -0.3106  0.1321 -0.0902
22010W        W22874   9.503  11.933   2.738  0.1848 -0.0460  0.1932
22011W        W22875   0.933  10.203   6.008  0.1216  0.2054  0.1597
22012W        W22876  13.629  13.362   8.243  0.0414  0.1287 -0.0574
22013W        W22877  11.241  11.609   7.062  0.0482 -0.0223 -0.2293
22014W        W22878   9.880  12.138   5.447  0.1936  0.1544  0.2360
22015W        W22879   0.527  10.501   3.050  0.2134 -0.3507 -0.0337
22016W        W22880  11.156   0.348   6.281  0.2787  0.3242 -0.1004
22017W        W22881   0.968  13.063   5.281  0.2133 -0.2198 -0.0836
22018W        W22882  11.718   2.116   6.049  0.1218 -0.3157  0.0598
22019W        W22883  12.620  13.523   4.827 -0.2597 -0.0461 -0.2840
22020W        W22884  10.739  12.540   5.492  0.2128  0.2888  0.1864
22021W        W22885  11.713  12.987   5.904 -0.0377 -0.2953  0.1285
22022W        W22886   2.896  11.894   6.435 -0.1266 -0.1097 -0.1279
22023W        W22887   1.447  13.656   5.833 -0.2867  0.0472 -0.0363
22024W        W22888  13.982   9.664   6.534  0.1390 -0.4138 -0.4463
22025W        W22889   1.458  12.926   4.786 -0.1152  0.2259 -0.1231
22026W        W22890   0.147  10.596  10.399  0.2178  0.1384  0.2299
22027W        W22891  11.999   2.528   7.008  0.1459  0.2363  0.3355
22028W        W22892  11.471   9.955   5.862  0.2738 -0.1401 -0.2439
22029W        W22893   0.110   2.257   6.136  0.2481 -0.0963  0.1377
22030W        W22894  12.239  14.011   2.592 -0.2670 -0.0213  0.0494
22031W        W22895  12.882   1.105   5.362 -0.1552  0.2788  0.0268
22032W        W22896  12.913   0.794   6.473  0.2669 -0.0216  0.0263
22033W        W22897  11.982   0.737   5.316 -0.0739 -0.0243  0.0410
22034W        W22898   0.589   0.057   4.823  0.2523  0.0380  0.0351
22035W        W22899  13.690  10.985   6.021 -0.0167  0.1006 -0.0755
22036W        W22900  13.137  12.983   5.786 -0.0748 -0.2399  0.2215
22037W        W22901   0.576   7.282   7.000 -0.1431  0.0095 -0.0546
22038W        W22902  10.962   1.985   4.688 -0.1363 -0.1734  0.0190
22039W        W22903  13.251  12.741   2.102  0.2277  0.0978 -0.3895
22040W        W22904   9.035  11.817   6.347  0.3771  0.0542 -0.2241
22041W        W22905  13.295  12.472   3.332 -0.1735  0.3183  0.1586
22042W        W22906  12.193  11.559   5.088 -0.1002  0.2351 -0.0025
22043W        W22907  11.222  12.306   7.060  0.0420 -0.0022  0.1255
22044W        W22908  11.896  13.926   5.826  0.4541 -0.0097 -0.1848
22045W        W22909  10.652   1.459   7.210  0.1867 -0.1010 -0.0797
22046W        W22910  10.057  13.497   3.101  0.1130 -0.1885  0.1692
22047W        W22911   0.328   0.973   4.905  0.0014 -0.0681  0.3655
22048W        W22912  10.356   0.322  10.226  0.2287  0.3395 -0.3453
22049W        W22913   0.504  13.945   7.806 -0.2019 -0.0254  0.1437
22050W        W22914   0.619  11.534   4.244 -0.4348 -0.0845 -0.1819
22051W        W22915  10.803  11.904   6.302 -0.3568 -0.2841 -0.0099
22052W        W22916  13.606   0.481   4.443 -0.2625  0.0067 -0.0471
22053W        W22917   0.775  13.290   8.374 -0.0223  0.1621 -0.2234
22054W        W22918  10.795  11.409   3.742  0.1410  0.0613  0.0767
22055W        W22919  12.933  11.990   6.614 -0.1009 -0.0946 -0.0505
22056W        W22920  10.949  12.867   5.783  0.1456  0.1441 -0.2103
22057W        W22921  11.958  12.884   4.677 -0.0208 -0.1723 -0.1572
22058W        W22922  13.884  11.579   5.946 -0.1913 -0.1067  0.1426
22059W        W22923  10.990  11.905   3.721 -0.0584  0.2623 -0.2297
22060W        W22924   8.522  13.675   8.473  0.1461  0.0008 -0.0418
22061W        W22925  13.881   0.144   7.118 -0.0062 -0.2580 -0.2802
22062W        W22926  11.644  12.177   6.828 -0.0607 -0.1127  0.3060
22063W        W22927  10.619  13.287   8.651 -0.3048 -0.3618  0.1827
22064W        W22928   9.595   0.825   9.724 -0.1764 -0.2117  0.0535
22065W        W22929  10.074  12.937   6.518  0.0418  0.0894 -0.0332
22066W        W22930   0.206   9.569   6.076 -0.3258 -0.2060  0.1779
22067W        W22931   0.846  11.196   5.285  0.2816 -0.1992  0.1283
22068W        W22932  12.200  10.269   8.770  0.1250  0.1328 -0.3386
22069W        W22933  11.451   2.257   7.546  0.0716 -0.1486  0.0694
22070W        W22934  11.890  10.342   4.074  0.0560  0.0637 -0.1180
22071W        W22935   3.299   0.492   5.650  0.1277 -0.1760  0.0481
22072W        W22936  12.205  12.535   8.601  0.0311  0.3482 -0.1426
22073W        W22937  11.939  11.169   8.102  0.0365 -0.3334 -0.1575
22074W        W22938  12.331  11.105   8.378 -0.0188  0.1787 -0.1565
22075W        W22939  11.342  10.558   7.925 -0.0829  0.4356 -0.2560
22076W        W22940  11.842   0.204   5.204  0.0600 -0.2180  0.0288
22077W        W22941   2.493   0.389   1.663 -0.0374 -0.1818  0.3512
22078W        W22942  11.666  13.447   6.114 -0.4106  0.3276  0.2083
22079W        W22943  13.344  11.413   7.758 -0.1340 -0.0434  0.0348
22080W        W22944  13.129   0.622   5.054 -0.0563 -0.3114 -0.0637
22081W        W22945  13.853  13.706   2.446 -0.0790 -0.0399 -0.5349
22082W        W22946  13.147   0.397   8.198 -0.2058 -0.2489 -0.1908
22083W        W22947  13.640  12.730   7.403  0.2124 -0.1956 -0.2423
22084W        W22948  10.952  12.988   6.729  0.1133 -0.1631 -0.0424
22085W        W22949   0.957  11.799   4.476  0.1682 -0.0623  0.2049
22086W        W22950  11.596   0.077   4.271  0.2245  0.1563 -0.0555
22087W        W22951   9.734   1.881   8.910  0.2151  0.1200 -0.0356
22088W        W22952   0.737  12.448   4.946 -0.1079  0.2192  0.3244
22089W        W22953  11.325  12.988   3.811 -0.2957  0.0797  0.1765
22090W        W22954   0.650   1.150   5.882  0.0805 -0.0843  0.0247
22091W        W22955  12.034  12.476   5.953 -0.0876 -0.3669  0.2645
22092W        W22956  13.456  10.726   7.077 -0.1497 -0.2399 -0.0588
22093W        W22957   1.730   0.217   4.506  0.0280 -0.1414  0.0523
22094W        W22958  12.898  12.326   4.958  0.1007 -0.0633 -0.2546
22095W        W22959  13.037  11.818   7.607 -0.1576  0.3368  0.0723
22096W        W22960  11.681  11.227   8.516  0.0688 -0.0048 -0.0877
22097W        W22961   0.691  13.203   4.321  0.0048 -0.0688  0.0536
22098W        W22962  12.816   0.411   8.833 -0.0252  0.0017 -0.0087
22099W        W22963  10.528   0.968   3.814 -0.0199  0.0653  0.0926
22100W        W22964  12.869   1.593   5.098 -0.4038 -0.2804  0.2378
22101W        W22965  11.992  11.131   7.607  0.3756  0.1847 -0.0445
22102W        W22966  10.666  11.879   4.299 -0.1074 -0.0398  0.1333
22103W        W22967  13.995  13.223   5.089 -0.2807 -0.0753 -0.0619
22104W        W22968  13.203  12.998   3.472 -0.5155  0.0913 -0.0966
22105W        W22969  11.482  13.024   8.456  0.0048 -0.0003  0.1514
22106W        W22970  13.840  12.542   6.575  0.3079  0.2773 -0.0075
22107W        W22971  13.997  13.937   7.742  0.1135 -0.3745 -0.3147
22108W        W22972  10.766  13.814   8.608  0.0458  0.1556 -0.0990
22109W        W22973  12.356  11.062   3.307  0.0394  0.1998 -0.0361
22110W        W22974  11.697   0.358   6.088 -0.0475  0.1695 -0.0952
22111W        W22975   0.098  11.661   6.376 -0.3046  0.0575  0.0672
22112W        W22976  11.636  11.583   4.024 -0.2895 -0.0143  0.1894
22113W        W22977   9.907   1.110   3.156 -0.1231 -0.1123 -0.0666
22114W        W22978  13.705  12.512   3.031  0.1806 -0.3308  0.3647
22115W        W22979   3.169   0.679   5.105 -0.0706  0.3609 -0.2153
22116W        W22980  13.462  12.559   5.760 -0.3675 -0.3227 -0.2538
22117W        W22981   1.766  12.867   3.621  0.0605 -0.3234  0.2120
22118W        W22982  13.870  13.028   2.945 -0.0488  0.0345  0.1674
22119W        W22983  13.468  10.578   4.750 -0.0287 -0.3248 -0.0605
22120W        W22984  11.525  13.340   5.185 -0.1188  0.0009 -0.1243
22121W        W22985  12.234  13.755   3.034  0.1500  0.0440  0.3476
22122W        W22986  13.904   8.989   5.300 -0.0058 -0.0136 -0.0763
22123W        W22987   0.258  10.737   7.583 -0.0434 -0.1406 -0.0592
22124W        W22988  10.161  12.837   5.422 -0.0164 -0.3423 -0.1744
22125W        W22989  11.869  11.572   7.780  0.1128  0.0802  0.1791
22126W        W22990  13.286   1.191   7.841 -0.1273 -0.0788  0.0294
22127W        W22991  10.745  11.806   5.235  0.0914  0.2500  0.0539
22128W        W22992   0.041  13.490   9.879 -0.2265  0.0619  0.1476
22129W        W22993  13.294  12.075   5.782 -0.2167  0.1152 -0.0595
22130W        W22994   0.052  12.979   5.560  0.1784  0.1612 -0.0114
22131W        W22995  11.287  11.597   7.595  0.0604 -0.0259  0.3055
22132W        W22996  11.636  11.381   3.534  0.0283  0.1106  0.2367
22133W        W22997  11.089  11.274   8.169  0.0553  0.1588 -0.1658
22134W        W22998  10.988  11.965   7.429  0.4302  0.0445 -0.1516
22135W        W22999   1.043  11.345   6.571 -0.1727  0.0064  0.2663
22136W        W23000  11.025   0.614   5.429  0.0822 -0.0778  0.2270
22137W        W23001  10.786   2.899   8.545  0.1762 -0.1313 -0.1565
22138W        W23002   0.160  10.914   6.939  0.4684 -0.0588  0.0723
22139W        W23003  11.178  13.363   5.975  0.2392  0.0364  0.1173
22140W        W23004  11.673  12.431   9.575 -0.1041  0.2153  0.1362
22141W        W23005  12.281  13.325   4.491 -0.2983 -0.1971  0.2943
22142W        W23006  10.182  12.058   7.064  0.0533 -0.0133  0.3275
22143W        W23007   0.107  13.744   3.793  0.2670  0.3864  0.0801
22144W        W23008  11.376   0.211   5.288 -0.0846  0.3541  0.4471
22145W        W23009   1.116   1.883   3.766 -0.2442 -0.1416 -0.0589
22146W        W23010  12.769  13.543   5.783 -0.0288  0.1499 -0.2256
22147W        W23011  11.291  12.143   6.473 -0.0391  0.1582 -0.3419
22148W        W23012  10.275  11.297   3.529  0.1067  0.0548 -0.4113
22149W        W23013  11.923   0.428   4.246  0.0108 -0.0851 -0.3679
22150W        W23014   0.801   0.462   8.930 -0.0535  0.1689 -0.4277
22151W        W23015  10.510  11.938   7.502  0.4332  0.4260 -0.2676
22152W        W23016  13.845  12.239   7.766 -0.1628  0.1044  0.1196
22153W        W23017  11.677   3.484   4.954  0.0337 -0.0178  0.0499
22154W        W23018  11.488   0.800   6.451 -0.1650  0.1382  0.1294
22155W        W23019  13.230   1.198   5.783  0.2659 -0.1263 -0.1458
22156W        W23020   1.243   0.429   7.627 -0.1554  0.2790  0.0170
22157W        W23021  11.429   0.629   4.356 -0.0241  0.0092 -0.2070
22158W        W23022   9.024  11.392   6.006 -0.2753 -0.2882 -0.0462
22159W        W23023  12.028  12.260   4.497  0.0800  0.1172 -0.1371
22160W        W23024  10.571  10.782   6.847  0.0407  0.2434 -0.3464
22161W        W23025   1.922   9.888   4.035 -0.3111 -0.0019  0.0110
22162W        W23026   1.323   9.815   6.044  0.0589  0.0467 -0.1432
22163W        W23027  11.708  13.828   6.399  0.1357  0.0499  0.0571
22164W        W23028  13.640  13.559   4.074  0.2009 -0.3188 -0.2733
22165W        W23029   1.073  13.790   8.898  0.4939 -0.0428 -0.2216
22166W        W23030  12.507  10.485   6.009  0.0829  0.1656  0.1428
22167W        W23031  11.630  13.349   4.574  0.2715 -0.1840  0.2219
22168W        W23032  10.992  13.622   8.037  0.1087  0.1052 -0.2019
22169W        W23033   0.360   0.691   8.051  0.0796 -0.0535  0.1568
22170W        W23034  12.786  13.017   7.071 -0.2761 -0.2829 -0.3046
22171W        W23035  11.814  11.838   4.879 -0.0009 -0.0430 -0.1315
22172W        W23036  13.071  11.202   6.380 -0.1038  0.0704  0.2149
22173W        W23037  11.818   9.848   4.111  0.1404  0.0113 -0.1688
22174W        W23038  13.038   0.271   4.181 -0.1261 -0.0545  0.0672
22175W        W23039  13.178  11.068   3.029 -0.0799 -0.0413  0.1011
22176W        W23040   1.165   0.011   5.573  0.1440  0.1140 -0.1722
22177W        W23041   1.203  12.613   5.146 -0.0466 -0.1040  0.1147
22178W        W23042  12.005  11.656   8.272 -0.0468 -0.1806  0.0095
22179W        W23043  12.197   0.091   6.611 -0.0419  0.1489  0.0259
22180W        W23044  13.375  11.959   7.914  0.1241  0.1689  0.2582
22181W        W23045  12.724  13.330   6.201  0.0132 -0.1420  0.0993
22182W        W23046  11.494  12.122   4.664  0.2123  0.1168  0.0260
22183W        W23047  10.424   0.999   5.325  0.2159 -0.0589  0.1812
22184W        W23048  10.694  13.702   9.074  0.1465  0.1648 -0.1821
22185W        W23049   1.956  13.636   6.016  0.2646 -0.0789 -0.0509
22186W        W23050  13.199   0.211   5.880 -0.0510  0.2000 -0.0653
22187W        W23051  12.714  13.947   6.209 -0.2438 -0.1438  0.2856
22188W        W23052  11.975   1.657   6.066  0.7240  0.1057  0.1495
22189W        W23053  13.085   0.720   3.723  0.1307 -0.0586 -0.2550
22190W        W23054  13.882  13.715   1.643  0.3039  0.0116 -0.4285
22191W        W23055  10.556   0.555   7.469 -0.0418 -0.3763  0.0956
22192W        W23056  13.272  11.253   8.564  0.1280 -0.2830 -0.1868
22193W        W23057  13.257   0.878   6.869 -0.1555  0.1409  0.0903
22194W        W23058  11.693  13.807   4.978  0.1951 -0.1938 -0.1577
22195W        W23059  12.253  12.894   6.186 -0.4542 -0.3048 -0.1234
22196W        W23060   8.260  12.400  11.713  0.0204 -0.0686 -0.1484
22197W        W23061  13.404  12.933   8.215 -0.1298 -0.0710  0.0377
22198W        W23062  13.041  11.863  11.243 -0.0751  0.0402  0.3173
22199W        W23063  11.615  10.389  13.225  0.0790 -0.0669  0.0351
22200W        W23064  13.066  12.682   8.571  0.2216  0.1401 -0.3628
22201W        W23065  10.414  12.568  12.604  0.1367 -0.1733  0.1651
22202W        W23066  12.494  11.565  11.255  0.0316 -0.1268  0.0934
22203W        W23067  11.185  11.841  10.280 -0.4151  0.0899  0.2783
22204W        W23068   3.184  12.336   6.596 -0.2591  0.0361 -0.0018
22205W        W23069   1.178  11.703  12.136  0.1733 -0.0089  0.2168
22206W        W23070   9.510  12.422  11.882 -0.0921  0.0368  0.2690
22207W        W23071  10.996   0.714  11.921  0.1633 -0.0260  0.2113
22208W        W23072  11.766   0.248   7.910 -0.0507  0.1127 -0.1626
22209W        W23073  10.217  10.739  10.774 -0.5285 -0.1230 -0.1586
22210W        W23074  13.906   1.274  11.398  0.1646 -0.0229  0.0266
22211W        W23075  10.803  13.045  10.854 -0.0213 -0.3435 -0.0616
22212W        W23076  12.842  13.987   7.969  0.1856 -0.1733  0.0455
22213W        W23077  13.482  12.964  11.461  0.1582  0.0284  0.3198
22214W        W23078   9.382  12.835  11.618  0.2051  0.1356 -0.0543
22215W        W23079  13.996   0.985  11.838 -0.3364 -0.0632  0.2451
22216W        W23080   0.266  12.337  12.169 -0.1369  0.1471  0.1788
22217W        W23081  13.676   1.184  10.669 -0.0273  0.0222  0.1903
22218W        W23082  13.608   0.657  10.726  0.1110  0.0255  0.0484
22219W        W23083  12.166  13.017   8.788  0.1605  0.0716  0.0259
22220W        W23084  10.527  12.975  10.434 -0.1668  0.0852  0.2375
22221W        W23085   0.785  12.919  10.006 -0.1605  0.1495  0.0284
22222W        W23086   0.690  12.121  12.684 -0.2611  0.1030 -0.1665
22223W        W23087  12.821  12.533  12.725 -0.1569  0.4270  0.0495
22224W        W23088  13.763   9.561   8.574  0.2184  0.0358 -0.2184
22225W        W23089  13.325   0.519   8.696  0.0892  0.1118 -0.0363
22226W        W23090  11.913  12.438  10.150 -0.0916 -0.2066  0.0394
22227W        W23091   0.807  12.018   8.260  0.5572 -0.0669  0.1230
22228W        W23092   0.235  11.634  10.511  0.1302 -0.0309  0.1505
22229W        W23093   2.449  13.043   8.585 -0.0601  0.1646 -0.1568
22230W        W23094  12.103   0.259  10.405  0.2919 -0.1172 -0.0655
22231W        W23095  12.256  13.263  10.542  0.3529 -0.1193 -0.1042
22232W        W23096  12.842  12.896  11.259  0.2255 -0.2561 -0.3292
22233W        W23097  12.590  13.700  10.580 -0.0604  0.0841  0.0025
22234W        W23098  13.869  13.430   9.337  0.0610 -0.0266 -0.2851
22235W        W23099  12.290   1.322   8.143 -0.0759 -0.1490  0.0574
22236W        W23100  10.706   2.786   9.192 -0.0205 -0.1097 -0.0877
22237W        W23101  11.831   1.238   8.345  0.0016 -0.2007  0.1021
22238W        W23102  11.436  12.859   9.323 -0.0521 -0.1855  0.0626
22239W        W23103  11.841  13.988   6.935 -0.5135 -0.1099  0.1276
22240W        W23104  11.914  13.013   9.270  0.1398  0.0391  0.0184
22241W        W23105  10.881   9.829   7.859  0.0592  0.1316  0.1005
22242W        W23106  12.657  10.352  11.061 -0.0121  0.3497  0.0360
22243W        W23107  11.575  11.932   8.132 -0.1606  0.3366 -0.0229
22244W        W23108  11.237  13.893   8.451 -0.0897  0.0461  0.1325
22245W        W23109  11.753  13.590   9.327 -0.3180 -0.0087  0.0720
22246W        W23110  11.373  12.388   9.174  0.1955  0.0160  0.3885
22247W        W23111   0.097  12.161   6.745 -0.4335 -0.1658 -0.0156
22248W        W23112   0.278  10.062  10.621 -0.0905  0.2558  0.0290
22249W        W23113   1.027   2.932   9.809 -0.1812  0.1115 -0.0565
22250W        W23114  10.220   1.233   8.968 -0.0606 -0.0505 -0.0640
22251W        W23115  13.200  11.731  10.510  0.1809  0.0008  0.2944
22252W        W23116  12.902   0.149   9.815 -0.1525 -0.1650 -0.0755
22253W        W23117  13.789  13.470   7.734 -0.0624  0.0910  0.0169
22254W        W23118  13.756  11.498  10.476  0.0196  0.2817 -0.0265
22255W        W23119  11.304  12.167  13.069  0.2229  0.2900 -0.1451
22256W        W23120  11.849   0.330  10.802 -0.1319  0.0646 -0.1675
22257W        W23121  11.375  12.132  12.154 -0.3992 -0.1271  0.1635
22258W        W23122  13.439  10.466  11.361  0.1763  0.2152  0.1064
22259W        W23123   0.109  13.410   8.505 -0.0433 -0.0606  0.1162
22260W        W23124  12.881  11.312   7.652 -0.2360  0.0876 -0.1519
22261W        W23125   0.495  11.642   8.203  0.0677 -0.2098  0.1153
22262W        W23126  11.421  11.713   9.055 -0.1986  0.2931  0.0746
22263W        W23127  13.495   1.328  11.172 -0.2105  0.0213 -0.3965
22264W        W23128  11.930  11.626   9.136 -0.0268  0.1596  0.2179
22265W        W23129  12.674  11.548  12.497  0.1244 -0.2794 -0.1726
22266W        W23130   0.164  12.074   9.012  0.2802  0.3380 -0.1856
22267W        W23131   0.381  13.083   7.110 -0.1943 -0.0286 -0.1310
22268W        W23132  10.639  12.398   9.699  0.1531 -0.1186  0.0371
22269W        W23133  11.610  11.807   9.521 -0.1194  0.1402  0.2199
22270W        W23134  13.378  13.945  12.183  0.1509 -0.0078 -0.0653
22271W        W23135  11.253   0.440   8.660 -0.2384  0.0985  0.0018
22272W        W23136  12.421  13.138  11.555  0.3699  0.0078  0.1563
22273W        W23137   0.171  12.753  10.615  0.1545  0.0790  0.1300
22274W        W23138  11.117  12.826   8.890  0.0600 -0.2962  0.1353
22275W        W23139  12.013  12.731  11.040 -0.0105 -0.0500  0.1618
22276W        W23140   0.241   0.356   7.477 -0.0241  0.1853  0.1082
22277W        W23141  12.906  10.870   8.601 -0.0024 -0.1511  0.2172
22278W        W23142  11.026  11.068  13.180  0.2798  0.3173 -0.1075
22279W        W23143  13.365  12.414  10.575 -0.2304 -0.0568 -0.2505
22280W        W23144  13.724  10.310   8.850  0.0348 -0.0675 -0.1360
22281W        W23145   1.040  13.699   8.382  0.1942 -0.1912  0.0015
22282W        W23146   0.697   0.522   7.743 -0.0567  0.2482 -0.3934
22283W        W23147  12.832  12.303   7.661  0.0044 -0.4059 -0.0074
22284W        W23148  11.119  12.432   9.814  0.1293 -0.0702 -0.3366
22285W        W23149   0.326   1.707  10.754  0.2303 -0.0857 -0.1404
22286W        W23150  12.670  11.927  10.385 -0.1776  0.2346  0.2571
22287W        W23151  13.160   8.762   9.493 -0.2114  0.0328  0.1078
22288W        W23152   2.180  12.574  10.772 -0.0392 -0.1042 -0.1077
22289W        W23153   9.589  10.978  12.228  0.0360 -0.0901  0.1672
22290W        W23154   0.471  12.741  11.184 -0.0198  0.1912 -0.2365
22291W        W23155   0.568   1.052   8.365  0.0389 -0.0815  0.1299
22292W        W23156  11.439  10.426   8.490  0.1673 -0.0404  0.2916
22293W        W23157   1.082  11.939  13.328  0.0371  0.0573 -0.0029
22294W        W23158  13.952   1.332   8.986  0.0558 -0.0905 -0.1924
22295W        W23159  13.255  13.658   8.467  0.0429 -0.0911 -0.1046
22296W        W23160  11.455  11.458   9.989 -0.1515 -0.0998 -0.0643
22297W        W23161  12.412  12.917   8.258 -0.0365 -0.2559  0.0740
22298W        W23162  12.505   9.377   8.617 -0.1178 -0.0545 -0.2216
22299W        W23163   9.823  13.120  11.315  0.0915  0.1124  0.3581
22300W        W23164   0.578   0.865   8.842  0.2684 -0.2355 -0.0976
22301W        W23165  10.920  12.436   8.633  0.0910 -0.3214  0.1849
22302W        W23166   9.829  12.862  11.941  0.0547  0.0078  0.0794
22303W        W23167  12.622  11.438  10.300 -0.2116  0.3560  0.0347
22304W        W23168  11.146   1.413   9.622  0.3296 -0.1497  0.2117
22305W        W23169  11.688  13.816  10.314  0.1766  0.2268  0.0657
22306W        W23170  12.686  13.304   9.050  0.2520  0.2888 -0.0909
22307W        W23171  13.946  13.390   6.861 -0.1064 -0.1020 -0.1590
22308W        W23172  13.314  12.371  12.861  0.2501  0.2542  0.0828
22309W        W23173  10.933  12.795   9.389  0.2120  0.0526 -0.0515
22310W        W23174   0.832  13.234   8.982 -0.2732  0.0158  0.0365
22311W        W23175  13.683  12.993   9.987  0.0124 -0.0325  0.1390
22312W        W23176  12.262  10.713   9.826  0.1193 -0.3573 -0.1612
22313W        W23177  10.715  11.094   9.823  0.0338 -0.0477  0.2920
22314W        W23178  10.077   0.464  10.643  0.1569 -0.3877  0.2998
22315W        W23179   1.646  13.893  10.168 -0.0118 -0.0413 -0.0910
22316W        W23180  13.207  13.247   7.251 -0.2756 -0.0205  0.1058
22317W        W23181   4.349  12.983   8.128  0.1064  0.1167  0.1676
22318W        W23182  12.940   2.227   4.513 -0.0108  0.1548 -0.0155
22319W        W23183   1.187   0.831  11.051 -0.1909  0.0995  0.3699
22320W        W23184   0.400  13.164   6.612 -0.1195 -0.0203 -0.3165
22321W        W23185  10.903  11.631   9.884  0.3466 -0.0093  0.4270
22322W        W23186  10.407  11.828   9.759 -0.1058  0.2744  0.2852
22323W        W23187  12.391  13.251   9.580  0.1324  0.1051  0.5618
22324W        W23188  12.432   0.671   8.548 -0.2214 -0.0350 -0.1373
22325W        W23189   0.155   1.077   6.287  0.3576  0.0914 -0.0795
22326W        W23190  11.933  12.203  10.894  0.1060  0.0311  0.0011
22327W        W23191  11.483  13.852   8.005 -0.3462 -0.1524 -0.1992
22328W        W23192   1.502  13.510  12.036  0.0498 -0.0939  0.0054
22329W        W23193  12.524  13.332   8.554 -0.1412  0.0334  0.0643
22330W        W23194  10.290  13.972   8.756 -0.2512  0.2178 -0.1523
22331W        W23195  12.988  11.946  12.685  0.0299  0.0523  0.0822
22332W        W23196  11.595  12.672   7.085 -0.0511 -0.2249  0.0816
22333W        W23197  12.073   1.858   8.958 -0.0382  0.1289  0.0457
22334W        W23198  10.794   0.055  11.596  0.0166  0.0104  0.1368
22335W        W23199  11.039  12.638  10.736  0.0924 -0.0843 -0.2733
22336W        W23200  13.871   9.797  10.572 -0.0755 -0.1460 -0.0353
22337W        W23201  11.535  12.094   9.951 -0.0235 -0.0003  0.0150
22338W        W23202   0.454  12.985   8.698 -0.0897 -0.0399  0.1114
22339W        W23203  11.128  10.949   9.236  0.1987 -0.1483  0.0493
22340W        W23204  11.764  12.159   9.076  0.1591  0.2037 -0.0292
22341W        W23205  10.266  11.655  10.748  0.0449 -0.3528 -0.1740
22342W        W23206  10.004  10.636   7.546  0.1576 -0.0839 -0.1483
22343W        W23207  13.013   8.034  10.728 -0.1501 -0.0602  0.1374
22344W        W23208   0.830  12.773   9.162  0.1504 -0.4053  0.1337
22345W        W23209   8.785  11.630   8.302  0.3423 -0.1180  0.3326
22346W        W23210  11.336   0.232  13.667  0.2188  0.1312  0.1089
22347W        W23211  11.435   9.974  11.169  0.0302  0.0547 -0.2166
22348W        W23212  11.895   0.784   8.162  0.1624 -0.1105 -0.2404
22349W        W23213  10.831  12.880   9.946  0.1426 -0.4186 -0.0157
22350W        W23214  10.613  13.102   9.159 -0.2943 -0.2536 -0.0783
22351W        W23215   0.425  11.872  10.991  0.0197  0.3246 -0.1932
22352W        W23216   0.715  12.157   8.731  0.0973 -0.0425  0.2170
22353W        W23217   1.193   1.689   8.851  0.2333 -0.0526  0.0809
22354W        W23218  11.615  13.287  10.122  0.2564 -0.0632 -0.0141
22355W        W23219   8.410  13.960   9.627 -0.0320  0.1526 -0.0740
22356W        W23220  13.507  11.825   7.243 -0.0232  0.2015 -0.0095
22357W        W23221   1.359   0.896   7.798  0.2780  0.0523  0.0286
22358W        W23222  12.187  13.130   2.657  0.2004  0.2559 -0.0404
22359W        W23223  12.978  12.426   9.752 -0.1670 -0.4213  0.2123
22360W        W23224   0.284  12.238   9.918 -0.3235 -0.1180 -0.0875
22361W        W23225  13.002  11.325  11.161  0.0522 -0.2085  0.1114
22362W        W23226  12.172   0.160   8.685  0.0055  0.0301 -0.3925
22363W        W23227  12.090  12.217   9.754  0.0403  0.0135 -0.3454
22364W        W23228  11.931   9.997  11.202 -0.2423  0.1541 -0.0833
22365W        W23229  13.290  11.680  13.657  0.1958  0.1990 -0.3177
22366W        W23230   1.304   0.906   9.146 -0.0210  0.2292  0.0308
22367W        W23231  13.340  13.172   7.801 -0.0571 -0.0227  0.0779
22368W        W23232  11.596  13.005  11.857  0.2701  0.1101 -0.0065
22369W        W23233  10.003   0.358   8.951  0.0890 -0.1628  0.0464
22370W        W23234  11.757  12.330   8.515 -0.2482 -0.0247  0.1130
22371W        W23235   1.220   0.454   8.264 -0.1901  0.0084 -0.3605
22372W        W23236  13.908  12.559   9.273  0.1307  0.2299 -0.3233
22373W        W23237  12.597   1.151   9.526  0.0568 -0.0632  0.2097
22374W        W23238  12.418  12.900   9.233 -0.2517 -0.2063 -0.1289
22375W        W23239   9.598  11.996   9.336 -0.1122 -0.1531 -0.0134
22376W        W23240   1.149  12.073   9.944  0.2246 -0.0356 -0.3010
22377W        W23241  13.392  12.548   7.803 -0.1094  0.3489 -0.3472
22378W        W23242  10.976  11.308  10.229 -0.2901 -0.0805  0.3437
22379W        W23243   0.977   1.237   8.895 -0.0229 -0.2663 -0.0053
22380W        W23244   0.218  13.053   6.025 -0.1529 -0.0261 -0.2174
22381W        W23245  11.067  11.054  10.614 -0.0073  0.1330 -0.0048
22382W        W23246  12.930  12.417  11.176 -0.3113  0.5513  0.1581
22383W        W23247  12.785   0.985  10.905 -0.0073 -0.0407  0.0478
22384W        W23248  13.219  10.619   8.986  0.4108 -0.0798  0.1816
22385W        W23249  12.280   2.569   6.605 -0.0566 -0.0882  0.0988
22386W        W23250  13.462  12.087  10.968  0.1286  0.0111 -0.1803
22387W        W23251  10.278  13.492  10.398 -0.2475 -0.1530 -0.1493
22388W        W23252  12.749  13.737   8.410  0.1930  0.2373  0.0993
22389W        W23253  11.449   0.029  10.847 -0.0517 -0.3002 -0.2227
22390W        W23254  10.770  12.096  10.068 -0.0564 -0.2057 -0.0635
22391W        W23255  13.083  11.341  10.197 -0.2033 -0.2191  0.0093
22392W        W23256  12.611  13.686   9.382  0.2150 -0.2925  0.2233
22393W        W23257   9.750   8.712  12.098 -0.0244 -0.3317  0.1507
22394W        W23258  11.114  12.990  10.365 -0.1998  0.1192 -0.0161
22395W        W23259  11.119  13.699   9.382  0.0461 -0.0192 -0.4496
22396W        W23260   8.524  13.067  11.225  0.3695  0.0536  0.1662
22397W        W23261  11.262  12.483  11.545  0.0392  0.1547  0.1485
22398W        W23262  11.859   0.467   7.338  0.2275  0.0382 -0.1270
22399W        W23263  10.370  10.247   9.661  0.1167  0.1578  0.1474
22400W        W23264  13.833  13.118   6.477 -0.0712 -0.0730 -0.1474
22401W        W23265   0.031   1.039   8.043 -0.2666 -0.1465  0.2711
22402W        W23266  13.143  13.854  11.472  0.1688  0.0156  0.1783
22403W        W23267   0.338  13.544   9.503  0.0534  0.1049 -0.0321
22404W        W23268  12.537  10.118   8.253 -0.1076  0.2429 -0.0144
22405W        W23269  12.724  13.041  10.363 -0.0483  0.1846 -0.4289
22406W        W23270  10.754  10.604   9.876  0.0652 -0.0379 -0.0513
22407W        W23271  13.908   1.228   7.578  0.0330  0.4165  0.0393
22408W        W23272   0.612  11.823   9.102  0.0279 -0.2862  0.0561
22409W        W23273   0.218   0.048   9.935  0.1518 -0.0170 -0.1385
22410W        W23274   9.567   0.021  11.331 -0.4060  0.1680 -0.1035
22411W        W23275  13.572  10.822  12.517 -0.1048 -0.0743 -0.0852
22412W        W23276   0.900   1.301  11.112 -0.1762 -0.1770 -0.2955
22413W        W23277  12.615   0.225   8.404 -0.1951  0.4636  0.2878
22414W        W23278  13.651  11.994  10.410 -0.0939  0.1379 -0.2623
22415W        W23279  12.923  11.212   9.015 -0.4785 -0.0594  0.1653
22416W        W23280   0.591  12.380  10.341  0.1258  0.1102  0.2000
22417W        W23281  11.252   0.051   9.969 -0.2030  0.2442  0.0550
22418W        W23282  13.529  12.590   8.564  0.0818  0.0288 -0.0298
22419W        W23283  10.962   1.195  10.722  0.1534 -0.1281  0.3663
22420W        W23284  12.328  11.926  10.815 -0.1454  0.2524  0.1990
22421W        W23285  13.906  13.740  10.744  0.1135 -0.1665 -0.0934
22422W        W23286  10.773  13.742   9.815 -0.0312  0.1935 -0.2182
22423W        W23287  11.864  11.690   6.854 -0.1973 -0.1626 -0.1859
22424W        W23288   0.323  10.902   9.918  0.1243  0.0221  0.2159
22425W        W23289   0.351   0.911   9.576  0.0603 -0.1576 -0.0930
22426W        W23290  11.450  12.357  10.427  0.1172  0.2541  0.0939
22427W        W23291  10.966  12.923  12.488  0.0441 -0.2468  0.3004
22428W        W23292  12.964  12.118  10.722  0.1953  0.1947  0.0482
22429W        W23293  13.450  10.997  11.123 -0.1014  0.0914  0.1015
22430W        W23294  11.712   0.835   9.506 -0.3687  0.2997  0.0467
22431W        W23295   2.272   7.767   8.960 -0.1090  0.0309 -0.0788
22432W        W23296  10.876  13.291   9.540  0.0476  0.1122  0.1908
22433W        W23297   0.266  12.007   8.422 -0.0378 -0.0009 -0.1051
22434W        W23298  13.493  13.907   7.944 -0.0437 -0.1228  0.2787
22435W        W23299   0.945  10.794  10.821 -0.1208  0.2140  0.2079
22436W        W23300  13.621   0.930   8.744  0.2680 -0.0767 -0.0121
22437W        W23301   0.495  12.510   8.475 -0.1335 -0.0397 -0.2018
22438W        W23302   9.928  11.655   9.449  0.1234 -0.2353  0.0162
22439W        W23303  12.508  12.393   9.518 -0.0676 -0.2980  0.2291
22440W        W23304  10.916   8.462  10.267 -0.1411 -0.2148  0.0965
22441W        W23305  13.261  13.148   8.631  0.2202  0.2295 -0.0943
22442W        W23306  11.014   1.493  11.473 -0.1174 -0.2199 -0.0464
22443W        W23307   9.401   2.656   6.601  0.1180  0.0711 -0.0593
22444W        W23308  13.422  11.618  10.062  0.1471 -0.0686 -0.3402
22445W        W23309   2.207   1.260   9.424 -0.2373 -0.1803  0.0319
22446W        W23310  10.609  10.891  10.316  0.0165  0.1715  0.0801
22447W        W23311  13.991   0.131   0.015 -0.0806  0.0441 -0.0817
22448W        W23312  12.313  13.610   7.105 -0.1455  0.1105 -0.2531
22449W        W23313  12.915  13.189   8.280 -0.2834  0.1883 -0.0569
22450W        W23314   0.160  10.020   6.881  0.1314 -0.2301  0.0942
22451W        W23315  11.513   0.306  12.065 -0.1573 -0.2110 -0.0810
22452W        W23316  12.496  11.956   9.913  0.0947  0.1720 -0.0868
22453W        W23317   9.972  12.381   9.170  0.0980 -0.0186  0.1070
22454W        W23318  11.861  13.266  11.433 -0.0512 -0.1562  0.1277
22455W        W23319  13.903  12.071  11.712  0.0117 -0.0994 -0.1170
22456W        W23320  12.556  13.931  10.081  0.0038 -0.2861  0.0439
22457W        W23321   1.320  10.835   9.903  0.4354 -0.0705 -0.2451
22458W        W23322   0.495  13.781   8.274 -0.4219  0.0629  0.0267
22459W        W23323  11.712  11.748   8.666 -0.0337 -0.0856 -0.2801
22460W        W23324  10.876  12.286   9.132 -0.1583 -0.0472 -0.0076
22461W        W23325   1.265  13.565   7.754  0.1828  0.4592  0.0994
22462W        W23326   2.729   2.420  11.739  0.0062  0.2478 -0.0701
22463W        W23327   0.240   2.396   8.475  0.1179 -0.0799  0.2302
22464W        W23328  13.405  13.360  13.076  0.1400 -0.1884  0.2659
22465W        W23329  10.786  12.269  12.805 -0.0408  0.0770 -0.0721
22466W        W23330  13.053  11.554   9.397 -0.0333 -0.2596  0.0146
22467W        W23331   9.828  12.234  10.292  0.0298 -0.0556 -0.0519
22468W        W23332  12.024  13.334   8.362 -0.0360  0.3952  0.0504
22469W        W23333  10.047  11.944   9.006  0.4565  0.2556  0.2349
22470W        W23334  11.948   0.052   9.942 -0.0430  0.0224 -0.1807
22471W        W23335   0.814  13.639   9.331 -0.0832  0.0790 -0.3379
22472W        W23336  13.758  13.181   8.923 -0.3296 -0.1068 -0.0060
22473W        W23337  13.025  13.698  10.207 -0.0797  0.1752  0.0751
22474W        W23338  12.177   2.476  10.465  0.0229 -0.1770  0.0559
22475W        W23339  12.303  13.732  11.949  0.0393  0.1032  0.1753
22476W        W23340  11.642  10.913   9.435 -0.1210 -0.1291 -0.0339
22477W        W23341  13.749   0.208   9.930 -0.1364 -0.1714 -0.1355
22478W        W23342  12.969  11.322  12.039 -0.0599 -0.0303  0.2834
22479W        W23343  11.160   2.984   9.105  0.2833  0.0583 -0.0578
22480W        W23344  12.261   1.095   8.633  0.0359  0.0608 -0.3655
22481W        W23345  12.930  11.667   9.878 -0.3320  0.0150 -0.0494
22482W        W23346  11.184  12.237   1.001  0.4094  0.1854 -0.1244
22483W        W23347  13.885  12.353  10.778 -0.1989 -0.1517  0.2032
22484W        W23348  12.111  11.387  12.502 -0.1010 -0.0381  0.3444
22485W        W23349  12.635  10.665  11.438  0.0114  0.0317  0.1536
22486W        W23350  12.511   1.886  10.044  0.2330  0.1618 -0.0968
22487W        W23351  13.733  12.582  12.705  0.1458  0.1185  0.1125
22488W        W23352   0.748  13.827  11.136 -0.2587  0.1302  0.1873
22489W        W23353  10.605   0.449  13.057  0.3350 -0.0265 -0.2159
22490W        W23354  11.022   0.180  11.043 -0.1226  0.4613 -0.1731
22491W        W23355  11.600  10.542   0.054  0.2899 -0.4668 -0.2235
22492W        W23356  11.855   1.154  12.440  0.1838 -0.2362  0.0690
22493W        W23357  11.173   0.006   0.396 -0.1356 -0.0608  0.0821
22494W        W23358  10.673  10.272   0.152 -0.2544  0.0702  0.1093
22495W        W23359   9.547  11.208   0.045 -0.0663  0.1825  0.3855
22496W        W23360  10.515  11.922   0.316 -0.0876  0.0145 -0.2829
22497W        W23361  10.926  12.962   1.342  0.0083 -0.0518 -0.0043
22498W        W23362  12.851  12.593   0.765  0.0417 -0.0989 -0.1621
22499W        W23363   1.689   9.373  10.875 -0.1207 -0.1017 -0.0077
22500W        W23364  10.264   0.794  11.268 -0.1484 -0.3906  0.2432
22501W        W23365  13.333  12.007   9.642  0.1005  0.3109 -0.2261
22502W        W23366   1.711   8.356  12.690  0.1389  0.2584  0.1076
22503W        W23367  10.322  11.935   2.916 -0.2854  0.0129 -0.2475
22504W        W23368   2.308   0.165   9.042  0.1735 -0.1477 -0.0814
22505W        W23369   1.237  11.629  10.669 -0.1490 -0.2386 -0.1657
22506W        W23370   0.956  13.065   1.070 -0.0033  0.1461  0.2985
22507W        W23371  12.381   0.895  11.119  0.3399 -0.1625  0.1528
22508W        W23372  13.376   1.316   2.019  0.0131 -0.0246  0.1735
22509W        W23373   1.752  13.562  11.149 -0.0921  0.1926 -0.0579
22510W        W23374   1.006  12.785  11.169 -0.1627 -0.0653 -0.2994
22511W        W23375  11.015   0.253  12.105  0.2076 -0.1569 -0.0994
22512W        W23376  12.152  13.886   9.164  0.0455 -0.7470  0.2995
22513W        W23377   0.923  10.206  12.727  0.1713 -0.0006 -0.0072
22514W        W23378  12.953   0.229  12.271 -0.1046 -0.1445 -0.0902
22515W        W23379  10.367  13.385   2.707  0.1216  0.0280  0.1652
22516W        W23380  11.960  11.733  13.142 -0.0422 -0.2645  0.2244
22517W        W23381  13.794  11.601   1.666  0.0206  0.1595  0.2984
22518W        W23382  12.032  13.740  12.395  0.4409  0.0605  0.0438
22519W        W23383  13.565   0.393  13.840  0.1684 -0.2882 -0.0185
22520W        W23384   9.522  13.703   1.411 -0.3051 -0.1543  0.0255
22521W        W23385  12.602  13.662  11.529  0.1490  0.1326 -0.0706
22522W        W23386  12.538  13.049  13.461 -0.0261 -0.0115 -0.1578
22523W        W23387   1.096   1.722  13.315 -0.2852  0.1276 -0.0663
22524W        W23388  12.508  12.987   0.535  0.0281  0.0891 -0.0035
22525W        W23389  10.111  11.622   0.438 -0.0156 -0.1642  0.2127
22526W        W23390  11.069  12.142  13.618 -0.2898 -0.3302 -0.1809
22527W        W23391  13.251  12.475  12.391  0.0192 -0.0356  0.0827
22528W        W23392  12.648  13.356  12.019 -0.2193  0.0629  0.0212
22529W        W23393  13.798  12.503  12.200  0.0607  0.1155  0.3027
22530W        W23394  10.665  11.521  13.503 -0.2107 -0.5171  0.0755
22531W        W23395  11.685  13.371  13.948 -0.1041 -0.3207 -0.0158
22532W        W23396  12.411  12.661  13.258  0.1829  0.4996  0.0816
22533W        W23397   0.473  11.618   0.575 -0.3285 -0.1002  0.0878
22534W        W23398  13.971  11.765   0.313 -0.0623 -0.3859 -0.0928
22535W        W23399   1.471  13.396  11.551  0.0354 -0.1385 -0.1049
22536W        W23400   0.590  13.488  11.535  0.3590  0.1005  0.1218
22537W        W23401  13.183  10.824  12.817  0.1798 -0.0771 -0.2332
22538W        W23402  12.490  12.071  12.400 -0.2744  0.2463  0.3515
22539W        W23403  12.523  12.407   8.972  0.3038 -0.3326  0.1443
22540W        W23404  13.441  12.779   0.389 -0.2016 -0.1218 -0.1317
22541W        W23405  13.064  12.750  10.794 -0.1803  0.2035  0.0393
22542W        W23406   0.888  10.975  11.900 -0.0933 -0.2545  0.3053
22543W        W23407  12.767  12.175  13.087  0.1196 -0.2092 -0.0445
22544W        W23408  10.616  13.744  12.632  0.4484  0.0212  0.0452
22545W        W23409  13.103  10.501   0.124  0.1367 -0.0214  0.1911
22546W        W23410  12.340  11.666  12.151 -0.1555  0.0928 -0.0000
22547W        W23411  13.705   0.878  12.270  0.1791  0.0612  0.0434
22548W        W23412   0.041   0.103   0.492 -0.6194 -0.0053  0.2268
22549W        W23413  11.180  13.502  10.013 -0.0327 -0.0180  0.1664
22550W        W23414  13.780   1.986  13.806 -0.0254 -0.2105  0.1404
22551W        W23415  13.979  13.360  12.431 -0.1444  0.0855 -0.1448
22552W        W23416  10.559  11.488   0.089 -0.1277 -0.1470  0.2763
22553W        W23417  13.047  11.124   2.549 -0.0216 -0.1099  0.1371
22554W        W23418  13.562   4.285  12.541 -0.0902  0.2898 -0.3277
22555W        W23419  11.352   0.430  12.719 -0.0326  0.0295  0.0110
22556W        W23420  12.605  11.651   0.520  0.0043  0.1385  0.0335
22557W        W23421   0.811  12.945  11.573 -0.3900 -0.1784  0.2635
22558W        W23422  10.159  12.517  12.174  0.3318 -0.0934  0.1567
22559W        W23423   1.369  10.164  11.611  0.0455 -0.1649 -0.0435
22560W        W23424  12.204   0.003  11.490  0.2304  0.2644 -0.3722
22561W        W23425  13.630  12.999  12.331 -0.1173  0.2386  0.0985
22562W        W23426  11.404  11.121  13.738  0.0123  0.0249  0.0705
22563W        W23427  11.557  12.519  12.633 -0.0685  0.1922  0.2278
22564W        W23428  13.613  12.932  13.949 -0.1412  0.4949  0.0623
22565W        W23429  13.521  11.865  11.443 -0.0059  0.0540 -0.2734
22566W        W23430  12.940  11.733  13.190  0.0223 -0.0364  0.4560
22567W        W23431   8.777  13.621   1.953  0.1894 -0.0580 -0.0816
22568W        W23432  13.320  11.436  13.226 -0.2423 -0.0149 -0.0502
22569W        W23433  11.552  13.462  11.800  0.3318 -0.2264  0.0389
22570W        W23434  11.797  10.617  12.268  0.0404 -0.0443 -0.1321
22571W        W23435  13.155  11.033  12.356  0.3299  0.1381 -0.1183
22572W        W23436  12.546  11.705   2.361  0.0953  0.0261 -0.1380
22573W        W23437  10.333   0.196  11.664 -0.3184 -0.2330  0.3932
22574W        W23438  12.843  13.787  12.335 -0.3154  0.1030  0.0261
22575W        W23439  11.012  10.301  10.970 -0.1861 -0.1204 -0.0467
22576W        W23440  13.494  12.830  13.096 -0.1910  0.0638 -0.2650
22577W        W23441  13.970  10.889   1.642  0.0206 -0.1883  0.1517
22578W        W23442  11.845  10.732   0.413 -0.1633 -0.2616  0.1460
22579W        W23443   0.221  11.926  12.555 -0.0907  0.0172 -0.0127
22580W        W23444  11.443  12.186   0.592  0.0537  0.1959 -0.0173
22581W        W23445  10.155   1.070  12.023 -0.2045  0.1589 -0.1175
22582W        W23446  13.265  12.919   9.622  0.0780 -0.2306  0.1799
22583W        W23447  13.744  12.355  13.146 -0.1944  0.1119 -0.2414
22584W        W23448  12.081  12.083   0.434 -0.1469  0.1945 -0.1176
22585W        W23449  12.780  13.968  11.131 -0.0855  0.0507  0.3130
22586W        W23450  13.663   8.551  13.976  0.1192  0.0507  0.1150
22587W        W23451  13.188   0.189   2.889  0.5181 -0.1130  0.0221
22588W        W23452  13.642  13.811   1.145 -0.1713 -0.1671 -0.2330
22589W        W23453   0.486   0.229  12.332  0.0317 -0.1681  0.1165
22590W        W23454   0.876  13.580  10.677  0.0534 -0.1290 -0.2369
22591W        W23455  12.121  13.289  13.656 -0.2265  0.1253 -0.0287
22592W        W23456  11.842   0.050  11.183 -0.0963  0.1243 -0.2253
22593W        W23457  11.639  12.810  11.388 -0.0073  0.1308 -0.2141
22594W        W23458   0.403   1.380   0.134  0.1368 -0.1475  0.1347
22595W        W23459  13.733   0.533   0.670 -0.1392 -0.0508 -0.2739
22596W        W23460  10.815   1.955   9.568 -0.2399  0.1108 -0.0128
22597W        W23461  13.503  13.619  12.593  0.3812 -0.1878 -0.0115
22598W        W23462  12.353  11.897   0.841  0.0152 -0.2272  0.1462
22599W        W23463   0.611  10.040  11.016 -0.1285 -0.0123  0.0742
22600W        W23464   0.691  10.442  11.261  0.0046 -0.0049  0.0234
22601W        W23465  12.691  12.010  13.602 -0.0099  0.4194 -0.0381
22602W        W23466  12.465  11.061  13.332 -0.3952  0.2573  0.1698
22603W        W23467  12.300  10.448  13.541  0.1752  0.1783  0.0184
22604W        W23468  10.158  13.911  11.307 -0.5426  0.0154 -0.1580
22605W        W23469  11.926  13.593   1.206  0.1757  0.0230 -0.0829
22606W        W23470   9.915  10.048  11.107 -0.3254 -0.1706  0.2183
22607W        W23471  13.803  11.114  11.441  0.1681 -0.1897 -0.1785
22608W        W23472   8.309  11.958  11.872  0.2823 -0.1750  0.1402
22609W        W23473  12.310   1.573   1.938  0.1841  0.3648  0.0829
22610W        W23474  12.966  13.093   0.330 -0.3411  0.0714 -0.3096
22611W        W23475  11.448   0.498   1.155  0.1889 -0.0892 -0.4363
22612W        W23476  13.735  13.062   0.994  0.0818 -0.0434  0.0830
22613W        W23477  13.866  13.595  11.663 -0.2252  0.1530  0.0516
22614W        W23478  12.473  12.839  10.849  0.0537 -0.0483  0.0790
22615W        W23479   1.810   1.706  12.100  0.3561 -0.1225 -0.1591
22616W        W23480  12.319   9.922  13.469 -0.0881 -0.4132  0.4794
22617W        W23481  13.102  11.788   1.120  0.3674 -0.0041  0.1688
22618W        W23482  12.608  11.089  12.349 -0.2067  0.3611 -0.0320
22619W        W23483  13.081  13.283  12.369  0.3600 -0.0462 -0.0078
22620W        W23484  11.710  10.680  12.766 -0.0790 -0.0593  0.1466
22621W        W23485   0.113  11.910  13.157  0.0856  0.0628  0.1878
22622W        W23486  10.667   2.115  12.473 -0.0334  0.0932 -0.1571
22623W        W23487   9.638   2.477  10.913 -0.0530  0.0614  0.1145
22624W        W23488   7.457   1.383   1.788  0.3469 -0.3218 -0.3605
22625W        W23489   1.177   1.471   0.641  0.1801 -0.0184  0.0888
22626W        W23490  11.686  13.169   0.974 -0.2700  0.1996 -0.0850
22627W        W23491  12.785  11.956   1.445 -0.2953  0.0192  0.0561
22628W        W23492  12.102  12.752  11.647  0.0855  0.1312 -0.0221
22629W        W23493  12.467  10.097  10.573 -0.0606  0.0355  0.2403
22630W        W23494  13.977  12.750  13.673 -0.0906 -0.2837 -0.1311
22631W        W23495   0.592   0.181   0.378 -0.3744  0.2999  0.3741
22632W        W23496  12.235  13.202  12.300 -0.2629 -0.0883  0.1764
22633W        W23497   0.866   1.380   0.247 -0.5344  0.0515  0.0415
22634W        W23498   0.816  13.995  10.205 -0.2730  0.0311  0.0349
22635W        W23499   0.008  11.689  13.639  0.0577 -0.0647 -0.3147
22636W        W23500  12.292  14.012  13.279 -0.0022  0.2048  0.1535
22637W        W23501  11.072   0.819  12.891  0.1557  0.0466 -0.0463
22638W        W23502  12.447  13.618   1.147  0.1199 -0.1664  0.0230
22639W        W23503  13.089   0.835   0.416 -0.1575  0.0496  0.0018
22640W        W23504  11.020   1.037  13.528  0.1125  0.0261 -0.4377
22641W        W23505  11.118   1.569  13.924  0.0610  0.1711 -0.1360
22642W        W23506   0.744  12.086  10.666  0.0983  0.2105  0.0603
22643W        W23507  11.896  12.776   1.085  0.0673  0.1347  0.0733
22644W        W23508   0.252  11.356  12.278  0.0301 -0.0030 -0.0864
22645W        W23509  10.779  12.053  13.225 -0.1849  0.2189  0.3004
22646W        W23510  12.004  10.893   0.823 -0.1033  0.2562 -0.3539
22647W        W23511  12.817  12.869  12.359 -0.1897  0.4774  0.1963
22648W        W23512  11.171   0.130   1.000 -0.0629 -0.0368 -0.0973
22649W        W23513   0.757  13.907  12.529 -0.1506 -0.1742 -0.2058
22650W        W23514  12.734   0.514  11.065  0.1571  0.2550 -0.0362
22651W        W23515  11.851   0.934   2.543 -0.1805  0.0625  0.1604
22652W        W23516  13.719  13.302  11.187 -0.2235 -0.2947  0.0333
22653W        W23517  12.576   1.103   0.375  0.1101  0.0077  0.1454
22654W        W23518   0.784  13.066  13.951  0.0718  0.0455 -0.1198
22655W        W23519  13.237  13.691  10.942  0.2763  0.0440  0.0102
22656W        W23520  12.929  10.812   1.106  0.0130  0.0479 -0.1747
22657W        W23521  12.166  12.948  10.132  0.0778 -0.3258  0.1961
22658W        W23522  11.526  12.031  12.604  0.1312 -0.1858 -0.1037
22659W        W23523  11.928  12.907  12.660 -0.2825 -0.2131  0.1861
22660W        W23524  12.654  11.554   1.062  0.0625 -0.1051 -0.0387
22661W        W23525   9.373  12.578  13.909 -0.0009  0.2789  0.2011
22662W        W23526   0.972  13.362  11.292  0.1501  0.0055  0.3380
22663W        W23527  11.544  11.584  11.229  0.2627  0.0270  0.3884
22664W        W23528  13.493  11.824   0.688  0.0990 -0.0490 -0.3060
22665W        W23529  12.506  13.651  13.642 -0.1435 -0.0165  0.0277
22666W        W23530  12.077  10.670  13.148  0.1634  0.0070 -0.1721
22667W        W23531  13.672  11.264  12.310  0.1987 -0.3107  0.0785
22668W        W23532  11.878  11.229  12.934  0.0579 -0.1135  0.3133
22669W        W23533  10.576   0.439  12.023 -0.0322  0.2167 -0.1891
22670W        W23534  11.480  10.738  10.580  0.0484  0.3164 -0.2179
22671W        W23535  11.623  12.821  10.333 -0.0055  0.0645 -0.1309
22672W        W23536   0.295  13.245   0.302  0.5272 -0.0685 -0.0481
22673W        W23537  12.088   0.009   0.888 -0.0550  0.0355 -0.0944
22674W        W23538  12.839   0.633  12.532  0.1157 -0.0619 -0.0419
22675W        W23539  10.725  11.561   9.421 -0.0181 -0.2689  0.1222
22676W        W23540  12.111  12.175   2.820  0.1283 -0.1131 -0.1731
22677W        W23541  12.323  12.389  13.651 -0.3375  0.2019  0.2460
22678W        W23542  11.441   0.803  12.039  0.2430 -0.0749  0.0406
22679W        W23543  12.195   0.203  13.906  0.0926 -0.1413 -0.5655
22680W        W23544  12.583  13.403   0.177  0.3044  0.1906 -0.2136
22681W        W23545  13.536  11.366   0.485  0.0203  0.1222  0.1396
22682W        W23546  12.418  11.132   1.420  0.2126  0.1253 -0.0160
22683W        W23547   1.094  12.397  10.779 -0.1528 -0.1956 -0.5471
22684W        W23548  11.046  11.973  12.471  0.0527  0.0599  0.1614
22685W        W23549  12.898   0.616  13.481 -0.0924  0.0304  0.0850
22686W        W23550  13.408  10.772   0.863  0.1292 -0.0535 -0.0564
22687W        W23551  12.799  13.925  13.205  0.1555  0.4669  0.0428
22688W        W23552  12.961  11.906  12.141  0.1521  0.3053 -0.1793
22689W        W23553  10.503  10.970   0.125 -0.1011 -0.0884 -0.0755
22690W        W23554  12.310  12.997   4.002 -0.2174  0.1064 -0.0659
22691W        W23555  12.689  11.157  11.515  0.0453 -0.1996  0.0392
22692W        W23556  13.850  11.156   0.821 -0.0808 -0.0773 -0.1203
22693W        W23557  13.243  12.991  10.422  0.2564 -0.0069 -0.3405
22694W        W23558  10.460   1.611  12.844 -0.1459 -0.1880 -0.2497
22695W        W23559   2.004   8.905  12.727 -0.1636  0.0652  0.3004
22696W        W23560  12.116  13.091  13.167  0.0019  0.1022 -0.0436
22697W        W23561  13.376  10.301  12.514  0.1391  0.1581 -0.1124
22698W        W23562  11.167  12.596  12.951 -0.0245 -0.1819  0.4634
22699W        W23563   0.318   9.048  10.726 -0.1447  0.0197 -0.0949
22700W        W23564   0.082   1.775   0.918 -0.3968 -0.0151  0.0819
22701W        W23565   2.322  11.941  13.569  0.0988  0.2248 -0.1108
22702W        W23566   0.940   1.978  10.201 -0.2684  0.1554  0.1730
22703W        W23567   0.103  13.567  11.235  0.0238 -0.3277  0.2331
22704W        W23568  10.057   2.377   0.280 -0.6806  0.1317 -0.0991
22705W        W23569   0.311  13.888  11.613 -0.0712  0.2104 -0.0230
22706W        W23570  12.762  11.752  14.012  0.1902  0.0778  0.0400
22707W        W23571  11.706  10.450   2.387  0.1226  0.3104  0.2170
22708W        W23572  13.352  13.986  13.941  0.1672 -0.4184 -0.3738
22709W        W23573  10.649   2.146  12.966  0.0686 -0.1675 -0.0367
22710W        W23574  13.011  10.513   0.654 -0.1135 -0.0456  0.3384
22711W        W23575  11.892  12.336  12.368 -0.0853 -0.1898 -0.2680
22712W        W23576   0.391  10.727  11.639 -0.0789  0.3082 -0.0744
22713W        W23577   0.071  12.262   2.426  0.0772  0.3678  0.0705
22714W        W23578  13.556  10.995  11.866 -0.0478  0.0088  0.0296
22715W        W23579  13.290  12.230   0.921 -0.0809 -0.0689 -0.2969
22716W        W23580  13.828  11.474  11.853  0.1397  0.2790 -0.3779
22717W        W23581  12.404  13.627   0.591 -0.2287 -0.3354 -0.2804
22718W        W23582  12.813   0.063  13.668  0.2273  0.0505 -0.1698
22719W        W23583  11.749  13.136   1.486 -0.1836  0.0522 -0.1132
  14.01415  14.01415  14.01415
