BDT dimerization
29221
    1BDT   BNZ1    1   3.319   7.032   7.471 -0.0826  0.2953  0.0218
    1BDT   BNZ2    2   3.169   6.929   7.485  0.1652 -0.0554  0.1936
    1BDT   BNZ3    3   3.194   7.080   7.685  0.2667 -0.3144  0.3791
    1BDT    BS1    4   3.359   7.183   7.655 -0.0117  0.0944  0.1685
    1BDT    BS2    5   3.036   6.961   7.682  0.5294 -0.6496  0.5351
    2BDT   BNZ1    6   6.587  14.787   3.859 -0.0316 -0.2481 -0.0541
    2BDT   BNZ2    7   6.728  14.897   3.821  0.0234 -0.1961  0.2820
    2BDT   BNZ3    8   6.513  14.991   3.731  0.1254 -0.0026  0.2376
    2BDT    BS1    9   6.372  14.862   3.780  0.0591 -0.0751 -0.1316
    2BDT    BS2   10   6.677  15.097   3.699  0.1710  0.0313  0.5908
    3BDT   BNZ1   11  10.404   7.468   0.524  0.1626 -0.1629  0.0186
    3BDT   BNZ2   12  10.584   7.433   0.529  0.2405  0.2363  0.2161
    3BDT   BNZ3   13  10.491   7.470   0.761 -0.0795  0.1244  0.1080
    3BDT    BS1   14  10.299   7.506   0.737 -0.1328 -0.3118 -0.1043
    3BDT    BS2   15  10.684   7.431   0.747  0.0234  0.5469  0.3193
    4BDT   BNZ1   16   0.453  11.140   1.682  0.3094 -0.0005  0.4248
    4BDT   BNZ2   17   0.533  11.017   1.573  0.2323  0.0577  0.3017
    4BDT   BNZ3   18   0.459  11.220   1.443 -0.1194  0.0026  0.4107
    4BDT    BS1   19   0.376  11.341   1.574 -0.0063 -0.0593  0.5415
    4BDT    BS2   20   0.548  11.076   1.341 -0.1708  0.0665  0.2779
    5BDT   BNZ1   21  12.095  13.555  13.492  0.0784  0.1655 -0.0185
    5BDT   BNZ2   22  12.271  13.599  13.508  0.0722  0.1989 -0.0425
    5BDT   BNZ3   23  12.239  13.413  13.342  0.0945  0.1307  0.0294
    5BDT    BS1   24  12.045  13.378  13.337  0.0995  0.0991  0.0506
    5BDT    BS2   25  12.424  13.474  13.372  0.0861  0.1710 -0.0011
    6BDT   BNZ1   26   9.322   1.126  11.775  0.0630  0.0402 -0.2256
    6BDT   BNZ2   27   9.429   1.262  11.717 -0.0973  0.2244 -0.0938
    6BDT   BNZ3   28   9.287   1.334  11.913 -0.2289 -0.1134 -0.0629
    6BDT    BS1   29   9.179   1.176  11.961 -0.0381 -0.2906 -0.2141
    6BDT    BS2   30   9.410   1.469  11.837 -0.3840  0.1023  0.0697
    7BDT   BNZ1   31   4.105  11.932  13.817 -0.0841  0.1972 -0.4551
    7BDT   BNZ2   32   4.072  12.111  13.832 -0.0711  0.1713 -0.0575
    7BDT   BNZ3   33   3.898  11.976  13.954  0.0901 -0.0751 -0.0973
    7BDT    BS1   34   3.948  11.787  13.928  0.0645 -0.0235 -0.5365
    7BDT    BS2   35   3.879  12.173  13.960  0.0936 -0.0874  0.3153
    8BDT   BNZ1   36  12.090   6.523   4.550 -0.2935  0.2219 -0.1906
    8BDT   BNZ2   37  12.152   6.620   4.692  0.0114 -0.2846  0.0353
    8BDT   BNZ3   38  12.205   6.734   4.473 -0.0615  0.2808  0.3023
    8BDT    BS1   39  12.132   6.617   4.333 -0.3894  0.8061  0.0492
    8BDT    BS2   40  12.265   6.825   4.638  0.2567 -0.2944  0.5144
    9BDT   BNZ1   41   2.563   8.603  11.731 -0.0933 -0.1655  0.2615
    9BDT   BNZ2   42   2.624   8.717  11.860  0.2522 -0.0564  0.0075
    9BDT   BNZ3   43   2.485   8.839  11.689  0.1124 -0.1311  0.0671
    9BDT    BS1   44   2.428   8.702  11.559 -0.2579 -0.2423  0.3490
    9BDT    BS2   45   2.560   8.947  11.837  0.4796 -0.0150 -0.2033
   10BDT   BNZ1   46   3.437  11.049   3.309 -0.0852  0.2192  0.1885
   10BDT   BNZ2   47   3.608  11.025   3.246 -0.1536 -0.1278  0.1271
   10BDT   BNZ3   48   3.608  11.102   3.486  0.0896 -0.2532  0.1688
   10BDT    BS1   49   3.419  11.123   3.537  0.1467  0.1406  0.2309
   10BDT    BS2   50   3.784  11.071   3.402 -0.0078 -0.6017  0.1018
   11BDT   BNZ1   51   8.562   6.320  12.180 -0.0981 -0.0273  0.0547
   11BDT   BNZ2   52   8.468   6.385  12.323 -0.1287 -0.2212  0.1249
   11BDT   BNZ3   53   8.458   6.134  12.314 -0.0239 -0.2177 -0.1490
   11BDT    BS1   54   8.563   6.081  12.156  0.0013 -0.0006 -0.2046
   11BDT    BS2   55   8.362   6.222  12.462 -0.0633 -0.4174 -0.0551
   12BDT   BNZ1   56  11.655  13.298   3.593 -0.0611  0.0471 -0.1427
   12BDT   BNZ2   57  11.835  13.331   3.586 -0.0449 -0.0191 -0.0485
   12BDT   BNZ3   58  11.785  13.131   3.729 -0.2051  0.0830  0.0397
   12BDT    BS1   59  11.589  13.109   3.726 -0.2108  0.1493 -0.0722
   12BDT    BS2   60  11.975  13.182   3.711 -0.1760  0.0069  0.1295
   13BDT   BNZ1   61   1.618  10.732   2.534  0.1138  0.2115  0.0562
   13BDT   BNZ2   62   1.544  10.614   2.416  0.2317  0.0148  0.1769
   13BDT   BNZ3   63   1.547  10.848   2.321 -0.1366 -0.0509 -0.0050
   13BDT    BS1   64   1.629  10.961   2.460 -0.2402  0.1681 -0.1255
   13BDT    BS2   65   1.470  10.706   2.207  0.0157 -0.2510  0.1365
   14BDT   BNZ1   66  10.153   4.151   1.082  0.0273 -0.1494 -0.3563
   14BDT   BNZ2   67  10.299   4.054   1.132  0.0897 -0.0802 -0.4031
   14BDT   BNZ3   68  10.090   3.967   1.242  0.1957 -0.0551 -0.1803
   14BDT    BS1   69   9.943   4.082   1.178  0.1192 -0.1334 -0.1461
   14BDT    BS2   70  10.259   3.874   1.285  0.2520  0.0153 -0.2476
   15BDT   BNZ1   71   5.023   2.777  12.013  0.2669  0.0004 -0.0764
   15BDT   BNZ2   72   4.961   2.706  11.855  0.1921 -0.2186  0.0489
   15BDT   BNZ3   73   5.156   2.861  11.816 -0.2004  0.1979 -0.3172
   15BDT    BS1   74   5.209   2.927  11.994 -0.0944  0.4024 -0.4299
   15BDT    BS2   75   5.077   2.776  11.657 -0.2517 -0.0672 -0.1565
   16BDT   BNZ1   76   8.762  14.990   0.134  0.0729 -0.0915  0.1856
   16BDT   BNZ2   77   8.582  15.024   0.137  0.1144  0.1636 -0.0423
   16BDT   BNZ3   78   8.636  14.826  -0.008  0.0166  0.0766  0.0397
   16BDT    BS1   79   8.832  14.803  -0.000 -0.0263 -0.1989  0.2864
   16BDT    BS2   80   8.446  14.877   0.006  0.0698  0.3472 -0.2026
   17BDT   BNZ1   81  13.468  10.937   0.597 -0.2830  0.0394  0.2792
   17BDT   BNZ2   82  13.563  10.780   0.598 -0.2306  0.0565 -0.3179
   17BDT   BNZ3   83  13.315  10.736   0.595 -0.2457  0.0070  0.5480
   17BDT    BS1   84  13.228  10.913   0.595 -0.2804 -0.0326  1.1439
   17BDT    BS2   85  13.434  10.578   0.596 -0.1789  0.0222 -0.1398
   18BDT   BNZ1   86   7.997  10.137   6.454 -0.1188  0.0658 -0.1364
   18BDT   BNZ2   87   7.998  10.020   6.594  0.2141 -0.0710 -0.2502
   18BDT   BNZ3   88   7.889  10.237   6.659 -0.1008 -0.3160  0.0641
   18BDT    BS1   89   7.896  10.351   6.498 -0.4440 -0.1531  0.1701
   18BDT    BS2   90   7.900  10.098   6.798  0.2708 -0.4398 -0.0816
   19BDT   BNZ1   91  11.751   4.848   6.451  0.3127 -0.0791 -0.1006
   19BDT   BNZ2   92  11.853   4.961   6.552  0.1002 -0.0392  0.0716
   19BDT   BNZ3   93  11.736   4.791   6.696 -0.1807 -0.0023 -0.1083
   19BDT    BS1   94  11.632   4.677   6.573  0.0777 -0.0479 -0.2881
   19BDT    BS2   95  11.851   4.922   6.789 -0.3792  0.0348  0.0793
   20BDT   BNZ1   96  13.394   2.692   1.015 -0.4139  0.1496  0.2766
   20BDT   BNZ2   97  13.353   2.816   0.887 -0.2160 -0.0504  0.0132
   20BDT   BNZ3   98  13.511   2.911   1.059  0.1462 -0.0096 -0.3342
   20BDT    BS1   99  13.545   2.766   1.188 -0.1053  0.1998 -0.0153
   20BDT    BS2  100  13.456   3.031   0.913  0.3195 -0.2350 -0.5725
   21BDT   BNZ1  101   7.426   8.604   0.092 -0.3325  0.3814  0.0891
   21BDT   BNZ2  102   7.346   8.688   0.233 -0.1380  0.1095  0.3693
   21BDT   BNZ3  103   7.595   8.674   0.264 -0.0641  0.2418 -0.1129
   21BDT    BS1  104   7.665   8.582   0.105 -0.2931  0.5381 -0.3792
   21BDT    BS2  105   7.492   8.763   0.408  0.1285 -0.0504  0.2149
   22BDT   BNZ1  106  14.920   3.581  14.963 -0.1220  0.1159  0.1477
   22BDT   BNZ2  107  14.952   3.403  14.935 -0.1384  0.1023  0.2140
   22BDT   BNZ3  108  15.161   3.539  14.902 -0.1641  0.0912 -0.0028
   22BDT    BS1  109  15.109   3.726  14.936 -0.1445  0.1062 -0.0596
   22BDT    BS2  110  15.176   3.344  14.875 -0.1795  0.0773  0.0835
   23BDT   BNZ1  111   8.586  12.412   7.289 -0.0290  0.0407 -0.0757
   23BDT   BNZ2  112   8.509  12.278   7.191 -0.0956  0.0231 -0.0003
   23BDT   BNZ3  113   8.630  12.442   7.043 -0.1010 -0.0638 -0.1018
   23BDT    BS1  114   8.706  12.578   7.163 -0.0272 -0.0381 -0.1777
   23BDT    BS2  115   8.540  12.290   6.953 -0.1694 -0.0749 -0.0152
   24BDT   BNZ1  116   6.099   4.261   5.125  0.1666 -0.1107 -0.1482
   24BDT   BNZ2  117   6.015   4.116   5.050 -0.2894  0.0610  0.0144
   24BDT   BNZ3  118   6.120   4.262   4.874 -0.0408 -0.3316 -0.1689
   24BDT    BS1  119   6.205   4.411   4.970  0.4385 -0.5045 -0.3396
   24BDT    BS2  120   6.025   4.101   4.811 -0.5331 -0.1226  0.0160
   25BDT   BNZ1  121   8.901   3.728  10.007  0.1924 -0.0055  0.0399
   25BDT   BNZ2  122   8.912   3.820  10.165 -0.1655  0.1339 -0.0127
   25BDT   BNZ3  123   8.937   3.975   9.967 -0.0967  0.0163 -0.0963
   25BDT    BS1  124   8.923   3.861   9.807  0.2953 -0.1275 -0.0276
   25BDT    BS2  125   8.945   4.057  10.146 -0.4727  0.1673 -0.1476
   26BDT   BNZ1  126   9.038   1.359   7.469 -0.1641  0.0235 -0.0108
   26BDT   BNZ2  127   9.217   1.364   7.430 -0.1363 -0.2219  0.0715
   26BDT   BNZ3  128   9.081   1.289   7.231 -0.1529  0.0014 -0.0024
   26BDT    BS1  129   8.894   1.289   7.290 -0.1781  0.2567 -0.0887
   26BDT    BS2  130   9.277   1.301   7.206 -0.1225 -0.2704  0.0889
   27BDT   BNZ1  131  14.908   1.109   7.030 -0.1416 -0.0845  0.0042
   27BDT   BNZ2  132  14.919   0.953   6.936 -0.2337 -0.1179  0.0476
   27BDT   BNZ3  133  15.138   1.009   7.046 -0.1328 -0.0923 -0.1627
   27BDT    BS1  134  15.109   1.178   7.143 -0.0390 -0.0583 -0.1956
   27BDT    BS2  135  15.132   0.843   6.940 -0.2369 -0.1293 -0.1012
   28BDT   BNZ1  136   8.826  11.531  10.780  0.2048 -0.0454 -0.0686
   28BDT   BNZ2  137   8.674  11.459  10.708  0.1336 -0.0332  0.0678
   28BDT   BNZ3  138   8.719  11.367  10.938  0.1319  0.2350  0.1765
   28BDT    BS1  139   8.884  11.455  11.000  0.2114  0.2020  0.0151
   28BDT    BS2  140   8.558  11.300  10.846  0.0604  0.2278  0.3078
   29BDT   BNZ1  141  12.083   2.529  10.196  0.0353  0.1616  0.1876
   29BDT   BNZ2  142  11.981   2.680  10.202 -0.0939  0.0760  0.1547
   29BDT   BNZ3  143  12.225   2.734  10.234 -0.1089  0.3207 -0.1202
   29BDT    BS1  144  12.320   2.562  10.225  0.0326  0.3965 -0.0628
   29BDT    BS2  145  12.098   2.886  10.237 -0.2433  0.2106 -0.1323
   30BDT   BNZ1  146   1.296  13.989   2.897 -0.1732  0.1605 -0.1290
   30BDT   BNZ2  147   1.356  13.825   2.842 -0.1585  0.1805 -0.1730
   30BDT   BNZ3  148   1.513  14.008   2.769  0.0527  0.1723  0.2484
   30BDT    BS1  149   1.435  14.176   2.836  0.0171  0.1483  0.2661
   30BDT    BS2  150   1.561  13.824   2.718  0.0478  0.1914  0.1701
   31BDT   BNZ1  151   5.608   0.175   0.724  0.0344 -0.0484 -0.2344
   31BDT   BNZ2  152   5.616   0.022   0.624  0.0336 -0.1225 -0.1217
   31BDT   BNZ3  153   5.846   0.114   0.669  0.0383 -0.1319 -0.1268
   31BDT    BS1  154   5.820   0.277   0.776  0.0387 -0.0492 -0.2517
   31BDT    BS2  155   5.836  -0.052   0.562  0.0370 -0.2071 -0.0094
   32BDT   BNZ1  156   6.203  11.430  14.199 -0.1636 -0.0935 -0.3453
   32BDT   BNZ2  157   6.074  11.557  14.174 -0.0961  0.0738  0.0983
   32BDT   BNZ3  158   5.975  11.325  14.177 -0.2475  0.1211 -0.5166
   32BDT    BS1  159   6.126  11.202  14.205 -0.3209 -0.0532 -0.9638
   32BDT    BS2  160   5.849  11.475  14.150 -0.1661  0.2960 -0.0083
   33BDT   BNZ1  161   4.502   1.401   8.149  0.0601  0.0493  0.2646
   33BDT   BNZ2  162   4.338   1.350   8.087 -0.0461  0.2685  0.3593
   33BDT   BNZ3  163   4.341   1.364   8.339  0.0709  0.4186  0.3504
   33BDT    BS1  164   4.523   1.420   8.388  0.1800  0.1637  0.2445
   33BDT    BS2  165   4.170   1.310   8.254 -0.0447  0.6342  0.4489
   34BDT   BNZ1  166   8.910  14.290  11.452  0.4311  0.1408  0.3159
   34BDT   BNZ2  167   9.087  14.280  11.409  0.2430 -0.2238 -0.4687
   34BDT   BNZ3  168   8.983  14.051  11.421 -0.0888 -0.0467  0.4799
   34BDT    BS1  169   8.794  14.079  11.467  0.1967  0.3511  1.2655
   34BDT    BS2  170   9.175  14.059  11.375 -0.2504 -0.4287 -0.4096
   35BDT   BNZ1  171  14.180   9.057   6.106  0.2101 -0.2407 -0.0339
   35BDT   BNZ2  172  14.159   9.205   6.212 -0.2280 -0.1380 -0.2503
   35BDT   BNZ3  173  14.157   8.993   6.348  0.0880  0.0352  0.0293
   35BDT    BS1  174  14.180   8.846   6.220  0.5483 -0.0802  0.2543
   35BDT    BS2  175  14.136   9.163   6.447 -0.3906  0.1275 -0.2191
   36BDT   BNZ1  176   0.162   5.821  14.263 -0.0275  0.0394 -0.0093
   36BDT   BNZ2  177   0.015   5.832  14.372 -0.0788  0.0798 -0.0819
   36BDT   BNZ3  178   0.156   6.041  14.385  0.0193  0.0060  0.0538
   36BDT    BS1  179   0.307   6.013  14.264  0.0676 -0.0335  0.1245
   36BDT    BS2  180  -0.008   6.036  14.497 -0.0421  0.0534 -0.0323
   37BDT   BNZ1  181   8.736  14.524   3.494 -0.0774 -0.1096 -0.0660
   37BDT   BNZ2  182   8.665  14.673   3.573  0.0226 -0.0441 -0.1003
   37BDT   BNZ3  183   8.598  14.658   3.330  0.1261  0.0189 -0.1332
   37BDT    BS1  184   8.681  14.494   3.261  0.0077 -0.0594 -0.0923
   37BDT    BS2  185   8.531  14.814   3.432  0.2220  0.0803 -0.1660
   38BDT   BNZ1  186   3.030   0.563   8.182 -0.0005  0.2275  0.0223
   38BDT   BNZ2  187   2.946   0.446   8.295  0.1817  0.1630  0.0924
   38BDT   BNZ3  188   3.195   0.453   8.337  0.2287  0.2684 -0.1878
   38BDT    BS1  189   3.269   0.582   8.208  0.0206  0.3313 -0.2436
   38BDT    BS2  190   3.088   0.332   8.451  0.4122  0.1940 -0.0936
   39BDT   BNZ1  191   2.843   9.225   3.502 -0.2940 -0.0979 -0.1228
   39BDT   BNZ2  192   2.988   9.133   3.438  0.0851  0.0826  0.4329
   39BDT   BNZ3  193   2.841   8.986   3.581 -0.3186 -0.1102 -0.1607
   39BDT    BS1  194   2.692   9.100   3.641 -0.6798 -0.3107 -0.7451
   39BDT    BS2  195   3.002   8.902   3.503  0.1121  0.0916  0.4587
   40BDT   BNZ1  196  11.026  13.546   8.905  0.1267  0.0486 -0.0855
   40BDT   BNZ2  197  11.178  13.484   8.823  0.1950 -0.0927  0.1423
   40BDT   BNZ3  198  10.976  13.346   8.759  0.1285  0.1919 -0.2850
   40BDT    BS1  199  10.824  13.426   8.856  0.0662  0.3259 -0.5074
   40BDT    BS2  200  11.149  13.293   8.679  0.2093  0.0234 -0.0150
   41BDT   BNZ1  201   1.721  11.048   5.223 -0.2645  0.1712 -0.0139
   41BDT   BNZ2  202   1.762  11.125   5.383  0.0476 -0.0469  0.0131
   41BDT   BNZ3  203   1.751  10.874   5.402  0.2178 -0.0825 -0.3322
   41BDT    BS1  204   1.706  10.808   5.222 -0.1420  0.1663 -0.3377
   41BDT    BS2  205   1.795  10.973   5.567  0.5246 -0.3045 -0.2858
   42BDT   BNZ1  206   7.421  13.302  11.055  0.1111 -0.0074 -0.0829
   42BDT   BNZ2  207   7.314  13.158  11.095  0.2306 -0.1042 -0.1111
   42BDT   BNZ3  208   7.368  13.292  11.302  0.1850 -0.1463 -0.0719
   42BDT    BS1  209   7.482  13.441  11.242  0.0558 -0.0358 -0.0439
   42BDT    BS2  210   7.254  13.133  11.326  0.3129 -0.2422 -0.1048
   43BDT   BNZ1  211   1.998   0.296  14.888  0.4964 -0.2848  0.1367
   43BDT   BNZ2  212   2.028   0.451  14.982 -0.2674 -0.0662  0.0565
   43BDT   BNZ3  213   2.081   0.481  14.737 -0.0522 -0.0558  0.1032
   43BDT    BS1  214   2.044   0.307  14.652  0.7818 -0.2830  0.1995
   43BDT    BS2  215   2.108   0.638  14.854 -0.8628  0.1543  0.0081
   44BDT   BNZ1  216   5.559   4.710   2.473  0.0748  0.3700 -0.1728
   44BDT   BNZ2  217   5.559   4.861   2.577 -0.0043  0.1912  0.0921
   44BDT   BNZ3  218   5.327   4.806   2.495  0.0209  0.2007  0.0138
   44BDT    BS1  219   5.344   4.643   2.386  0.1069  0.4011 -0.2724
   44BDT    BS2  220   5.346   4.966   2.609 -0.0628  0.0123  0.2923
   45BDT   BNZ1  221   1.367  10.220  14.832  0.1386 -0.0207  0.1254
   45BDT   BNZ2  222   1.468  10.118  14.719 -0.1416 -0.1559 -0.0084
   45BDT   BNZ3  223   1.309  10.266  14.591 -0.0452  0.1293  0.1976
   45BDT    BS1  224   1.209  10.368  14.727  0.2625  0.2531  0.3269
   45BDT    BS2  225   1.426  10.149  14.484 -0.3422 -0.0343  0.0433
   46BDT   BNZ1  226   3.499  12.676  11.879  0.0245  0.1564 -0.1463
   46BDT   BNZ2  227   3.441  12.835  11.949 -0.1037  0.0408  0.0143
   46BDT   BNZ3  228   3.270  12.652  11.982  0.0291 -0.1240 -0.1958
   46BDT    BS1  229   3.348  12.490  11.902  0.1615  0.0200 -0.3572
   46BDT    BS2  230   3.224  12.832  12.051 -0.1128 -0.2302 -0.0133
   47BDT   BNZ1  231  10.042   7.160   9.329 -0.1731  0.1403  0.0473
   47BDT   BNZ2  232  10.136   7.163   9.485 -0.0160  0.0900 -0.0455
   47BDT   BNZ3  233  10.279   7.083   9.294 -0.2755 -0.0863 -0.1688
   47BDT    BS1  234  10.163   7.086   9.135 -0.4308 -0.0161 -0.0542
   47BDT    BS2  235  10.365   7.093   9.472 -0.0937 -0.1233 -0.2540
   48BDT   BNZ1  236   7.102  11.405  12.196 -0.0871 -0.3680 -0.3071
   48BDT   BNZ2  237   7.094  11.342  12.367  0.0620  0.0837 -0.1286
   48BDT   BNZ3  238   6.863  11.386  12.275 -0.0156 -0.0867 -0.0182
   48BDT    BS1  239   6.890  11.452  12.092 -0.1746 -0.5776 -0.2171
   48BDT    BS2  240   6.874  11.318  12.461  0.1461  0.3967  0.1508
   49BDT   BNZ1  241   8.416   1.481   9.993  0.2062 -0.0947 -0.0137
   49BDT   BNZ2  242   8.241   1.460   9.942  0.1479 -0.2359  0.2363
   49BDT   BNZ3  243   8.284   1.694  10.026  0.1452 -0.1241 -0.0677
   49BDT    BS1  244   8.474   1.699  10.076  0.2046  0.0226 -0.3234
   49BDT    BS2  245   8.100   1.652   9.966  0.0841 -0.2799  0.2151
   50BDT   BNZ1  246   1.961  12.179   6.380  0.1432 -0.2980  0.0194
   50BDT   BNZ2  247   1.853  12.241   6.514  0.3904 -0.0272  0.0990
   50BDT   BNZ3  248   1.954  12.018   6.574  0.2894 -0.0342  0.2470
   50BDT    BS1  249   2.067  11.967   6.421  0.0208 -0.3323  0.1490
   50BDT    BS2  250   1.834  12.100   6.708  0.5561  0.2456  0.3130
   51W        W  251  14.379   4.883   9.335  0.2921  0.2226  0.0417
   52W        W  252   3.706   7.827   8.047 -0.1728 -0.1310  0.3342
   53W        W  253  13.661   0.869   2.984 -0.2102 -0.1443  0.2526
   54W        W  254   6.461   4.085   5.092 -0.0838 -0.3393 -0.1839
   55W        W  255  10.387   2.789   7.503  0.4880  0.1199  0.1256
   56W        W  256  14.765   4.585   2.136 -0.3916 -0.0742  0.1313
   57W        W  257  11.983   2.748   4.332  0.3125 -0.1704 -0.3621
   58W        W  258  13.514  10.603   2.868 -0.2316 -0.1687 -0.1777
   59W        W  259   2.375   3.316   0.058 -0.0720 -0.1151 -0.3402
   60W        W  260  12.234   3.171   3.471 -0.0315 -0.2407 -0.0704
   61W        W  261  14.452   2.228   6.175  0.1520 -0.3393 -0.2156
   62W        W  262   6.948   4.203   1.073 -0.0050 -0.6275  0.3358
   63W        W  263   4.649   2.222   2.466 -0.1776  0.1641 -0.1303
   64W        W  264   5.386  15.086  11.640  0.2081 -0.1087 -0.3819
   65W        W  265   2.512   1.816  15.008  0.0052 -0.1121  0.2105
   66W        W  266   4.648  15.001   4.715 -0.1966  0.1632 -0.0200
   67W        W  267  13.161  11.279  13.053 -0.0307  0.1644 -0.1148
   68W        W  268   2.533   3.016   9.667 -0.3210 -0.2671  0.1671
   69W        W  269  13.342   2.531   5.760  0.0173  0.2100  0.2982
   70W        W  270  12.857   7.993   2.690  0.0458 -0.1115 -0.0350
   71W        W  271   3.447   8.429   3.643  0.2290  0.1274  0.1016
   72W        W  272   7.272   5.740   6.941  0.2068  0.2127  0.1845
   73W        W  273   1.904  11.810   0.949 -0.3460 -0.1777 -0.2162
   74W        W  274   0.673   0.472  11.525  0.4109  0.1045 -0.1815
   75W        W  275   9.296   9.492   9.230 -0.1743  0.3193 -0.2467
   76W        W  276  10.641   8.617  13.714  0.0207  0.1521 -0.2514
   77W        W  277  10.737  13.399  14.303  0.0054  0.2369 -0.0915
   78W        W  278  13.405   5.294   0.734 -0.1479  0.1918 -0.0802
   79W        W  279   9.303   2.014   5.256  0.0198 -0.0623 -0.2021
   80W        W  280   6.540   0.986  12.667  0.0880  0.1108  0.0973
   81W        W  281   1.191   7.900   2.079  0.0714 -0.1063  0.2399
   82W        W  282  12.550   4.396   3.587 -0.1680  0.1231 -0.0428
   83W        W  283  13.556   1.461   8.321  0.0617  0.0778 -0.0241
   84W        W  284   2.262   2.682   0.485 -0.2653 -0.2010  0.0355
   85W        W  285   6.583  11.433  14.652  0.4654  0.1739  0.0730
   86W        W  286   3.276   1.259  11.396 -0.0398 -0.2104 -0.0195
   87W        W  287  13.198  11.473   5.951  0.1823  0.0782 -0.0391
   88W        W  288   3.872   7.545   7.676  0.1020  0.1369  0.0174
   89W        W  289  11.851  11.119  13.331  0.2188  0.2363  0.4357
   90W        W  290   2.956   7.867   2.065  0.0075 -0.0370  0.0974
   91W        W  291  15.000  11.100  10.087  0.2519  0.0884  0.1654
   92W        W  292   1.669   5.587  12.214 -0.2128  0.1282  0.2194
   93W        W  293   7.517   7.938   8.905  0.0197 -0.2135 -0.2133
   94W        W  294   4.597   1.207  12.788 -0.0730  0.0541  0.1317
   95W        W  295   2.793   0.628  14.089 -0.0263 -0.0894  0.1461
   96W        W  296  14.817   6.857   7.586 -0.0564  0.1611  0.3091
   97W        W  297   4.914   0.993  10.578 -0.0546  0.1425  0.1481
   98W        W  298   7.956  10.474   7.109  0.0544 -0.0164 -0.1883
   99W        W  299   6.007  11.233   9.574  0.0786 -0.1403 -0.1315
  100W        W  300   7.561   9.310  10.573  0.1582 -0.1152 -0.2545
  101W        W  301   4.117  11.819   6.138 -0.0236 -0.0834  0.0153
  102W        W  302   0.377   0.611   6.027 -0.1102  0.0398  0.1476
  103W        W  303   6.377   6.166   7.888  0.1125 -0.5052  0.0052
  104W        W  304   1.307   2.928   7.073 -0.0949  0.0195 -0.2503
  105W        W  305  11.846   4.862   4.446 -0.1146  0.0147  0.4017
  106W        W  306   4.254   1.171   7.681 -0.1588 -0.0218  0.0506
  107W        W  307   8.952   1.361  14.042  0.0360  0.1589 -0.1034
  108W        W  308   5.914   2.618   3.774 -0.0304  0.1765  0.4415
  109W        W  309  11.964   3.236   3.980  0.1879 -0.2692  0.0930
  110W        W  310  14.144   6.082  11.793  0.2893 -0.1075 -0.0179
  111W        W  311   0.154   5.437   6.855  0.1835  0.3380  0.0832
  112W        W  312   5.344   4.416   3.697  0.1452  0.0518  0.1246
  113W        W  313   1.300  12.880   6.235 -0.0317  0.2343  0.0248
  114W        W  314   1.654  12.270   4.745  0.3602  0.0096 -0.2357
  115W        W  315  12.664  11.457  14.243  0.0793  0.2420 -0.1657
  116W        W  316  14.416   6.845   0.129  0.0979  0.1697 -0.1442
  117W        W  317  12.209   7.577   3.811 -0.1040 -0.2502  0.1423
  118W        W  318   8.562   4.223   6.115  0.3757 -0.1776  0.1681
  119W        W  319   9.839   0.620   5.422 -0.1600  0.0730 -0.0357
  120W        W  320   5.799   3.536   4.068  0.3216  0.2382  0.1692
  121W        W  321  14.166  13.725   6.747 -0.1845 -0.3720  0.0364
  122W        W  322   0.332   0.782   8.370  0.1690  0.1131  0.0393
  123W        W  323   3.590  14.324   2.293  0.1318 -0.3182  0.2063
  124W        W  324   1.831   5.877   0.371  0.0199  0.2021 -0.1065
  125W        W  325   4.845   5.945   4.812 -0.2671  0.1100  0.1400
  126W        W  326   2.132   2.267   4.225 -0.0744 -0.0979  0.0110
  127W        W  327   4.135   6.685   2.917  0.0290 -0.1848 -0.0600
  128W        W  328   3.433   2.833   3.974  0.0022 -0.0200  0.3019
  129W        W  329   6.506  13.857  12.347  0.1989  0.1276 -0.0433
  130W        W  330   4.708   2.696   4.642  0.1033  0.0122  0.0670
  131W        W  331   4.023   9.206   1.480  0.0525  0.2616 -0.0446
  132W        W  332  10.703   1.372   4.522 -0.0998  0.0551  0.0461
  133W        W  333   6.878   1.103   9.174  0.3809  0.2924  0.0737
  134W        W  334   5.815  11.209   2.009  0.1092  0.0601 -0.2595
  135W        W  335   0.933   4.378   4.567 -0.1819  0.1088 -0.2955
  136W        W  336   6.436   9.101   2.445  0.1515  0.0115  0.0448
  137W        W  337   1.739   8.896  13.450 -0.0473  0.1993 -0.1528
  138W        W  338   3.102   0.246  12.715 -0.1334 -0.1828  0.0601
  139W        W  339   9.950   6.385   5.575 -0.1378  0.4153  0.0201
  140W        W  340  13.028  10.447   6.372  0.4044 -0.0535 -0.0269
  141W        W  341   2.097   5.446   4.842  0.1065  0.0350  0.0428
  142W        W  342   0.859   1.809   7.167  0.0576 -0.5006 -0.2472
  143W        W  343   2.749  13.336   0.665  0.1672  0.1564  0.1577
  144W        W  344  14.498   4.258  14.673  0.1562  0.3186 -0.0685
  145W        W  345   7.625   1.399  10.412 -0.1164  0.1750  0.2399
  146W        W  346  11.315  13.307   1.189  0.0153  0.0579  0.0764
  147W        W  347  11.324   5.721   3.520 -0.3168 -0.0972 -0.1864
  148W        W  348  11.151   6.937   2.115  0.1165  0.2184  0.0483
  149W        W  349   0.260   6.719   6.658 -0.4212 -0.1473 -0.0773
  150W        W  350   2.350   8.896   3.975 -0.0529 -0.1456 -0.3977
  151W        W  351   2.608  14.724   9.698 -0.3267  0.0015  0.1227
  152W        W  352  13.294   6.033   9.994  0.2282  0.0931 -0.1475
  153W        W  353   0.826  12.940   9.492 -0.2478  0.2514 -0.4694
  154W        W  354   6.772   3.802   8.397  0.1116 -0.0398  0.1479
  155W        W  355   0.615   0.981  14.532 -0.2506  0.0751  0.0792
  156W        W  356  10.695   0.031  14.414 -0.2611  0.0105  0.1827
  157W        W  357   3.535   7.724   0.456  0.1764 -0.1970 -0.0732
  158W        W  358   3.188   7.257  10.445 -0.0673  0.0292  0.0323
  159W        W  359   6.799   4.382   5.933  0.1841  0.2089 -0.1154
  160W        W  360   3.101   9.050   1.235  0.0210 -0.0125  0.0029
  161W        W  361   2.157   7.316   4.092  0.0696 -0.2740  0.0710
  162W        W  362   9.753   5.031   1.880  0.1043  0.0922 -0.1762
  163W        W  363  12.938  10.420   0.892  0.0382  0.1085 -0.2477
  164W        W  364   7.093   6.299   8.621 -0.0873 -0.0515  0.1818
  165W        W  365   7.211  10.282   8.589  0.2333  0.0633  0.1503
  166W        W  366  11.859  12.279   7.538  0.0235  0.0348  0.0505
  167W        W  367   9.568   1.902   3.282 -0.0184 -0.0405 -0.1599
  168W        W  368   6.022   9.612  11.116 -0.0558  0.2605 -0.0334
  169W        W  369  14.482   8.888   6.542  0.1294 -0.0322 -0.1391
  170W        W  370   3.618   7.407  12.732 -0.3926  0.3216 -0.2348
  171W        W  371   1.064   1.076   6.408  0.1819 -0.0462 -0.0850
  172W        W  372   0.917  13.479  12.496 -0.2261 -0.1552  0.1261
  173W        W  373   8.471  10.401   5.797 -0.0332  0.1264 -0.0603
  174W        W  374   0.819   7.640   5.175 -0.2254  0.0052 -0.0319
  175W        W  375   7.838   8.241   4.935 -0.0036  0.0761  0.3093
  176W        W  376   6.291   1.705   8.154  0.0221 -0.0705  0.1336
  177W        W  377   3.469  11.793   7.224  0.0812 -0.5869 -0.2601
  178W        W  378  11.611   2.102   5.485  0.1144 -0.0437 -0.0832
  179W        W  379  14.764  14.519  10.366 -0.1005 -0.2657 -0.3324
  180W        W  380  13.129   4.389   8.997  0.0790 -0.1693 -0.1485
  181W        W  381   1.938   1.190   0.237  0.0714 -0.3064 -0.0968
  182W        W  382  13.478   1.398  13.199  0.0095 -0.0842 -0.0217
  183W        W  383   6.470   4.306   0.891 -0.1912  0.2472 -0.2349
  184W        W  384   9.597  11.283   3.717 -0.1450  0.1827 -0.3906
  185W        W  385  12.866  12.885   1.792 -0.0698  0.1559  0.1140
  186W        W  386   3.447   0.652   0.239  0.0030  0.0554  0.2809
  187W        W  387   2.742  14.080   5.680 -0.1575  0.1983  0.1545
  188W        W  388   6.299  13.042   5.063  0.0043  0.0586 -0.0592
  189W        W  389  13.399   5.751  10.476  0.1240  0.3728 -0.2016
  190W        W  390  13.853  10.205   1.749 -0.0992 -0.1599  0.0590
  191W        W  391  13.361  12.258  12.106 -0.3409  0.2843 -0.3095
  192W        W  392   0.063   0.625   9.218 -0.1189  0.1949 -0.0005
  193W        W  393   5.033   5.155   1.947  0.0511 -0.0237  0.0879
  194W        W  394   9.651   8.176   8.060  0.1143  0.3100  0.1893
  195W        W  395   6.039   5.607   6.771  0.0426  0.0510 -0.2017
  196W        W  396  12.860   8.254   3.495 -0.1995 -0.2067  0.1361
  197W        W  397   3.841  11.948  11.727  0.1835  0.2542 -0.3687
  198W        W  398   1.902   9.541   7.428 -0.1755  0.2461 -0.1717
  199W        W  399   8.759   5.905   4.083 -0.4216 -0.1233  0.2231
  200W        W  400   3.381  11.942   8.127  0.1690  0.1706  0.0907
  201W        W  401  12.327   0.499  10.465 -0.2130 -0.2824 -0.1925
  202W        W  402  12.954   2.291   5.890 -0.0726  0.2186  0.2603
  203W        W  403   1.594  10.588  10.957  0.0009  0.1215  0.0537
  204W        W  404   0.980  14.368  14.573  0.0841 -0.0423  0.0629
  205W        W  405  14.804  13.178   0.632 -0.1336 -0.2234 -0.1754
  206W        W  406   2.795   5.854  14.800 -0.0317  0.0464 -0.0173
  207W        W  407   5.034  14.359   7.479 -0.3299  0.1746  0.1874
  208W        W  408   1.217  11.053   6.744  0.1435 -0.1525  0.1358
  209W        W  409   8.580   5.498   3.830  0.3145 -0.0999 -0.1203
  210W        W  410   0.713   9.860  14.743 -0.0829  0.0096 -0.1855
  211W        W  411   2.095   5.368   7.665 -0.1266  0.1786  0.1221
  212W        W  412   1.989  11.003   1.677 -0.1163 -0.0279  0.1805
  213W        W  413   2.041   6.324   1.612  0.1296  0.1407 -0.1372
  214W        W  414   5.162   5.503   6.686 -0.0298 -0.2677 -0.1389
  215W        W  415  11.253   1.714  12.711 -0.1502  0.0051  0.0043
  216W        W  416   1.168   5.029   2.669  0.0173  0.1721 -0.2375
  217W        W  417  10.300  13.322   2.589 -0.1828 -0.2399  0.2024
  218W        W  418   7.361   7.339  14.817  0.0530  0.0425  0.2249
  219W        W  419   4.120   6.808   2.112 -0.1831  0.2452  0.0214
  220W        W  420   0.694   8.012  13.532  0.0082 -0.2404  0.0056
  221W        W  421  15.121   2.883   5.723 -0.1480 -0.1012 -0.1736
  222W        W  422   1.672   3.942  13.906  0.0297  0.2383 -0.1996
  223W        W  423   7.304   6.956   5.539  0.0215 -0.1854  0.0243
  224W        W  424   0.672   5.894   2.892 -0.2230 -0.2355 -0.0323
  225W        W  425  13.552   3.859   5.460 -0.2423 -0.0014  0.0321
  226W        W  426   6.986   5.022   3.309  0.0203  0.0771 -0.1054
  227W        W  427  10.018  10.834  15.164 -0.3220  0.1257 -0.1609
  228W        W  428   3.788   3.611   5.540 -0.1221  0.2124  0.0798
  229W        W  429   3.009  14.166   1.906 -0.2299 -0.3351  0.1343
  230W        W  430   2.961  14.907  15.149  0.3012  0.0200 -0.0637
  231W        W  431  11.038   4.456   7.594  0.0148 -0.0303 -0.0742
  232W        W  432   6.990   5.647   4.779 -0.0141 -0.1303 -0.1010
  233W        W  433   1.247   1.267  11.467 -0.2264  0.2051  0.2586
  234W        W  434   3.561   4.705  13.692 -0.1034  0.1048 -0.2065
  235W        W  435   6.692  13.537   9.367  0.3138  0.2396 -0.0022
  236W        W  436  11.121   3.711   8.068 -0.1734 -0.2683  0.0197
  237W        W  437   3.182  12.727   6.143  0.0575  0.1500 -0.1496
  238W        W  438   5.872   1.877   9.415 -0.2973 -0.1233 -0.2016
  239W        W  439  12.741   1.806   0.306  0.3249  0.0116 -0.1319
  240W        W  440  14.108   0.698  14.747  0.1695 -0.2635  0.1756
  241W        W  441  12.335   1.479   0.592  0.1461 -0.0809 -0.0532
  242W        W  442  11.075   3.387   2.515 -0.0223  0.0763 -0.0714
  243W        W  443   2.365   0.337   9.459 -0.0688  0.0829 -0.0231
  244W        W  444   4.504   8.053   5.934  0.2359 -0.3855 -0.0854
  245W        W  445   1.822   1.282   3.454 -0.0897 -0.1179  0.2823
  246W        W  446   8.191  14.480   1.926  0.1407  0.1483 -0.5078
  247W        W  447   5.757   6.459   8.682  0.0176 -0.1402  0.1216
  248W        W  448  14.983   4.132  13.306  0.0939 -0.0187  0.1768
  249W        W  449  13.720  14.383   3.611 -0.1185 -0.0702  0.1096
  250W        W  450  11.382   4.284  14.138  0.1854  0.1757 -0.0102
  251W        W  451  13.570  11.680  14.466  0.1152  0.2965 -0.0604
  252W        W  452   9.283   2.036   8.555  0.0572 -0.0703 -0.0184
  253W        W  453  14.721   6.348   3.610 -0.2751 -0.1136  0.2839
  254W        W  454   9.141   6.727   3.608 -0.0194  0.0678  0.0019
  255W        W  455   0.800   2.238  13.811  0.3194  0.4853 -0.1373
  256W        W  456   7.417  14.207   0.799 -0.1461 -0.4554 -0.0274
  257W        W  457   0.442  14.266   3.431  0.4717 -0.1794 -0.1117
  258W        W  458   7.234  11.196   4.226 -0.1156 -0.0940  0.1455
  259W        W  459  13.901  14.841   1.038 -0.2400 -0.2202 -0.0843
  260W        W  460  15.001   2.033  13.991 -0.0973 -0.1078  0.2192
  261W        W  461   4.844  12.625   9.221  0.0483  0.1221  0.0197
  262W        W  462   2.410   7.640   1.756 -0.1393 -0.2660 -0.1309
  263W        W  463   1.776  13.570   6.370  0.2479 -0.0793 -0.0914
  264W        W  464  11.026   1.046  14.929  0.0231 -0.0133  0.3117
  265W        W  465  14.959  10.265   1.799  0.3485 -0.0067  0.1270
  266W        W  466   8.911   1.692   1.416  0.0133  0.0981 -0.0710
  267W        W  467   3.286   3.815   6.739 -0.0445 -0.0306 -0.1483
  268W        W  468   4.511   8.379  13.277  0.0450  0.1382 -0.0688
  269W        W  469   5.947   7.250   8.513  0.0600 -0.2143 -0.1358
  270W        W  470   3.228   4.154  11.103  0.1174  0.4485 -0.0231
  271W        W  471   7.224   2.047   6.921  0.2922 -0.0391  0.0123
  272W        W  472   5.632  10.879   2.340 -0.2479  0.0634  0.1646
  273W        W  473   6.374   0.583  13.566  0.3180  0.2516 -0.1832
  274W        W  474  11.155   0.092   6.572 -0.1006  0.1911  0.0997
  275W        W  475  10.974   6.952  11.507  0.2302  0.1262  0.1344
  276W        W  476   6.180  13.200   6.031  0.1079 -0.0807  0.3621
  277W        W  477   0.406  10.405   8.015  0.0623 -0.2897  0.3025
  278W        W  478  10.960   9.824   2.668  0.2593  0.3650 -0.1233
  279W        W  479  11.701  15.096  12.862 -0.1853 -0.2084  0.0319
  280W        W  480   7.201   9.210   9.067 -0.0266 -0.3330 -0.3916
  281W        W  481   1.823  12.678   1.418  0.1403  0.0491  0.2160
  282W        W  482  13.709   1.984   9.110 -0.0244 -0.1396 -0.1310
  283W        W  483  12.102  12.946   4.762  0.0696  0.0253  0.1943
  284W        W  484   5.029  11.384   8.079  0.0850  0.3011 -0.2626
  285W        W  485   9.357  14.676   8.824 -0.1366  0.1084  0.1797
  286W        W  486   8.539  15.043   4.741 -0.1922 -0.0494  0.0691
  287W        W  487  14.374   3.057   1.629 -0.0491  0.1219 -0.0159
  288W        W  488   5.678  12.298   5.057 -0.1876  0.1113 -0.1676
  289W        W  489  13.403   1.278  13.680 -0.1952  0.0799  0.2142
  290W        W  490   8.762  14.277  12.359 -0.1924 -0.1331  0.2115
  291W        W  491   1.498  14.716  10.177  0.0959  0.2272 -0.0951
  292W        W  492   0.452  14.319  12.722 -0.1925 -0.1000  0.1509
  293W        W  493   7.621   8.076   3.173 -0.1591 -0.0931  0.3712
  294W        W  494   2.660   1.010   3.282  0.2137 -0.0838  0.0076
  295W        W  495   7.848   0.346   5.078  0.0450  0.1297  0.1744
  296W        W  496   7.030   3.459   0.498 -0.0323  0.0029 -0.2474
  297W        W  497  14.812   3.994  14.291 -0.1517  0.1250  0.0557
  298W        W  498   4.967   6.616   4.021 -0.1460 -0.0656 -0.1557
  299W        W  499  15.130   6.385  13.174  0.0912  0.1384  0.1645
  300W        W  500  11.324  10.649   3.579  0.0142  0.1818 -0.1336
  301W        W  501   4.946   1.790   4.779  0.1840 -0.1932  0.1444
  302W        W  502   0.153  12.705   3.036 -0.2863  0.1892  0.3888
  303W        W  503   7.455   3.751   6.620  0.3042  0.1245  0.0653
  304W        W  504   6.114   7.027   9.983  0.0461 -0.1249 -0.2574
  305W        W  505  13.593   6.527  15.120  0.0219  0.2311  0.0124
  306W        W  506  15.033   4.856   3.641  0.0348  0.2197  0.2699
  307W        W  507  13.754  11.494   4.418 -0.1455 -0.0546 -0.1363
  308W        W  508   2.109   0.161   4.879 -0.1510 -0.2309 -0.0204
  309W        W  509   0.249  11.383  11.268 -0.0447 -0.0187 -0.3807
  310W        W  510  12.512   2.385   1.897  0.1176  0.0979  0.0524
  311W        W  511   2.523   6.494  13.945 -0.1177  0.4642 -0.3060
  312W        W  512   5.903   8.118   0.801 -0.5355  0.0893 -0.0272
  313W        W  513  13.545   9.445   8.655 -0.3121 -0.0593  0.1308
  314W        W  514  11.790   5.179  12.957 -0.2949 -0.1144 -0.0684
  315W        W  515   3.130   5.982   2.698  0.0056 -0.2700  0.1223
  316W        W  516   7.100   0.186   5.610 -0.1246  0.1118 -0.1159
  317W        W  517  13.275   9.764   8.050 -0.0942 -0.0122 -0.0238
  318W        W  518   4.101   0.447   2.925 -0.0161  0.1276  0.2561
  319W        W  519   3.282  12.525  14.998 -0.0837 -0.2532 -0.1580
  320W        W  520   7.356  11.612   0.052 -0.1267  0.0281 -0.0278
  321W        W  521   3.345   5.623  13.347  0.1660 -0.4120 -0.0333
  322W        W  522  10.805   5.154   0.607  0.0221  0.2927 -0.1318
  323W        W  523   0.941  14.571  13.377  0.1240 -0.1752  0.0659
  324W        W  524  14.217  13.914  12.522 -0.0735 -0.1113  0.2920
  325W        W  525   0.298   8.859   2.284 -0.2652  0.2961  0.3236
  326W        W  526   3.688  14.788   7.331  0.2140  0.0746  0.0709
  327W        W  527  10.720   0.367   2.244 -0.2201 -0.3406  0.3289
  328W        W  528  13.400  14.351   0.882 -0.0970 -0.0807  0.0261
  329W        W  529   9.202  12.043   5.055  0.0362 -0.1047  0.3048
  330W        W  530  14.471   0.813  11.724 -0.0640 -0.1517 -0.0979
  331W        W  531   2.292   2.124  13.485 -0.2199 -0.0314  0.0431
  332W        W  532   2.712  11.156   1.941 -0.2786 -0.1457  0.0059
  333W        W  533   4.816   0.153   3.842 -0.2551 -0.1920  0.3125
  334W        W  534  10.946   9.216  12.417  0.3796  0.0919 -0.0223
  335W        W  535   1.838   1.617  14.101  0.0454 -0.1028  0.3144
  336W        W  536  12.175  11.211   4.493 -0.1500  0.1784 -0.2886
  337W        W  537   0.994   4.207  11.847 -0.2227  0.2189  0.1562
  338W        W  538  14.615   2.989   6.807 -0.1476 -0.0893 -0.0534
  339W        W  539   2.574  10.476  13.089  0.1378 -0.2183  0.1250
  340W        W  540   4.151   2.706   0.262 -0.0030  0.0451 -0.2736
  341W        W  541   5.911   8.868  11.802  0.0318  0.2705  0.1855
  342W        W  542   7.747   7.902   3.727  0.0217  0.1578  0.0483
  343W        W  543   3.538   0.132   6.538 -0.0332 -0.1293 -0.3072
  344W        W  544   1.109   2.237   4.027 -0.0852 -0.0750 -0.2741
  345W        W  545   0.532   5.029   7.037  0.2326 -0.0102 -0.0112
  346W        W  546   4.966  11.639   2.084  0.2562  0.3815  0.0595
  347W        W  547   8.214   4.150   0.741 -0.1202  0.2170  0.0195
  348W        W  548  11.776  14.856   6.863  0.0944  0.1500  0.0369
  349W        W  549   6.786   5.767   0.863  0.0153  0.1221 -0.1688
  350W        W  550   4.611   7.325   7.202 -0.1060 -0.0979  0.0822
  351W        W  551   3.577   3.616   7.090  0.0718 -0.1660  0.1442
  352W        W  552   0.696   4.532   1.903 -0.2858  0.2203 -0.2327
  353W        W  553   4.589   6.920   3.107  0.1042 -0.1203  0.2336
  354W        W  554   2.955   2.778   5.436 -0.0011  0.6820  0.1043
  355W        W  555   4.125   5.304   7.353  0.1169 -0.0347 -0.0934
  356W        W  556   6.524   5.656   1.396 -0.0084 -0.1513  0.1830
  357W        W  557   8.576   4.261   1.495 -0.1646  0.0828 -0.0794
  358W        W  558   6.278   2.830  13.944 -0.2497 -0.1150  0.0616
  359W        W  559  11.066   3.090   6.540  0.0213 -0.1156 -0.2570
  360W        W  560   0.124   4.097   2.916 -0.3260  0.3010  0.1657
  361W        W  561   2.539  11.880   0.073  0.0899  0.0034  0.0211
  362W        W  562   2.259   7.894   1.289 -0.3617  0.2381 -0.0632
  363W        W  563   3.992  12.767  11.274 -0.0362 -0.4137 -0.0501
  364W        W  564   7.854   2.496  11.302  0.4352  0.3349  0.1304
  365W        W  565   2.891  14.789   3.893  0.0848  0.4301 -0.0682
  366W        W  566  14.020   4.363   3.803 -0.3141 -0.0923  0.2153
  367W        W  567   6.539   5.494  10.269 -0.2806 -0.1896  0.0597
  368W        W  568   1.389   6.921   1.238 -0.2025  0.0181 -0.3601
  369W        W  569   0.375  10.724   4.731 -0.0303  0.0597  0.0151
  370W        W  570   1.400  15.051   5.752  0.3402  0.1946 -0.3447
  371W        W  571   1.647   2.404  13.328 -0.2463  0.3281  0.2836
  372W        W  572   5.868   4.127   1.697  0.1781 -0.3912 -0.2379
  373W        W  573   4.116   4.545   9.772  0.0646  0.2788  0.2968
  374W        W  574   8.290   2.021   2.654  0.1165  0.1910  0.1123
  375W        W  575  12.420   5.712  13.840 -0.0454  0.0866  0.0912
  376W        W  576  14.956  10.908   6.697 -0.0478  0.0942  0.0155
  377W        W  577   2.086   1.288  10.402  0.0891  0.1411  0.0290
  378W        W  578  11.380  11.826   4.629 -0.3236  0.0812 -0.0815
  379W        W  579  14.232   4.895   2.966 -0.0629  0.0724  0.1513
  380W        W  580   1.444   1.905   1.783 -0.0786  0.2428 -0.1507
  381W        W  581   9.933   5.282  15.144  0.0621  0.1060 -0.1004
  382W        W  582   8.895   8.085   2.788  0.2399 -0.1656  0.0533
  383W        W  583   6.381   9.825   6.155  0.1641 -0.2482 -0.2309
  384W        W  584   3.626  12.560   1.671 -0.4698  0.3615 -0.3876
  385W        W  585   3.854   1.398   6.690 -0.3810 -0.0685 -0.2000
  386W        W  586   5.537   7.687   0.273  0.1280 -0.1133  0.1329
  387W        W  587   3.975   4.331   5.476 -0.2502  0.3556  0.1170
  388W        W  588   2.854   7.937   2.979  0.0290  0.2343 -0.0056
  389W        W  589   1.644  10.026   7.456  0.1034  0.0804 -0.0192
  390W        W  590  12.785  10.167   0.508 -0.2612 -0.1111  0.0565
  391W        W  591   6.689   3.693  10.469  0.3999  0.2805  0.3367
  392W        W  592  12.139  14.017   6.040 -0.2019 -0.1766 -0.1947
  393W        W  593   4.204   1.670  12.645 -0.2901 -0.0520 -0.0283
  394W        W  594   1.581   0.476   0.924 -0.0961  0.0698  0.0045
  395W        W  595  14.289   4.175   6.102 -0.1504  0.0681 -0.0655
  396W        W  596   2.290   2.345  15.116 -0.1179  0.1546  0.0366
  397W        W  597   2.036   2.595   4.835  0.0571 -0.3736 -0.3135
  398W        W  598  10.182  13.897  13.719 -0.1988  0.0647  0.0375
  399W        W  599   9.956  14.654   9.128 -0.0138 -0.1864  0.0522
  400W        W  600  14.342   3.709   7.524 -0.2589 -0.1082 -0.0690
  401W        W  601   4.603   9.903   8.909  0.2453 -0.2797  0.0568
  402W        W  602   0.967   4.356   1.041 -0.4192  0.0185 -0.0201
  403W        W  603   4.856   6.885   7.232 -0.1326 -0.0483 -0.0030
  404W        W  604   6.027   9.110   6.984 -0.3081  0.1488  0.1174
  405W        W  605   4.893  14.213   0.146 -0.0162 -0.2109  0.0517
  406W        W  606   7.431  15.047   0.530 -0.1428  0.2547 -0.0199
  407W        W  607  12.745   7.807   5.468 -0.0319 -0.2213 -0.0998
  408W        W  608   4.440   3.679   6.565 -0.5254 -0.3887 -0.0119
  409W        W  609   7.891   0.257  11.143 -0.1646 -0.3281 -0.0433
  410W        W  610  11.163  14.170   0.809  0.3309  0.0885  0.2890
  411W        W  611   1.736   9.122   8.112  0.2853 -0.1063  0.0050
  412W        W  612  12.805   3.744   4.344 -0.4486 -0.2975  0.0849
  413W        W  613   9.324   5.644   2.419  0.0786  0.2772 -0.1722
  414W        W  614   4.277   6.203   2.572  0.1803 -0.2238 -0.1135
  415W        W  615   6.678   8.145   2.535 -0.0007  0.2146 -0.0427
  416W        W  616  14.492   6.598   6.165 -0.2982  0.1432 -0.3293
  417W        W  617   3.166   0.727   9.785  0.1495 -0.0898 -0.2531
  418W        W  618   1.158   9.807  12.236 -0.1735  0.4225  0.2821
  419W        W  619   9.657  13.858  12.870  0.0525  0.2302  0.0394
  420W        W  620   5.319   5.437   4.591 -0.1889 -0.0955  0.3030
  421W        W  621   5.714   1.051   6.183  0.4078 -0.1941  0.0404
  422W        W  622   1.883   3.200   6.724  0.0362  0.0522  0.1107
  423W        W  623   0.046   3.669   2.330 -0.0354  0.1039 -0.1441
  424W        W  624   9.502   2.066  14.020  0.1148  0.0893  0.1029
  425W        W  625   8.391   0.928   0.813 -0.0585 -0.1784 -0.0580
  426W        W  626  10.745   3.142   5.522 -0.1425  0.0352 -0.0633
  427W        W  627   5.409   7.339   0.686  0.1867 -0.0022 -0.1756
  428W        W  628   3.687  14.146   3.875 -0.1488 -0.0245  0.2598
  429W        W  629  11.284  10.206   1.503 -0.4640  0.0535 -0.0360
  430W        W  630   1.606  14.369   4.196  0.0642  0.3517  0.0816
  431W        W  631   1.646   2.424   4.257  0.1623  0.3959 -0.1060
  432W        W  632  13.827   0.372   5.782  0.2430 -0.1418 -0.1059
  433W        W  633  12.560   0.419   1.738  0.2552  0.1860 -0.0257
  434W        W  634  10.737   1.632  12.397 -0.0024  0.1023 -0.0860
  435W        W  635   2.485   6.134  11.833  0.0495  0.0644 -0.2335
  436W        W  636  10.093   5.037  14.195 -0.3411 -0.4253 -0.2985
  437W        W  637  13.451   6.418   5.947  0.0538  0.1110  0.0379
  438W        W  638  10.029   2.749   4.820 -0.2544  0.0977 -0.3036
  439W        W  639   5.066   6.420   4.907  0.1072  0.3196 -0.1946
  440W        W  640   2.281   4.313   0.804  0.2656  0.1085  0.1783
  441W        W  641   7.479   4.030   8.592  0.1421 -0.0100 -0.0292
  442W        W  642   6.968   1.714   3.811 -0.1305  0.0024  0.1740
  443W        W  643   9.123   1.043   6.061  0.1488  0.2014  0.0979
  444W        W  644  13.536   5.349   2.802 -0.0789  0.1640 -0.0531
  445W        W  645   4.994   5.269   7.119  0.2375  0.1136 -0.0967
  446W        W  646   5.510   7.716   6.585  0.2276 -0.2708  0.2085
  447W        W  647   0.459   7.976  12.233 -0.1886 -0.1077  0.1359
  448W        W  648   1.223   3.663   4.311 -0.2587 -0.1789 -0.0008
  449W        W  649  10.684   4.240   3.985  0.3473 -0.2186 -0.0913
  450W        W  650  15.057   4.622   8.613  0.3876 -0.0689 -0.0094
  451W        W  651  13.525  13.263   6.200 -0.0538 -0.1587  0.0725
  452W        W  652   2.249   9.033   3.420  0.0329 -0.0933  0.0131
  453W        W  653  12.764   6.546  10.353  0.1089  0.0588  0.1459
  454W        W  654   6.705  11.955   1.744  0.2273  0.2590  0.3685
  455W        W  655   7.678   8.780   5.194  0.0765  0.0122  0.0176
  456W        W  656   3.850   5.399  11.025  0.0792  0.0822 -0.0393
  457W        W  657  15.038   7.167   6.109 -0.2703 -0.3506 -0.1530
  458W        W  658   5.439   4.831   3.962 -0.3225 -0.2347  0.1343
  459W        W  659   9.756  15.006   5.604 -0.0583 -0.1522 -0.0009
  460W        W  660   8.101   4.293  14.463  0.0550  0.2053  0.0706
  461W        W  661   1.079   3.485   2.482 -0.0827 -0.4073  0.1438
  462W        W  662   4.304   0.212   3.854  0.2505  0.0321 -0.1884
  463W        W  663   3.826   3.436  12.258 -0.0767 -0.1684  0.2735
  464W        W  664   2.034   6.752   6.881  0.1338 -0.0545 -0.1242
  465W        W  665  14.708  14.694   6.689  0.1708  0.3054 -0.0198
  466W        W  666   1.069   6.277   2.606  0.2998  0.0769  0.1716
  467W        W  667   0.368   8.093   4.012  0.2910 -0.1222  0.2278
  468W        W  668   0.080  14.411   7.374  0.0412 -0.0847  0.1219
  469W        W  669   7.820   6.299   9.179 -0.1374  0.3384  0.0446
  470W        W  670   7.016   1.382   2.513  0.0925  0.0101 -0.0223
  471W        W  671   0.286   5.431   6.206  0.1626  0.1899 -0.0646
  472W        W  672   3.244   5.163   9.131  0.2738  0.3875 -0.1303
  473W        W  673  12.779  13.600  13.723  0.1217 -0.0828  0.0223
  474W        W  674   6.667   3.386   5.873  0.0781 -0.2973  0.1007
  475W        W  675  12.868   0.871   8.856  0.1687 -0.2843 -0.2137
  476W        W  676   6.331   8.203  12.616 -0.0876  0.2304  0.2100
  477W        W  677   0.431   0.498  13.307  0.0301 -0.0009 -0.2379
  478W        W  678   2.001   3.808   8.043 -0.1361  0.0981 -0.0674
  479W        W  679   3.274   5.185   5.297 -0.0865 -0.0061  0.0199
  480W        W  680   7.389   1.918  11.543  0.0631 -0.2575  0.3094
  481W        W  681  12.955   2.602   5.380  0.2179  0.0848  0.1603
  482W        W  682  13.761  13.164  10.914  0.0690  0.1780  0.3460
  483W        W  683   0.652   1.222   8.364 -0.4574  0.1108 -0.4815
  484W        W  684  12.371  10.984  13.600  0.1351  0.0979  0.0954
  485W        W  685  14.278   7.205   3.462 -0.1059  0.1148 -0.2985
  486W        W  686   7.648   2.439  10.331  0.1269 -0.0381  0.0650
  487W        W  687  11.995   0.237  12.584 -0.0106  0.1350 -0.3503
  488W        W  688  15.060   6.930   0.102 -0.2905 -0.1218 -0.1143
  489W        W  689   3.568  13.558   4.341  0.0132  0.0521 -0.0902
  490W        W  690   6.761  13.882  12.889 -0.1477  0.1948  0.0304
  491W        W  691   8.109  13.869   3.494  0.2374  0.0294 -0.0133
  492W        W  692   7.993  12.365   4.333 -0.2947 -0.0424 -0.0210
  493W        W  693   3.425   3.518   5.198 -0.2610  0.0510 -0.4007
  494W        W  694  10.399   2.050  12.401  0.3504  0.3043 -0.3493
  495W        W  695  12.674   4.912   2.681  0.0575  0.1203 -0.2800
  496W        W  696  13.757   8.012   7.706 -0.1036 -0.0433  0.0360
  497W        W  697   8.403   8.863  11.902 -0.3679 -0.2496 -0.1326
  498W        W  698   1.712  12.208   7.480 -0.0218  0.1653  0.1504
  499W        W  699   3.575  11.540   6.821 -0.2040  0.2032 -0.3254
  500W        W  700   1.959   4.474   6.429  0.0641  0.2357 -0.1862
  501W        W  701   5.649   7.525   5.045  0.1755  0.0830 -0.2891
  502W        W  702   2.356   4.651  12.542  0.5286 -0.2109 -0.4319
  503W        W  703  11.021   1.261   4.004  0.0884  0.0674  0.5622
  504W        W  704   2.163  10.479  12.387  0.0830 -0.3752  0.3377
  505W        W  705   3.879   4.033   6.832 -0.0444  0.0872  0.1763
  506W        W  706   1.420   5.703  12.594  0.1457  0.2565  0.1759
  507W        W  707   9.716   3.418  14.120 -0.0142  0.2687  0.0984
  508W        W  708   6.472   9.744  11.983 -0.3063  0.0108 -0.0418
  509W        W  709   7.108   7.179  12.360  0.1324 -0.0196  0.2427
  510W        W  710   6.864   5.519   6.607 -0.0014  0.0894  0.1364
  511W        W  711   9.338   1.577   9.890  0.2468  0.1779 -0.1406
  512W        W  712   0.292   7.184   2.148 -0.1366 -0.3481 -0.2022
  513W        W  713   6.218   2.356  12.348 -0.0686  0.1094  0.0233
  514W        W  714  13.918  12.452   6.635  0.0837 -0.0340 -0.0926
  515W        W  715   7.868   9.638   1.403  0.1782 -0.3458 -0.2816
  516W        W  716   0.127   0.750   1.481  0.0634  0.1465 -0.0501
  517W        W  717   8.362   3.161   5.034 -0.0655 -0.0113 -0.0620
  518W        W  718  12.463   4.327  10.345  0.1910 -0.2253  0.0022
  519W        W  719   6.411   0.257   0.993 -0.1378 -0.3250 -0.0841
  520W        W  720   1.900  11.399  14.803 -0.2000  0.0455 -0.1824
  521W        W  721  14.396  13.714   2.162 -0.0308  0.0746 -0.2916
  522W        W  722  14.898   9.075   7.953 -0.0092 -0.3111  0.0191
  523W        W  723   1.984  14.946   3.683 -0.0470  0.1711 -0.0549
  524W        W  724  12.585  10.216   7.292 -0.1252 -0.0534  0.0710
  525W        W  725   6.269   3.498  14.130  0.1029 -0.0841 -0.0727
  526W        W  726   0.343   0.609  14.310  0.2688 -0.1426  0.0915
  527W        W  727   7.713  14.127   1.917 -0.2569 -0.1883  0.0403
  528W        W  728  14.433  10.788   4.673  0.0525 -0.1283 -0.5855
  529W        W  729   0.042   1.898   2.441  0.0280 -0.0323 -0.1201
  530W        W  730   0.161  14.037   9.233  0.0233  0.3919  0.3435
  531W        W  731  11.091   2.863   3.974  0.5862  0.0928  0.1377
  532W        W  732  14.543   2.267   0.247  0.1037 -0.1898 -0.2030
  533W        W  733   1.543   9.555   6.619 -0.2620 -0.2521 -0.1000
  534W        W  734   0.501   0.732  10.814  0.0538  0.3444  0.2989
  535W        W  735  13.571  10.615   1.887  0.0216 -0.0860 -0.0113
  536W        W  736  10.195  13.072   5.272  0.2336 -0.1656 -0.1759
  537W        W  737   5.734   2.177   5.762 -0.0017  0.0097 -0.0484
  538W        W  738   7.081   6.166   0.894 -0.3086  0.1446  0.2896
  539W        W  739   3.838   2.046   2.255 -0.1473 -0.2412  0.0525
  540W        W  740  13.031  12.326   9.032 -0.3470 -0.1124  0.0282
  541W        W  741   8.075  12.931  10.850  0.0515 -0.0011  0.1289
  542W        W  742  13.886   1.699   0.693 -0.1366  0.1269 -0.0578
  543W        W  743   3.976   7.116   1.675  0.0023 -0.0125  0.0151
  544W        W  744   4.147  13.753   9.030 -0.1395  0.5289  0.0165
  545W        W  745   7.061  10.902  10.497  0.3489 -0.2204  0.2236
  546W        W  746  13.247  11.197  11.576  0.0369 -0.0517  0.2398
  547W        W  747  14.595  11.305  13.605 -0.1513 -0.0287 -0.1685
  548W        W  748   1.502   3.073   0.731 -0.1432 -0.0269 -0.1331
  549W        W  749   7.066   8.546   5.327  0.4753  0.0627  0.3780
  550W        W  750   1.445   2.180   0.563 -0.1182 -0.0882 -0.1592
  551W        W  751  13.560   4.645   4.768  0.1224 -0.0666 -0.2779
  552W        W  752   6.347   9.455   3.107 -0.0330  0.1747 -0.2717
  553W        W  753   8.224  14.381   3.664 -0.2062  0.0324 -0.1798
  554W        W  754   5.885   2.799   2.887 -0.3565 -0.1278 -0.0177
  555W        W  755  13.403  13.664   2.116 -0.4160  0.0278  0.1872
  556W        W  756   0.890   5.321   5.762  0.1058 -0.0614 -0.1677
  557W        W  757   4.125   0.997   6.559  0.1404 -0.1355  0.1052
  558W        W  758   4.229   7.302   6.519  0.0113 -0.1047  0.1284
  559W        W  759   8.879  14.990   7.649  0.3412  0.1844 -0.1165
  560W        W  760   3.918   1.957  11.505 -0.1216 -0.1327 -0.0532
  561W        W  761   3.990   8.768   8.536  0.1005 -0.1301 -0.3475
  562W        W  762   5.023   7.119  12.975  0.2133 -0.0599 -0.1548
  563W        W  763  12.391   9.347   9.301 -0.2080 -0.1538  0.3480
  564W        W  764  13.714  14.328   1.486  0.1732  0.2111 -0.2286
  565W        W  765   4.840   0.561  14.124  0.2115 -0.0192 -0.0776
  566W        W  766  10.124   2.267   4.592 -0.0217 -0.0905  0.1865
  567W        W  767  13.746   3.936   8.770 -0.0908  0.2174  0.1585
  568W        W  768  11.081   3.416   7.646  0.1365  0.1204  0.0582
  569W        W  769   1.458   3.627   1.771  0.0505 -0.3237  0.0057
  570W        W  770  14.416  10.206  14.377 -0.1045 -0.1373 -0.2620
  571W        W  771   0.968   9.467  14.958  0.0074 -0.0995 -0.3056
  572W        W  772   1.621   5.101   9.006  0.1732 -0.0880  0.1975
  573W        W  773   6.344  14.395   5.250 -0.0059 -0.0254 -0.1627
  574W        W  774   4.933   9.425   2.750  0.1401 -0.0378  0.0239
  575W        W  775   1.666   0.109  10.086  0.2011 -0.1872  0.1800
  576W        W  776   5.810  12.269  14.243  0.1101  0.0136  0.0932
  577W        W  777  13.388   7.790  14.871  0.0389 -0.2017  0.1136
  578W        W  778  11.252   3.808   9.028  0.2182  0.0964  0.3442
  579W        W  779   0.316   3.552   1.862  0.0544 -0.0493  0.1388
  580W        W  780   1.065   1.107   9.177 -0.0028  0.0440  0.1610
  581W        W  781   8.380  10.814   8.023  0.0221  0.1607  0.4051
  582W        W  782  10.856  13.420   1.343  0.2617 -0.4929 -0.1920
  583W        W  783  12.079   3.110  11.019  0.2476 -0.1754  0.1122
  584W        W  784   1.748   4.985   1.552  0.0429 -0.1153 -0.4202
  585W        W  785   1.612   4.750   6.201 -0.1860 -0.3378  0.0705
  586W        W  786   9.760   2.909   7.454  0.1025  0.0310  0.0300
  587W        W  787   5.694   0.859   8.562 -0.2112 -0.1705  0.1473
  588W        W  788   2.310   3.932   7.261  0.0483  0.0345 -0.1195
  589W        W  789  10.065   5.226   4.138 -0.0183 -0.1197 -0.1484
  590W        W  790  11.318   1.578   1.386 -0.0418  0.3927  0.0906
  591W        W  791   1.843   3.262   3.587  0.0207  0.2838 -0.0050
  592W        W  792  10.750  11.815   4.177  0.1669  0.0025 -0.0285
  593W        W  793  11.447  11.409  13.418 -0.0934 -0.2086  0.0232
  594W        W  794  12.412  14.464   7.670  0.0226  0.2112 -0.0817
  595W        W  795   0.744   1.701   9.223 -0.1209  0.0636 -0.2731
  596W        W  796   9.739   5.459   2.153 -0.2153  0.0017  0.4193
  597W        W  797   2.756  11.499  15.009 -0.0343  0.1451  0.2766
  598W        W  798   1.605   4.472   5.565  0.1383 -0.0016  0.0727
  599W        W  799   6.623   1.267   4.524 -0.0004  0.2863 -0.2796
  600W        W  800  11.443  10.852   6.448 -0.2040 -0.1017 -0.3165
  601W        W  801   4.725   1.724   2.631  0.2529  0.2026 -0.0602
  602W        W  802   0.959   5.271  11.353  0.3360  0.1245  0.0848
  603W        W  803  11.226   5.983   5.409  0.2754  0.1073 -0.1500
  604W        W  804   6.242  11.095   6.588 -0.0062 -0.2872 -0.1486
  605W        W  805   6.031  13.736   1.322 -0.1430 -0.0413  0.0769
  606W        W  806   4.722  11.112  10.528 -0.0420 -0.0583  0.2366
  607W        W  807  12.186  14.790   1.517 -0.3521  0.5566 -0.0559
  608W        W  808   4.316   5.673   0.043  0.3531  0.3616 -0.0430
  609W        W  809   9.358   6.267   6.557 -0.2459 -0.0265 -0.3110
  610W        W  810  13.707   7.593   7.463  0.2935  0.3422  0.1386
  611W        W  811   6.787  11.025   0.701  0.1799  0.0136 -0.1459
  612W        W  812   2.782   9.225   4.826  0.2871 -0.1281  0.2420
  613W        W  813   2.049  14.773   9.989  0.0793  0.1957 -0.1989
  614W        W  814  13.321   8.790   9.280  0.0576 -0.1038  0.2744
  615W        W  815   6.280   3.752   4.826  0.1302 -0.1694  0.0469
  616W        W  816  14.276  14.469   0.666 -0.0039  0.0374  0.0054
  617W        W  817  13.751   3.436  10.582 -0.1056 -0.1233  0.1241
  618W        W  818  13.590   0.117   4.929 -0.1606  0.2098 -0.3287
  619W        W  819   3.149   8.138   6.723 -0.2293  0.0150  0.3157
  620W        W  820   3.133   0.820   5.589  0.0502 -0.0790 -0.4012
  621W        W  821  12.372   4.053  14.813 -0.0729 -0.2985 -0.0225
  622W        W  822   5.540  11.808   4.869  0.0699 -0.0703  0.0734
  623W        W  823   0.773   0.111   5.067  0.0673 -0.0743 -0.1454
  624W        W  824   5.168   6.009   6.935  0.0114  0.2918  0.1057
  625W        W  825   2.691   1.955   8.892  0.0714  0.0122 -0.1998
  626W        W  826   7.018   3.422  11.340  0.1099 -0.0510  0.0227
  627W        W  827   4.416   6.141  15.065  0.2953 -0.3893 -0.0142
  628W        W  828   8.400  12.010   6.217 -0.0223 -0.0649 -0.0488
  629W        W  829  11.515  10.380   7.391  0.0517  0.0678 -0.1821
  630W        W  830   6.126   6.146   4.083 -0.3028  0.0469 -0.5464
  631W        W  831   4.439   8.481   5.655  0.1623  0.2665 -0.0951
  632W        W  832  13.385  14.176   7.366 -0.1521  0.0713 -0.0417
  633W        W  833   6.339  12.772   2.118 -0.0069 -0.1596  0.0393
  634W        W  834   3.667   8.875   4.524 -0.3180  0.0820 -0.2549
  635W        W  835   5.616   6.079  11.712 -0.0391 -0.0663 -0.4060
  636W        W  836  14.969   1.407  12.013  0.0764 -0.0851 -0.3922
  637W        W  837   5.583   5.727  10.262 -0.0564 -0.0680  0.0855
  638W        W  838   1.617   3.544  13.088  0.0605  0.0630 -0.0475
  639W        W  839   4.238   5.999   5.308 -0.0471  0.2116  0.1128
  640W        W  840   2.143  10.890   7.187 -0.0047 -0.0441 -0.1647
  641W        W  841   4.639   1.921  10.229 -0.2702 -0.1653  0.0038
  642W        W  842  12.749   6.020   1.317 -0.1617 -0.0604  0.0044
  643W        W  843   4.147   4.590  14.615 -0.1099 -0.0585 -0.2747
  644W        W  844  14.510   8.043   8.744 -0.2629 -0.1046 -0.0082
  645W        W  845  13.210   0.799   8.526 -0.0377  0.1129 -0.0167
  646W        W  846   0.538  12.714   3.900  0.0312  0.0575 -0.0420
  647W        W  847   0.455  14.898   4.262  0.0724  0.0913 -0.0267
  648W        W  848   9.388   6.140   4.040 -0.0495  0.4186  0.2103
  649W        W  849   9.177   8.622   3.860  0.2709  0.1589 -0.0962
  650W        W  850  11.338  13.638  11.435 -0.1526 -0.0480 -0.0633
  651W        W  851   2.997  11.617   0.252 -0.1655  0.0117  0.5747
  652W        W  852  11.434  10.263  10.169  0.1030 -0.0889  0.2011
  653W        W  853   4.834   2.267   3.692  0.1923  0.1112  0.2331
  654W        W  854   2.400  14.652   3.189 -0.0418 -0.1100 -0.1106
  655W        W  855   0.625   9.722   7.990  0.2103 -0.1973  0.1570
  656W        W  856  10.112   1.118   9.028  0.0583  0.0832  0.0082
  657W        W  857   1.770  13.663  12.104 -0.2238 -0.2020 -0.2560
  658W        W  858   2.842   1.632   3.375 -0.1792 -0.1349  0.1338
  659W        W  859  14.886   6.794   3.794 -0.1283 -0.0329 -0.0963
  660W        W  860  14.793   0.614   0.554 -0.1235  0.0019  0.2362
  661W        W  861   7.682   4.965   0.388 -0.1119  0.3381  0.0447
  662W        W  862   3.923  11.259   2.115 -0.1238  0.0562  0.0592
  663W        W  863   7.915  13.186   4.929  0.0981 -0.0297 -0.0423
  664W        W  864   5.113   2.089   8.878  0.2658 -0.1118  0.0105
  665W        W  865  15.022   4.237   7.381  0.3176  0.0498  0.1898
  666W        W  866   6.083  14.584   2.731  0.4463  0.0043 -0.0194
  667W        W  867   4.496   9.633   2.935  0.1418  0.0470 -0.0149
  668W        W  868   0.015   8.059  14.276  0.4298  0.0989 -0.0600
  669W        W  869  12.426   3.657   2.332 -0.0144 -0.3435  0.0197
  670W        W  870   4.941  14.265  12.087 -0.1596 -0.1465  0.2493
  671W        W  871   0.064  12.484   2.112 -0.0817 -0.1410  0.0826
  672W        W  872   0.065   3.082   4.969  0.2886  0.2679 -0.0912
  673W        W  873   3.135   4.350   9.413 -0.1988  0.1010  0.1758
  674W        W  874   4.067  14.375   5.072  0.3276 -0.1268  0.0017
  675W        W  875   9.526   5.262   5.293 -0.2548 -0.4208 -0.0395
  676W        W  876   0.630   8.316   6.116  0.2831  0.1269  0.0041
  677W        W  877   7.637  12.326  10.115  0.0796  0.2200  0.4042
  678W        W  878   3.343   3.958   5.904 -0.2284 -0.0474 -0.1905
  679W        W  879   5.155   4.993   6.742  0.0194 -0.0019  0.0196
  680W        W  880  13.484   7.154   5.783 -0.0107  0.0148 -0.0455
  681W        W  881   6.238  11.532   8.866  0.0813 -0.3529  0.1625
  682W        W  882   8.847   4.965   3.697 -0.4345 -0.0676 -0.0259
  683W        W  883   0.576   8.917   6.245 -0.1033 -0.1244  0.0692
  684W        W  884   7.816  10.921   3.549  0.2219 -0.1244  0.1068
  685W        W  885  12.390   6.244   7.922 -0.1816 -0.1262 -0.0499
  686W        W  886   1.094   5.806   0.077 -0.1909  0.3777  0.3060
  687W        W  887   1.670   5.756   2.275  0.0479  0.2528  0.1914
  688W        W  888  12.090   2.260  10.802  0.2487 -0.1071 -0.0528
  689W        W  889   3.819  12.406  11.966 -0.0092 -0.1146  0.0492
  690W        W  890   4.865   5.560   8.659  0.3117  0.3127 -0.1116
  691W        W  891  11.083  13.320   8.130 -0.3395 -0.0384 -0.1253
  692W        W  892   4.674  11.818   6.282  0.0911  0.1162  0.3085
  693W        W  893   0.815  10.052   8.851  0.0274  0.1484  0.2967
  694W        W  894   9.155   3.206  11.572  0.1469 -0.2051  0.0018
  695W        W  895   6.991   8.023   4.723  0.0283 -0.3251  0.3349
  696W        W  896   5.676   4.106  13.345 -0.0466  0.0907 -0.0776
  697W        W  897   1.356  14.698   5.376  0.0985  0.1062 -0.3301
  698W        W  898   2.090   5.454   8.210  0.1802  0.2152 -0.1185
  699W        W  899  13.242  12.255  13.142  0.3933  0.3467  0.2780
  700W        W  900   7.216   8.740   9.767  0.3922 -0.1309 -0.1782
  701W        W  901  13.889   9.429   7.097  0.0444  0.0922 -0.1707
  702W        W  902   2.018   6.299   6.188  0.0105  0.0154 -0.4221
  703W        W  903   7.190  13.994   4.018  0.0300  0.0702  0.2159
  704W        W  904   3.575   2.210   9.711 -0.1534 -0.2488 -0.0094
  705W        W  905   5.596   0.163   2.358  0.2400 -0.0955 -0.0826
  706W        W  906   2.973  14.557  10.040 -0.1934 -0.2509  0.0965
  707W        W  907   4.324   8.554   3.077  0.1828  0.0463 -0.0761
  708W        W  908   6.680   7.619   5.348 -0.4306  0.3116  0.3173
  709W        W  909   1.238   8.403  10.999  0.0267  0.0862  0.2726
  710W        W  910   1.402   1.523   7.191  0.0769  0.1042  0.0272
  711W        W  911  12.449  12.694  14.859  0.1803 -0.1810  0.3578
  712W        W  912   3.349   5.241  13.715  0.1335  0.1812  0.0243
  713W        W  913   3.517   0.393   5.804 -0.2126 -0.1395 -0.1163
  714W        W  914  13.483  13.813  10.355  0.3506 -0.4914  0.1353
  715W        W  915   6.968   2.726   2.213 -0.1584 -0.2396 -0.1829
  716W        W  916  15.193   5.332   3.548  0.1743  0.0868 -0.1394
  717W        W  917   0.500  15.051   2.862  0.3213 -0.0672 -0.2047
  718W        W  918  12.331   2.448   9.824 -0.1607 -0.0334 -0.3660
  719W        W  919   4.087   3.736   0.719  0.1260  0.2225 -0.2307
  720W        W  920   1.564   3.490   4.856  0.3299 -0.0030 -0.4836
  721W        W  921  10.271   2.140   7.985 -0.0247 -0.0436 -0.1680
  722W        W  922  14.920   6.671   1.520 -0.0541 -0.2435 -0.1289
  723W        W  923   8.203  14.461  10.631  0.2362  0.0432 -0.0564
  724W        W  924  10.330   6.882   6.879 -0.2014  0.2145 -0.0654
  725W        W  925   3.286   2.968   3.161 -0.2077 -0.0226 -0.0072
  726W        W  926  14.687   1.086   7.385 -0.1388  0.2115  0.0870
  727W        W  927  13.535   9.796   4.453  0.0693 -0.2070 -0.1377
  728W        W  928  12.767   5.136  13.549 -0.2248 -0.1274  0.1370
  729W        W  929  15.001   3.899   1.659  0.0371 -0.2685 -0.2692
  730W        W  930   3.013   3.130   6.039  0.1840 -0.2933 -0.2734
  731W        W  931  10.014   1.550   0.785  0.0092 -0.1170 -0.1538
  732W        W  932   9.054  15.027  12.106  0.0419 -0.1561  0.2189
  733W        W  933   1.347   5.436   5.675  0.2060 -0.1422  0.0946
  734W        W  934   1.670  11.429  11.233 -0.2762  0.1017 -0.0606
  735W        W  935  15.177   3.808   7.024  0.1867 -0.2909  0.0235
  736W        W  936   4.464   9.281   3.990 -0.0766  0.0955  0.1684
  737W        W  937   6.787   7.887  11.308  0.0007 -0.1073  0.0446
  738W        W  938  12.751   7.512   3.718 -0.3266 -0.1211  0.0407
  739W        W  939   1.438   3.430  11.621 -0.0541  0.1899 -0.0187
  740W        W  940  14.914  10.999   8.568 -0.1470 -0.1278 -0.3766
  741W        W  941   0.634  10.872  14.518  0.0389  0.0547  0.1219
  742W        W  942   4.061   5.755   2.707  0.4411 -0.0517 -0.0445
  743W        W  943   6.965  10.866  12.621  0.0552  0.0313  0.1938
  744W        W  944   5.549  10.682   7.545  0.1172  0.1854  0.1982
  745W        W  945   5.231   2.840   1.512  0.2534  0.0113 -0.1604
  746W        W  946   2.606  10.968   5.044 -0.2401 -0.0322 -0.1919
  747W        W  947   6.737  11.470   2.934 -0.4305 -0.0797 -0.1704
  748W        W  948  14.540   7.090   6.192  0.1117 -0.1362  0.1680
  749W        W  949   1.198   5.552   7.110  0.0243 -0.0686 -0.1707
  750W        W  950   3.535   8.799  11.023  0.2069 -0.1941  0.2812
  751W        W  951   2.582   2.761   7.868  0.0579 -0.2025 -0.3137
  752W        W  952   9.186   8.982  12.241  0.0550  0.2519  0.1561
  753W        W  953   0.389   2.973  13.195 -0.0254  0.2993  0.1133
  754W        W  954   1.463  11.059   2.839 -0.1265  0.1126  0.1241
  755W        W  955   8.466   1.519   4.280  0.1270 -0.2054 -0.1232
  756W        W  956   3.300   2.576  13.841  0.0038 -0.1391 -0.0066
  757W        W  957   1.731   3.960   0.923 -0.0038 -0.0765  0.1964
  758W        W  958  13.598   7.316   0.027 -0.1432 -0.0554 -0.1156
  759W        W  959  14.267   3.207   6.507  0.1874  0.3119  0.1529
  760W        W  960  13.864  13.735   2.934  0.0223  0.0463  0.0278
  761W        W  961   3.066   6.060   0.726 -0.0252  0.1310  0.1070
  762W        W  962   0.797   6.945   3.298 -0.1481 -0.1259  0.2467
  763W        W  963   7.438   7.074   9.092  0.1660 -0.2154  0.0900
  764W        W  964  11.879   6.853   1.474 -0.1866  0.1640 -0.1205
  765W        W  965  12.853   0.362   8.971  0.0220 -0.0663  0.0388
  766W        W  966  14.075   5.754   4.479 -0.0456  0.0480 -0.1556
  767W        W  967   1.221   0.701  14.691 -0.1761  0.3727  0.2362
  768W        W  968   5.275  12.868   1.298 -0.2013 -0.3833 -0.1537
  769W        W  969   6.186   8.574   5.689  0.1162 -0.3618 -0.2357
  770W        W  970  11.770  13.168  10.542 -0.1153  0.1225  0.1877
  771W        W  971   8.727  13.088   8.435 -0.1461 -0.2223  0.2278
  772W        W  972  14.801  14.381   2.241 -0.0479  0.0938 -0.1455
  773W        W  973   3.425  13.392   9.066  0.2039 -0.0020 -0.0675
  774W        W  974  14.167   1.198  11.619 -0.0519  0.3040 -0.0452
  775W        W  975  10.579   8.539   7.205 -0.2004 -0.0608  0.0099
  776W        W  976   3.503   3.138   2.409 -0.0065 -0.0829 -0.5241
  777W        W  977  14.886   0.063  14.927  0.4006  0.2792 -0.2527
  778W        W  978   8.368  13.254   4.657  0.0580  0.2059  0.1525
  779W        W  979   3.422   6.316  10.402 -0.0628  0.0248  0.0596
  780W        W  980   9.145   4.251   9.829 -0.2592  0.1281 -0.1543
  781W        W  981  10.895   1.589   3.631 -0.3092 -0.2164 -0.2350
  782W        W  982   5.023   8.135  13.140  0.1138 -0.0709  0.2341
  783W        W  983   2.226   2.251   5.150 -0.1561  0.1795  0.1581
  784W        W  984   9.922  10.777  12.046  0.3567  0.1811  0.2088
  785W        W  985   8.825  10.944   8.343  0.3989 -0.0544 -0.0010
  786W        W  986  10.995  11.777   3.754  0.0379  0.1440  0.1055
  787W        W  987  13.276   0.033  14.634 -0.2121 -0.2058 -0.1238
  788W        W  988   8.903   5.828   7.254 -0.0047 -0.0859  0.1415
  789W        W  989   2.759  11.528  14.387  0.4175  0.0843  0.2766
  790W        W  990   0.845   5.178   1.214  0.1437  0.5687  0.0540
  791W        W  991   4.079   4.305  10.757  0.1246  0.0405 -0.1054
  792W        W  992   6.704  12.644  11.981  0.0652  0.0657 -0.2151
  793W        W  993   6.321   6.544   2.783 -0.2835 -0.1346 -0.0219
  794W        W  994   2.485   2.645   6.216  0.0931  0.0243  0.3199
  795W        W  995   4.517   4.142   0.240 -0.1151 -0.1032 -0.0673
  796W        W  996   2.796  15.005  12.455 -0.0467  0.1108  0.1375
  797W        W  997   0.587   4.019   7.049  0.1780 -0.1648 -0.0924
  798W        W  998   2.955   5.992   9.608 -0.0194  0.0108 -0.0535
  799W        W  999   6.669   5.997   4.662  0.0023  0.0976 -0.3339
  800W        W 1000   1.353  10.966   6.197  0.1502  0.1755  0.0583
  801W        W 1001  12.832  10.033   8.221 -0.0483 -0.0415  0.0619
  802W        W 1002   9.546  12.894   6.156 -0.1783 -0.0835  0.1140
  803W        W 1003  14.594  10.289   2.357 -0.0632  0.0560  0.0802
  804W        W 1004   4.611   2.506   3.289 -0.0286 -0.0384  0.3004
  805W        W 1005   2.531   2.297   7.603 -0.1167  0.2854  0.1857
  806W        W 1006  12.773  12.739  10.656  0.1669 -0.4667  0.1125
  807W        W 1007   9.183   4.658  12.660  0.1651  0.2803 -0.2282
  808W        W 1008  11.714   0.673   1.851 -0.0681  0.1167  0.1925
  809W        W 1009  14.035  12.642   1.197  0.1438  0.2542  0.0729
  810W        W 1010   1.759   1.526   5.288 -0.1712 -0.3100 -0.0442
  811W        W 1011   6.779  10.442  12.909  0.0875 -0.2767  0.3642
  812W        W 1012   4.946   2.214   4.569 -0.2569 -0.3334 -0.2065
  813W        W 1013   7.052   1.876   0.490  0.0700  0.0822 -0.2174
  814W        W 1014   0.258  15.147  10.637 -0.2170  0.0974 -0.2112
  815W        W 1015   8.095  14.249   5.669  0.1137 -0.1183 -0.0774
  816W        W 1016   1.415   6.848   4.098 -0.0378 -0.0369  0.1224
  817W        W 1017   4.269   3.149   1.452  0.3322  0.2965 -0.0153
  818W        W 1018   1.589   2.910   7.554 -0.0180  0.1844 -0.0371
  819W        W 1019  12.772  12.894   0.336  0.1208  0.1353  0.0240
  820W        W 1020   4.772   8.037   2.502 -0.1419 -0.2200 -0.3032
  821W        W 1021   1.374   4.134  12.761 -0.3132 -0.0049 -0.1934
  822W        W 1022  14.366   3.323   2.478  0.0864  0.0937 -0.3095
  823W        W 1023   0.712   4.868  11.034 -0.0196 -0.2136  0.1335
  824W        W 1024   0.998  10.281   0.901 -0.0419  0.0989 -0.0206
  825W        W 1025   8.619   5.532   6.506 -0.0317 -0.0555 -0.0215
  826W        W 1026   6.211  12.799   4.072 -0.0505 -0.3116  0.0576
  827W        W 1027   0.183   2.408   5.976 -0.2610  0.0799 -0.2384
  828W        W 1028   3.434   2.909  14.281  0.1832  0.0940  0.1476
  829W        W 1029   5.011  14.521   5.031 -0.1799 -0.0326 -0.1270
  830W        W 1030   6.148   0.268   5.961 -0.0433 -0.1416  0.1882
  831W        W 1031  13.493   7.586   6.788  0.3019  0.0126 -0.0234
  832W        W 1032   6.903  10.989  12.118  0.2290  0.0186  0.0300
  833W        W 1033  12.173   5.028   4.829  0.2362 -0.1385  0.0471
  834W        W 1034   6.195   7.895  13.423  0.1304  0.2858 -0.1100
  835W        W 1035   1.175   5.165  13.416 -0.0391 -0.0676 -0.0920
  836W        W 1036   1.447   8.405   5.544  0.1270  0.1150 -0.0636
  837W        W 1037   8.904   3.964   1.786  0.0596  0.2406  0.0156
  838W        W 1038  11.035   3.530   1.217 -0.1747  0.1273  0.0140
  839W        W 1039  12.161  15.019   2.175 -0.2075 -0.0918  0.0029
  840W        W 1040   4.634   2.799   5.237 -0.0998  0.0334 -0.2217
  841W        W 1041  14.767  15.178   4.480  0.0093 -0.0486 -0.1289
  842W        W 1042  10.369   4.444   1.916  0.0415 -0.2780 -0.1023
  843W        W 1043   8.920  12.774   5.087 -0.1534  0.0913  0.1591
  844W        W 1044   7.387   2.105   4.790 -0.1786 -0.0072  0.0328
  845W        W 1045   3.146  12.752  11.661 -0.3479 -0.0800 -0.1427
  846W        W 1046   2.322  13.089   2.641 -0.0754 -0.3195 -0.1530
  847W        W 1047   1.283   4.400   4.177  0.2123  0.1528  0.4019
  848W        W 1048   4.689   1.784  12.530  0.1957  0.0000  0.1824
  849W        W 1049   3.887  12.236  15.076 -0.1478  0.0596 -0.2600
  850W        W 1050  11.677  13.168   6.776  0.0565  0.1384  0.3367
  851W        W 1051   5.487  14.629   9.792 -0.0048  0.2262 -0.0315
  852W        W 1052   4.928  10.903  14.579  0.4216 -0.2666 -0.2615
  853W        W 1053  10.845  11.698   8.398  0.1849 -0.2190 -0.0575
  854W        W 1054   2.525   7.316  12.380  0.1398  0.1978 -0.4813
  855W        W 1055   7.868  13.961   4.309 -0.1248 -0.1736 -0.1499
  856W        W 1056  11.645  14.835   4.319  0.1998 -0.0639  0.0212
  857W        W 1057   3.127  14.906   7.589  0.0288  0.3349 -0.0012
  858W        W 1058   1.198   1.029   3.777  0.0111  0.0528  0.1929
  859W        W 1059   4.109   4.358   9.201  0.0737  0.3228  0.2033
  860W        W 1060   0.836  10.397   2.560 -0.0058  0.4395 -0.1876
  861W        W 1061   5.805  13.930   4.710 -0.1472 -0.3260 -0.0398
  862W        W 1062   7.563   9.618   2.891  0.0363  0.5280  0.1862
  863W        W 1063   6.395  14.720   7.921  0.3349  0.2802 -0.0078
  864W        W 1064   5.969   6.365   6.625  0.1218  0.1440 -0.3843
  865W        W 1065  13.147  14.726  10.884 -0.0481 -0.1587 -0.1344
  866W        W 1066   7.086   9.782   4.770  0.1598 -0.0545 -0.0182
  867W        W 1067   3.015  13.047  10.941 -0.0639  0.0405 -0.3738
  868W        W 1068   0.684  11.136  11.192  0.3574  0.0420  0.1095
  869W        W 1069  10.115   2.623   8.163 -0.0758 -0.2101 -0.1857
  870W        W 1070   9.740   6.569   8.548  0.2116 -0.1549 -0.0242
  871W        W 1071  14.686   1.676   5.993 -0.1174  0.0835 -0.1150
  872W        W 1072  13.906  11.712  13.590  0.0961  0.1076  0.1258
  873W        W 1073  12.203   0.576  14.908  0.1472 -0.1440 -0.3250
  874W        W 1074   1.995   0.060   0.939  0.0682  0.1691 -0.0772
  875W        W 1075   6.392   6.023  10.309  0.2503  0.1845  0.1709
  876W        W 1076   1.903   8.251   7.385 -0.2246  0.0607 -0.4304
  877W        W 1077   3.491   3.923   4.841 -0.0411 -0.1210  0.1744
  878W        W 1078  13.999   2.338  13.951 -0.1739 -0.0205  0.2104
  879W        W 1079   5.145   2.483   8.164 -0.2350  0.0085  0.2130
  880W        W 1080   1.425   4.208   1.200 -0.0722 -0.1489 -0.1517
  881W        W 1081   6.091   1.649  13.602 -0.0333 -0.1590  0.0031
  882W        W 1082   2.470   1.689   1.849 -0.0064  0.0385 -0.0459
  883W        W 1083   0.838  11.605   6.139 -0.1345 -0.1568  0.1806
  884W        W 1084   8.452  10.833   6.380 -0.0522 -0.1923  0.0882
  885W        W 1085  14.513  11.914   1.044 -0.0634 -0.0814 -0.2009
  886W        W 1086   4.780  14.116   4.841  0.1029  0.2311 -0.1636
  887W        W 1087  10.442  12.612  12.911  0.4736 -0.2867 -0.0351
  888W        W 1088  11.949   7.545   2.017 -0.2986  0.1475 -0.0888
  889W        W 1089  12.737   8.585   0.720  0.0432 -0.0052 -0.0440
  890W        W 1090   2.507   6.935  13.708  0.0807  0.1054  0.0127
  891W        W 1091   3.253   1.294  10.545 -0.1140  0.1558 -0.0613
  892W        W 1092  14.616   3.558   1.622 -0.1084  0.1195 -0.0799
  893W        W 1093  14.095  10.894   3.647 -0.1159  0.1797 -0.1527
  894W        W 1094   1.039   1.831  14.346  0.0785  0.1446  0.0756
  895W        W 1095  11.684  13.435   0.250  0.2973  0.1379 -0.0285
  896W        W 1096   4.912   0.377   0.395 -0.3636  0.0035  0.0202
  897W        W 1097  12.358   2.019   0.630  0.0239  0.2945 -0.3673
  898W        W 1098  14.237   3.473   9.635  0.0969 -0.0182 -0.1939
  899W        W 1099   1.491   6.738   6.877 -0.3564 -0.0413 -0.3653
  900W        W 1100   8.982   3.878   8.881  0.3071  0.1077  0.4486
  901W        W 1101   2.204   3.079   5.836  0.0687 -0.3164  0.0766
  902W        W 1102   2.355   4.185  13.436 -0.1270 -0.1234  0.3351
  903W        W 1103  13.454  12.479   4.273  0.1973 -0.2065  0.0842
  904W        W 1104  12.639   4.624  13.987 -0.0916  0.0563 -0.0009
  905W        W 1105   5.270   1.811  12.601  0.0283  0.1358  0.0303
  906W        W 1106   3.683   8.277  10.924  0.0572  0.0600  0.0912
  907W        W 1107  11.097  12.856   5.075  0.0817  0.1168  0.0597
  908W        W 1108   3.426  12.430   8.158 -0.0921  0.0641 -0.0851
  909W        W 1109   4.357   2.320  10.327 -0.1105 -0.3005  0.1871
  910W        W 1110   2.950  10.541   9.272 -0.1989  0.0343  0.1310
  911W        W 1111   0.609   9.024  13.724  0.0433 -0.2987  0.0664
  912W        W 1112   3.321   9.541  10.399 -0.0996 -0.0311  0.2300
  913W        W 1113   6.650  13.727   4.612  0.4213  0.0377 -0.0378
  914W        W 1114   0.049  14.289   5.890 -0.2837 -0.0018 -0.0594
  915W        W 1115   4.468   9.921   5.459 -0.4205  0.0378 -0.0092
  916W        W 1116   1.215   7.084  10.500  0.0067 -0.1401 -0.0899
  917W        W 1117   4.207   7.045   0.019  0.0258 -0.1972 -0.3595
  918W        W 1118   7.537   6.026   7.340 -0.0152 -0.1596 -0.4391
  919W        W 1119  11.337  11.056   5.238  0.2775 -0.2165  0.1107
  920W        W 1120  13.083   2.701   1.321  0.0160 -0.1308 -0.1516
  921W        W 1121   7.902  12.654  11.406 -0.1960  0.1109  0.2970
  922W        W 1122   0.627   7.400   3.985 -0.0107  0.3125  0.0780
  923W        W 1123   7.991  12.578   3.852 -0.0727  0.0005  0.0444
  924W        W 1124   9.956  13.057  14.038 -0.0802 -0.1253 -0.2750
  925W        W 1125   4.573   9.200   6.081  0.2890  0.1956  0.0315
  926W        W 1126   4.059   7.279   3.759 -0.0186 -0.5743  0.1478
  927W        W 1127   5.143   0.410   8.575 -0.0857 -0.0688  0.0393
  928W        W 1128   9.182  14.062   9.738  0.1491  0.0932  0.1291
  929W        W 1129   3.714   0.326   1.592 -0.2518  0.0862  0.0329
  930W        W 1130   1.885   3.998   6.076 -0.1706  0.1058 -0.0528
  931W        W 1131  12.288   8.460   6.526 -0.1891  0.0756 -0.1070
  932W        W 1132   4.116   1.504   1.009  0.1587 -0.0781  0.1608
  933W        W 1133   3.363   9.299   4.276 -0.1287  0.1211  0.2173
  934W        W 1134  15.122   9.761  12.033 -0.0030  0.0090 -0.0525
  935W        W 1135   2.854  13.834   3.651 -0.1134  0.0075 -0.0733
  936W        W 1136  12.300   6.820  13.993 -0.1017  0.0116 -0.1837
  937W        W 1137  13.956   4.644   6.008 -0.0828 -0.1553  0.0614
  938W        W 1138   3.979   7.762   9.522 -0.0518 -0.2735 -0.3247
  939W        W 1139  10.184  13.455   4.521  0.0453 -0.1895 -0.1235
  940W        W 1140  14.054   5.034   1.225 -0.0304  0.1476 -0.2120
  941W        W 1141   4.543   6.965   6.857 -0.0108 -0.5225  0.1091
  942W        W 1142   2.739   9.308   8.879  0.4522  0.2702 -0.1473
  943W        W 1143   1.272  13.393   6.429 -0.3016 -0.4041 -0.1850
  944W        W 1144   5.434   8.824  11.607 -0.0126  0.1903 -0.0435
  945W        W 1145   0.899   0.572   9.882 -0.0645 -0.1638 -0.0269
  946W        W 1146   1.800  10.906  14.809 -0.1252  0.1708  0.1376
  947W        W 1147  11.830   1.689  10.415 -0.2107  0.1081 -0.2980
  948W        W 1148   9.780   0.847   6.965  0.1128  0.2086 -0.1395
  949W        W 1149  12.030   9.519   6.010 -0.1217  0.0553 -0.0549
  950W        W 1150   1.972  10.790   9.484 -0.1484 -0.1739  0.0748
  951W        W 1151   6.424   1.014   9.522  0.2337 -0.2193 -0.2094
  952W        W 1152   0.354   1.423   4.318  0.0432  0.1606 -0.0399
  953W        W 1153   2.303  14.667   8.575  0.1921 -0.0211  0.2920
  954W        W 1154   3.771  11.000   6.177  0.1468  0.0545 -0.0228
  955W        W 1155   8.432   9.807  12.988 -0.0448 -0.3321 -0.0807
  956W        W 1156  14.541  12.286   5.180  0.0313  0.0495  0.1507
  957W        W 1157   3.193   7.439   8.294  0.1593 -0.0736 -0.0692
  958W        W 1158  12.889   0.209   5.127  0.1656 -0.1003  0.0003
  959W        W 1159  13.976   1.363   7.330  0.1738  0.0092  0.1216
  960W        W 1160   4.589   2.012   3.024 -0.0059 -0.5716 -0.3537
  961W        W 1161   9.098  13.261   1.852  0.0165  0.3650  0.0715
  962W        W 1162  14.261  13.219   4.787 -0.2947 -0.0254 -0.0184
  963W        W 1163  14.955   9.516   3.994 -0.1403  0.2123 -0.0601
  964W        W 1164   5.206  10.443  11.218  0.0039 -0.2261  0.0511
  965W        W 1165   3.060   1.344   3.038 -0.0305 -0.1440 -0.2171
  966W        W 1166  11.834   1.316   6.394  0.0671  0.1055  0.0925
  967W        W 1167  12.829  13.098   6.955  0.3111  0.3778 -0.2428
  968W        W 1168   1.809   2.651   2.820 -0.0310 -0.1106 -0.0387
  969W        W 1169  12.441  10.551   7.780 -0.0246  0.0031  0.3961
  970W        W 1170   7.512  13.736   8.326  0.3984 -0.1376  0.1316
  971W        W 1171  10.523   5.645   9.456  0.0244 -0.1232 -0.1104
  972W        W 1172   6.279   1.688   6.425  0.0559  0.0867 -0.0288
  973W        W 1173  13.508  12.890   7.194  0.2941  0.4262  0.1113
  974W        W 1174   3.707   5.744  12.428 -0.1210  0.0114  0.1246
  975W        W 1175   6.867   0.627   5.742 -0.0016  0.1701  0.0322
  976W        W 1176  14.654   5.574   4.055 -0.2314  0.0103  0.1180
  977W        W 1177   2.102   8.957  10.205 -0.4329 -0.1940 -0.1044
  978W        W 1178  13.295   3.515  10.028  0.1131  0.0677  0.0469
  979W        W 1179  15.182  11.567   9.865  0.2175  0.1005  0.2363
  980W        W 1180  12.589   4.261   8.876  0.1246 -0.2613  0.1050
  981W        W 1181  14.109   2.409   3.238 -0.1340  0.1927 -0.0833
  982W        W 1182   7.056   6.533   3.226  0.0693 -0.0137  0.0101
  983W        W 1183   0.721   5.839  13.178  0.0102 -0.0108  0.0262
  984W        W 1184  12.399   5.037   8.258 -0.1877  0.0612  0.0789
  985W        W 1185   4.119   1.556   4.170 -0.2173 -0.0849  0.0786
  986W        W 1186  12.927  14.368   0.498 -0.2536 -0.0330 -0.0671
  987W        W 1187   8.019   2.134  13.633  0.1745  0.0208 -0.0506
  988W        W 1188   5.019   9.410   5.580  0.0627  0.1239  0.0895
  989W        W 1189   1.000   8.070  15.045 -0.1220 -0.1347  0.1012
  990W        W 1190  13.974   2.495   2.366  0.2122 -0.0104  0.2100
  991W        W 1191  14.354  14.081  13.752 -0.3026  0.1228  0.3449
  992W        W 1192  12.662   1.737  13.858  0.2333 -0.0113  0.0964
  993W        W 1193   9.998   0.708  12.569 -0.0831  0.3092  0.0583
  994W        W 1194   3.841   6.891  13.750 -0.0124 -0.0327 -0.0831
  995W        W 1195   1.887   0.091   8.231  0.0749 -0.2824 -0.0621
  996W        W 1196  13.379   3.115   9.294  0.1258 -0.0032 -0.3600
  997W        W 1197  11.842   0.780  15.145  0.0548 -0.3048  0.0485
  998W        W 1198   4.739  14.426   6.999  0.3934  0.2004 -0.0767
  999W        W 1199   5.882   5.290   2.054  0.0255  0.5522 -0.0091
 1000W        W 1200  15.102   0.234  10.776  0.1536 -0.2690 -0.0333
 1001W        W 1201   9.824   9.517   8.793  0.2049  0.0724 -0.0315
 1002W        W 1202  13.861   2.007  11.416  0.0967  0.1248  0.0557
 1003W        W 1203   8.473   7.264   1.833 -0.0506 -0.0418  0.0992
 1004W        W 1204   1.041   3.621   3.277 -0.0509 -0.0909  0.0891
 1005W        W 1205   8.051   1.052   7.563  0.3254 -0.0692  0.1249
 1006W        W 1206   2.738   1.360   6.744  0.0384 -0.0006 -0.0347
 1007W        W 1207   5.164   9.631   9.800 -0.0353 -0.0511 -0.3452
 1008W        W 1208   4.130  11.315  11.067  0.0905 -0.0420  0.0217
 1009W        W 1209  10.633   6.594   0.711  0.3348  0.0843  0.1598
 1010W        W 1210   1.037   6.975   8.261 -0.5321  0.1971  0.0321
 1011W        W 1211   6.726  11.127   4.415 -0.0738  0.0494  0.0634
 1012W        W 1212   6.210   1.314   4.297 -0.1320  0.1956 -0.2214
 1013W        W 1213   7.784   3.817  12.246 -0.2212  0.3832  0.1931
 1014W        W 1214   3.969   2.963  11.705  0.0919  0.2068  0.3014
 1015W        W 1215   1.139   6.122  14.877 -0.3445 -0.3112 -0.1139
 1016W        W 1216   9.075   9.103  11.220 -0.0611  0.2804 -0.1857
 1017W        W 1217   4.397  13.648  13.478  0.2441 -0.3574 -0.2040
 1018W        W 1218   2.300  10.540   8.076 -0.0508 -0.0552  0.1069
 1019W        W 1219   6.377   5.702   3.287  0.0881  0.0478  0.1426
 1020W        W 1220   5.757   7.415   9.776  0.1217 -0.0026  0.1246
 1021W        W 1221   5.343   5.999   4.728  0.0259 -0.0995  0.3565
 1022W        W 1222   1.818  11.948  11.196  0.2494 -0.0125 -0.0519
 1023W        W 1223   6.451   2.326   8.837 -0.2954 -0.0625 -0.1596
 1024W        W 1224   1.591  13.719   1.345  0.3292  0.1891 -0.1662
 1025W        W 1225   0.978  14.828   9.925  0.3116  0.0834 -0.2096
 1026W        W 1226   0.236   3.397  12.907 -0.0758 -0.0757 -0.0694
 1027W        W 1227  14.747   4.027   0.645 -0.0949 -0.3165 -0.2375
 1028W        W 1228   5.977   7.205   6.862 -0.1603 -0.2233 -0.3302
 1029W        W 1229   6.402   3.081  12.893  0.3074  0.1707  0.1166
 1030W        W 1230   0.979   7.606   9.859  0.1301 -0.0784  0.3991
 1031W        W 1231  13.522   2.795   5.275 -0.1138  0.1685 -0.0560
 1032W        W 1232   0.615   2.152   1.273  0.0003 -0.0054  0.0590
 1033W        W 1233   6.866   2.773   8.161 -0.0757 -0.1532  0.0962
 1034W        W 1234   5.929   5.701   3.939 -0.1453  0.0420 -0.0667
 1035W        W 1235   0.641   2.127   0.456  0.0667 -0.0549  0.2151
 1036W        W 1236   0.203   4.182   5.003  0.1549 -0.0096  0.2559
 1037W        W 1237  12.092   4.287  12.905  0.3819 -0.0567  0.0705
 1038W        W 1238   1.191   6.634  10.727  0.2150  0.0523 -0.2841
 1039W        W 1239  15.159   1.823   7.831  0.0411  0.1395  0.0956
 1040W        W 1240  11.302   5.723   0.938  0.1839 -0.2613 -0.0819
 1041W        W 1241   2.766   1.337   9.069  0.0205 -0.0662 -0.2641
 1042W        W 1242   4.486  12.970   1.960  0.1366 -0.4334 -0.0398
 1043W        W 1243   9.678  12.229   6.344  0.0277  0.2432  0.0666
 1044W        W 1244   2.687  13.537   4.709  0.2110  0.2036  0.1309
 1045W        W 1245   8.823   2.042  13.307  0.1787 -0.0371  0.0021
 1046W        W 1246   2.094   9.902   7.158  0.1211 -0.1875  0.2860
 1047W        W 1247   3.198   9.762   4.083  0.0787 -0.1013  0.0027
 1048W        W 1248   5.137  12.513   0.437  0.2345 -0.1644 -0.0826
 1049W        W 1249  13.011   3.344  12.837 -0.2358 -0.1692  0.1082
 1050W        W 1250   6.481   8.797  13.771 -0.1733 -0.1464  0.1980
 1051W        W 1251   7.131   2.106   3.513  0.2875  0.3127 -0.1280
 1052W        W 1252   0.165   3.169   2.243  0.0304  0.0089  0.0709
 1053W        W 1253   5.086  11.942  10.089 -0.0968 -0.3298 -0.0096
 1054W        W 1254   9.105   6.360   6.123  0.2315 -0.2380 -0.1207
 1055W        W 1255   3.987   9.647   7.133 -0.3437  0.2027 -0.2484
 1056W        W 1256  10.774   2.114  13.290  0.2004 -0.2786  0.1977
 1057W        W 1257  12.439   7.378  14.057  0.1264  0.1627  0.0022
 1058W        W 1258   7.217  10.618   6.077  0.0443  0.3456 -0.2640
 1059W        W 1259   8.974   7.622   9.650 -0.3251  0.2321  0.1552
 1060W        W 1260  12.021  14.587  10.905  0.2425  0.0681 -0.1359
 1061W        W 1261   2.805   5.538  11.196 -0.0384 -0.0863 -0.1795
 1062W        W 1262  12.849   9.806   0.856  0.3640 -0.2080  0.2917
 1063W        W 1263   0.386   4.129   5.539 -0.5440  0.2677  0.0266
 1064W        W 1264   1.736  14.531   8.788  0.0347  0.0760 -0.3001
 1065W        W 1265   4.215  11.586  12.409 -0.2047 -0.0796 -0.0398
 1066W        W 1266   0.982   2.447   2.317 -0.1324 -0.0123  0.1192
 1067W        W 1267   1.162   2.660   5.499  0.0579 -0.0150  0.0265
 1068W        W 1268   3.762   8.496  11.505 -0.0440 -0.1380  0.0274
 1069W        W 1269   5.558   1.947   0.984  0.0050  0.0593  0.0064
 1070W        W 1270   2.182   0.733   9.029 -0.0744  0.2214 -0.0815
 1071W        W 1271   2.686  12.973   7.105 -0.0112  0.0795 -0.1846
 1072W        W 1272   6.960  11.067   2.473  0.0734 -0.1800 -0.3109
 1073W        W 1273  14.175   3.568  11.421  0.1428  0.2183 -0.2914
 1074W        W 1274   8.489   7.232   4.963 -0.3042 -0.1462  0.0973
 1075W        W 1275   7.114   3.721   1.386 -0.1645  0.0786  0.1602
 1076W        W 1276   7.206   7.688   6.016 -0.0433 -0.0856 -0.3319
 1077W        W 1277  12.692   7.997   7.541 -0.0854 -0.0588  0.0672
 1078W        W 1278  12.179   4.092   9.261 -0.0916  0.0052 -0.2017
 1079W        W 1279  10.140  13.864  10.142 -0.1561  0.2124  0.1291
 1080W        W 1280  14.117   3.538   8.936 -0.0230  0.1357  0.0907
 1081W        W 1281  11.265   1.868  13.826  0.1429 -0.1579  0.0395
 1082W        W 1282  14.211   0.053   1.055  0.0701 -0.0710 -0.0627
 1083W        W 1283   1.686   8.798  12.020 -0.1239 -0.0280 -0.2201
 1084W        W 1284   5.697   8.412   5.736 -0.1835  0.0169  0.2169
 1085W        W 1285   6.434   2.786   7.251 -0.0721  0.1642 -0.0265
 1086W        W 1286   2.793   9.570  13.664  0.0423  0.1683 -0.0233
 1087W        W 1287   0.883   1.453   8.760  0.1034 -0.1383  0.1852
 1088W        W 1288   0.874   0.307   0.257  0.0018  0.2734 -0.1117
 1089W        W 1289  12.881   1.873   2.386 -0.1831  0.1774 -0.1779
 1090W        W 1290  13.125   8.406   8.380 -0.2975  0.0015 -0.0340
 1091W        W 1291   0.466  12.228  10.351 -0.2847  0.0339 -0.2620
 1092W        W 1292   8.526   8.424   7.180  0.1796  0.0942 -0.1942
 1093W        W 1293  10.670   1.924   5.843 -0.2987  0.0487 -0.0543
 1094W        W 1294  14.720  13.558  10.417 -0.0525 -0.0062 -0.1530
 1095W        W 1295   4.600   6.115   6.431  0.0521 -0.1571  0.0613
 1096W        W 1296  14.504   3.958   8.292 -0.0085 -0.0341  0.0256
 1097W        W 1297   4.165   9.823   8.122  0.0415  0.1363 -0.0075
 1098W        W 1298   0.995   2.355  12.141 -0.2849  0.4307 -0.1927
 1099W        W 1299   3.545   6.121   0.880 -0.2365 -0.1349  0.1202
 1100W        W 1300   6.661   5.090  12.721  0.0465 -0.1369 -0.2540
 1101W        W 1301   1.538   7.569   7.597 -0.1861 -0.0716 -0.1725
 1102W        W 1302   0.049  13.437  13.401  0.2859 -0.0474  0.2267
 1103W        W 1303  11.401   1.011   9.853  0.1085 -0.0167 -0.0268
 1104W        W 1304  13.809   1.433   7.816 -0.2634  0.0457  0.0254
 1105W        W 1305   0.585   2.358   9.937 -0.3742  0.1336  0.4168
 1106W        W 1306  13.459   4.021   9.153  0.0595 -0.1290 -0.2682
 1107W        W 1307  11.782   8.273   3.083  0.0437 -0.4091 -0.2681
 1108W        W 1308   6.774   0.139   5.135  0.1177  0.0198  0.1709
 1109W        W 1309  13.989  14.188  13.459 -0.0876  0.3010 -0.2660
 1110W        W 1310   3.964   8.232   9.308 -0.2173  0.1236  0.0671
 1111W        W 1311   6.283  14.369   0.826  0.1369 -0.3544 -0.0794
 1112W        W 1312   3.814   0.960  14.331 -0.0460 -0.3447  0.0674
 1113W        W 1313  11.009   7.638   1.393  0.2314 -0.3619 -0.1440
 1114W        W 1314  10.341  14.354   1.195  0.0245 -0.0045  0.0653
 1115W        W 1315   5.544  10.391  10.816  0.0580 -0.4908  0.1307
 1116W        W 1316  13.214   4.187   4.149 -0.2740 -0.4032 -0.3939
 1117W        W 1317   6.297   4.781   7.281  0.0948  0.0977  0.3593
 1118W        W 1318   2.873   8.514  12.899  0.0969  0.0343  0.2854
 1119W        W 1319  10.771   2.663   6.445 -0.1894  0.1266  0.0352
 1120W        W 1320   7.725  10.376   6.094 -0.0458  0.0542 -0.2432
 1121W        W 1321  14.625   8.528   8.828  0.0077  0.0123 -0.2142
 1122W        W 1322   6.263   4.937  12.969 -0.2186  0.1517  0.0021
 1123W        W 1323   5.396   7.893   8.162 -0.1456  0.0418  0.0458
 1124W        W 1324   9.926   7.630   6.061  0.0712 -0.2857  0.0874
 1125W        W 1325   0.458   3.312   8.736  0.0944 -0.0791 -0.0958
 1126W        W 1326   3.797   8.684   7.601  0.3621 -0.3363  0.2422
 1127W        W 1327   2.089   4.084  10.018 -0.2214 -0.2316  0.3717
 1128W        W 1328  10.445   2.345   8.497 -0.1868 -0.0042  0.0694
 1129W        W 1329   6.903   5.184  14.987 -0.0801  0.2897  0.0306
 1130W        W 1330  13.665   2.114  10.032  0.1542  0.2439 -0.1611
 1131W        W 1331  14.133   1.099   4.084  0.0101 -0.1054  0.0486
 1132W        W 1332   7.171   8.991   3.364  0.3549 -0.2114 -0.1353
 1133W        W 1333   0.494  14.753   8.103  0.2533 -0.2834 -0.0000
 1134W        W 1334   5.618   7.312   8.934 -0.2712  0.2066 -0.2649
 1135W        W 1335   6.454   1.314   2.227  0.3048  0.1400 -0.1467
 1136W        W 1336   7.468   9.266   4.165 -0.0021  0.3536  0.0379
 1137W        W 1337   3.272   2.088   7.242  0.2393  0.0902 -0.1665
 1138W        W 1338   8.510   1.243   6.667  0.1830 -0.1296 -0.0218
 1139W        W 1339   9.153   1.237   1.065 -0.0618 -0.1236 -0.1316
 1140W        W 1340   3.120   3.970   3.352  0.4730 -0.0804 -0.1517
 1141W        W 1341  11.492   1.072   4.745  0.0971  0.2125 -0.0222
 1142W        W 1342   8.589   4.552   4.784 -0.1709  0.0532 -0.1568
 1143W        W 1343  15.161   8.565   7.578 -0.3888 -0.0363 -0.1973
 1144W        W 1344   7.940  14.309  10.283  0.1674 -0.2351 -0.4205
 1145W        W 1345   1.466   8.899   1.261 -0.0965  0.0793 -0.0137
 1146W        W 1346   1.819   0.348   5.744 -0.2120 -0.3127 -0.0537
 1147W        W 1347   3.846   8.095  14.397  0.0633  0.1883  0.3763
 1148W        W 1348   7.057   6.433   6.722  0.2600  0.1735  0.0525
 1149W        W 1349   0.565  13.696   7.421  0.0448  0.4027  0.1418
 1150W        W 1350   3.534   0.842   9.068  0.2310  0.1694  0.1089
 1151W        W 1351   5.524  14.487  14.164 -0.0504  0.0631  0.2829
 1152W        W 1352   6.221   7.589   9.681  0.1636  0.1973  0.0417
 1153W        W 1353  13.869   5.918   6.418 -0.2013 -0.0830 -0.4626
 1154W        W 1354   5.749   4.602   9.268  0.1975  0.0329 -0.0211
 1155W        W 1355   7.558  13.371   6.543 -0.1994 -0.1845  0.1322
 1156W        W 1356   5.431   1.602   8.941 -0.1851  0.0465  0.1722
 1157W        W 1357  12.616  13.021  13.553 -0.2827 -0.2230 -0.0024
 1158W        W 1358  12.414  10.749   6.772  0.0859 -0.0163  0.1255
 1159W        W 1359   2.609   9.552  12.705  0.2065 -0.1262  0.4674
 1160W        W 1360   4.016  13.291  11.197  0.0290 -0.1693  0.0259
 1161W        W 1361   1.860   5.338   0.604  0.1401  0.1022 -0.0817
 1162W        W 1362   1.197   4.619   8.093 -0.0522 -0.2857 -0.0542
 1163W        W 1363   6.812  14.385  12.780  0.0824  0.0434 -0.0379
 1164W        W 1364   2.826  14.338   6.179 -0.1795 -0.0518 -0.2917
 1165W        W 1365   9.587  10.332   6.648  0.1447 -0.1174 -0.2002
 1166W        W 1366   3.946   8.146   3.003  0.0508  0.1012 -0.0931
 1167W        W 1367   7.425   9.100   2.931 -0.1682  0.1411 -0.2122
 1168W        W 1368   5.836   2.011   6.463  0.1347  0.1732 -0.0906
 1169W        W 1369   5.074  12.688  11.376  0.0001 -0.0059 -0.2032
 1170W        W 1370   3.327   1.484   7.865  0.0679 -0.2542  0.2818
 1171W        W 1371   7.066   8.060   8.357 -0.0822  0.0855 -0.0862
 1172W        W 1372  11.455  12.132   5.023  0.2748 -0.1229  0.0829
 1173W        W 1373   1.815  12.811   5.075 -0.0958 -0.8560 -0.1028
 1174W        W 1374  14.116   0.654   6.171  0.1401 -0.1564  0.0696
 1175W        W 1375   5.033  11.357   9.661 -0.0926 -0.0568 -0.1363
 1176W        W 1376   1.259   3.338   7.431 -0.1422 -0.2422  0.0609
 1177W        W 1377   2.290   0.312   3.200 -0.0798 -0.1395 -0.2675
 1178W        W 1378  14.204   0.637  10.977  0.5659 -0.0410 -0.2117
 1179W        W 1379   3.622   3.241   3.620  0.2977 -0.2006 -0.2017
 1180W        W 1380   7.361   1.309   3.595  0.0508 -0.2208 -0.1685
 1181W        W 1381   8.288   5.538   1.968 -0.1580  0.0369 -0.1723
 1182W        W 1382   5.592   4.061  12.867 -0.1201 -0.0008 -0.1795
 1183W        W 1383   2.986   5.325   7.655  0.2321 -0.0856 -0.1094
 1184W        W 1384   0.699  13.011  11.128  0.1863  0.1943  0.1160
 1185W        W 1385   3.259  12.226   7.732  0.0589  0.0503  0.0487
 1186W        W 1386   1.164   3.711   5.183 -0.1387  0.1010 -0.2168
 1187W        W 1387   3.483   0.308  11.689 -0.0781 -0.0296  0.0398
 1188W        W 1388  10.912  10.782   3.861 -0.0493 -0.3162  0.0456
 1189W        W 1389   8.903   1.210   8.867  0.3267  0.0673  0.2598
 1190W        W 1390   5.554   3.102   4.472  0.1158 -0.3709  0.1196
 1191W        W 1391   1.214   5.863   2.926 -0.3452 -0.0638 -0.2720
 1192W        W 1392   1.519   3.717  11.178  0.1392 -0.2988 -0.3710
 1193W        W 1393   4.911   8.147   1.874  0.0147  0.2085  0.1977
 1194W        W 1394  12.116  12.536  12.455  0.4061  0.1228  0.0151
 1195W        W 1395   3.761   0.090   9.218 -0.0435  0.0729 -0.1110
 1196W        W 1396   2.492   4.899   4.196  0.1037 -0.1720  0.2115
 1197W        W 1397   1.067  10.316  10.958 -0.0117 -0.0044  0.2854
 1198W        W 1398  14.249   2.060   9.545  0.0975 -0.0771 -0.3962
 1199W        W 1399   5.724   3.236  13.593 -0.2725  0.2930 -0.1976
 1200W        W 1400   5.475   3.019   5.356  0.2564  0.1256 -0.1641
 1201W        W 1401   2.330  13.091   9.292  0.1343 -0.1007 -0.0358
 1202W        W 1402   1.283  12.420  14.102 -0.0138 -0.0998  0.0524
 1203W        W 1403   9.608   0.638  13.493 -0.4942  0.1655  0.1218
 1204W        W 1404  13.250   6.638   3.138  0.1452  0.0969  0.1825
 1205W        W 1405   1.449   8.834   0.708  0.2184  0.0430  0.0247
 1206W        W 1406  13.373   6.684   8.003  0.1294  0.0019  0.0877
 1207W        W 1407   6.033   0.866   6.584 -0.3610 -0.1701 -0.2798
 1208W        W 1408  14.201   3.751  10.340  0.0361 -0.1212 -0.1532
 1209W        W 1409   5.779   0.544  11.109 -0.0735  0.3138 -0.0118
 1210W        W 1410   3.838   7.626   4.094  0.0172  0.1406 -0.0218
 1211W        W 1411   5.111   3.766  13.061 -0.0104 -0.0679 -0.0289
 1212W        W 1412   9.522   5.335   7.857 -0.2874  0.1164  0.2371
 1213W        W 1413   7.246  13.461   7.025  0.3917  0.0265  0.0588
 1214W        W 1414   6.173   6.625   9.101  0.0330 -0.2857 -0.1722
 1215W        W 1415   1.156  14.033   2.474 -0.1736 -0.3355 -0.2380
 1216W        W 1416   5.903  14.739  12.977  0.1344  0.0704  0.0932
 1217W        W 1417   0.862   1.438   4.471 -0.0856  0.0611 -0.0225
 1218W        W 1418   0.567   3.757   8.052  0.1028  0.0350  0.2929
 1219W        W 1419   3.272  15.110  13.675 -0.3994 -0.0084 -0.2192
 1220W        W 1420  10.208   5.261  13.051  0.0734  0.0165  0.0395
 1221W        W 1421  13.701  12.091  11.421  0.1766 -0.0800 -0.0665
 1222W        W 1422   5.740  14.929   4.445  0.0251 -0.0274  0.0222
 1223W        W 1423   0.842   3.267   6.040 -0.2125 -0.1105  0.1655
 1224W        W 1424   1.810   8.141   9.071 -0.2670 -0.2218 -0.1663
 1225W        W 1425   0.270   9.691  13.022  0.0286 -0.1611  0.1955
 1226W        W 1426   3.268  13.877   9.495  0.1508 -0.1559 -0.0954
 1227W        W 1427  11.571   2.432   4.735  0.1633  0.1061 -0.2736
 1228W        W 1428   1.306  12.123  10.817  0.0282 -0.0436 -0.0788
 1229W        W 1429  15.178   1.022   3.577  0.3806  0.4598 -0.1328
 1230W        W 1430   4.521  12.375   9.601 -0.0217 -0.3040  0.1638
 1231W        W 1431   3.423  11.361   8.991 -0.3056  0.1754 -0.2071
 1232W        W 1432   1.732  12.920  11.465 -0.0606  0.0286 -0.1080
 1233W        W 1433   9.966  11.414   5.519 -0.0676 -0.2454  0.0235
 1234W        W 1434   6.346   3.950   0.329 -0.3807 -0.1959 -0.3060
 1235W        W 1435   2.111  14.070  11.391 -0.0861  0.0426  0.0070
 1236W        W 1436   5.060   1.414   8.678 -0.1589  0.1779 -0.0103
 1237W        W 1437   6.006   7.843   0.078  0.0614  0.3118 -0.1543
 1238W        W 1438   9.957  12.936  11.216 -0.1802  0.0391 -0.1134
 1239W        W 1439  12.526   3.916   5.518  0.2772 -0.1655 -0.2925
 1240W        W 1440   9.753  10.741   6.328 -0.1523 -0.0681 -0.0548
 1241W        W 1441  11.344   0.577  14.978 -0.1972 -0.2057 -0.3434
 1242W        W 1442   6.405  14.368   4.681  0.0467  0.0387  0.2102
 1243W        W 1443   3.170   6.019  10.032  0.1689 -0.1298 -0.0608
 1244W        W 1444   3.658  13.252   3.228 -0.1459  0.1160 -0.0527
 1245W        W 1445   4.545   4.981   3.307 -0.2047  0.1555 -0.1121
 1246W        W 1446   5.634   4.794   7.502  0.0675  0.0647  0.0079
 1247W        W 1447   5.744  12.856  13.610 -0.3190  0.2514  0.0585
 1248W        W 1448  14.978   1.187   2.992  0.2703  0.0075 -0.0238
 1249W        W 1449   4.062   2.307   3.479 -0.1713  0.1577 -0.4962
 1250W        W 1450   1.756   5.221  13.202  0.1632 -0.0996 -0.2605
 1251W        W 1451   1.276   4.120   9.511  0.0404 -0.1411 -0.0635
 1252W        W 1452  11.809  12.097   8.386 -0.0145  0.1738 -0.1938
 1253W        W 1453   2.174   1.843   7.758  0.2094 -0.2741 -0.0233
 1254W        W 1454   0.987   2.943   0.633  0.0625 -0.0402 -0.1920
 1255W        W 1455   6.282   3.959  14.020  0.1242  0.0932 -0.2388
 1256W        W 1456   4.946   5.862   1.463  0.0098  0.0699  0.1322
 1257W        W 1457  11.073   5.499   7.924 -0.3614 -0.1019 -0.0110
 1258W        W 1458   0.265   3.461   2.759 -0.2366  0.2196  0.2551
 1259W        W 1459  11.833   0.713   4.969  0.0751  0.0068 -0.0046
 1260W        W 1460  11.479   3.405   6.747  0.0480 -0.0174 -0.1498
 1261W        W 1461   7.714  10.507  13.993  0.0583 -0.0690 -0.0144
 1262W        W 1462   7.517   7.587   5.602  0.0330  0.1612 -0.0603
 1263W        W 1463  14.384   0.802  10.445  0.0219 -0.3993 -0.0671
 1264W        W 1464   6.528   7.031  13.249 -0.2784  0.0553  0.1269
 1265W        W 1465   8.933  10.746  11.904  0.1462  0.0565  0.1870
 1266W        W 1466   6.979   5.345  12.365  0.3290 -0.1772  0.0896
 1267W        W 1467   8.312  13.447   5.150  0.0071 -0.3609 -0.0417
 1268W        W 1468  10.011   2.827   0.590 -0.0204 -0.0899  0.2187
 1269W        W 1469   0.676   3.866  13.335  0.3139 -0.2220 -0.1422
 1270W        W 1470   7.826   0.686   8.389  0.3029  0.0191 -0.2119
 1271W        W 1471   1.605  10.457   9.679 -0.1368 -0.2064  0.0401
 1272W        W 1472   1.268  12.910  11.029 -0.0993 -0.0790  0.4000
 1273W        W 1473  12.255   3.582   3.184 -0.0231 -0.0224  0.4465
 1274W        W 1474  13.643   2.329   7.638 -0.0475 -0.0565  0.3184
 1275W        W 1475  14.872   8.590  11.129 -0.2911 -0.0161 -0.0730
 1276W        W 1476   3.151   7.632  14.678 -0.0246  0.1491  0.0203
 1277W        W 1477   1.163  14.474   2.852  0.1378  0.1585 -0.1252
 1278W        W 1478   8.892   5.644   3.207 -0.0999 -0.1514  0.0373
 1279W        W 1479   5.582   8.380   1.134  0.0503 -0.0343 -0.1992
 1280W        W 1480  13.881   0.980  11.101  0.2110 -0.1407  0.0055
 1281W        W 1481   3.031   9.993  13.825 -0.0073  0.1081  0.0645
 1282W        W 1482   2.278   6.483  13.500  0.3257 -0.0451 -0.1391
 1283W        W 1483   6.262  12.158   5.194  0.1033  0.0225 -0.0502
 1284W        W 1484   1.921  14.508   9.231  0.0602 -0.0666 -0.1619
 1285W        W 1485  14.845   8.876  11.521 -0.4964 -0.0466  0.1199
 1286W        W 1486   6.170   6.110   9.810 -0.0439 -0.2015  0.2045
 1287W        W 1487   4.361   8.980   1.762  0.0851  0.0673 -0.2528
 1288W        W 1488  11.937   4.576   9.529  0.1778 -0.0284  0.0179
 1289W        W 1489   3.522  14.546  10.096 -0.0106 -0.0079 -0.1863
 1290W        W 1490   3.060   9.474   9.756  0.0316 -0.0587  0.0740
 1291W        W 1491  13.758   0.987   3.627  0.0463  0.0986  0.0927
 1292W        W 1492   6.959  12.571   8.296  0.0904 -0.0606  0.0036
 1293W        W 1493   4.839   3.880  13.476  0.1017 -0.0293 -0.1583
 1294W        W 1494  10.068  13.205   0.057  0.0098 -0.1220  0.1995
 1295W        W 1495   8.689   0.789   8.390  0.2177  0.0732  0.1348
 1296W        W 1496   3.737  11.063  13.764 -0.2632 -0.2301  0.0135
 1297W        W 1497   7.125  11.106   6.234  0.0192  0.0826 -0.0456
 1298W        W 1498   5.380   4.395   9.545  0.1033 -0.2807 -0.0095
 1299W        W 1499   1.337  14.877  11.586  0.4048  0.0506  0.2638
 1300W        W 1500  13.870   6.351   0.295 -0.3984  0.0498 -0.0100
 1301W        W 1501  11.760   7.656   6.464  0.2088  0.3018 -0.2572
 1302W        W 1502  12.786   4.276   9.889  0.1277  0.2347  0.2292
 1303W        W 1503   5.323   2.823  13.529  0.0251 -0.2646  0.0783
 1304W        W 1504  13.463  14.883  12.671 -0.0758 -0.1669 -0.1114
 1305W        W 1505   2.541   6.670   6.287  0.0165 -0.3608 -0.2230
 1306W        W 1506  11.365  12.524   0.644 -0.1005 -0.2392 -0.0688
 1307W        W 1507   0.950   4.625  14.998 -0.0798  0.0842 -0.0177
 1308W        W 1508   2.153   5.713   2.246 -0.0876  0.1740  0.0951
 1309W        W 1509   3.130   0.790   4.507  0.0203 -0.1779 -0.3585
 1310W        W 1510   1.399  11.367   2.417 -0.4419  0.2313 -0.2507
 1311W        W 1511   6.728   0.495   9.896  0.0645 -0.2591 -0.1571
 1312W        W 1512   3.327  11.858   2.939  0.1314  0.2500 -0.2225
 1313W        W 1513  10.580  12.554   1.712 -0.2287 -0.1977  0.0075
 1314W        W 1514  13.528   1.104   5.678  0.1062  0.1995 -0.0083
 1315W        W 1515  12.872   1.486   0.696  0.1140 -0.3597  0.1386
 1316W        W 1516   0.866   4.419  14.039  0.1959  0.1992  0.1050
 1317W        W 1517  11.010   3.484  10.997  0.1212  0.2379 -0.4289
 1318W        W 1518  10.164   8.020   2.294  0.1418 -0.2609 -0.0691
 1319W        W 1519  11.908   9.833  12.092 -0.0541 -0.0103 -0.1344
 1320W        W 1520   3.835  10.687  14.073 -0.1121 -0.1449 -0.0262
 1321W        W 1521   7.312   4.864  14.772 -0.0528 -0.2394 -0.0913
 1322W        W 1522   4.394   3.314  10.801 -0.5235 -0.0612 -0.2360
 1323W        W 1523   2.466  11.964   9.802 -0.1570  0.2183 -0.3322
 1324W        W 1524  15.154  13.290  10.580 -0.0611 -0.1568 -0.1542
 1325W        W 1525   1.849   0.559  13.711 -0.0235 -0.1353 -0.0499
 1326W        W 1526  13.277   6.811  11.613 -0.2904 -0.0175  0.1186
 1327W        W 1527   1.890  14.623  13.566 -0.1527 -0.0143 -0.0190
 1328W        W 1528   1.698   5.253   1.954  0.0477  0.1841  0.0404
 1329W        W 1529   9.568  14.574  14.242  0.1748  0.0375  0.0777
 1330W        W 1530  12.578  10.479  12.950 -0.1168 -0.3597  0.1842
 1331W        W 1531   9.591   0.027   9.862  0.2019  0.3361  0.2076
 1332W        W 1532  11.175  13.872  14.106  0.3569 -0.1827  0.1161
 1333W        W 1533   5.814   2.882   2.298  0.2575  0.1627  0.0167
 1334W        W 1534   2.500   8.417   2.923 -0.0069 -0.0137 -0.0240
 1335W        W 1535  12.414   5.292   5.336 -0.1593 -0.0179  0.0159
 1336W        W 1536   4.424  10.704   7.338  0.0003  0.1365  0.2443
 1337W        W 1537   2.829   3.271  13.617 -0.0596  0.0103  0.2868
 1338W        W 1538   4.441  14.477  14.027 -0.3043  0.1103 -0.0847
 1339W        W 1539  10.557   6.479   7.275  0.0288 -0.0373 -0.2390
 1340W        W 1540  14.647  14.429  11.303 -0.1807  0.2816  0.2201
 1341W        W 1541  12.248   3.730   0.035 -0.1231  0.2007  0.0054
 1342W        W 1542   5.976   4.296   7.501  0.1260 -0.1468 -0.0178
 1343W        W 1543   1.728   2.214   4.740  0.3258 -0.1642  0.2088
 1344W        W 1544   6.502   8.346   9.977  0.0122  0.2641 -0.0012
 1345W        W 1545  14.489   0.244  13.880 -0.1075  0.1917  0.3756
 1346W        W 1546  13.314   6.671   3.920  0.0388  0.1715  0.1784
 1347W        W 1547   9.285   6.454   0.923  0.1829  0.1288 -0.0613
 1348W        W 1548  11.754   6.817   8.990  0.1111  0.1969 -0.4759
 1349W        W 1549   0.723   0.781  10.343  0.1137 -0.1189  0.5588
 1350W        W 1550   4.419  11.607   0.876  0.0464  0.2557 -0.1307
 1351W        W 1551   3.181   1.105   1.353 -0.0154  0.0641  0.2256
 1352W        W 1552   3.897  12.367  13.114 -0.2281  0.0421  0.0896
 1353W        W 1553   6.473  11.692  11.354 -0.1298  0.1515  0.1671
 1354W        W 1554   4.816   4.762   7.139  0.1040 -0.0652 -0.2376
 1355W        W 1555   3.813   4.196   2.704 -0.3267  0.1802 -0.2608
 1356W        W 1556   0.592   8.589   0.905 -0.2897  0.0263  0.1672
 1357W        W 1557  13.104   8.650   1.693  0.0330  0.1572 -0.3027
 1358W        W 1558  12.553   0.312   0.156  0.0762  0.1612  0.2922
 1359W        W 1559   4.175   6.296   5.750 -0.0192 -0.0619 -0.1455
 1360W        W 1560   2.499   9.878   0.522  0.3479  0.1091 -0.1112
 1361W        W 1561  12.777  14.859  13.371  0.1135 -0.1294 -0.2891
 1362W        W 1562  12.783   6.387  13.325 -0.3934  0.0715 -0.0745
 1363W        W 1563  14.513   5.209   1.244 -0.0417 -0.0005  0.0257
 1364W        W 1564  11.865   6.619  11.448  0.0333 -0.2091  0.0252
 1365W        W 1565  14.180   1.165   6.876 -0.0490 -0.2402 -0.3951
 1366W        W 1566   3.942  10.276  11.707  0.0501  0.1776  0.0698
 1367W        W 1567   7.268   5.012   1.494 -0.0318  0.0128 -0.0008
 1368W        W 1568   1.746  10.904   6.453  0.0109  0.1752 -0.1742
 1369W        W 1569   0.938   3.367   1.101  0.0690 -0.4063 -0.2576
 1370W        W 1570   8.166   5.140   9.284 -0.3954 -0.2417 -0.1263
 1371W        W 1571   9.392   1.066   7.692  0.1769 -0.1453  0.1555
 1372W        W 1572   4.078   8.694  13.400  0.0122  0.1188 -0.0445
 1373W        W 1573  13.134   0.575  12.640 -0.0222 -0.3867  0.1601
 1374W        W 1574   1.024   8.638   9.617  0.2236 -0.1284  0.0717
 1375W        W 1575   7.318   3.765   4.103 -0.3361  0.3931 -0.0521
 1376W        W 1576   2.296   3.556   3.790  0.3190  0.1662  0.0176
 1377W        W 1577   0.398   4.373  13.230  0.1070  0.0406  0.0694
 1378W        W 1578   1.116   0.177   6.459 -0.1415 -0.0828 -0.2693
 1379W        W 1579   1.890  13.583   2.926  0.1608 -0.1782  0.0839
 1380W        W 1580  10.169   8.998   7.116  0.0806 -0.0548  0.0778
 1381W        W 1581  13.549  11.291   1.196  0.2059 -0.0765 -0.0867
 1382W        W 1582   2.707   0.163   5.294 -0.0579 -0.3487 -0.1222
 1383W        W 1583  14.771   4.549  11.909 -0.4006  0.0182  0.2780
 1384W        W 1584  14.791  11.413   6.800  0.0693  0.3344 -0.0865
 1385W        W 1585   3.611   2.700  12.828  0.0302  0.0643  0.2325
 1386W        W 1586   1.693   4.965   4.817  0.1931 -0.1747 -0.3000
 1387W        W 1587   1.730   5.506  10.751 -0.3935 -0.0965 -0.0133
 1388W        W 1588   8.197   8.613  14.369 -0.3617  0.1167 -0.0887
 1389W        W 1589  11.010  12.978  14.088 -0.0039 -0.0532  0.1205
 1390W        W 1590   3.588   6.823  11.022  0.4220  0.1628 -0.1531
 1391W        W 1591   3.071   9.413   7.618  0.1509  0.2529 -0.2497
 1392W        W 1592   6.463   1.155   1.609  0.0783 -0.0409 -0.1703
 1393W        W 1593   0.353  12.390   8.204 -0.0973  0.0151 -0.4502
 1394W        W 1594   4.572   0.711   5.893  0.3544  0.1027 -0.0758
 1395W        W 1595   2.342   8.562   6.508  0.0429  0.0112 -0.0341
 1396W        W 1596   9.124   2.031  12.793 -0.0143  0.0852  0.0432
 1397W        W 1597  13.354   6.958   5.354  0.0743  0.1622  0.2871
 1398W        W 1598  12.801  14.554   7.994 -0.1024 -0.4324  0.1730
 1399W        W 1599  10.373   1.492  15.017  0.1328 -0.0178 -0.2141
 1400W        W 1600   5.787   9.461   0.426  0.1688  0.1475  0.0715
 1401W        W 1601   1.339  10.437   7.084  0.0860  0.2163 -0.2823
 1402W        W 1602   0.255  13.492   1.129 -0.0076 -0.0150  0.1995
 1403W        W 1603   5.518   4.958   3.390 -0.1615  0.1140 -0.0758
 1404W        W 1604   0.086   2.947   2.655  0.2149  0.0692  0.2910
 1405W        W 1605  13.925   6.985   0.237  0.0991 -0.1316 -0.3098
 1406W        W 1606   8.482   2.347   9.326  0.0651 -0.3052  0.1531
 1407W        W 1607   8.360   7.624   6.418 -0.0019 -0.1881 -0.0084
 1408W        W 1608   1.341   0.940   2.314 -0.0205  0.1756 -0.2210
 1409W        W 1609  14.733   7.674   7.812 -0.0102 -0.3450 -0.2163
 1410W        W 1610   0.476  10.679  13.934  0.1353 -0.1044 -0.1802
 1411W        W 1611   0.802   2.842   6.857  0.2558  0.2965  0.1823
 1412W        W 1612   5.685   6.942  11.858  0.0138  0.0425  0.1990
 1413W        W 1613   4.720   3.938  11.644  0.0209 -0.0613 -0.1468
 1414W        W 1614   6.776   1.125  14.349  0.2194 -0.0013 -0.1687
 1415W        W 1615   1.325   9.981   9.683  0.0271  0.1183  0.4080
 1416W        W 1616  15.087  14.711  10.692  0.1871 -0.0099 -0.1289
 1417W        W 1617   4.916   2.428   1.486 -0.0903 -0.3785  0.1950
 1418W        W 1618   1.060  13.822   3.967  0.1424 -0.2293 -0.2164
 1419W        W 1619   1.605   7.186  14.564  0.1383 -0.0866  0.2181
 1420W        W 1620   3.250   1.521  11.941 -0.0094 -0.0656  0.1960
 1421W        W 1621   0.843   1.288   5.868  0.0833  0.1014  0.0519
 1422W        W 1622   0.939   5.045  12.852  0.1619  0.1441 -0.0628
 1423W        W 1623   9.400  14.493  13.799 -0.1634 -0.0779 -0.0144
 1424W        W 1624  14.719   0.116   9.756  0.0721  0.1923 -0.1506
 1425W        W 1625   2.457  13.319   8.307  0.3315 -0.0201 -0.1360
 1426W        W 1626  13.698   6.096   4.393  0.0817 -0.2435  0.1845
 1427W        W 1627   2.632   3.118   0.407 -0.1166  0.0840  0.1612
 1428W        W 1628  14.819   7.677  10.974 -0.0518  0.1523 -0.0383
 1429W        W 1629   9.683   5.714  13.762  0.0087  0.1254 -0.4458
 1430W        W 1630   4.738  15.129  14.658  0.0266  0.0905 -0.3991
 1431W        W 1631   2.104   3.591   7.625  0.0073  0.3345  0.1158
 1432W        W 1632   1.795  12.248  10.815  0.1862  0.2125 -0.1905
 1433W        W 1633   4.592   3.458   0.668  0.3292 -0.1203 -0.0054
 1434W        W 1634   2.038  14.669  11.455  0.0528  0.0606 -0.3870
 1435W        W 1635   5.524  12.114  14.688 -0.0112 -0.1508  0.0423
 1436W        W 1636   7.120  13.435  11.583 -0.0108  0.0927  0.3082
 1437W        W 1637   6.345  15.148   1.373  0.0663  0.1317  0.2675
 1438W        W 1638   1.952  13.289   4.364  0.0995 -0.1045  0.1973
 1439W        W 1639  14.868  12.747  11.193 -0.2825  0.1819 -0.1580
 1440W        W 1640  10.561   8.843   9.835 -0.0958  0.0861 -0.1072
 1441W        W 1641   0.872   1.892   5.188  0.2667  0.2303 -0.0609
 1442W        W 1642  10.111   7.123   0.121 -0.1485  0.1890  0.1937
 1443W        W 1643   0.831  12.441   7.901  0.0180  0.0579 -0.0462
 1444W        W 1644   4.203   0.171   2.440 -0.1834  0.1607 -0.3283
 1445W        W 1645  12.012   3.084   9.878 -0.2211  0.0535  0.0952
 1446W        W 1646   1.189  14.439   0.020 -0.2806 -0.1957  0.0707
 1447W        W 1647   4.314   2.862  13.614  0.4235 -0.2286  0.1536
 1448W        W 1648   9.505   5.014  14.407 -0.0314  0.2977  0.0552
 1449W        W 1649   2.969   0.043   3.630 -0.3192 -0.0563  0.2570
 1450W        W 1650   5.999   7.102   0.406 -0.2235 -0.0086  0.0066
 1451W        W 1651   1.422  12.704   3.357 -0.0854  0.1631  0.2687
 1452W        W 1652   2.370  13.749   8.632  0.1093  0.0373  0.0097
 1453W        W 1653   2.742   4.470  13.323  0.1580 -0.0578  0.2257
 1454W        W 1654   8.852   5.001   3.198  0.3172 -0.0358  0.3325
 1455W        W 1655   5.647  13.007   9.707 -0.0499  0.0359  0.2305
 1456W        W 1656   6.285   0.119   2.808  0.0921 -0.0465 -0.0739
 1457W        W 1657   5.625  15.193   8.742  0.0847  0.2246  0.0773
 1458W        W 1658  11.803  15.143   8.829  0.4011 -0.3036 -0.2527
 1459W        W 1659  12.401   4.628  13.298 -0.1159  0.0332 -0.2250
 1460W        W 1660   7.009  12.612  14.411 -0.0951 -0.0756  0.0066
 1461W        W 1661   4.029  12.542  14.132  0.1806  0.0780  0.1714
 1462W        W 1662  14.984   2.092   0.140  0.1660 -0.1388  0.1143
 1463W        W 1663   6.179   2.525   5.968  0.1626 -0.0091 -0.1554
 1464W        W 1664   1.909  13.271   0.621 -0.0226  0.0792  0.0520
 1465W        W 1665   5.254   1.206   6.940 -0.0848 -0.1920  0.0422
 1466W        W 1666   2.471  13.177   5.752 -0.1029  0.2130  0.1635
 1467W        W 1667  14.034   1.944   3.488 -0.1753  0.0655  0.2793
 1468W        W 1668   0.781  13.400   9.722 -0.2694  0.0358 -0.1439
 1469W        W 1669   1.124   1.118   6.985 -0.4495 -0.3086 -0.2677
 1470W        W 1670   9.770  12.280   4.886 -0.1479 -0.1923 -0.0399
 1471W        W 1671   5.771   2.189   0.586 -0.1610 -0.0853  0.0958
 1472W        W 1672   2.183  10.456   5.820  0.3188  0.1470  0.1429
 1473W        W 1673   6.324   3.605  12.230 -0.0613  0.1536  0.0285
 1474W        W 1674   8.656   0.654   9.958 -0.0650  0.0278  0.0035
 1475W        W 1675   4.805   7.514  10.605  0.0497  0.0728 -0.1504
 1476W        W 1676   0.671   8.389  12.421 -0.1608  0.2762  0.1922
 1477W        W 1677   5.697  11.265  11.045 -0.2098  0.1482 -0.2617
 1478W        W 1678  11.576   1.921  13.108  0.0719 -0.0188 -0.0291
 1479W        W 1679   3.527   9.270   1.041  0.1893 -0.1427 -0.0946
 1480W        W 1680   7.409  12.129  13.419  0.2121 -0.2520 -0.1579
 1481W        W 1681  14.550   4.701  14.423  0.0879 -0.1166 -0.0301
 1482W        W 1682  14.421  10.382   4.448  0.0690 -0.1325  0.1455
 1483W        W 1683   6.683  12.412   6.235 -0.0454 -0.5004  0.2421
 1484W        W 1684   3.987  14.444   2.730  0.2206 -0.1307 -0.0327
 1485W        W 1685   7.244  11.307   2.184 -0.1023  0.1051  0.3498
 1486W        W 1686   9.660   0.167   8.087 -0.0852  0.0178  0.2051
 1487W        W 1687   1.134   0.522   1.276 -0.1350  0.2822 -0.0279
 1488W        W 1688   8.087  13.136   1.895  0.1877  0.1143  0.4183
 1489W        W 1689  11.990   1.517   7.836 -0.0333  0.1039  0.1531
 1490W        W 1690   2.842  14.135  14.251  0.3220 -0.3706  0.2724
 1491W        W 1691   1.827  12.745   6.286 -0.1500 -0.1505  0.1235
 1492W        W 1692  14.918  14.891   9.534  0.1774  0.0799  0.0533
 1493W        W 1693   9.423  12.531   4.026 -0.0161  0.2583  0.1155
 1494W        W 1694   2.800  13.716  11.063 -0.3833 -0.3259 -0.1347
 1495W        W 1695   4.110   1.143  13.887 -0.0615  0.1925 -0.1932
 1496W        W 1696  12.994   5.561   0.516  0.2111  0.1502 -0.1126
 1497W        W 1697   6.451   0.868  13.195  0.1380  0.0236 -0.0229
 1498W        W 1698  10.008   5.095   3.651 -0.0921  0.2335 -0.1598
 1499W        W 1699  12.858   1.905  10.597  0.2207  0.1490  0.0211
 1500W        W 1700  10.999   7.328  14.463 -0.3143  0.1583 -0.1036
 1501W        W 1701   1.143   8.737   6.744 -0.0603 -0.1968 -0.3170
 1502W        W 1702   1.240   4.557  13.114 -0.2595 -0.0135  0.3104
 1503W        W 1703   7.418   0.807  11.841  0.2642 -0.5796 -0.0081
 1504W        W 1704   9.921  15.166   1.480  0.1669  0.0045 -0.0820
 1505W        W 1705   7.906   0.483   4.324  0.3040 -0.3370  0.1488
 1506W        W 1706   4.200  10.734   1.220 -0.2159  0.0842  0.2740
 1507W        W 1707   2.127   3.599   5.946 -0.3514 -0.0429 -0.0508
 1508W        W 1708   1.848   7.065  13.766  0.0923  0.2386  0.1409
 1509W        W 1709  11.631   7.274   9.581 -0.1500  0.1671 -0.2557
 1510W        W 1710   6.633  14.990  11.659  0.3122 -0.0344 -0.2075
 1511W        W 1711  10.817   1.825   2.885 -0.3291  0.0551  0.0766
 1512W        W 1712   1.682  13.059   7.182  0.0925 -0.0403  0.0403
 1513W        W 1713   3.543   1.668   7.209 -0.0686 -0.0076 -0.0750
 1514W        W 1714   6.313   1.218  10.983 -0.0049  0.2763 -0.0384
 1515W        W 1715   4.421   3.580  12.874 -0.0496  0.1866 -0.5045
 1516W        W 1716  14.218  14.066   4.286  0.0364  0.0618 -0.0128
 1517W        W 1717   3.561   3.935   6.349 -0.3422 -0.0138 -0.3332
 1518W        W 1718   2.517   4.322  11.674  0.2408  0.0085 -0.0411
 1519W        W 1719   8.078   1.548   2.693  0.2392 -0.4208  0.4625
 1520W        W 1720   5.786  14.195   9.218 -0.3280  0.1211 -0.0643
 1521W        W 1721   9.241   0.714  11.898 -0.0857  0.1011  0.0225
 1522W        W 1722   5.841   1.737  10.749  0.3028 -0.0121 -0.0454
 1523W        W 1723   0.337   5.066  13.443 -0.0093 -0.5540 -0.2540
 1524W        W 1724   3.043   9.242   5.297 -0.0834  0.0524  0.1994
 1525W        W 1725   0.905   0.366  13.160 -0.0861 -0.1945 -0.0708
 1526W        W 1726   1.584   9.153  10.779 -0.1658  0.1702  0.0609
 1527W        W 1727   6.987   3.127   8.915 -0.0057 -0.0197  0.0491
 1528W        W 1728   4.946   0.465  11.594 -0.2933  0.0641  0.1517
 1529W        W 1729   8.706   2.848  10.736  0.0250 -0.1082 -0.0910
 1530W        W 1730  11.480   3.822   7.090  0.2043 -0.0844 -0.0947
 1531W        W 1731   2.165   4.829   5.084 -0.4342 -0.0504 -0.2320
 1532W        W 1732   6.889  10.482   8.265  0.1393  0.1043 -0.0997
 1533W        W 1733  12.788  10.132  13.248 -0.0401  0.0993  0.2105
 1534W        W 1734   7.249   5.960   9.985 -0.2212  0.2030  0.2279
 1535W        W 1735   1.286   2.712   9.654 -0.0460  0.1184  0.0781
 1536W        W 1736   4.364   1.109  10.517 -0.2553 -0.1202 -0.0282
 1537W        W 1737   3.704  13.384  10.392  0.3167 -0.3270  0.1600
 1538W        W 1738   2.209   4.006  10.725 -0.2848  0.1590 -0.0291
 1539W        W 1739  13.643   4.961   5.604  0.1848  0.2252 -0.3180
 1540W        W 1740   7.338   8.517   0.938 -0.0738  0.1513  0.1125
 1541W        W 1741  11.269   4.971   5.127  0.1146  0.1121  0.1779
 1542W        W 1742  12.271   8.096   2.587 -0.0385 -0.1226  0.0621
 1543W        W 1743  14.646   1.749   6.492 -0.0091  0.0486  0.0821
 1544W        W 1744   4.997  14.665  14.126 -0.1895  0.1379  0.0421
 1545W        W 1745   9.295  13.999  13.133  0.2503  0.1116 -0.1431
 1546W        W 1746   8.970   0.535  10.881  0.0028  0.0600  0.0052
 1547W        W 1747   8.424  10.303   6.799  0.1097  0.0061 -0.1777
 1548W        W 1748   2.153   7.402   8.329  0.1886 -0.1373  0.0543
 1549W        W 1749   4.756  12.984   4.861 -0.1400  0.1758 -0.1078
 1550W        W 1750   4.507   4.889  12.665 -0.2314  0.0084  0.2277
 1551W        W 1751   2.219  11.636  10.554 -0.0261  0.0355 -0.2028
 1552W        W 1752   2.094   9.164   7.664  0.0268 -0.5513  0.1579
 1553W        W 1753   6.249   1.462   2.902 -0.1765  0.1535  0.1798
 1554W        W 1754   8.362   7.253  11.704 -0.1437 -0.2778 -0.0076
 1555W        W 1755   9.227   7.855   8.198 -0.0937  0.1430  0.0370
 1556W        W 1756  13.713  14.697   0.596 -0.0944  0.0598 -0.1202
 1557W        W 1757  12.837   1.833   4.173  0.3645  0.1074 -0.1568
 1558W        W 1758  15.010   9.585  14.728 -0.2576  0.2312  0.0194
 1559W        W 1759   5.719  11.770   0.803  0.0671 -0.1143 -0.0538
 1560W        W 1760   3.184   9.430   1.614  0.0269  0.2420  0.0462
 1561W        W 1761   7.977  14.053  12.405 -0.3555 -0.0313 -0.2082
 1562W        W 1762  14.336   8.435  10.957 -0.0852 -0.4121  0.0478
 1563W        W 1763  13.487  14.755   6.136 -0.0154 -0.4683 -0.0732
 1564W        W 1764   1.205   1.897   6.750 -0.0257 -0.0898  0.0618
 1565W        W 1765   6.212   3.443   7.680  0.2362 -0.2113  0.0002
 1566W        W 1766  14.754  14.115  12.335 -0.1900  0.1875 -0.2811
 1567W        W 1767  14.391  12.231   3.895  0.4850 -0.3358 -0.5155
 1568W        W 1768   7.466   9.129   5.887  0.0907 -0.1022 -0.2716
 1569W        W 1769   8.536   8.736   6.540  0.2682  0.0974  0.3066
 1570W        W 1770  13.648   4.477   1.057  0.2692  0.2407  0.0702
 1571W        W 1771   4.675   4.801   5.426 -0.0105 -0.0025  0.1146
 1572W        W 1772   5.101  13.608   0.304  0.2039 -0.0024  0.0368
 1573W        W 1773  12.178  13.528  12.931  0.0426 -0.3236  0.1969
 1574W        W 1774   0.429  14.939  13.406 -0.1506 -0.0724  0.0276
 1575W        W 1775   9.659   0.383   0.584  0.3748 -0.2371 -0.0517
 1576W        W 1776  13.327   5.197  12.079  0.0437  0.0802  0.0452
 1577W        W 1777   9.269  14.836   0.297 -0.0309 -0.2643  0.1307
 1578W        W 1778  11.616  11.770   6.299 -0.0631  0.2172  0.1622
 1579W        W 1779   4.942  12.806   7.490 -0.0990  0.0092 -0.1609
 1580W        W 1780   0.101   2.639   1.457  0.1637  0.1680  0.0639
 1581W        W 1781   9.261   3.536   7.259 -0.4373 -0.1111 -0.0628
 1582W        W 1782   5.079   6.107   5.268 -0.1233 -0.0813 -0.3511
 1583W        W 1783  13.834   7.030   5.004  0.0959  0.1594 -0.1823
 1584W        W 1784   1.453   7.947   1.686  0.1909  0.1443  0.0228
 1585W        W 1785   6.592  12.752   3.187 -0.3727 -0.0335  0.0025
 1586W        W 1786  11.910   7.451  10.969 -0.1997 -0.0505  0.0116
 1587W        W 1787   2.484   5.794   5.083 -0.0129 -0.0091  0.1734
 1588W        W 1788   0.209   1.220  10.957  0.0424  0.1727  0.0240
 1589W        W 1789   5.280   8.974   2.174 -0.0558 -0.0532  0.2640
 1590W        W 1790   6.575   1.783   4.086  0.0514 -0.1021 -0.1702
 1591W        W 1791   3.201  13.881   2.400  0.1359  0.0318  0.0354
 1592W        W 1792  13.257   1.045   9.902  0.2648  0.2733 -0.1008
 1593W        W 1793  12.678   3.799   1.951 -0.1014 -0.1282  0.0307
 1594W        W 1794   5.966  14.933   7.692  0.3626  0.1964  0.2615
 1595W        W 1795   3.524   0.838   8.088 -0.2620 -0.2080  0.2883
 1596W        W 1796  11.639   4.534   1.942 -0.1317  0.1519  0.1378
 1597W        W 1797   3.860   1.615  14.817  0.1350  0.2920  0.3170
 1598W        W 1798   3.424  13.622  12.461  0.0029 -0.1308  0.0480
 1599W        W 1799  13.494   3.029   8.257  0.1152  0.0243  0.0092
 1600W        W 1800   3.878   4.012  10.361  0.0689  0.3498  0.4301
 1601W        W 1801   5.553  14.045   6.715  0.1092  0.0780 -0.0959
 1602W        W 1802   6.557   4.580  12.748  0.0170 -0.1178  0.2238
 1603W        W 1803   3.170  10.113  11.211 -0.0420 -0.3453  0.0668
 1604W        W 1804  14.655   5.545  14.770  0.3566 -0.1535  0.0347
 1605W        W 1805  13.213   1.476  12.392 -0.0361 -0.1531 -0.1785
 1606W        W 1806   0.034   0.869  12.799  0.1676  0.0612  0.1533
 1607W        W 1807   4.613   0.778  14.894 -0.0491 -0.3259  0.1702
 1608W        W 1808   9.714   5.927   9.303 -0.1622 -0.0238 -0.0762
 1609W        W 1809   7.165   3.704   2.169  0.0594 -0.0112  0.0636
 1610W        W 1810   7.836  14.533   5.271  0.1482 -0.1633 -0.0227
 1611W        W 1811   5.480   6.844   0.357 -0.2282 -0.1371 -0.1913
 1612W        W 1812   1.332   8.758  13.905  0.3638 -0.2688  0.0489
 1613W        W 1813   5.115   8.195   8.679  0.0197  0.2943  0.1080
 1614W        W 1814  13.927  12.203  10.894  0.0124 -0.0922 -0.3059
 1615W        W 1815   6.002  10.634   6.709 -0.0329 -0.0957  0.0363
 1616W        W 1816   8.451   0.660  14.237  0.0760 -0.0343 -0.1065
 1617W        W 1817   6.607   2.763   4.826 -0.0468  0.0946 -0.0190
 1618W        W 1818  14.780   6.205   8.338  0.3305  0.2247  0.1612
 1619W        W 1819   0.487   1.192  12.687 -0.1390 -0.1091  0.1004
 1620W        W 1820  10.813   1.474  11.745  0.0389  0.0713  0.0606
 1621W        W 1821   2.064   4.419   9.575  0.0623  0.1968 -0.1907
 1622W        W 1822   4.375   6.573  11.470  0.1260  0.2124  0.2466
 1623W        W 1823   0.180   4.797   4.481  0.0193 -0.1102 -0.2380
 1624W        W 1824   6.937  13.943  10.430 -0.1163 -0.0181 -0.0728
 1625W        W 1825   5.490  14.038  10.650 -0.0407 -0.0432 -0.2119
 1626W        W 1826  14.051   3.810   8.357 -0.1160  0.2496  0.0088
 1627W        W 1827   9.781   0.292  14.627  0.0264 -0.0558 -0.1039
 1628W        W 1828   7.559   6.157  12.418 -0.2824  0.5829  0.0242
 1629W        W 1829  11.270   9.681  14.665  0.0805  0.1012  0.3270
 1630W        W 1830  14.667  15.155   6.849 -0.0016  0.3378 -0.1255
 1631W        W 1831   5.563   3.908  11.702  0.3870  0.0461 -0.1704
 1632W        W 1832   3.785   1.422   9.334 -0.1655 -0.0416 -0.0198
 1633W        W 1833   8.663   0.416   6.302  0.3250 -0.0148 -0.0227
 1634W        W 1834   9.492   5.631   4.102  0.2103 -0.3356  0.1885
 1635W        W 1835  15.180   3.592   0.983 -0.3003  0.0534  0.1782
 1636W        W 1836   6.316   0.213   9.629 -0.2898  0.0696  0.1775
 1637W        W 1837  10.856  14.650   7.710 -0.0949 -0.0322  0.0105
 1638W        W 1838   4.536  13.924   6.533  0.0741 -0.1954 -0.2846
 1639W        W 1839   7.571  13.113   5.308 -0.1726 -0.4687  0.0935
 1640W        W 1840   4.085  14.824  10.508 -0.1803  0.1900 -0.2103
 1641W        W 1841   4.190  13.661   6.806 -0.0690  0.2657 -0.1388
 1642W        W 1842   3.790   3.093   3.202  0.0241 -0.3268 -0.2123
 1643W        W 1843   8.273  14.211   2.524 -0.1280 -0.1640 -0.0237
 1644W        W 1844   5.254   5.044  10.461  0.0169  0.1433 -0.0470
 1645W        W 1845  13.753   3.886   4.409  0.4395  0.1331  0.2071
 1646W        W 1846   0.966  14.256   5.521 -0.2392  0.1229 -0.0018
 1647W        W 1847   4.051   4.644  11.672  0.0666 -0.0951 -0.1144
 1648W        W 1848  13.421   5.439   3.583 -0.1682  0.3159  0.1493
 1649W        W 1849  13.579   2.365  12.708  0.1214 -0.0888 -0.0207
 1650W        W 1850   4.730   4.939   4.551 -0.0433  0.1183 -0.1290
 1651W        W 1851   6.703   2.025   8.361  0.0614  0.0648 -0.1116
 1652W        W 1852   0.298  14.525  13.857 -0.0544  0.0707  0.2063
 1653W        W 1853  14.133   7.805   5.399 -0.0601  0.2030  0.0755
 1654W        W 1854   3.312   7.418  12.343  0.0816 -0.1549  0.5117
 1655W        W 1855  12.993  12.503   1.075  0.0613 -0.0502  0.0169
 1656W        W 1856   1.798   6.600  10.932  0.1312 -0.0036 -0.1108
 1657W        W 1857  11.225  15.166   4.300 -0.0249  0.1345 -0.0675
 1658W        W 1858  15.045  15.106   5.462 -0.0975 -0.1672  0.0739
 1659W        W 1859  13.998   2.969   9.799  0.0226 -0.0417 -0.1398
 1660W        W 1860   7.703  11.367  14.969  0.1413 -0.0608 -0.0399
 1661W        W 1861   6.267   8.814  14.589  0.1867 -0.1246  0.0848
 1662W        W 1862   6.761   7.095  11.964  0.2529  0.0611 -0.1387
 1663W        W 1863  14.155   1.921  12.274 -0.1305  0.3241  0.4246
 1664W        W 1864  13.289   4.730   4.258 -0.1489  0.2790 -0.2356
 1665W        W 1865   4.797   0.540   0.977 -0.0946  0.0542  0.0291
 1666W        W 1866   5.202  14.101  14.050  0.1977  0.0677  0.1573
 1667W        W 1867   0.183   4.540   3.354 -0.0652  0.0315 -0.0351
 1668W        W 1868  13.034   4.409   6.576 -0.1356  0.2533 -0.0649
 1669W        W 1869  14.324  10.786  10.600 -0.0172  0.1594 -0.0436
 1670W        W 1870   1.404   3.045   1.212 -0.2644  0.1567 -0.2520
 1671W        W 1871   0.852   3.638   8.496 -0.1356  0.2653 -0.0940
 1672W        W 1872   2.716   4.716  11.880  0.1357 -0.2430  0.1003
 1673W        W 1873   5.198   7.244   1.724  0.0816 -0.1264  0.1101
 1674W        W 1874   3.983   6.943   9.134 -0.1049  0.0622 -0.1712
 1675W        W 1875   4.407   4.390   8.773  0.0851  0.2484  0.0923
 1676W        W 1876   5.894   6.876   6.463 -0.2013 -0.2788  0.0295
 1677W        W 1877   4.693   7.352   1.810 -0.2148  0.2486 -0.2747
 1678W        W 1878   0.311   5.082   1.467 -0.1270 -0.1669  0.1965
 1679W        W 1879   4.318   4.484  12.937  0.2984  0.0419 -0.0659
 1680W        W 1880   5.810  14.761   5.983 -0.3494 -0.2956  0.3700
 1681W        W 1881   0.659   0.175   6.151 -0.2323  0.0160 -0.0745
 1682W        W 1882  13.574   4.015   7.683 -0.1393 -0.1352 -0.1403
 1683W        W 1883  13.248   9.296  12.910 -0.2642  0.2760 -0.0984
 1684W        W 1884   5.608   6.571   8.075 -0.1844 -0.1063 -0.2602
 1685W        W 1885  11.336   1.326  11.805 -0.0227 -0.1343 -0.0300
 1686W        W 1886  14.162  14.793   8.277  0.1557  0.1268  0.0334
 1687W        W 1887   2.000   5.152  11.320 -0.2416 -0.0350 -0.0712
 1688W        W 1888   5.596  14.317   2.616  0.0249 -0.0902  0.1860
 1689W        W 1889   2.845  11.739   6.145 -0.1134 -0.1361  0.0693
 1690W        W 1890  14.887   6.783  13.318 -0.0727 -0.1556 -0.0357
 1691W        W 1891   9.147   6.871   2.867 -0.1437  0.0377  0.2228
 1692W        W 1892   6.033   0.083  12.701 -0.0730  0.0506 -0.0149
 1693W        W 1893  11.607   5.130   0.418 -0.1273 -0.0041  0.2430
 1694W        W 1894  11.589   7.421   0.569 -0.3318  0.0698 -0.2438
 1695W        W 1895  13.792  10.075   7.269  0.1315  0.3935  0.0266
 1696W        W 1896   5.653   1.624   0.584 -0.1206 -0.0577 -0.0111
 1697W        W 1897   2.989   3.971  10.256 -0.0805 -0.1574  0.0802
 1698W        W 1898   1.874  11.468  12.640 -0.3553 -0.3690 -0.1496
 1699W        W 1899   7.196  13.424   1.478  0.1497  0.3010 -0.1307
 1700W        W 1900  14.479   7.759  12.968  0.1664  0.1373 -0.2242
 1701W        W 1901   2.681   7.609   0.893  0.0911 -0.2243 -0.3865
 1702W        W 1902   9.040   5.430   0.927  0.0481  0.0023  0.2215
 1703W        W 1903   6.832  12.284   2.098 -0.4123  0.2993 -0.0770
 1704W        W 1904  14.311  11.463   9.484 -0.1555  0.2068 -0.1124
 1705W        W 1905   8.433  13.962  10.932  0.0600  0.2355 -0.1942
 1706W        W 1906  11.004   2.432   3.561 -0.2808 -0.2834  0.0727
 1707W        W 1907  11.965   7.425   0.111  0.2514 -0.3414  0.2476
 1708W        W 1908   2.239   0.794   2.926  0.0297 -0.0713 -0.3477
 1709W        W 1909   6.935   9.303   2.421  0.0705 -0.1952 -0.2069
 1710W        W 1910   6.342  14.695  10.508  0.1917 -0.2768 -0.0848
 1711W        W 1911   0.511  10.893  15.103  0.1085  0.2609  0.3254
 1712W        W 1912   1.053   8.967  10.693  0.1127  0.1247  0.2390
 1713W        W 1913   0.712  10.457   3.399 -0.2871 -0.0524 -0.2342
 1714W        W 1914  13.977  13.756  13.764 -0.0215 -0.0706 -0.0684
 1715W        W 1915   7.121   1.932   1.755  0.0439  0.0073  0.1398
 1716W        W 1916   5.661   2.371  13.536 -0.1280 -0.1410  0.0371
 1717W        W 1917  14.115  11.272   2.948  0.0611  0.2626 -0.0495
 1718W        W 1918  12.774   1.557   6.716 -0.1761 -0.0438 -0.0088
 1719W        W 1919   2.592  12.799   5.282 -0.1184  0.0150 -0.1209
 1720W        W 1920  13.620  11.429   5.714  0.2753  0.3334 -0.2713
 1721W        W 1921   2.823  12.149  13.709 -0.2079  0.1992  0.0597
 1722W        W 1922  10.139   0.423   4.585  0.2908 -0.4671  0.0421
 1723W        W 1923   2.827   6.935   9.973  0.0525  0.1311  0.1775
 1724W        W 1924  14.202   8.363   0.688 -0.0372  0.1605 -0.0278
 1725W        W 1925   1.399   7.962  12.822 -0.0641 -0.3556  0.0744
 1726W        W 1926   0.134   1.278  12.321  0.1414  0.4928  0.0811
 1727W        W 1927  11.697  11.744   7.159  0.1204  0.0330 -0.1810
 1728W        W 1928   1.298   6.606  12.384 -0.3823 -0.2180  0.1425
 1729W        W 1929   6.402   6.002   3.714  0.3048 -0.2070  0.2064
 1730W        W 1930   6.058  14.294   9.717  0.0397  0.1309 -0.1693
 1731W        W 1931  12.200   8.594   8.130  0.2277  0.1234 -0.0364
 1732W        W 1932   1.927   6.964   3.678  0.2448  0.0809 -0.2001
 1733W        W 1933   7.406   5.510   5.134  0.0372  0.0937 -0.2492
 1734W        W 1934   1.678   2.388   3.297  0.1790  0.3660  0.1131
 1735W        W 1935  10.635  14.168   3.204  0.2105 -0.0336  0.3631
 1736W        W 1936   0.316   4.424  14.963 -0.0554  0.2302  0.1187
 1737W        W 1937   4.853  12.105  10.600 -0.1423  0.3035 -0.1449
 1738W        W 1938  10.576   2.980  10.211 -0.0135 -0.1850 -0.4648
 1739W        W 1939   0.234  14.113  15.077  0.0663  0.1246  0.0210
 1740W        W 1940  10.572   3.252   2.855  0.2587 -0.1690  0.1186
 1741W        W 1941  14.961   9.942  13.084  0.0380 -0.0223 -0.0652
 1742W        W 1942   1.834   1.592   7.436  0.0514 -0.1207  0.1147
 1743W        W 1943   6.153   9.457   1.181 -0.2001  0.1836 -0.1659
 1744W        W 1944   5.004  11.996   2.862  0.0675 -0.1822 -0.1531
 1745W        W 1945   3.909  14.851   4.041  0.0328 -0.0622  0.1486
 1746W        W 1946   3.363  10.732   3.075  0.1143  0.1437  0.0108
 1747W        W 1947  12.857   2.469   3.981 -0.1326  0.1718 -0.1121
 1748W        W 1948   2.494   9.470   3.225 -0.1538  0.1904  0.1698
 1749W        W 1949  13.208   7.808  11.414  0.0613  0.1497  0.0040
 1750W        W 1950  14.858  15.128  13.292 -0.0908 -0.2065 -0.1289
 1751W        W 1951   0.434   7.645   9.094 -0.2114  0.3214  0.0657
 1752W        W 1952   2.718   4.302   5.395  0.0269  0.1545 -0.2147
 1753W        W 1953   1.076   7.835   3.209  0.0494  0.0792  0.0215
 1754W        W 1954  13.438   1.166  10.340 -0.0824  0.1363 -0.2085
 1755W        W 1955   8.643   9.003  12.359 -0.0105  0.2009 -0.2451
 1756W        W 1956   0.871   1.361   7.363  0.1332 -0.2446 -0.2247
 1757W        W 1957   0.271   9.504   1.553  0.2215  0.3240 -0.1187
 1758W        W 1958  13.755   8.410   9.102  0.0070  0.1441  0.2130
 1759W        W 1959  12.104   7.287   0.738 -0.2136  0.0591  0.0903
 1760W        W 1960  14.427   1.508   7.226 -0.0614 -0.0971 -0.0033
 1761W        W 1961   5.051   5.806   2.970  0.1312 -0.0909 -0.1652
 1762W        W 1962  13.134   7.173   3.920  0.2714  0.1176  0.1325
 1763W        W 1963   6.850   4.975   6.749  0.0963  0.0077  0.5307
 1764W        W 1964   0.461   6.099   5.539 -0.3841  0.3061 -0.1401
 1765W        W 1965   0.561   1.419  14.957  0.1192 -0.1546  0.1528
 1766W        W 1966   1.636  11.004   3.912 -0.0143  0.0855 -0.3064
 1767W        W 1967  12.213   7.954  14.648  0.2823 -0.1782 -0.0444
 1768W        W 1968   7.670  13.576  15.135  0.2668  0.1531 -0.0539
 1769W        W 1969   0.662  12.339   1.247  0.0623 -0.1847 -0.0615
 1770W        W 1970  11.735   6.867  14.023 -0.4134 -0.1846  0.0910
 1771W        W 1971   0.089   6.475   5.487 -0.0633 -0.4132 -0.0346
 1772W        W 1972   2.363   2.180  12.745 -0.0327  0.0343 -0.0533
 1773W        W 1973  11.777   4.305   0.195  0.0194  0.2389  0.2576
 1774W        W 1974   5.124   7.989   0.367 -0.1873 -0.2113  0.0683
 1775W        W 1975   6.253  13.933   4.925  0.0057 -0.3133 -0.4470
 1776W        W 1976   4.774   1.655   1.568 -0.2285  0.0467 -0.2863
 1777W        W 1977   7.207   6.594   0.664  0.0014  0.0540 -0.1088
 1778W        W 1978   4.263  12.092   1.995  0.2708  0.1205  0.0545
 1779W        W 1979   2.778   6.656   4.142  0.0205 -0.0211 -0.1186
 1780W        W 1980  13.731   5.437  11.267 -0.3231 -0.2610 -0.0396
 1781W        W 1981   0.591   4.624   4.130  0.0850  0.4157 -0.1689
 1782W        W 1982   1.364   1.855  13.954  0.1387 -0.1277  0.1412
 1783W        W 1983   2.838   4.172   5.853 -0.1803 -0.1077 -0.0561
 1784W        W 1984   4.845   1.985  13.498 -0.2747  0.2659 -0.1185
 1785W        W 1985   7.498   7.359  13.361 -0.4467  0.0974  0.0475
 1786W        W 1986   9.287  14.289   6.542 -0.1129 -0.0155  0.0171
 1787W        W 1987   6.103   6.442   8.341 -0.3246  0.0480  0.0748
 1788W        W 1988  10.632   9.233   9.391  0.3260  0.0316  0.1059
 1789W        W 1989   8.794   3.245   9.140  0.0032  0.0149  0.0536
 1790W        W 1990  12.273   6.494   1.321 -0.1380 -0.2009 -0.1737
 1791W        W 1991   0.698   7.799   8.024 -0.0792 -0.1268 -0.2307
 1792W        W 1992   5.093  11.013   6.249 -0.1530 -0.0667  0.1497
 1793W        W 1993   8.347  14.665   5.481 -0.0095 -0.3088 -0.0860
 1794W        W 1994   0.661   9.474   4.427 -0.3038 -0.2531 -0.0267
 1795W        W 1995  12.231   3.152   0.113  0.3134 -0.1883  0.4252
 1796W        W 1996   6.099   3.803   5.397  0.0665  0.2303  0.1874
 1797W        W 1997   8.640   5.983  13.046  0.1035  0.2113 -0.1107
 1798W        W 1998  14.961   5.711  12.954  0.1005 -0.1309 -0.1046
 1799W        W 1999   1.872  11.124  13.943  0.0618 -0.2310  0.0377
 1800W        W 2000  13.827  15.047   6.086 -0.1610  0.0026 -0.2278
 1801W        W 2001   5.002   7.405   3.580 -0.1243  0.0858 -0.3600
 1802W        W 2002  11.094  12.550  10.503  0.3957 -0.1333 -0.0229
 1803W        W 2003   4.689   3.125  14.661  0.0733 -0.0299  0.0961
 1804W        W 2004   1.894   7.820  12.906 -0.3334 -0.1197  0.2699
 1805W        W 2005  12.139  10.376  11.023  0.0696 -0.1127  0.0115
 1806W        W 2006   9.032   0.502   7.173  0.0213 -0.0331 -0.1918
 1807W        W 2007   5.599   2.439   8.504  0.0624  0.0515  0.0232
 1808W        W 2008  12.441   5.857   4.531  0.0011 -0.1361  0.4417
 1809W        W 2009   2.631  10.349   3.036 -0.1395 -0.0976  0.1387
 1810W        W 2010   8.672   4.344   9.971 -0.2623 -0.0068  0.0522
 1811W        W 2011   8.907   6.120   6.792 -0.0186  0.1830  0.0283
 1812W        W 2012   2.044   3.746  14.893  0.0875  0.0355  0.0825
 1813W        W 2013   7.656   3.668   2.849 -0.1985  0.1262 -0.0549
 1814W        W 2014   1.592   8.715   9.884 -0.4186 -0.0483 -0.0928
 1815W        W 2015   9.036   2.793  10.095  0.0864  0.0848  0.1310
 1816W        W 2016   2.566  13.571   6.102 -0.0216 -0.1349 -0.1414
 1817W        W 2017  12.191  10.294   1.348  0.0312  0.1096 -0.1828
 1818W        W 2018  14.274  12.019   2.010  0.1160 -0.0737  0.1814
 1819W        W 2019   4.570  14.834  10.338 -0.1204  0.0997 -0.1502
 1820W        W 2020  13.364   7.506  14.414  0.2299 -0.0402  0.1101
 1821W        W 2021   2.534  12.060  13.254 -0.1274 -0.2201 -0.0465
 1822W        W 2022   7.845   4.367   3.657 -0.2828 -0.0291 -0.0893
 1823W        W 2023  11.248   3.834   9.710 -0.0117  0.3147 -0.1128
 1824W        W 2024  12.013   5.118  10.396 -0.1754 -0.3086  0.1133
 1825W        W 2025   0.050   0.792   2.840  0.1578  0.1540  0.0388
 1826W        W 2026   0.706   1.055   4.156  0.1953  0.0302  0.0194
 1827W        W 2027   5.341   4.491   0.865 -0.1039 -0.0608 -0.0671
 1828W        W 2028   8.824   9.309   1.280 -0.1833  0.0541  0.1798
 1829W        W 2029   1.524   2.615  12.641 -0.1524 -0.3883 -0.0020
 1830W        W 2030   1.364   6.156   8.693 -0.0848 -0.0854 -0.0545
 1831W        W 2031   0.887   5.825  10.608 -0.0822  0.3571  0.0457
 1832W        W 2032   1.857  13.551   7.357 -0.0692  0.0783 -0.0646
 1833W        W 2033   2.488   9.454   6.710 -0.3081  0.0585  0.1553
 1834W        W 2034  14.456  10.673   2.608  0.0237 -0.1617  0.6982
 1835W        W 2035   7.017   6.158  13.436 -0.0277 -0.0443  0.0570
 1836W        W 2036  14.374  12.756   4.018 -0.3654 -0.0041  0.2270
 1837W        W 2037  11.217   0.583   2.212 -0.1315  0.2540  0.0764
 1838W        W 2038   7.840   3.252  10.206  0.1484  0.0725  0.1952
 1839W        W 2039   8.115   8.581   1.980 -0.0354  0.0095 -0.2472
 1840W        W 2040  11.637  12.257   2.031  0.0955  0.0428 -0.1964
 1841W        W 2041   2.303   0.641  14.013 -0.0591  0.2518 -0.1554
 1842W        W 2042  13.252  14.633   2.712 -0.1374  0.0013  0.1457
 1843W        W 2043   6.029   7.407  13.237 -0.1552  0.1433 -0.0951
 1844W        W 2044   4.099   7.813   3.696 -0.0979 -0.1671 -0.1049
 1845W        W 2045   5.908   1.438  14.627 -0.1550  0.0776 -0.0334
 1846W        W 2046  11.931   4.929   9.157  0.2136  0.1858 -0.1456
 1847W        W 2047   6.262   3.491   6.431  0.0205 -0.3312 -0.0769
 1848W        W 2048   0.597   4.457   5.248 -0.3408  0.0186  0.2227
 1849W        W 2049  11.667   4.828   3.114 -0.2987 -0.3612 -0.0560
 1850W        W 2050   8.967   8.797   1.272 -0.0688  0.1637  0.1592
 1851W        W 2051   9.298   6.797   1.862 -0.2541 -0.1274 -0.1305
 1852W        W 2052   1.268   5.926   9.209 -0.1980 -0.1151  0.0564
 1853W        W 2053   6.264  11.653   2.661 -0.2753 -0.0855  0.1431
 1854W        W 2054   0.745  11.664   0.020  0.1504 -0.1459  0.1434
 1855W        W 2055  13.815   3.163   1.006 -0.0331 -0.0033  0.1573
 1856W        W 2056   4.196   7.562   4.432 -0.3102 -0.2283 -0.3590
 1857W        W 2057   4.364   7.356   9.096 -0.1159  0.1272  0.1660
 1858W        W 2058   9.619   3.388   9.016 -0.2844  0.2671 -0.0116
 1859W        W 2059   3.984  11.105  15.068  0.1880 -0.0004 -0.1904
 1860W        W 2060   9.279  11.067   1.019  0.3329  0.3276  0.2160
 1861W        W 2061   6.659  11.736  12.385 -0.3074  0.0299  0.1392
 1862W        W 2062  13.660   0.497  11.051  0.0925 -0.0677 -0.0995
 1863W        W 2063   5.529   5.512  13.248  0.2029 -0.1911 -0.0664
 1864W        W 2064   0.916   1.314   7.865 -0.1586 -0.1120 -0.2534
 1865W        W 2065   2.008   9.710   4.250  0.3283 -0.0853  0.0276
 1866W        W 2066   2.642   3.338   8.418  0.1432 -0.0765  0.2386
 1867W        W 2067  11.197   2.622  13.149  0.0571  0.0934 -0.1207
 1868W        W 2068  13.302   6.631  12.075 -0.3496  0.0882  0.1001
 1869W        W 2069   2.104  11.464   3.717  0.2454  0.1401 -0.3902
 1870W        W 2070   6.380  11.622   1.517  0.1654  0.2771 -0.2187
 1871W        W 2071   1.993   7.217   5.586  0.0782  0.0480  0.3244
 1872W        W 2072   5.084   0.814   7.261  0.0250 -0.2525  0.0339
 1873W        W 2073   1.678   5.889  13.161  0.0526  0.1498  0.0470
 1874W        W 2074   3.037   6.939  14.140 -0.1373  0.1080 -0.2810
 1875W        W 2075   3.563   8.870   2.405  0.1384 -0.2127 -0.2006
 1876W        W 2076   4.835   7.980   5.490  0.0151 -0.0076  0.0533
 1877W        W 2077   0.671   2.389   3.666  0.1794 -0.0593 -0.0067
 1878W        W 2078  11.194  12.771   3.819 -0.0380  0.0244 -0.0970
 1879W        W 2079  14.935   6.340   9.203  0.0464 -0.0019 -0.1572
 1880W        W 2080   4.640   5.594  10.623  0.2101 -0.2329 -0.0214
 1881W        W 2081   6.865   3.271   2.181 -0.2324 -0.0194 -0.0893
 1882W        W 2082   6.943   7.504   9.616 -0.0489  0.1740 -0.1945
 1883W        W 2083   5.648   6.923  15.097  0.1960  0.1699  0.0341
 1884W        W 2084   2.096  10.229  14.384  0.4825 -0.1411  0.0697
 1885W        W 2085   2.508  10.701   9.528  0.1918  0.0109 -0.1395
 1886W        W 2086   4.096   8.594  11.065 -0.0881 -0.1253  0.2706
 1887W        W 2087   2.871  10.774   3.049  0.0841 -0.3532 -0.4555
 1888W        W 2088   0.511   5.417   1.750  0.0934 -0.2972 -0.0883
 1889W        W 2089   7.367   8.700   3.814 -0.0643  0.1311 -0.2319
 1890W        W 2090   7.092  10.087   1.951  0.1599 -0.0019  0.0752
 1891W        W 2091   6.037   5.111   6.689 -0.1637 -0.3340  0.2980
 1892W        W 2092   2.363   1.490  14.305  0.0563 -0.3204 -0.2696
 1893W        W 2093   3.443   7.495  10.774  0.2047  0.0533 -0.0325
 1894W        W 2094  12.441   6.238   2.586  0.0968 -0.0385  0.0602
 1895W        W 2095   1.723  12.418   9.876  0.0833  0.1996 -0.1822
 1896W        W 2096   6.072   8.735  12.672  0.0776  0.2131  0.0569
 1897W        W 2097   5.911   5.803   3.367  0.1628  0.3041  0.1243
 1898W        W 2098  13.893   7.657  14.746 -0.0076 -0.0065  0.0179
 1899W        W 2099  13.150   0.011   1.467 -0.1008  0.2341 -0.6013
 1900W        W 2100   1.370   6.345   3.841  0.0946  0.0352  0.0786
 1901W        W 2101   4.197   4.384   1.461  0.0411  0.1685  0.1712
 1902W        W 2102   0.872  12.795   8.964 -0.1994  0.1103 -0.1371
 1903W        W 2103   3.870   4.844  14.892  0.0200 -0.0702  0.4836
 1904W        W 2104   0.748  11.644  11.297 -0.0728 -0.1648 -0.2513
 1905W        W 2105   6.807   3.686   3.798 -0.0051 -0.1163 -0.1860
 1906W        W 2106  12.611   7.425  15.124  0.0277 -0.2372 -0.0478
 1907W        W 2107  11.042   6.529  14.260 -0.2548  0.0806 -0.0251
 1908W        W 2108  14.569   7.574   3.627  0.3058 -0.1469 -0.3303
 1909W        W 2109   4.511   4.579  10.938 -0.3044 -0.2354 -0.2139
 1910W        W 2110  13.032   9.098   8.039  0.3146 -0.0213 -0.2359
 1911W        W 2111   2.365  14.830   3.982 -0.1192  0.0728  0.0125
 1912W        W 2112   3.315   2.502  11.955  0.3926 -0.0553 -0.1062
 1913W        W 2113   4.710   7.146  15.122  0.1424 -0.0506 -0.3217
 1914W        W 2114   3.494   8.678   1.906  0.0853  0.3474  0.2370
 1915W        W 2115  13.835   5.846  11.001 -0.1044  0.2306  0.0917
 1916W        W 2116   4.027  11.398   3.962  0.0681  0.0395  0.4145
 1917W        W 2117   3.911   9.870  14.166 -0.0140 -0.1511  0.2148
 1918W        W 2118   1.444   7.812  14.136 -0.0514 -0.0662  0.2120
 1919W        W 2119   4.051  12.041  12.252  0.0082 -0.4626  0.0991
 1920W        W 2120  11.263   5.991   9.805  0.1865  0.1000 -0.0756
 1921W        W 2121  12.895  14.589   0.074 -0.6117 -0.1709 -0.1098
 1922W        W 2122  10.220  15.080   2.945  0.0723 -0.1546 -0.0837
 1923W        W 2123   0.145   2.117  11.573 -0.1876  0.0983  0.3502
 1924W        W 2124   4.069  10.560   2.883 -0.2615 -0.3224 -0.2036
 1925W        W 2125   2.197   1.856   2.873 -0.0280 -0.0008 -0.0702
 1926W        W 2126   0.599   5.532   0.047  0.1525 -0.1841 -0.0298
 1927W        W 2127  10.178   3.973   8.136 -0.0220  0.2654  0.0293
 1928W        W 2128   6.624   2.656  14.239 -0.0512  0.1652  0.1224
 1929W        W 2129  11.970   7.619  14.368 -0.1516 -0.1283  0.0003
 1930W        W 2130  12.434   6.400   8.525 -0.3724 -0.1103 -0.2737
 1931W        W 2131   3.125   2.665  12.988  0.1145  0.3367  0.3548
 1932W        W 2132  10.493   6.398   8.891 -0.0275 -0.0751  0.1075
 1933W        W 2133   7.234   7.354  10.489  0.1536 -0.0459  0.0089
 1934W        W 2134   0.346   7.839  13.904 -0.1614 -0.0389 -0.0171
 1935W        W 2135   3.287   7.863  12.634  0.4405 -0.2638  0.0097
 1936W        W 2136   0.500   5.039   9.986  0.1800 -0.2932 -0.1290
 1937W        W 2137   3.304   3.303  12.262  0.0818  0.1630 -0.3249
 1938W        W 2138   4.457   6.346  14.136 -0.1405 -0.0086  0.0537
 1939W        W 2139  15.113   8.183  15.161  0.2298 -0.0075  0.0294
 1940W        W 2140   5.034   7.978   6.243  0.0642 -0.1315  0.3893
 1941W        W 2141   4.664   6.997   8.966  0.2637  0.0118  0.1201
 1942W        W 2142   0.075  12.316   3.918  0.0278 -0.0607  0.2551
 1943W        W 2143  13.233   0.103   0.937 -0.1458 -0.1043  0.0102
 1944W        W 2144  12.336   5.623   6.526 -0.1179 -0.1652 -0.1894
 1945W        W 2145   2.261   8.711  11.083 -0.2201 -0.0560 -0.3869
 1946W        W 2146  10.982   8.159   9.394 -0.1130 -0.0262  0.1627
 1947W        W 2147   2.692   3.524  14.802 -0.2538 -0.3324 -0.0982
 1948W        W 2148   1.539   5.796   3.262 -0.0073  0.2422 -0.0173
 1949W        W 2149   6.379   4.781   6.785  0.0876  0.0393 -0.1420
 1950W        W 2150   4.641   8.728   3.381 -0.0864 -0.2006  0.3305
 1951W        W 2151   1.884   3.011   2.102 -0.0612  0.2616 -0.2494
 1952W        W 2152  14.904   0.935   4.599  0.3572 -0.2112  0.2217
 1953W        W 2153   6.998  14.586   4.735  0.1061  0.0884 -0.2039
 1954W        W 2154  14.145   8.320   5.583 -0.0172  0.3943 -0.1088
 1955W        W 2155   0.500  11.889   6.625  0.0112 -0.1909 -0.1403
 1956W        W 2156  13.607   1.776   3.683 -0.0731  0.1447 -0.2189
 1957W        W 2157  10.650   6.238   2.045 -0.1087 -0.0621  0.2083
 1958W        W 2158  10.517   3.693  10.118 -0.3742 -0.0907 -0.1275
 1959W        W 2159  15.171   3.596  11.482  0.1702  0.1225 -0.1189
 1960W        W 2160  11.689   6.811   6.412  0.1562 -0.3460  0.4101
 1961W        W 2161   1.573   2.813  13.572  0.2971 -0.0428  0.0748
 1962W        W 2162   6.348   7.039   0.801  0.2433  0.1077 -0.0272
 1963W        W 2163   5.564  12.558  10.965  0.1413 -0.0423 -0.0240
 1964W        W 2164  13.903   8.205   1.420 -0.1110  0.2157 -0.0117
 1965W        W 2165   4.569   4.938   1.476  0.0596 -0.1290 -0.0519
 1966W        W 2166   1.362  15.079   4.058 -0.0843  0.3225  0.3415
 1967W        W 2167  13.431  10.458  14.430 -0.1163 -0.0862  0.3830
 1968W        W 2168  13.250   9.484   7.607  0.0323  0.0025  0.0615
 1969W        W 2169   0.487   1.616   4.897 -0.4198 -0.0638 -0.3703
 1970W        W 2170   2.996  13.134   5.407  0.1360  0.0171  0.0733
 1971W        W 2171  10.092  10.982   9.384 -0.1725 -0.0538  0.0004
 1972W        W 2172   5.513   2.165  11.743 -0.0963  0.2842 -0.1922
 1973W        W 2173  15.173   2.266   4.218  0.3251  0.2557  0.0606
 1974W        W 2174  12.132  11.342   8.442  0.0286 -0.1643 -0.2562
 1975W        W 2175   3.679   0.659  14.694  0.1796 -0.2157  0.0427
 1976W        W 2176   8.257   1.912   9.332  0.1481 -0.0275  0.0959
 1977W        W 2177  13.401  10.271   0.829 -0.2355  0.0493  0.0023
 1978W        W 2178  12.534   2.453   5.646 -0.2732  0.1470  0.4309
 1979W        W 2179   7.622   7.785  14.692  0.0798 -0.0010 -0.1140
 1980W        W 2180   8.858   5.758  14.172 -0.0824  0.0584 -0.3139
 1981W        W 2181   0.700   6.864  10.593  0.1926 -0.3417  0.2796
 1982W        W 2182  14.554   4.670   2.558 -0.3881 -0.5287  0.0893
 1983W        W 2183  12.758   1.114  13.006 -0.1549 -0.1037 -0.0613
 1984W        W 2184   0.492   4.676  13.748  0.0747 -0.1570  0.2502
 1985W        W 2185   5.591   4.736   5.066  0.0602  0.0053 -0.0447
 1986W        W 2186   5.748   1.878  14.474  0.1846  0.3711 -0.1842
 1987W        W 2187   3.448   3.261   7.989 -0.0451  0.0852  0.0423
 1988W        W 2188  10.981   8.454   0.689 -0.0607  0.2290  0.0746
 1989W        W 2189   0.318   9.883   0.427  0.0359  0.3664  0.1658
 1990W        W 2190   4.124  12.294  11.073  0.3043 -0.1823 -0.0567
 1991W        W 2191   2.736   6.362  12.494  0.1828 -0.0850  0.0620
 1992W        W 2192  12.852  13.534   3.803 -0.2265  0.3430  0.3037
 1993W        W 2193   3.977   2.791   3.536  0.2008  0.1970  0.3279
 1994W        W 2194  13.330  11.680   1.877  0.3447  0.3573  0.2784
 1995W        W 2195  13.722  14.108   9.738  0.0365  0.1734 -0.3087
 1996W        W 2196  13.526   7.890   4.872 -0.0688  0.2771  0.0090
 1997W        W 2197  14.957   8.523   0.757  0.1893  0.0312  0.1170
 1998W        W 2198  12.940   3.348   9.707 -0.0110 -0.0743  0.2078
 1999W        W 2199   5.882   8.203   2.193  0.0109 -0.0284  0.2035
 2000W        W 2200  11.882   8.813   3.432  0.0153  0.2328  0.1609
 2001W        W 2201   9.235  10.212   6.269  0.1299 -0.0603  0.1590
 2002W        W 2202   2.862   1.277  10.969 -0.3421  0.0977 -0.1337
 2003W        W 2203   8.519  15.059  11.021  0.0238 -0.0645  0.1949
 2004W        W 2204   7.817   6.939   9.848 -0.0049 -0.2182 -0.0520
 2005W        W 2205   6.063   2.910   3.380 -0.1387 -0.0201  0.1603
 2006W        W 2206   0.442   7.784   5.847 -0.3286  0.0456 -0.0528
 2007W        W 2207   4.574   1.892   8.568 -0.2140  0.1323 -0.3756
 2008W        W 2208   4.767   3.016   0.504 -0.0326 -0.0503  0.0129
 2009W        W 2209   1.102   8.655   5.184 -0.1541  0.1277 -0.0888
 2010W        W 2210  12.560  14.890   3.955  0.0381  0.2464  0.1351
 2011W        W 2211   2.512  11.213   5.467  0.2555  0.0629 -0.0980
 2012W        W 2212   3.983   1.447   2.468 -0.0828  0.1230  0.0879
 2013W        W 2213  13.546  13.539   5.386  0.1966 -0.1971 -0.3488
 2014W        W 2214  14.412   6.239   5.553  0.0459  0.1285  0.1885
 2015W        W 2215   8.253   6.494   5.897  0.1986  0.1671 -0.0306
 2016W        W 2216   5.009   6.882   0.470 -0.0176 -0.2509  0.4028
 2017W        W 2217   2.571   7.575   4.165 -0.0983  0.2720 -0.3024
 2018W        W 2218   7.151   5.166  11.906  0.3032  0.0719  0.3206
 2019W        W 2219   2.657   8.892  15.022  0.2573 -0.1507  0.0281
 2020W        W 2220  10.166   3.171  14.065 -0.0456 -0.4014  0.0524
 2021W        W 2221   9.025  14.817  14.031 -0.2620  0.1220  0.2194
 2022W        W 2222   1.601   7.275   3.976 -0.1912  0.3788 -0.2023
 2023W        W 2223   5.566   5.256   7.505 -0.1305 -0.1309 -0.0231
 2024W        W 2224  12.726   2.817  11.785  0.1614 -0.0259 -0.1874
 2025W        W 2225  13.720   5.750   4.874 -0.0488  0.1596  0.0041
 2026W        W 2226   2.924  10.415   6.099  0.0712  0.0769 -0.0431
 2027W        W 2227   8.546  13.415   8.724 -0.1054  0.1299 -0.0322
 2028W        W 2228   3.739   4.407   6.503 -0.1897  0.1930  0.1092
 2029W        W 2229   7.595  10.898  14.804 -0.3633 -0.0403  0.0401
 2030W        W 2230  13.516  10.040  11.071 -0.0158 -0.0203  0.0893
 2031W        W 2231  13.928   5.671   6.858  0.2316 -0.3571  0.1818
 2032W        W 2232   6.550   8.863   7.038  0.1858 -0.1504  0.2955
 2033W        W 2233   6.126   8.220   6.608 -0.1458  0.1640  0.2729
 2034W        W 2234  11.269   1.333  14.539  0.2503 -0.2751  0.0070
 2035W        W 2235   4.612  13.998   8.974  0.4149  0.1580 -0.1063
 2036W        W 2236   4.933   6.182   1.888  0.3104 -0.0612 -0.2536
 2037W        W 2237   6.315   8.146   1.883 -0.1708 -0.2467 -0.2482
 2038W        W 2238  10.546   3.194   8.784 -0.2651 -0.1012  0.1477
 2039W        W 2239   7.694   5.880  10.233  0.2137  0.1313 -0.1274
 2040W        W 2240   7.396   3.382   7.111  0.3095 -0.0913 -0.1276
 2041W        W 2241   6.853   7.368   3.319  0.0746 -0.0371 -0.3026
 2042W        W 2242   0.189  13.612   0.029 -0.0756 -0.0654  0.2268
 2043W        W 2243  13.324  12.658   5.465  0.3086 -0.1140  0.2887
 2044W        W 2244   1.428   2.991  15.013 -0.2365 -0.3763 -0.0260
 2045W        W 2245   6.573   4.860   9.536 -0.1244 -0.3439  0.1736
 2046W        W 2246   8.071   6.681   6.323  0.2366  0.0581  0.0824
 2047W        W 2247   4.562   3.421   8.767  0.1939 -0.0973  0.1024
 2048W        W 2248   2.810   0.908   1.716 -0.1514  0.1543 -0.0757
 2049W        W 2249  13.508   7.145   7.681 -0.0656  0.1761 -0.2180
 2050W        W 2250  14.783   8.210  10.814 -0.1554  0.0290  0.5025
 2051W        W 2251   4.228   5.280  10.662 -0.1637 -0.1390  0.0431
 2052W        W 2252   8.116   0.050  14.211  0.2190  0.2595 -0.0153
 2053W        W 2253   0.541   6.008  10.273  0.1391  0.0041  0.1764
 2054W        W 2254   6.185   5.499   6.202  0.1966 -0.1791  0.0785
 2055W        W 2255  10.492   3.346  15.070 -0.3349 -0.0416  0.2787
 2056W        W 2256   8.377   3.804   1.591  0.0239  0.0939  0.1812
 2057W        W 2257   9.210   6.900  10.246  0.1125  0.1367 -0.3634
 2058W        W 2258   4.421   8.118   5.266 -0.3272 -0.0620  0.0605
 2059W        W 2259   2.411   4.333   6.371 -0.0080 -0.0321  0.0190
 2060W        W 2260  14.462   7.189  13.123  0.2040  0.1035  0.1212
 2061W        W 2261   0.087   5.151   7.238  0.0353  0.0445 -0.0490
 2062W        W 2262   7.636   5.840   6.537  0.0842  0.2324  0.2364
 2063W        W 2263  10.321   9.555   1.521 -0.2058 -0.1841  0.0394
 2064W        W 2264  14.045   4.995  15.106  0.0176  0.1006 -0.0686
 2065W        W 2265   2.444   3.119   5.269 -0.3424 -0.0535 -0.1549
 2066W        W 2266   6.491   3.555   0.526 -0.2060 -0.4574  0.1946
 2067W        W 2267   9.856  13.717  12.379 -0.0480  0.0051 -0.0035
 2068W        W 2268  12.291   4.829  14.226 -0.0033 -0.0393 -0.3056
 2069W        W 2269  10.421  10.598   3.741  0.1382 -0.2213  0.2420
 2070W        W 2270   2.556  13.669  12.963 -0.1413  0.1554 -0.0774
 2071W        W 2271   3.092   3.511  11.701  0.0497  0.0433  0.0608
 2072W        W 2272   2.873   6.508   3.569 -0.1293 -0.1815 -0.2213
 2073W        W 2273   1.639   4.040  14.798 -0.2162  0.1273 -0.1497
 2074W        W 2274  15.178  12.515   3.461 -0.2708 -0.3921 -0.1842
 2075W        W 2275  13.221   6.292  11.700 -0.0209 -0.0189 -0.5511
 2076W        W 2276  13.323   2.555   6.309 -0.1523  0.3345  0.0377
 2077W        W 2277   6.559  10.233   7.097  0.1786  0.1790 -0.0105
 2078W        W 2278   2.243   8.523   5.164 -0.0626  0.1675 -0.2118
 2079W        W 2279  14.823   7.824  13.316  0.0364  0.2024 -0.0795
 2080W        W 2280   1.309   4.544   3.149 -0.0778 -0.1882 -0.1025
 2081W        W 2281  10.430   5.726   3.045  0.1275 -0.0167  0.1278
 2082W        W 2282   4.204   2.925  14.725 -0.2040  0.0939 -0.1453
 2083W        W 2283   2.043   2.290   0.820  0.0989  0.3434  0.2018
 2084W        W 2284   5.132   9.097   7.843 -0.1858 -0.1543 -0.0570
 2085W        W 2285   1.474  11.507   0.573  0.0961  0.0705  0.1155
 2086W        W 2286   0.072   0.221   4.630 -0.3463  0.1467 -0.0149
 2087W        W 2287   7.087   7.518   6.822  0.2732 -0.0503  0.0910
 2088W        W 2288  14.730   0.266  12.915 -0.0831 -0.0236 -0.2478
 2089W        W 2289   0.987   7.056  12.567 -0.1479  0.3416  0.0245
 2090W        W 2290   5.920   6.719   3.860 -0.0345  0.1192 -0.0225
 2091W        W 2291   3.309   9.404  11.859 -0.1230  0.0380  0.2304
 2092W        W 2292  13.268   7.923   7.901  0.0646  0.1801 -0.0149
 2093W        W 2293  12.221  11.415  13.306  0.0504 -0.1400  0.1239
 2094W        W 2294   4.820   0.282   1.843  0.0930 -0.1184 -0.1246
 2095W        W 2295   4.352   9.411   7.664  0.1648 -0.4118 -0.2061
 2096W        W 2296  12.702  14.752   3.513 -0.1468  0.4421 -0.0522
 2097W        W 2297  12.017   8.193  14.175 -0.0264 -0.0624 -0.0884
 2098W        W 2298   2.010   8.579   4.210 -0.0435 -0.0543  0.0915
 2099W        W 2299  12.183   9.210   4.841 -0.2071 -0.0498 -0.1025
 2100W        W 2300  11.993   8.821   6.239 -0.2403  0.0496  0.0393
 2101W        W 2301   6.173  14.511   7.461 -0.2041 -0.3930  0.1902
 2102W        W 2302  11.111   5.230   2.155 -0.2743 -0.0076  0.1493
 2103W        W 2303   0.695   8.364   8.221 -0.2322 -0.1789  0.0951
 2104W        W 2304   1.501   8.759   7.136 -0.3594 -0.2777 -0.0702
 2105W        W 2305  12.628   6.130  12.501  0.1110  0.0219  0.0199
 2106W        W 2306   0.129   9.025   9.892  0.0863 -0.1897  0.0632
 2107W        W 2307  15.161   6.497   2.856 -0.1581  0.0204 -0.0523
 2108W        W 2308  12.871   2.324  12.205  0.1161 -0.2835 -0.2183
 2109W        W 2309  13.289   2.838  11.069  0.1025  0.3027  0.4504
 2110W        W 2310   4.708   9.439  10.761  0.0317 -0.0905 -0.0497
 2111W        W 2311   4.666   9.169  13.967 -0.0744  0.0403  0.4419
 2112W        W 2312  14.351  11.813   9.906 -0.0123  0.0067  0.1112
 2113W        W 2313  12.062   0.520   7.516 -0.2177 -0.1144 -0.0011
 2114W        W 2314   6.138   2.265   9.278 -0.3209 -0.1095 -0.0536
 2115W        W 2315   7.318   8.094   6.320  0.3588 -0.3999 -0.3441
 2116W        W 2316  12.797   9.199  13.552  0.2334  0.1568 -0.2908
 2117W        W 2317   4.067   6.840   6.680  0.0092  0.0139 -0.2422
 2118W        W 2318  14.768  14.190   9.082  0.2386 -0.0293 -0.1190
 2119W        W 2319   8.054   9.925   7.071 -0.0269 -0.0083 -0.0362
 2120W        W 2320   2.058  12.421   4.967 -0.1831  0.0364  0.0562
 2121W        W 2321  14.539   2.868   7.914  0.2250 -0.1321 -0.0243
 2122W        W 2322   3.759   9.459   8.925 -0.1067 -0.1129 -0.0479
 2123W        W 2323  13.188   9.965  13.466  0.1726 -0.0022 -0.2395
 2124W        W 2324   6.810   5.810   2.305 -0.0803  0.0741  0.1686
 2125W        W 2325   0.538   9.413   5.291  0.0772 -0.0451  0.1177
 2126W        W 2326  13.186   1.344   8.590  0.1589 -0.2509  0.1052
 2127W        W 2327  14.033   6.751  10.891  0.1357 -0.0455  0.1725
 2128W        W 2328  14.301  14.487   9.095 -0.4001 -0.1852  0.0535
 2129W        W 2329   1.592  12.522   3.805 -0.2033 -0.1519  0.1688
 2130W        W 2330  14.238   5.617   5.679 -0.1556  0.2158  0.3444
 2131W        W 2331   8.602   1.939   0.122  0.4199  0.0349  0.3186
 2132W        W 2332   9.349  11.356  12.329 -0.0261  0.1395 -0.0005
 2133W        W 2333   6.345  12.511  13.023 -0.0265 -0.0271 -0.1347
 2134W        W 2334   2.122   4.878   3.042 -0.0984  0.0534  0.2804
 2135W        W 2335   0.410   1.204   7.085 -0.0213 -0.0250 -0.0461
 2136W        W 2336  11.899   3.648   4.346  0.3894 -0.2969  0.0343
 2137W        W 2337  11.965   6.819   8.523 -0.1177  0.0367 -0.2049
 2138W        W 2338   4.458   8.845   8.494 -0.0386  0.0305  0.0075
 2139W        W 2339  11.845   1.074   7.963 -0.2528  0.1410  0.1079
 2140W        W 2340  13.332   6.964   9.852  0.1373  0.0913  0.0791
 2141W        W 2341   0.662   6.671   4.441  0.1044 -0.0753 -0.2747
 2142W        W 2342   2.288   3.266   7.171 -0.4243  0.1469  0.0569
 2143W        W 2343   5.093   3.035   4.650 -0.1540  0.2660 -0.0023
 2144W        W 2344   8.723  10.190   2.687 -0.1388  0.0408  0.2516
 2145W        W 2345   1.045   6.145  12.487  0.2813  0.0346 -0.3869
 2146W        W 2346  11.936   4.473  13.293 -0.0386 -0.0611  0.0552
 2147W        W 2347   6.811   6.912   3.542 -0.1021 -0.1524 -0.1013
 2148W        W 2348  13.158  12.763   6.318 -0.1066  0.4208  0.2018
 2149W        W 2349   1.169   8.312  12.579  0.1491  0.2882  0.1394
 2150W        W 2350   2.459   8.314   3.954 -0.3141 -0.0578  0.1839
 2151W        W 2351   4.410  11.327   1.914 -0.2254  0.0950  0.0501
 2152W        W 2352   9.534   7.091   8.585 -0.0652  0.0011  0.2580
 2153W        W 2353   2.405   1.122   5.927  0.0908  0.1423 -0.1754
 2154W        W 2354   5.911   2.335   1.069 -0.1034 -0.2931  0.1990
 2155W        W 2355   1.506   1.390   9.496  0.0673 -0.0653 -0.0214
 2156W        W 2356   2.286   4.978   8.140  0.2200 -0.1993  0.1873
 2157W        W 2357  14.771   1.742   5.137  0.4151 -0.2259  0.1310
 2158W        W 2358   3.226   2.710   2.715  0.2561 -0.1590  0.0956
 2159W        W 2359   5.997   3.064   7.328  0.1202  0.0316 -0.0623
 2160W        W 2360   0.785  10.263   0.325  0.0935 -0.0147  0.4505
 2161W        W 2361  15.122  13.048   3.382 -0.0397 -0.0383 -0.0367
 2162W        W 2362   6.775   0.419   3.443  0.3239  0.0463  0.0950
 2163W        W 2363   1.294  12.792   9.576  0.5195 -0.4026 -0.0102
 2164W        W 2364   8.534   5.216   5.117 -0.2204 -0.0735  0.0222
 2165W        W 2365   5.639   5.274   4.137  0.0579  0.2400 -0.1106
 2166W        W 2366   1.230  13.730   2.116 -0.2117 -0.0560  0.4171
 2167W        W 2367  12.131   6.178   4.750  0.0476 -0.2152  0.0504
 2168W        W 2368   2.039  12.863   6.853  0.0338 -0.2414  0.3513
 2169W        W 2369   8.399   6.966   9.698 -0.2663 -0.0367  0.0550
 2170W        W 2370  10.174   6.833   8.038 -0.1515  0.1475  0.1389
 2171W        W 2371   3.249   4.336   5.563  0.0133 -0.2616  0.1129
 2172W        W 2372  12.873  13.245  10.624 -0.2209 -0.1772  0.0233
 2173W        W 2373   6.567   4.389   8.264  0.2775 -0.1242 -0.1043
 2174W        W 2374   3.481   9.032   5.948 -0.1975  0.2780  0.3097
 2175W        W 2375   7.398   8.783  11.670 -0.0977  0.2049  0.1182
 2176W        W 2376  13.087  11.581   7.797 -0.2330  0.0825 -0.0271
 2177W        W 2377   2.727  15.186   9.348 -0.0394  0.2707 -0.1526
 2178W        W 2378  10.643   6.407  14.655 -0.2028  0.2329  0.1073
 2179W        W 2379  10.819   4.932   4.740  0.1701 -0.0801  0.2561
 2180W        W 2380   1.717  11.748   9.471 -0.1902 -0.0380 -0.2429
 2181W        W 2381  15.125   8.944   5.664  0.1174 -0.0105 -0.1818
 2182W        W 2382   4.670   3.690  10.565  0.2290 -0.1943 -0.0292
 2183W        W 2383  11.028  13.735   0.943 -0.0560 -0.1196  0.0339
 2184W        W 2384   1.568  10.210   5.941 -0.1813 -0.1008  0.0443
 2185W        W 2385  10.347   5.957   4.402  0.1916 -0.1864  0.2326
 2186W        W 2386  14.282  14.124   7.070 -0.0048  0.1303 -0.2906
 2187W        W 2387  12.342   2.268  11.302 -0.1738  0.1761  0.0390
 2188W        W 2388   6.652   5.724   7.081 -0.2012  0.0427 -0.0813
 2189W        W 2389   7.082   6.050   9.121  0.0740  0.2143  0.1089
 2190W        W 2390   5.448  10.623   3.860  0.0869 -0.0645  0.1797
 2191W        W 2391   6.739   6.822   4.062  0.1052  0.2319  0.2103
 2192W        W 2392   6.378   2.045   5.565 -0.1297 -0.1269  0.2009
 2193W        W 2393   4.390  10.428  13.521 -0.1600 -0.0884  0.0271
 2194W        W 2394   4.476  10.731   5.202 -0.1468 -0.1108 -0.0174
 2195W        W 2395   5.216  14.100  11.129  0.2121 -0.0104  0.0590
 2196W        W 2396  10.827   0.144   5.691 -0.2790 -0.1115  0.1064
 2197W        W 2397  15.083  11.478   5.469 -0.1563 -0.1143  0.0222
 2198W        W 2398   4.448   5.989   0.879  0.0870 -0.2852 -0.1283
 2199W        W 2399   1.311   4.102  10.441  0.0776  0.1870 -0.0610
 2200W        W 2400  12.085   7.895   4.811  0.0390 -0.2508 -0.0968
 2201W        W 2401   2.517  14.790  10.246 -0.0647 -0.1338 -0.2329
 2202W        W 2402   3.847   3.167  10.774  0.5080 -0.2281 -0.0309
 2203W        W 2403   0.237   1.479  10.165  0.0660 -0.0827  0.1425
 2204W        W 2404   6.742   9.488   1.980  0.1495  0.2270 -0.1085
 2205W        W 2405  10.716   8.853   4.036 -0.2594  0.1163  0.0260
 2206W        W 2406   3.852  11.995   7.006  0.2148  0.1717 -0.0822
 2207W        W 2407   0.968   4.102   8.216  0.2506 -0.0641  0.3237
 2208W        W 2408  14.824   1.158   9.374 -0.1231 -0.2904  0.2832
 2209W        W 2409   0.484   4.970   7.552 -0.0111  0.0725  0.1874
 2210W        W 2410  13.527  12.849   3.480  0.1679  0.1935 -0.4325
 2211W        W 2411  13.665   2.755   9.440 -0.1357  0.1029  0.0043
 2212W        W 2412   3.664   0.847   1.191 -0.0033  0.1846 -0.2199
 2213W        W 2413   6.965   9.074   7.200 -0.3667 -0.0163 -0.2862
 2214W        W 2414  13.740   6.787   2.908 -0.0591  0.1736  0.0170
 2215W        W 2415  10.465  10.580   2.857 -0.2643 -0.0716 -0.2021
 2216W        W 2416   8.428   6.464   5.306  0.1227 -0.0053 -0.0503
 2217W        W 2417   9.806   3.129   5.791 -0.0392 -0.4149 -0.0640
 2218W        W 2418   2.538   8.896   7.023  0.3176 -0.3317  0.1101
 2219W        W 2419   3.082  12.252  14.518 -0.0083 -0.0512 -0.2612
 2220W        W 2420  13.563   8.337   8.018 -0.2117  0.2216 -0.0526
 2221W        W 2421   6.670   3.851   1.988  0.0123 -0.0487 -0.1771
 2222W        W 2422  15.069   6.992   1.071 -0.0245 -0.1064  0.2970
 2223W        W 2423  12.937  12.378   8.536  0.0937  0.2097  0.3657
 2224W        W 2424   4.111   8.388   3.856 -0.0071  0.1003 -0.1993
 2225W        W 2425  13.981  11.128   4.136 -0.0322 -0.2621  0.1773
 2226W        W 2426   3.231   8.569   7.607 -0.1186 -0.1261  0.2658
 2227W        W 2427   4.759  13.096   9.266  0.1384  0.3436 -0.2364
 2228W        W 2428   4.674   8.126   7.622  0.0687  0.0806 -0.1228
 2229W        W 2429   6.002   2.211   2.320 -0.4365 -0.1393 -0.1687
 2230W        W 2430   6.995  14.580   8.645 -0.4551 -0.0094 -0.0168
 2231W        W 2431   1.855   6.132   8.407  0.3664  0.2247  0.1012
 2232W        W 2432  10.970  11.915   4.940  0.0786 -0.2148 -0.2545
 2233W        W 2433   6.554  10.717  12.364  0.1515  0.3363  0.2520
 2234W        W 2434   8.735   6.677  13.793 -0.0377 -0.0445  0.0523
 2235W        W 2435  14.163   5.328   8.652  0.3019 -0.0921 -0.1525
 2236W        W 2436   1.119  14.355   4.189 -0.2020 -0.2637 -0.1726
 2237W        W 2437   3.059  10.896   6.182 -0.1394 -0.1415 -0.0707
 2238W        W 2438   4.055  14.465   2.253 -0.1921 -0.0149  0.0199
 2239W        W 2439   4.050   8.271   4.876 -0.2665  0.0729  0.1214
 2240W        W 2440  14.618  13.489   5.652 -0.1855  0.1309  0.1687
 2241W        W 2441  12.833   8.086   7.100 -0.0738 -0.0155 -0.0612
 2242W        W 2442   5.875  11.858   5.181 -0.2335 -0.3020  0.2507
 2243W        W 2443  13.960   3.141   9.294  0.1619 -0.2416  0.0135
 2244W        W 2444   3.383   2.647   5.758 -0.2515 -0.0579 -0.1093
 2245W        W 2445   2.604   5.881   0.562  0.2383 -0.0871  0.2014
 2246W        W 2446   3.814   6.952   9.590  0.1561 -0.1679 -0.1067
 2247W        W 2447   0.234   4.029   9.214  0.4880  0.0161  0.0187
 2248W        W 2448   2.481  13.604  13.449 -0.0502  0.2114 -0.1536
 2249W        W 2449  12.280   7.422  13.277  0.0636 -0.0956 -0.2191
 2250W        W 2450   3.601   7.844   9.157  0.0292  0.0630  0.0145
 2251W        W 2451   3.798   1.065   0.217  0.3954 -0.2595 -0.0013
 2252W        W 2452   7.849   4.431   7.735  0.2404 -0.0413 -0.0463
 2253W        W 2453   3.726   9.516   4.656  0.0607  0.2609 -0.3280
 2254W        W 2454  11.386   0.348   3.405  0.1723 -0.0734 -0.0602
 2255W        W 2455  15.072   1.570   8.819  0.1218 -0.0301 -0.0658
 2256W        W 2456   1.864  10.786   3.013  0.1371  0.0776  0.1582
 2257W        W 2457   4.478   6.076   0.397  0.2165 -0.3323 -0.2621
 2258W        W 2458   1.794  15.057  12.182  0.1371 -0.1363  0.0276
 2259W        W 2459   4.225  10.605  14.386 -0.1042  0.0795  0.0583
 2260W        W 2460  11.740  13.318   2.939 -0.4534 -0.2319 -0.0993
 2261W        W 2461   2.705   5.709   5.941  0.2417  0.0931  0.1313
 2262W        W 2462  13.056   3.732   1.330  0.2951  0.1279  0.1251
 2263W        W 2463   2.466   2.456   4.622  0.2123 -0.0669 -0.0169
 2264W        W 2464   3.476  11.604   2.508  0.0592 -0.3457  0.0198
 2265W        W 2465   9.461   9.468  11.229 -0.3637 -0.2334 -0.2046
 2266W        W 2466   3.069   8.318  11.086  0.0371 -0.2017  0.1459
 2267W        W 2467   8.283   2.283   3.130 -0.1991  0.0705  0.1067
 2268W        W 2468  12.860   1.179   3.769 -0.0909 -0.0131 -0.1207
 2269W        W 2469   8.971   6.596   0.109 -0.2922  0.0263  0.1205
 2270W        W 2470  14.884   2.261   8.331 -0.0123  0.1606 -0.0382
 2271W        W 2471   4.534  10.551  14.779  0.0617 -0.0190 -0.2906
 2272W        W 2472   6.809   9.247  11.178  0.2403 -0.1603  0.1315
 2273W        W 2473  13.434   6.225   6.426  0.2888  0.0846  0.0127
 2274W        W 2474   2.718   3.019   7.410 -0.2212 -0.1247  0.0530
 2275W        W 2475  14.999   3.516  12.706 -0.2102 -0.2348  0.1380
 2276W        W 2476   4.025  12.277   6.606  0.0548  0.1073 -0.0405
 2277W        W 2477  12.924  12.399   2.444  0.1468 -0.1161 -0.0104
 2278W        W 2478   0.469  10.958  12.028  0.2645 -0.1182 -0.2210
 2279W        W 2479   9.429   2.260  10.515 -0.0103  0.1424 -0.0259
 2280W        W 2480   4.832   7.370   4.246 -0.0228 -0.1562 -0.3218
 2281W        W 2481   1.313   1.739   0.920 -0.1103 -0.2219 -0.1493
 2282W        W 2482   5.224   6.921   8.890  0.0299 -0.0064  0.1394
 2283W        W 2483   2.208   5.853   4.523  0.0640 -0.0120  0.1980
 2284W        W 2484   2.194   4.981   2.072 -0.1386  0.2388  0.2429
 2285W        W 2485   2.328   3.927   1.287  0.0881  0.1513  0.1045
 2286W        W 2486   0.616  12.812   5.390 -0.1416  0.2802 -0.1434
 2287W        W 2487  12.703   6.457   9.155  0.1632  0.1402 -0.1282
 2288W        W 2488   2.989   8.923   5.616 -0.0709  0.0776  0.1299
 2289W        W 2489   1.948  14.017   1.289 -0.2664  0.0452 -0.3167
 2290W        W 2490  11.395   7.810   9.599 -0.1095 -0.0688  0.1021
 2291W        W 2491  12.595  13.498  10.304 -0.0051 -0.1792  0.0075
 2292W        W 2492  12.098  10.574  12.667  0.3931  0.1637  0.1345
 2293W        W 2493   1.932   7.739  12.250 -0.2480  0.1898  0.0021
 2294W        W 2494   5.535   8.959   7.085 -0.3028 -0.0915  0.0864
 2295W        W 2495  14.306   6.948   4.825 -0.0586  0.3422 -0.0668
 2296W        W 2496  11.866   6.305   9.272 -0.1785 -0.2019 -0.0837
 2297W        W 2497  14.101   8.120   6.805  0.1397  0.2316 -0.1809
 2298W        W 2498   3.413  12.588   2.121  0.1473 -0.2852 -0.1628
 2299W        W 2499   5.902   4.811   4.207  0.0871 -0.0021 -0.5075
 2300W        W 2500   5.124   7.114   2.192 -0.1363 -0.1843 -0.1228
 2301W        W 2501   3.022   0.651   2.224  0.1923 -0.2977  0.2332
 2302W        W 2502   3.938  13.006   5.178 -0.0130 -0.1158 -0.2933
 2303W        W 2503   0.923   4.313   7.747  0.0009  0.0967  0.1080
 2304W        W 2504   0.394   8.310  15.161  0.1172  0.0273  0.1427
 2305W        W 2505  14.564   0.955   0.238 -0.0832  0.2175  0.2298
 2306W        W 2506   0.505   7.427   4.831 -0.0082  0.0546  0.1634
 2307W        W 2507  14.304   9.120   5.346 -0.1108 -0.1715 -0.2216
 2308W        W 2508  14.892   4.250   3.879 -0.0391  0.0010 -0.0559
 2309W        W 2509  11.163  10.125   2.062  0.0732 -0.3196  0.0761
 2310W        W 2510  13.750  14.977   9.988  0.0358  0.1677  0.2226
 2311W        W 2511   3.206  14.369   0.866  0.1377 -0.1581  0.1370
 2312W        W 2512   5.921   7.079   5.495 -0.1342 -0.0660  0.3070
 2313W        W 2513   9.964   8.549   5.537 -0.0460 -0.1757  0.0494
 2314W        W 2514   0.430  12.386   6.353  0.2078  0.0994 -0.0569
 2315W        W 2515   4.313   1.207   5.260 -0.0385 -0.0668 -0.1643
 2316W        W 2516  11.194   6.123  15.192 -0.3079 -0.1099  0.1178
 2317W        W 2517  13.018   5.355  12.498  0.0699 -0.1336  0.2437
 2318W        W 2518   2.198   0.624   5.492 -0.0440  0.0005 -0.0304
 2319W        W 2519   8.237   8.243   0.792  0.0386  0.2456  0.0519
 2320W        W 2520   0.983   3.233   3.638 -0.3231  0.5407  0.1793
 2321W        W 2521   2.912   0.093   8.016 -0.2896 -0.1018  0.1265
 2322W        W 2522   6.637   5.498   8.786  0.1359  0.0544 -0.1534
 2323W        W 2523   2.704   0.068   7.570 -0.3267 -0.1146 -0.1749
 2324W        W 2524  14.194  11.695   4.200  0.0461 -0.1503  0.1323
 2325W        W 2525  14.834   0.416   4.730 -0.0585 -0.2185 -0.0940
 2326W        W 2526   3.580   5.713   4.162  0.3747 -0.0106 -0.0241
 2327W        W 2527   5.007   4.525  11.011 -0.0254  0.0327 -0.0928
 2328W        W 2528   0.405   4.957   9.088 -0.0627 -0.3419  0.1493
 2329W        W 2529  14.131   7.549  12.564  0.0498 -0.1771 -0.0019
 2330W        W 2530   0.337   6.077   7.769  0.1208  0.0087  0.0194
 2331W        W 2531   3.879   4.854   1.336 -0.0606  0.0681 -0.4787
 2332W        W 2532   3.656  14.248   0.678  0.2306 -0.1962 -0.3080
 2333W        W 2533   3.906   7.665  11.099  0.0988 -0.2331  0.3503
 2334W        W 2534   4.064   3.814   2.552  0.0024  0.0802 -0.3114
 2335W        W 2535   5.871  10.383   0.432  0.0060 -0.3523  0.3369
 2336W        W 2536   4.106   0.495   4.384  0.0523  0.1229 -0.1732
 2337W        W 2537   4.717  14.375   2.710 -0.1072 -0.1312  0.1730
 2338W        W 2538   5.074   0.622   4.178 -0.0368 -0.0831  0.1984
 2339W        W 2539   9.523   5.916  15.177 -0.1067  0.0207  0.0342
 2340W        W 2540   0.411   8.732   2.768  0.0902  0.3386 -0.0910
 2341W        W 2541   8.652  11.854   1.792  0.0703  0.0254 -0.0975
 2342W        W 2542  11.160   4.361   3.492  0.0018  0.1128  0.1154
 2343W        W 2543  10.173   3.356   6.501 -0.0664  0.0574 -0.0857
 2344W        W 2544   1.261   4.839   0.132 -0.1686  0.0835  0.0407
 2345W        W 2545   2.502  10.415   1.306 -0.1043 -0.2044 -0.0285
 2346W        W 2546   3.927   9.096   5.985  0.1927 -0.2106  0.2507
 2347W        W 2547   2.898   5.260   9.586  0.2373  0.1784 -0.0137
 2348W        W 2548  13.509  14.665  11.222 -0.1096  0.0230  0.3927
 2349W        W 2549   8.100   7.148  13.535 -0.1025  0.3140  0.2008
 2350W        W 2550   0.388  12.923   3.464  0.0807  0.0517  0.0056
 2351W        W 2551  13.704  10.536   7.197 -0.0345 -0.0240  0.1036
 2352W        W 2552  12.967   4.294  11.385 -0.0626 -0.1842 -0.0279
 2353W        W 2553   6.799   1.322  14.997  0.0615 -0.2574 -0.2894
 2354W        W 2554   6.959  12.767   1.901 -0.0595  0.0539 -0.1196
 2355W        W 2555   5.527   6.558  11.654 -0.0462  0.0391 -0.0574
 2356W        W 2556   6.872   2.027   8.808 -0.1239 -0.1828  0.1174
 2357W        W 2557  14.705   7.716   5.544  0.0704  0.2529  0.1455
 2358W        W 2558  11.639   8.141  14.497 -0.2308  0.1353  0.2409
 2359W        W 2559  11.242   3.991  11.926  0.2688 -0.2593  0.1863
 2360W        W 2560   4.732   7.256  12.135 -0.5205  0.2265 -0.0097
 2361W        W 2561   2.906   5.107   6.982 -0.1905 -0.1254  0.0020
 2362W        W 2562   6.353   4.836  14.190  0.0085 -0.3011 -0.0881
 2363W        W 2563   3.524   1.106   9.590  0.1099 -0.2582 -0.2189
 2364W        W 2564   5.448  10.078  12.024 -0.1914  0.0388  0.0997
 2365W        W 2565   0.330   7.218  14.869  0.2338  0.2171  0.1332
 2366W        W 2566  11.140  12.977   4.559 -0.2504 -0.0255  0.0278
 2367W        W 2567  13.915   7.133   7.243 -0.0352  0.0308 -0.0327
 2368W        W 2568  14.320  10.662   0.671 -0.1111 -0.0204 -0.0835
 2369W        W 2569  14.912   9.708   6.318  0.0891  0.3398  0.2053
 2370W        W 2570   2.713   4.174   8.149  0.1123  0.1798  0.1532
 2371W        W 2571   2.106   6.179   0.652  0.0694  0.2326  0.1342
 2372W        W 2572   3.618   8.588  14.585 -0.0841  0.0694  0.1844
 2373W        W 2573  12.790   2.211   4.687  0.3110 -0.1342 -0.0394
 2374W        W 2574   1.264  12.448  14.707  0.2948 -0.2541  0.1534
 2375W        W 2575   0.635   8.993   9.724  0.0111 -0.0944 -0.0513
 2376W        W 2576   4.314   5.276   1.150 -0.2057 -0.2048 -0.3277
 2377W        W 2577  15.062  13.734  11.873 -0.0939 -0.1036 -0.1284
 2378W        W 2578   5.173   4.112  11.337  0.1895 -0.0462 -0.2808
 2379W        W 2579   8.883   9.723   9.503 -0.2244  0.4118 -0.2014
 2380W        W 2580   6.136   4.695  10.226 -0.0018  0.0912  0.0933
 2381W        W 2581   5.941   3.569   0.470  0.0303  0.0674  0.3820
 2382W        W 2582   3.486   3.088   6.123  0.1269  0.1743  0.1052
 2383W        W 2583  10.538   1.265   7.596  0.1787  0.1196 -0.0777
 2384W        W 2584   6.687   0.889  10.162 -0.4064 -0.0480 -0.0915
 2385W        W 2585  11.025   6.053   7.247  0.0230  0.1055  0.0674
 2386W        W 2586   5.078   5.929   6.441 -0.1061 -0.0658  0.2160
 2387W        W 2587  14.450   7.346   7.236 -0.0011 -0.0889  0.0373
 2388W        W 2588   5.524  15.126   7.080  0.1260 -0.1927 -0.2393
 2389W        W 2589   5.077   3.353  12.713 -0.1638 -0.4492 -0.1251
 2390W        W 2590   4.714  13.034   5.610 -0.0153 -0.3785  0.1362
 2391W        W 2591  12.882  13.966   8.700  0.0793  0.1642 -0.1295
 2392W        W 2592  13.504  13.337   7.622  0.2314  0.2780 -0.1510
 2393W        W 2593   0.141  10.182  12.218 -0.1301  0.3144 -0.3483
 2394W        W 2594   7.506  10.328   5.642  0.1033 -0.0554  0.0724
 2395W        W 2595  10.578  10.453  12.754  0.1558  0.1101  0.1575
 2396W        W 2596   8.953   6.297  13.366  0.0013  0.0441  0.0939
 2397W        W 2597   1.344  10.265  11.358  0.1294 -0.1316  0.1592
 2398W        W 2598   8.364   6.620   7.917 -0.3250  0.3272  0.1049
 2399W        W 2599   1.135  12.014   7.815 -0.1663 -0.1094 -0.0701
 2400W        W 2600   9.422   5.104  10.421 -0.0549 -0.0411 -0.1749
 2401W        W 2601  10.233   7.374   4.222  0.0211 -0.0869  0.1091
 2402W        W 2602   4.103   7.853   0.472 -0.1867 -0.0961  0.2100
 2403W        W 2603   4.068  12.225   2.577 -0.0159 -0.0175 -0.0546
 2404W        W 2604  14.753   1.986   8.795  0.0460 -0.1158  0.0762
 2405W        W 2605   3.760   3.475   4.564 -0.2134 -0.0875  0.0564
 2406W        W 2606   3.370  12.548  12.860  0.3261  0.1890  0.1261
 2407W        W 2607   5.814  12.370   3.495 -0.2932 -0.3155  0.1997
 2408W        W 2608   9.272   6.293   5.326 -0.1873  0.1778 -0.0578
 2409W        W 2609   0.210   8.104   6.201  0.0830  0.1679  0.0476
 2410W        W 2610   5.286  14.054   0.629  0.0045  0.1299  0.2486
 2411W        W 2611  14.518   4.509   7.014 -0.3311  0.1229 -0.0023
 2412W        W 2612   5.948   3.488   8.412 -0.1362  0.0394 -0.3270
 2413W        W 2613   0.394   2.059   2.786 -0.0346  0.2218  0.1129
 2414W        W 2614   0.743   2.609  11.384  0.0915 -0.1110  0.1212
 2415W        W 2615   9.794   0.910   7.479  0.0834 -0.0964  0.0846
 2416W        W 2616   1.684  12.506  13.533 -0.2769 -0.2937 -0.1260
 2417W        W 2617   7.220  11.354  13.005 -0.0686  0.0687  0.0824
 2418W        W 2618   1.172   1.102   2.761 -0.0339  0.0499  0.0615
 2419W        W 2619  14.263  12.406   8.205 -0.1262 -0.1912  0.3010
 2420W        W 2620   5.162   7.474  14.329 -0.3783 -0.1030 -0.0148
 2421W        W 2621   1.532  12.639   2.837 -0.2917  0.2700  0.2619
 2422W        W 2622  13.764   4.150   7.229 -0.0627 -0.1660 -0.0010
 2423W        W 2623  10.853   4.138   7.989 -0.1842 -0.1679 -0.2213
 2424W        W 2624   1.278   1.004   5.930  0.3313  0.0190 -0.1579
 2425W        W 2625   3.425   1.800  10.628  0.1405 -0.0398  0.1494
 2426W        W 2626   7.456  14.127   5.141 -0.1624 -0.6050 -0.0086
 2427W        W 2627   5.770   4.939  10.001 -0.0781  0.3223 -0.0589
 2428W        W 2628   5.285   4.653  11.684  0.2457 -0.3597 -0.2184
 2429W        W 2629  12.378   1.102   9.490 -0.0729 -0.1310 -0.1911
 2430W        W 2630  13.110   9.141  11.956 -0.2789 -0.2667 -0.0570
 2431W        W 2631  13.201   5.146   0.278  0.0977  0.1376 -0.0876
 2432W        W 2632   3.332   4.928   6.202 -0.1971 -0.1008  0.0635
 2433W        W 2633   1.843   1.820   2.420  0.1339 -0.0996  0.0024
 2434W        W 2634  14.929   4.978   0.963 -0.0344 -0.2286 -0.1323
 2435W        W 2635   0.850   4.742  11.623 -0.3445 -0.0097  0.1052
 2436W        W 2636   0.311   8.131   7.996 -0.3108  0.1872 -0.1622
 2437W        W 2637   2.938  14.505   4.376 -0.0470 -0.1661 -0.1445
 2438W        W 2638   1.775   5.352  12.717  0.3392 -0.4958  0.2489
 2439W        W 2639   5.155  11.384  10.153 -0.3233  0.3135 -0.2543
 2440W        W 2640   6.803   3.113  13.229  0.2700 -0.0967 -0.1980
 2441W        W 2641  12.888   9.844   7.724  0.0749 -0.3893 -0.0859
 2442W        W 2642  10.040  10.819   4.561  0.3456  0.0148 -0.3709
 2443W        W 2643   3.313   3.442   1.079 -0.1574 -0.0768  0.1796
 2444W        W 2644   2.880   4.168  14.243  0.0542  0.2260 -0.2325
 2445W        W 2645   6.807   5.526   3.967  0.2499 -0.1703  0.0312
 2446W        W 2646  14.015  12.376   3.123 -0.1827 -0.2342  0.1604
 2447W        W 2647   8.727   3.943   8.261  0.1507  0.2287  0.3095
 2448W        W 2648   4.275   3.899  10.996 -0.2257  0.1979 -0.1739
 2449W        W 2649   9.237   0.391   8.741  0.1569 -0.0237 -0.1904
 2450W        W 2650   9.985   2.575   6.934 -0.0628 -0.1108 -0.0946
 2451W        W 2651   1.914   9.884   1.635 -0.0555  0.1494  0.1220
 2452W        W 2652  13.595  13.885   7.703 -0.3055  0.1230  0.1018
 2453W        W 2653  14.231  13.950   0.865  0.0367  0.1265  0.0687
 2454W        W 2654   0.881   3.276   2.934 -0.0055 -0.2925  0.2114
 2455W        W 2655   7.075   8.178  13.574  0.0320 -0.2075 -0.2027
 2456W        W 2656  14.585   5.306  10.853 -0.1557  0.3393 -0.1952
 2457W        W 2657   3.746   1.220   6.073 -0.1081  0.0955 -0.1615
 2458W        W 2658  12.356   0.407  13.481  0.2108  0.0961  0.0978
 2459W        W 2659   7.187  10.200  10.881  0.2484 -0.0394 -0.2201
 2460W        W 2660   8.964   7.728   3.154  0.0434 -0.1312  0.0916
 2461W        W 2661   1.443   7.848   8.949 -0.0997  0.0147 -0.0149
 2462W        W 2662   0.169   0.433   7.986 -0.2598  0.0863 -0.0095
 2463W        W 2663   0.874   2.244   2.738  0.1405 -0.4682 -0.2592
 2464W        W 2664   7.360  15.137   6.900  0.1865  0.1859 -0.1563
 2465W        W 2665   0.248  12.629   0.468  0.0672  0.3996 -0.3384
 2466W        W 2666   5.862   3.952   6.909 -0.1003 -0.0238  0.0817
 2467W        W 2667  15.141  14.849  10.222 -0.1769 -0.2632  0.1575
 2468W        W 2668   5.059  14.336   9.740 -0.2277 -0.0336  0.0667
 2469W        W 2669  13.105  11.083   2.403 -0.2476  0.0270 -0.0458
 2470W        W 2670   2.899   7.747   7.013 -0.3189 -0.0724  0.2089
 2471W        W 2671   4.691  12.812  11.734 -0.1607  0.1133  0.1034
 2472W        W 2672   2.576  10.780   7.555  0.1816 -0.2553  0.0433
 2473W        W 2673  13.463  12.521   9.183 -0.0327  0.0879 -0.2744
 2474W        W 2674   2.197   7.060   1.091  0.0498 -0.0233  0.2360
 2475W        W 2675  14.269  10.060   4.082 -0.0792  0.1215 -0.0417
 2476W        W 2676   7.349   0.471   0.516 -0.1386  0.3303 -0.0819
 2477W        W 2677  13.213  10.441   8.162 -0.0128 -0.1680 -0.1610
 2478W        W 2678   6.703   3.313   6.358  0.1388  0.1224 -0.1529
 2479W        W 2679   0.881   4.632   6.003 -0.0052  0.0959 -0.1819
 2480W        W 2680   2.192   4.477   1.298  0.0715  0.1935  0.0242
 2481W        W 2681   5.601   8.756   6.594 -0.0107  0.1437  0.0229
 2482W        W 2682  11.897   3.646   6.903  0.0421  0.2257 -0.0491
 2483W        W 2683  12.372  14.246  10.912  0.2487  0.1317  0.1087
 2484W        W 2684   2.663   5.533   0.157  0.1293 -0.1177  0.1670
 2485W        W 2685   2.087   9.171   5.776 -0.3320 -0.3395 -0.1919
 2486W        W 2686  14.249  14.016   3.539  0.0212 -0.2906  0.0498
 2487W        W 2687   3.767   5.577  13.671  0.0036  0.0993 -0.1971
 2488W        W 2688   4.044   1.599   9.735 -0.2709  0.1944 -0.0702
 2489W        W 2689   3.922   4.180  14.353 -0.2588  0.0344  0.2933
 2490W        W 2690   9.277   9.457   6.709  0.0326 -0.1416 -0.2136
 2491W        W 2691   3.894   2.606   5.671  0.0361 -0.0086 -0.1763
 2492W        W 2692   4.364  11.706   2.283 -0.0163  0.0543 -0.3837
 2493W        W 2693   7.666   0.052   1.515 -0.1471 -0.2289  0.3205
 2494W        W 2694  14.713   5.820  10.893  0.3102 -0.2179 -0.2340
 2495W        W 2695  10.944   9.225  12.935  0.4417  0.1078  0.0640
 2496W        W 2696   6.051   6.622   9.617 -0.0273  0.2782 -0.3449
 2497W        W 2697   3.839  10.921  10.242 -0.1522 -0.0595 -0.1573
 2498W        W 2698  11.327  10.076   6.957 -0.0220 -0.2410  0.0696
 2499W        W 2699  13.910   3.266   5.427 -0.1197 -0.0173 -0.0612
 2500W        W 2700   8.171   8.289  10.691  0.3156  0.0578  0.5084
 2501W        W 2701   3.763   5.572   7.100  0.2691 -0.1880 -0.1567
 2502W        W 2702   3.845   3.458   1.074 -0.2116  0.1017  0.0786
 2503W        W 2703   3.636  11.968   3.330  0.0906 -0.0369 -0.1789
 2504W        W 2704   3.375  13.422   5.592  0.2937 -0.0373 -0.1037
 2505W        W 2705   5.007   7.513   5.467 -0.0291 -0.1573  0.2864
 2506W        W 2706  12.945  11.880   6.042 -0.2943 -0.3022 -0.0456
 2507W        W 2707  13.130  12.888   3.121  0.1585 -0.0532 -0.1123
 2508W        W 2708  13.608   5.582   9.867 -0.2512  0.2547 -0.1652
 2509W        W 2709   4.102  11.408   2.625  0.0280  0.0473  0.0614
 2510W        W 2710   3.340  12.358   3.285  0.0616 -0.2410  0.0621
 2511W        W 2711   1.367   7.263   9.748  0.1103 -0.2313  0.0961
 2512W        W 2712  12.173   8.119  11.416  0.4529  0.0514  0.2302
 2513W        W 2713   6.483   2.560   3.941 -0.0056  0.0191  0.3041
 2514W        W 2714  12.529   7.854  14.250 -0.1376 -0.3546  0.3217
 2515W        W 2715   3.142   8.711  10.167  0.0636  0.1312 -0.1325
 2516W        W 2716   2.124   7.854   8.194  0.1559 -0.0757 -0.2650
 2517W        W 2717  11.501   0.157  12.509  0.1857  0.1005 -0.2597
 2518W        W 2718   7.511   5.430  11.643 -0.1087  0.4076 -0.0385
 2519W        W 2719   8.072   2.171   6.794 -0.3031 -0.0784 -0.1827
 2520W        W 2720   0.233   2.843  10.700  0.0476 -0.2472  0.1146
 2521W        W 2721  13.066   5.406   6.599  0.2039  0.0196 -0.0754
 2522W        W 2722   8.967   8.704   6.907  0.0034 -0.0652  0.0493
 2523W        W 2723  10.373   1.554   9.746 -0.1577 -0.2336  0.0651
 2524W        W 2724   4.568   1.407   0.817  0.0394 -0.2077  0.1847
 2525W        W 2725  14.161   7.391   6.233 -0.0675  0.2845 -0.5223
 2526W        W 2726   6.946   4.865  12.387 -0.0610  0.0402  0.1111
 2527W        W 2727   0.555   3.092   0.870  0.0572  0.1545  0.0370
 2528W        W 2728  12.898   3.400  11.567  0.2438 -0.0764 -0.0053
 2529W        W 2729  14.950   9.975   8.464 -0.0276 -0.0177 -0.0296
 2530W        W 2730  13.420   3.527  11.898 -0.1366  0.0945  0.0731
 2531W        W 2731   1.398  14.139   4.726  0.0075  0.1665 -0.2487
 2532W        W 2732   7.095  14.984   5.085  0.2751  0.1039  0.0739
 2533W        W 2733   0.444   2.940   9.613  0.2452  0.0622 -0.2337
 2534W        W 2734   2.830  13.482  14.615  0.0458 -0.1629 -0.0121
 2535W        W 2735  10.529   3.751   7.880  0.2845  0.0039 -0.0053
 2536W        W 2736  10.794  11.979  13.943  0.2616 -0.0341 -0.1536
 2537W        W 2737   5.543   6.929   1.889 -0.1412 -0.3504 -0.1234
 2538W        W 2738   1.920   7.800  15.096 -0.1517  0.3290 -0.0386
 2539W        W 2739   1.866   3.237  13.393  0.0215  0.0391  0.1672
 2540W        W 2740  13.126   9.346   0.760  0.1444 -0.0202 -0.3165
 2541W        W 2741   0.136  12.125   9.150 -0.1406 -0.0993 -0.2703
 2542W        W 2742  14.070   6.978  12.846 -0.0539 -0.2402  0.2181
 2543W        W 2743  10.160  13.475  10.711  0.0359 -0.1967 -0.4424
 2544W        W 2744   5.598   0.803   6.809  0.0180 -0.2562  0.1088
 2545W        W 2745   6.327   4.553   9.257  0.0692 -0.3689  0.1918
 2546W        W 2746   4.521   0.048  10.729  0.0516 -0.4397  0.0192
 2547W        W 2747  12.432   6.978  10.242  0.0282 -0.0248  0.4111
 2548W        W 2748  11.067   6.551  12.479  0.1444 -0.2054 -0.2704
 2549W        W 2749  15.184   1.989   5.278 -0.1873 -0.2783 -0.1383
 2550W        W 2750   4.624  11.993   7.451 -0.0244  0.3794  0.2116
 2551W        W 2751   3.051   8.498   0.005 -0.0337  0.1200  0.0199
 2552W        W 2752   1.972  12.018  10.383  0.1870  0.2106  0.0182
 2553W        W 2753   5.115   4.980   7.548  0.1722 -0.1402 -0.2365
 2554W        W 2754   2.850   7.820   5.030 -0.2556  0.1121 -0.0413
 2555W        W 2755   2.301  13.319  10.364 -0.2183 -0.0968 -0.0630
 2556W        W 2756   7.295   2.535   8.834  0.2371  0.3571 -0.4704
 2557W        W 2757   2.891   3.158   8.003  0.0892  0.0278 -0.0881
 2558W        W 2758  15.091  12.296   2.574 -0.0388 -0.2631 -0.2824
 2559W        W 2759   7.417   4.997  14.085 -0.2208  0.2999  0.0793
 2560W        W 2760   6.180   3.126   2.026  0.0080  0.0494 -0.1934
 2561W        W 2761   5.983  14.257   3.818  0.2689  0.2152  0.1799
 2562W        W 2762   8.703   4.305   8.977 -0.0157  0.1859  0.0728
 2563W        W 2763   8.238   6.962  12.221  0.2769  0.0347 -0.1500
 2564W        W 2764   1.954   6.375  12.323 -0.1035 -0.3091 -0.1158
 2565W        W 2765   7.635   9.366   9.011 -0.1463  0.2035  0.0401
 2566W        W 2766   1.599   0.348   4.244  0.0011 -0.2507 -0.0343
 2567W        W 2767   0.931   6.363   9.447 -0.1186  0.0108  0.2257
 2568W        W 2768  11.720   7.518  10.462 -0.0571 -0.0549 -0.2957
 2569W        W 2769  12.262   8.889  15.044  0.0814  0.0994  0.0849
 2570W        W 2770   2.910   2.477  10.006  0.0900 -0.2057  0.1992
 2571W        W 2771  12.374   7.411  14.655 -0.0920  0.6805 -0.1692
 2572W        W 2772   5.368   6.733   9.450 -0.1721 -0.0778 -0.0011
 2573W        W 2773   1.698   5.795   2.793  0.0716 -0.0303 -0.0410
 2574W        W 2774  13.608   6.534   9.902  0.1034 -0.0203 -0.1424
 2575W        W 2775   3.394   4.917   2.535  0.3954 -0.1206 -0.2883
 2576W        W 2776   6.254   6.715   6.863  0.1426 -0.2355 -0.2851
 2577W        W 2777   6.211  13.987   7.452 -0.2587 -0.2589  0.2399
 2578W        W 2778  10.630  14.060   4.017  0.0634  0.2028 -0.0147
 2579W        W 2779  13.826   4.012   6.013  0.2825 -0.3524  0.2479
 2580W        W 2780  15.191   6.297   1.524 -0.5792 -0.0556  0.2379
 2581W        W 2781   3.454   3.811  10.091  0.0237  0.0233 -0.3048
 2582W        W 2782   9.772   8.666  10.219 -0.0370  0.1276  0.4697
 2583W        W 2783   2.978  12.188  15.015  0.3331  0.3595  0.0142
 2584W        W 2784   8.718   1.738   0.914  0.1272  0.3731  0.3093
 2585W        W 2785   9.721   4.126   9.604 -0.0357 -0.0549  0.1177
 2586W        W 2786   1.669   3.904  10.669  0.1870 -0.1332  0.1456
 2587W        W 2787   6.525  10.683   8.516  0.1653  0.0734 -0.1995
 2588W        W 2788   6.329   2.254   4.311  0.2607 -0.0431 -0.3255
 2589W        W 2789   5.942   3.112   8.812 -0.1060 -0.2300  0.2572
 2590W        W 2790   1.094   1.741  10.460 -0.0408  0.1892  0.3097
 2591W        W 2791   2.799  12.591   4.797 -0.1286 -0.2263 -0.0032
 2592W        W 2792   6.717   4.931   5.917 -0.0168 -0.0752 -0.0899
 2593W        W 2793   6.186  13.183  11.097  0.1193 -0.4323  0.0462
 2594W        W 2794   5.646  12.510   1.402 -0.1092  0.0987 -0.0672
 2595W        W 2795   3.113   2.623   3.490 -0.1037  0.0870 -0.1121
 2596W        W 2796   2.872   2.370   6.473 -0.2186  0.1048  0.0684
 2597W        W 2797  14.162   7.506   8.962 -0.0303  0.1308  0.1778
 2598W        W 2798   0.128  14.459   6.505 -0.0571  0.1072 -0.1307
 2599W        W 2799  10.356  12.968   8.365 -0.2650 -0.0883 -0.2562
 2600W        W 2800   6.619   0.946  11.385 -0.0183  0.2869 -0.0887
 2601W        W 2801   0.674   7.082  14.499 -0.2483 -0.2124 -0.1314
 2602W        W 2802   6.169   6.847   3.411  0.0702  0.1318  0.1132
 2603W        W 2803   8.482   8.170   0.354  0.1254 -0.0744 -0.0139
 2604W        W 2804  14.112   0.022   9.677 -0.2186 -0.1079  0.0442
 2605W        W 2805  13.599  14.103   4.795 -0.0663 -0.1554  0.2928
 2606W        W 2806  12.604  13.589  11.654 -0.2018  0.1811 -0.1247
 2607W        W 2807  12.957   4.427  10.345  0.0884  0.0058  0.2487
 2608W        W 2808   2.054  13.137   5.471 -0.1212  0.1485 -0.0270
 2609W        W 2809  14.938   6.710  10.118  0.2192  0.1354  0.0504
 2610W        W 2810  14.070   6.624   7.984  0.2515  0.0732  0.1815
 2611W        W 2811   1.252   6.846  14.628 -0.2841 -0.0757 -0.2309
 2612W        W 2812   1.831   9.842   5.552 -0.0349 -0.0218  0.0194
 2613W        W 2813   8.442   8.276   5.630 -0.0763 -0.2968  0.0669
 2614W        W 2814  14.660  12.632  12.205 -0.2265 -0.0713  0.3631
 2615W        W 2815   7.438  13.939  13.269 -0.0108 -0.0893 -0.1653
 2616W        W 2816   6.203   9.154   8.573  0.0100  0.0054 -0.0293
 2617W        W 2817  14.788   1.250   2.466  0.0482  0.0139  0.0541
 2618W        W 2818   8.761   0.630  12.144 -0.1827  0.1747 -0.2154
 2619W        W 2819  13.952   1.490  11.203 -0.2323  0.1338 -0.3661
 2620W        W 2820   6.084  12.582  12.251  0.4284 -0.1307 -0.0654
 2621W        W 2821   2.461   6.132   0.948  0.2892  0.2466 -0.1559
 2622W        W 2822   3.152   3.239  10.576  0.1306 -0.0550  0.2874
 2623W        W 2823   4.728   1.147   3.647 -0.3476 -0.0841  0.1305
 2624W        W 2824   2.992   3.994   3.853  0.0458  0.1340  0.2175
 2625W        W 2825   3.084   2.336   3.910  0.1239  0.0454 -0.2793
 2626W        W 2826  10.520   1.836   6.784  0.2550 -0.0081 -0.0974
 2627W        W 2827  15.021  14.087   8.038  0.0616 -0.2152  0.2651
 2628W        W 2828   5.024   5.075   4.910  0.1664  0.1194  0.1026
 2629W        W 2829   4.138  10.375   5.158 -0.0670 -0.2088 -0.0793
 2630W        W 2830   0.369   1.778   6.885 -0.1520 -0.1662 -0.0021
 2631W        W 2831   6.151   5.300   2.734 -0.0396  0.1935 -0.2598
 2632W        W 2832  13.816  12.400  11.856 -0.0708 -0.2405  0.1292
 2633W        W 2833  13.663   4.538  14.844  0.1700  0.1987  0.3668
 2634W        W 2834   6.141   3.225   9.286  0.0914  0.3167  0.1271
 2635W        W 2835   5.491   3.818   6.023 -0.0615 -0.0030  0.2997
 2636W        W 2836  14.910   2.743   8.303 -0.1952 -0.0366  0.0770
 2637W        W 2837   1.109   9.381  11.342 -0.3276 -0.0172  0.0260
 2638W        W 2838   5.044   8.844   3.900 -0.2189 -0.0891 -0.0441
 2639W        W 2839   4.935   3.630   6.264 -0.1115 -0.3524  0.1104
 2640W        W 2840   8.813   8.173   9.211 -0.0141  0.3058  0.0449
 2641W        W 2841   9.238   5.501  11.794  0.0031 -0.3808 -0.1236
 2642W        W 2842   0.073   9.335  10.794  0.1298  0.4325 -0.2909
 2643W        W 2843   0.118   3.548   5.396  0.0066 -0.1621  0.1379
 2644W        W 2844   7.111   3.392  14.661 -0.2226 -0.3042  0.5058
 2645W        W 2845  12.857  13.032   4.756  0.1027 -0.1262  0.0832
 2646W        W 2846  11.241   4.741   4.582  0.1324  0.1927  0.0182
 2647W        W 2847   5.364   4.943   0.540 -0.3084 -0.0883 -0.1475
 2648W        W 2848  11.836   1.910   6.292 -0.0540  0.1447  0.0843
 2649W        W 2849   9.519  11.368  11.254 -0.2891  0.1471  0.0213
 2650W        W 2850   9.375  10.036  10.357 -0.0986  0.0553  0.0540
 2651W        W 2851  11.493   4.193   4.900  0.0317 -0.0910  0.0117
 2652W        W 2852   2.378   9.390   9.434  0.4143 -0.0181 -0.1017
 2653W        W 2853   4.242   3.617   7.007 -0.1957  0.2616  0.0076
 2654W        W 2854   6.307   0.559  10.832  0.1896  0.1643 -0.0778
 2655W        W 2855   8.563   1.654  11.135 -0.0860 -0.1477 -0.0945
 2656W        W 2856  11.610   5.952   1.741  0.1740 -0.0619 -0.0670
 2657W        W 2857   3.495   0.624   4.903 -0.0358  0.0605 -0.2734
 2658W        W 2858   2.998  14.296   9.603 -0.0592  0.2775 -0.0300
 2659W        W 2859   0.429  10.326   0.697  0.2650 -0.0641 -0.0083
 2660W        W 2860   9.743   3.302  12.673 -0.0337  0.3151 -0.1339
 2661W        W 2861   6.693   2.915   6.774 -0.1266  0.1309  0.2534
 2662W        W 2862  14.462   0.849   9.558  0.0719  0.1062 -0.1329
 2663W        W 2863   7.741   4.874   7.268  0.1450  0.1720  0.1082
 2664W        W 2864   6.686   5.360   9.715 -0.2834  0.0991 -0.0627
 2665W        W 2865  10.398   2.541   9.952 -0.0734  0.0035 -0.2131
 2666W        W 2866   6.195   2.408  14.216  0.1290 -0.0866  0.1094
 2667W        W 2867  15.004   9.772   3.400 -0.0916 -0.1491 -0.2162
 2668W        W 2868  13.349   7.441   8.445  0.1109  0.2294 -0.1314
 2669W        W 2869   6.254   6.792  13.808 -0.1076 -0.0280 -0.2263
 2670W        W 2870   0.556   3.240  10.535 -0.1718 -0.1676  0.1077
 2671W        W 2871   2.901  14.714   9.244  0.1154  0.3696 -0.1386
 2672W        W 2872   2.707  11.743   7.005  0.1597 -0.1055 -0.0498
 2673W        W 2873   2.328   4.901   9.675 -0.1115  0.0913  0.2585
 2674W        W 2874   0.896  13.391   4.256  0.2392  0.2685 -0.0921
 2675W        W 2875   3.759  10.668  11.452  0.3471 -0.2225 -0.2043
 2676W        W 2876  11.964   3.825   3.859  0.1227 -0.0714  0.1310
 2677W        W 2877  14.219   0.881   7.298 -0.0604 -0.0040 -0.2790
 2678W        W 2878   0.331   6.524  13.477 -0.0212 -0.0386 -0.1094
 2679W        W 2879   5.223   4.225  11.986  0.1998  0.2019 -0.0616
 2680W        W 2880   8.660   3.097   7.783  0.0383  0.0682 -0.0561
 2681W        W 2881   1.913   3.442  11.474 -0.1406  0.0047  0.0958
 2682W        W 2882  15.039   3.127  14.243 -0.1145  0.2154 -0.1384
 2683W        W 2883   2.397   0.597   6.072  0.0627  0.0226 -0.0097
 2684W        W 2884   0.281   3.422  14.406  0.0430  0.2387  0.2313
 2685W        W 2885   2.697   0.550   5.574  0.1407  0.2984 -0.1445
 2686W        W 2886   5.537   1.527   9.413 -0.1003  0.0397 -0.1002
 2687W        W 2887   1.636   0.420  14.596  0.0883 -0.3856  0.4374
 2688W        W 2888   9.459   8.170  14.562 -0.1926 -0.0552 -0.2389
 2689W        W 2889  14.579   5.826   2.167  0.0777  0.3863 -0.2777
 2690W        W 2890  14.035   7.772   9.910 -0.0491  0.0665 -0.4126
 2691W        W 2891   9.328   1.455  11.328 -0.0854 -0.0683  0.2005
 2692W        W 2892   1.652   4.570   6.836  0.1435  0.0131  0.1801
 2693W        W 2893  13.558   2.611  14.174 -0.0814 -0.3634 -0.0015
 2694W        W 2894  10.801   2.618   3.060  0.2631  0.0883  0.2757
 2695W        W 2895   3.340   5.063  12.658 -0.1833  0.1976  0.1003
 2696W        W 2896   2.157   3.455   8.370 -0.0234  0.0820 -0.2586
 2697W        W 2897   9.794   5.823   2.540 -0.0051 -0.1682  0.1127
 2698W        W 2898  14.026   8.410   7.933  0.2531  0.0809 -0.0044
 2699W        W 2899  11.976   5.396   6.911  0.2061 -0.2171 -0.1256
 2700W        W 2900  15.018   2.057  10.614  0.1198 -0.3368 -0.1252
 2701W        W 2901  11.260  14.064   7.130 -0.0374 -0.0575 -0.1732
 2702W        W 2902  10.789   1.351   3.165  0.0744  0.1991  0.1440
 2703W        W 2903   2.022   7.524   7.315 -0.0938  0.3546  0.0083
 2704W        W 2904  12.339   7.788  11.054  0.0711 -0.0136  0.0752
 2705W        W 2905   0.414   7.750  10.548 -0.0450 -0.2712 -0.2635
 2706W        W 2906  13.740   4.521   8.695  0.0865  0.1737 -0.0287
 2707W        W 2907   8.415   4.126   2.090 -0.1076 -0.0356 -0.0371
 2708W        W 2908   2.972   2.799  13.551  0.0182 -0.2764  0.1012
 2709W        W 2909   9.675   7.367  15.190 -0.1170 -0.0478  0.1066
 2710W        W 2910   5.282   6.841   0.876 -0.1234  0.2696  0.0188
 2711W        W 2911   1.743   0.599  12.727  0.3146  0.0324  0.1082
 2712W        W 2912   3.986  14.993   3.579 -0.2110 -0.4105  0.0854
 2713W        W 2913   1.456  11.161  10.807 -0.0260 -0.0811  0.1094
 2714W        W 2914   4.450   7.137   5.885  0.0319  0.3322 -0.1632
 2715W        W 2915   6.676   8.620   1.724  0.0433 -0.0055 -0.0053
 2716W        W 2916  13.273   9.051   5.569 -0.2185  0.3015  0.1067
 2717W        W 2917   9.016   4.437  11.821 -0.0117 -0.2566  0.0780
 2718W        W 2918  14.199   3.056   8.872  0.0636 -0.0201 -0.3657
 2719W        W 2919   1.154   5.632   6.575 -0.0131 -0.0951  0.4119
 2720W        W 2920   6.633   2.395   1.632 -0.1522 -0.2961 -0.1036
 2721W        W 2921   9.687   0.478  10.500 -0.1687  0.1693  0.2884
 2722W        W 2922  13.294  14.233   9.414  0.3791  0.1039 -0.1041
 2723W        W 2923   3.138   1.851   8.110 -0.2307 -0.1791 -0.0496
 2724W        W 2924   4.002   7.822   6.483  0.1837 -0.0720 -0.0108
 2725W        W 2925  11.342   7.184   2.550 -0.0168 -0.0662 -0.2118
 2726W        W 2926   9.043   2.418   9.618  0.2849 -0.1906  0.0826
 2727W        W 2927   5.393   3.382  10.018 -0.0713 -0.0869  0.2369
 2728W        W 2928   3.230   7.894   1.667  0.1381  0.1046  0.3248
 2729W        W 2929   6.121  15.080   6.282 -0.0212  0.0537 -0.0101
 2730W        W 2930   8.604   5.819  11.209 -0.0230 -0.2961  0.3525
 2731W        W 2931   8.622   5.408   7.258 -0.1529  0.1361 -0.0399
 2732W        W 2932   1.336   4.339   5.991 -0.3469  0.2257 -0.0279
 2733W        W 2933   4.595   5.044   7.516 -0.3834 -0.0726  0.2628
 2734W        W 2934   8.598   8.031  13.940  0.3067 -0.3347 -0.0044
 2735W        W 2935   1.831   9.606   3.746 -0.0550 -0.2992  0.2793
 2736W        W 2936   9.488  13.275   8.820  0.0465 -0.1385 -0.0888
 2737W        W 2937   4.613   0.100   1.430  0.1224  0.1598  0.0930
 2738W        W 2938  12.688   7.784  14.749  0.2168  0.2307 -0.0471
 2739W        W 2939   4.154  12.472   7.989  0.3084  0.3571 -0.2409
 2740W        W 2940   3.211   6.279   0.306  0.0446 -0.1083 -0.0759
 2741W        W 2941   7.048   1.104   7.342 -0.0954  0.2465 -0.5063
 2742W        W 2942   4.480  10.600   3.161  0.1205 -0.2061  0.1082
 2743W        W 2943  12.957   9.024   3.362  0.1965 -0.1603  0.2361
 2744W        W 2944   5.892   8.581   6.208 -0.1236  0.3200  0.1594
 2745W        W 2945  14.474   2.770   3.934  0.1410  0.1928 -0.1420
 2746W        W 2946   2.692  12.411  10.885  0.1051  0.0602  0.0748
 2747W        W 2947   8.570  13.208  11.509 -0.2446 -0.2404  0.0898
 2748W        W 2948  14.594   3.976  12.289  0.3194 -0.0867 -0.3988
 2749W        W 2949   1.922   1.730  11.629 -0.0255  0.0258  0.0890
 2750W        W 2950  14.706   9.221   4.725 -0.0940  0.0597  0.0357
 2751W        W 2951   4.607   0.987   7.386  0.1937  0.1599  0.2096
 2752W        W 2952   2.840   8.177   9.112 -0.1859  0.2507 -0.2331
 2753W        W 2953   5.408  11.754  10.423  0.2364 -0.1684  0.2412
 2754W        W 2954  14.475   5.778  11.980  0.2725  0.0797  0.1064
 2755W        W 2955   4.833   6.247  12.359  0.2502  0.6042  0.1110
 2756W        W 2956  14.915   4.566   4.304 -0.1053  0.0200  0.2422
 2757W        W 2957  10.539   8.886   8.346  0.0060  0.0817 -0.2035
 2758W        W 2958  14.772   3.648  13.185 -0.1266  0.0346  0.2468
 2759W        W 2959   4.958   6.152   9.473 -0.2627  0.2255  0.2767
 2760W        W 2960   0.624  11.890   2.757 -0.1223 -0.0869  0.0158
 2761W        W 2961   6.089   1.107  15.011  0.1401 -0.4817  0.1303
 2762W        W 2962   8.419   1.767  13.468 -0.0371 -0.1862 -0.0080
 2763W        W 2963   4.714   2.429   7.788  0.1033 -0.1601 -0.2454
 2764W        W 2964   4.477  14.020   7.056  0.0938  0.1758  0.3159
 2765W        W 2965   2.383   9.866  12.342  0.1290  0.2010  0.1612
 2766W        W 2966  14.457   4.975   7.239  0.1750  0.1786 -0.1102
 2767W        W 2967   6.239   9.718   1.748  0.1293  0.0158  0.2295
 2768W        W 2968   7.707  15.015  12.149  0.1960 -0.0264  0.1598
 2769W        W 2969  13.443  11.970   7.311  0.0112 -0.1650  0.0437
 2770W        W 2970   0.581   9.294  11.322  0.0432 -0.1247  0.2388
 2771W        W 2971  12.184   0.621   9.444 -0.3373 -0.1745  0.1178
 2772W        W 2972  10.698   5.200   9.221  0.2488  0.0582 -0.3282
 2773W        W 2973  14.526   8.812   5.030 -0.1108 -0.1213 -0.0654
 2774W        W 2974   4.065   5.818   8.200  0.3214  0.1521 -0.2576
 2775W        W 2975   5.183  12.243   5.212  0.2406  0.3825 -0.0994
 2776W        W 2976   5.328   5.400   9.468 -0.0270 -0.0431  0.0392
 2777W        W 2977   4.914   4.962  12.347 -0.4586  0.1110  0.2352
 2778W        W 2978   0.188   5.348   7.734 -0.1340 -0.0142  0.0104
 2779W        W 2979  13.564  13.373  13.984  0.0717 -0.3413  0.0962
 2780W        W 2980  14.942   6.993  12.851  0.0656 -0.0534 -0.1365
 2781W        W 2981   7.391  12.806  12.835  0.2210  0.0113  0.0297
 2782W        W 2982  14.564  11.163   2.740  0.3486 -0.1201  0.2818
 2783W        W 2983  12.509  14.895  14.219 -0.0217  0.0783  0.0990
 2784W        W 2984   1.959   0.282  10.816  0.1637  0.0749  0.1033
 2785W        W 2985  12.089   6.954   6.784 -0.2986 -0.1392 -0.1545
 2786W        W 2986   1.270   5.080  10.297  0.0019  0.0670 -0.2970
 2787W        W 2987   6.081   4.824   4.922 -0.2951 -0.0378  0.3443
 2788W        W 2988  10.573  12.444   7.865 -0.1159 -0.0029  0.2349
 2789W        W 2989  12.357   2.921   6.617  0.0375 -0.2661 -0.0345
 2790W        W 2990   8.633  13.328   4.201 -0.0530 -0.0423  0.0491
 2791W        W 2991   1.851   4.779   0.037 -0.0089  0.0101 -0.2329
 2792W        W 2992   9.855  13.852   0.194 -0.2504  0.4231 -0.2662
 2793W        W 2993   0.150  10.185   6.875  0.0418 -0.1328  0.1227
 2794W        W 2994   8.029  10.020   7.564  0.2612  0.0175 -0.3629
 2795W        W 2995   2.538   5.658   6.502  0.1399  0.1528 -0.1209
 2796W        W 2996   7.930   5.788   6.964  0.1940 -0.0050 -0.1018
 2797W        W 2997  13.526  13.723   5.934  0.0465  0.0024  0.0270
 2798W        W 2998   7.065   4.272   2.028 -0.1744 -0.0879  0.1045
 2799W        W 2999   8.859   8.177  12.354 -0.1028  0.0165  0.2138
 2800W        W 3000   1.308   2.333   1.560  0.1946  0.1933  0.0955
 2801W        W 3001   2.306   6.845   4.191  0.2206 -0.1327  0.1773
 2802W        W 3002   6.398   4.248   3.033  0.2939  0.1116 -0.2886
 2803W        W 3003   9.171   1.146  14.650 -0.1157 -0.2130 -0.1135
 2804W        W 3004  10.184   5.551   3.506 -0.0312 -0.1074  0.0151
 2805W        W 3005  13.842  10.240   6.811 -0.1753 -0.1110 -0.1943
 2806W        W 3006   6.777   2.468   5.324  0.3800  0.1769 -0.3181
 2807W        W 3007   0.656   9.694   4.875 -0.0567 -0.0213 -0.0491
 2808W        W 3008  11.373   0.962  13.525 -0.1486 -0.2859  0.1059
 2809W        W 3009   8.249  11.205   6.625 -0.0226 -0.1131  0.3637
 2810W        W 3010   1.987   2.996  10.865 -0.1161  0.1305 -0.0148
 2811W        W 3011   1.154   0.623   4.022  0.0327 -0.2738  0.0714
 2812W        W 3012   3.737   4.380   4.934  0.0550  0.0160 -0.3487
 2813W        W 3013  13.900   2.742   8.569 -0.0552  0.1217  0.0387
 2814W        W 3014   2.038   2.673   5.370  0.0615  0.1023 -0.1237
 2815W        W 3015   7.916   5.106   9.745 -0.1578  0.0818 -0.0498
 2816W        W 3016   6.088   7.447   4.213 -0.0283 -0.0558  0.2192
 2817W        W 3017   5.604   5.466  13.746 -0.0573  0.1063 -0.0664
 2818W        W 3018   0.786   5.867   1.118  0.2178 -0.0015 -0.0010
 2819W        W 3019   7.731   0.884  14.849 -0.0436  0.0783 -0.0561
 2820W        W 3020   7.162   4.716   9.242 -0.0287 -0.0503 -0.0245
 2821W        W 3021   6.396   2.108   2.561  0.1516 -0.1849  0.1384
 2822W        W 3022   9.535   3.380   6.726 -0.3415 -0.0858  0.1588
 2823W        W 3023   0.497   9.935   9.829  0.0386  0.0679 -0.1037
 2824W        W 3024   5.958  13.609  11.429 -0.1390 -0.0933 -0.2132
 2825W        W 3025  13.730   0.670  10.085  0.1126 -0.0627 -0.1933
 2826W        W 3026  12.265   2.664  11.638 -0.1926 -0.0113 -0.0807
 2827W        W 3027   7.593  13.809   4.781 -0.2410  0.1769 -0.1621
 2828W        W 3028   1.588   0.382  10.528  0.0261 -0.3101  0.5111
 2829W        W 3029   0.383   2.607  13.649  0.2004 -0.3335 -0.1157
 2830W        W 3030  15.003   8.410   7.101  0.1225 -0.1881 -0.3679
 2831W        W 3031   9.232   5.342   7.027  0.2337  0.1911  0.4691
 2832W        W 3032   4.804   7.812  11.284 -0.1245  0.0972  0.2480
 2833W        W 3033   9.983  10.381   7.444  0.2098  0.1672  0.0601
 2834W        W 3034   3.754   9.287   7.353 -0.0499 -0.0694  0.0612
 2835W        W 3035   8.375   7.781  10.014 -0.2815 -0.4852 -0.0053
 2836W        W 3036  11.508  12.747   5.439 -0.0854  0.2773  0.0259
 2837W        W 3037   2.427   5.564  11.539 -0.3068 -0.0354  0.4875
 2838W        W 3038  11.379   7.523   5.660  0.4215  0.1170  0.0832
 2839W        W 3039   7.805   1.141  13.652 -0.0546 -0.1917  0.0631
 2840W        W 3040   0.262   3.682   8.405  0.2207 -0.0644  0.1185
 2841W        W 3041   1.534  12.768   5.643 -0.0055  0.4869  0.1494
 2842W        W 3042  12.930   0.100  10.068 -0.0592 -0.2992  0.3112
 2843W        W 3043   8.546   7.018   7.212  0.1915  0.1231  0.1225
 2844W        W 3044   3.772  11.815   5.785  0.1678 -0.3315 -0.0393
 2845W        W 3045  13.897   3.727  14.128 -0.2255 -0.2680 -0.3249
 2846W        W 3046   4.580   1.556   3.929  0.1960  0.0957  0.0809
 2847W        W 3047  11.141   7.353  11.258 -0.2423 -0.3049  0.0518
 2848W        W 3048  12.185  13.418   9.955  0.1156 -0.2765  0.0272
 2849W        W 3049   8.938   0.149  11.264 -0.3640 -0.1409 -0.1097
 2850W        W 3050   3.675   3.527   8.349  0.1132  0.0819  0.4021
 2851W        W 3051   2.872   9.602   3.651 -0.0556 -0.2080  0.0699
 2852W        W 3052   5.191   9.629   6.663 -0.1811 -0.2641 -0.1567
 2853W        W 3053  14.760   2.426  15.003  0.1696 -0.1905  0.2109
 2854W        W 3054   9.727   4.315  12.957  0.2462 -0.0094  0.1100
 2855W        W 3055   1.665  10.891   6.978  0.2529 -0.2878  0.1833
 2856W        W 3056  14.758   2.043   7.512 -0.0304  0.3192  0.2790
 2857W        W 3057   3.946  12.777   6.639  0.0894 -0.1754  0.2374
 2858W        W 3058   3.954   6.928   6.193  0.3634 -0.0393 -0.0668
 2859W        W 3059   5.163   0.243   9.499  0.1937  0.0374 -0.2290
 2860W        W 3060   0.758   1.635  12.781 -0.0452 -0.1400 -0.3723
 2861W        W 3061   2.315   4.109   5.673  0.2727  0.1364  0.0800
 2862W        W 3062  15.017   6.452  11.552 -0.0382  0.3492 -0.3242
 2863W        W 3063  12.435   0.963  14.034  0.2699  0.2965  0.0204
 2864W        W 3064  12.834   5.590  11.688  0.1297  0.0331 -0.1198
 2865W        W 3065   2.225   7.751  10.655  0.1461  0.1832 -0.4099
 2866W        W 3066   0.931  14.972   7.988 -0.3518 -0.1171  0.4882
 2867W        W 3067  10.574   2.145   4.856  0.0114 -0.1782  0.1867
 2868W        W 3068   3.238   8.464   5.423  0.1688  0.2567  0.0850
 2869W        W 3069   8.926   4.947   7.225  0.0037  0.3580  0.3349
 2870W        W 3070   4.143   0.259   0.106  0.2120  0.2015  0.1096
 2871W        W 3071   1.412   3.052   3.771 -0.4687  0.1243 -0.0476
 2872W        W 3072  10.303  12.786  11.939  0.1287  0.2092  0.3059
 2873W        W 3073   2.198  13.947   9.205 -0.1029 -0.0857  0.1005
 2874W        W 3074   5.977   7.820  10.501  0.1299  0.2819 -0.3517
 2875W        W 3075  12.393  12.578  10.304  0.0819 -0.1667 -0.1604
 2876W        W 3076   4.941   8.702   8.125  0.2501 -0.0908  0.1018
 2877W        W 3077  10.202  10.783   3.268  0.2578  0.0277  0.3810
 2878W        W 3078   5.437   5.106   7.929 -0.1854 -0.3151 -0.1943
 2879W        W 3079   0.082  12.359  11.370  0.3923 -0.3096 -0.1139
 2880W        W 3080   3.374  10.672   5.909  0.0921  0.0675 -0.0384
 2881W        W 3081   0.594  14.678   1.803  0.1208 -0.0037  0.0559
 2882W        W 3082  13.136   9.479   6.511  0.1914  0.2260  0.2629
 2883W        W 3083   2.599   6.024   9.237 -0.1089 -0.1866 -0.0864
 2884W        W 3084  12.136  12.377   9.419  0.0002 -0.1586 -0.3348
 2885W        W 3085   0.739   9.029   4.176 -0.0246 -0.0134  0.1294
 2886W        W 3086   3.569   3.682   8.906 -0.0523  0.1706  0.2540
 2887W        W 3087  14.040   4.040   3.439 -0.1196 -0.2393 -0.1007
 2888W        W 3088  10.674  14.880   0.582 -0.1688 -0.0574 -0.1358
 2889W        W 3089   9.489   0.645  12.437  0.0330 -0.4295  0.1163
 2890W        W 3090  10.489  10.550  14.165  0.2459 -0.2434 -0.1680
 2891W        W 3091   5.064   6.802   3.473 -0.1381 -0.0826 -0.0075
 2892W        W 3092   0.859   0.305   7.941 -0.0850 -0.0061  0.0631
 2893W        W 3093   1.706   6.588   8.657 -0.1364 -0.0645  0.4668
 2894W        W 3094   8.886  10.078   8.818 -0.3689 -0.1218 -0.1538
 2895W        W 3095  12.930  11.849   7.387  0.2609  0.0283 -0.1249
 2896W        W 3096   0.341  11.298   5.336 -0.0031  0.1196 -0.0945
 2897W        W 3097  14.459  10.031   8.606  0.1615  0.1828 -0.2095
 2898W        W 3098   7.881  13.570   1.333 -0.3148 -0.0255  0.0598
 2899W        W 3099   4.995   6.884  12.364 -0.3836 -0.0855  0.0335
 2900W        W 3100   6.526   2.883   3.550  0.0537 -0.2621  0.0814
 2901W        W 3101   3.699   1.859   6.741  0.1842 -0.0658  0.0392
 2902W        W 3102  14.299   3.507   8.016  0.0286 -0.1108  0.1599
 2903W        W 3103  14.712  14.640  13.219  0.0150 -0.1964  0.1415
 2904W        W 3104   0.806  10.725   8.168 -0.0333 -0.1176  0.2358
 2905W        W 3105  10.497   2.915  11.281 -0.2639 -0.0235  0.1335
 2906W        W 3106  14.879  12.070  12.188  0.1357  0.2024 -0.0289
 2907W        W 3107   4.513   7.841   9.381 -0.0109  0.2443 -0.1288
 2908W        W 3108   7.627   6.685   9.490 -0.0565 -0.2430 -0.2925
 2909W        W 3109   5.145   2.882  12.751  0.0348  0.1774 -0.0030
 2910W        W 3110   2.390   6.021  12.404  0.2999 -0.0662 -0.2210
 2911W        W 3111  13.708  12.888   6.489  0.1255 -0.0617  0.1860
 2912W        W 3112   8.664   7.243   2.965 -0.0628  0.2884 -0.0110
 2913W        W 3113  12.398   7.152   2.734 -0.1511 -0.2457  0.1322
 2914W        W 3114  15.092   3.077   9.280 -0.1512 -0.0678  0.0473
 2915W        W 3115   2.774   9.395   2.141 -0.0854 -0.1292  0.2657
 2916W        W 3116  10.538   0.319   2.878  0.0415 -0.1111  0.2274
 2917W        W 3117   6.213   2.868  12.447  0.1005 -0.1978 -0.0463
 2918W        W 3118   0.362   8.750  14.959 -0.2439  0.0399 -0.4261
 2919W        W 3119   2.906  12.301   5.970 -0.1943 -0.0373 -0.1642
 2920W        W 3120  13.884  10.924   1.231 -0.3016 -0.0517 -0.4381
 2921W        W 3121  13.827   8.949   8.717 -0.1230  0.0506  0.1135
 2922W        W 3122   8.148   9.590  14.650  0.2394 -0.2418 -0.0593
 2923W        W 3123   4.652   2.062   8.080  0.2516 -0.1450  0.0138
 2924W        W 3124  13.974   2.766  12.557  0.1364  0.0975  0.0661
 2925W        W 3125  11.594   4.282   1.469  0.1933  0.5492 -0.0145
 2926W        W 3126  13.778   9.814   8.984 -0.1288 -0.3212 -0.1164
 2927W        W 3127   5.324  12.463   7.356  0.0949  0.2759 -0.1707
 2928W        W 3128   1.976   0.776  14.403  0.0865  0.1199  0.2303
 2929W        W 3129   6.310   3.480   0.045 -0.1573 -0.1730 -0.4207
 2930W        W 3130  11.127   1.391   8.911 -0.1190 -0.2005  0.1647
 2931W        W 3131  11.655   7.584   7.467  0.1117  0.2284  0.0338
 2932W        W 3132  14.779   3.755   0.182  0.1016 -0.0052 -0.3059
 2933W        W 3133   0.587   8.120   0.684 -0.1400 -0.0316 -0.1955
 2934W        W 3134   3.105   2.566   8.607  0.1376  0.1291 -0.0269
 2935W        W 3135   4.155   3.650  10.541  0.1188  0.0727 -0.0016
 2936W        W 3136   6.872  15.191   4.646 -0.1406 -0.2291 -0.1824
 2937W        W 3137  14.403  11.007   0.152 -0.0203  0.1477 -0.3107
 2938W        W 3138   2.561   5.326   7.389  0.0025  0.3399 -0.0554
 2939W        W 3139   5.974   7.387   7.560 -0.3744  0.1426  0.0916
 2940W        W 3140   1.911  13.234  12.320 -0.0925 -0.0176  0.4468
 2941W        W 3141   1.588   8.748   0.188  0.1378 -0.0337  0.4416
 2942W        W 3142   2.664  12.654   9.359 -0.3304 -0.1561  0.1017
 2943W        W 3143   7.481  12.265  12.759  0.1508  0.3495 -0.2080
 2944W        W 3144   1.836   4.409   3.187 -0.2170 -0.0580  0.0449
 2945W        W 3145  10.909   4.219  14.217 -0.0695  0.0124  0.3186
 2946W        W 3146   0.120   7.759  14.937 -0.2452  0.0852 -0.1137
 2947W        W 3147   7.733   4.247  13.544 -0.2850 -0.0151  0.0631
 2948W        W 3148  14.680   9.003   1.586 -0.1333  0.1878 -0.0981
 2949W        W 3149  10.735   1.263   0.055 -0.0067 -0.0675  0.2926
 2950W        W 3150   4.209   1.094  13.324  0.0192  0.1003 -0.0966
 2951W        W 3151  14.354   4.862  12.750  0.0982 -0.1090 -0.1927
 2952W        W 3152  13.960   8.354  11.621 -0.1289  0.1482 -0.0013
 2953W        W 3153   6.474   6.929   2.244 -0.1217 -0.1684  0.1934
 2954W        W 3154   9.919   5.952   5.938 -0.0377  0.1713  0.1819
 2955W        W 3155   1.737   3.285  14.539 -0.0104 -0.0596 -0.0796
 2956W        W 3156   1.427   2.123  10.143  0.2626 -0.2143 -0.0505
 2957W        W 3157  14.823  14.163   5.032  0.0289  0.2749 -0.2881
 2958W        W 3158   0.518   8.933  12.116  0.1656 -0.0818  0.1167
 2959W        W 3159   2.502  13.900   3.335  0.1121  0.0228  0.3399
 2960W        W 3160  14.524  11.388   1.495  0.4379  0.1548 -0.1673
 2961W        W 3161   3.515   3.063   4.813 -0.0518 -0.1922  0.3091
 2962W        W 3162   1.838   6.943   4.317 -0.1074 -0.0529 -0.0584
 2963W        W 3163   4.526   6.180   9.138 -0.2642  0.0499 -0.2425
 2964W        W 3164  13.369   2.547  13.228 -0.1665 -0.3224 -0.0791
 2965W        W 3165  14.816   7.527   6.693  0.1634 -0.1958 -0.3845
 2966W        W 3166  11.501   0.153   7.765  0.0043 -0.2273  0.1504
 2967W        W 3167   0.738   7.265  12.988 -0.1096  0.0920 -0.3311
 2968W        W 3168   6.217   9.546  13.382 -0.1324 -0.2560  0.0579
 2969W        W 3169   5.416   0.423  11.413  0.0984  0.0028  0.2864
 2970W        W 3170  13.439  12.519  11.398 -0.2612  0.0888 -0.0876
 2971W        W 3171  13.378   4.025  11.755 -0.1396  0.2011 -0.0652
 2972W        W 3172   0.378   3.898  14.401  0.0368 -0.0585 -0.1145
 2973W        W 3173  15.162   9.610  13.403  0.0090 -0.0369  0.0660
 2974W        W 3174   2.418   7.110   0.634  0.0731 -0.0216 -0.0675
 2975W        W 3175  10.606   1.599  10.313  0.0892 -0.0105  0.0811
 2976W        W 3176   9.934   7.239   1.595 -0.1632 -0.1428 -0.2574
 2977W        W 3177   3.063   4.378   2.514 -0.0497 -0.0194  0.2079
 2978W        W 3178   8.227  11.306   3.606  0.0875  0.0940  0.2504
 2979W        W 3179  15.070   2.822  11.068  0.3907 -0.2117 -0.3060
 2980W        W 3180   6.031   3.514   7.059 -0.2644 -0.2083  0.1797
 2981W        W 3181   4.068  13.031   4.424 -0.0818 -0.1691  0.1102
 2982W        W 3182  10.406   5.711   5.083 -0.1654  0.0297 -0.0449
 2983W        W 3183   6.105  10.837  13.335  0.0218 -0.1103  0.0110
 2984W        W 3184   1.149   3.296  10.864 -0.1339  0.3107 -0.1341
 2985W        W 3185   0.800  10.141   7.746  0.0993  0.2148 -0.1253
 2986W        W 3186   5.143   7.861   7.695  0.1873 -0.3261  0.0223
 2987W        W 3187  11.696   4.156   9.121  0.4149  0.1434  0.1273
 2988W        W 3188  12.604   2.713   2.686 -0.0762  0.1979  0.0280
 2989W        W 3189   2.388   4.727   6.610  0.1470  0.2584  0.1127
 2990W        W 3190   2.227   3.546  13.114 -0.1079 -0.3559  0.1985
 2991W        W 3191   5.833  10.465  10.427  0.1406  0.2618  0.2087
 2992W        W 3192  13.942   5.437  14.818  0.0653  0.0629  0.0192
 2993W        W 3193   5.502   7.199  12.508 -0.0841  0.1318  0.2729
 2994W        W 3194  12.841   3.415   8.873 -0.2946 -0.0118  0.1111
 2995W        W 3195   1.131   1.176   1.960  0.1677  0.2433  0.0915
 2996W        W 3196   2.056   8.041   2.210  0.2495  0.1250  0.0897
 2997W        W 3197   2.763  13.951   8.804  0.1438 -0.0685  0.0023
 2998W        W 3198  12.754   5.544  13.197  0.0675  0.2154 -0.1670
 2999W        W 3199   4.529   2.958  15.162 -0.0363 -0.0392 -0.0640
 3000W        W 3200   3.745   8.182   8.857  0.0610  0.1871 -0.2667
 3001W        W 3201   6.969   2.999   6.025  0.0223  0.2052 -0.1283
 3002W        W 3202   9.954   6.301  10.541  0.1300 -0.1224  0.0917
 3003W        W 3203   6.619   8.867   5.583  0.0971 -0.0209 -0.0118
 3004W        W 3204   9.166   9.886   5.867 -0.0232  0.1524  0.1730
 3005W        W 3205  14.054   1.681  14.485 -0.0572 -0.2961 -0.1911
 3006W        W 3206   7.842  10.432   2.703  0.1188 -0.2052  0.0269
 3007W        W 3207   0.392  12.830  13.810 -0.0705  0.0128  0.3139
 3008W        W 3208   8.827  14.159  13.281 -0.2564 -0.2498 -0.0451
 3009W        W 3209   3.316   2.294   3.081  0.0284 -0.0507  0.1195
 3010W        W 3210   1.365   5.662   1.891 -0.0522  0.4008 -0.0274
 3011W        W 3211   7.940   2.901  14.060 -0.1224  0.1524  0.0291
 3012W        W 3212  12.049  11.432  12.149  0.0977  0.1236  0.0155
 3013W        W 3213  13.854  14.332  11.348  0.1241  0.2683  0.0733
 3014W        W 3214   3.226   6.128   8.682 -0.1459 -0.1614 -0.3012
 3015W        W 3215   9.134   1.495  12.700 -0.0677 -0.0356  0.0987
 3016W        W 3216  11.381  10.241  14.488  0.0042  0.1384  0.0321
 3017W        W 3217   0.814   6.202   4.360 -0.1607 -0.0064 -0.0955
 3018W        W 3218  14.734   5.992   6.303  0.2081  0.4615  0.4069
 3019W        W 3219  11.468  13.261   0.661  0.3298 -0.3585  0.0960
 3020W        W 3220  11.447   3.208   2.800 -0.4135  0.2895 -0.0261
 3021W        W 3221   8.616   2.896   8.296 -0.1904  0.1214  0.1571
 3022W        W 3222   7.540  10.426   3.628 -0.1311  0.1609 -0.1594
 3023W        W 3223   1.699   0.088  12.834  0.0611  0.0782  0.0252
 3024W        W 3224  14.226   3.245  10.582  0.1333  0.0073 -0.3047
 3025W        W 3225   9.723   8.423   0.254  0.1128  0.2985 -0.0252
 3026W        W 3226  12.736  11.948  14.042 -0.1203 -0.4580 -0.0272
 3027W        W 3227   5.270   6.283  14.146  0.1914 -0.1459  0.0904
 3028W        W 3228   4.840   0.757   4.567 -0.0460  0.1569 -0.0798
 3029W        W 3229   6.271   1.236   6.866  0.2191 -0.1715  0.0021
 3030W        W 3230   6.060   1.014  12.916  0.1632 -0.1524  0.1505
 3031W        W 3231  13.321   4.654  11.258  0.1332 -0.0442  0.1965
 3032W        W 3232   6.296   6.188  12.176  0.2611 -0.1900  0.0043
 3033W        W 3233  13.212   4.346   0.674 -0.1082 -0.2194 -0.4263
 3034W        W 3234  10.944  10.273   7.331  0.0601  0.0833 -0.2364
 3035W        W 3235   4.445   8.440   1.697  0.1471 -0.0649 -0.3205
 3036W        W 3236  15.181   9.864   7.249 -0.2382 -0.1770 -0.0008
 3037W        W 3237   2.705   4.233   1.057  0.1556  0.0610 -0.0500
 3038W        W 3238  14.556   1.202  13.595 -0.0172 -0.0440  0.1584
 3039W        W 3239  13.988   7.183   7.716 -0.0135 -0.0141 -0.2855
 3040W        W 3240   2.793   8.623   4.190 -0.0984 -0.2231 -0.1504
 3041W        W 3241   3.730   3.569   3.026  0.2497 -0.1368  0.1633
 3042W        W 3242   5.364   5.679   4.007  0.0100  0.0194 -0.0865
 3043W        W 3243   4.936   4.054   8.193 -0.2410 -0.1979  0.1879
 3044W        W 3244   0.939   8.860  11.459  0.0080 -0.1973  0.0055
 3045W        W 3245   5.372   7.396   1.285  0.0534 -0.0519  0.0584
 3046W        W 3246   1.519   0.021  14.902 -0.3196  0.0598  0.1257
 3047W        W 3247  13.992   2.789   1.939 -0.2816 -0.3027  0.0053
 3048W        W 3248  11.443   1.984   4.566 -0.2904 -0.1078  0.2175
 3049W        W 3249   1.737  14.872   7.013 -0.2178  0.1065  0.2251
 3050W        W 3250  13.398   2.778   0.528  0.0270  0.3081  0.2503
 3051W        W 3251   1.606   5.009   1.019 -0.1209 -0.1905 -0.1561
 3052W        W 3252   6.625   9.147  12.561 -0.0009  0.0128 -0.1206
 3053W        W 3253   5.545   3.126  11.887  0.0804  0.3961 -0.2041
 3054W        W 3254   0.057   7.456   4.479  0.1980  0.3475  0.1360
 3055W        W 3255  12.180   5.135   1.682  0.2620  0.1361  0.1234
 3056W        W 3256   7.011   4.384  12.587 -0.1751  0.2006  0.1690
 3057W        W 3257   9.473   7.104   1.475  0.1456 -0.2193 -0.1870
 3058W        W 3258   3.071   0.359   9.112  0.0335  0.1535 -0.2150
 3059W        W 3259  13.388  10.216   6.980 -0.1462  0.0931  0.1738
 3060W        W 3260   2.181   0.426   0.656 -0.1341 -0.1390 -0.1848
 3061W        W 3261   2.922   7.329   7.775 -0.0566  0.3198 -0.0629
 3062W        W 3262  11.634   5.976  14.518 -0.0589 -0.1258  0.0025
 3063W        W 3263   0.167   4.300   4.383  0.0739  0.0418  0.1380
 3064W        W 3264   4.814   1.018   1.108 -0.2728  0.0815 -0.0588
 3065W        W 3265  13.693   9.918   0.953  0.1221  0.1544 -0.2175
 3066W        W 3266  11.283  14.881  12.567  0.3163 -0.0496 -0.1325
 3067W        W 3267   2.039   6.442   4.376 -0.0545 -0.2627 -0.0444
 3068W        W 3268   6.817  13.223   4.992 -0.0597 -0.2717  0.2828
 3069W        W 3269  15.042  13.855  14.974 -0.0640  0.1713  0.0673
 3070W        W 3270  14.620   6.672   1.130  0.2531 -0.1970  0.4731
 3071W        W 3271   5.617   6.192   7.045 -0.2379 -0.3696  0.0053
 3072W        W 3272   4.162   1.767   0.545  0.1485  0.0072 -0.0128
 3073W        W 3273  10.116   5.650  12.796 -0.3812 -0.1120  0.1602
 3074W        W 3274   7.537   1.998  12.705 -0.0704 -0.0552  0.2513
 3075W        W 3275   1.351   6.137   2.038  0.2067 -0.1352 -0.2244
 3076W        W 3276   9.755   6.626  11.018 -0.3458  0.0870  0.0407
 3077W        W 3277   5.612   3.836   9.592 -0.0747  0.3720 -0.0912
 3078W        W 3278   0.690   5.345  14.402  0.0164  0.0433 -0.2387
 3079W        W 3279   4.544   8.336   1.139  0.1529  0.1723  0.3332
 3080W        W 3280   4.827  10.247   7.099  0.2024 -0.0033  0.2504
 3081W        W 3281   4.756   3.483  12.322 -0.0892 -0.0223 -0.0564
 3082W        W 3282   4.025  11.836   0.223 -0.2339 -0.0887 -0.0134
 3083W        W 3283  14.703   6.104  12.829  0.1765 -0.1334 -0.0005
 3084W        W 3284   3.843   3.247   5.192 -0.1009 -0.0305  0.0307
 3085W        W 3285  12.370  12.110  10.100  0.0212  0.1775  0.1999
 3086W        W 3286   2.018  15.071   1.718  0.0824  0.2949 -0.1632
 3087W        W 3287  14.091   4.878  14.173 -0.1562  0.1691  0.0390
 3088W        W 3288   1.092   7.728  13.189  0.1383  0.0834 -0.2605
 3089W        W 3289  12.591   4.655   0.342 -0.0183 -0.3095 -0.2008
 3090W        W 3290   3.962   0.181   7.777 -0.1979  0.1649 -0.1848
 3091W        W 3291  11.579  14.227  14.138 -0.1387  0.1927 -0.1268
 3092W        W 3292  14.292   9.121   2.367 -0.1132 -0.1473  0.1869
 3093W        W 3293  13.029  11.831  10.338  0.1609 -0.1390  0.1136
 3094W        W 3294   7.620   5.746   2.689  0.0788  0.2985  0.0974
 3095W        W 3295   2.576   3.515   1.505 -0.1783 -0.2789 -0.4528
 3096W        W 3296   4.890   0.828  11.965 -0.0788  0.1254 -0.3121
 3097W        W 3297   2.851   2.986   1.857 -0.2835  0.0487  0.0928
 3098W        W 3298  10.737   7.867  13.470 -0.2367  0.0508 -0.0096
 3099W        W 3299   2.346   1.445   6.389 -0.0172 -0.2204  0.1214
 3100W        W 3300   0.422   6.190  13.886  0.2086  0.1096 -0.5742
 3101W        W 3301   1.780   6.576   0.385  0.0230  0.0016  0.0562
 3102W        W 3302   8.061   0.465  14.493 -0.1889 -0.0040  0.0401
 3103W        W 3303   1.694   4.866   2.310 -0.0568 -0.0330 -0.1577
 3104W        W 3304  12.859  13.930  10.181 -0.3167  0.1477 -0.1866
 3105W        W 3305  10.964   6.872   0.031 -0.1828 -0.0143  0.1019
 3106W        W 3306   0.109   9.154  14.930  0.0154 -0.0554 -0.2354
 3107W        W 3307   5.185   9.531  12.083 -0.0340 -0.0506 -0.2032
 3108W        W 3308   5.764   4.427   9.986 -0.0332  0.3773  0.0429
 3109W        W 3309   7.144   1.955   7.595  0.0187 -0.2111  0.1070
 3110W        W 3310  11.642   6.232  14.920  0.0383 -0.3000  0.0623
 3111W        W 3311  14.555   5.682  12.638  0.2977  0.0797  0.0066
 3112W        W 3312   7.239   5.851  14.588  0.1183 -0.1460  0.0500
 3113W        W 3313  14.309   4.312   9.626 -0.1843  0.0369 -0.0196
 3114W        W 3314   1.019   6.877   7.773  0.2831  0.2192 -0.1940
 3115W        W 3315   9.481  12.338  11.708  0.0828  0.0135 -0.3232
 3116W        W 3316   4.909   2.918   7.931  0.0233 -0.2040  0.2234
 3117W        W 3317   0.768   1.891  11.846 -0.5963 -0.0697  0.2762
 3118W        W 3318   1.764   3.659   0.481 -0.1598 -0.0556  0.0939
 3119W        W 3319   2.869  10.873  13.473 -0.1531 -0.0104  0.0216
 3120W        W 3320   7.894   4.672   8.342  0.1860 -0.0110  0.0689
 3121W        W 3321   5.244   3.758  12.412 -0.0573 -0.1636 -0.1412
 3122W        W 3322  12.423   3.882   6.087  0.3785  0.1346 -0.0835
 3123W        W 3323   5.784   5.083   6.188 -0.2910 -0.3311 -0.1936
 3124W        W 3324  13.951   7.388   9.473 -0.1056  0.0021 -0.1931
 3125W        W 3325   3.390   2.546  15.107  0.1541  0.0904  0.4115
 3126W        W 3326  13.805   6.578  12.595 -0.0479  0.3211  0.0050
 3127W        W 3327  14.487  11.838  14.219 -0.1619 -0.2956  0.0033
 3128W        W 3328   5.381   2.421   0.835  0.3505  0.0680 -0.3093
 3129W        W 3329   7.404   1.895  12.208  0.1351 -0.1367  0.1186
 3130W        W 3330   5.891   6.455  12.040 -0.0548  0.1053 -0.2369
 3131W        W 3331   6.091   4.832   3.364 -0.0616 -0.0015  0.0200
 3132W        W 3332  14.755   5.730   1.308 -0.0115  0.1852 -0.2193
 3133W        W 3333  14.485   5.485   4.585 -0.0610  0.1334 -0.1041
 3134W        W 3334   3.073   9.899  10.727  0.0598 -0.2386  0.1401
 3135W        W 3335  10.452  11.581   0.355 -0.2985 -0.1574 -0.1176
 3136W        W 3336  13.265   2.592  12.076 -0.0601  0.0240  0.3654
 3137W        W 3337  15.122   8.276   3.806  0.2528  0.1289  0.2710
 3138W        W 3338   5.063   1.603  12.143  0.2481  0.0245  0.2285
 3139W        W 3339  12.989  12.130  12.488 -0.1320  0.3218  0.0459
 3140W        W 3340   1.121   7.434   4.193  0.2899  0.3788 -0.0766
 3141W        W 3341   0.601  10.351   2.049  0.0764 -0.0276  0.1107
 3142W        W 3342   6.907  13.273  10.264 -0.0360  0.0835 -0.1437
 3143W        W 3343   1.793  14.377   0.999  0.2225  0.2242  0.0190
 3144W        W 3344  15.130  13.564  13.989 -0.1676 -0.3578  0.0184
 3145W        W 3345  12.804  10.159   3.469 -0.0064 -0.1997 -0.0166
 3146W        W 3346  14.610  11.406  12.470  0.2955  0.0411  0.3000
 3147W        W 3347  12.776  10.932   8.513 -0.1734  0.1622  0.2052
 3148W        W 3348   7.457   4.803   7.724 -0.0583  0.3015  0.0406
 3149W        W 3349   0.240   2.366   6.947  0.2474  0.0039  0.1299
 3150W        W 3350   4.849   5.207   7.928 -0.1987  0.0624 -0.1442
 3151W        W 3351   7.671   7.762   1.819 -0.0268  0.0597  0.0916
 3152W        W 3352   0.793  13.304   2.739 -0.1300 -0.2046  0.1112
 3153W        W 3353   5.824   6.506  13.671  0.0882  0.1507  0.1762
 3154W        W 3354   1.209  10.974  12.754  0.2931  0.0521  0.0097
 3155W        W 3355  13.256  11.691   6.405 -0.0663  0.0251 -0.0499
 3156W        W 3356   6.326  11.679   5.380  0.1644 -0.0235 -0.0467
 3157W        W 3357   7.104   4.585  11.957  0.1024  0.1495 -0.0346
 3158W        W 3358   7.861   6.531  14.724 -0.0749 -0.1778 -0.0191
 3159W        W 3359   6.591   6.869   0.169 -0.0803 -0.1175  0.0984
 3160W        W 3360   2.056   5.237   1.136  0.2740 -0.0905  0.1918
 3161W        W 3361  14.647  11.804   0.012 -0.0175  0.2008 -0.1177
 3162W        W 3362   3.477   7.622   8.724 -0.0655 -0.0255  0.1154
 3163W        W 3363   9.948   1.522  13.902  0.0245  0.2194 -0.1353
 3164W        W 3364   8.302   9.677  15.146 -0.1346 -0.0837 -0.1519
 3165W        W 3365  14.861  13.869   5.957 -0.4138  0.0502  0.1278
 3166W        W 3366  12.253   0.346   3.027 -0.0562  0.0241  0.2320
 3167W        W 3367   0.193   7.740   9.595  0.0718 -0.0885 -0.1077
 3168W        W 3368   0.131   1.085   6.168  0.2786 -0.0332 -0.1967
 3169W        W 3369   8.461   0.326  10.939  0.0509  0.1132 -0.0385
 3170W        W 3370   7.574   1.010   7.997 -0.1427  0.0574 -0.2170
 3171W        W 3371   2.165   6.560  14.503  0.1295 -0.0485  0.1858
 3172W        W 3372   5.965  12.096   4.726  0.0029  0.1959 -0.1492
 3173W        W 3373  12.493   1.583  13.010  0.2550  0.0024 -0.2379
 3174W        W 3374   3.512  11.449   0.688  0.2678 -0.0888 -0.0169
 3175W        W 3375   3.065   7.801   0.456  0.2196 -0.0343  0.3177
 3176W        W 3376   8.386   0.612   0.250  0.1226  0.1508  0.0673
 3177W        W 3377   0.918   3.693  11.804  0.3203  0.1001  0.1506
 3178W        W 3378   5.500   8.284   5.030  0.0777 -0.2806  0.1411
 3179W        W 3379   4.792   7.830   3.503 -0.1103  0.0643  0.1755
 3180W        W 3380  15.139   5.082   4.071  0.1715 -0.2727  0.0143
 3181W        W 3381   7.477   6.871  13.211 -0.0095 -0.0378 -0.0562
 3182W        W 3382   2.973   9.101  14.153  0.0917  0.2130 -0.0986
 3183W        W 3383   1.488   3.838   6.844 -0.2335 -0.3044 -0.0151
 3184W        W 3384   5.361   4.739   4.608  0.1807 -0.0852  0.0590
 3185W        W 3385   4.813   5.394   3.380  0.2832  0.1488 -0.0477
 3186W        W 3386   5.441  13.801  10.061 -0.1130  0.1129  0.0316
 3187W        W 3387  13.977   2.141   1.039 -0.3153  0.0521 -0.3401
 3188W        W 3388  13.005   2.123  13.956  0.3146  0.0335 -0.0618
 3189W        W 3389  14.221  12.845  13.476  0.1262  0.0766 -0.1242
 3190W        W 3390   0.522   2.771   8.112  0.1766  0.0630 -0.2206
 3191W        W 3391   2.073   4.577   7.785 -0.0559  0.4230 -0.0269
 3192W        W 3392   7.619  14.805  13.844  0.1845  0.1418 -0.1070
 3193W        W 3393   1.495  14.617  10.736  0.1554  0.1948 -0.0602
 3194W        W 3394   4.915   5.869   0.582  0.2754  0.1846  0.0771
 3195W        W 3395  11.765  13.482  11.211  0.0722 -0.0424  0.0914
 3196W        W 3396  14.729  11.874  12.689  0.0652  0.0496 -0.0324
 3197W        W 3397  13.164   3.585   9.254 -0.0992  0.0875  0.2548
 3198W        W 3398   7.829   8.325   6.401  0.0930 -0.2374  0.0257
 3199W        W 3399   2.903   2.345   8.168 -0.0798 -0.1004 -0.0501
 3200W        W 3400  11.188   7.457   7.377  0.0715 -0.4244  0.0806
 3201W        W 3401   5.407  12.986   4.080 -0.3759  0.0118 -0.3704
 3202W        W 3402   9.830  12.209  10.008 -0.2414  0.2277 -0.1704
 3203W        W 3403   1.234   1.828   9.492  0.2032  0.3102 -0.2200
 3204W        W 3404   7.762  12.997   2.263 -0.4051 -0.0932 -0.1429
 3205W        W 3405   0.074  13.184   7.344  0.0406  0.2886 -0.1380
 3206W        W 3406   8.891   4.228  12.680  0.6767 -0.0172 -0.1080
 3207W        W 3407   1.589   5.445  14.246 -0.1048 -0.2769  0.2304
 3208W        W 3408   3.866   4.864   6.714  0.0695 -0.2546 -0.2810
 3209W        W 3409   4.120   8.423   0.878 -0.0922 -0.1324 -0.1272
 3210W        W 3410   3.385   1.166  14.496  0.2130 -0.3957 -0.0159
 3211W        W 3411   0.051  12.887   4.403  0.1576 -0.3754  0.2297
 3212W        W 3412   4.247   2.184  13.665 -0.0580 -0.0262 -0.0694
 3213W        W 3413   3.529   9.162   8.600  0.0791 -0.0177 -0.0369
 3214W        W 3414   0.969   6.586   4.076 -0.0430  0.0734 -0.0322
 3215W        W 3415   2.392   3.523   9.409  0.2182  0.0008  0.0704
 3216W        W 3416  14.186   3.657   6.280  0.0690 -0.0327 -0.0580
 3217W        W 3417   5.496   8.110  12.863 -0.2595 -0.1926 -0.2306
 3218W        W 3418  10.925  13.277  12.489  0.0061  0.0535 -0.1201
 3219W        W 3419   9.879   2.447   6.454 -0.2519 -0.0749 -0.0162
 3220W        W 3420   7.992  10.998  15.168  0.0338 -0.2241 -0.2089
 3221W        W 3421  11.283   8.518   5.709 -0.0779 -0.2341  0.0475
 3222W        W 3422  13.152  11.341   3.526 -0.0797  0.2597  0.1094
 3223W        W 3423   7.096  11.822   2.998  0.1513 -0.1010  0.0113
 3224W        W 3424   3.665   9.011  11.844 -0.0236  0.0246  0.3060
 3225W        W 3425  11.519   8.190   9.275 -0.0843 -0.0087 -0.0399
 3226W        W 3426   2.515   8.126  10.462 -0.0632 -0.1639  0.1731
 3227W        W 3427  12.411  13.060   8.905  0.1065 -0.1833  0.0671
 3228W        W 3428   2.616   2.964  11.988  0.2409 -0.2369 -0.0709
 3229W        W 3429  14.844   2.385  10.158  0.0149  0.1173  0.0679
 3230W        W 3430  14.857   2.429   5.628 -0.0545  0.1911 -0.1670
 3231W        W 3431  14.981   4.642  10.157 -0.0473 -0.1409 -0.0569
 3232W        W 3432  12.897   7.133   9.655  0.1871 -0.2897 -0.1748
 3233W        W 3433   3.649   0.360   2.678  0.1879 -0.1280 -0.3651
 3234W        W 3434  14.349   6.090   6.036  0.4085 -0.2053  0.0979
 3235W        W 3435   0.525   0.608  14.829  0.1870  0.3114 -0.0374
 3236W        W 3436   7.254  14.452  14.409  0.2572 -0.0625 -0.2387
 3237W        W 3437   5.072   7.298  11.132 -0.0734  0.4883 -0.1903
 3238W        W 3438  14.064   0.554   9.780 -0.1197  0.0019 -0.1035
 3239W        W 3439  13.498   6.018   0.125 -0.0127  0.2664  0.1228
 3240W        W 3440   1.309   0.966   0.923  0.1246 -0.1139 -0.1604
 3241W        W 3441   1.735   2.057  14.316 -0.0174  0.4621 -0.0656
 3242W        W 3442   6.793  11.625   9.922 -0.2882 -0.4044  0.0922
 3243W        W 3443  10.713   5.379  11.953  0.2268 -0.0680 -0.0617
 3244W        W 3444   4.812   6.285   4.372  0.1108  0.1823 -0.0803
 3245W        W 3445  14.496  11.277  14.361  0.0905 -0.0616  0.2909
 3246W        W 3446  10.825   4.148   5.793 -0.1507  0.0824  0.5743
 3247W        W 3447  14.980   9.411   1.565  0.0482  0.2973  0.0847
 3248W        W 3448   2.247   5.422  12.000 -0.0271 -0.0795  0.0894
 3249W        W 3449   1.169   0.168  10.734 -0.5213 -0.1686  0.2579
 3250W        W 3450   3.329  12.030  13.959  0.1072  0.0716 -0.1306
 3251W        W 3451   9.464   7.079  11.057 -0.3114  0.3732  0.1321
 3252W        W 3452   0.909   2.994  14.826  0.1296  0.0069  0.0388
 3253W        W 3453   3.143  14.244   9.027 -0.1407  0.0292 -0.2443
 3254W        W 3454   3.541   6.738   7.574  0.0089  0.1330 -0.0579
 3255W        W 3455   7.226   7.939  14.951  0.3739 -0.3320 -0.0685
 3256W        W 3456   3.411   1.733  11.469 -0.0537  0.1408  0.1204
 3257W        W 3457  12.360   2.696   8.919 -0.1281 -0.2725  0.4203
 3258W        W 3458   3.168   6.903  12.353 -0.0306 -0.3224 -0.1455
 3259W        W 3459   5.025   9.223   1.155  0.0446  0.4932 -0.1351
 3260W        W 3460   8.730   7.095  12.328 -0.2351  0.0878  0.0228
 3261W        W 3461   8.775   2.198  11.660 -0.1983  0.2950  0.0027
 3262W        W 3462   5.146   7.743  10.925  0.0728  0.1474  0.1192
 3263W        W 3463   5.709   0.039   2.874 -0.3078  0.1388  0.0727
 3264W        W 3464  11.407   2.768   7.815  0.0047 -0.0046 -0.1335
 3265W        W 3465   5.999  12.612   9.766 -0.3470 -0.2186  0.1331
 3266W        W 3466  14.963   0.511  12.565  0.0665 -0.0363 -0.1912
 3267W        W 3467   2.557   6.128   6.165  0.0836 -0.1433  0.0200
 3268W        W 3468   2.311   3.972  13.856  0.1535  0.1470 -0.0248
 3269W        W 3469   0.790   4.160   8.678  0.5674  0.2723 -0.0337
 3270W        W 3470   1.365   8.326  13.569 -0.1453 -0.2724  0.2088
 3271W        W 3471   6.348   8.784   9.371 -0.1944 -0.2411  0.2389
 3272W        W 3472   1.263   9.821  14.657  0.0771 -0.0084 -0.2059
 3273W        W 3473   0.643  10.888   5.128 -0.2684  0.0494 -0.2296
 3274W        W 3474   5.251  12.955  13.562 -0.2216 -0.3315  0.2019
 3275W        W 3475   4.934  12.796  13.904  0.1523  0.0691 -0.1107
 3276W        W 3476   6.303   9.572  11.565 -0.0866 -0.1389 -0.2199
 3277W        W 3477  11.247   7.754   5.219  0.0033 -0.0315  0.1665
 3278W        W 3478  14.183  12.783   2.363  0.2137 -0.1155 -0.0311
 3279W        W 3479  10.415   0.717   9.860  0.0215 -0.0121 -0.3021
 3280W        W 3480   0.587  13.898   5.328 -0.0876 -0.0158 -0.0534
 3281W        W 3481  12.116   5.801   3.743  0.0706 -0.0108 -0.2333
 3282W        W 3482   6.461   5.693   5.597  0.2050 -0.1211  0.2867
 3283W        W 3483  14.500   5.989   4.799 -0.0798  0.0440  0.3583
 3284W        W 3484   4.725   1.922   7.529 -0.0637  0.0596  0.0243
 3285W        W 3485  10.083   9.044   7.627 -0.0891 -0.1353 -0.1408
 3286W        W 3486   4.976  11.032  13.084 -0.1925  0.0239  0.4212
 3287W        W 3487   0.718  14.595  14.183 -0.1874  0.0379 -0.1650
 3288W        W 3488   3.615   5.410   7.664  0.2009  0.0928  0.0351
 3289W        W 3489   4.665   4.083   5.005 -0.1268 -0.1689  0.1250
 3290W        W 3490  13.992   6.151   4.787 -0.1465 -0.1139 -0.2770
 3291W        W 3491   8.304   4.614   9.718  0.0121 -0.0447 -0.1372
 3292W        W 3492  11.050   7.259   5.342  0.1734 -0.1262  0.1864
 3293W        W 3493   5.576  13.625  14.671 -0.0558 -0.0886 -0.1699
 3294W        W 3494   8.870   5.028   4.738 -0.2453 -0.1316  0.1447
 3295W        W 3495   4.495  11.896  10.913 -0.0366 -0.4193  0.1762
 3296W        W 3496   4.615   3.696   8.105  0.3217  0.0406 -0.0203
 3297W        W 3497   0.801   3.965   0.629 -0.2678 -0.3192  0.1616
 3298W        W 3498  13.453  12.413  10.145 -0.3232 -0.1474  0.1927
 3299W        W 3499   0.029   3.795  13.599 -0.1173 -0.1049 -0.2336
 3300W        W 3500  13.937   6.254   5.683  0.0657 -0.1726  0.0112
 3301W        W 3501   3.297   0.530   6.309 -0.1506  0.0548  0.0098
 3302W        W 3502   6.032   7.083   9.458  0.1077 -0.1348 -0.1522
 3303W        W 3503   6.690   2.871  10.425 -0.0355 -0.1242 -0.1043
 3304W        W 3504   2.960   6.443  10.320 -0.0258 -0.2337  0.3202
 3305W        W 3505   6.236   0.072  11.183  0.2014 -0.2355  0.0058
 3306W        W 3506   4.143   8.918   8.045 -0.1216 -0.0758 -0.0113
 3307W        W 3507   1.768   1.828   6.930  0.1923  0.0707 -0.2840
 3308W        W 3508   4.361  11.494  10.678 -0.0223  0.0998  0.1403
 3309W        W 3509   3.229  12.900  13.952 -0.1530 -0.2061  0.3722
 3310W        W 3510   3.338   1.673  14.924 -0.0532 -0.0597  0.0401
 3311W        W 3511   3.353   7.548   2.032  0.2087  0.0511 -0.0532
 3312W        W 3512   7.517   8.933  13.588 -0.2370  0.0981  0.1118
 3313W        W 3513   0.861  13.477  10.254  0.0103 -0.0793  0.1791
 3314W        W 3514   6.549   6.295   6.824  0.1960  0.0983  0.1168
 3315W        W 3515  13.872  10.001   0.295  0.1664 -0.0099  0.1891
 3316W        W 3516   2.178   4.061   2.954 -0.0355 -0.0835  0.0591
 3317W        W 3517   4.705   4.458   8.377 -0.0305 -0.1940  0.0923
 3318W        W 3518   0.475   3.230  14.885 -0.2286  0.2132 -0.1740
 3319W        W 3519   3.592  13.378   0.067  0.2070 -0.1312  0.2907
 3320W        W 3520   8.513  12.200  12.977 -0.0001  0.2685  0.2006
 3321W        W 3521  14.388   7.477   4.226  0.0074 -0.0398  0.0881
 3322W        W 3522  11.115   7.042   6.406  0.2934 -0.0033  0.1726
 3323W        W 3523  15.037   1.385   4.396 -0.0423  0.1554 -0.0796
 3324W        W 3524   7.326   7.974   2.152 -0.1283 -0.0144  0.1912
 3325W        W 3525  12.709  13.454   7.720 -0.4255  0.0760  0.0847
 3326W        W 3526   1.524  13.311  11.216  0.0514 -0.0135 -0.0580
 3327W        W 3527   7.788   2.170   9.302  0.3795 -0.1715 -0.0726
 3328W        W 3528  13.137   2.245   2.249 -0.0875  0.1734  0.1210
 3329W        W 3529   6.281   8.482  14.245 -0.0628  0.0689 -0.0055
 3330W        W 3530   4.793   2.413   6.348  0.0120  0.2196  0.0120
 3331W        W 3531   2.267   8.276  13.183  0.0113 -0.0183  0.0468
 3332W        W 3532   8.073   4.523   4.558 -0.0131 -0.2781 -0.0478
 3333W        W 3533   8.963   7.429   1.608  0.1224 -0.0500 -0.2402
 3334W        W 3534   1.975   8.219   3.863 -0.0109  0.0648  0.0357
 3335W        W 3535   6.791   3.924   4.287 -0.2694 -0.0158 -0.3678
 3336W        W 3536   5.696  12.131   7.300  0.1503 -0.2569  0.2435
 3337W        W 3537   1.463   4.708  12.350  0.0624  0.1249 -0.1675
 3338W        W 3538   3.991   7.617  13.817  0.0440  0.3394 -0.0425
 3339W        W 3539  12.116   4.365  10.888  0.1164 -0.2503 -0.0974
 3340W        W 3540   4.844   6.708   1.200  0.1309 -0.0501  0.1919
 3341W        W 3541   2.051   9.048   5.287  0.0733  0.2540 -0.0069
 3342W        W 3542   0.798  14.181  13.123 -0.0906 -0.0375 -0.0789
 3343W        W 3543  12.740   5.576  14.247 -0.3725  0.0508  0.0579
 3344W        W 3544   6.706   4.208   7.120 -0.2785 -0.1678  0.0305
 3345W        W 3545   4.215   6.230  11.891  0.0863  0.0800  0.2455
 3346W        W 3546   3.872   9.597  11.100 -0.2383 -0.0160  0.1576
 3347W        W 3547  14.262   2.793   6.188 -0.2302 -0.0441  0.0839
 3348W        W 3548  10.180   9.830   6.328 -0.1699  0.1406  0.1390
 3349W        W 3549   9.627   0.389   6.348  0.0996 -0.1423 -0.2120
 3350W        W 3550  11.557   9.237   0.426  0.0495 -0.0669  0.2900
 3351W        W 3551   6.040   3.600  11.639 -0.0692  0.0459 -0.0036
 3352W        W 3552   0.674  11.567   4.591 -0.0405  0.3155  0.0867
 3353W        W 3553  14.433   9.901   4.590 -0.1229 -0.2410 -0.0968
 3354W        W 3554  14.340   3.697   0.367  0.0327 -0.0015  0.2566
 3355W        W 3555  13.410   6.364   0.509 -0.0465  0.0741  0.3187
 3356W        W 3556  14.550  12.599   7.404  0.0850 -0.1188 -0.0063
 3357W        W 3557   3.488   2.748  11.417 -0.0535  0.2465  0.3559
 3358W        W 3558  13.546  11.537   3.449 -0.1083  0.0133  0.2956
 3359W        W 3559   5.270   5.898   1.009  0.1361 -0.1939  0.1744
 3360W        W 3560  13.880   8.398   4.046 -0.2762  0.0181  0.1216
 3361W        W 3561  12.991  12.165   4.120  0.0304 -0.0813 -0.0583
 3362W        W 3562   9.609   4.679  11.899  0.1583  0.0689 -0.1837
 3363W        W 3563   0.808  10.194   1.600 -0.1436 -0.3653  0.4182
 3364W        W 3564   6.088   1.893   0.781  0.0990  0.1492 -0.2712
 3365W        W 3565   1.027   5.355   1.945 -0.1923  0.0538  0.2825
 3366W        W 3566   3.237   2.054  13.902 -0.1239 -0.0711  0.4445
 3367W        W 3567   9.200   5.828   4.440 -0.1257 -0.2029 -0.1753
 3368W        W 3568   3.798  12.000   9.620  0.1995  0.1317 -0.0449
 3369W        W 3569   3.871   6.593  10.051 -0.1010 -0.0340 -0.0069
 3370W        W 3570   3.150   3.637   0.277 -0.1735 -0.0029  0.0204
 3371W        W 3571   1.254   5.894   0.953  0.0407  0.1103 -0.1707
 3372W        W 3572   0.490   3.190   0.391 -0.0496  0.0220 -0.0259
 3373W        W 3573   6.540   2.353   3.048 -0.2436  0.0265 -0.1507
 3374W        W 3574  13.186   3.107   7.786 -0.2317  0.2117 -0.0023
 3375W        W 3575   1.201  13.751   9.065  0.1234 -0.3552 -0.2152
 3376W        W 3576  10.538   7.004  14.938 -0.0294 -0.3552 -0.3952
 3377W        W 3577   8.872   0.296   8.411 -0.1062  0.1910  0.2691
 3378W        W 3578   5.929  12.887  13.117  0.1066  0.2529 -0.1039
 3379W        W 3579  11.957   5.654   0.156  0.0625  0.2658  0.0133
 3380W        W 3580   7.422   0.746  11.236  0.0139  0.1572 -0.0415
 3381W        W 3581  10.512   7.455   0.035  0.1786  0.1217  0.5185
 3382W        W 3582   3.892   2.466   4.006 -0.3506  0.1452  0.1602
 3383W        W 3583   1.121   9.636   4.157  0.0603  0.0795 -0.0723
 3384W        W 3584  14.739   2.031   4.148  0.0120  0.2627  0.0263
 3385W        W 3585   2.468   5.296   8.492  0.0221  0.0834  0.0981
 3386W        W 3586   0.153   1.236  14.621 -0.0473  0.0809  0.1262
 3387W        W 3587   6.824   7.605  10.657 -0.0183 -0.1836 -0.0816
 3388W        W 3588   1.987   2.628  14.341  0.0025  0.1202  0.0532
 3389W        W 3589  11.355  11.890  13.653 -0.1408  0.0054 -0.0109
 3390W        W 3590   2.176   6.393   5.731 -0.0403 -0.1173  0.3243
 3391W        W 3591   1.617   4.171  11.956  0.2629  0.1390 -0.0327
 3392W        W 3592   2.744  13.470   2.599  0.0423  0.1765 -0.2122
 3393W        W 3593   0.663   3.829   5.179 -0.0626  0.2413  0.1602
 3394W        W 3594   7.204   7.001   2.977  0.3537 -0.1679  0.0221
 3395W        W 3595  10.969  11.355  14.244 -0.1520  0.4505 -0.4728
 3396W        W 3596  11.490   6.104   3.755 -0.1813 -0.1784 -0.1291
 3397W        W 3597   2.108  10.625  12.845 -0.0490 -0.1347  0.3883
 3398W        W 3598   6.622  11.408  10.865  0.3703 -0.2285  0.0437
 3399W        W 3599  10.557   9.659  11.267 -0.0926 -0.1845 -0.0544
 3400W        W 3600  13.079  13.878  13.357  0.2909 -0.3830  0.3136
 3401W        W 3601   1.343   3.587   3.641 -0.1570 -0.1593 -0.2431
 3402W        W 3602   1.936  12.442  12.634  0.0431  0.0558 -0.0124
 3403W        W 3603   0.707  10.998   3.691  0.0896 -0.0356  0.2982
 3404W        W 3604   5.236   4.735   0.113 -0.1541 -0.0682 -0.1130
 3405W        W 3605   4.411  11.391   3.579  0.2606  0.0618  0.2219
 3406W        W 3606   4.306   8.389  13.779 -0.0295  0.0050  0.0216
 3407W        W 3607   0.881   7.335   6.368  0.1681  0.0875  0.0177
 3408W        W 3608   2.336   8.016   9.196 -0.0737 -0.0658  0.0806
 3409W        W 3609  13.305   9.073   5.018  0.1589  0.1562  0.3873
 3410W        W 3610  13.042  14.641  11.954  0.0912  0.1357 -0.2834
 3411W        W 3611   7.256  13.236   0.661 -0.5285  0.0756 -0.3732
 3412W        W 3612   0.129   7.018  13.538  0.2792 -0.0637 -0.0955
 3413W        W 3613   2.194  12.174   2.642 -0.0668 -0.2171  0.2618
 3414W        W 3614  14.872   5.050  14.469 -0.0663 -0.0475 -0.1093
 3415W        W 3615   5.409  11.332   6.602  0.1761 -0.1379  0.2427
 3416W        W 3616  14.705  14.421   5.869 -0.2244 -0.0766  0.1626
 3417W        W 3617   7.794  11.002   4.936  0.0145 -0.4101  0.1510
 3418W        W 3618   1.103  10.194   5.611  0.2025  0.2870 -0.3557
 3419W        W 3619  12.942   3.910  10.931  0.2090 -0.1177  0.1502
 3420W        W 3620  11.796   1.152   1.559  0.1256  0.1538 -0.0198
 3421W        W 3621   4.403  12.540   2.217  0.0664  0.1639  0.1219
 3422W        W 3622   8.190  12.281   9.368 -0.0152  0.0666  0.0709
 3423W        W 3623   2.134   8.776   0.163  0.1019 -0.0360  0.1949
 3424W        W 3624   8.919   3.752  13.008  0.1661  0.2315 -0.1012
 3425W        W 3625  13.950  10.827  12.264 -0.3301  0.0334  0.3411
 3426W        W 3626   4.221   7.560   1.702  0.1694  0.0495 -0.0140
 3427W        W 3627   6.937   7.220   8.553  0.0062  0.2840 -0.0407
 3428W        W 3628   8.005   8.051   5.481  0.2292 -0.0487 -0.0310
 3429W        W 3629   6.425   5.410  12.261 -0.2439  0.0397 -0.0733
 3430W        W 3630  13.580   5.967   8.343 -0.1530  0.0743  0.1074
 3431W        W 3631   1.092   9.324  10.371 -0.0473  0.1128 -0.1525
 3432W        W 3632  14.327   3.923  15.098  0.1557  0.2692  0.1849
 3433W        W 3633   8.611  13.060   7.073  0.3040  0.2351 -0.0580
 3434W        W 3634   1.326   2.461  13.802  0.0789  0.2679 -0.0007
 3435W        W 3635   2.002   4.773  13.831 -0.1381  0.0169  0.1752
 3436W        W 3636   3.988  14.623   3.199 -0.0151  0.2054  0.0858
 3437W        W 3637  10.422   1.649  14.542  0.0297 -0.3470  0.1282
 3438W        W 3638  12.939   8.017   4.533 -0.0311  0.0143  0.1920
 3439W        W 3639   9.477   5.673   4.841 -0.0391  0.1137  0.2436
 3440W        W 3640   2.850   7.958   4.257 -0.0947  0.2960  0.1057
 3441W        W 3641   1.339   1.139  10.949  0.2025  0.0967  0.0959
 3442W        W 3642   0.370   1.031   5.731 -0.2652  0.3033 -0.3168
 3443W        W 3643   3.280   8.779  13.850 -0.0293  0.0978  0.1737
 3444W        W 3644   0.757  11.280   2.353  0.4146  0.3452 -0.2390
 3445W        W 3645  12.208  12.385   7.129 -0.0101 -0.1567  0.1602
 3446W        W 3646   3.408   5.026  14.655  0.1122 -0.0423  0.2425
 3447W        W 3647   9.783   6.266   3.284  0.2962 -0.1415 -0.1957
 3448W        W 3648   1.351   2.000  13.499  0.1627  0.0703  0.2813
 3449W        W 3649  12.195   8.892  10.560  0.0880 -0.2082 -0.1831
 3450W        W 3650   0.554   9.307   3.230  0.2935 -0.1362 -0.1315
 3451W        W 3651   6.371   3.100  14.988 -0.1640 -0.1047 -0.1012
 3452W        W 3652   0.225  12.130   5.510  0.1699 -0.1294 -0.0221
 3453W        W 3653  14.419   0.387  12.450 -0.0452 -0.0532  0.2590
 3454W        W 3654  14.233   5.273   6.674  0.2585 -0.0394  0.4032
 3455W        W 3655  10.337   2.394   1.560  0.2238  0.3401 -0.2416
 3456W        W 3656   3.295   6.674   3.341  0.2135 -0.2106  0.1321
 3457W        W 3657  13.056  11.983   5.014  0.5212  0.4173  0.0306
 3458W        W 3658   5.308  11.538   2.801 -0.0001 -0.2695 -0.1409
 3459W        W 3659   3.134   9.737   2.527  0.1562  0.0682  0.1216
 3460W        W 3660   7.614   6.840   8.128  0.0264 -0.3189 -0.2946
 3461W        W 3661   6.788  12.016  10.549  0.1591  0.1118 -0.0971
 3462W        W 3662  10.550   9.229  14.479  0.1062 -0.1653 -0.0542
 3463W        W 3663   0.526   7.889   0.143 -0.2782 -0.1641 -0.5094
 3464W        W 3664   0.123  10.772   9.904 -0.1612  0.1692  0.1992
 3465W        W 3665  13.949  14.870   3.846  0.1327  0.0939  0.0376
 3466W        W 3666   1.547   9.778   1.382 -0.0692 -0.1175  0.2092
 3467W        W 3667   9.998   9.502   7.928  0.0501 -0.0199  0.1499
 3468W        W 3668   5.417   8.978   8.423  0.0262 -0.2148  0.2005
 3469W        W 3669   2.485   5.495  13.879 -0.0317  0.1932  0.0844
 3470W        W 3670  13.084   1.678   4.652  0.0071 -0.1259 -0.1706
 3471W        W 3671   1.009  13.696   2.973 -0.1911  0.3036 -0.5371
 3472W        W 3672   1.137   4.810   0.935  0.0836 -0.2236 -0.0074
 3473W        W 3673  13.352   5.256  10.174  0.0717  0.3257  0.2080
 3474W        W 3674   2.140  10.180   9.696 -0.3532 -0.0539  0.0886
 3475W        W 3675   2.735   8.276   5.241 -0.2853  0.1347  0.0050
 3476W        W 3676   7.538  13.947   0.390 -0.2112  0.1991 -0.1661
 3477W        W 3677   4.122   9.736   3.984  0.0982  0.3985  0.1041
 3478W        W 3678  10.069   3.921   2.490  0.2670  0.1759  0.1328
 3479W        W 3679   2.575   4.516   0.082  0.0573  0.1126  0.2196
 3480W        W 3680   7.621  11.808   9.402  0.0058  0.1815  0.0091
 3481W        W 3681  11.007   3.025   0.970  0.0209 -0.2931  0.2899
 3482W        W 3682   3.565   1.511   0.180  0.1428  0.2379 -0.2966
 3483W        W 3683  10.565   5.412  12.779  0.0994  0.2091  0.2351
 3484W        W 3684   1.109   1.831   0.436  0.0177 -0.1315 -0.0492
 3485W        W 3685  13.534   7.850   9.711  0.2837  0.1337  0.1040
 3486W        W 3686  12.375  12.149   1.807 -0.0568 -0.4279  0.1188
 3487W        W 3687  10.466  14.780   1.451 -0.0090 -0.0599  0.0911
 3488W        W 3688   7.433   6.201   6.290 -0.0024 -0.2338 -0.0778
 3489W        W 3689   5.148   1.150  13.473  0.2396  0.2142 -0.1528
 3490W        W 3690   7.707  12.909   0.686  0.2334  0.1420 -0.0140
 3491W        W 3691   4.397   7.155   2.619  0.1803  0.1152  0.0089
 3492W        W 3692   3.051   8.389   1.992  0.3469  0.1645 -0.1375
 3493W        W 3693   2.896  11.889   9.466 -0.2123  0.1766  0.3456
 3494W        W 3694  14.579  13.654  11.839  0.0113 -0.3282  0.3526
 3495W        W 3695  14.140  13.385  12.591 -0.0691 -0.0123  0.0555
 3496W        W 3696   0.454   0.059   7.840  0.1461 -0.1886 -0.1264
 3497W        W 3697   5.731   6.069   1.191 -0.0472 -0.0380 -0.1748
 3498W        W 3698   5.167   1.441   9.863 -0.0178 -0.0987  0.5039
 3499W        W 3699   4.873  12.214   4.308 -0.0723  0.1346 -0.1029
 3500W        W 3700   4.241   8.733   5.198 -0.1833  0.0770  0.2139
 3501W        W 3701   8.936   4.560   3.395  0.2835 -0.0048  0.0037
 3502W        W 3702  12.691  10.938  10.833  0.0325  0.0580  0.4205
 3503W        W 3703  14.690   2.532  12.030  0.2667 -0.2644  0.0334
 3504W        W 3704   7.930   2.306  12.519  0.1476  0.2317  0.1010
 3505W        W 3705  14.987  12.908  15.054  0.1641 -0.0416 -0.1802
 3506W        W 3706   3.997   1.108   1.486 -0.1953 -0.2586  0.1055
 3507W        W 3707   8.433  15.059   0.513  0.0765 -0.2698 -0.3651
 3508W        W 3708   3.666   2.380   1.918 -0.0774  0.0402 -0.0956
 3509W        W 3709   2.965  13.694   2.994 -0.1757 -0.1292 -0.1039
 3510W        W 3710  13.632   9.856  13.831 -0.6395 -0.0268 -0.2817
 3511W        W 3711   3.375  11.008  10.586 -0.0366 -0.1392 -0.1082
 3512W        W 3712   1.329  10.878  13.587  0.1885  0.2921  0.0403
 3513W        W 3713   8.331  14.019   3.952  0.2189  0.0299 -0.2216
 3514W        W 3714  14.784  11.077   5.211  0.0224  0.0185 -0.1581
 3515W        W 3715   7.090   9.964   2.754 -0.0217  0.1305  0.2059
 3516W        W 3716   1.900   4.215   0.516 -0.0325  0.1101 -0.2458
 3517W        W 3717  10.972   1.542   7.566  0.3012  0.4575 -0.2100
 3518W        W 3718  10.744   8.780  10.459 -0.0889 -0.0536  0.0175
 3519W        W 3719  14.617  10.381   3.891  0.3734  0.0569 -0.2710
 3520W        W 3720   1.737   9.063  14.278 -0.1505  0.1018 -0.0043
 3521W        W 3721   2.241   3.323   2.352  0.1260  0.0243 -0.1776
 3522W        W 3722  13.566   3.699   6.312 -0.1432  0.0558  0.0572
 3523W        W 3723  14.546   6.323  11.594  0.3460 -0.0495  0.0518
 3524W        W 3724   8.668   3.411  11.808 -0.1097  0.0262  0.1013
 3525W        W 3725  11.708   8.429   5.393  0.2832  0.4885 -0.1292
 3526W        W 3726  13.036   9.028   9.903 -0.1701  0.0410 -0.2004
 3527W        W 3727   3.087   3.464   2.449  0.1859  0.1697  0.1779
 3528W        W 3728  12.421   6.082   5.430 -0.1483  0.1932 -0.0782
 3529W        W 3729   1.405   6.401   1.136 -0.1509 -0.0609 -0.1065
 3530W        W 3730   3.356   9.302  13.953 -0.0380  0.0734  0.2515
 3531W        W 3731   6.151  12.487   1.331  0.0443  0.0260  0.0044
 3532W        W 3732   2.875   7.244   4.938 -0.0051 -0.0048  0.0249
 3533W        W 3733   2.565   6.061   2.653  0.1796 -0.2197  0.1452
 3534W        W 3734   1.174   8.117  11.876  0.0736  0.4113  0.0679
 3535W        W 3735  12.058  11.821   0.835  0.0660 -0.1697  0.1059
 3536W        W 3736   9.222  11.640   0.080  0.1603 -0.0539 -0.1427
 3537W        W 3737   1.977   9.959   7.813  0.1633  0.3297 -0.1178
 3538W        W 3738   5.935   8.010   5.121  0.0160 -0.1431  0.2219
 3539W        W 3739   4.904   6.206   0.186  0.2290 -0.1105  0.0234
 3540W        W 3740  14.810  12.397   4.136 -0.0494 -0.4201 -0.0458
 3541W        W 3741  14.945   4.912   8.202 -0.0078  0.0506  0.1038
 3542W        W 3742  11.858   0.199   8.375 -0.1178 -0.2648  0.0926
 3543W        W 3743   1.685   4.745  11.170  0.1270 -0.0904  0.3475
 3544W        W 3744   5.393  13.897   1.090  0.3361 -0.1925 -0.4183
 3545W        W 3745  14.779   9.119  14.660  0.0589 -0.1307  0.1796
 3546W        W 3746  10.494   8.196  10.591  0.0285 -0.1126 -0.0349
 3547W        W 3747  12.365  13.885   6.774  0.0544  0.3803 -0.0915
 3548W        W 3748  12.518  12.769   4.480 -0.1159  0.3389 -0.2106
 3549W        W 3749   8.231   8.301   3.458  0.4695  0.1651  0.1952
 3550W        W 3750  12.540   3.267   1.170  0.0998  0.1249 -0.0292
 3551W        W 3751   1.611  10.506   0.830 -0.2233 -0.3588 -0.2347
 3552W        W 3752   0.902   4.177  12.986 -0.0025 -0.0886  0.1122
 3553W        W 3753   7.776   6.322   2.792 -0.2270  0.2540 -0.1162
 3554W        W 3754  13.361  14.121  11.077 -0.1414 -0.2005 -0.0518
 3555W        W 3755   0.778   7.937  12.710  0.0001 -0.1818  0.1505
 3556W        W 3756   5.152   7.768   3.156 -0.0015  0.0749 -0.0458
 3557W        W 3757   5.454  11.678   8.248  0.2800 -0.0388 -0.1047
 3558W        W 3758  11.695   0.373  10.936  0.0383  0.1352  0.0370
 3559W        W 3759  12.059   8.912   2.216  0.0581  0.0636 -0.4471
 3560W        W 3760  10.888  12.484   4.811  0.1042  0.0342  0.0628
 3561W        W 3761  13.042   8.119  14.755 -0.1268 -0.2292 -0.1073
 3562W        W 3762  10.586   0.856  13.573 -0.2226  0.2567  0.1807
 3563W        W 3763  11.735   7.611   5.259 -0.0753 -0.0551 -0.0121
 3564W        W 3764   5.807   9.940   0.189 -0.3227 -0.2141 -0.3094
 3565W        W 3765  12.437  10.589   1.712  0.3078 -0.1931  0.0474
 3566W        W 3766   4.378   5.385  12.544  0.0074 -0.0206 -0.3483
 3567W        W 3767   0.703   4.488  12.073 -0.1461 -0.0259  0.3887
 3568W        W 3768   1.168   0.363  11.214  0.0019 -0.1353 -0.1023
 3569W        W 3769   9.616   7.145   2.037 -0.0562  0.4034  0.1202
 3570W        W 3770   4.003  13.917   2.194 -0.0060  0.1149 -0.3227
 3571W        W 3771  13.898   9.493   2.175  0.0920  0.1487 -0.1312
 3572W        W 3772  14.045   9.085  13.547  0.0121 -0.1713  0.0687
 3573W        W 3773   5.955  10.888   3.903 -0.2131  0.1893 -0.0378
 3574W        W 3774   8.120   8.389   3.946 -0.0437  0.1957 -0.3975
 3575W        W 3775  13.640   9.830   1.453  0.1662 -0.0068 -0.4144
 3576W        W 3776   9.949  12.277   8.519 -0.3053  0.2642 -0.0948
 3577W        W 3777  10.673   2.501  11.016 -0.0897 -0.2725  0.1602
 3578W        W 3778   2.699   5.904   3.098  0.1051 -0.0583 -0.4354
 3579W        W 3779   4.451   2.510   9.240 -0.0135  0.2133 -0.0776
 3580W        W 3780   7.685  12.883   1.182 -0.1939  0.1294  0.4578
 3581W        W 3781  11.382  10.389  13.317 -0.0345  0.0250  0.0566
 3582W        W 3782  10.014   8.162   5.999  0.3702 -0.0086 -0.0531
 3583W        W 3783  14.716   7.632  12.471 -0.1559  0.2995 -0.1914
 3584W        W 3784   2.450  10.399   0.681  0.1479 -0.2903  0.0217
 3585W        W 3785   1.437  14.386  13.752 -0.0532 -0.1454 -0.1529
 3586W        W 3786   9.643   3.839   3.746 -0.1290  0.2800  0.0264
 3587W        W 3787  11.949  10.375   4.906  0.1377  0.1310  0.0625
 3588W        W 3788  14.621   6.489   7.257  0.0351  0.1327 -0.1407
 3589W        W 3789   0.051   1.437  14.051  0.2972  0.3829  0.2058
 3590W        W 3790  14.665   7.284   9.272  0.0379 -0.0783 -0.2399
 3591W        W 3791   0.743  14.311  13.730 -0.3056  0.2180 -0.2634
 3592W        W 3792   5.842   0.226   0.246  0.3211 -0.2226 -0.2926
 3593W        W 3793  14.933   8.991   0.606 -0.0829 -0.3093  0.0529
 3594W        W 3794  13.738  11.447   6.260 -0.1233 -0.0358 -0.0587
 3595W        W 3795   8.046  10.624   7.548 -0.2619  0.3612 -0.4352
 3596W        W 3796   3.163  11.060   8.489  0.0806  0.1479 -0.0829
 3597W        W 3797   7.307  12.644  13.291 -0.1055  0.2605 -0.0799
 3598W        W 3798   0.565   2.895   3.551  0.0926 -0.0451  0.0684
 3599W        W 3799   0.992  12.676   2.605 -0.4681  0.2275  0.1074
 3600W        W 3800   3.978  12.288   9.290  0.0101 -0.1164  0.0346
 3601W        W 3801  11.853   8.874  11.864 -0.0183 -0.0000  0.1321
 3602W        W 3802  10.017  11.587   2.634  0.0076  0.0379  0.0241
 3603W        W 3803   1.890  12.337   2.192  0.0409 -0.2178 -0.0080
 3604W        W 3804   7.962   0.227   1.173 -0.0451 -0.0425 -0.3291
 3605W        W 3805  12.266  13.160   2.914 -0.2341 -0.0793  0.0331
 3606W        W 3806   8.947   7.424  13.229  0.3674  0.0820 -0.2093
 3607W        W 3807  14.105   8.477  13.431 -0.1200  0.1071  0.1531
 3608W        W 3808  12.520   7.227   7.941 -0.1629  0.3699 -0.1523
 3609W        W 3809   6.552   6.219   0.890 -0.2209  0.0994 -0.1768
 3610W        W 3810   3.846  15.153   2.919 -0.2452  0.3218 -0.1802
 3611W        W 3811  12.367   6.683  10.660  0.0800 -0.1047  0.2809
 3612W        W 3812  14.323  13.286  14.471  0.3586  0.3994 -0.4150
 3613W        W 3813  11.481   3.961   0.232  0.1270  0.0489 -0.1000
 3614W        W 3814  11.741  15.118   0.354 -0.1289 -0.0171 -0.1079
 3615W        W 3815   3.829  13.383   4.879 -0.1356 -0.0312  0.1057
 3616W        W 3816  13.893  12.528   4.036 -0.1395 -0.1450 -0.1075
 3617W        W 3817   5.345   5.648   8.876  0.1378  0.3263  0.0486
 3618W        W 3818   5.950   0.652  13.956  0.0217 -0.0700  0.0832
 3619W        W 3819  12.436  11.304   2.934 -0.1286 -0.1489 -0.1422
 3620W        W 3820  14.852   8.634  11.952 -0.0488  0.0664 -0.1211
 3621W        W 3821   2.859  13.258   0.161  0.2292 -0.0598  0.1355
 3622W        W 3822   4.451   9.154   4.918 -0.0483 -0.1686 -0.1690
 3623W        W 3823   4.805   0.457   9.793 -0.0928  0.1046  0.0702
 3624W        W 3824   6.160   1.683  10.317 -0.1052  0.0615 -0.0973
 3625W        W 3825  13.914   5.986   3.986 -0.3573  0.1935  0.0800
 3626W        W 3826  12.807   8.476   2.683  0.0600  0.0529  0.0299
 3627W        W 3827  14.944  14.027  11.247 -0.3695 -0.0687  0.2397
 3628W        W 3828   8.490   2.423   1.945 -0.0258 -0.1940  0.1661
 3629W        W 3829   0.020   8.162  11.945  0.2498  0.3741 -0.0207
 3630W        W 3830  11.838  12.205   1.118  0.1316  0.0416  0.3967
 3631W        W 3831   6.129   4.605  10.734  0.1802  0.0425 -0.0823
 3632W        W 3832   6.743  13.060  12.275  0.2620 -0.0387 -0.0139
 3633W        W 3833   0.645   8.876  13.267 -0.3485 -0.1286 -0.1861
 3634W        W 3834  10.961  11.784  14.544 -0.1939  0.1128 -0.0947
 3635W        W 3835   5.568   4.296   2.738 -0.1870  0.0837 -0.2309
 3636W        W 3836   3.137   5.302   0.223 -0.1464  0.0846 -0.1089
 3637W        W 3837  13.024   6.892   3.537 -0.0350  0.1148  0.0224
 3638W        W 3838   5.304   2.860   0.561 -0.3151 -0.1790  0.0820
 3639W        W 3839   2.598   3.756   4.115 -0.2696 -0.2679 -0.0496
 3640W        W 3840   4.388  14.842   3.863  0.0647  0.0138  0.0672
 3641W        W 3841   3.625  10.662   3.532  0.3214  0.1254 -0.2084
 3642W        W 3842   6.481   6.162   6.147  0.3951 -0.3609 -0.0093
 3643W        W 3843   0.788  14.858   0.887 -0.0889  0.0423  0.1662
 3644W        W 3844  14.127   2.941  14.795  0.3100  0.3557 -0.1999
 3645W        W 3845  11.702   7.765   3.038  0.1126  0.1511 -0.0507
 3646W        W 3846  13.809   7.596   2.271 -0.6120  0.0695  0.0295
 3647W        W 3847   6.672   3.928   6.236 -0.1962  0.3113  0.1857
 3648W        W 3848   2.321   6.815  14.990  0.0716 -0.0748  0.4240
 3649W        W 3849  11.351  11.839   7.569  0.0432 -0.0995  0.0019
 3650W        W 3850   2.639   6.801   5.439 -0.1220 -0.3201 -0.2140
 3651W        W 3851   0.193   0.131   4.149  0.4628 -0.1205  0.0715
 3652W        W 3852   8.229   4.106   8.381 -0.4608 -0.0517  0.0851
 3653W        W 3853  11.782   4.672   0.563 -0.3525  0.1448  0.0407
 3654W        W 3854   4.259  14.287  14.498  0.0458 -0.0764  0.2230
 3655W        W 3855  10.482   1.223   2.362  0.0630  0.3182  0.2917
 3656W        W 3856   8.828  12.798  10.395 -0.4156  0.1256 -0.1966
 3657W        W 3857  13.366   9.315   3.360 -0.0431  0.0876 -0.1610
 3658W        W 3858   5.832   1.051   4.489  0.0212 -0.2384  0.1732
 3659W        W 3859   7.830   0.669   0.297 -0.1627  0.0455  0.2206
 3660W        W 3860   9.226   5.996   1.096 -0.0074  0.1532  0.0562
 3661W        W 3861   4.130   8.870  11.651 -0.2691  0.3352  0.0636
 3662W        W 3862  13.537  14.496  14.003 -0.3677  0.0782  0.2181
 3663W        W 3863  14.135   9.612  11.913 -0.2441 -0.0238 -0.1973
 3664W        W 3864   2.767  10.276  10.962 -0.3674 -0.1263  0.2373
 3665W        W 3865   8.043  14.184   0.557  0.0238 -0.0649  0.1389
 3666W        W 3866  12.018   5.597  10.494 -0.0053 -0.0726  0.1871
 3667W        W 3867  14.464   1.064  14.991 -0.1025 -0.0279 -0.1480
 3668W        W 3868   3.541   0.469   9.398 -0.1560  0.0805 -0.2708
 3669W        W 3869   5.727   7.107   5.934  0.0186  0.2136 -0.1086
 3670W        W 3870  11.548   7.064   5.983  0.0322  0.0756 -0.0109
 3671W        W 3871   5.296   9.052   2.624  0.0803 -0.1674  0.0428
 3672W        W 3872   9.615  13.181   0.803  0.1904  0.1095  0.2384
 3673W        W 3873   8.623   7.334   6.833  0.2998 -0.2809 -0.1003
 3674W        W 3874  13.431   9.650   7.184 -0.1498 -0.1218  0.4625
 3675W        W 3875  11.680  12.228   4.434 -0.2207  0.4874 -0.1577
 3676W        W 3876  12.879   9.375   5.451  0.0573 -0.1247  0.1451
 3677W        W 3877  13.572   4.235  12.849  0.1638 -0.1932  0.1456
 3678W        W 3878   9.110   0.049   3.453  0.3079  0.0022  0.2929
 3679W        W 3879   2.134   7.397   6.641 -0.0166 -0.1659 -0.3397
 3680W        W 3880   2.724   1.369  14.806 -0.2608 -0.0090  0.0659
 3681W        W 3881   6.202   4.593   1.627 -0.0507  0.0451  0.1860
 3682W        W 3882  13.557   8.935  11.785  0.0694 -0.1297  0.2788
 3683W        W 3883   6.263  10.574  10.710  0.0718  0.0697  0.0176
 3684W        W 3884   7.105  13.295   5.403  0.1643 -0.1721 -0.0540
 3685W        W 3885  13.040  13.879   1.847  0.0848  0.2348 -0.1537
 3686W        W 3886   1.915  14.654   5.487  0.0510 -0.1115 -0.2692
 3687W        W 3887   2.709   4.190   9.152  0.1833 -0.0395 -0.1028
 3688W        W 3888  10.249  11.638   1.045  0.0170 -0.1317  0.0495
 3689W        W 3889   4.318  13.538   7.806  0.3961 -0.0681  0.1162
 3690W        W 3890  10.925   2.985  11.064 -0.1665 -0.3049  0.1462
 3691W        W 3891   5.316   9.666  15.181  0.1836  0.0722  0.0224
 3692W        W 3892  10.699   8.849   0.583  0.0956  0.2739 -0.3308
 3693W        W 3893   3.859   6.501  11.310  0.2835  0.1853  0.0769
 3694W        W 3894   1.142  13.656   4.586 -0.1066 -0.0762 -0.0523
 3695W        W 3895  15.058   8.412   5.994  0.1324 -0.3480  0.1805
 3696W        W 3896   3.720  10.429   0.666  0.2615  0.4588 -0.2397
 3697W        W 3897   3.244   1.707  14.233  0.2671 -0.0527  0.0477
 3698W        W 3898  12.869   6.485   7.187  0.2820  0.2226 -0.1037
 3699W        W 3899   5.074  10.411   6.094 -0.2158 -0.0085  0.1080
 3700W        W 3900   7.927   9.066   1.290 -0.2013 -0.2552  0.1493
 3701W        W 3901   8.902  10.903  10.093  0.1096  0.4772  0.0859
 3702W        W 3902  11.082  10.630   9.331  0.0388  0.1015  0.0297
 3703W        W 3903  14.129   9.652   6.019  0.0026  0.1752 -0.1660
 3704W        W 3904   5.143  14.862  14.656  0.0315 -0.0151  0.1453
 3705W        W 3905   8.566   5.122   1.905 -0.5141  0.1410 -0.0383
 3706W        W 3906   6.676  13.666   1.509  0.1266 -0.3304  0.3612
 3707W        W 3907   0.211   0.821   7.271 -0.0792 -0.2733 -0.0898
 3708W        W 3908   4.937  14.397   0.606  0.1239  0.0880  0.0452
 3709W        W 3909   3.949  10.606   8.583  0.1876 -0.1721  0.1445
 3710W        W 3910  12.436  12.495  10.928 -0.0693  0.0460 -0.1206
 3711W        W 3911   7.713  14.853  13.339 -0.1960  0.0029  0.3047
 3712W        W 3912   2.458  10.803   1.657 -0.0987  0.0205 -0.0059
 3713W        W 3913   2.999   7.340   2.939  0.2001  0.0520 -0.1458
 3714W        W 3914   2.779   9.695   5.594 -0.1251 -0.2692 -0.3448
 3715W        W 3915   6.408  10.086  11.545 -0.0804 -0.2566 -0.0357
 3716W        W 3916   2.260  11.623   2.451  0.0063  0.0011  0.2766
 3717W        W 3917   1.288  14.345  12.279 -0.1269  0.2932 -0.1375
 3718W        W 3918   2.247   4.385   9.102  0.2099  0.1500 -0.0150
 3719W        W 3919  12.560  13.434   7.177  0.2141 -0.2770  0.1607
 3720W        W 3920   5.607  13.155   8.426  0.1438  0.0253  0.0560
 3721W        W 3921   0.750   2.694  13.982  0.0354  0.0048 -0.1461
 3722W        W 3922  13.781  11.465   6.720 -0.1048 -0.0218  0.0035
 3723W        W 3923  11.992  13.647   0.665  0.0709  0.2780  0.0428
 3724W        W 3924   4.267   3.146  14.016 -0.0053  0.0525  0.3172
 3725W        W 3925   2.685   8.058   1.101 -0.1815 -0.0053  0.0849
 3726W        W 3926   8.962  14.389  10.129  0.0090 -0.3573  0.6401
 3727W        W 3927  12.945   2.381   2.832  0.0131  0.1423  0.0397
 3728W        W 3928   4.191   1.305  14.585 -0.1628  0.1218 -0.3332
 3729W        W 3929  12.463  10.300   4.938  0.1732 -0.2138 -0.1020
 3730W        W 3930   2.572   5.221   1.068 -0.2756 -0.1024  0.0278
 3731W        W 3931   0.903   3.600   3.937  0.1903 -0.0491  0.1323
 3732W        W 3932   1.057  11.431   5.755 -0.0931 -0.1120  0.1376
 3733W        W 3933  14.721  12.236   8.263 -0.1373 -0.2025 -0.1472
 3734W        W 3934   6.563  11.829   3.157 -0.0630  0.1620 -0.0835
 3735W        W 3935  11.174   4.036   1.443  0.0918 -0.1144  0.4546
 3736W        W 3936   0.204  11.685  14.574  0.0588 -0.1990  0.5219
 3737W        W 3937  12.621  10.087   1.782 -0.0931 -0.1817  0.0417
 3738W        W 3938   3.062   3.315   1.553  0.2767  0.1721 -0.0536
 3739W        W 3939  13.319   5.248   4.237 -0.0335  0.2809 -0.1556
 3740W        W 3940   6.304  10.802   5.420  0.0787 -0.0013  0.1528
 3741W        W 3941  11.933   8.443   8.508  0.1132 -0.0072 -0.3220
 3742W        W 3942  13.409  11.473   2.394 -0.1933  0.0835 -0.1972
 3743W        W 3943   8.597   3.186   3.218 -0.0215 -0.2214  0.1357
 3744W        W 3944  12.161   9.765   8.934  0.0023  0.0885 -0.0732
 3745W        W 3945  11.720   1.938   1.590 -0.0164 -0.0569 -0.2763
 3746W        W 3946  13.387   5.867   1.565 -0.0845  0.2542  0.0034
 3747W        W 3947   1.820   5.488  10.274 -0.1005  0.2001 -0.0194
 3748W        W 3948   6.216  12.364   6.099  0.1415  0.1175  0.2273
 3749W        W 3949   5.525  10.380   2.259 -0.1281  0.1035  0.1293
 3750W        W 3950   7.201   9.779   3.215 -0.0746 -0.0322  0.4583
 3751W        W 3951   2.319   4.075   7.829  0.3575 -0.0659 -0.0954
 3752W        W 3952   9.006   8.673  12.602  0.2107 -0.2112 -0.2017
 3753W        W 3953   2.706   8.858   2.059 -0.4129 -0.3017  0.2569
 3754W        W 3954   5.751   4.542  14.881  0.1332  0.0283  0.0444
 3755W        W 3955   3.418  14.252   2.954 -0.1001  0.0082  0.3472
 3756W        W 3956   4.065   8.763   2.149  0.2361  0.0406  0.1927
 3757W        W 3957   9.220   2.654   7.290  0.0470 -0.1750  0.1209
 3758W        W 3958  10.183   5.444   2.714 -0.2124  0.0724 -0.0027
 3759W        W 3959  11.656   6.362   1.397 -0.3270  0.2218  0.0121
 3760W        W 3960  13.429  10.848   1.474  0.1069  0.3585 -0.4117
 3761W        W 3961   3.170  15.124   8.807  0.0262  0.2310  0.2369
 3762W        W 3962   0.573  11.676   5.667 -0.2404 -0.3874 -0.0418
 3763W        W 3963   6.847   9.797   8.852  0.0212 -0.2284  0.4462
 3764W        W 3964  11.713  13.298  11.758  0.0504  0.1141  0.0869
 3765W        W 3965   3.927  13.421   9.327 -0.3051  0.1173  0.0661
 3766W        W 3966   6.820  12.458   1.485  0.2160 -0.0242 -0.0243
 3767W        W 3967   5.411   4.323   8.960 -0.1920  0.0302  0.0710
 3768W        W 3968  14.242  11.154   5.076 -0.0364  0.4384  0.3459
 3769W        W 3969   9.592   3.525   5.424 -0.1971  0.0093 -0.0372
 3770W        W 3970  13.068   9.817  14.540  0.3181 -0.0692 -0.0743
 3771W        W 3971   3.344   6.526   5.626 -0.2207  0.0212 -0.0119
 3772W        W 3972   4.872   2.920  13.703 -0.2825 -0.0588 -0.2566
 3773W        W 3973   5.156   0.106   4.259 -0.2423 -0.0748  0.1105
 3774W        W 3974   2.812   5.178  12.670  0.1190 -0.1996  0.1325
 3775W        W 3975   9.592  11.292  14.698 -0.3817 -0.3109 -0.1933
 3776W        W 3976   2.767  12.369   9.760 -0.1169 -0.0138  0.1755
 3777W        W 3977   1.461   3.217   2.002 -0.0159  0.2950  0.0829
 3778W        W 3978  12.235   0.742   4.375 -0.2391 -0.1467 -0.1298
 3779W        W 3979   3.559  11.993  12.104  0.0616  0.3627 -0.2995
 3780W        W 3980   5.651   6.831   9.828 -0.1355 -0.0331 -0.3882
 3781W        W 3981   1.137   3.711  13.147  0.2114 -0.1688 -0.0567
 3782W        W 3982   3.534  11.741  10.540  0.2646 -0.0022 -0.0689
 3783W        W 3983  10.703   8.642   1.971  0.0991  0.2070 -0.1080
 3784W        W 3984   8.847  12.329  10.214 -0.0726 -0.1955 -0.1212
 3785W        W 3985   4.572   0.767   5.369 -0.2095  0.0193 -0.0359
 3786W        W 3986  11.607   7.182   3.799  0.0987 -0.2876  0.0799
 3787W        W 3987   4.215   2.390   2.274  0.0858  0.0677 -0.0883
 3788W        W 3988   0.598   9.203  15.147 -0.2286 -0.0985 -0.0156
 3789W        W 3989  12.979   6.323   6.206 -0.0460 -0.2045  0.1598
 3790W        W 3990   4.595   8.926   7.814 -0.2809 -0.1417  0.3675
 3791W        W 3991   8.547   6.149   1.620 -0.0357  0.2190 -0.2157
 3792W        W 3992   4.586   2.940   6.375  0.1593  0.1267 -0.1624
 3793W        W 3993  13.755   3.068  13.895  0.0626  0.0236 -0.0775
 3794W        W 3994   1.903   5.603  13.890 -0.1090  0.1928  0.1174
 3795W        W 3995  13.379   5.110   8.359 -0.0544  0.5213  0.1849
 3796W        W 3996   4.261   7.603  10.758  0.0011  0.0396  0.2292
 3797W        W 3997  13.382   5.704   4.470 -0.1716 -0.0443 -0.0492
 3798W        W 3998   4.699   0.521   9.308 -0.0194 -0.0578 -0.0332
 3799W        W 3999  10.462   9.218   7.916 -0.3361  0.0157  0.0342
 3800W        W 4000  12.608   6.576   4.711 -0.1239  0.2030 -0.1295
 3801W        W 4001   1.645  10.608  10.183  0.1189  0.0358  0.1158
 3802W        W 4002  12.209  11.427  10.930 -0.2322  0.0883 -0.0367
 3803W        W 4003  14.823   4.096  13.749  0.1913  0.2558 -0.0312
 3804W        W 4004   3.684   6.956  13.164  0.1098  0.0080  0.2848
 3805W        W 4005  13.117  13.622  14.119 -0.0475 -0.2738  0.1398
 3806W        W 4006  11.688   7.719  13.413 -0.3819  0.0184  0.0056
 3807W        W 4007  13.294   1.881   8.448  0.3413 -0.1234  0.0388
 3808W        W 4008  11.801  10.409  14.182  0.2215 -0.3375 -0.1278
 3809W        W 4009   5.110  11.053   3.602 -0.0601  0.1828  0.2846
 3810W        W 4010   9.232  11.663   7.018 -0.3063  0.1771  0.3080
 3811W        W 4011  10.617   4.318   6.278 -0.0436  0.0943 -0.0132
 3812W        W 4012  11.636  11.769   2.326  0.3258 -0.1401  0.1808
 3813W        W 4013  14.686   5.128   2.849  0.1916  0.0607 -0.0443
 3814W        W 4014   4.320   5.144   8.091 -0.1220 -0.1392  0.1977
 3815W        W 4015  14.293   4.579   1.673  0.2376  0.0862 -0.1997
 3816W        W 4016  14.154   4.424   8.323 -0.1288 -0.3144  0.2444
 3817W        W 4017   8.789   8.079   9.726 -0.0458 -0.0147 -0.2872
 3818W        W 4018  14.856  12.685   5.061 -0.2224 -0.0218 -0.3133
 3819W        W 4019  12.293   6.013   7.501 -0.2307 -0.1569  0.1942
 3820W        W 4020   2.184   9.884  13.103  0.0863  0.0345 -0.1197
 3821W        W 4021   4.218   2.698  12.031 -0.0702 -0.0128 -0.0290
 3822W        W 4022   3.875   0.661  13.794  0.0293 -0.1249  0.1261
 3823W        W 4023  14.299   6.322   8.443 -0.2723 -0.0385 -0.0138
 3824W        W 4024   7.451   3.768   9.515 -0.1201 -0.1506  0.1065
 3825W        W 4025   2.701  13.470   7.894  0.1106 -0.3597 -0.1994
 3826W        W 4026   5.053   0.967   5.445  0.2152 -0.0340 -0.0976
 3827W        W 4027  12.442   6.851   0.701 -0.0499 -0.3455  0.0108
 3828W        W 4028  14.148  11.192  11.249 -0.0374 -0.1858  0.1143
 3829W        W 4029   5.876   0.391   6.957  0.3562  0.0281  0.1991
 3830W        W 4030   2.200   6.562   8.795 -0.1466  0.0457  0.0668
 3831W        W 4031   2.217  14.083  15.153  0.2177  0.0921  0.4297
 3832W        W 4032  10.688  13.171   2.825  0.1325 -0.3253 -0.2986
 3833W        W 4033   2.787   8.406   5.750  0.1336 -0.1809 -0.2293
 3834W        W 4034  12.629   9.568   7.344 -0.1184  0.1200 -0.0289
 3835W        W 4035   1.513   9.538   5.117 -0.0510 -0.1733  0.0627
 3836W        W 4036   3.753   6.090  12.103 -0.3429 -0.1782  0.0017
 3837W        W 4037  14.377   7.298   6.720 -0.0756  0.1461 -0.0385
 3838W        W 4038   9.048  10.975   5.144  0.1086 -0.2218 -0.5378
 3839W        W 4039  14.796   3.821   5.420 -0.3726 -0.0223 -0.0652
 3840W        W 4040  10.598  11.994   4.614 -0.0632 -0.1846 -0.2307
 3841W        W 4041   5.585   8.509  11.930 -0.0149 -0.0758 -0.1890
 3842W        W 4042   3.270  14.002   6.601  0.2760  0.2389 -0.3223
 3843W        W 4043   1.574   4.231   9.902  0.1722 -0.1925  0.0826
 3844W        W 4044   3.500   8.995  10.489 -0.0469  0.3353 -0.0095
 3845W        W 4045   8.133   7.087   0.014 -0.0188  0.4148 -0.3920
 3846W        W 4046   1.307  12.388  12.640  0.1058 -0.0648 -0.1245
 3847W        W 4047   3.533   6.573  12.376 -0.2372 -0.0760 -0.1843
 3848W        W 4048   4.832   4.952   6.344  0.1263 -0.1670 -0.0747
 3849W        W 4049  11.191  15.147   0.465 -0.2189  0.0520  0.0061
 3850W        W 4050   1.792   7.237   1.336 -0.0726 -0.4432 -0.0083
 3851W        W 4051   4.459  10.021   4.985 -0.1514  0.3815 -0.1052
 3852W        W 4052  10.594  12.861  14.441 -0.0412  0.0737  0.0433
 3853W        W 4053  10.957  11.099   6.224  0.2789 -0.1358  0.1366
 3854W        W 4054  14.457   9.477   1.483  0.0309  0.0405  0.0082
 3855W        W 4055   8.869   0.306  14.962 -0.0164 -0.0167 -0.0998
 3856W        W 4056   8.309   7.444   7.221 -0.3010  0.0546  0.2590
 3857W        W 4057   9.984   8.595  15.014  0.0132  0.3408  0.2163
 3858W        W 4058   2.482  11.303   6.810  0.1838 -0.1426  0.2955
 3859W        W 4059  11.290   8.350   2.600  0.0105  0.3647 -0.1822
 3860W        W 4060   7.617  12.331   9.572 -0.0014 -0.1163 -0.2167
 3861W        W 4061   0.601   3.382   3.341  0.1703  0.0607  0.2706
 3862W        W 4062   5.416   4.248   8.344 -0.3920  0.1528  0.2544
 3863W        W 4063   6.315  10.829   9.513  0.2890 -0.0888  0.2987
 3864W        W 4064   5.028  11.816   5.713  0.2465  0.0894  0.2197
 3865W        W 4065   8.749  13.711   1.972 -0.1170  0.1224 -0.3148
 3866W        W 4066  10.377   5.597   7.592  0.0090 -0.0896 -0.0289
 3867W        W 4067   6.065   9.280  12.554  0.1091  0.3228 -0.2082
 3868W        W 4068  11.239   9.718   4.931  0.1371  0.0087  0.0257
 3869W        W 4069   7.381   8.609   6.524  0.0151  0.0304  0.0039
 3870W        W 4070   7.831  11.685   3.722 -0.1811  0.1191 -0.0223
 3871W        W 4071  11.337   6.007  14.133  0.3033  0.1410  0.3023
 3872W        W 4072  13.508  12.061  10.496  0.0456  0.1560 -0.3278
 3873W        W 4073  11.991   9.211   5.387  0.1090 -0.1359 -0.0559
 3874W        W 4074   5.493  11.247  14.551 -0.2724  0.1432 -0.0825
 3875W        W 4075   1.567   8.536   2.834 -0.0188  0.0159 -0.2932
 3876W        W 4076   4.490   6.867   6.316 -0.0441  0.0971 -0.0928
 3877W        W 4077   7.027  14.396   2.337  0.1445  0.2365  0.1796
 3878W        W 4078  11.685  13.852   1.742 -0.2096 -0.4335 -0.3037
 3879W        W 4079   7.205  12.159   8.546  0.2285 -0.2766  0.0421
 3880W        W 4080  13.964   1.110   8.109 -0.3473  0.0204 -0.0927
 3881W        W 4081   4.499   5.073   4.953 -0.0192 -0.0514 -0.1214
 3882W        W 4082   2.374  13.820   7.459  0.0955  0.0597 -0.0284
 3883W        W 4083   4.823   3.846  12.660  0.1210 -0.1289  0.0338
 3884W        W 4084   9.197   8.427   2.594  0.0031  0.0562  0.1820
 3885W        W 4085  12.213  11.858   8.460 -0.1891 -0.0362 -0.2224
 3886W        W 4086  14.175   2.230  13.418  0.1610  0.1373  0.1073
 3887W        W 4087   3.744   8.670   5.139 -0.4523 -0.2214 -0.0129
 3888W        W 4088  14.020  10.732   4.403  0.0225  0.2209 -0.1374
 3889W        W 4089   7.487   8.398   4.545  0.0293  0.2654 -0.0237
 3890W        W 4090  14.011  10.492   5.842 -0.0367  0.5542  0.0953
 3891W        W 4091   7.353   7.531   3.035  0.3485  0.1041 -0.0510
 3892W        W 4092   9.554   7.770  14.206  0.1427 -0.1669  0.1055
 3893W        W 4093   4.279   0.246   7.353 -0.0208 -0.1779  0.0847
 3894W        W 4094   5.888   3.048   6.348 -0.0845 -0.0604  0.0781
 3895W        W 4095  10.111   3.859  12.348 -0.2610  0.2045  0.0204
 3896W        W 4096   3.586  13.839  13.983  0.1635  0.2240 -0.0976
 3897W        W 4097   9.666   3.724   1.041  0.0163 -0.1831 -0.0264
 3898W        W 4098   0.365  14.090   1.791  0.0607  0.1251  0.1526
 3899W        W 4099   2.188  15.127   8.599 -0.1207 -0.2374  0.1179
 3900W        W 4100  13.108   1.463   9.673 -0.0402  0.3241  0.1740
 3901W        W 4101   8.531  15.064   2.923  0.0290  0.0976  0.2488
 3902W        W 4102   9.349   2.389   1.939  0.0056  0.1597  0.4611
 3903W        W 4103   7.072  10.389  14.754 -0.0455 -0.0750  0.1155
 3904W        W 4104   4.340   1.618   7.451  0.0264 -0.1109 -0.1949
 3905W        W 4105  11.846  10.619  10.597 -0.1698 -0.0578  0.0421
 3906W        W 4106   8.510   9.375  14.253  0.1405  0.0014 -0.0322
 3907W        W 4107  12.351  12.899   1.799  0.2607  0.2383  0.2254
 3908W        W 4108   6.113  12.260   3.968 -0.2352 -0.0536 -0.3055
 3909W        W 4109   1.653   1.848   9.170  0.0590 -0.2792 -0.1152
 3910W        W 4110   9.036   1.046   9.944 -0.1542 -0.2962  0.3287
 3911W        W 4111   5.179   8.143  10.077 -0.0822 -0.0156 -0.3394
 3912W        W 4112   0.537  12.866   8.180  0.0798 -0.2334 -0.4747
 3913W        W 4113  12.812  11.275  14.691 -0.2579  0.0173 -0.1063
 3914W        W 4114   6.871   4.476   9.632  0.2300  0.3342  0.1794
 3915W        W 4115   5.041   8.587   6.658 -0.2820  0.1001 -0.1503
 3916W        W 4116  11.921  11.204   7.348  0.2454 -0.1512  0.0330
 3917W        W 4117   0.899  12.545   4.385 -0.4448 -0.0507  0.0668
 3918W        W 4118  13.363   7.845   7.188  0.0778 -0.2552  0.2695
 3919W        W 4119   6.001   9.181  10.136 -0.1715  0.1425  0.2243
 3920W        W 4120   4.848   9.223   2.273  0.0344 -0.3397 -0.1220
 3921W        W 4121   6.500   4.875   7.930  0.3128 -0.0683 -0.0615
 3922W        W 4122  11.180   9.514   8.621  0.1625 -0.1164 -0.2282
 3923W        W 4123   7.429   3.237  11.640 -0.1495 -0.0161 -0.2132
 3924W        W 4124   2.706   8.412   6.896  0.0604  0.0264  0.5146
 3925W        W 4125  10.443   9.381   6.477  0.0206  0.5536 -0.0497
 3926W        W 4126  13.067   8.572   9.690 -0.2455  0.0074 -0.1327
 3927W        W 4127   7.711  12.205   1.891  0.2139 -0.0168  0.4217
 3928W        W 4128   9.838   4.535   3.336  0.0206 -0.1037  0.0847
 3929W        W 4129   2.150  10.314   2.868  0.0185 -0.2534  0.1009
 3930W        W 4130  11.653   9.677   8.120  0.2910 -0.0146 -0.1211
 3931W        W 4131  10.573   6.601   5.066  0.1954  0.0004 -0.0163
 3932W        W 4132   0.668   4.020   2.069  0.1958 -0.1241 -0.2287
 3933W        W 4133   7.687   5.681   4.161  0.3973  0.2231 -0.0156
 3934W        W 4134   0.182   8.901  11.710 -0.0874 -0.2636  0.1402
 3935W        W 4135   2.248  13.667  14.765 -0.1062 -0.1478 -0.4031
 3936W        W 4136  14.229  14.720   5.762 -0.1637  0.0394  0.1190
 3937W        W 4137   5.397   5.073  11.892 -0.0328  0.1930 -0.2465
 3938W        W 4138  13.403   5.239  14.921  0.0644 -0.0398 -0.2374
 3939W        W 4139  10.453   7.940   9.234 -0.0378  0.0028 -0.1394
 3940W        W 4140  13.456  13.650   1.627 -0.2965  0.3325 -0.0776
 3941W        W 4141  11.517   8.708   6.188 -0.0827  0.0025 -0.0537
 3942W        W 4142  13.376   1.431  15.004 -0.3917 -0.2119 -0.1579
 3943W        W 4143  13.059   2.871   9.579 -0.2465 -0.0282  0.1241
 3944W        W 4144  10.647  15.177  11.540  0.0790  0.0707 -0.0043
 3945W        W 4145   2.505  10.505  13.676 -0.1943  0.1304  0.1982
 3946W        W 4146  13.127   2.487  12.579  0.3645  0.2235 -0.3789
 3947W        W 4147  13.035   2.024   9.806 -0.1111 -0.0405  0.0015
 3948W        W 4148   1.541   1.010  12.609  0.0873  0.0929 -0.0320
 3949W        W 4149   0.961  12.803   3.519  0.2211  0.1857 -0.2278
 3950W        W 4150   4.068  15.135   6.513 -0.1619 -0.0463  0.0772
 3951W        W 4151   3.400  11.692   9.453  0.1713  0.0486  0.1031
 3952W        W 4152   2.429  12.817   3.652 -0.2083  0.2093  0.1285
 3953W        W 4153   0.434   6.334   9.443 -0.4703  0.0856  0.0191
 3954W        W 4154   0.897   5.935   3.373 -0.0444  0.2000  0.1487
 3955W        W 4155  12.260   7.502  11.879 -0.0634 -0.0921  0.0354
 3956W        W 4156  11.480  13.136   7.775  0.0307  0.0678  0.1865
 3957W        W 4157   3.183   9.855   5.985  0.0121  0.0987 -0.2199
 3958W        W 4158   6.729   2.791  13.696  0.1942 -0.3044  0.0186
 3959W        W 4159   9.691   2.390  11.915 -0.0276 -0.1387 -0.0336
 3960W        W 4160  10.438   9.165   2.741  0.1211 -0.1889 -0.1861
 3961W        W 4161   0.241   3.095  10.147 -0.0802 -0.1129  0.0441
 3962W        W 4162   1.296   7.701  14.804  0.0944 -0.0064 -0.2856
 3963W        W 4163   4.189   4.154   8.343  0.0797  0.0472 -0.0846
 3964W        W 4164   3.491   4.457  11.741 -0.2367 -0.2053  0.0917
 3965W        W 4165   9.832   9.492  14.854  0.1116 -0.1619  0.0754
 3966W        W 4166   7.841   7.079  11.237 -0.0270  0.1591  0.2906
 3967W        W 4167   0.682  13.158   3.792  0.1050  0.1203  0.0121
 3968W        W 4168   1.440   9.543  15.103 -0.0104 -0.4802  0.0844
 3969W        W 4169   7.410   1.647   6.620 -0.2398  0.2283  0.0369
 3970W        W 4170   5.891   8.603   8.484 -0.0884  0.1179 -0.1377
 3971W        W 4171   8.247   1.548   8.827 -0.1260 -0.1227  0.2337
 3972W        W 4172   2.848  11.432   4.965  0.1716 -0.0749 -0.0658
 3973W        W 4173  11.653   2.527   8.646  0.0220 -0.1134 -0.0246
 3974W        W 4174   2.346  11.534  14.680  0.1480  0.0528  0.1773
 3975W        W 4175  14.058   2.604   7.814  0.1230  0.0198  0.0265
 3976W        W 4176   1.719  10.520   7.357 -0.1264  0.0438 -0.1772
 3977W        W 4177   5.477   7.525   3.418  0.1949  0.1830  0.1928
 3978W        W 4178   1.982   9.683  12.058  0.0710  0.0712  0.4559
 3979W        W 4179   8.039   6.125  14.355 -0.0670 -0.1780 -0.1613
 3980W        W 4180   0.035  10.985   0.061 -0.1034 -0.1143 -0.2105
 3981W        W 4181  12.958  15.144   7.249  0.1721  0.0407 -0.1418
 3982W        W 4182   8.882   3.913   4.287  0.0071 -0.1285 -0.1161
 3983W        W 4183   0.679   7.491   8.605 -0.1196 -0.0500 -0.0397
 3984W        W 4184   3.462   4.378   8.439  0.6179 -0.0107 -0.3339
 3985W        W 4185  10.503   6.237  13.607  0.0357 -0.1195 -0.0282
 3986W        W 4186  10.702   3.138   2.403 -0.2284 -0.2983  0.1957
 3987W        W 4187   0.903   9.126  12.750 -0.0364  0.2216 -0.4845
 3988W        W 4188  11.058  10.891   0.419 -0.0057  0.0615 -0.2404
 3989W        W 4189  13.799  13.102   4.894 -0.0388 -0.0323  0.0549
 3990W        W 4190   4.652   3.119  12.774 -0.1141 -0.1983  0.0013
 3991W        W 4191   0.801   9.603   5.703 -0.1459 -0.2287 -0.1243
 3992W        W 4192   1.398   4.291   8.507  0.0747  0.1121  0.0854
 3993W        W 4193  11.200   4.645  12.628 -0.0820  0.1943 -0.3174
 3994W        W 4194  14.260  12.091   8.608 -0.1389  0.0569 -0.3509
 3995W        W 4195   6.290   8.490   0.784 -0.0520  0.1709 -0.2055
 3996W        W 4196   4.449  12.264   6.253  0.2233 -0.1140 -0.0870
 3997W        W 4197   5.896   4.735   6.949  0.1738  0.1327 -0.1811
 3998W        W 4198  13.425   5.073  13.535  0.3085 -0.1370 -0.0124
 3999W        W 4199   0.954  11.329   1.167 -0.2082 -0.1349  0.3042
 4000W        W 4200  13.663   2.900   8.941 -0.0205  0.6574  0.2798
 4001W        W 4201  13.750   5.611   8.904 -0.0908 -0.1220  0.1908
 4002W        W 4202   0.010   7.870   1.450 -0.1302 -0.2647  0.2945
 4003W        W 4203  14.580   8.780   2.943  0.0570  0.1412 -0.1215
 4004W        W 4204  14.170   8.456  12.943  0.2173 -0.0870 -0.2637
 4005W        W 4205  12.395   9.890  12.301 -0.0346 -0.0620  0.1600
 4006W        W 4206  14.079   7.308  15.027  0.0368  0.1802  0.0184
 4007W        W 4207   4.777   3.177   9.316 -0.0866  0.0217  0.0446
 4008W        W 4208   2.081  15.036   3.165 -0.0942  0.0520  0.1477
 4009W        W 4209   1.369   2.437   7.036 -0.1196  0.1972 -0.1461
 4010W        W 4210   6.938  10.524   8.992  0.1313  0.3645  0.4081
 4011W        W 4211   4.728  14.039  13.356 -0.2059 -0.0386  0.1443
 4012W        W 4212   5.909   4.073   5.787  0.0802  0.0834  0.1078
 4013W        W 4213  11.204   8.835  11.105 -0.0301 -0.2932  0.0206
 4014W        W 4214   4.831   3.333   6.899 -0.0989  0.0640 -0.0205
 4015W        W 4215  14.601   4.661   1.312  0.2148  0.3936  0.2291
 4016W        W 4216   7.039   7.038   2.179 -0.4837 -0.1277  0.0802
 4017W        W 4217   1.938   8.803  11.522 -0.0634  0.0761 -0.0158
 4018W        W 4218   8.637   4.890  10.531 -0.0432 -0.1700 -0.0925
 4019W        W 4219   1.099   2.661   8.157 -0.1652 -0.2330 -0.1763
 4020W        W 4220   2.913   5.555   5.216  0.0311  0.1569 -0.1199
 4021W        W 4221  13.296   7.013  14.999 -0.0398  0.2775 -0.1204
 4022W        W 4222   4.573   6.611   5.572  0.2641 -0.0443  0.1246
 4023W        W 4223   0.812   4.587   3.297  0.3269  0.1804  0.0027
 4024W        W 4224   1.888  10.826   2.221  0.0988 -0.2691  0.3443
 4025W        W 4225  14.254  10.513   0.143  0.1423 -0.0163 -0.0308
 4026W        W 4226  10.695   9.882   6.360 -0.2184  0.0908  0.2508
 4027W        W 4227   1.277  11.070   5.149  0.1116 -0.1302 -0.2946
 4028W        W 4228  11.743   2.652   9.697  0.0990 -0.1705  0.2318
 4029W        W 4229   8.165   3.746  12.614  0.1087 -0.1895  0.0492
 4030W        W 4230   5.359  12.050  10.812  0.0436  0.1129  0.3774
 4031W        W 4231  13.946  14.956   2.180 -0.0816 -0.1003  0.0301
 4032W        W 4232  14.532   2.031   3.589  0.2765  0.1977  0.1917
 4033W        W 4233  12.865  13.409  13.213 -0.2729 -0.0396 -0.0484
 4034W        W 4234   1.632   8.547   8.882 -0.2109 -0.2462  0.2559
 4035W        W 4235   3.182  14.366   3.619  0.0861 -0.1586  0.0110
 4036W        W 4236  10.874  11.671   5.377  0.0046 -0.3267 -0.2306
 4037W        W 4237  11.841   3.937   5.296  0.3699 -0.2673  0.1653
 4038W        W 4238   0.678   9.968  10.312  0.3639 -0.1009 -0.1606
 4039W        W 4239  13.582   5.299  10.624 -0.0052 -0.0348 -0.0161
 4040W        W 4240   2.593   6.765   8.547 -0.4432  0.0346  0.2696
 4041W        W 4241   0.349  11.296   4.289 -0.3740 -0.1240  0.2790
 4042W        W 4242   2.998  12.948   6.664  0.0968  0.1832  0.1165
 4043W        W 4243   6.070   4.708   7.767 -0.2648  0.3883 -0.2140
 4044W        W 4244   1.362   7.583   6.368 -0.0498  0.1049 -0.2474
 4045W        W 4245  13.478   2.931  12.396  0.0518  0.0175  0.0082
 4046W        W 4246  10.254  11.665   2.105  0.2020 -0.3646 -0.1428
 4047W        W 4247   2.184  11.290   5.844  0.0939  0.1742 -0.0987
 4048W        W 4248   3.210  12.646  10.716  0.0211  0.1686  0.2860
 4049W        W 4249   4.197  11.248   9.337 -0.3008 -0.0966  0.2855
 4050W        W 4250  10.537   7.038   2.583  0.0748  0.0873  0.1473
 4051W        W 4251   1.642   6.682   4.826  0.0138  0.2908 -0.0950
 4052W        W 4252  11.672   8.319   9.726  0.2038 -0.1408  0.4205
 4053W        W 4253   0.594   8.087   5.294 -0.2297  0.1358  0.0066
 4054W        W 4254  12.046  12.515   1.959  0.1803 -0.4819 -0.2574
 4055W        W 4255   3.770  10.169   7.728  0.0129 -0.2337  0.0371
 4056W        W 4256  13.261  10.128   3.585 -0.2220  0.5098 -0.0595
 4057W        W 4257   4.392  10.407  12.573 -0.4704 -0.2260  0.0078
 4058W        W 4258   2.550  11.469   0.348 -0.1154  0.0981 -0.0619
 4059W        W 4259  11.261   3.276   4.198 -0.4907 -0.1834  0.0882
 4060W        W 4260  14.643  11.320   8.269 -0.1413 -0.3186  0.1383
 4061W        W 4261  13.469  11.949   5.912 -0.1707 -0.0488  0.1823
 4062W        W 4262   9.413  13.132  10.186 -0.1047 -0.0925 -0.1019
 4063W        W 4263   9.561   8.146   8.633  0.0425  0.1181  0.0733
 4064W        W 4264  10.172   6.871   5.427 -0.0697  0.0044 -0.0078
 4065W        W 4265   1.512   6.087  12.303  0.3582  0.0633  0.2470
 4066W        W 4266  12.206   3.111   8.510 -0.0732 -0.0612 -0.0029
 4067W        W 4267   1.125   7.687   7.217 -0.2014  0.0896 -0.0592
 4068W        W 4268  12.101   7.091   9.654 -0.1873  0.0623 -0.1172
 4069W        W 4269   1.764  12.725  10.980 -0.2290 -0.1829 -0.0588
 4070W        W 4270  14.231  14.730  11.270  0.0324 -0.0871 -0.2743
 4071W        W 4271   7.915  11.082   8.908 -0.0526 -0.2532 -0.0460
 4072W        W 4272   3.681  14.927   8.643 -0.0851 -0.0533 -0.0521
 4073W        W 4273   4.685   0.943   8.493  0.0789  0.0576 -0.1470
 4074W        W 4274   1.627   8.402   0.950  0.2205 -0.1903 -0.0318
 4075W        W 4275   1.504   6.260  12.786  0.1175 -0.0527  0.0251
 4076W        W 4276  13.240   9.494  13.613  0.1155  0.3968  0.2496
 4077W        W 4277   6.985   8.466  11.927  0.0580  0.0305  0.2452
 4078W        W 4278   4.530   8.734  11.380  0.1990  0.2631 -0.1286
 4079W        W 4279   8.850  11.787   4.542 -0.4127 -0.4492  0.3100
 4080W        W 4280   0.370  10.617   1.655  0.1458 -0.1589 -0.1593
 4081W        W 4281   9.576  11.240   2.875 -0.2811  0.4464 -0.1497
 4082W        W 4282  12.420   5.703   9.703  0.0347 -0.1092  0.2341
 4083W        W 4283   6.469  12.099  11.644  0.2465  0.0795  0.1986
 4084W        W 4284  11.689  12.734   7.231 -0.0497 -0.3414  0.2423
 4085W        W 4285   2.948   6.636   7.130  0.0397 -0.0806 -0.1576
 4086W        W 4286   9.301   0.314  13.285 -0.3215 -0.0216 -0.3495
 4087W        W 4287   7.921   8.686  14.845  0.1290  0.0489  0.0576
 4088W        W 4288  14.237   6.992   4.260 -0.1249 -0.1621  0.0575
 4089W        W 4289  13.742  11.872   5.454  0.0767  0.1715 -0.0210
 4090W        W 4290   0.939   4.765   9.933  0.1165 -0.5330 -0.2345
 4091W        W 4291   6.368  11.200   9.236 -0.0400 -0.0633  0.1453
 4092W        W 4292  11.751   5.644   5.823 -0.2881  0.1896 -0.4783
 4093W        W 4293  13.921   6.071   1.846  0.0685 -0.1465  0.1318
 4094W        W 4294   3.284   2.493  10.557 -0.2580  0.0702  0.0173
 4095W        W 4295  10.385  11.877  13.676 -0.0690  0.1185 -0.1500
 4096W        W 4296   2.404   4.863   7.113 -0.0676 -0.0642 -0.0910
 4097W        W 4297   7.649   7.511  11.142  0.0003 -0.2805  0.0883
 4098W        W 4298   5.537   7.106   6.716 -0.0158  0.4604  0.0479
 4099W        W 4299   1.215  11.524  15.145  0.1231  0.1071  0.3146
 4100W        W 4300  12.673   8.759  13.828  0.0570  0.0857  0.0572
 4101W        W 4301   2.673   7.414   6.698  0.1171  0.1023 -0.1569
 4102W        W 4302  11.146   7.835  13.751  0.0459  0.0209  0.0577
 4103W        W 4303   6.776   7.881   9.290  0.0866  0.0861  0.1615
 4104W        W 4304   5.419   0.443   3.842  0.4446  0.1314 -0.0749
 4105W        W 4305  10.140   9.681   0.002  0.1226  0.1432  0.1533
 4106W        W 4306  13.826   9.653  12.323  0.1234  0.0155 -0.0395
 4107W        W 4307   0.301  10.242   4.236 -0.1788 -0.1920  0.0095
 4108W        W 4308  15.195   1.034   5.359 -0.0762 -0.1240  0.0758
 4109W        W 4309   0.065   1.177   8.514  0.0757 -0.3470  0.1186
 4110W        W 4310   1.337   1.096  13.935 -0.0336 -0.2229  0.0612
 4111W        W 4311   6.564  12.336   5.749 -0.0220 -0.0353  0.1898
 4112W        W 4312   8.969  11.219   4.686 -0.2415  0.2085 -0.0505
 4113W        W 4313   3.835   7.215  10.908 -0.2913 -0.1965  0.1218
 4114W        W 4314  10.172  14.933  13.259  0.2293 -0.1928  0.1968
 4115W        W 4315   6.081   9.150   9.062  0.2217  0.2009  0.1562
 4116W        W 4316   1.594  13.199   5.435  0.1566 -0.0840 -0.3064
 4117W        W 4317  12.872   5.516  11.212  0.4386 -0.1127 -0.2441
 4118W        W 4318   5.794  12.446  14.994 -0.0119 -0.0545  0.2009
 4119W        W 4319   2.662   9.883   4.045 -0.0530 -0.0868 -0.2830
 4120W        W 4320   6.203  12.773  15.017 -0.0477  0.2046  0.0922
 4121W        W 4321   1.870  11.770   5.894 -0.1940  0.2339 -0.1130
 4122W        W 4322   0.206   1.361   0.253 -0.0085  0.3521 -0.0823
 4123W        W 4323   1.134  10.462   2.109  0.0928  0.1228 -0.1533
 4124W        W 4324  14.084   3.263   2.009 -0.1540 -0.3266  0.4434
 4125W        W 4325   0.161   3.205   3.642  0.0920  0.1609 -0.0051
 4126W        W 4326   7.991   1.099   0.384  0.1989  0.1255 -0.1551
 4127W        W 4327   1.001   4.329   6.392 -0.0888 -0.2858 -0.3575
 4128W        W 4328   0.771   1.151  10.805  0.0094  0.0425 -0.0241
 4129W        W 4329   6.073   8.759   2.424 -0.0921 -0.1420 -0.0437
 4130W        W 4330   1.225  11.162   4.136  0.4560 -0.2778  0.3315
 4131W        W 4331  12.698   0.904  12.508 -0.0534 -0.3444 -0.0051
 4132W        W 4332  14.958  13.113   6.480 -0.3381  0.1399  0.2293
 4133W        W 4333   0.114   9.118   6.139  0.1464  0.0452 -0.2544
 4134W        W 4334   4.969   7.940   9.182 -0.2691  0.1488  0.2565
 4135W        W 4335  12.116  10.972  12.344  0.2884 -0.1385  0.2377
 4136W        W 4336  15.094   1.052   1.050 -0.3833  0.0630 -0.0203
 4137W        W 4337   1.273  14.913   7.211 -0.0104  0.0953 -0.1456
 4138W        W 4338   1.174  12.987   6.704 -0.2194 -0.0795 -0.0925
 4139W        W 4339  13.856  12.945  12.507 -0.0850 -0.0293 -0.1664
 4140W        W 4340   9.701   1.112   5.345  0.2038 -0.2007  0.0845
 4141W        W 4341  14.425   5.343  10.338  0.0334  0.2141  0.0444
 4142W        W 4342   7.718   7.745   2.331 -0.0256 -0.0532 -0.1546
 4143W        W 4343   7.093  14.154   7.478  0.1516  0.1020  0.1664
 4144W        W 4344   0.042   4.450  13.653 -0.3711 -0.0516  0.2552
 4145W        W 4345   9.910   5.709  14.824  0.0306 -0.0209  0.1463
 4146W        W 4346  14.726  10.785   2.118 -0.0163  0.1159  0.0575
 4147W        W 4347  12.204   9.169  10.999  0.1215 -0.0191 -0.1150
 4148W        W 4348   3.269  11.413   8.006 -0.1975  0.1451 -0.1833
 4149W        W 4349   6.642  10.199  14.278  0.1160  0.0080 -0.0038
 4150W        W 4350   8.810   9.207   8.348  0.0712  0.3351 -0.0961
 4151W        W 4351   1.357   5.164   0.607 -0.1102 -0.0516  0.0070
 4152W        W 4352   8.536   2.852   5.397  0.0721  0.0865  0.1115
 4153W        W 4353   3.138   6.172  13.892 -0.0639 -0.0479  0.3596
 4154W        W 4354   4.930  13.180   2.109 -0.1644  0.0273 -0.2198
 4155W        W 4355   7.034   8.016   8.870  0.0209  0.0607 -0.0000
 4156W        W 4356   9.481   5.951  10.416 -0.4782 -0.0582  0.3774
 4157W        W 4357  12.820   5.216   7.888 -0.1643 -0.0768 -0.0312
 4158W        W 4358   8.082   3.603   5.413  0.5738 -0.2964  0.0675
 4159W        W 4359   4.236   6.195  10.042  0.3047 -0.1036  0.2857
 4160W        W 4360   3.099   6.161   9.154 -0.1203  0.1373  0.0308
 4161W        W 4361   7.060  11.718   7.011  0.1186  0.1514  0.0735
 4162W        W 4362   8.076   5.897   2.762 -0.0921 -0.0426  0.0662
 4163W        W 4363  12.436  13.797   3.677 -0.0282  0.2944 -0.0409
 4164W        W 4364  13.352  11.666  10.784 -0.0833 -0.1002  0.0925
 4165W        W 4365  11.277   6.761   1.170 -0.0632 -0.4087  0.0190
 4166W        W 4366   4.188  13.511  10.258 -0.0510 -0.0068  0.1359
 4167W        W 4367   0.753   4.806  13.317 -0.0369  0.0270  0.2247
 4168W        W 4368   1.245   8.951  11.130  0.1779  0.2244  0.1857
 4169W        W 4369   8.126   7.165   6.816  0.2911 -0.0079 -0.2414
 4170W        W 4370  14.939   8.269   4.886 -0.0070  0.2228  0.2229
 4171W        W 4371   9.507  14.814  10.781 -0.0107  0.2639  0.0024
 4172W        W 4372   2.666   6.592   9.533  0.0440  0.0679 -0.0828
 4173W        W 4373   0.873  10.498   5.299 -0.0206  0.0679 -0.2357
 4174W        W 4374   5.532  10.919   9.319  0.0166  0.1746 -0.1210
 4175W        W 4375  13.602  12.967   8.879  0.0679  0.0076  0.1124
 4176W        W 4376  11.855  15.058   5.323 -0.3293  0.2283 -0.0802
 4177W        W 4377   7.217   9.425  11.419  0.0727 -0.0684  0.1628
 4178W        W 4378  12.080   3.388   5.624  0.4403 -0.0697  0.0651
 4179W        W 4379  11.507  14.247   4.884  0.1945 -0.0872  0.1215
 4180W        W 4380   1.900   3.394   0.889  0.1635  0.0468  0.0377
 4181W        W 4381  11.625   4.403   5.349 -0.0925  0.0313 -0.1688
 4182W        W 4382  14.395  14.984   1.529  0.3421 -0.2539  0.2270
 4183W        W 4383   9.683   4.882   7.997 -0.2805  0.2382  0.1528
 4184W        W 4384  13.599  14.955   8.941  0.0776 -0.4086  0.2377
 4185W        W 4385   2.324   8.849   9.793 -0.0623 -0.1734  0.2722
 4186W        W 4386   5.310  11.724   4.068  0.0598 -0.0283 -0.0555
 4187W        W 4387  10.549   6.566   4.610 -0.1006 -0.2518 -0.0953
 4188W        W 4388   9.603   9.947   4.636  0.0291  0.1655 -0.0318
 4189W        W 4389   2.369   8.974   4.856  0.0070 -0.4206 -0.2765
 4190W        W 4390   4.915   5.397  10.199  0.1228 -0.2246  0.1179
 4191W        W 4391  13.874  11.696   9.641 -0.1299 -0.3193 -0.1330
 4192W        W 4392   4.281   3.570  12.433  0.1224  0.1446 -0.1089
 4193W        W 4393  14.373  12.210  13.020  0.1242 -0.0557 -0.1705
 4194W        W 4394   4.289   9.024   5.632  0.2023  0.3092  0.1378
 4195W        W 4395  14.537   5.336   8.323  0.2084  0.0009 -0.3160
 4196W        W 4396   5.324   7.049  11.510  0.2270 -0.2258  0.0652
 4197W        W 4397   6.925   5.932   6.059  0.1206  0.2007 -0.1097
 4198W        W 4398   9.428  11.554  10.382  0.0356 -0.1487 -0.2253
 4199W        W 4399  12.580  14.582  13.795 -0.1185 -0.1533 -0.1324
 4200W        W 4400   2.158  12.409   1.776 -0.0802  0.0614 -0.3150
 4201W        W 4401   1.697   8.324  11.915  0.3447  0.2379 -0.1939
 4202W        W 4402   6.264  11.123   4.708 -0.1015  0.0673  0.1606
 4203W        W 4403   8.713   7.132  13.589  0.0966  0.1160  0.0060
 4204W        W 4404  13.245  14.266   9.972 -0.1627 -0.2200  0.0244
 4205W        W 4405  10.483  10.569   4.779  0.2588  0.1036 -0.0820
 4206W        W 4406  11.474   7.480  12.284  0.1040  0.0492  0.1167
 4207W        W 4407  14.268  10.136   9.611  0.1701 -0.2239 -0.0578
 4208W        W 4408  15.183   0.457  13.087 -0.2425  0.0445  0.0137
 4209W        W 4409  13.442   6.877   0.277  0.0254 -0.0172  0.1713
 4210W        W 4410   6.544  11.460   0.438 -0.3236  0.2280 -0.0202
 4211W        W 4411   2.306   4.979   0.160 -0.3046 -0.0001 -0.0953
 4212W        W 4412   4.469   7.272  10.299 -0.0508 -0.1169 -0.0131
 4213W        W 4413  14.347  11.694   2.477  0.0722 -0.0887 -0.4359
 4214W        W 4414   2.982  10.462  13.955  0.5480 -0.0860  0.2507
 4215W        W 4415   2.728   4.016   7.591  0.2858  0.1718 -0.0996
 4216W        W 4416   2.262   4.995  11.727 -0.0658 -0.0398  0.4922
 4217W        W 4417   1.158   1.346   8.304 -0.1346  0.2770 -0.0126
 4218W        W 4418   9.757   9.156  14.470  0.0828  0.4931 -0.2343
 4219W        W 4419  14.219   6.035  10.229  0.3515 -0.1977  0.0121
 4220W        W 4420   3.554   6.543   9.423  0.0942  0.1330  0.2248
 4221W        W 4421   7.245  11.358   7.352  0.1427  0.3105 -0.1839
 4222W        W 4422   3.355  12.212  10.388 -0.0441 -0.0917 -0.1041
 4223W        W 4423   9.828   4.741   5.308 -0.3027  0.0760 -0.1205
 4224W        W 4424   2.563   6.813  14.321 -0.1801  0.2010  0.0697
 4225W        W 4425  12.459   3.166  11.596 -0.0492  0.0944  0.0676
 4226W        W 4426  14.349   0.036  11.068  0.0887  0.0951  0.2279
 4227W        W 4427  12.368  13.303  12.411 -0.2141  0.0812  0.0637
 4228W        W 4428  10.538   5.907  12.756  0.0568  0.2988  0.1489
 4229W        W 4429   9.803   8.648   6.067 -0.0679  0.0630  0.3177
 4230W        W 4430   5.094   8.932   0.697 -0.2853  0.0509  0.1860
 4231W        W 4431   7.956  12.091   6.111  0.2687  0.3861 -0.1127
 4232W        W 4432   9.634   5.347   8.409  0.0425 -0.0005  0.4612
 4233W        W 4433   2.279  10.289   6.888 -0.3375 -0.0011 -0.2451
 4234W        W 4434  11.167   3.768  10.636 -0.3291 -0.0508 -0.1060
 4235W        W 4435   2.092  10.967   3.597 -0.2217  0.0293  0.2914
 4236W        W 4436   3.398  13.713   4.836 -0.0088  0.1333  0.1299
 4237W        W 4437   4.151   5.660  12.035 -0.3848 -0.3319  0.2236
 4238W        W 4438   1.206   8.283   8.015 -0.2319  0.3744 -0.1244
 4239W        W 4439   5.754   5.613   8.113  0.0902  0.2153  0.0937
 4240W        W 4440   1.404   9.842   2.980  0.3857  0.0548 -0.2072
 4241W        W 4441  12.585   7.449   8.924  0.0232  0.0043  0.5262
 4242W        W 4442   6.405   7.764   0.653  0.0989 -0.3176  0.0841
 4243W        W 4443   0.902   4.533   3.764 -0.0805  0.1263  0.1247
 4244W        W 4444  12.598  14.846   8.320  0.1152  0.1766  0.1661
 4245W        W 4445   6.911   7.995   0.996  0.0706 -0.0787 -0.1044
 4246W        W 4446   4.428  13.509   7.265 -0.0874  0.2570 -0.0421
 4247W        W 4447   1.205   5.623  11.607 -0.0583 -0.3280 -0.1485
 4248W        W 4448   7.362   3.813  11.426 -0.0972  0.2296 -0.0370
 4249W        W 4449   0.119  11.065   1.935  0.1076 -0.0625 -0.0658
 4250W        W 4450  14.602   8.586   7.885  0.0007 -0.1278 -0.2405
 4251W        W 4451   5.606   7.596   6.052  0.0845  0.0161 -0.0114
 4252W        W 4452   0.765  10.870   9.823  0.0137  0.4246  0.2390
 4253W        W 4453   2.951   2.830  10.817 -0.0358  0.1140 -0.0158
 4254W        W 4454   3.744   0.982  12.239  0.0423 -0.2575 -0.0539
 4255W        W 4455  14.555   0.174   3.638  0.1978  0.2520  0.1612
 4256W        W 4456   2.220   8.800  12.047  0.0226  0.4204  0.2321
 4257W        W 4457   1.364  10.971   7.327  0.4190 -0.0924 -0.1621
 4258W        W 4458   2.649   3.606   7.101 -0.0648  0.1453  0.3243
 4259W        W 4459  11.634   9.359  14.692  0.2913 -0.0896  0.2734
 4260W        W 4460   2.405  11.616  12.341 -0.2504  0.2329  0.1229
 4261W        W 4461   3.945  11.178   1.528 -0.1773  0.0751 -0.3314
 4262W        W 4462   8.142  12.270   6.721  0.0579  0.1446  0.1449
 4263W        W 4463   3.500  12.996   6.423  0.1783  0.1795 -0.1330
 4264W        W 4464   6.490   5.138   3.291  0.0131 -0.2215  0.5059
 4265W        W 4465  12.934   1.202   6.357  0.0730 -0.0903  0.1053
 4266W        W 4466   4.737   6.888   8.487  0.0700 -0.2763 -0.2816
 4267W        W 4467  10.416   5.705  13.225 -0.0144 -0.0072 -0.0612
 4268W        W 4468  13.966   8.761   0.421  0.0059  0.0456 -0.0110
 4269W        W 4469   1.096   9.030   7.441 -0.1615  0.2200  0.0289
 4270W        W 4470   9.269   7.575   0.265  0.0478 -0.0864 -0.1375
 4271W        W 4471   5.687   3.324   1.376 -0.1384  0.3537 -0.3283
 4272W        W 4472   7.445   6.718   6.862  0.0860  0.3025  0.2133
 4273W        W 4473   3.035   8.020  13.532 -0.2457  0.2102 -0.0257
 4274W        W 4474  14.015   4.710   0.346 -0.3398 -0.0342 -0.1351
 4275W        W 4475   4.103   9.813   7.666 -0.1207  0.1827  0.0195
 4276W        W 4476   7.464   8.801   7.756  0.1198  0.2361  0.0452
 4277W        W 4477  10.493   0.843   6.371  0.2090  0.2160 -0.2413
 4278W        W 4478   1.606   9.108   7.517 -0.0774 -0.0148 -0.1901
 4279W        W 4479   1.408  13.668  10.797  0.0684  0.3797  0.1457
 4280W        W 4480  14.324  10.255   6.092  0.0118  0.0122  0.0476
 4281W        W 4481   8.322   0.933   2.686  0.3041 -0.5439  0.1015
 4282W        W 4482   1.550   3.609   7.788 -0.6926 -0.2326  0.1887
 4283W        W 4483   1.751  14.385   9.722 -0.1964 -0.3270 -0.0193
 4284W        W 4484  12.759   8.580  14.841  0.0987  0.0165  0.0409
 4285W        W 4485   1.606   1.226   6.239  0.0009 -0.1366  0.1717
 4286W        W 4486   5.078   8.326   9.616  0.1125  0.1096 -0.0831
 4287W        W 4487   5.890   5.209  12.606  0.1420 -0.1943 -0.1481
 4288W        W 4488   1.635   5.376   0.181  0.0396 -0.3151 -0.2279
 4289W        W 4489   0.585  11.144  12.622 -0.1472 -0.2277  0.1745
 4290W        W 4490   6.996  14.370   9.089  0.1505  0.1110 -0.1521
 4291W        W 4491   7.647   8.328  12.473 -0.1003 -0.2984  0.0550
 4292W        W 4492  15.047   7.335   7.540 -0.1565 -0.2111 -0.0054
 4293W        W 4493   2.072  10.236  13.878 -0.0438 -0.1119 -0.1716
 4294W        W 4494   5.518  11.644   7.399  0.1622  0.2559 -0.0739
 4295W        W 4495   2.013   8.817   9.401 -0.0255  0.1346  0.0208
 4296W        W 4496  13.611   3.864  13.214 -0.2380  0.0797 -0.1097
 4297W        W 4497  15.152   1.520   1.426 -0.0672 -0.1435  0.0180
 4298W        W 4498  13.117   0.568  10.068  0.1151  0.0646 -0.0827
 4299W        W 4499  13.768   1.844  10.922 -0.0661 -0.1159  0.0018
 4300W        W 4500   4.822  15.007   9.916 -0.1008  0.2846  0.2943
 4301W        W 4501  13.183  13.324   3.467  0.0326  0.3850 -0.0802
 4302W        W 4502   4.983   9.020  10.539 -0.1163 -0.1666 -0.2124
 4303W        W 4503  14.466   5.506   9.494 -0.1109  0.4197  0.0699
 4304W        W 4504   3.947   5.845   0.749 -0.1326 -0.0703  0.0234
 4305W        W 4505   5.311   6.386  13.612  0.0717  0.0603  0.3722
 4306W        W 4506   4.130   9.142   8.827 -0.0305 -0.1642  0.1311
 4307W        W 4507   1.317   2.439  15.129 -0.0364 -0.1490 -0.0077
 4308W        W 4508   2.249  10.633  14.700 -0.1053  0.0001  0.1236
 4309W        W 4509   3.770   9.851   9.270  0.0334 -0.1598  0.0641
 4310W        W 4510   0.580  12.664   2.163 -0.0329 -0.1752  0.0056
 4311W        W 4511   6.468   5.162   6.402  0.0601 -0.0817 -0.1768
 4312W        W 4512  12.418   8.150   0.643  0.1809  0.2395 -0.0877
 4313W        W 4513   4.608  10.680   2.263 -0.3204  0.0429  0.1624
 4314W        W 4514   2.783   6.443   6.664  0.0399  0.2683  0.0054
 4315W        W 4515   3.763  13.644  14.835  0.0481 -0.1525 -0.5209
 4316W        W 4516  11.974   8.761   5.144 -0.2014  0.0567  0.1157
 4317W        W 4517   6.156   7.958   7.824 -0.3662  0.1578 -0.0972
 4318W        W 4518  15.152   7.940  10.137 -0.0493 -0.1724  0.2886
 4319W        W 4519   5.064   0.192  15.023 -0.1471 -0.1009  0.4489
 4320W        W 4520   3.261   3.851  10.653  0.1263 -0.0566  0.1065
 4321W        W 4521   8.707   5.478   5.857  0.3698  0.1730 -0.0591
 4322W        W 4522   6.699   9.042   8.451  0.0310 -0.1753 -0.1954
 4323W        W 4523   1.189   5.465   3.394  0.0348 -0.4288 -0.2105
 4324W        W 4524   2.067   9.768   9.116 -0.0615  0.0961  0.2495
 4325W        W 4525   0.531  10.314   6.472  0.0154 -0.0886 -0.2109
 4326W        W 4526  13.861  10.277   7.723  0.0418 -0.1164  0.2824
 4327W        W 4527   1.757   4.468  13.018  0.1550 -0.1178 -0.0571
 4328W        W 4528   3.104   7.228  12.895 -0.1487 -0.2097  0.0917
 4329W        W 4529   1.685   9.176   3.632 -0.3126 -0.0562  0.2227
 4330W        W 4530  10.018   5.901   4.877 -0.1562  0.2548  0.0943
 4331W        W 4531   1.490   9.432  11.920  0.2099 -0.1303  0.2716
 4332W        W 4532  14.770  10.169   9.526 -0.0666  0.0404 -0.1352
 4333W        W 4533   3.243   8.557   9.701 -0.4003  0.1078  0.1357
 4334W        W 4534   2.882   4.123   9.767  0.2455 -0.1122  0.0649
 4335W        W 4535   8.256  10.221  12.637 -0.0602  0.2697 -0.1830
 4336W        W 4536  14.034   5.291   7.212  0.0051 -0.1553  0.2679
 4337W        W 4537   4.034   2.067   8.123  0.0995 -0.0019 -0.1919
 4338W        W 4538  13.528  13.227   3.090 -0.4468  0.2093  0.1296
 4339W        W 4539   0.288   8.509   9.072 -0.0060 -0.0882  0.2212
 4340W        W 4540  12.171   2.797   7.157 -0.4660 -0.0549 -0.0519
 4341W        W 4541   5.720   8.329  10.042 -0.0517  0.0598  0.0429
 4342W        W 4542   6.296   7.090   1.424  0.1148  0.2609 -0.3923
 4343W        W 4543  12.028   1.267  11.102  0.2362 -0.1379 -0.0670
 4344W        W 4544   3.526  10.856   4.545  0.0850  0.0649 -0.1633
 4345W        W 4545   3.786  11.380   7.580  0.1333  0.2906  0.1258
 4346W        W 4546   1.234   9.224   6.960  0.1757  0.0247  0.0289
 4347W        W 4547   3.653  11.498  11.043  0.2125  0.0215 -0.0891
 4348W        W 4548   0.362   8.041   2.145  0.0632 -0.0946  0.1288
 4349W        W 4549  12.723  11.675   3.219 -0.3621 -0.2491 -0.1600
 4350W        W 4550   4.343  13.388   5.398  0.1011 -0.2834  0.4995
 4351W        W 4551   9.802  11.261   8.158 -0.0305 -0.0253 -0.1072
 4352W        W 4552   0.301   3.088   5.456 -0.1879  0.1523 -0.1235
 4353W        W 4553   0.586  14.452   5.038 -0.0027  0.2442 -0.0970
 4354W        W 4554  15.040  11.164  13.267 -0.0236  0.1440 -0.0527
 4355W        W 4555   6.041  12.786  10.746  0.2319 -0.0296  0.2521
 4356W        W 4556   8.508   7.864   7.440  0.3960  0.0279  0.3624
 4357W        W 4557  10.253  12.197  12.022  0.2481 -0.2388 -0.0386
 4358W        W 4558   5.943  13.085   5.605  0.0825  0.0022 -0.1819
 4359W        W 4559   5.483  14.614  10.388  0.0194  0.0978 -0.0420
 4360W        W 4560   2.855  14.163   2.696 -0.1784  0.2527 -0.0319
 4361W        W 4561  13.842  12.802  13.913 -0.1505  0.1616  0.3155
 4362W        W 4562   2.081  10.023   6.524 -0.1176 -0.1349  0.0220
 4363W        W 4563   2.908  11.834  12.230 -0.0505  0.1253  0.1363
 4364W        W 4564   0.997  13.989  10.653 -0.0349 -0.1441 -0.1989
 4365W        W 4565   7.308   4.720   6.954  0.3991 -0.0715 -0.2500
 4366W        W 4566   0.372   1.383   6.554 -0.1660  0.1068  0.0967
 4367W        W 4567  13.146   0.465  11.004 -0.2027 -0.1758  0.0957
 4368W        W 4568   3.544  13.516  11.556  0.0337 -0.1137 -0.4143
 4369W        W 4569   7.768   5.670  12.482  0.2463  0.1831 -0.1803
 4370W        W 4570  14.646  14.440   3.496  0.2154  0.0283  0.0857
 4371W        W 4571   1.481   7.938  11.022 -0.0703  0.0104  0.1464
 4372W        W 4572  11.888  13.971   8.004 -0.1263 -0.0919  0.1061
 4373W        W 4573   3.387  15.118   6.048 -0.0762  0.2461 -0.1131
 4374W        W 4574   9.516  11.136   5.392  0.1689  0.2406  0.1566
 4375W        W 4575   7.277  13.589  10.251  0.0465  0.2653  0.0743
 4376W        W 4576  14.921   4.219   8.399  0.1144  0.0635  0.2034
 4377W        W 4577  14.984   9.172   8.920  0.2892 -0.0684 -0.0328
 4378W        W 4578   9.986   0.929  12.988 -0.1116 -0.0089 -0.0701
 4379W        W 4579   3.863  11.850   2.168 -0.1121  0.0102  0.0740
 4380W        W 4580  14.220   1.261  14.026 -0.0329  0.0877 -0.0566
 4381W        W 4581  13.765   4.316   0.616 -0.5154  0.3118  0.1786
 4382W        W 4582  12.603   6.876   4.261  0.4965  0.2542 -0.0233
 4383W        W 4583   8.469  12.599   1.513  0.0252  0.3672  0.0342
 4384W        W 4584   7.479   5.013   5.254  0.2831 -0.0452  0.0966
 4385W        W 4585   2.457  13.762  10.197  0.0669  0.0683  0.3150
 4386W        W 4586   8.535   3.064   6.914 -0.2434 -0.1257  0.1538
 4387W        W 4587   1.938   8.237   6.387  0.0172 -0.0146  0.0378
 4388W        W 4588  13.342   9.891   4.921  0.1070  0.0966 -0.1687
 4389W        W 4589   4.913  15.163   2.164  0.0622  0.4718  0.2197
 4390W        W 4590  11.699  12.457   3.945  0.3359  0.0949  0.0805
 4391W        W 4591   5.403  13.545   7.166 -0.1051  0.0004 -0.2183
 4392W        W 4592  10.392   8.347  11.107 -0.0114 -0.2671 -0.1710
 4393W        W 4593   7.754   5.899   3.687 -0.1878 -0.2604  0.1512
 4394W        W 4594   3.160   9.304  12.448 -0.0244 -0.0059 -0.2996
 4395W        W 4595   5.440  13.919   8.157 -0.0918  0.2492  0.2915
 4396W        W 4596   9.130  10.556   7.455 -0.1394  0.5337 -0.1679
 4397W        W 4597  10.312   4.036   6.035 -0.0307  0.1008 -0.1593
 4398W        W 4598  15.104  11.073   8.053  0.1511  0.0323  0.0633
 4399W        W 4599   1.548   0.189   8.608 -0.1492 -0.0354 -0.0414
 4400W        W 4600   0.869   2.751  11.911  0.2832 -0.0746 -0.1842
 4401W        W 4601  13.860   3.761   0.698 -0.2140  0.0183 -0.1129
 4402W        W 4602   4.888   8.736  13.061 -0.1038 -0.1319 -0.1065
 4403W        W 4603   7.404   4.046  10.529  0.0602 -0.1551  0.1665
 4404W        W 4604   6.691  13.135   6.261 -0.0568 -0.0938 -0.0064
 4405W        W 4605  11.850  10.192  12.377  0.0120 -0.1059 -0.1097
 4406W        W 4606  12.762   8.326  13.475 -0.1834 -0.0028 -0.0759
 4407W        W 4607  14.245   5.673   8.994  0.0725  0.0125  0.0279
 4408W        W 4608   2.455   7.222  12.963  0.1120  0.1508  0.4130
 4409W        W 4609   8.073   4.425   5.896  0.0511  0.1143  0.4826
 4410W        W 4610  11.338   8.982  14.592 -0.1534 -0.0788 -0.1551
 4411W        W 4611  10.883  11.058   4.344 -0.1003 -0.1838 -0.0385
 4412W        W 4612  10.176   2.203  11.890  0.5124  0.3020  0.0535
 4413W        W 4613   7.721   1.516  12.871  0.1171 -0.0185  0.3156
 4414W        W 4614   4.154  12.300   5.842 -0.1605 -0.0079 -0.0479
 4415W        W 4615   1.181  12.449   5.918  0.0748 -0.0019 -0.1597
 4416W        W 4616  14.607  10.080   9.066  0.2900 -0.1250  0.0172
 4417W        W 4617  10.544   6.840   3.663 -0.0320  0.1661  0.0605
 4418W        W 4618   3.995   9.747  11.750 -0.1842  0.1414 -0.0321
 4419W        W 4619   3.937   9.337   0.527  0.1458  0.0267  0.1275
 4420W        W 4620   5.527  11.574   0.281  0.1282  0.1896 -0.3003
 4421W        W 4621  13.866   9.312   2.660  0.0320  0.3278 -0.1389
 4422W        W 4622   0.832  11.257  14.890  0.0119  0.1972 -0.1601
 4423W        W 4623   8.273   5.810   9.159 -0.3597 -0.1191  0.1755
 4424W        W 4624   8.857  10.985   9.553 -0.1488  0.0635 -0.1737
 4425W        W 4625  11.880   5.106   3.455 -0.2810 -0.2469 -0.0889
 4426W        W 4626   3.024   9.306  13.005  0.0967  0.0149  0.0816
 4427W        W 4627  10.143   4.297  13.345  0.0622 -0.0524  0.4037
 4428W        W 4628   9.308   3.176   4.345 -0.2122 -0.0419  0.3549
 4429W        W 4629   7.980  15.190  13.703 -0.0050  0.1574 -0.2765
 4430W        W 4630   3.532   9.585   0.679  0.1539  0.1127  0.0879
 4431W        W 4631   2.868   9.343  11.238  0.3263  0.1025  0.0406
 4432W        W 4632   4.998   5.787   4.363  0.4146 -0.0591 -0.0437
 4433W        W 4633   4.368   4.269  12.257 -0.1404  0.1991 -0.1548
 4434W        W 4634   3.817   5.297  12.142 -0.0028  0.1928  0.3333
 4435W        W 4635   2.908   7.933  11.317 -0.1463  0.0452 -0.2218
 4436W        W 4636  12.699  13.285  14.154 -0.0797 -0.0911  0.1636
 4437W        W 4637   4.122  13.717   6.158  0.0362 -0.1669 -0.1216
 4438W        W 4638   6.118   8.326   1.338 -0.1875  0.0571 -0.1386
 4439W        W 4639  14.013   1.127   9.376  0.2353  0.0918  0.0896
 4440W        W 4640   2.313   0.688   9.849  0.0846  0.2366  0.2100
 4441W        W 4641   4.622   6.376   8.528  0.2972 -0.3424 -0.1508
 4442W        W 4642   3.431   9.061   7.637 -0.2727  0.3689 -0.3054
 4443W        W 4643   7.360   4.533  10.679  0.3456  0.0506  0.1031
 4444W        W 4644   4.260   4.706   3.726 -0.1859  0.1021  0.1779
 4445W        W 4645  12.579  12.871  11.763 -0.0939 -0.2170  0.1423
 4446W        W 4646   0.103  13.165  12.457  0.1630 -0.1155  0.0410
 4447W        W 4647   0.131   1.240  11.493  0.1645  0.1869 -0.2364
 4448W        W 4648  15.025  12.608   7.307  0.1044 -0.1713 -0.0377
 4449W        W 4649   3.855  10.116   6.658 -0.0654  0.1571 -0.1373
 4450W        W 4650   1.633   9.452   0.850 -0.2949  0.0157  0.0051
 4451W        W 4651  14.434  10.290  13.839  0.1890  0.0613  0.1184
 4452W        W 4652   0.927  10.053   9.389  0.6013  0.1329 -0.0063
 4453W        W 4653  13.307   1.109   8.998  0.1763 -0.0934 -0.3385
 4454W        W 4654   4.729   9.735   8.344  0.0465 -0.2422 -0.0647
 4455W        W 4655  14.852  12.545  10.036 -0.4045  0.0704  0.1447
 4456W        W 4656   6.964   6.577  11.184  0.0004 -0.4396  0.1256
 4457W        W 4657   0.961  12.421   9.469 -0.0007 -0.2472 -0.0975
 4458W        W 4658   2.119   2.750   4.332  0.0675 -0.1287  0.0097
 4459W        W 4659   1.081   2.009   8.034  0.0943  0.1126 -0.0864
 4460W        W 4660   4.792   8.584  10.421  0.1783 -0.0223  0.0608
 4461W        W 4661   5.866  14.725  11.089 -0.0334 -0.2207 -0.4808
 4462W        W 4662   5.452  12.801   4.623 -0.0940  0.0570  0.2405
 4463W        W 4663   6.534  14.770   0.098 -0.1573  0.0353 -0.0759
 4464W        W 4664   9.903   5.078  10.604 -0.0934 -0.0394 -0.2374
 4465W        W 4665  10.053   3.035   2.727 -0.2282 -0.1345  0.5153
 4466W        W 4666  12.011   0.499   6.999 -0.0966  0.3672  0.0874
 4467W        W 4667   4.257  10.620   9.625 -0.1541  0.2082  0.0091
 4468W        W 4668  10.073   4.221   7.695 -0.2904  0.2596 -0.0920
 4469W        W 4669   7.746   0.400   6.401 -0.3641  0.1507  0.1267
 4470W        W 4670   5.818   5.029   8.280 -0.1690 -0.4847 -0.3917
 4471W        W 4671  12.888   9.360  10.291 -0.2557 -0.2104 -0.0452
 4472W        W 4672   3.503  10.841   0.081 -0.0654 -0.0820 -0.0928
 4473W        W 4673   3.895   9.388   7.877  0.0151  0.0040 -0.0242
 4474W        W 4674  12.481   8.329   3.915  0.2652 -0.0318 -0.1449
 4475W        W 4675   4.619   8.566   0.710  0.1273  0.3556 -0.2334
 4476W        W 4676  12.198   1.619  12.553 -0.0333 -0.1364 -0.0404
 4477W        W 4677  13.855   1.003  15.078  0.1859  0.0321  0.0172
 4478W        W 4678   8.842  13.767  12.276 -0.0868 -0.0479 -0.2231
 4479W        W 4679   1.560   2.555  11.140  0.1111 -0.1093 -0.0891
 4480W        W 4680   0.411  12.354   4.317  0.1595  0.0762  0.1492
 4481W        W 4681  14.209   4.062   7.926  0.2094 -0.1148  0.0739
 4482W        W 4682   1.173   9.956   7.421 -0.3368  0.1771 -0.1180
 4483W        W 4683  13.546   0.521   7.352 -0.2334  0.1729 -0.0755
 4484W        W 4684   5.135   1.190   7.712  0.1952 -0.2528 -0.2003
 4485W        W 4685   8.879  12.219   9.459  0.0669 -0.0858 -0.0869
 4486W        W 4686   0.347   1.648  13.109  0.0365  0.1926  0.0367
 4487W        W 4687   9.323  11.208   8.282  0.0427 -0.2680  0.2280
 4488W        W 4688   9.378   7.879   4.360  0.2114  0.1473  0.1406
 4489W        W 4689  10.789   4.446  11.931  0.1416 -0.2763 -0.0298
 4490W        W 4690  10.083   4.482  11.747  0.0573 -0.4736  0.2228
 4491W        W 4691  10.587  13.508   6.867 -0.0810  0.1139 -0.2905
 4492W        W 4692   4.988   6.992   9.400  0.2749 -0.1751  0.2884
 4493W        W 4693   5.556  12.328  11.848 -0.0107  0.3044 -0.0354
 4494W        W 4694   8.970   6.468   4.196  0.3509  0.0529 -0.0057
 4495W        W 4695   7.987   9.566  10.683 -0.2367 -0.0359  0.1329
 4496W        W 4696  14.096  11.785   1.490  0.0612 -0.1872  0.2840
 4497W        W 4697   9.172  10.230   4.830  0.0963 -0.0340 -0.0446
 4498W        W 4698  12.080   4.904  14.674  0.0506  0.2529 -0.3089
 4499W        W 4699   2.098  10.428  10.999 -0.0069  0.0405  0.1182
 4500W        W 4700   0.229   7.120   8.927  0.0054 -0.1413  0.3363
 4501W        W 4701   8.973   0.374  11.673  0.3468 -0.0977  0.1828
 4502W        W 4702   8.310  12.084   5.358  0.2038 -0.2669  0.0606
 4503W        W 4703  14.741   8.855   7.536  0.1920 -0.1591  0.1152
 4504W        W 4704  14.529   6.498   4.062 -0.1186  0.3040 -0.1890
 4505W        W 4705   7.654   9.539  11.130 -0.1146 -0.1517  0.2086
 4506W        W 4706  14.809   2.956  13.835  0.1732 -0.3995  0.4018
 4507W        W 4707   2.506  11.210   4.413 -0.2587  0.3439  0.1532
 4508W        W 4708   5.193  11.120  13.549  0.1119  0.1524 -0.1121
 4509W        W 4709   4.309   6.823   3.521  0.3431 -0.1928 -0.3090
 4510W        W 4710  11.165   5.258  12.076 -0.2885  0.0663  0.0718
 4511W        W 4711  12.888   6.228  12.095  0.1075  0.2921 -0.4365
 4512W        W 4712   5.454   7.768  13.341  0.0538  0.1071  0.0083
 4513W        W 4713  13.274   5.496   8.615  0.3869 -0.1476 -0.0777
 4514W        W 4714   4.950  15.129   5.570  0.1737  0.2644  0.1066
 4515W        W 4715   8.215   2.952  10.608  0.0568  0.1870  0.0982
 4516W        W 4716   8.134   4.200   0.232  0.2452  0.1047  0.0546
 4517W        W 4717   0.901   0.920  11.752  0.3117  0.2729 -0.1208
 4518W        W 4718   0.832   5.003   0.448  0.2366  0.1597 -0.0927
 4519W        W 4719   2.651  10.561  12.511 -0.1461  0.0819  0.1761
 4520W        W 4720   6.354   0.661   7.930 -0.0082 -0.0764  0.1474
 4521W        W 4721   7.272   6.035  13.872  0.1077 -0.1965  0.0956
 4522W        W 4722   2.667   0.810   7.426 -0.0965  0.1181 -0.0162
 4523W        W 4723   3.067   7.228   8.836 -0.1128 -0.0028 -0.4001
 4524W        W 4724   8.032   7.562   7.801 -0.1957  0.2962 -0.3395
 4525W        W 4725   7.339   0.835   9.311 -0.2533 -0.4447  0.1622
 4526W        W 4726   0.405   7.660   2.455 -0.0253 -0.0390  0.1228
 4527W        W 4727   4.276  13.071   8.004 -0.0220  0.2977 -0.1654
 4528W        W 4728   3.356   5.552  10.876 -0.2207  0.0071 -0.0071
 4529W        W 4729   3.086   5.649   8.796 -0.1274  0.5335 -0.1124
 4530W        W 4730   9.452  12.772   6.604  0.0764  0.2355  0.0377
 4531W        W 4731   6.915   3.804   5.090 -0.2313  0.1045 -0.0765
 4532W        W 4732   5.518   2.576  10.236  0.0172 -0.0715 -0.0756
 4533W        W 4733  12.023   3.989  14.355 -0.0400  0.1859 -0.0409
 4534W        W 4734   9.836  11.021  12.534  0.1674 -0.1180 -0.1834
 4535W        W 4735   4.557   5.328  12.044 -0.2548  0.1172  0.2128
 4536W        W 4736   0.544  12.588   8.642 -0.2308  0.3112 -0.0620
 4537W        W 4737  10.627  10.116  10.773 -0.1118  0.1428 -0.1981
 4538W        W 4738  11.214   9.898   6.493 -0.0189 -0.1406  0.1168
 4539W        W 4739   7.672   7.631   0.953 -0.0515 -0.0531 -0.0215
 4540W        W 4740   7.547  10.740   9.764  0.3880  0.0198  0.0160
 4541W        W 4741  14.804   3.181  14.656  0.6259 -0.0819  0.1647
 4542W        W 4742   5.197   0.231   0.783  0.3223 -0.0158  0.0370
 4543W        W 4743   0.986   9.964  13.594 -0.0451 -0.2511 -0.0927
 4544W        W 4744   4.052   1.123  10.133 -0.0286 -0.0762 -0.2456
 4545W        W 4745  11.260   6.076  11.097  0.1164  0.2405 -0.0512
 4546W        W 4746   2.118  14.747  14.409  0.0913 -0.1865  0.3098
 4547W        W 4747   3.932   3.871   3.975 -0.0781  0.1315 -0.0043
 4548W        W 4748   0.492   9.754  12.517  0.2370  0.0238  0.2181
 4549W        W 4749   7.369  15.120   9.389  0.0371  0.4081  0.1279
 4550W        W 4750   6.863  10.916   3.929 -0.0639  0.0123  0.1317
 4551W        W 4751   4.451   7.483   0.174 -0.4319 -0.3449  0.2055
 4552W        W 4752   7.499   3.007  13.851  0.0759  0.1062  0.0917
 4553W        W 4753   1.584  10.528  15.108 -0.0633  0.0488 -0.2578
 4554W        W 4754   1.589   2.815   4.775 -0.0455  0.0691 -0.1988
 4555W        W 4755   1.714   5.962  10.501  0.0980  0.3461  0.1473
 4556W        W 4756  11.285  10.134   3.506  0.0401 -0.2435 -0.1425
 4557W        W 4757   0.296  13.593   2.549 -0.1146  0.0678  0.0226
 4558W        W 4758   2.524   5.304   6.118 -0.1102  0.0057  0.0211
 4559W        W 4759   1.569   9.453   4.199 -0.1089  0.1368  0.1314
 4560W        W 4760   3.613  14.816  13.912  0.1507 -0.1110  0.2763
 4561W        W 4761   0.735  13.896   4.342  0.3235 -0.2559 -0.3160
 4562W        W 4762   4.399   6.434   6.777 -0.0602  0.0420 -0.0261
 4563W        W 4763  12.706   6.723   7.831  0.1749 -0.0008 -0.1657
 4564W        W 4764   6.404   1.701   7.159  0.1128 -0.1921  0.1799
 4565W        W 4765   8.744   2.827  13.065  0.1455 -0.1490  0.0742
 4566W        W 4766  15.097  12.599   6.371  0.3980  0.2706 -0.2859
 4567W        W 4767   0.152   9.463  10.056 -0.1562 -0.0233  0.0723
 4568W        W 4768   2.081  10.500   1.587 -0.0870  0.2732  0.1151
 4569W        W 4769  14.454  14.871   3.751  0.3398 -0.0040  0.1436
 4570W        W 4770  13.302   7.789  12.322  0.0791 -0.2844 -0.0894
 4571W        W 4771   7.279   2.522   6.837  0.1304  0.1854 -0.3706
 4572W        W 4772  11.918   8.225  13.668 -0.1724 -0.1320 -0.0429
 4573W        W 4773   9.604   1.652   1.146 -0.0009 -0.2188 -0.2527
 4574W        W 4774   7.620   9.215  12.211 -0.1920 -0.0994  0.0837
 4575W        W 4775  11.604   8.795   9.878  0.0768 -0.0017  0.0186
 4576W        W 4776  15.175   8.187   8.729 -0.2536  0.0606 -0.1778
 4577W        W 4777  14.376   5.790   8.534  0.3082 -0.0340  0.0547
 4578W        W 4778  12.487  13.185  14.853 -0.2043  0.0993  0.2139
 4579W        W 4779  10.806   6.621  13.837 -0.1941 -0.1192  0.2038
 4580W        W 4780   8.885   2.906   8.755  0.2003 -0.3805  0.0209
 4581W        W 4781   4.211  11.182   5.172 -0.3028 -0.1161 -0.0669
 4582W        W 4782  14.930   0.713   9.597  0.1417  0.0043  0.1477
 4583W        W 4783   0.826   0.610  12.605  0.0150  0.0514 -0.0343
 4584W        W 4784  11.913   0.208   6.538 -0.0075  0.2933  0.0278
 4585W        W 4785   8.580  12.696  10.809 -0.0082  0.0104 -0.0262
 4586W        W 4786   0.694   2.962   9.063  0.3772 -0.0266 -0.2301
 4587W        W 4787  14.825  11.424   9.231 -0.1874 -0.1237 -0.3550
 4588W        W 4788  14.221   7.128  14.539 -0.1555  0.1509  0.2188
 4589W        W 4789   1.586   4.692   7.792 -0.2896 -0.0997 -0.0141
 4590W        W 4790   7.234   9.906  15.095  0.0569 -0.0546  0.1972
 4591W        W 4791   2.766  14.945   0.408 -0.0406 -0.1099 -0.0614
 4592W        W 4792  11.462  10.205   9.355  0.0478 -0.0721 -0.1797
 4593W        W 4793  13.019  10.545   1.912  0.1382 -0.2149 -0.2178
 4594W        W 4794   8.603   4.173  14.352 -0.0129 -0.0650 -0.1919
 4595W        W 4795   0.703  10.442   5.970  0.1588  0.1426 -0.1081
 4596W        W 4796   1.562   7.550   0.371 -0.0277  0.2466 -0.4757
 4597W        W 4797   3.108   6.322  13.382  0.1611  0.0471 -0.2222
 4598W        W 4798   0.459   5.028   0.942  0.3474  0.1885 -0.1930
 4599W        W 4799  14.811   3.283   8.945 -0.2159 -0.1299 -0.0906
 4600W        W 4800  10.883   2.717  10.576  0.3694 -0.1922  0.0045
 4601W        W 4801  10.306  14.834   0.184  0.1931  0.1989 -0.1564
 4602W        W 4802   5.486   9.967  12.951 -0.2350  0.2627 -0.2420
 4603W        W 4803  12.716   4.623   9.264  0.0613  0.2340 -0.2118
 4604W        W 4804   4.282   8.066   7.965  0.0635  0.1545  0.1318
 4605W        W 4805   1.406   9.537   7.305 -0.1463  0.0249  0.1516
 4606W        W 4806   6.471   8.814   7.513 -0.1644  0.0040  0.0291
 4607W        W 4807   7.849   5.951   1.216 -0.1043 -0.2855  0.0078
 4608W        W 4808   4.516  11.316  13.771 -0.1686 -0.1867  0.2888
 4609W        W 4809   2.543   6.656  11.694  0.1320 -0.1470 -0.0309
 4610W        W 4810   7.218   9.560   8.156 -0.1001 -0.2144  0.1076
 4611W        W 4811   6.861  13.716  14.388  0.1392  0.1045  0.1228
 4612W        W 4812   0.482  14.435   6.145  0.0151 -0.1534 -0.0695
 4613W        W 4813   9.923  11.676   1.758 -0.0385  0.1795 -0.1023
 4614W        W 4814   7.288   8.923   2.422 -0.0915 -0.1355 -0.0229
 4615W        W 4815   5.417   2.939  11.354  0.3684  0.1133  0.2590
 4616W        W 4816   7.087   8.781   2.854 -0.0178  0.1368  0.1436
 4617W        W 4817   3.705  10.787   1.146 -0.3462  0.1656  0.0887
 4618W        W 4818  10.619  10.608  10.593  0.1465  0.1603 -0.0284
 4619W        W 4819  14.204   3.599   4.264 -0.1305  0.0923  0.0275
 4620W        W 4820   2.973  11.336  13.121 -0.1610  0.1319  0.1138
 4621W        W 4821  11.527   6.686  10.517  0.0552 -0.1434 -0.1460
 4622W        W 4822   3.449   2.342  12.527  0.4446  0.4717 -0.2155
 4623W        W 4823   3.274   7.561  13.614  0.0503 -0.1789  0.0645
 4624W        W 4824   2.599   6.302   4.536  0.0865  0.0251 -0.0420
 4625W        W 4825   0.308   4.557   8.848 -0.1185 -0.3404 -0.0313
 4626W        W 4826   8.277   3.510   6.881 -0.1433  0.1105 -0.0876
 4627W        W 4827  10.937  12.400   9.550  0.0153 -0.1418  0.0293
 4628W        W 4828   4.061   1.314  10.817  0.2912 -0.1706  0.0297
 4629W        W 4829   6.550  14.082   0.473  0.3499 -0.1658  0.2451
 4630W        W 4830   7.170   4.135   8.238  0.1486  0.0176  0.3335
 4631W        W 4831   6.823   6.917  10.479  0.0538  0.2504 -0.2443
 4632W        W 4832   8.208  14.527   9.783 -0.1661 -0.0571 -0.1281
 4633W        W 4833   0.429   5.587  10.567  0.3395 -0.1125 -0.1048
 4634W        W 4834   3.964   2.274  12.788 -0.1569  0.0602  0.2777
 4635W        W 4835  12.416   9.640   1.739 -0.3899 -0.2758 -0.3214
 4636W        W 4836  13.495   7.343  11.483 -0.3760 -0.0074 -0.0793
 4637W        W 4837  13.846   7.751   6.494 -0.0558 -0.1645  0.1912
 4638W        W 4838  14.051   5.505   1.412 -0.1062  0.0203  0.1469
 4639W        W 4839  15.063  14.082   2.695  0.0367  0.0307 -0.2576
 4640W        W 4840   0.658   6.902   3.859  0.3183 -0.0342  0.0133
 4641W        W 4841  14.966   5.474   5.436  0.2774  0.3864  0.1075
 4642W        W 4842   4.442   6.069   2.004  0.0412 -0.0118  0.3997
 4643W        W 4843   2.664   5.117   5.182 -0.1190 -0.0138 -0.0574
 4644W        W 4844  14.869  15.147   1.741  0.1701  0.1590 -0.2401
 4645W        W 4845   0.184  13.257   6.806  0.2067  0.1581  0.1925
 4646W        W 4846   1.384   9.783   5.759 -0.1453  0.2831  0.3192
 4647W        W 4847   1.712  11.073   8.944  0.2324 -0.0391  0.0935
 4648W        W 4848   8.253   4.213  14.934  0.2107 -0.2069  0.0049
 4649W        W 4849   8.134   7.576   9.584 -0.0847  0.4390  0.0718
 4650W        W 4850  13.544   9.543  11.928 -0.1402 -0.0357  0.0257
 4651W        W 4851   2.338  12.038   0.848  0.4628  0.2756 -0.0155
 4652W        W 4852   4.773  14.320   6.247  0.3109  0.1874  0.2575
 4653W        W 4853   4.420   8.988  14.858  0.0460  0.1023 -0.0565
 4654W        W 4854   6.369   7.287   3.204  0.0295  0.0963  0.0094
 4655W        W 4855   3.741  10.761  14.569 -0.3811  0.2600  0.0659
 4656W        W 4856  13.931   4.642  10.542 -0.1053  0.0288 -0.1670
 4657W        W 4857   7.382   9.982   1.437  0.1438 -0.1017  0.1291
 4658W        W 4858  12.654   8.188  15.153  0.2220 -0.1427  0.1563
 4659W        W 4859   0.771  12.211   2.398 -0.0428  0.1268  0.0925
 4660W        W 4860  10.479   2.176   2.817  0.0814  0.2996  0.0536
 4661W        W 4861   0.869  12.074  13.312  0.0053 -0.0100 -0.1404
 4662W        W 4862  10.515   4.453  11.492 -0.0134  0.0014 -0.0955
 4663W        W 4863  14.215   8.750   3.755 -0.0568  0.0559 -0.1919
 4664W        W 4864   4.939   9.412   4.482 -0.2734  0.1594  0.0016
 4665W        W 4865   1.936   7.257  12.309 -0.0615  0.0253  0.1978
 4666W        W 4866   5.969  12.562   1.956  0.0816  0.0616  0.2955
 4667W        W 4867   5.456  12.955   7.472 -0.1135 -0.2657  0.0886
 4668W        W 4868  14.884   7.701   7.169 -0.0738  0.4735 -0.1330
 4669W        W 4869   3.776   4.242   6.009  0.3168  0.2054  0.0956
 4670W        W 4870  12.553   2.820  13.488 -0.2874  0.0229 -0.0568
 4671W        W 4871   4.672   5.366  14.144 -0.2179  0.0247  0.1936
 4672W        W 4872   0.829   5.879   0.484 -0.2221  0.1317  0.3212
 4673W        W 4873   2.624   8.071   8.146 -0.1359 -0.1103  0.0069
 4674W        W 4874   0.501   4.635   6.278 -0.0423 -0.0190 -0.0563
 4675W        W 4875   2.627  10.942  11.681  0.2318 -0.1646  0.0651
 4676W        W 4876   3.577   6.035  13.078  0.1266 -0.1988  0.1725
 4677W        W 4877   4.903   6.576  12.751  0.0005  0.4309  0.2476
 4678W        W 4878   1.912   3.057   2.580  0.0286 -0.0849  0.3406
 4679W        W 4879  14.409   2.778   3.045 -0.0576  0.0188  0.0107
 4680W        W 4880  10.357   2.649  10.484 -0.1864 -0.0462 -0.2154
 4681W        W 4881   8.638  12.145   0.651  0.2524 -0.0833 -0.2523
 4682W        W 4882  11.058  11.322  14.746  0.0360 -0.2688  0.0324
 4683W        W 4883   1.644  14.831  11.174  0.1637  0.0955  0.1155
 4684W        W 4884   1.588  12.470   0.181  0.1781  0.0242  0.0151
 4685W        W 4885  12.881   4.170  14.181 -0.3561  0.0359 -0.0176
 4686W        W 4886   8.036  14.985   0.161 -0.0590  0.2866  0.3361
 4687W        W 4887  14.177  13.194   9.404  0.0852 -0.1675 -0.1170
 4688W        W 4888   0.465   1.130  11.946  0.0733  0.0629  0.1002
 4689W        W 4889   8.518  11.881  10.892  0.4456  0.1775 -0.1333
 4690W        W 4890  14.447   8.038   0.281 -0.0368  0.3923  0.0460
 4691W        W 4891  14.819   4.536   5.216 -0.0990  0.1031  0.1239
 4692W        W 4892   2.138   4.820   8.701 -0.1376 -0.0099 -0.1845
 4693W        W 4893  14.514   2.592   2.083 -0.0018 -0.1571  0.0445
 4694W        W 4894   6.538  13.340   2.417  0.1077 -0.0612  0.0973
 4695W        W 4895   3.039  13.564   6.883 -0.0852 -0.1059  0.1042
 4696W        W 4896  10.966  11.957   7.025 -0.1901 -0.3822 -0.1300
 4697W        W 4897   0.888   6.033   6.922 -0.1148  0.2361 -0.3588
 4698W        W 4898  10.305   5.290   6.294  0.3530 -0.0396  0.0260
 4699W        W 4899   1.912  12.033  11.660  0.0169 -0.1510  0.3431
 4700W        W 4900   1.727   5.957  14.321 -0.0230 -0.0720 -0.0294
 4701W        W 4901   4.624   6.619  10.881  0.0854  0.2144 -0.2770
 4702W        W 4902   5.838  12.136  10.883  0.2081 -0.2848  0.0913
 4703W        W 4903   1.757  13.490   9.851  0.1047 -0.1675  0.0044
 4704W        W 4904   7.667  11.893   8.611  0.1945  0.0524  0.1893
 4705W        W 4905   6.886   5.988   3.715 -0.2071  0.4520 -0.0096
 4706W        W 4906  13.141  12.207   1.536  0.0416 -0.1243  0.0817
 4707W        W 4907   4.648   8.426  10.997  0.1627 -0.0117 -0.3025
 4708W        W 4908   9.424   1.526  14.405  0.1705 -0.1825 -0.4157
 4709W        W 4909  13.389   5.656  10.977  0.1812  0.2241  0.0614
 4710W        W 4910   5.954   9.703   2.698 -0.1248 -0.0522 -0.0075
 4711W        W 4911  14.074   5.547   3.609  0.2571 -0.0568  0.3707
 4712W        W 4912   8.077   3.405  12.152 -0.0009  0.1150  0.2422
 4713W        W 4913   4.948   6.925  11.858 -0.0217 -0.0727 -0.2314
 4714W        W 4914   2.933   9.534   4.475  0.0642 -0.0265 -0.1409
 4715W        W 4915   7.908   0.545  12.856  0.3179 -0.0069  0.3377
 4716W        W 4916  10.475   6.821   9.941 -0.1452  0.0534  0.0881
 4717W        W 4917   8.452  11.323  11.196 -0.0562  0.0404  0.2518
 4718W        W 4918  11.021   5.012  14.143  0.0341  0.1478 -0.0184
 4719W        W 4919  10.688   6.423   3.484  0.1979 -0.0300  0.2236
 4720W        W 4920   3.332  14.888   6.518 -0.1694 -0.1510  0.0575
 4721W        W 4921   5.264  13.129   4.992 -0.0733  0.3148 -0.2557
 4722W        W 4922   0.993  11.715   0.648  0.1587 -0.0270  0.1334
 4723W        W 4923   5.938   6.587   5.593  0.2227  0.0294  0.0543
 4724W        W 4924   8.681   5.373   0.065 -0.0824  0.1112 -0.1072
 4725W        W 4925  10.980   0.599  13.483 -0.3412  0.0145  0.1298
 4726W        W 4926  14.917   9.126   2.811  0.0740 -0.0692  0.1710
 4727W        W 4927   1.866   5.990  12.642 -0.0953 -0.1412 -0.0168
 4728W        W 4928   5.233   9.217  14.342 -0.0696  0.0007  0.0407
 4729W        W 4929  14.531   6.716   9.826  0.0835 -0.1138  0.0550
 4730W        W 4930  10.396  13.500  13.541 -0.3447  0.0618  0.1579
 4731W        W 4931  13.977   6.755   9.029 -0.0998  0.0810 -0.1207
 4732W        W 4932   2.122   8.708  14.832  0.2031 -0.2774  0.3755
 4733W        W 4933  12.015  14.334   3.794  0.2893 -0.1183  0.0202
 4734W        W 4934   7.901   7.915  10.375  0.2568  0.2341  0.1541
 4735W        W 4935   4.685   7.780   7.948 -0.4892 -0.1476  0.3681
 4736W        W 4936  10.623  14.295   0.804 -0.0369  0.2554  0.5287
 4737W        W 4937   1.353   4.347   0.191 -0.2056 -0.1860 -0.1376
 4738W        W 4938   4.537   7.921   6.396 -0.3645  0.1686 -0.2750
 4739W        W 4939  14.431   9.210   8.372 -0.0399  0.0131 -0.0328
 4740W        W 4940   0.349   1.221   1.206  0.3656 -0.0475  0.0812
 4741W        W 4941   8.711   7.435   3.422 -0.1162  0.1208 -0.3933
 4742W        W 4942   0.783   8.169   1.174  0.1206  0.2793 -0.2677
 4743W        W 4943   9.270  12.204   3.652  0.4494  0.0592  0.0800
 4744W        W 4944   0.067  12.153  12.722  0.1227 -0.0006  0.2400
 4745W        W 4945   2.889   7.653  12.257 -0.0721 -0.0794 -0.1952
 4746W        W 4946   0.822   5.730   9.449  0.0605 -0.0084 -0.0723
 4747W        W 4947   3.008   8.026  14.861  0.0814  0.2149  0.1321
 4748W        W 4948   1.298  11.382   8.789 -0.2142  0.1933  0.0664
 4749W        W 4949   1.281  10.530   1.332  0.1715  0.1424 -0.0682
 4750W        W 4950   2.145   1.615  11.205  0.0130 -0.2548  0.0577
 4751W        W 4951   6.643   3.620   9.439  0.0934  0.0540  0.1460
 4752W        W 4952   8.130  10.223  11.450  0.1543  0.1891 -0.1187
 4753W        W 4953   4.855   1.140  12.341 -0.0902  0.0048  0.1104
 4754W        W 4954   4.688   9.330  14.548 -0.3183  0.1298 -0.1601
 4755W        W 4955   0.017  13.833   8.779  0.0971 -0.0554 -0.1665
 4756W        W 4956  12.528   4.211   4.213 -0.0040 -0.0140  0.0421
 4757W        W 4957  14.190   9.056  14.603  0.2529  0.0232  0.0892
 4758W        W 4958  11.533   8.556   1.352  0.1434 -0.2607 -0.2536
 4759W        W 4959   7.144   9.270  13.466 -0.0655 -0.0758 -0.2167
 4760W        W 4960   4.859  10.031   6.582  0.0298 -0.1221  0.1985
 4761W        W 4961  13.081   9.681   2.593 -0.1776 -0.1138 -0.0427
 4762W        W 4962   5.660  11.729  12.899  0.1607 -0.1581  0.5579
 4763W        W 4963  14.454   4.325  14.019  0.0529 -0.0052  0.1307
 4764W        W 4964  13.360   7.183  12.016  0.0865 -0.1523 -0.1632
 4765W        W 4965  12.226   6.147   9.814 -0.0045  0.2078  0.1330
 4766W        W 4966   3.719   8.446   1.171  0.1828  0.1130  0.0947
 4767W        W 4967   6.195   5.702   8.942  0.3718 -0.1726 -0.2217
 4768W        W 4968   5.578   8.969  12.659  0.1453  0.1450 -0.2594
 4769W        W 4969   1.384   1.436   6.690  0.0228 -0.0794 -0.2179
 4770W        W 4970   4.805   6.023  14.081  0.1611 -0.0973 -0.0415
 4771W        W 4971   0.419  15.002   3.350 -0.0783 -0.1645 -0.2435
 4772W        W 4972   2.830  13.509   7.344  0.4400 -0.3125 -0.2004
 4773W        W 4973   1.959   5.876  15.080 -0.1498  0.1023  0.0922
 4774W        W 4974   0.160   8.999   9.230 -0.2968  0.2206 -0.1925
 4775W        W 4975  13.191  10.769   3.474  0.1259  0.0551  0.0764
 4776W        W 4976   1.989   5.684   9.205 -0.1307 -0.1839 -0.0248
 4777W        W 4977   2.560  10.883  12.163 -0.0336  0.1904  0.0623
 4778W        W 4978  14.482   3.006   9.400 -0.0008  0.2712 -0.0791
 4779W        W 4979   0.858   3.743  12.732  0.2752  0.0953  0.0794
 4780W        W 4980   2.582  14.154  13.331 -0.1340  0.1376 -0.3881
 4781W        W 4981   1.786  10.462   0.358  0.2564 -0.1710  0.0050
 4782W        W 4982   7.715   4.508   5.472  0.2004 -0.1427 -0.5001
 4783W        W 4983   0.184   8.640   6.384  0.2694 -0.0709  0.3155
 4784W        W 4984   1.125   7.530   9.414  0.0177 -0.5275  0.3794
 4785W        W 4985  15.078   7.660  11.979 -0.0247 -0.2426  0.1006
 4786W        W 4986  10.092   8.796   0.383  0.2152 -0.1941  0.1627
 4787W        W 4987   1.814  11.278   7.379 -0.0687 -0.0018  0.0767
 4788W        W 4988   5.297  14.993   3.125  0.0752 -0.0134 -0.1546
 4789W        W 4989   3.162  11.342   5.932  0.1597 -0.1216  0.3344
 4790W        W 4990   6.606   0.731   0.896 -0.0545  0.0268 -0.1434
 4791W        W 4991   7.190   6.778   7.842 -0.0852 -0.0589 -0.0780
 4792W        W 4992   9.409   8.075   0.520 -0.1882 -0.1226 -0.3782
 4793W        W 4993   2.400  11.702   3.106  0.0269 -0.1797  0.2752
 4794W        W 4994   5.801   7.895  11.434  0.0025 -0.0657 -0.0362
 4795W        W 4995   3.052   6.749   9.255 -0.1661 -0.0443 -0.3130
 4796W        W 4996   8.345  10.439  10.717  0.3207 -0.2289 -0.0292
 4797W        W 4997   6.000  13.759   1.793 -0.0576  0.1217 -0.0354
 4798W        W 4998   6.778  11.769  11.796 -0.0616  0.4850  0.1878
 4799W        W 4999   7.323   3.985  12.523 -0.2495  0.2954 -0.0607
 4800W        W 5000  10.309   1.138  14.440 -0.1971 -0.0685 -0.1730
 4801W        W 5001   3.068   4.419  12.099  0.0043 -0.1292 -0.1125
 4802W        W 5002   1.263   2.107  14.718  0.1345  0.0585 -0.1949
 4803W        W 5003   1.984   0.323  14.223 -0.1561 -0.0841 -0.1854
 4804W        W 5004  12.606   5.851   0.579  0.0707 -0.1730 -0.0417
 4805W        W 5005   5.801  11.468   3.041  0.0283  0.1633 -0.1365
 4806W        W 5006   3.713  12.800  12.285 -0.1998 -0.1709  0.2019
 4807W        W 5007  13.252   5.011   7.769 -0.1917  0.1969  0.1297
 4808W        W 5008   1.948   7.513   3.032 -0.1254 -0.1069  0.0471
 4809W        W 5009   7.604   8.502   2.367 -0.0310  0.1341 -0.2385
 4810W        W 5010   2.428   4.372  14.342 -0.1472 -0.1891 -0.0706
 4811W        W 5011   4.671  14.595   8.514  0.0891  0.1527 -0.0882
 4812W        W 5012   0.146  10.599   3.090  0.1564 -0.0104  0.1970
 4813W        W 5013   5.724   4.069   2.332  0.0389 -0.1133 -0.0227
 4814W        W 5014   1.928   2.481  10.808  0.1112 -0.0451  0.1580
 4815W        W 5015   3.760   2.883   9.161  0.1485  0.1459 -0.3205
 4816W        W 5016  10.954   9.329   2.915  0.0497 -0.0666 -0.5487
 4817W        W 5017   5.694   2.038  10.255  0.2709 -0.0858 -0.1085
 4818W        W 5018  11.334   7.951   6.150  0.0301 -0.0458 -0.2097
 4819W        W 5019  13.770   0.478   8.798 -0.0442 -0.0834 -0.2424
 4820W        W 5020   4.314   8.517  12.357 -0.0557 -0.0618  0.2104
 4821W        W 5021   5.237  13.767  11.965  0.1145 -0.1805  0.4215
 4822W        W 5022   5.068   8.939  13.960  0.1477 -0.0120  0.1961
 4823W        W 5023  12.260   2.921   4.772  0.2489  0.1132 -0.0112
 4824W        W 5024   5.308   7.689  14.893  0.1055 -0.0057 -0.0915
 4825W        W 5025  14.669   8.382  15.185 -0.0332  0.0505  0.0396
 4826W        W 5026  13.928   7.019  11.705 -0.2421  0.0242 -0.0098
 4827W        W 5027  11.345   4.727   5.945  0.1349  0.1014  0.0945
 4828W        W 5028   5.472  11.425   7.807 -0.2565  0.1659 -0.2246
 4829W        W 5029   1.118   9.722   1.625  0.1125  0.1987 -0.1033
 4830W        W 5030   5.004  12.705   2.150 -0.0168  0.0122 -0.2627
 4831W        W 5031   5.864  13.284   3.964  0.2600  0.0079 -0.2154
 4832W        W 5032  11.365   4.959  12.993 -0.0266 -0.0230 -0.1056
 4833W        W 5033   7.866   9.386   9.682  0.2108  0.0473  0.2736
 4834W        W 5034   6.437   9.249  14.393  0.3136  0.4027  0.1060
 4835W        W 5035   2.352  13.398   2.258  0.1289  0.0684 -0.0911
 4836W        W 5036   2.789   6.661  14.736 -0.0382  0.2249  0.0780
 4837W        W 5037   6.175   5.756   0.113 -0.0124  0.1193  0.1464
 4838W        W 5038  12.459   7.019  11.713 -0.0444  0.0167 -0.1513
 4839W        W 5039  11.669   9.917   2.779 -0.3746  0.4255 -0.0799
 4840W        W 5040   1.142  14.441  10.427  0.0235  0.2397  0.1451
 4841W        W 5041  13.609  10.016   5.361  0.0679 -0.3714  0.4988
 4842W        W 5042   3.242  13.240  14.408 -0.1338  0.0484 -0.1164
 4843W        W 5043  13.822  13.987   8.884 -0.0930 -0.0727  0.2034
 4844W        W 5044   6.076   4.446   4.573 -0.0045  0.1233  0.1595
 4845W        W 5045   2.963  11.000  14.055 -0.0097 -0.1105  0.0345
 4846W        W 5046   7.830  11.535  11.448 -0.0607 -0.0138  0.2092
 4847W        W 5047  13.732   3.498  13.713  0.2419 -0.1950 -0.0012
 4848W        W 5048   5.693  10.020   3.054  0.3467  0.0230  0.1613
 4849W        W 5049   8.783  11.026   9.034 -0.1357 -0.1038  0.1875
 4850W        W 5050   8.647   1.185   2.032  0.0990 -0.0302 -0.0882
 4851W        W 5051   5.414   0.776  11.824 -0.1952 -0.1566  0.1183
 4852W        W 5052  15.159  10.210   2.856 -0.0292  0.2459 -0.1121
 4853W        W 5053   4.626  13.833  10.391  0.1464 -0.1730  0.2043
 4854W        W 5054   4.515  12.903  10.518 -0.0648  0.1489 -0.3041
 4855W        W 5055   5.858   6.910  12.694 -0.3219  0.0203 -0.0358
 4856W        W 5056   5.925   2.799  11.008 -0.1815  0.1825  0.1957
 4857W        W 5057  10.269   3.687  14.744 -0.4867 -0.0567 -0.1744
 4858W        W 5058  14.451  12.440  11.068 -0.0238  0.1312 -0.1233
 4859W        W 5059   3.270   0.715  14.984 -0.1565  0.1735  0.2904
 4860W        W 5060  13.667   8.890  10.677  0.0939 -0.1505 -0.0319
 4861W        W 5061  14.402   0.326   7.054 -0.0270  0.4627 -0.1682
 4862W        W 5062   2.625  10.980  12.866 -0.0519 -0.1729 -0.0390
 4863W        W 5063   3.540   4.161  12.247  0.1719 -0.1919  0.0512
 4864W        W 5064  11.595  10.663   9.906  0.0226 -0.0742  0.0633
 4865W        W 5065   2.340   1.289  12.850  0.2616 -0.0695  0.1245
 4866W        W 5066   3.397  14.673  15.070 -0.2906 -0.1228  0.0401
 4867W        W 5067   1.156   4.399   2.190  0.2226  0.0516 -0.0905
 4868W        W 5068  14.740  11.037   0.567  0.3645 -0.0269  0.0135
 4869W        W 5069   7.915   0.399   2.757  0.0059  0.0875 -0.0944
 4870W        W 5070   7.870   3.389   7.339  0.3564 -0.1472 -0.0402
 4871W        W 5071   8.466   4.704   6.288 -0.0159  0.0306  0.1142
 4872W        W 5072  13.194   9.950  12.901  0.0513 -0.1284  0.1653
 4873W        W 5073   4.285   9.205  11.066  0.1684 -0.0378  0.2424
 4874W        W 5074   1.654   5.147   7.528 -0.2013  0.0331  0.1127
 4875W        W 5075  14.566  14.414  12.732 -0.2215  0.3094 -0.0402
 4876W        W 5076   1.972   7.659   8.955  0.0757 -0.1142  0.0700
 4877W        W 5077   4.246  10.886  10.585 -0.2143  0.0358 -0.1233
 4878W        W 5078   1.756  10.273  13.057 -0.0113  0.0553  0.0423
 4879W        W 5079   2.408   1.250   2.751 -0.1837 -0.0496 -0.1496
 4880W        W 5080   3.203  13.096   7.141  0.0037  0.1173 -0.0787
 4881W        W 5081  12.297  14.273   7.156 -0.0332  0.1236  0.1016
 4882W        W 5082   6.950   0.082   9.183  0.1452  0.1630  0.0523
 4883W        W 5083   7.017   1.362   6.866  0.0194  0.0598  0.0612
 4884W        W 5084  10.712   8.102  13.878  0.0481 -0.3875 -0.0653
 4885W        W 5085  13.607   6.231  12.020 -0.2403 -0.1077  0.1733
 4886W        W 5086   6.632  11.422   6.473  0.1333  0.4080 -0.3127
 4887W        W 5087   3.510  12.143   2.418  0.1951 -0.0271 -0.1301
 4888W        W 5088   3.826   5.015   2.126  0.1878  0.2858  0.2355
 4889W        W 5089   5.038  11.592   0.324  0.1825 -0.1634  0.1186
 4890W        W 5090  11.198   4.170  10.123 -0.0968  0.1630  0.0795
 4891W        W 5091  13.681  10.921  11.357  0.0600  0.4351  0.0460
 4892W        W 5092  11.629   3.843   7.593 -0.0021  0.1102 -0.1602
 4893W        W 5093   4.648  11.918   9.879  0.1569  0.2091  0.1028
 4894W        W 5094   3.200  10.293  14.541 -0.0795 -0.4187 -0.0574
 4895W        W 5095   9.983  14.395  10.309  0.1277  0.4054  0.1021
 4896W        W 5096   2.146  14.837  13.111 -0.4266  0.0033  0.0513
 4897W        W 5097   2.450  12.550   4.461 -0.2065 -0.1556  0.2953
 4898W        W 5098   0.023  12.029   1.999 -0.0708 -0.1347  0.2109
 4899W        W 5099   3.915   1.055   0.844  0.2759  0.0594 -0.0522
 4900W        W 5100   9.673   7.325   8.127  0.2213 -0.1730 -0.3662
 4901W        W 5101  14.212   7.500   0.321 -0.3009  0.2403 -0.1540
 4902W        W 5102  13.174  12.244   4.615  0.0570  0.0664  0.3033
 4903W        W 5103  11.412   1.333  13.203  0.0552  0.0420  0.0720
 4904W        W 5104   4.488   9.034  13.126 -0.1924 -0.0929  0.0945
 4905W        W 5105   7.463   9.819   7.685 -0.0777 -0.0598  0.5724
 4906W        W 5106   3.834  13.625  10.793 -0.0910 -0.0243  0.1567
 4907W        W 5107   0.838  10.627  10.270 -0.3284  0.0092  0.1040
 4908W        W 5108  12.442   3.383   9.773 -0.2189  0.2586 -0.0070
 4909W        W 5109  14.411   0.080   8.335  0.1793 -0.2450 -0.1686
 4910W        W 5110  14.910  13.471   5.260 -0.1844  0.1964  0.0839
 4911W        W 5111   8.333  12.323   7.649 -0.0655 -0.0128  0.0538
 4912W        W 5112  10.744   3.160  14.111 -0.0636  0.0692 -0.0337
 4913W        W 5113  13.242   9.837   0.562  0.3284  0.0865  0.0959
 4914W        W 5114  10.897   4.383   2.740 -0.1901  0.2228 -0.0952
 4915W        W 5115   1.897  10.818  12.179  0.0609 -0.2557  0.0063
 4916W        W 5116   5.126  13.079   0.263  0.2377  0.1240  0.0204
 4917W        W 5117   9.229   5.215  11.339 -0.2974 -0.0386  0.0450
 4918W        W 5118  14.928  14.221  13.871  0.1728  0.2118  0.0909
 4919W        W 5119   9.959   9.392  10.433  0.0553  0.1502 -0.0573
 4920W        W 5120   6.324   6.711   4.285  0.2861 -0.0904  0.0634
 4921W        W 5121   0.792   6.194   5.898  0.4987  0.2869 -0.1301
 4922W        W 5122   5.405   1.600   2.999  0.2082  0.2782 -0.1771
 4923W        W 5123  11.986   0.271   5.147 -0.3972  0.0475 -0.0739
 4924W        W 5124  13.398   8.117   8.665  0.0925  0.0026 -0.2293
 4925W        W 5125   1.913   7.774   1.780 -0.3511  0.3444  0.2683
 4926W        W 5126   0.479  10.472  12.940 -0.1416 -0.0016  0.1494
 4927W        W 5127   1.037   0.829   4.992 -0.1703  0.0048 -0.1766
 4928W        W 5128   0.075   4.149  10.870 -0.0168 -0.0926 -0.3738
 4929W        W 5129   7.851  10.657   5.433 -0.0264 -0.0398 -0.1266
 4930W        W 5130  12.213   3.211  13.353  0.3636  0.2038  0.1826
 4931W        W 5131   7.571  13.225  10.593 -0.0962 -0.2079  0.3009
 4932W        W 5132  10.931  15.190   9.397  0.1855  0.2603  0.2496
 4933W        W 5133   5.304   0.559   9.886 -0.5235 -0.0978 -0.0387
 4934W        W 5134   0.207   0.464   2.545 -0.0795  0.1158 -0.0720
 4935W        W 5135  12.467  13.368   6.688  0.0868  0.1125  0.3406
 4936W        W 5136   3.737   6.926  11.525 -0.2411  0.0815  0.1877
 4937W        W 5137  12.744  10.412  11.766  0.2587  0.2838 -0.3157
 4938W        W 5138   2.264   1.843  13.075 -0.0713 -0.0754  0.1065
 4939W        W 5139   0.500  11.028  10.263 -0.1024 -0.0720 -0.2815
 4940W        W 5140   4.230  11.356  12.831  0.0829  0.0371 -0.0306
 4941W        W 5141   7.256   4.372  10.125 -0.1132  0.2927 -0.0134
 4942W        W 5142  11.645   3.778   8.141 -0.1925  0.1869  0.0012
 4943W        W 5143   0.612  13.647   3.872 -0.0060 -0.1938 -0.2152
 4944W        W 5144   0.690  13.935  14.826  0.2724  0.0696  0.1916
 4945W        W 5145   6.063   5.223   0.232  0.2657  0.2730  0.4448
 4946W        W 5146   8.068  12.065   8.352  0.0786 -0.0108  0.0090
 4947W        W 5147   8.504   6.982  12.809 -0.0917 -0.0164 -0.0996
 4948W        W 5148   0.965  12.224  11.889 -0.1504  0.0910  0.1998
 4949W        W 5149   2.542  10.324  12.098  0.1676 -0.0549 -0.1799
 4950W        W 5150   0.557   7.628  14.428 -0.1570  0.2646 -0.2482
 4951W        W 5151   3.265  13.433  10.585 -0.0383  0.3423 -0.0278
 4952W        W 5152  12.345   5.426   7.915 -0.4671 -0.0390  0.0399
 4953W        W 5153   8.109   9.702  13.543  0.1414  0.1761 -0.2286
 4954W        W 5154   2.861   2.395  14.117 -0.1242 -0.1790 -0.2515
 4955W        W 5155  10.883   5.589   2.856 -0.1391 -0.2224 -0.1525
 4956W        W 5156   9.342  10.824   9.891  0.0852 -0.3705 -0.1373
 4957W        W 5157   1.721  10.278  12.163  0.0913  0.0337 -0.1406
 4958W        W 5158   0.790  15.061  12.679 -0.2136 -0.0853  0.0220
 4959W        W 5159   1.419   4.660  10.090 -0.0650  0.0785 -0.0248
 4960W        W 5160   5.860   4.811  12.146 -0.1599 -0.0205 -0.0506
 4961W        W 5161   0.101   0.157  13.505 -0.0350  0.2906 -0.3168
 4962W        W 5162  12.278  10.035   3.912  0.0962  0.1892 -0.3205
 4963W        W 5163   5.508   5.658   1.512  0.1267 -0.0406  0.1025
 4964W        W 5164   1.374   9.259  14.686 -0.1391  0.1051 -0.0182
 4965W        W 5165   3.036  10.054  14.999  0.1280  0.2582 -0.2305
 4966W        W 5166   3.878   9.300   4.170 -0.2476  0.1112 -0.2714
 4967W        W 5167  10.068   8.001   6.491  0.0101 -0.1114  0.3326
 4968W        W 5168   1.563  13.044   8.129  0.2022 -0.0232 -0.1084
 4969W        W 5169   1.638  10.402  13.506  0.0119  0.3532 -0.3083
 4970W        W 5170   3.562   9.606   6.131 -0.0515 -0.0906 -0.1239
 4971W        W 5171   0.906  13.505   5.163 -0.1653 -0.1719  0.0111
 4972W        W 5172   5.518  14.284   1.393  0.1327  0.2362 -0.2840
 4973W        W 5173   9.223   0.616   0.371 -0.1462 -0.1991 -0.0323
 4974W        W 5174   9.909   4.580   6.757  0.0841  0.1414 -0.3713
 4975W        W 5175   2.302   2.097   6.035  0.1092  0.1548  0.2649
 4976W        W 5176   4.849   3.696  10.081  0.0244 -0.4949  0.2062
 4977W        W 5177   7.903   5.472  14.844  0.1581 -0.1818  0.3532
 4978W        W 5178  10.318  11.537  11.000 -0.1186 -0.0301 -0.1450
 4979W        W 5179   1.167  10.964   9.114  0.0978 -0.1745 -0.3882
 4980W        W 5180   3.339   0.274   9.915  0.1979 -0.2030  0.2668
 4981W        W 5181   9.062  13.188  11.361  0.0185  0.2344  0.0076
 4982W        W 5182   4.125  12.693   8.802 -0.2126 -0.0836  0.1680
 4983W        W 5183  10.044   7.378  12.047  0.1777 -0.2656 -0.0187
 4984W        W 5184   5.184   0.867   0.398 -0.0026 -0.1214 -0.1361
 4985W        W 5185   5.191   5.429   2.589 -0.0541  0.2059 -0.1964
 4986W        W 5186   7.512   4.377  12.796 -0.0873 -0.1395 -0.0192
 4987W        W 5187  14.246   2.062   1.480 -0.0259 -0.1329 -0.1302
 4988W        W 5188   1.067   3.543  11.350 -0.0198 -0.1807 -0.0073
 4989W        W 5189   4.588   5.960   3.393  0.0479  0.0310  0.0957
 4990W        W 5190   2.122   3.214   1.319  0.0636  0.2784  0.0166
 4991W        W 5191   2.457   4.700  14.758 -0.1459  0.1591  0.0444
 4992W        W 5192  10.140   6.155   2.802 -0.0117 -0.0319 -0.1031
 4993W        W 5193  15.192   4.594  10.600  0.0095  0.1979  0.0801
 4994W        W 5194   3.482   7.255  13.968 -0.0757  0.0602 -0.1288
 4995W        W 5195   3.194   4.845   9.496  0.2690 -0.0365 -0.1037
 4996W        W 5196  12.479   0.205  14.422 -0.0958  0.0639  0.3406
 4997W        W 5197   4.449   5.915   5.980 -0.0022  0.1127 -0.1438
 4998W        W 5198  13.379   3.342   5.311 -0.0741  0.0963  0.3200
 4999W        W 5199   6.864   6.599   1.991  0.1672  0.2001  0.3206
 5000W        W 5200   4.598   4.602   4.195  0.1703 -0.0160 -0.1882
 5001W        W 5201   3.569  14.657   1.074  0.1393 -0.0954  0.0943
 5002W        W 5202   8.227   8.975   9.849  0.3713  0.1411  0.0312
 5003W        W 5203   0.421  13.338  12.793 -0.0286 -0.0678 -0.0151
 5004W        W 5204   2.613  14.503  12.200  0.2622 -0.1659 -0.1795
 5005W        W 5205   3.335  12.217   9.590 -0.4896  0.0051  0.0809
 5006W        W 5206   3.300   5.715   0.457 -0.2842 -0.0208 -0.0562
 5007W        W 5207   9.298   8.894  12.990  0.0721 -0.1093  0.1001
 5008W        W 5208  13.941  12.241   7.091 -0.2563 -0.2636 -0.0066
 5009W        W 5209   2.061  12.830  13.717 -0.1208 -0.2710  0.1094
 5010W        W 5210   9.150  10.173   1.527  0.1484  0.2920  0.2038
 5011W        W 5211  11.306   0.286   1.708 -0.1072  0.1778  0.3512
 5012W        W 5212   0.657   9.857  11.448  0.1298  0.0542  0.0697
 5013W        W 5213   4.870  10.478  13.764  0.2492 -0.1536  0.0013
 5014W        W 5214  14.950   6.524  10.601  0.1497  0.1541  0.0481
 5015W        W 5215   7.535   0.258  12.120 -0.3659 -0.1105 -0.0032
 5016W        W 5216  11.887   6.404   3.684  0.0614 -0.1723 -0.0935
 5017W        W 5217  15.104   5.840  11.248  0.3186 -0.1440  0.0554
 5018W        W 5218   6.383   6.533   3.781 -0.0707 -0.0105 -0.0463
 5019W        W 5219  11.258   9.048   5.716  0.1456 -0.0010  0.0405
 5020W        W 5220  13.068   3.083  13.350  0.3283  0.1005 -0.0511
 5021W        W 5221   2.956  12.599   1.192 -0.2724 -0.0327  0.1393
 5022W        W 5222  13.330   7.548  10.565  0.0513  0.3103 -0.1791
 5023W        W 5223   6.121  13.098   2.622  0.0320  0.0593  0.0532
 5024W        W 5224   8.774   7.169   4.526  0.1264 -0.2381  0.2006
 5025W        W 5225   0.886   5.803   7.386  0.1566  0.1981 -0.0716
 5026W        W 5226   0.396  10.946   0.437  0.1558  0.2449 -0.1074
 5027W        W 5227   7.574   4.248   6.669 -0.0972 -0.2972  0.2715
 5028W        W 5228  11.477   5.850   4.187 -0.1716  0.0835 -0.1302
 5029W        W 5229  11.022   9.930  14.253 -0.0579  0.0368  0.4332
 5030W        W 5230   2.399   6.936   5.835 -0.2260 -0.0893  0.0607
 5031W        W 5231   9.768  11.683   4.286 -0.0704 -0.2686 -0.1657
 5032W        W 5232   8.988   7.342  11.905 -0.1409  0.0219  0.1513
 5033W        W 5233  10.030   8.287  12.957 -0.0594  0.0129  0.1150
 5034W        W 5234   0.897  12.152   6.359  0.0547  0.0610  0.0585
 5035W        W 5235  11.910   2.703  11.240  0.2774 -0.0536  0.1711
 5036W        W 5236  14.119   9.934  14.044 -0.0050 -0.1161 -0.2169
 5037W        W 5237   7.203   5.863  13.085  0.2227 -0.0747  0.2454
 5038W        W 5238   0.389   7.278   1.150  0.0490 -0.1860 -0.1074
 5039W        W 5239   2.419  14.888   5.425 -0.0888 -0.0412 -0.3015
 5040W        W 5240  11.242  10.756  11.176 -0.0037 -0.0641 -0.0167
 5041W        W 5241  15.109   8.940   1.903  0.1473  0.0391 -0.3572
 5042W        W 5242   6.827  13.373   5.869 -0.0278 -0.0992 -0.1752
 5043W        W 5243   3.658  15.015  10.257 -0.2166 -0.1134 -0.2066
 5044W        W 5244  14.941  11.276   3.076  0.0111  0.0523 -0.3216
 5045W        W 5245   9.677  12.319   9.116 -0.0596 -0.2147 -0.3486
 5046W        W 5246   7.158  12.235  14.138 -0.1086 -0.1366  0.1657
 5047W        W 5247  11.791   8.996  15.087  0.0506 -0.0184 -0.0518
 5048W        W 5248   1.573   7.127   2.277 -0.0113  0.2221 -0.1429
 5049W        W 5249  14.438  11.013   9.060 -0.0506  0.1276  0.1361
 5050W        W 5250  12.846  14.876   2.477  0.0329  0.3559  0.2284
 5051W        W 5251   3.612   3.482   9.643  0.1174  0.0779 -0.0369
 5052W        W 5252  11.967   4.030  13.877  0.0030  0.1536  0.1621
 5053W        W 5253   5.394  14.926  13.682 -0.0231 -0.0430 -0.3409
 5054W        W 5254  13.353   8.752  14.656  0.0576 -0.0679 -0.0618
 5055W        W 5255  14.580   8.578   0.440 -0.3985  0.1325  0.0951
 5056W        W 5256   3.725   8.091   1.660  0.0608 -0.0039 -0.0039
 5057W        W 5257   0.569   3.699   0.217 -0.1225  0.0885 -0.1308
 5058W        W 5258  15.103   3.212   3.018  0.1565  0.3589 -0.0111
 5059W        W 5259   3.648  11.151  14.251  0.0728 -0.1514 -0.2515
 5060W        W 5260   6.412  12.298   2.340 -0.3801 -0.0692 -0.1830
 5061W        W 5261   3.579   4.582  13.235 -0.3368 -0.0803 -0.2199
 5062W        W 5262   0.680  14.062   2.634 -0.1138 -0.2480 -0.2900
 5063W        W 5263   2.205   7.559   0.812 -0.1481  0.2111 -0.0486
 5064W        W 5264   1.826  14.567   2.854 -0.0822  0.1709  0.1357
 5065W        W 5265   0.779  10.926  13.016  0.2716 -0.0460  0.1252
 5066W        W 5266  13.541   9.608   9.445  0.1543 -0.2441  0.0754
 5067W        W 5267   5.871  11.306   3.551 -0.1135 -0.2316  0.1022
 5068W        W 5268   9.401   9.255   8.821 -0.2551  0.0539  0.2687
 5069W        W 5269   4.735   5.101  10.586  0.0689 -0.1672  0.0207
 5070W        W 5270   3.994   9.024   2.618  0.0080 -0.2502 -0.0049
 5071W        W 5271   6.295  12.197  13.453  0.2518  0.0870  0.1673
 5072W        W 5272   0.608   9.817   2.326 -0.3120 -0.0197  0.3075
 5073W        W 5273   0.179   6.758   4.635  0.2423 -0.3762 -0.0818
 5074W        W 5274   7.302   2.896   5.231  0.2906 -0.2005 -0.0971
 5075W        W 5275   2.121   1.478   0.619 -0.0520 -0.2034  0.1651
 5076W        W 5276   9.963  11.498  11.459  0.1731 -0.1958 -0.1047
 5077W        W 5277   2.407  12.302   0.405  0.0200  0.1917  0.0576
 5078W        W 5278   7.316  11.425   2.689 -0.1307 -0.0469 -0.2193
 5079W        W 5279   1.760   7.287  11.389  0.0005  0.0617  0.1537
 5080W        W 5280   9.485   5.460  10.076  0.0220 -0.3014 -0.1870
 5081W        W 5281  10.085   3.705   0.024 -0.0398  0.1431  0.3023
 5082W        W 5282   0.908   5.312  11.861 -0.0194  0.0089  0.1138
 5083W        W 5283   7.708  12.424   1.430 -0.0111 -0.2502 -0.0202
 5084W        W 5284   7.592   4.360   2.721  0.2060  0.0038 -0.1167
 5085W        W 5285  14.174   6.061  13.458  0.0895  0.0513 -0.0214
 5086W        W 5286  14.683  13.339   6.138  0.0882  0.0683  0.2296
 5087W        W 5287   0.738  13.417   0.781 -0.0286 -0.1598  0.1433
 5088W        W 5288  14.077   6.485   7.195 -0.0390 -0.1593  0.0191
 5089W        W 5289   3.878   7.148   4.300  0.0817  0.1184  0.2443
 5090W        W 5290   0.785  13.011  10.110 -0.1041 -0.1382  0.3499
 5091W        W 5291   4.036   1.571   0.087 -0.0721 -0.0415  0.1169
 5092W        W 5292   2.999   7.279   1.280 -0.0913 -0.2182  0.2907
 5093W        W 5293  14.947  14.694   6.267  0.0558 -0.1592 -0.2209
 5094W        W 5294   1.546   1.442  13.627  0.0077 -0.3266 -0.0283
 5095W        W 5295   1.285   8.978  13.081 -0.2754 -0.2324  0.2531
 5096W        W 5296  14.017  10.018   2.208  0.0645  0.0129  0.0443
 5097W        W 5297  11.661   3.740   9.380 -0.1112  0.0478  0.1050
 5098W        W 5298   7.595   4.381   6.108  0.2632  0.3808  0.0201
 5099W        W 5299   6.519   9.709  11.095  0.2213 -0.1010  0.0672
 5100W        W 5300   7.847   6.208   4.073 -0.0400 -0.2542 -0.4035
 5101W        W 5301   6.982  13.964   9.456 -0.0724  0.0233  0.1888
 5102W        W 5302  15.128   1.213   6.698  0.0024 -0.1173  0.0181
 5103W        W 5303  14.274  14.961  14.054  0.2390  0.1375 -0.5705
 5104W        W 5304   1.045   2.499  12.739  0.0836  0.0513 -0.2812
 5105W        W 5305  15.186  10.963   4.518 -0.1197  0.1321  0.0149
 5106W        W 5306  10.851  14.135  15.007  0.0040  0.1279  0.1610
 5107W        W 5307  14.327   1.226   9.022  0.1829 -0.1100  0.1054
 5108W        W 5308   1.333   1.286  12.258  0.1494  0.0662  0.1996
 5109W        W 5309   8.541  14.148   1.579  0.2199  0.0044  0.1276
 5110W        W 5310   6.731   6.310   2.801 -0.1248 -0.1032  0.0192
 5111W        W 5311   6.797   9.681  11.530 -0.0081 -0.3162  0.2277
 5112W        W 5312   1.982  14.260   1.738 -0.0365 -0.0152 -0.1419
 5113W        W 5313  12.735  13.913   2.850  0.1410 -0.0015  0.2321
 5114W        W 5314   2.919  12.409   3.631 -0.2035 -0.1522 -0.0597
 5115W        W 5315   0.351   4.075   0.980 -0.1880 -0.0877 -0.3631
 5116W        W 5316   6.757   3.078  14.537  0.3008 -0.0634 -0.3404
 5117W        W 5317  10.098   4.380   7.218 -0.1964  0.1148 -0.1770
 5118W        W 5318   1.649  14.078  14.163 -0.2098 -0.0098 -0.1504
 5119W        W 5319   4.605   7.011   2.202 -0.2429  0.2547  0.0939
 5120W        W 5320  11.148  12.457  11.885 -0.0667 -0.1673  0.3228
 5121W        W 5321   8.086   9.194  13.201  0.4452 -0.0289 -0.0983
 5122W        W 5322   4.437  12.916   5.203  0.0538 -0.1689 -0.2908
 5123W        W 5323   4.660  14.234   1.452 -0.2237 -0.2009 -0.1090
 5124W        W 5324   7.389  11.088  12.128 -0.3097  0.1544 -0.3033
 5125W        W 5325   1.389   2.795   8.589  0.1176 -0.0967 -0.3780
 5126W        W 5326  11.093  12.458  14.062  0.0254 -0.0794  0.0583
 5127W        W 5327   6.212  12.282  11.195 -0.1665  0.2121  0.0785
 5128W        W 5328   1.019  12.681   1.122  0.0189  0.3985 -0.0531
 5129W        W 5329  10.157  13.831   1.076 -0.0929  0.3200  0.1008
 5130W        W 5330  14.248   2.320   4.857  0.0831  0.1689 -0.2162
 5131W        W 5331   7.262  13.662  14.773 -0.0901  0.1394 -0.0990
 5132W        W 5332   4.842   7.436  14.761 -0.3514  0.1248  0.2358
 5133W        W 5333   7.908   3.344   0.549  0.1700  0.1107 -0.0814
 5134W        W 5334   0.696   1.721  10.111 -0.2257 -0.0837 -0.1172
 5135W        W 5335   5.729  10.983   3.007 -0.1941 -0.2390 -0.1544
 5136W        W 5336   3.395   9.443   8.023  0.1835 -0.3546 -0.3519
 5137W        W 5337   6.980   4.939   8.146  0.0058 -0.1388 -0.1415
 5138W        W 5338  14.919   3.239   5.378  0.1414 -0.2620 -0.4311
 5139W        W 5339   8.903  14.929   2.660 -0.3559 -0.2159 -0.0706
 5140W        W 5340  10.916  12.793   2.082  0.2050 -0.2724  0.1522
 5141W        W 5341   1.338   8.395   1.520  0.2363  0.1494  0.1018
 5142W        W 5342   6.807   9.379  11.935  0.0110  0.1142  0.0133
 5143W        W 5343   0.273   8.710   5.369 -0.0483  0.1248 -0.3772
 5144W        W 5344   1.592  11.494  13.608  0.0186  0.2357 -0.1306
 5145W        W 5345   2.158   0.612  13.100 -0.2254  0.0600  0.1517
 5146W        W 5346  15.062   6.924   2.296 -0.0654  0.0496 -0.1075
 5147W        W 5347   1.558   6.494   4.391  0.3080  0.1711 -0.0250
 5148W        W 5348   8.063  14.642   0.813 -0.1388 -0.5105 -0.2350
 5149W        W 5349  13.511   2.851   4.438 -0.0219 -0.3922  0.0101
 5150W        W 5350  11.994   7.753   0.940  0.0264 -0.0098  0.2209
 5151W        W 5351   4.785  10.572   9.657  0.1350 -0.1336  0.2257
 5152W        W 5352  12.795   1.329   4.353  0.1951 -0.0117  0.0983
 5153W        W 5353   1.696   5.257   6.017 -0.0085  0.3127 -0.3374
 5154W        W 5354  10.055   8.439   3.870  0.2861  0.0430  0.1323
 5155W        W 5355   8.646   7.941   0.993 -0.3024  0.1525 -0.1657
 5156W        W 5356   6.839   2.843   3.187  0.2156 -0.0856 -0.1038
 5157W        W 5357   7.135   0.881   2.570 -0.2231  0.1781 -0.0837
 5158W        W 5358   5.478   4.945   2.128  0.0658  0.3336 -0.1133
 5159W        W 5359   2.622   5.558  12.949  0.1567 -0.0903 -0.1561
 5160W        W 5360  12.559  14.795  14.922  0.1495  0.2808  0.2337
 5161W        W 5361   5.580   8.485  10.889  0.0350 -0.0704 -0.3226
 5162W        W 5362  13.004   4.614   2.328  0.0477 -0.1801  0.2328
 5163W        W 5363  14.436  10.019   5.230  0.1237  0.1306  0.0354
 5164W        W 5364  14.060   0.892   5.756  0.0754  0.0070  0.2305
 5165W        W 5365   6.490  15.122   4.071 -0.1876  0.2266  0.1672
 5166W        W 5366   5.524  13.113   7.002  0.1177 -0.2777  0.0750
 5167W        W 5367   8.695  10.945   2.906 -0.1581  0.1437  0.2150
 5168W        W 5368   1.085  12.601   3.063 -0.2590  0.1335  0.1288
 5169W        W 5369   8.561  10.411  11.732 -0.0991  0.0691 -0.1674
 5170W        W 5370  12.823  14.332   4.877  0.0616  0.2471  0.2528
 5171W        W 5371   3.637   1.432   4.126  0.2576  0.2234  0.1494
 5172W        W 5372   0.474   2.729  12.245 -0.4475  0.0998  0.1300
 5173W        W 5373  14.582  13.508   0.229  0.2943  0.3697 -0.2172
 5174W        W 5374  11.892  11.376  14.246  0.0202 -0.2668 -0.3215
 5175W        W 5375  12.026  10.223   7.140  0.0446 -0.1071 -0.2734
 5176W        W 5376  14.937  12.722   0.852 -0.0529 -0.0266  0.0568
 5177W        W 5377   6.655   6.762  14.898  0.2758 -0.3611 -0.1340
 5178W        W 5378   3.653  12.157  11.229  0.1962 -0.0701  0.0718
 5179W        W 5379   6.064  12.505  13.850  0.0419 -0.0959 -0.0095
 5180W        W 5380   8.962  14.304   3.793 -0.2504  0.4364 -0.2227
 5181W        W 5381   9.781   4.982   2.392  0.1127 -0.2251 -0.1579
 5182W        W 5382  13.582   3.647   1.567  0.0754  0.1054 -0.3433
 5183W        W 5383   8.192  11.768  13.778 -0.3476 -0.2322  0.0501
 5184W        W 5384   7.061   5.272   0.862  0.1331 -0.2146 -0.1512
 5185W        W 5385   9.633   9.428   1.904 -0.1535  0.0111 -0.0071
 5186W        W 5386   8.152   3.518   1.126  0.2780 -0.0413 -0.2455
 5187W        W 5387   4.110  12.372  11.585 -0.2101 -0.2434 -0.1143
 5188W        W 5388  12.043   2.179   3.513 -0.1044  0.0249  0.0355
 5189W        W 5389   9.155  10.865   2.577 -0.1517 -0.2395  0.0392
 5190W        W 5390   5.200   7.420   4.709  0.1491  0.0106 -0.2654
 5191W        W 5391   9.508  13.278  13.983  0.2705 -0.1169 -0.0443
 5192W        W 5392   5.850   5.673  14.246 -0.0138  0.1955 -0.0829
 5193W        W 5393   6.255  11.816  10.742  0.0260 -0.0691  0.0734
 5194W        W 5394  14.252  14.417   3.896  0.0871 -0.0057  0.0077
 5195W        W 5395   0.880   0.565   3.512  0.0309  0.1932  0.0067
 5196W        W 5396   5.390   3.261   0.227 -0.3635  0.1306  0.0907
 5197W        W 5397   7.313  15.079  12.483  0.3549  0.0540  0.0571
 5198W        W 5398   0.002   7.118   6.634  0.1615 -0.0761  0.1286
 5199W        W 5399   6.407   2.973  11.853 -0.1624  0.0284  0.0330
 5200W        W 5400   9.913   0.004   1.962  0.2083 -0.1436 -0.0187
 5201W        W 5401   2.191   2.196   3.661  0.0242  0.0162 -0.0005
 5202W        W 5402   8.529  11.647   2.817  0.1465 -0.0212  0.0585
 5203W        W 5403  11.002  14.688   2.729 -0.0079 -0.2518 -0.2160
 5204W        W 5404   5.187   3.373   0.685 -0.0038  0.0695 -0.0167
 5205W        W 5405   2.743   6.899   0.973 -0.0447 -0.0380  0.1556
 5206W        W 5406   0.109   5.758  10.129 -0.1734  0.2505 -0.0874
 5207W        W 5407   0.330  14.820  12.494  0.0307  0.0806  0.1127
 5208W        W 5408   0.103  12.924   7.721 -0.2231  0.0062  0.2888
 5209W        W 5409  13.039  11.366   5.472 -0.0820  0.2502 -0.1436
 5210W        W 5410  14.518  13.095   3.176  0.1287  0.0310  0.3960
 5211W        W 5411   8.674   3.974   5.676 -0.3526  0.0943 -0.0413
 5212W        W 5412   4.278  14.359  10.306 -0.0564 -0.0388 -0.0040
 5213W        W 5413  10.556   8.175   1.890  0.1401  0.0622 -0.4371
 5214W        W 5414  12.242   9.732   8.078 -0.1018 -0.2227  0.1419
 5215W        W 5415   0.608  14.050  14.316 -0.1393  0.0955 -0.1210
 5216W        W 5416   9.480  13.397   3.081 -0.0153 -0.2144  0.0042
 5217W        W 5417  15.156  14.357  11.627 -0.1514 -0.1560  0.4178
 5218W        W 5418   8.707  11.031  11.544 -0.0438  0.7211 -0.0283
 5219W        W 5419   0.267  13.221   3.026  0.2505 -0.0084 -0.4172
 5220W        W 5420  14.555   9.988   1.484  0.0740 -0.6160  0.0167
 5221W        W 5421   8.269   0.787  12.270 -0.1837  0.0513 -0.0215
 5222W        W 5422  14.444  11.801   3.638 -0.0959  0.2790 -0.1451
 5223W        W 5423   5.700   6.033  10.957 -0.0762 -0.2788 -0.3300
 5224W        W 5424   2.895   7.869  11.824 -0.1969  0.3192  0.0418
 5225W        W 5425   4.258   7.339   9.674  0.1283 -0.2035 -0.1399
 5226W        W 5426  10.450  14.258   5.130  0.0497 -0.0713  0.0448
 5227W        W 5427  10.412  10.058  14.977 -0.0474  0.3856 -0.3603
 5228W        W 5428   2.570  12.818  10.675 -0.1219 -0.0261  0.1354
 5229W        W 5429   8.994   8.791   0.809 -0.0733  0.5757 -0.1937
 5230W        W 5430   1.089   5.672   8.708 -0.2580 -0.1059 -0.0438
 5231W        W 5431   7.808   6.188  10.634  0.1709 -0.0851  0.1485
 5232W        W 5432  12.284  10.077  10.599 -0.0852 -0.2132  0.0414
 5233W        W 5433   4.834   9.180   1.787  0.0586 -0.0016 -0.1897
 5234W        W 5434   2.746   6.090   1.401  0.0900  0.0872  0.2124
 5235W        W 5435   9.724  11.257   6.198  0.0323 -0.1082 -0.0197
 5236W        W 5436   5.305   4.074  13.743  0.1180  0.0895  0.1707
 5237W        W 5437   1.936  11.353   0.716  0.0938 -0.1815 -0.2684
 5238W        W 5438   6.521   7.107  14.168 -0.3342  0.0400 -0.1923
 5239W        W 5439   5.690   3.336   9.602 -0.0128  0.0467  0.0037
 5240W        W 5440   3.021  12.232   2.230 -0.0206 -0.0497 -0.1981
 5241W        W 5441   9.149  13.866   4.591 -0.6323 -0.0674 -0.1515
 5242W        W 5442   3.003  10.406  13.421 -0.1281 -0.2186 -0.0967
 5243W        W 5443  12.279   9.241   7.331 -0.0505  0.0693  0.0894
 5244W        W 5444   4.418   7.331   1.225  0.0714  0.1260 -0.1240
 5245W        W 5445   1.376  14.258  12.760  0.0934 -0.0237  0.1194
 5246W        W 5446   3.609   4.859  10.365 -0.4017  0.3565  0.0434
 5247W        W 5447  14.283  11.505  13.874 -0.1439  0.0226 -0.1835
 5248W        W 5448   5.810  12.970   2.203  0.1167  0.0165 -0.2070
 5249W        W 5449   3.203  14.785  10.370  0.0871  0.2319 -0.0122
 5250W        W 5450   7.363   7.321   4.414  0.0876 -0.2484  0.0477
 5251W        W 5451   4.099  14.789   1.239 -0.1347  0.2438 -0.0380
 5252W        W 5452   0.844   7.036   4.841 -0.2223  0.1303  0.1220
 5253W        W 5453  10.902   2.549   8.366  0.2827 -0.0024  0.3814
 5254W        W 5454   2.101  10.071   0.229  0.1588 -0.0670  0.1282
 5255W        W 5455   0.964   0.577   8.912  0.1279  0.1240  0.0389
 5256W        W 5456   0.697   2.915  10.865 -0.0300  0.1425  0.1973
 5257W        W 5457   7.273   6.386   8.160 -0.2852 -0.0107  0.3483
 5258W        W 5458   5.645  13.921   0.100  0.3901  0.0368  0.0829
 5259W        W 5459   0.418   1.597   2.239 -0.0751 -0.1349  0.1749
 5260W        W 5460  11.477   2.789  11.456  0.1585  0.1797  0.0315
 5261W        W 5461   1.173  12.092   1.499  0.0059 -0.1455  0.0811
 5262W        W 5462  13.519   9.253  14.589 -0.0915 -0.2112 -0.2048
 5263W        W 5463  14.934  12.531  12.633 -0.0623  0.1274  0.1332
 5264W        W 5464  12.650   3.281   0.029 -0.0328  0.0697 -0.1792
 5265W        W 5465   5.653  10.363  11.575 -0.0600 -0.1632 -0.0893
 5266W        W 5466  13.032   7.035   5.016  0.2831  0.3420  0.0234
 5267W        W 5467  12.329  10.210   8.662 -0.3926 -0.2042  0.0053
 5268W        W 5468  13.025   6.791   0.512 -0.1117  0.0709  0.1704
 5269W        W 5469   0.181  14.063   2.324 -0.2161  0.1742 -0.0300
 5270W        W 5470   6.237   8.338  15.086 -0.0697  0.2142  0.1784
 5271W        W 5471  13.706  11.469  12.072 -0.2023  0.0813 -0.1172
 5272W        W 5472  10.887   0.350   1.383  0.3121  0.1854  0.0763
 5273W        W 5473  12.173   7.519   6.724 -0.1256  0.2969 -0.0826
 5274W        W 5474   6.238   3.157   0.624 -0.1973 -0.0678  0.0641
 5275W        W 5475   5.658   8.386  11.361 -0.2234 -0.3970 -0.1958
 5276W        W 5476  12.353   6.210   3.813 -0.0571 -0.0668 -0.1937
 5277W        W 5477  12.762   8.733   8.502  0.0944 -0.1403  0.2415
 5278W        W 5478  13.684   3.142   4.949 -0.0921  0.1522 -0.1019
 5279W        W 5479   6.976   3.183   1.539  0.0485  0.1065 -0.2192
 5280W        W 5480   1.944   9.331  11.664  0.0163  0.0448 -0.0674
 5281W        W 5481   8.701   8.357  14.279  0.0127 -0.0023  0.0373
 5282W        W 5482   4.094   0.510  12.483  0.0313 -0.5002  0.0578
 5283W        W 5483   2.614   5.126   2.776 -0.3529  0.1026 -0.1770
 5284W        W 5484   1.704   2.198   1.217  0.2181 -0.1911 -0.2164
 5285W        W 5485   7.321   9.619   6.852 -0.0853  0.1901 -0.3577
 5286W        W 5486  11.676  14.875   1.644  0.3158  0.2100 -0.0005
 5287W        W 5487   7.631  13.359   0.988 -0.1032  0.1457 -0.3017
 5288W        W 5488   1.690   3.416   8.684  0.0824  0.1669 -0.2115
 5289W        W 5489   2.831  14.913   8.371 -0.0284  0.3443 -0.1255
 5290W        W 5490  13.952  13.510   0.195 -0.0669  0.2305  0.0619
 5291W        W 5491   2.520   8.589  12.424  0.1678  0.3283 -0.0935
 5292W        W 5492   5.164   3.912   0.785 -0.0345 -0.2162 -0.3624
 5293W        W 5493   2.618  11.633   7.520 -0.0998 -0.0333 -0.0363
 5294W        W 5494   2.412   1.244   0.189 -0.1261 -0.1639  0.1171
 5295W        W 5495   4.201   7.111  12.396 -0.5062 -0.2312  0.1595
 5296W        W 5496   5.785  14.217  11.725 -0.2229  0.0421 -0.4256
 5297W        W 5497   2.199  11.140   9.772  0.0661 -0.3486 -0.1124
 5298W        W 5498   2.520   8.020  13.530  0.1135  0.0572  0.0955
 5299W        W 5499   8.959  12.125   8.819  0.2907 -0.0338  0.1881
 5300W        W 5500   4.872   3.599   1.071  0.2018 -0.2468 -0.2073
 5301W        W 5501   5.620  12.307  12.831  0.1166 -0.1872 -0.0592
 5302W        W 5502   1.658  12.629  14.348  0.1402  0.3558 -0.1894
 5303W        W 5503  13.053   1.026   2.858 -0.1813  0.0663 -0.3153
 5304W        W 5504   7.689   6.679   2.517  0.1823 -0.3030  0.3840
 5305W        W 5505   0.689   4.044  14.828  0.1201  0.2603 -0.0137
 5306W        W 5506   6.650   5.490   5.978 -0.0753  0.1396 -0.0924
 5307W        W 5507   7.905   1.942   8.847  0.1676 -0.2499 -0.0287
 5308W        W 5508  14.842   9.285   3.284 -0.1337  0.0118 -0.2630
 5309W        W 5509  12.273   2.133  14.629 -0.1232 -0.0139 -0.1116
 5310W        W 5510  12.783   5.170   4.019  0.0537  0.1261  0.1109
 5311W        W 5511   7.238   0.428   9.653  0.2451  0.1597 -0.0774
 5312W        W 5512  12.477   9.798  13.058 -0.0607  0.1513 -0.0066
 5313W        W 5513   4.353   9.237   3.317 -0.2360  0.2272  0.3733
 5314W        W 5514   6.538  11.119  12.671  0.1271  0.1060 -0.1674
 5315W        W 5515   6.839  15.124   6.949 -0.1207 -0.0566 -0.0077
 5316W        W 5516   4.449  14.068   0.064  0.1126  0.3143 -0.2459
 5317W        W 5517   7.807  10.321   1.243 -0.3094 -0.0823  0.1845
 5318W        W 5518  14.114   2.950   4.232 -0.1171  0.0550  0.0269
 5319W        W 5519  10.462   4.504   5.751  0.0614 -0.1223 -0.0685
 5320W        W 5520  10.163  11.200   0.328 -0.0389 -0.1494  0.1002
 5321W        W 5521  12.540   3.757   1.333  0.0265 -0.3698 -0.0412
 5322W        W 5522   5.864  10.919   1.041 -0.0684 -0.0116 -0.1098
 5323W        W 5523   7.230  10.082   3.758  0.0465 -0.1225  0.0883
 5324W        W 5524  11.767   7.533   3.438 -0.1062 -0.0425  0.0150
 5325W        W 5525   2.821   1.221   6.243  0.2962 -0.3173 -0.0539
 5326W        W 5526   2.077   1.677   0.166  0.3888  0.0073  0.0568
 5327W        W 5527   5.437  14.497  10.897 -0.2078  0.3194  0.2464
 5328W        W 5528  14.818   1.594   2.816 -0.2244 -0.0008 -0.0985
 5329W        W 5529   0.871   3.412  14.201  0.2219  0.0313  0.1716
 5330W        W 5530   4.317  13.366   0.545  0.2204  0.0224 -0.3095
 5331W        W 5531   0.799   0.587  12.084  0.1202  0.2102 -0.1828
 5332W        W 5532   1.577  13.905   0.876 -0.0948 -0.1943 -0.1054
 5333W        W 5533   2.260   0.480   6.619  0.0744 -0.2483  0.1260
 5334W        W 5534   4.441   0.443   0.631  0.1714  0.3052 -0.1167
 5335W        W 5535  11.928  11.950   6.662 -0.0381 -0.2235 -0.1169
 5336W        W 5536  14.755  14.605   1.796  0.0628  0.0723 -0.0405
 5337W        W 5537  10.238   1.817  13.440  0.1269  0.0511 -0.0268
 5338W        W 5538   0.069   5.831   1.209 -0.0275 -0.1638 -0.3224
 5339W        W 5539  11.029   9.986   8.211  0.0754 -0.2067  0.1021
 5340W        W 5540  12.035  12.187  13.464 -0.1258  0.0402 -0.0254
 5341W        W 5541   3.104  11.410   1.673 -0.0833 -0.2040 -0.2014
 5342W        W 5542   0.589  12.603  14.702  0.1275 -0.0968  0.0806
 5343W        W 5543   6.257  10.570   4.564  0.0331 -0.1201  0.0933
 5344W        W 5544  13.777  10.027  11.885  0.2148  0.2656  0.0212
 5345W        W 5545   5.096   0.979  13.935  0.3105 -0.2981  0.1028
 5346W        W 5546   0.178   9.275  13.783  0.0224  0.0462 -0.1002
 5347W        W 5547   3.921   9.117   6.884  0.2307 -0.0044 -0.2197
 5348W        W 5548   5.601   5.226  14.167  0.3040 -0.1962 -0.0715
 5349W        W 5549   8.115   7.761   4.151 -0.2025 -0.1146  0.2138
 5350W        W 5550  11.496   5.120   6.879  0.2136 -0.3899 -0.2915
 5351W        W 5551  12.884   7.480  11.117  0.2368  0.1119  0.0272
 5352W        W 5552   2.928   6.662  13.706  0.1371 -0.2046  0.0119
 5353W        W 5553   6.289  12.253  15.193 -0.0453  0.1186  0.3148
 5354W        W 5554  12.570   5.913   2.166 -0.1234 -0.0962 -0.1987
 5355W        W 5555  10.248  13.693   2.020  0.0998  0.1921  0.1663
 5356W        W 5556  14.479   0.333   1.452 -0.2442 -0.3580  0.1223
 5357W        W 5557  11.118   9.996   5.399  0.1811 -0.3383 -0.0842
 5358W        W 5558  14.930   9.205   6.509 -0.1889 -0.0428 -0.1242
 5359W        W 5559   7.452   7.321  10.036  0.0711 -0.2211 -0.2115
 5360W        W 5560   2.943  12.054   3.262  0.4304 -0.1842  0.3092
 5361W        W 5561  12.605  10.360   2.183  0.2918  0.1371  0.0329
 5362W        W 5562   5.965   7.342   4.718  0.1217  0.0025 -0.3873
 5363W        W 5563  12.180   1.562   6.034  0.3391  0.0757  0.2554
 5364W        W 5564   7.663   9.821   4.003 -0.2381 -0.0077  0.2834
 5365W        W 5565   1.971  12.417  11.343  0.2419 -0.1117  0.2071
 5366W        W 5566   2.853   9.457   1.214 -0.3564  0.0744 -0.5006
 5367W        W 5567   5.808   9.534  13.687 -0.0647 -0.0131  0.1484
 5368W        W 5568  10.226   8.914   1.299 -0.0265  0.0102  0.4581
 5369W        W 5569   4.958  13.224   1.196  0.1035 -0.1200  0.0794
 5370W        W 5570  13.073   6.638  14.817 -0.1307 -0.1438  0.0227
 5371W        W 5571   4.512  13.466   3.856  0.0728  0.1807 -0.0167
 5372W        W 5572   2.537  11.592  12.942 -0.0632 -0.0591  0.0926
 5373W        W 5573  15.121   5.397  10.820  0.3107  0.0085 -0.2056
 5374W        W 5574   2.576  13.890  11.504 -0.2082  0.1100 -0.3698
 5375W        W 5575   1.081   7.374  13.480  0.2511  0.0810 -0.0265
 5376W        W 5576   6.904   6.396   0.018 -0.3494  0.0330  0.1053
 5377W        W 5577   2.579   9.385   0.807 -0.0434  0.0298  0.1394
 5378W        W 5578   0.606   3.130   2.457 -0.1751 -0.0744 -0.1430
 5379W        W 5579   8.191   7.608   3.622  0.0262 -0.1652 -0.3172
 5380W        W 5580   6.654   2.381   5.831 -0.0706 -0.0451  0.3848
 5381W        W 5581   8.589   8.703   9.000  0.0620 -0.0641  0.0070
 5382W        W 5582   0.001   6.381   3.761  0.1748  0.1623  0.1237
 5383W        W 5583   0.984   9.575   3.157  0.0478  0.1748  0.1939
 5384W        W 5584   7.398   9.010   1.164 -0.0890  0.0163 -0.0182
 5385W        W 5585   9.571   2.122   4.405 -0.1186 -0.2334 -0.0996
 5386W        W 5586  13.889   8.098   3.198  0.2223  0.0367 -0.0755
 5387W        W 5587   9.645   3.390  11.436  0.2821 -0.2181  0.2566
 5388W        W 5588  14.065  13.318   3.038 -0.2330  0.1390  0.2167
 5389W        W 5589   8.004   7.934   6.199  0.3236  0.0025  0.1861
 5390W        W 5590   1.878  11.537   1.653 -0.0425 -0.1509 -0.0861
 5391W        W 5591  11.398   8.162   3.965  0.1090 -0.1647 -0.0418
 5392W        W 5592   1.367   2.215  12.430  0.0870 -0.0948  0.1837
 5393W        W 5593   7.308  12.299   2.188 -0.1906 -0.3091 -0.1862
 5394W        W 5594   9.054   1.362   6.814 -0.0822 -0.0762  0.0464
 5395W        W 5595   9.346  13.649   2.120 -0.0386 -0.0051  0.1080
 5396W        W 5596   4.587   0.036   0.196 -0.1454 -0.1682 -0.2819
 5397W        W 5597   1.280  13.384  14.927  0.2302 -0.2654  0.0425
 5398W        W 5598   9.199   9.444   3.279  0.1230  0.0400  0.0547
 5399W        W 5599   3.740   0.881  13.271  0.2907  0.0014 -0.1045
 5400W        W 5600  14.292  10.265   6.662 -0.1304 -0.1894 -0.1094
 5401W        W 5601  14.879   5.405  10.283  0.1081 -0.0289  0.1660
 5402W        W 5602   6.676  10.447   0.973 -0.1374 -0.1049  0.0890
 5403W        W 5603   2.861   4.964   1.335  0.0735 -0.0764 -0.1850
 5404W        W 5604   3.621  12.946   9.912 -0.2807  0.0122 -0.0683
 5405W        W 5605  13.977  11.578   8.013  0.1139 -0.2207 -0.1001
 5406W        W 5606   2.727   7.726  13.884 -0.1354  0.0640 -0.1983
 5407W        W 5607  12.858   0.729   0.347  0.1036 -0.1449 -0.0717
 5408W        W 5608   0.069   9.108  14.411 -0.2365 -0.0248 -0.3103
 5409W        W 5609   4.147  10.094   1.021 -0.1400  0.0939  0.0005
 5410W        W 5610  12.121   8.195   6.066 -0.3079 -0.3210 -0.1186
 5411W        W 5611   1.275  12.157   4.457  0.0531  0.0629 -0.2255
 5412W        W 5612  12.861   1.900   7.893  0.0195  0.2312 -0.0561
 5413W        W 5613   5.953   3.457   3.617 -0.2631  0.0476  0.2228
 5414W        W 5614   7.299  11.324  13.818 -0.0194  0.1125 -0.2094
 5415W        W 5615   4.415  14.390   6.615 -0.1663  0.1895 -0.2121
 5416W        W 5616  10.530   3.073   1.378 -0.1825 -0.0349  0.1585
 5417W        W 5617   5.030   4.711   1.535  0.0653 -0.1334  0.1716
 5418W        W 5618   3.311  13.478  11.090  0.0365  0.3389  0.0114
 5419W        W 5619   3.454   8.158   2.115 -0.1266 -0.2626 -0.0399
 5420W        W 5620   4.910  11.425   6.522 -0.0579  0.2293 -0.1485
 5421W        W 5621  12.512   0.899   3.376  0.0336  0.1484 -0.0093
 5422W        W 5622  13.185  13.032   1.010  0.0989 -0.0410 -0.1317
 5423W        W 5623  13.748   0.889   9.065  0.0092  0.3246 -0.0388
 5424W        W 5624   1.372  11.861   4.083 -0.2158  0.0738  0.0908
 5425W        W 5625   1.993  14.405   3.809 -0.1258  0.0730 -0.2070
 5426W        W 5626   7.562  13.648   5.283  0.1576 -0.1143 -0.0591
 5427W        W 5627  14.260   8.730   9.204  0.4392  0.0836  0.0710
 5428W        W 5628   8.665  11.495   3.732  0.1460 -0.1065 -0.0665
 5429W        W 5629   9.016  15.036  14.924 -0.3205  0.1038 -0.2603
 5430W        W 5630   3.265   6.939  13.490 -0.0334 -0.0715 -0.0222
 5431W        W 5631  10.368   7.523  12.878 -0.2527 -0.1190  0.0510
 5432W        W 5632  15.129  13.318  14.556 -0.0508  0.3124  0.1800
 5433W        W 5633   6.066  12.592   8.483 -0.0791 -0.1296  0.0236
 5434W        W 5634  12.442  11.930   4.784 -0.0437  0.3124  0.3014
 5435W        W 5635   5.388   2.823   2.171  0.0252 -0.2266  0.0822
 5436W        W 5636   5.177  11.986  13.599 -0.0696 -0.1488 -0.1037
 5437W        W 5637  11.046   1.095  13.908 -0.0856  0.3374  0.3566
 5438W        W 5638   4.640  13.303   1.603  0.0659  0.1356 -0.0260
 5439W        W 5639  11.936   5.351   8.270  0.0421  0.0367  0.0467
 5440W        W 5640   0.761   6.355  11.587 -0.3637 -0.1457 -0.0088
 5441W        W 5641   9.169   9.030  14.480  0.0608  0.2164 -0.2522
 5442W        W 5642   1.836   2.913  12.443 -0.1576 -0.0213  0.0764
 5443W        W 5643   7.260   7.152   8.132  0.1358  0.1984  0.0616
 5444W        W 5644  14.401   2.502  14.637 -0.0632 -0.0666 -0.1364
 5445W        W 5645   1.128   4.121   7.355 -0.0397 -0.0095  0.2301
 5446W        W 5646  14.452  10.300   1.064 -0.1315  0.3266 -0.2031
 5447W        W 5647  15.093   1.880   0.559  0.0083  0.0684  0.0884
 5448W        W 5648  11.527   0.045  13.281  0.1699  0.0508  0.0702
 5449W        W 5649  14.264   3.915   5.191 -0.0476 -0.1017  0.0485
 5450W        W 5650  12.000  13.204   5.222  0.1585 -0.0561  0.3627
 5451W        W 5651   9.983   6.135   4.001 -0.2494 -0.0279 -0.1160
 5452W        W 5652   7.716  10.921  13.674  0.0212 -0.1519  0.1499
 5453W        W 5653  12.060   0.645   0.695  0.0014  0.0455  0.2539
 5454W        W 5654  13.208  10.666  11.708  0.1297 -0.0001  0.0104
 5455W        W 5655   0.679   6.176   2.238  0.2442 -0.2747 -0.3178
 5456W        W 5656  12.798   8.098   7.984  0.0355  0.1453  0.1066
 5457W        W 5657  13.165   8.286   7.453  0.0198 -0.0632  0.2266
 5458W        W 5658   2.313  11.114  14.971  0.2355  0.2124  0.3680
 5459W        W 5659  10.410  14.586   8.014  0.0220 -0.2100  0.5416
 5460W        W 5660   8.242   5.477   5.761 -0.3542 -0.4599  0.3594
 5461W        W 5661  11.832  14.804   5.986 -0.0388  0.1420  0.1471
 5462W        W 5662   9.405  10.677  11.119  0.3532  0.1809 -0.0462
 5463W        W 5663   4.739   3.628   5.226  0.2193  0.1145  0.2121
 5464W        W 5664   0.317  12.183  10.858  0.3198 -0.2497 -0.0277
 5465W        W 5665   0.018   0.651   5.692  0.0629 -0.0801 -0.2594
 5466W        W 5666  13.532   1.865  13.015 -0.0332 -0.1843 -0.0386
 5467W        W 5667  14.839   7.804   4.620  0.1095  0.1705 -0.3987
 5468W        W 5668  13.322   1.450   5.103  0.0664  0.3529 -0.2053
 5469W        W 5669   4.651   0.627   1.432  0.1345  0.1867 -0.0291
 5470W        W 5670   1.501   1.545   3.078 -0.0482 -0.1257 -0.2630
 5471W        W 5671   2.562   6.572   2.496  0.1363  0.0402  0.0477
 5472W        W 5672   1.577   2.814  10.153  0.0320  0.1855  0.1779
 5473W        W 5673  12.573  11.240  12.168 -0.0446  0.5601 -0.1435
 5474W        W 5674   2.485  12.989   7.778  0.1477 -0.0280  0.1741
 5475W        W 5675  12.294   1.139   7.660  0.0461  0.0032 -0.2959
 5476W        W 5676   8.598   1.865   3.004 -0.0280 -0.0636  0.1167
 5477W        W 5677   9.653  10.473   2.458  0.0358 -0.1180  0.0106
 5478W        W 5678   6.044   9.396  12.017  0.0364  0.2961 -0.1487
 5479W        W 5679   4.262   9.097   9.773  0.1124  0.0303 -0.2658
 5480W        W 5680  13.342   0.094   4.090  0.1171 -0.1189  0.4173
 5481W        W 5681   7.104  10.372   6.459  0.1822 -0.1100 -0.0564
 5482W        W 5682  10.296   1.495   6.445 -0.1404 -0.0031 -0.0861
 5483W        W 5683   0.312   3.140  11.165 -0.0171 -0.0848  0.2780
 5484W        W 5684  12.385  14.569   4.753 -0.1140 -0.1383  0.1548
 5485W        W 5685   0.788   3.421   4.374  0.0633  0.2601  0.2645
 5486W        W 5686   9.892   4.921   6.353 -0.1102 -0.1244  0.0973
 5487W        W 5687   9.381  10.808  13.384 -0.0403 -0.3522 -0.1374
 5488W        W 5688   5.374  11.255   3.237 -0.1410 -0.0306 -0.1730
 5489W        W 5689   3.743  10.159   3.765 -0.0960 -0.2358  0.1730
 5490W        W 5690   0.219   2.466   5.480 -0.3089  0.2795  0.1840
 5491W        W 5691  12.997  13.246   1.418 -0.0289 -0.3008  0.0230
 5492W        W 5692  13.918   9.204  11.050  0.0620 -0.4063 -0.1894
 5493W        W 5693   4.735  12.473  12.568 -0.0692 -0.1493 -0.1765
 5494W        W 5694   7.780  10.949   7.902 -0.2536 -0.1299  0.1811
 5495W        W 5695   9.219   4.227   2.693 -0.3938  0.2559 -0.2150
 5496W        W 5696  10.749   4.530   3.265  0.0231 -0.3106  0.0973
 5497W        W 5697  12.591  11.071  15.132 -0.4292  0.0492 -0.3548
 5498W        W 5698  13.224   3.911   9.633  0.0161  0.0512  0.0557
 5499W        W 5699   8.473   7.989  14.424  0.1659 -0.0136  0.0611
 5500W        W 5700   1.391   3.822   8.296  0.0861 -0.0582  0.0366
 5501W        W 5701  15.179  11.920  11.160 -0.2221 -0.1944 -0.1219
 5502W        W 5702  13.584   9.446   0.057 -0.0039 -0.0193 -0.0051
 5503W        W 5703   1.003   8.767   8.381 -0.2146  0.3090 -0.0597
 5504W        W 5704   3.293   2.189   1.609 -0.3729 -0.0680 -0.0011
 5505W        W 5705  13.535  11.473   7.165  0.2297 -0.1783  0.1202
 5506W        W 5706   1.036  14.763   3.793 -0.1382  0.1483 -0.1128
 5507W        W 5707   5.074   0.999   6.476 -0.0824  0.0421  0.1792
 5508W        W 5708   0.816  13.601   2.353 -0.3274 -0.0042  0.0573
 5509W        W 5709  12.790  14.084   7.734  0.2583  0.0837 -0.1613
 5510W        W 5710   5.560   5.483   3.106  0.3589 -0.1471  0.2459
 5511W        W 5711   1.111  11.981  14.306 -0.3388 -0.0714 -0.1397
 5512W        W 5712   0.696   5.481   6.889 -0.1286 -0.5392 -0.1590
 5513W        W 5713  14.857   9.671   1.144 -0.2206 -0.2954  0.1529
 5514W        W 5714  14.722  13.410   9.944  0.0470  0.0211 -0.1004
 5515W        W 5715   8.736  11.483   1.446  0.0909  0.0467  0.1574
 5516W        W 5716  13.768   8.496   3.558  0.3063 -0.1055 -0.3501
 5517W        W 5717  14.428  13.330   7.699  0.1166  0.0348  0.0478
 5518W        W 5718   2.181  14.890  12.607  0.0155 -0.2796 -0.3387
 5519W        W 5719   7.086   4.145   2.554  0.0231 -0.1890 -0.1605
 5520W        W 5720  14.459  13.119   5.235 -0.0651  0.2551 -0.0950
 5521W        W 5721   3.598   0.502   7.024  0.1592  0.0650 -0.1097
 5522W        W 5722   2.697   2.420   0.505 -0.0617  0.2743  0.1899
 5523W        W 5723   9.439   2.487   5.680  0.1607 -0.0200 -0.0824
 5524W        W 5724  14.539   8.770   7.072  0.1792  0.1611 -0.1962
 5525W        W 5725  11.269   4.237   1.900 -0.0046  0.0711 -0.0657
 5526W        W 5726   5.936   1.683   3.820 -0.1222 -0.0505 -0.3826
 5527W        W 5727   0.810   8.685   7.793 -0.2527 -0.0229 -0.0232
 5528W        W 5728   4.979   9.698  14.795 -0.1454  0.1910 -0.0513
 5529W        W 5729   0.374   0.494  12.762 -0.0080  0.0475 -0.1073
 5530W        W 5730  13.523  12.815   5.879 -0.1792  0.3535  0.1870
 5531W        W 5731   3.086  10.080  12.087  0.1690  0.3058 -0.0922
 5532W        W 5732   3.126   1.863   4.188 -0.2067 -0.1115  0.2274
 5533W        W 5733  12.926   9.038   7.588 -0.0993 -0.1034 -0.1661
 5534W        W 5734   3.695  10.632  10.616 -0.0473  0.2590  0.1557
 5535W        W 5735   1.726   3.361  13.886 -0.0966  0.0659 -0.0950
 5536W        W 5736  11.229   8.873  14.114 -0.0169 -0.0497 -0.2045
 5537W        W 5737  13.745   0.899   6.512  0.1149 -0.2290  0.0122
 5538W        W 5738   2.610  10.538   8.853  0.2117 -0.0642 -0.2257
 5539W        W 5739   1.966   1.948   8.209 -0.0823  0.2736 -0.1353
 5540W        W 5740   9.425  12.496   8.650  0.2885  0.3841  0.0867
 5541W        W 5741   0.737   9.374  12.349  0.1877 -0.2008  0.0425
 5542W        W 5742   3.074  13.130   7.650 -0.0624 -0.1748  0.1874
 5543W        W 5743  10.364  10.912  14.524 -0.1990  0.1062 -0.0389
 5544W        W 5744   3.652   5.550   5.413  0.1322 -0.0538  0.0592
 5545W        W 5745   1.283   6.054  13.520  0.0534  0.0816  0.1657
 5546W        W 5746   4.037  13.025   2.196 -0.3798  0.0253  0.3710
 5547W        W 5747   8.742  13.579   4.724 -0.0611 -0.1424  0.4682
 5548W        W 5748  13.740  14.643  13.072  0.0613  0.0294  0.1508
 5549W        W 5749   6.339  13.581   5.679  0.0574 -0.1467 -0.1773
 5550W        W 5750   6.557  11.649   1.048  0.1711 -0.1383  0.5000
 5551W        W 5751   2.930   2.776   3.939  0.2497  0.2494  0.1647
 5552W        W 5752  13.492   8.420   4.508 -0.1587  0.3357 -0.0403
 5553W        W 5753   8.666   6.535   6.985 -0.2411  0.3003  0.2703
 5554W        W 5754  11.643   1.113   6.859  0.1441  0.1585  0.1531
 5555W        W 5755  12.244   8.716  12.585  0.2864  0.1840  0.0384
 5556W        W 5756  12.698  10.217   6.045  0.0234  0.1356 -0.1702
 5557W        W 5757  10.680  12.320   6.049 -0.1833  0.1533 -0.0704
 5558W        W 5758  12.220  13.238  13.760 -0.1887 -0.0404  0.2020
 5559W        W 5759   0.528  11.892  14.195  0.1357 -0.2234 -0.3099
 5560W        W 5760  11.680   2.015   2.083 -0.0726  0.1966 -0.0769
 5561W        W 5761  14.391   5.998   0.352 -0.1351 -0.1662  0.0482
 5562W        W 5762   0.336   0.992   2.475  0.2841 -0.0269  0.0960
 5563W        W 5763   4.539   2.100   7.084 -0.0886 -0.5465 -0.0702
 5564W        W 5764  11.173  13.262   6.760  0.1728 -0.0699  0.4910
 5565W        W 5765  13.047   3.090   0.933  0.0298 -0.0266  0.0291
 5566W        W 5766   2.516  14.159   6.630  0.1136  0.1839 -0.0618
 5567W        W 5767   5.511  14.990   0.978 -0.0614  0.2941 -0.0174
 5568W        W 5768   8.893   2.138   6.249 -0.0435 -0.0816 -0.2894
 5569W        W 5769   6.958   2.070   4.588  0.3250 -0.0360 -0.0944
 5570W        W 5770   7.703   4.112   4.220  0.0209  0.0178 -0.1420
 5571W        W 5771   7.780   3.037   1.929  0.0030  0.1500  0.2745
 5572W        W 5772  10.593   2.576   3.947 -0.2111  0.0488 -0.0164
 5573W        W 5773   0.348   0.494   8.822  0.1014 -0.0344  0.3211
 5574W        W 5774  14.575   3.224   6.073  0.0799 -0.1279 -0.3159
 5575W        W 5775   3.390   5.556   0.926 -0.2265  0.0268  0.2266
 5576W        W 5776   2.107   6.908   2.375  0.4024 -0.0879  0.0726
 5577W        W 5777  12.616  11.997   2.313 -0.1978 -0.0250  0.5151
 5578W        W 5778  15.115  14.432   9.367  0.0991  0.3017  0.0597
 5579W        W 5779   1.296   8.943   2.927 -0.1234  0.1106  0.1876
 5580W        W 5780   9.323   7.190   2.420 -0.0689  0.0355  0.3053
 5581W        W 5781  11.614  12.541   2.959 -0.0757  0.3455  0.1045
 5582W        W 5782  11.368  10.045  12.405 -0.0843 -0.3660  0.2773
 5583W        W 5783   2.340   3.488   6.695  0.0394 -0.0018 -0.0244
 5584W        W 5784  13.686   2.067   2.363 -0.0944  0.2133  0.3624
 5585W        W 5785   3.769  13.660   5.301  0.1417 -0.2734  0.1633
 5586W        W 5786   0.284  13.956   6.234  0.2944  0.0092  0.2600
 5587W        W 5787   2.725   9.414  15.046 -0.1664  0.1317  0.4030
 5588W        W 5788  11.855  14.831  12.496 -0.0882 -0.2947 -0.2244
 5589W        W 5789   2.765   6.855   0.403  0.1261 -0.1632  0.1622
 5590W        W 5790   1.990  14.218   6.458  0.0631 -0.0937 -0.0351
 5591W        W 5791   2.602  14.483   5.106 -0.0003 -0.2983  0.0428
 5592W        W 5792  15.163  14.488   3.295  0.1317 -0.0138 -0.0665
 5593W        W 5793   2.069  13.904   9.784  0.0301  0.4699  0.1545
 5594W        W 5794   8.370  11.277   0.242 -0.1980  0.1552  0.4891
 5595W        W 5795   6.347   2.543   5.510 -0.0396 -0.3399  0.0052
 5596W        W 5796  12.165   8.386   1.467 -0.0412  0.0607 -0.1386
 5597W        W 5797   0.162   2.826   4.440 -0.1264 -0.0230 -0.1187
 5598W        W 5798   7.073   5.938   6.538  0.0254 -0.0160 -0.1663
 5599W        W 5799   0.685  13.843   3.438  0.0569 -0.1474  0.2371
 5600W        W 5800   0.729  13.949   1.382 -0.1304  0.0624 -0.3193
 5601W        W 5801   9.638   5.163   5.850  0.2288  0.0806  0.0789
 5602W        W 5802   4.597   9.917   1.745  0.2067 -0.0917  0.1074
 5603W        W 5803  10.822  12.829   1.304  0.0021  0.0480 -0.1073
 5604W        W 5804   4.862  10.527   7.518 -0.1512  0.2084  0.0706
 5605W        W 5805   0.905  11.509   9.155 -0.2655  0.1464  0.0792
 5606W        W 5806   0.592  13.003   4.301 -0.0799 -0.0070  0.1570
 5607W        W 5807  12.350  12.457   7.595 -0.0568 -0.1756 -0.1310
 5608W        W 5808  12.247   7.692   6.164  0.1397  0.1868 -0.2072
 5609W        W 5809  13.136   4.897   9.199  0.1645  0.2602  0.1583
 5610W        W 5810   8.423  10.991   7.527  0.2447 -0.2590 -0.1995
 5611W        W 5811  12.693   8.947   4.180  0.2242  0.1245 -0.1401
 5612W        W 5812   5.752  14.137   3.132 -0.3115  0.0466 -0.1320
 5613W        W 5813   9.180   5.567  10.521 -0.0414 -0.1407 -0.0211
 5614W        W 5814   2.738  13.036  11.851  0.2038  0.0422  0.2200
 5615W        W 5815  14.567   3.666   9.204 -0.2316 -0.2243  0.1563
 5616W        W 5816   0.161  11.519   3.331  0.0074  0.1818 -0.0623
 5617W        W 5817  15.066  12.209   5.166 -0.2355 -0.0547  0.1757
 5618W        W 5818   9.846  11.348   4.685 -0.0635  0.2327 -0.0615
 5619W        W 5819   7.214  15.051  13.992 -0.1354  0.1298 -0.0185
 5620W        W 5820   2.386   6.331   8.326 -0.0784  0.3219  0.1037
 5621W        W 5821   3.105   5.948  11.083 -0.2951  0.1296 -0.2566
 5622W        W 5822   9.029   2.718   5.501 -0.2329 -0.0015  0.1090
 5623W        W 5823   9.363   1.857   1.809 -0.1558  0.2642  0.2577
 5624W        W 5824   2.877   5.444   3.447 -0.2066  0.3652  0.1105
 5625W        W 5825  11.212  13.509  12.908  0.0547  0.0328  0.0055
 5626W        W 5826   8.638  10.035  10.013  0.2256  0.1882  0.0364
 5627W        W 5827  10.844   9.371   4.188 -0.2476 -0.2421  0.1955
 5628W        W 5828  10.001   4.525   2.264 -0.0300  0.2778 -0.2314
 5629W        W 5829   0.552  12.136   3.724 -0.1184 -0.3612  0.1362
 5630W        W 5830  12.683   2.446  14.771 -0.0697 -0.0428 -0.2893
 5631W        W 5831  12.868  11.419   2.689  0.0347 -0.0634 -0.1908
 5632W        W 5832  13.135  11.097   7.865  0.0105 -0.0264 -0.2830
 5633W        W 5833   0.263  10.365   0.254  0.0192  0.0753  0.0344
 5634W        W 5834  13.106   9.616   9.797 -0.0322  0.1115 -0.4742
 5635W        W 5835   4.088   8.205  10.187  0.3324  0.1669  0.0049
 5636W        W 5836  14.336   1.327   1.116  0.4210  0.1315  0.2858
 5637W        W 5837  11.351   5.414  12.814  0.0953 -0.0354  0.1332
 5638W        W 5838  13.017   6.793   8.501 -0.0972 -0.2630  0.0196
 5639W        W 5839   2.092  11.072   4.188  0.3494  0.1367 -0.1226
 5640W        W 5840  12.063  14.072   7.526  0.1030  0.1963 -0.0819
 5641W        W 5841   6.288   1.573   9.504  0.2883  0.1279 -0.2699
 5642W        W 5842   4.094   4.846   4.947 -0.1014 -0.2653  0.1223
 5643W        W 5843  15.181  14.458   1.066  0.4458  0.1826 -0.2299
 5644W        W 5844   1.577   8.417   5.064 -0.0633 -0.1025 -0.1028
 5645W        W 5845  11.528   3.712   1.302  0.2259  0.1708  0.0649
 5646W        W 5846   0.114   8.581   4.671  0.1275 -0.2099 -0.0684
 5647W        W 5847   5.240   0.936   8.537  0.3875 -0.0660  0.2276
 5648W        W 5848   4.299   9.962   6.620 -0.0526 -0.4082  0.1027
 5649W        W 5849   9.597   5.497   1.042 -0.2077 -0.1343 -0.2835
 5650W        W 5850  13.957  11.982   3.804 -0.1566  0.0657 -0.1705
 5651W        W 5851   5.718   1.401  15.145  0.3850 -0.2742  0.1876
 5652W        W 5852  10.012   9.408   5.651 -0.3248 -0.0751 -0.2040
 5653W        W 5853   1.576   6.211   0.663  0.4031 -0.1975 -0.3809
 5654W        W 5854   0.353  13.467  12.159  0.1298  0.1723 -0.0294
 5655W        W 5855  13.612  13.892   6.477 -0.1728 -0.1035  0.0116
 5656W        W 5856   1.865   8.768   6.213  0.1257 -0.0115  0.0862
 5657W        W 5857   3.799  10.030   4.828 -0.1048 -0.2075 -0.4672
 5658W        W 5858   1.698   1.699  12.380 -0.0065 -0.1219  0.1005
 5659W        W 5859   7.319  12.579   6.644 -0.0017  0.0112  0.0666
 5660W        W 5860   5.456  12.683   8.254 -0.0353 -0.4549 -0.1757
 5661W        W 5861   0.155   3.264   6.760 -0.3395 -0.1741  0.3555
 5662W        W 5862   4.742  11.656   2.617 -0.0292  0.5497 -0.4329
 5663W        W 5863   3.482   8.358  13.662 -0.0445  0.0520 -0.2955
 5664W        W 5864   4.060   0.588   1.384  0.0568 -0.3699 -0.0022
 5665W        W 5865   3.754  14.075  13.516  0.1866  0.1249 -0.0417
 5666W        W 5866   3.708   4.812   9.203 -0.3229 -0.1801 -0.3095
 5667W        W 5867   5.275  12.161   0.011  0.1276  0.0100  0.4240
 5668W        W 5868  15.083   8.563   0.251 -0.0829  0.1264  0.0254
 5669W        W 5869   6.008  13.562   2.372 -0.0836 -0.4472  0.3155
 5670W        W 5870   6.664  10.832  13.605  0.1172 -0.4439  0.0296
 5671W        W 5871   5.612   8.892   0.574  0.2284  0.2628  0.1568
 5672W        W 5872   9.930  11.856  11.078  0.1519 -0.1910  0.0275
 5673W        W 5873   4.576   7.592  14.329 -0.0228  0.0645  0.1281
 5674W        W 5874   7.150   7.886  11.894  0.1772  0.1059 -0.1625
 5675W        W 5875  13.924   3.794  11.841 -0.1196  0.0989  0.2237
 5676W        W 5876   4.724   0.445   7.230 -0.0057  0.0648  0.0072
 5677W        W 5877   1.980   4.919   6.789 -0.2788 -0.0985  0.3574
 5678W        W 5878   6.795  12.439   9.471 -0.0675 -0.1004 -0.2672
 5679W        W 5879   4.595  11.565   7.750 -0.0969 -0.0108  0.1381
 5680W        W 5880   8.200   0.989  14.566 -0.1875 -0.2718  0.4760
 5681W        W 5881  11.910  12.668   6.754 -0.1646 -0.2646  0.0906
 5682W        W 5882  13.652   9.632   5.733 -0.0474  0.0113  0.0134
 5683W        W 5883   2.522   6.299  10.819 -0.2131 -0.1330 -0.2146
 5684W        W 5884   1.897   8.741   8.495  0.1742  0.2048  0.1543
 5685W        W 5885   4.734  14.403  11.641 -0.0856  0.1996 -0.1389
 5686W        W 5886  10.407   3.100   4.612  0.0758 -0.1713 -0.0367
 5687W        W 5887   0.702   3.350  10.034  0.2929 -0.0633  0.0954
 5688W        W 5888   4.005   9.818  14.713  0.2292 -0.0907  0.2412
 5689W        W 5889   2.411   6.606   1.258 -0.0630 -0.2993  0.1244
 5690W        W 5890  15.162  12.001  11.752  0.0199 -0.0369  0.2237
 5691W        W 5891   6.562  10.548   7.469 -0.0122 -0.1568 -0.2419
 5692W        W 5892   5.837   1.420   9.901  0.0739  0.1165 -0.0871
 5693W        W 5893   8.849   0.906   4.834 -0.0380 -0.1017  0.0360
 5694W        W 5894  12.122  12.228  10.529 -0.2391  0.2245 -0.1720
 5695W        W 5895  13.615  10.302  12.777  0.4560 -0.0622 -0.3288
 5696W        W 5896  13.089   9.947   6.743 -0.5572  0.2109  0.0352
 5697W        W 5897   1.618   7.576  12.592 -0.0328 -0.1602  0.1806
 5698W        W 5898   5.032   6.004  13.627 -0.2107  0.2615  0.3441
 5699W        W 5899  14.139  12.636  10.699 -0.1086 -0.1448  0.1914
 5700W        W 5900   1.053  13.436  10.983  0.1161 -0.0721 -0.1396
 5701W        W 5901   3.491   3.945  15.038 -0.3624 -0.1260  0.1329
 5702W        W 5902  11.937   9.485  14.234 -0.2311 -0.3731  0.2979
 5703W        W 5903   2.986  12.263   9.125 -0.1947 -0.0210  0.0248
 5704W        W 5904  13.045   6.916   5.734 -0.0191  0.0267 -0.0156
 5705W        W 5905  14.948  12.254   3.143 -0.1276  0.1522  0.1179
 5706W        W 5906   3.216   7.725   5.772 -0.2074 -0.1329  0.0216
 5707W        W 5907  12.854   1.192   9.286 -0.0286  0.1449 -0.1153
 5708W        W 5908  14.600   0.894   7.906 -0.0635 -0.1656  0.0599
 5709W        W 5909   6.768  10.713   5.579  0.2304 -0.0070  0.0696
 5710W        W 5910   9.795   9.429   7.427  0.0008  0.0746 -0.1314
 5711W        W 5911   4.882   2.444   7.150  0.1994  0.0642  0.0066
 5712W        W 5912  12.341   9.755   0.770 -0.0783 -0.1181  0.2070
 5713W        W 5913   0.280   3.324   4.454  0.0501 -0.1323 -0.3343
 5714W        W 5914   7.738   5.860  10.986 -0.1884 -0.1706  0.1028
 5715W        W 5915   5.285   3.904   2.889  0.0848 -0.1158 -0.0911
 5716W        W 5916   8.931  14.882  13.436 -0.1888 -0.5411 -0.2369
 5717W        W 5917   5.500   4.510  13.688  0.0896  0.0287 -0.0463
 5718W        W 5918   1.763   8.275   1.878  0.2277  0.1400 -0.3892
 5719W        W 5919   8.060  13.139  10.362 -0.0944 -0.0517  0.1571
 5720W        W 5920   7.103   2.264   0.973 -0.1266  0.0476  0.1932
 5721W        W 5921   6.590   1.062  13.643  0.1935  0.1132 -0.0573
 5722W        W 5922  13.880  12.611   9.715 -0.0938 -0.0283  0.0884
 5723W        W 5923   1.374  11.194  13.991  0.0255  0.2867  0.4532
 5724W        W 5924  10.286   7.801   0.442  0.0707  0.0556 -0.0191
 5725W        W 5925  11.283   8.994   3.316 -0.0601  0.2303 -0.1831
 5726W        W 5926   9.997  14.509   4.229 -0.2038  0.1499 -0.1078
 5727W        W 5927  11.068   3.041  13.635  0.1156  0.0126  0.0113
 5728W        W 5928  12.764   6.505   3.382 -0.1752 -0.1494 -0.1798
 5729W        W 5929  11.252   1.300   3.010  0.2565 -0.0699  0.2290
 5730W        W 5930  10.753  14.144  10.635  0.1419  0.0248 -0.1749
 5731W        W 5931   3.652  10.505   5.010 -0.0869 -0.4686  0.0891
 5732W        W 5932  14.141  14.017   4.769 -0.0203 -0.1049  0.2570
 5733W        W 5933   9.507   8.973   3.129  0.1280  0.1191  0.2460
 5734W        W 5934  13.480   4.879   6.070  0.0005 -0.2503  0.1199
 5735W        W 5935   7.062  14.105   0.398  0.1523  0.2769 -0.0633
 5736W        W 5936   3.623  10.336   8.807  0.2581 -0.0902 -0.0814
 5737W        W 5937   9.434   9.071   0.576  0.0173 -0.2044 -0.3636
 5738W        W 5938   4.698  11.637   4.556  0.2130  0.1658 -0.1703
 5739W        W 5939   0.422  14.596   3.074  0.0458 -0.1951 -0.3442
 5740W        W 5940   8.876   1.270  11.255 -0.1931 -0.0053 -0.1278
 5741W        W 5941   8.886   5.289   8.412  0.1939 -0.4339  0.3425
 5742W        W 5942   1.090   2.254   9.732 -0.0565 -0.0258  0.2542
 5743W        W 5943  14.330   9.693   9.301 -0.2665 -0.0558  0.3706
 5744W        W 5944  13.606   9.540   0.537 -0.1445 -0.1505  0.0831
 5745W        W 5945  10.706  11.828  11.092 -0.0123  0.0084 -0.0770
 5746W        W 5946  11.811  12.026   9.328  0.0465 -0.1183  0.4015
 5747W        W 5947   3.545  13.307   7.847  0.0191 -0.2254  0.0833
 5748W        W 5948  13.053   7.818   5.045 -0.0477  0.3332 -0.0621
 5749W        W 5949  12.745   9.792  13.668 -0.0488  0.1418 -0.1115
 5750W        W 5950  14.366   0.068   7.833  0.2326  0.1737  0.0050
 5751W        W 5951   2.525  14.247   1.795  0.1046 -0.0314 -0.0050
 5752W        W 5952   8.255  10.732   3.758  0.1540  0.0487 -0.2998
 5753W        W 5953   0.996   3.808   4.690 -0.0541 -0.1939  0.0649
 5754W        W 5954  12.771  15.057   0.174  0.0197 -0.1657 -0.1866
 5755W        W 5955  10.028   8.837  11.117 -0.1777 -0.1618  0.2221
 5756W        W 5956  11.993  13.597   3.810 -0.1061  0.0066 -0.2122
 5757W        W 5957  12.399   3.880   9.710 -0.1620  0.1797 -0.0528
 5758W        W 5958   9.245   0.664  10.337  0.0406 -0.1517  0.1521
 5759W        W 5959  14.695  14.590  14.337 -0.0903  0.1589 -0.3462
 5760W        W 5960   3.647   0.079   3.868 -0.1885  0.0161  0.0517
 5761W        W 5961  13.418  10.231  10.609 -0.2660  0.3269 -0.1614
 5762W        W 5962   3.358   7.746  10.251 -0.3098 -0.1901  0.2691
 5763W        W 5963   8.746  11.377  14.552  0.1129  0.2967  0.1139
 5764W        W 5964   4.289  10.386   8.899 -0.0895 -0.3193  0.1198
 5765W        W 5965   2.916   0.681  11.156 -0.1346  0.3665 -0.1533
 5766W        W 5966   9.986  12.262   9.492  0.0939  0.0731  0.1052
 5767W        W 5967  12.581  11.537   8.640  0.0727  0.1816 -0.2161
 5768W        W 5968   8.972   0.017   6.027 -0.0806 -0.0529  0.0813
 5769W        W 5969   0.527  10.536   6.916 -0.1332 -0.0450 -0.0459
 5770W        W 5970   1.966  14.379  10.936 -0.1462 -0.2774  0.1506
 5771W        W 5971   4.460  11.555   1.364  0.0720 -0.1356  0.0448
 5772W        W 5972   3.927   2.506  15.053 -0.2393  0.1294 -0.0336
 5773W        W 5973   7.081   1.130   5.517  0.2159 -0.0083  0.1737
 5774W        W 5974  13.257   2.781  14.659 -0.2167  0.2387  0.0800
 5775W        W 5975   2.612  12.280   1.924 -0.0863  0.1386  0.4849
 5776W        W 5976  12.742  14.064   8.264 -0.0706 -0.0068  0.3100
 5777W        W 5977   5.008  10.552   3.410  0.0188  0.0599  0.4023
 5778W        W 5978  10.997   9.290  14.800  0.0664  0.1059  0.0707
 5779W        W 5979   3.266  10.424  10.737  0.0815 -0.0941 -0.6036
 5780W        W 5980  12.597   2.304  11.765 -0.0533  0.0794 -0.0644
 5781W        W 5981   2.635  14.945  12.961  0.0296  0.2799  0.0158
 5782W        W 5982   1.914  14.055   4.496  0.0925  0.1352  0.0326
 5783W        W 5983   6.170   0.290   6.502  0.1289  0.1592  0.0244
 5784W        W 5984   0.079  10.158  12.704  0.2987 -0.1549 -0.1157
 5785W        W 5985   4.321   5.402   3.706  0.1993 -0.1600  0.1079
 5786W        W 5986  11.039   0.615  12.135  0.1208 -0.0267 -0.1695
 5787W        W 5987   2.481  12.258   5.664 -0.1280 -0.1182  0.0934
 5788W        W 5988   1.159  12.389   7.422  0.2008 -0.0388  0.0145
 5789W        W 5989   6.349   5.825  11.805  0.0044 -0.1518  0.6080
 5790W        W 5990   6.250  13.248   2.050  0.0551 -0.0478  0.0879
 5791W        W 5991   1.299   9.536   3.606  0.0738  0.0894  0.0554
 5792W        W 5992  10.606   2.488  12.402  0.2588 -0.0228  0.1891
 5793W        W 5993   4.625  13.033  12.271  0.1807  0.4251 -0.1169
 5794W        W 5994   9.291  10.184   9.260 -0.0668  0.3290  0.1367
 5795W        W 5995   4.152   5.860   3.667 -0.0353 -0.2173  0.0951
 5796W        W 5996  14.625   9.906   3.732 -0.1608 -0.0194 -0.0306
 5797W        W 5997  12.388   3.812   6.777  0.1625 -0.1205  0.2316
 5798W        W 5998  10.948   9.536  13.864  0.0811 -0.2318 -0.0653
 5799W        W 5999   0.894   2.313   6.955 -0.1279 -0.2776  0.0914
 5800W        W 6000   7.772  13.143  11.218  0.0268 -0.1355 -0.0744
 5801W        W 6001   3.565   6.572  13.476  0.1185  0.1626 -0.0189
 5802W        W 6002   9.110   8.902   5.062  0.0110  0.1002 -0.2351
 5803W        W 6003   1.648  14.063   6.777 -0.0863 -0.0023 -0.2543
 5804W        W 6004   4.889  11.699   9.014  0.1869 -0.1135  0.0599
 5805W        W 6005   1.530  12.168   3.163 -0.1437  0.0836  0.0023
 5806W        W 6006   6.147  12.028   5.693  0.0113 -0.0732  0.0895
 5807W        W 6007  12.318  11.938   7.382  0.2108 -0.1051 -0.0739
 5808W        W 6008   7.207   6.509   7.270  0.2814 -0.0271 -0.1238
 5809W        W 6009   4.986   1.488  12.889 -0.0090 -0.2999 -0.0645
 5810W        W 6010   0.965  14.024   5.002 -0.2313  0.0524  0.0717
 5811W        W 6011   9.567  12.845  13.665  0.1288 -0.1125 -0.2368
 5812W        W 6012   1.706   4.300  11.452  0.0545 -0.2087  0.1456
 5813W        W 6013   8.742  10.774  10.543 -0.2115  0.0800  0.1957
 5814W        W 6014  12.905   0.132  14.975 -0.0712  0.0123 -0.3668
 5815W        W 6015   1.642  12.023   8.662  0.2588  0.1157 -0.0761
 5816W        W 6016   0.837   3.155   7.293  0.1311 -0.3034 -0.0943
 5817W        W 6017  12.088   2.071   7.616  0.0818  0.0530 -0.4164
 5818W        W 6018   5.213   4.506  14.784 -0.0787  0.1966  0.0140
 5819W        W 6019   1.335  14.609   4.557 -0.1226 -0.2244  0.0114
 5820W        W 6020   5.356  10.646   1.214 -0.1278 -0.0034  0.1762
 5821W        W 6021  14.296   2.578  15.140  0.3413  0.0353 -0.2626
 5822W        W 6022   4.813   3.181   5.960  0.0866 -0.0514  0.0002
 5823W        W 6023  13.723  14.409  10.137  0.1146  0.2827  0.0320
 5824W        W 6024   9.095   0.330   1.441 -0.1353  0.2077 -0.2352
 5825W        W 6025   2.760  13.039   4.466  0.0157  0.2190 -0.1317
 5826W        W 6026  10.759  13.456  13.155 -0.2361  0.2349  0.0845
 5827W        W 6027   9.964  12.809   2.360 -0.0453  0.0754  0.1904
 5828W        W 6028  10.654  14.853   4.145  0.1631  0.0335 -0.2450
 5829W        W 6029  12.476   6.046  13.008 -0.0025  0.0121 -0.2553
 5830W        W 6030  14.071   1.337  12.153  0.0892  0.1144 -0.0167
 5831W        W 6031  15.178   2.781   6.811  0.2175  0.0468  0.0580
 5832W        W 6032  13.714  15.146   2.659 -0.0644  0.1477  0.1709
 5833W        W 6033   3.301  10.172   9.162 -0.0391  0.2052  0.3913
 5834W        W 6034   0.431  11.247   4.839 -0.1848  0.1933 -0.1277
 5835W        W 6035  13.233  14.210  10.552  0.1309 -0.1064  0.1024
 5836W        W 6036   6.597   1.090   2.692  0.0333 -0.0169 -0.0260
 5837W        W 6037   0.670   7.596   0.535 -0.0876 -0.0625  0.3604
 5838W        W 6038   2.560  15.080  13.964 -0.1666  0.0842  0.3294
 5839W        W 6039   2.121   9.921   4.921 -0.0673  0.0144 -0.2821
 5840W        W 6040  12.368   2.017   5.042  0.0395 -0.0442 -0.1445
 5841W        W 6041   2.632  14.233  10.233  0.1572  0.0134 -0.0130
 5842W        W 6042   6.270  12.283   9.386  0.3246 -0.3126  0.0146
 5843W        W 6043   1.077   1.835   1.342  0.1574  0.0704 -0.0120
 5844W        W 6044   5.344  11.423   1.568  0.0433 -0.1246  0.1058
 5845W        W 6045   0.250  14.782  11.586  0.0981 -0.1620  0.1990
 5846W        W 6046   2.110   1.181   5.383 -0.2756  0.0540 -0.0423
 5847W        W 6047   0.607   8.607   9.421  0.0957  0.0825 -0.2375
 5848W        W 6048  13.773   9.059   5.322 -0.3917  0.0445 -0.2309
 5849W        W 6049   4.891   0.430  14.604 -0.0715 -0.1087 -0.0165
 5850W        W 6050   2.693   4.887   1.846  0.0921  0.2180  0.1634
 5851W        W 6051   5.133  13.475   8.073 -0.0449  0.0788  0.0269
 5852W        W 6052   4.166  10.956   3.449  0.1422  0.2288 -0.1883
 5853W        W 6053   4.998   2.746   6.067 -0.0915  0.1971  0.0804
 5854W        W 6054   3.268   8.262   8.891  0.0718  0.4629  0.2202
 5855W        W 6055   5.979   0.946   5.392  0.1745  0.0220  0.3411
 5856W        W 6056   9.204   8.877   9.905 -0.2150 -0.5280 -0.1499
 5857W        W 6057  10.196   8.701   4.267  0.1601  0.2284 -0.0628
 5858W        W 6058  14.015  12.446  11.335 -0.1167 -0.0565  0.3257
 5859W        W 6059  14.921  10.647  14.359 -0.0272  0.0708 -0.3168
 5860W        W 6060  14.996   3.336  10.096  0.1104 -0.0117 -0.0282
 5861W        W 6061   9.492  13.588   3.884 -0.2522 -0.0951 -0.0205
 5862W        W 6062   8.235   1.057   3.584 -0.1109 -0.0660 -0.0707
 5863W        W 6063  11.592   2.599   3.929  0.2584 -0.1554 -0.0875
 5864W        W 6064   3.095   6.504   9.709  0.0288  0.0507 -0.0535
 5865W        W 6065  10.594   9.515  12.638 -0.1120  0.0061  0.1695
 5866W        W 6066   3.725  10.396   9.370  0.2251  0.1931 -0.0371
 5867W        W 6067  10.709  12.035   6.507 -0.1184 -0.0265 -0.1865
 5868W        W 6068  10.473  10.670   2.051 -0.1721 -0.3121  0.2889
 5869W        W 6069   4.746  10.774   5.980 -0.1699  0.0614 -0.1324
 5870W        W 6070  13.722   4.355  11.704  0.1826  0.1907  0.3974
 5871W        W 6071   0.392   6.332  14.493 -0.1189 -0.1250  0.0827
 5872W        W 6072  11.850  12.107  10.149 -0.0614  0.1317  0.2321
 5873W        W 6073   9.189  11.299   8.826  0.0944 -0.0789 -0.2690
 5874W        W 6074   1.585   2.837   3.337  0.0396 -0.1426  0.0485
 5875W        W 6075   9.018  10.063   2.071 -0.2284  0.2086 -0.3317
 5876W        W 6076   1.061   6.556   5.603 -0.0296  0.0816  0.1700
 5877W        W 6077   0.061   4.882   6.085  0.0262  0.2555  0.0335
 5878W        W 6078   7.243   6.477   2.746 -0.0330  0.1571  0.3300
 5879W        W 6079  13.655   2.128   7.138  0.0960  0.2118 -0.0343
 5880W        W 6080  12.010   5.178   5.821 -0.3077  0.0598 -0.0740
 5881W        W 6081   2.131  11.405  13.577  0.1804 -0.0344  0.1349
 5882W        W 6082   8.122   2.599  13.561  0.0029 -0.0263  0.0331
 5883W        W 6083   2.878   8.929   6.115 -0.1876  0.2060  0.2488
 5884W        W 6084  10.190   9.085  13.270 -0.2695 -0.1623  0.0927
 5885W        W 6085   1.793   8.669   7.640  0.1908  0.2600 -0.0478
 5886W        W 6086   2.236   8.518   1.186 -0.3659 -0.0361 -0.4701
 5887W        W 6087   0.498   6.445   4.052 -0.0184  0.1423 -0.0205
 5888W        W 6088   2.056   1.688   9.524  0.0863 -0.2674  0.0886
 5889W        W 6089   2.363  12.151  11.472 -0.1089 -0.1734  0.1128
 5890W        W 6090  13.974   1.169   6.156  0.1005  0.0574  0.0066
 5891W        W 6091   9.329   1.727   8.034  0.1837  0.1337 -0.1425
 5892W        W 6092   6.159  14.951   3.148  0.0367  0.0382  0.1243
 5893W        W 6093   7.153   7.707  14.453 -0.2823  0.0122  0.2542
 5894W        W 6094  10.734  12.360  10.125 -0.0036  0.0959  0.2346
 5895W        W 6095   4.281   7.596   8.109 -0.3305  0.0224 -0.0819
 5896W        W 6096   3.816   8.050  11.878 -0.2739  0.0121 -0.1142
 5897W        W 6097   2.056  13.494   1.634 -0.2350 -0.0431  0.0120
 5898W        W 6098   2.528  12.116   7.309  0.1232  0.1685  0.1552
 5899W        W 6099   1.529  13.809   8.675  0.0292 -0.1496 -0.1392
 5900W        W 6100  14.069   8.694   5.183 -0.2931  0.0205  0.0591
 5901W        W 6101   7.166   9.586   5.523  0.4450 -0.0976 -0.1498
 5902W        W 6102  10.996  10.670   2.836 -0.0167 -0.1644  0.2197
 5903W        W 6103   0.396   4.831   3.698 -0.0032  0.0640 -0.1500
 5904W        W 6104   9.831   0.903  14.652  0.4849  0.0529  0.2055
 5905W        W 6105  14.426   5.312  12.328  0.0430  0.0728 -0.0001
 5906W        W 6106   8.123   6.128   8.312  0.0436  0.0851 -0.4140
 5907W        W 6107   6.419  10.009  13.469 -0.2371  0.0782 -0.0018
 5908W        W 6108   1.808  10.379   5.479 -0.4087  0.2465  0.0648
 5909W        W 6109   1.483   1.789   6.312  0.1613  0.0016 -0.2555
 5910W        W 6110  14.424   5.517   7.124  0.2447  0.0676  0.2384
 5911W        W 6111  14.671   7.272  12.098  0.0712  0.0668 -0.0517
 5912W        W 6112   2.667   9.882   2.158 -0.0612 -0.1893  0.0800
 5913W        W 6113  14.857  14.528   2.921 -0.0414  0.3508 -0.3949
 5914W        W 6114  12.593   1.128  10.759  0.0092 -0.1354  0.0807
 5915W        W 6115  12.166  14.455   5.201 -0.1895  0.1006 -0.0948
 5916W        W 6116  14.522  10.360  13.268  0.0981  0.1628  0.3915
 5917W        W 6117   4.005   3.452  13.623  0.0297 -0.1828  0.2042
 5918W        W 6118   1.443  10.027  12.704  0.2188  0.0519  0.2546
 5919W        W 6119   0.682  14.917   8.510 -0.1890  0.2305  0.1396
 5920W        W 6120   2.597   9.982   7.173  0.2891  0.1041 -0.0118
 5921W        W 6121   8.998   4.303  14.631  0.0973 -0.0657  0.1979
 5922W        W 6122   1.729   3.185   1.593  0.0470  0.2669  0.1276
 5923W        W 6123   3.745   2.837   4.430 -0.1741 -0.0708 -0.1036
 5924W        W 6124  13.161  11.796   3.785  0.0432  0.0599  0.1296
 5925W        W 6125   3.605   9.177   2.860 -0.0790  0.0504 -0.0540
 5926W        W 6126   3.285   6.694   4.213 -0.1530 -0.1007 -0.1547
 5927W        W 6127   3.656   0.875   5.701 -0.2249  0.1710  0.0583
 5928W        W 6128  10.698  12.126   8.173  0.0433  0.0811  0.3997
 5929W        W 6129   7.874   8.764  11.073 -0.1844 -0.1020  0.1810
 5930W        W 6130  11.098  12.353   8.019 -0.1217 -0.0711  0.1564
 5931W        W 6131   1.642  10.297   2.913 -0.1346  0.2092 -0.0923
 5932W        W 6132   3.904   6.249  12.751 -0.0121  0.0054 -0.1486
 5933W        W 6133   2.330   1.513   8.159  0.3516  0.1369 -0.0504
 5934W        W 6134   4.974   2.013  14.147 -0.1728  0.1726  0.0441
 5935W        W 6135   0.537  12.135  12.527 -0.1171 -0.0662  0.4064
 5936W        W 6136  14.607  14.025   4.544  0.0470  0.0798 -0.1232
 5937W        W 6137   2.416  14.561   6.343 -0.0750 -0.0287 -0.2249
 5938W        W 6138   8.252   4.829  11.313  0.0332  0.0771  0.1147
 5939W        W 6139   2.368  13.845   8.157  0.0861 -0.1916  0.0357
 5940W        W 6140   2.777  12.893  14.371  0.0358  0.1094 -0.0391
 5941W        W 6141  13.828  13.544  10.134 -0.2693 -0.2567  0.1686
 5942W        W 6142   2.785  10.936   2.584  0.0633 -0.0757  0.2568
 5943W        W 6143   0.822  14.603   7.663 -0.0533  0.1500 -0.0574
 5944W        W 6144   4.921   6.052   8.873 -0.1893 -0.1532 -0.1013
 5945W        W 6145   8.472   2.899   9.272  0.0845  0.0316 -0.2716
 5946W        W 6146   7.503   4.850  10.046 -0.2077  0.1040  0.0096
 5947W        W 6147   8.481   2.928   1.901  0.0761 -0.1147 -0.0633
 5948W        W 6148  12.535   0.287   7.185 -0.1635  0.1790  0.2990
 5949W        W 6149  13.271   5.515   8.020 -0.1238  0.0094  0.2313
 5950W        W 6150   3.145   1.793  13.259  0.1412 -0.1047 -0.1052
 5951W        W 6151   2.335  10.772   4.535  0.2343 -0.2173  0.2830
 5952W        W 6152   1.683  14.682  14.955  0.2569 -0.1279  0.1193
 5953W        W 6153   6.299   6.287   4.538  0.2231  0.0418  0.0693
 5954W        W 6154  11.495  11.921   9.729  0.0059 -0.1349 -0.1247
 5955W        W 6155   8.011   8.653   8.419 -0.2152 -0.1604 -0.1964
 5956W        W 6156  10.278   7.532   2.518 -0.3371  0.1810 -0.0539
 5957W        W 6157   7.854  13.757   7.561 -0.2961 -0.1970 -0.0250
 5958W        W 6158  14.508   2.331   9.050  0.2150 -0.3793  0.0077
 5959W        W 6159  13.140   7.205   8.042  0.4802  0.2335  0.2252
 5960W        W 6160  13.589  13.493   3.990  0.1403  0.2843 -0.0476
 5961W        W 6161   9.592  14.845   1.691  0.3000 -0.1927  0.1397
 5962W        W 6162   3.723   6.968   0.189  0.0256  0.3004  0.0166
 5963W        W 6163   0.142  11.162  13.749  0.0394 -0.2752 -0.1182
 5964W        W 6164   0.573   7.299   9.888 -0.1511  0.2097 -0.0047
 5965W        W 6165  14.162   7.426  10.808 -0.1226  0.1405  0.0263
 5966W        W 6166  10.444  11.307   2.409  0.1091  0.0042  0.0509
 5967W        W 6167   3.126  10.434   8.136 -0.1823 -0.0966  0.3346
 5968W        W 6168   9.152  11.759   9.591 -0.1289  0.0780 -0.1033
 5969W        W 6169   4.796   3.986  12.179 -0.0173  0.1087 -0.0559
 5970W        W 6170   6.166   2.860  10.026  0.1526  0.1311  0.0854
 5971W        W 6171   5.580  14.793   0.537  0.1754 -0.3410  0.1007
 5972W        W 6172   6.350   3.024   6.004 -0.1682 -0.2087 -0.1610
 5973W        W 6173   8.153  10.676  12.823 -0.0641  0.1412 -0.1571
 5974W        W 6174   6.097   4.332  13.013  0.0449 -0.1851  0.1854
 5975W        W 6175   9.875  10.598  11.217  0.3195 -0.1694 -0.2038
 5976W        W 6176   8.062  14.918  10.923  0.3641  0.0883 -0.0885
 5977W        W 6177   4.982   1.946   1.061  0.1344  0.1144 -0.0293
 5978W        W 6178   8.104   9.103  14.514 -0.0124  0.1122  0.1788
 5979W        W 6179   1.053   8.418   2.045 -0.0308  0.2022  0.0519
 5980W        W 6180   6.154   2.729   9.543  0.3310 -0.2281 -0.2165
 5981W        W 6181  13.512   7.546   3.991 -0.2460  0.1343  0.3184
 5982W        W 6182   2.571  14.401   3.674  0.1342  0.1030  0.2921
 5983W        W 6183   8.402  13.980   6.512  0.1779 -0.1856  0.0967
 5984W        W 6184   5.732   5.667   7.635 -0.1575  0.0412 -0.0842
 5985W        W 6185   3.550   0.227  14.566 -0.1743 -0.1028 -0.0392
 5986W        W 6186   5.089  15.035  12.819 -0.1288  0.1262  0.1653
 5987W        W 6187   2.616  11.819   9.053 -0.3373 -0.1230 -0.0668
 5988W        W 6188   4.660  12.829   9.672 -0.3120  0.2292 -0.0617
 5989W        W 6189   0.149  13.968   9.764  0.0722  0.1245 -0.0058
 5990W        W 6190   2.837   0.322   9.702 -0.0316  0.1003  0.2557
 5991W        W 6191   3.459   0.884   2.516 -0.0255  0.0491 -0.0200
 5992W        W 6192  11.567   6.717   7.037  0.4857 -0.1938  0.1571
 5993W        W 6193   7.734  11.594  10.784  0.2251  0.2180 -0.1218
 5994W        W 6194   1.461   7.774   3.671 -0.0281  0.0228  0.0037
 5995W        W 6195  14.752   0.511  10.969 -0.1193 -0.2581 -0.1364
 5996W        W 6196   9.964  15.066   4.579  0.0296  0.0086  0.3473
 5997W        W 6197  11.242  15.148   2.727 -0.0900 -0.0244  0.2899
 5998W        W 6198   6.363   1.287   9.100  0.2769  0.0253  0.1610
 5999W        W 6199   3.518   6.557  14.546 -0.0349  0.0028 -0.0561
 6000W        W 6200   3.339  15.192   1.382 -0.1234  0.1145  0.0666
 6001W        W 6201   4.664  10.551  10.859  0.3179  0.0133 -0.1983
 6002W        W 6202  10.611  14.385   6.381 -0.1816  0.1404 -0.0383
 6003W        W 6203  14.475  10.491   9.912 -0.0748 -0.2219 -0.1875
 6004W        W 6204   9.319   0.096   6.959  0.0137  0.1082 -0.0049
 6005W        W 6205   7.712   6.936   4.161  0.3115 -0.0919  0.0449
 6006W        W 6206   5.474  10.144   1.227 -0.0044  0.3610 -0.1019
 6007W        W 6207  14.910   9.100   1.127 -0.1035 -0.0881 -0.0864
 6008W        W 6208  14.351  14.045   8.850  0.2579 -0.3646 -0.1280
 6009W        W 6209  13.600  12.717  12.121 -0.2091  0.0748 -0.1279
 6010W        W 6210   9.298   1.585  14.850  0.1758  0.1907  0.0411
 6011W        W 6211   7.769   7.626  12.994 -0.0142  0.1796 -0.3966
 6012W        W 6212   2.675  11.057  10.005 -0.0282 -0.0207  0.2341
 6013W        W 6213   5.624   4.140   7.768 -0.0075  0.1192 -0.2515
 6014W        W 6214   5.265   4.042   9.859  0.0953 -0.0386  0.0950
 6015W        W 6215   1.924   2.372   6.984  0.0326 -0.1335  0.1062
 6016W        W 6216  13.910  10.954   1.714  0.0848 -0.0734  0.0809
 6017W        W 6217  13.050  13.693  10.633 -0.2016 -0.1964  0.0214
 6018W        W 6218  11.467   9.922   3.972 -0.1242  0.0114 -0.0608
 6019W        W 6219   4.158   3.830   7.947  0.1364  0.3010  0.2161
 6020W        W 6220   5.929  14.419  10.614 -0.1312 -0.2440  0.3410
 6021W        W 6221   0.163  10.093   3.286 -0.2041 -0.0290 -0.0398
 6022W        W 6222   6.792   8.936   9.026 -0.0700  0.1263  0.1512
 6023W        W 6223   0.651   0.081   0.649  0.0255 -0.1337 -0.0163
 6024W        W 6224   1.302   8.499  12.151 -0.2408  0.2745  0.1328
 6025W        W 6225  12.128   1.117  14.811 -0.2809  0.0642  0.1590
 6026W        W 6226   4.115  14.939  13.037 -0.0962  0.1038  0.0003
 6027W        W 6227  11.630   9.643  10.207  0.1976  0.0011  0.3905
 6028W        W 6228   1.905   0.705   7.416  0.0050 -0.1246 -0.1642
 6029W        W 6229  14.487  10.368  11.339  0.1240  0.1199 -0.0358
 6030W        W 6230   9.746   6.782   3.405  0.1700 -0.1296  0.1392
 6031W        W 6231   0.890  14.403  10.989  0.1355 -0.2652 -0.0460
 6032W        W 6232   5.101  14.861   0.589 -0.0673  0.2281  0.0917
 6033W        W 6233   1.915   9.791   2.182 -0.3999 -0.3845  0.2174
 6034W        W 6234   9.504   9.829   1.634  0.1115 -0.1406  0.0447
 6035W        W 6235   8.685  10.455   0.661 -0.0148 -0.0045  0.1211
 6036W        W 6236   0.693   3.324  12.110 -0.2340  0.0318 -0.0845
 6037W        W 6237   4.319  13.206   9.029  0.1514 -0.1093  0.0398
 6038W        W 6238  14.788   2.404   6.546  0.2820 -0.0065  0.0135
 6039W        W 6239  12.310  13.999  11.765 -0.1712  0.2623  0.2082
 6040W        W 6240   5.516   7.481   8.380  0.0601  0.1892  0.0544
 6041W        W 6241  13.336  13.085   5.107 -0.4260 -0.3155  0.2355
 6042W        W 6242   5.182   4.588   6.251 -0.0551 -0.0749  0.2520
 6043W        W 6243  12.189   0.006   3.563 -0.0018 -0.2349  0.3586
 6044W        W 6244   3.159  11.678  14.765  0.1983 -0.1150  0.2833
 6045W        W 6245  14.039   2.698  14.305  0.0014  0.2055  0.0294
 6046W        W 6246  15.195   5.516   1.614 -0.0983 -0.2082  0.0428
 6047W        W 6247   3.335  15.040   5.312  0.0002 -0.1923  0.2625
 6048W        W 6248  13.640   3.505   2.047  0.0921 -0.0513  0.0434
 6049W        W 6249   3.722  10.270  14.512  0.0947 -0.0754 -0.0493
 6050W        W 6250  14.164  10.208   0.654  0.1789  0.1724  0.0107
 6051W        W 6251   4.225  10.871   1.800 -0.1533 -0.1644  0.1159
 6052W        W 6252   3.182   8.748   8.707 -0.1134  0.0189  0.0753
 6053W        W 6253   6.434   0.249   4.739  0.3430  0.2166  0.1905
 6054W        W 6254   6.309   5.400  10.854 -0.0289  0.0527 -0.2189
 6055W        W 6255  15.007  14.596   8.174  0.2006 -0.2544  0.0157
 6056W        W 6256   1.343  10.791  12.313  0.2183  0.3617  0.0676
 6057W        W 6257  11.929   7.858  11.913 -0.0434 -0.0539 -0.0574
 6058W        W 6258   8.168  14.194  13.890 -0.2950 -0.2082  0.1192
 6059W        W 6259   9.814  13.777   3.458  0.1583 -0.3503 -0.2446
 6060W        W 6260   3.244  14.173   1.472  0.2075 -0.1216  0.2317
 6061W        W 6261   4.777  10.164   5.745  0.0301 -0.0641 -0.0450
 6062W        W 6262   6.536   1.770   4.626  0.0261  0.2696 -0.0297
 6063W        W 6263   9.826   2.450   3.924  0.0146  0.0985  0.0431
 6064W        W 6264   2.756   1.238   0.683  0.4066 -0.2843  0.1777
 6065W        W 6265   3.256   1.133   4.823 -0.0914 -0.1533 -0.1394
 6066W        W 6266  11.717   8.585   8.921  0.1226 -0.1878  0.1228
 6067W        W 6267   3.085   9.693   9.226  0.0585  0.2944 -0.0651
 6068W        W 6268   7.149  11.896  10.149  0.1656  0.2700 -0.0610
 6069W        W 6269   7.227  13.241   7.447 -0.1520 -0.1696  0.3432
 6070W        W 6270   2.150   7.126   2.849 -0.1183 -0.1403  0.0281
 6071W        W 6271  10.534  12.532   0.413 -0.1364 -0.1750  0.0058
 6072W        W 6272   1.517  13.617   0.033 -0.1657  0.0389 -0.0552
 6073W        W 6273   1.343  10.693   8.236 -0.1511 -0.1941 -0.0452
 6074W        W 6274   7.741  13.548  10.903 -0.2278  0.0199 -0.0703
 6075W        W 6275  13.670   6.761   3.369  0.1207 -0.0548 -0.1595
 6076W        W 6276   6.912   8.536  13.144  0.0276  0.1058  0.2648
 6077W        W 6277  15.090  12.329  10.436 -0.1322  0.0964 -0.2384
 6078W        W 6278   6.506   3.220  11.365  0.3785  0.0027  0.3237
 6079W        W 6279  14.741  14.680   8.955  0.2135 -0.0540  0.1812
 6080W        W 6280   5.708   5.649  15.077  0.0807  0.2776  0.2779
 6081W        W 6281   9.728  14.505   6.727 -0.1541 -0.0479  0.1578
 6082W        W 6282  11.459   3.032   5.780  0.2447 -0.0884  0.0912
 6083W        W 6283   3.350   7.732   3.021 -0.2021  0.0466  0.0117
 6084W        W 6284  14.551   9.174  12.900 -0.1289  0.2178 -0.0931
 6085W        W 6285   0.214  10.218   8.541 -0.1812  0.0332 -0.0557
 6086W        W 6286  14.995   5.168  14.924  0.2248  0.0395  0.1555
 6087W        W 6287   7.433  13.152  14.781  0.0863  0.0386  0.1961
 6088W        W 6288   0.318   3.389   9.230 -0.0807  0.2260  0.1273
 6089W        W 6289   5.493  10.715   4.834 -0.1769 -0.0577 -0.0691
 6090W        W 6290  14.273  11.839   5.185 -0.2507 -0.0845 -0.1259
 6091W        W 6291   3.714   2.355  13.611  0.0703  0.1154  0.3850
 6092W        W 6292   2.982  12.449   4.107 -0.0697 -0.2406  0.0990
 6093W        W 6293   8.097   2.265   8.006  0.0901 -0.1316  0.0495
 6094W        W 6294   4.716   0.062   6.443  0.0893  0.1186 -0.0749
 6095W        W 6295  11.881   3.564  13.661 -0.1522  0.3146 -0.4001
 6096W        W 6296   3.778   6.671   2.474  0.0864 -0.1391  0.1302
 6097W        W 6297   0.765   8.989   5.362 -0.2725 -0.1646  0.1298
 6098W        W 6298   4.318  10.385  10.431 -0.0021  0.0209  0.1700
 6099W        W 6299   1.419   8.127   7.566  0.0852  0.1581  0.2933
 6100W        W 6300   2.341  13.269  14.383 -0.1684  0.1610  0.1902
 6101W        W 6301   0.006  12.537  13.070  0.0346 -0.2846 -0.0773
 6102W        W 6302   3.655   1.964   4.879 -0.0886 -0.2988 -0.0799
 6103W        W 6303  12.925  11.715  12.928 -0.0758  0.0900 -0.1581
 6104W        W 6304   4.580   4.733   7.974  0.0192  0.0798  0.0192
 6105W        W 6305   0.265   0.715   4.428 -0.0180 -0.0654 -0.0951
 6106W        W 6306   5.699   9.831   2.269 -0.2025 -0.1386 -0.0606
 6107W        W 6307  10.137  12.121   8.050 -0.0588  0.0326  0.6736
 6108W        W 6308   1.320  11.079   1.476  0.4160 -0.0939 -0.2597
 6109W        W 6309   5.000  11.337   4.170  0.0711  0.0327  0.0241
 6110W        W 6310   1.896   6.341  13.142 -0.0089 -0.1169  0.0235
 6111W        W 6311   4.490   1.463   8.813 -0.0826 -0.2910  0.0031
 6112W        W 6312   3.329  13.480   7.394 -0.0427  0.0779 -0.2099
 6113W        W 6313  11.275   8.088  14.201 -0.0853  0.3186 -0.3900
 6114W        W 6314   7.247   9.687   4.223 -0.1302 -0.0811 -0.0807
 6115W        W 6315   7.718  11.139   7.396 -0.1140  0.2232 -0.0029
 6116W        W 6316   2.513  14.215   7.151 -0.1053 -0.1012  0.2916
 6117W        W 6317  13.879  12.580  10.234 -0.1072  0.0712  0.1261
 6118W        W 6318   8.521  13.312  14.980  0.0974 -0.1184 -0.0468
 6119W        W 6319   7.122  12.819   4.549  0.1350 -0.0253 -0.2136
 6120W        W 6320   3.947   8.550  11.974  0.0367  0.1034 -0.2665
 6121W        W 6321   4.169   0.083   1.446  0.2352 -0.1027 -0.0023
 6122W        W 6322   4.135  13.099   6.955 -0.2092  0.3067 -0.1766
 6123W        W 6323   1.404  11.693   8.326  0.1921  0.0984 -0.1953
 6124W        W 6324  15.008   7.239   7.055  0.2846 -0.0815  0.0507
 6125W        W 6325   4.995   0.947   5.934  0.1925  0.0916  0.0609
 6126W        W 6326  11.514   1.125   8.725  0.1460  0.1009 -0.0857
 6127W        W 6327   9.305   7.799  10.466 -0.0299 -0.1076 -0.0572
 6128W        W 6328   0.202  10.209  13.221 -0.1480 -0.1652  0.1525
 6129W        W 6329  13.632   2.799   6.644 -0.1978 -0.0296  0.1134
 6130W        W 6330   2.900   4.060   0.237  0.1428 -0.1911 -0.1322
 6131W        W 6331   2.061   6.770   6.378 -0.0592 -0.4281 -0.4168
 6132W        W 6332   0.116   9.364   1.995 -0.2683  0.1832  0.1054
 6133W        W 6333   1.724  14.957   7.489  0.2608 -0.0995 -0.1484
 6134W        W 6334   7.001   8.092  10.367 -0.1536  0.0500  0.0319
 6135W        W 6335  15.074   7.794   8.456 -0.2927  0.0165 -0.0297
 6136W        W 6336   4.580  12.484  10.721  0.1771  0.3011  0.1177
 6137W        W 6337  10.127   6.509   3.668  0.0122  0.2050  0.0306
 6138W        W 6338  12.032   1.434  13.198 -0.1487  0.1813  0.4091
 6139W        W 6339   9.155   9.857  10.932  0.1046 -0.0518  0.1844
 6140W        W 6340   1.254   7.242   6.797 -0.1482 -0.2768  0.2596
 6141W        W 6341   9.894  10.065  12.037  0.0185 -0.1736  0.3076
 6142W        W 6342  10.812  13.672   0.033  0.2393  0.0539 -0.0518
 6143W        W 6343   5.669   2.440   6.685 -0.2278  0.1813  0.0601
 6144W        W 6344  14.901   0.520   7.138 -0.0923 -0.0443 -0.0133
 6145W        W 6345  11.209   9.098   9.367  0.1907  0.0132 -0.2001
 6146W        W 6346   9.123  12.826   9.873  0.0025  0.0659  0.0217
 6147W        W 6347  14.401  10.390  12.337 -0.1431 -0.0339  0.4816
 6148W        W 6348   3.696   8.289   7.236 -0.1417 -0.1393  0.2325
 6149W        W 6349  11.198   6.293   1.505 -0.2449  0.3062 -0.1132
 6150W        W 6350  14.395   3.258  10.078  0.2466  0.1116  0.0446
 6151W        W 6351  14.247   0.293   8.803 -0.1320 -0.1685  0.1066
 6152W        W 6352   4.007   9.120   1.012  0.1651  0.0145  0.0730
 6153W        W 6353   6.101   0.907  11.307 -0.0803 -0.1964 -0.0916
 6154W        W 6354   2.428   0.540  14.504 -0.1882  0.1184  0.1249
 6155W        W 6355  10.356   8.721   7.946  0.0742  0.2179  0.1061
 6156W        W 6356  14.538  10.270   8.147 -0.0749  0.0829 -0.0928
 6157W        W 6357  12.716   8.531   1.238 -0.1276 -0.0778 -0.1775
 6158W        W 6358  13.220   4.040  14.980 -0.0411 -0.2272  0.1943
 6159W        W 6359   5.412   2.124  10.782 -0.0263  0.1946  0.2594
 6160W        W 6360   3.720  13.500  12.091  0.1604 -0.1815 -0.1308
 6161W        W 6361  13.154   0.813   9.427  0.0248 -0.0567 -0.0116
 6162W        W 6362   0.491   8.206  14.191  0.0651 -0.0663 -0.2486
 6163W        W 6363  13.858  12.958   7.685  0.0563 -0.0022  0.1305
 6164W        W 6364  13.016  10.735  14.586 -0.3604 -0.0943  0.0212
 6165W        W 6365   5.952   7.743   2.541  0.0040 -0.1241 -0.6263
 6166W        W 6366   3.177   7.970   5.320 -0.3554 -0.1114 -0.1826
 6167W        W 6367   5.298  10.498   7.954 -0.1931 -0.1423 -0.1933
 6168W        W 6368   3.560   2.862  10.400  0.0899 -0.2178 -0.0618
 6169W        W 6369   6.920   4.577   3.776  0.3501 -0.2700 -0.0843
 6170W        W 6370   1.302  13.486   8.308  0.0170  0.1190  0.3242
 6171W        W 6371   1.198   8.820   8.986  0.0852 -0.0395 -0.0048
 6172W        W 6372   3.550   1.286  10.077  0.1113 -0.1760 -0.2243
 6173W        W 6373   3.129   7.873   8.088 -0.2649  0.1532 -0.1184
 6174W        W 6374   3.584   6.678   5.235  0.1201  0.1865  0.0290
 6175W        W 6375   3.440   3.296  10.096  0.1111  0.0486 -0.0167
 6176W        W 6376  14.967   9.430   5.756 -0.1241  0.0288 -0.0744
 6177W        W 6377  14.228  11.114   0.722 -0.1103 -0.0429 -0.0572
 6178W        W 6378   4.427  12.336  11.989 -0.0445  0.0724  0.0121
 6179W        W 6379  12.772   9.233   1.648  0.0568  0.0383  0.0049
 6180W        W 6380   2.829  10.475   6.661 -0.1299 -0.1401 -0.0175
 6181W        W 6381  13.969  10.047   4.448  0.0125  0.2273  0.0290
 6182W        W 6382  14.483  11.362   7.258 -0.0648 -0.2913 -0.1037
 6183W        W 6383   6.576  14.264   7.237 -0.2555 -0.0306 -0.0493
 6184W        W 6384   2.378  10.180  12.752  0.1170  0.1655  0.1776
 6185W        W 6385   3.414  11.907   9.956  0.1415  0.2710 -0.0422
 6186W        W 6386   4.412   7.907   6.920 -0.0548  0.3620 -0.0190
 6187W        W 6387   1.468  11.431   7.024  0.0488 -0.2307 -0.0273
 6188W        W 6388   0.187   3.452   7.937 -0.0341 -0.5044 -0.0086
 6189W        W 6389   5.014  12.678   8.027  0.1195 -0.0758  0.2356
 6190W        W 6390   4.755  15.005   4.209  0.1977 -0.0253 -0.0544
 6191W        W 6391  14.215   1.685   1.744  0.1797 -0.1574 -0.2731
 6192W        W 6392   1.132  14.242   7.392  0.0550  0.2992  0.3711
 6193W        W 6393   8.602   4.027   0.325 -0.1190  0.0557  0.1252
 6194W        W 6394  14.737   9.575   8.727  0.0447 -0.0496 -0.1467
 6195W        W 6395   7.206   5.215  10.749 -0.3344 -0.3691  0.0458
 6196W        W 6396  10.885   0.119   0.866  0.2371 -0.0441 -0.0010
 6197W        W 6397   7.143  13.638   4.650  0.0310 -0.1101  0.3182
 6198W        W 6398   4.564  11.100   8.210  0.0802 -0.1210 -0.2359
 6199W        W 6399   6.083   3.317  11.175 -0.0646  0.2432 -0.0343
 6200W        W 6400   9.057   7.912  11.351 -0.1172  0.0956  0.1239
 6201W        W 6401   2.120  12.970   8.186  0.0108  0.0911  0.1224
 6202W        W 6402  13.085  13.775   9.175 -0.1465  0.1941  0.0061
 6203W        W 6403   3.889  11.222   4.595  0.0626 -0.1782 -0.0979
 6204W        W 6404  13.672   1.084   8.587  0.2930  0.0993  0.2357
 6205W        W 6405  14.135   1.735   6.838 -0.2330 -0.3454  0.2359
 6206W        W 6406  14.944   8.119   9.730  0.1074  0.1557  0.3172
 6207W        W 6407   8.465  13.297   6.671  0.1595  0.2756  0.0239
 6208W        W 6408   6.270   7.187  12.810  0.2128  0.0235 -0.3672
 6209W        W 6409   1.513  13.326   9.035 -0.2175  0.1188  0.0896
 6210W        W 6410   8.773   6.769   0.915 -0.0377 -0.1831  0.0618
 6211W        W 6411   6.956   3.176   4.956  0.0146  0.0290  0.1493
 6212W        W 6412   6.824   9.882  10.572  0.0768  0.0100 -0.0269
 6213W        W 6413   4.153   0.131   4.764 -0.0231  0.0416 -0.3664
 6214W        W 6414   1.638  12.401   5.231 -0.0669 -0.2411  0.0350
 6215W        W 6415   0.122   8.109   4.551 -0.2035  0.1561 -0.0312
 6216W        W 6416   5.217  10.175  13.367 -0.0208  0.2246 -0.0894
 6217W        W 6417   5.745   3.003   1.824  0.1274  0.2201 -0.3355
 6218W        W 6418   0.910   1.790   2.533  0.3699 -0.1808 -0.1084
 6219W        W 6419  14.262  10.177  11.894  0.0528  0.2342 -0.0057
 6220W        W 6420   2.607   8.293  12.035 -0.0320  0.2733 -0.3004
 6221W        W 6421  13.612   6.332   2.104 -0.3779 -0.3372  0.0427
 6222W        W 6422   7.861   8.102  13.599 -0.1164  0.2365  0.0872
 6223W        W 6423  13.278  13.770   2.691 -0.1246  0.0652 -0.0631
 6224W        W 6424   0.104  10.258   9.495 -0.4153 -0.1953 -0.0203
 6225W        W 6425   6.598   3.769   5.495 -0.1633 -0.0494  0.0421
 6226W        W 6426  13.887   7.526   8.453 -0.0433 -0.1037  0.2032
 6227W        W 6427   7.257   2.705  10.125  0.0642  0.2648  0.1328
 6228W        W 6428  14.924   0.280   7.864 -0.2683 -0.1014 -0.2261
 6229W        W 6429   1.192  12.012   0.226 -0.0538 -0.2172 -0.3166
 6230W        W 6430   9.657   5.731   8.071 -0.0299 -0.0148 -0.0851
 6231W        W 6431   1.359   3.205   4.495 -0.0486  0.2158 -0.0778
 6232W        W 6432  11.624  12.847   8.761 -0.0475 -0.1337  0.0375
 6233W        W 6433   7.590   2.258   7.162  0.3115  0.0233  0.0601
 6234W        W 6434   7.654   9.699   8.469 -0.0349  0.0515 -0.1565
 6235W        W 6435   3.998   0.541   4.968 -0.1310  0.2301 -0.1259
 6236W        W 6436  14.973  12.156   7.092  0.1568 -0.0168 -0.1924
 6237W        W 6437  14.489   7.728   0.662  0.1194  0.2488  0.0695
 6238W        W 6438  15.044  11.870   9.458  0.0436  0.1962 -0.0095
 6239W        W 6439  14.105   0.569   6.759  0.1039 -0.0446  0.1106
 6240W        W 6440   2.828   8.904   9.697  0.0863  0.0772 -0.1655
 6241W        W 6441  11.261  11.372   0.559  0.1571  0.2863 -0.1172
 6242W        W 6442  13.255   7.079  11.159 -0.0389  0.0693  0.1327
 6243W        W 6443   5.418   9.825   1.615 -0.0781 -0.0037 -0.0256
 6244W        W 6444  14.127  15.168   3.428  0.1398 -0.1707 -0.0427
 6245W        W 6445   3.096   9.672   4.963 -0.2305 -0.1339 -0.0703
 6246W        W 6446   0.060   9.552   9.085 -0.2035  0.0492 -0.3162
 6247W        W 6447  14.279  12.011  13.701  0.0421  0.0554  0.0054
 6248W        W 6448   1.926   1.252  14.423 -0.0776  0.0366 -0.3282
 6249W        W 6449   4.251   5.292  14.515 -0.1528 -0.2877 -0.3179
 6250W        W 6450   8.560   4.730  12.736  0.5592  0.0652 -0.0220
 6251W        W 6451   8.202  10.829   4.702  0.3171  0.1483  0.0279
 6252W        W 6452  10.040   1.179  12.318 -0.1619  0.3349  0.2004
 6253W        W 6453   2.292   2.382  10.400 -0.3256 -0.1499 -0.1959
 6254W        W 6454  11.760  10.030  10.453 -0.2883 -0.2878  0.1887
 6255W        W 6455   7.041   0.565   2.975 -0.1601  0.1385 -0.0602
 6256W        W 6456   8.580  15.059  14.176 -0.1619 -0.0766  0.1992
 6257W        W 6457  12.040  14.272   9.946  0.1092  0.3616 -0.2602
 6258W        W 6458   8.643   6.369   0.632 -0.1688  0.2583 -0.2744
 6259W        W 6459  12.960   2.503  13.586 -0.0275 -0.0032 -0.1182
 6260W        W 6460   3.707   5.316  10.544  0.2159  0.0171 -0.0529
 6261W        W 6461  12.731  13.435   9.831 -0.4255 -0.0810 -0.0967
 6262W        W 6462   3.020   0.560   7.789  0.1032 -0.1613  0.2741
 6263W        W 6463   0.253  13.981  13.955 -0.1306  0.3020 -0.0573
 6264W        W 6464   7.792   8.000   7.939  0.2530  0.1070  0.0987
 6265W        W 6465   0.854   0.766   2.520 -0.2256 -0.0651 -0.1784
 6266W        W 6466   9.759  13.588   7.898  0.1144  0.2632 -0.0866
 6267W        W 6467   2.288  11.468  14.074 -0.3121  0.0962 -0.0730
 6268W        W 6468   6.058   1.563   4.719  0.3136 -0.2892  0.0569
 6269W        W 6469   2.282   3.456   4.422 -0.1334  0.1509 -0.1269
 6270W        W 6470   0.761   1.265  10.062  0.1866 -0.3347  0.1373
 6271W        W 6471  13.665   0.026   1.253  0.0697 -0.1289 -0.1500
 6272W        W 6472   1.577   5.638   8.942 -0.1752 -0.0633 -0.0410
 6273W        W 6473   3.560   1.412  10.932  0.2471 -0.0089 -0.1704
 6274W        W 6474   0.691  12.871   3.073  0.0667  0.1587 -0.0401
 6275W        W 6475  13.611  10.896  14.216  0.0403 -0.3765 -0.0234
 6276W        W 6476   8.072   9.797   9.321  0.1801  0.5608  0.0229
 6277W        W 6477   1.926  11.636  12.166 -0.1516  0.0402 -0.3216
 6278W        W 6478   9.481   5.537  12.425  0.1356 -0.0449  0.1257
 6279W        W 6479   7.250   3.247   3.205 -0.0149 -0.3254 -0.0815
 6280W        W 6480   9.556   9.032  10.583 -0.2505  0.2895 -0.0423
 6281W        W 6481   5.172  10.570   7.051  0.2117 -0.2581 -0.2773
 6282W        W 6482   0.433   1.663  11.533  0.1471 -0.2306  0.2936
 6283W        W 6483  13.296   1.816   0.613 -0.0796  0.1747 -0.2260
 6284W        W 6484  13.670   8.263   6.497 -0.0128  0.1528  0.0532
 6285W        W 6485   2.864   7.532  15.164  0.0160  0.1655  0.0095
 6286W        W 6486   9.411   0.389  11.369  0.0848 -0.4072  0.1740
 6287W        W 6487  14.675   7.882  10.468 -0.3506  0.2124 -0.0077
 6288W        W 6488  12.775   4.733   8.193  0.2805 -0.2812 -0.1015
 6289W        W 6489   0.235  10.391  11.172  0.2161  0.0482  0.1547
 6290W        W 6490   6.176   8.997   6.159  0.2227  0.0101 -0.0373
 6291W        W 6491   4.022  11.078   9.754 -0.2354 -0.1125 -0.0866
 6292W        W 6492   1.214   1.880   9.028  0.2445 -0.0125  0.1459
 6293W        W 6493   2.195   3.944  12.635 -0.0651  0.3050  0.0634
 6294W        W 6494   6.519   8.499   2.198  0.0833 -0.1837 -0.1699
 6295W        W 6495  14.565  12.205  10.667  0.0738  0.1453  0.0742
 6296W        W 6496   1.906  13.525   8.335 -0.0993  0.2361 -0.3962
 6297W        W 6497   9.583  13.441   0.276 -0.1856  0.0144 -0.3756
 6298W        W 6498   6.396  14.097  13.220  0.2950  0.0943 -0.2804
 6299W        W 6499   2.335  11.065   2.252 -0.1359 -0.0272  0.3696
 6300W        W 6500   7.121   2.625  10.737 -0.2057  0.0271  0.0672
 6301W        W 6501  10.573   0.596   7.448  0.0326  0.0099  0.2901
 6302W        W 6502   8.469   9.659   2.605  0.0845 -0.0992  0.0352
 6303W        W 6503   1.144   4.021  15.037 -0.1897  0.0333 -0.0557
 6304W        W 6504  15.095  13.173   1.048  0.3412 -0.0135 -0.1556
 6305W        W 6505   1.500   9.803   9.206 -0.0951 -0.2014  0.0452
 6306W        W 6506  10.607  11.366  14.628  0.2155 -0.3423  0.0835
 6307W        W 6507   2.508   7.730  14.303  0.1005  0.0482  0.3686
 6308W        W 6508   2.733  13.973   0.069  0.1188 -0.2651  0.2489
 6309W        W 6509   2.268  13.222   8.749  0.3607  0.1538 -0.1278
 6310W        W 6510   5.553   8.764   7.849  0.1188 -0.0825  0.1853
 6311W        W 6511   0.567   2.365  11.773 -0.2670  0.0649  0.1286
 6312W        W 6512  12.453   0.523   5.360  0.1003  0.0734  0.1254
 6313W        W 6513  14.248   0.269  11.926  0.0705  0.1675 -0.0636
 6314W        W 6514   1.881   3.257   7.927  0.3255 -0.0386 -0.0773
 6315W        W 6515  12.252   1.831   6.588 -0.1921  0.0620  0.0433
 6316W        W 6516   6.918  13.722  12.004  0.1438 -0.4242 -0.1624
 6317W        W 6517   7.302   8.905  13.137 -0.0463  0.0456 -0.1224
 6318W        W 6518   2.033  14.766   6.579 -0.0861  0.3214 -0.2190
 6319W        W 6519   3.053   1.260   5.271 -0.1255  0.1216 -0.0040
 6320W        W 6520  14.763  13.022  10.319  0.0138 -0.1399 -0.2300
 6321W        W 6521   8.069   9.577   0.374  0.0062  0.1519 -0.1987
 6322W        W 6522   1.135   5.364   9.174 -0.0989 -0.4129  0.2085
 6323W        W 6523  12.819   7.604   8.030  0.2134 -0.1469 -0.2757
 6324W        W 6524  12.464   4.179  13.939  0.1504  0.5324 -0.1074
 6325W        W 6525   1.511   0.864  10.564 -0.2365 -0.0974  0.0866
 6326W        W 6526   9.357  13.041  11.819 -0.0953  0.1122 -0.2279
 6327W        W 6527   5.162  12.907   9.518  0.0676  0.2444 -0.0347
 6328W        W 6528   6.472  14.107  14.409 -0.0689  0.2061 -0.0179
 6329W        W 6529  14.892  13.931   5.469  0.0394 -0.0005 -0.1818
 6330W        W 6530   5.631   4.504  11.376  0.1584  0.1729 -0.4360
 6331W        W 6531   2.368  11.885   3.607  0.2092  0.1894  0.1643
 6332W        W 6532  12.667   9.417   9.765 -0.2539 -0.1995 -0.0846
 6333W        W 6533  11.327  10.702  14.136  0.1652 -0.0667  0.0262
 6334W        W 6534  14.400   9.331  12.269  0.0116  0.2237  0.2192
 6335W        W 6535   4.089   2.221  10.862  0.1404  0.0111 -0.2580
 6336W        W 6536  11.612  11.051   0.446 -0.3617  0.0370  0.1867
 6337W        W 6537   0.253  11.168   3.785  0.0046 -0.0095 -0.0287
 6338W        W 6538  13.624  10.363  13.931  0.1283 -0.3012  0.1861
 6339W        W 6539   9.907   5.995  14.136 -0.0871 -0.0805 -0.2059
 6340W        W 6540   2.999  12.843  12.983 -0.1450 -0.1375  0.0572
 6341W        W 6541   2.247  11.633   8.000 -0.0564 -0.3154 -0.0699
 6342W        W 6542  12.613   2.133  12.845 -0.2406  0.1621  0.1082
 6343W        W 6543   8.823  10.394  13.766  0.0133  0.3060  0.1766
 6344W        W 6544  14.142  10.012   8.160  0.0151 -0.1141 -0.2395
 6345W        W 6545   1.943   1.683  10.755  0.1990 -0.0519  0.3540
 6346W        W 6546   0.187  10.762   1.011  0.1270  0.4542 -0.1349
 6347W        W 6547   3.289   1.030   6.062 -0.1791 -0.1017 -0.0215
 6348W        W 6548  12.857  12.516   6.665  0.1398  0.0800 -0.2922
 6349W        W 6549  11.786  10.854   3.597  0.0304 -0.0310  0.1547
 6350W        W 6550   5.832  14.408   0.038  0.1083 -0.2350 -0.2043
 6351W        W 6551   2.992   0.513   5.018  0.1921 -0.1052 -0.1832
 6352W        W 6552  10.481   7.322   1.609 -0.0387  0.1520  0.0341
 6353W        W 6553   5.341  10.604   9.794  0.0015 -0.1859 -0.0726
 6354W        W 6554   9.532   7.576   1.167 -0.2363  0.0774 -0.2573
 6355W        W 6555  13.044   9.765   4.463 -0.0078  0.0684 -0.2459
 6356W        W 6556  12.860  11.060  13.537 -0.0711  0.0369  0.1108
 6357W        W 6557   3.698  13.016   7.240 -0.1916  0.1895  0.1975
 6358W        W 6558  13.173   4.159   5.535  0.0303  0.0203 -0.2368
 6359W        W 6559   2.311   6.845   3.320 -0.0597 -0.1380 -0.2405
 6360W        W 6560   5.779   0.094  11.441  0.1529  0.0120  0.1391
 6361W        W 6561  13.089  10.298  11.360 -0.1557  0.3103  0.1135
 6362W        W 6562   0.079   4.070   3.476  0.1402  0.2410  0.1705
 6363W        W 6563   0.113   8.770   3.583  0.0226 -0.0182  0.0199
 6364W        W 6564   2.741   7.875   3.770  0.0225  0.0402  0.0565
 6365W        W 6565   8.055   4.630   0.536  0.1374  0.2195  0.1890
 6366W        W 6566  14.709   9.634  12.768 -0.1521  0.1346 -0.0727
 6367W        W 6567  14.376  12.566   6.357  0.2226 -0.4172 -0.1573
 6368W        W 6568   3.317  12.969   0.074 -0.1703 -0.0126 -0.1867
 6369W        W 6569   6.957   5.240   9.230 -0.0218  0.2701  0.1224
 6370W        W 6570   7.937   8.145   9.424 -0.2552  0.1997  0.2516
 6371W        W 6571   6.719   9.807   3.076 -0.1208  0.1745  0.1425
 6372W        W 6572   4.195   5.783  14.730  0.3027  0.1027 -0.1727
 6373W        W 6573   5.479   1.841   3.970  0.1134 -0.2499  0.2647
 6374W        W 6574   5.351  14.219   4.883 -0.1593  0.2027  0.0936
 6375W        W 6575   5.398   9.632   7.708 -0.0217  0.0625  0.0487
 6376W        W 6576   1.154   3.308  12.887 -0.0493 -0.0997  0.0334
 6377W        W 6577   1.148  10.572   7.652  0.0578  0.0544 -0.1413
 6378W        W 6578  14.070  12.276  14.230 -0.2032  0.1436 -0.1928
 6379W        W 6579   3.264  10.744  14.820  0.2696 -0.0484  0.1456
 6380W        W 6580   6.160  15.187  10.672 -0.0105  0.1601 -0.1136
 6381W        W 6581   4.585  11.027   9.526  0.0248  0.1827 -0.1671
 6382W        W 6582  11.220   7.033  13.030  0.0660  0.0547  0.1716
 6383W        W 6583  13.555  14.060   8.178  0.1625  0.1960  0.4348
 6384W        W 6584   4.808   1.554   7.808  0.1011 -0.1327  0.2961
 6385W        W 6585  14.173   4.432  13.535 -0.1456 -0.2329 -0.4236
 6386W        W 6586   9.506   1.027  10.130 -0.3492  0.2165  0.1738
 6387W        W 6587   9.650  11.038   2.436 -0.0967 -0.1715 -0.3931
 6388W        W 6588   5.090  13.785   6.104  0.1842 -0.1703  0.2521
 6389W        W 6589  13.603   9.570  10.024  0.2440 -0.0686  0.0659
 6390W        W 6590   1.284   9.740   8.664 -0.1957 -0.0108 -0.2842
 6391W        W 6591   4.296   5.713   9.134  0.0089 -0.0491 -0.0240
 6392W        W 6592   5.141  14.214  13.222 -0.1786 -0.4257  0.2069
 6393W        W 6593  14.919   4.348   1.662  0.3643 -0.0947  0.1543
 6394W        W 6594   4.357  11.211  11.947  0.2499 -0.1117  0.1333
 6395W        W 6595   2.412   0.333   0.043 -0.2357  0.2663  0.2940
 6396W        W 6596   4.192  12.786  11.956 -0.0904 -0.2420 -0.1568
 6397W        W 6597   3.274  14.821   2.117 -0.1117  0.1854  0.0541
 6398W        W 6598   6.585  10.592  15.101  0.0552 -0.0768  0.2822
 6399W        W 6599   1.475  14.201   9.320 -0.3785  0.1924 -0.0971
 6400W        W 6600  14.410   5.473   3.081  0.2001  0.0212 -0.0150
 6401W        W 6601  14.200   5.144   4.803  0.1895  0.1625 -0.0234
 6402W        W 6602   4.138  10.257   4.056 -0.0185 -0.1910 -0.0694
 6403W        W 6603   5.379   0.196   1.838  0.2278 -0.1282  0.0040
 6404W        W 6604  10.166   7.438   5.590  0.1481  0.0345  0.1286
 6405W        W 6605   0.552  10.304   4.896  0.0034 -0.0871 -0.3301
 6406W        W 6606   9.549  14.252   0.555  0.1136 -0.0651 -0.0113
 6407W        W 6607   7.909  13.420  14.186 -0.0536  0.1139 -0.1028
 6408W        W 6608  13.483  10.593   6.062 -0.1996  0.2415  0.1468
 6409W        W 6609  14.978   3.059  12.582  0.2154 -0.0693 -0.1390
 6410W        W 6610  14.079  10.573  14.015  0.1327 -0.1499 -0.1326
 6411W        W 6611  13.264  11.044   6.216  0.0459 -0.1738  0.0124
 6412W        W 6612  11.908  12.591  13.188  0.1494  0.3746  0.1402
 6413W        W 6613  11.580  15.074   6.347  0.0653  0.3066  0.0273
 6414W        W 6614  10.412   1.862  13.993 -0.0610  0.2496  0.0058
 6415W        W 6615   1.731  13.633  13.928 -0.0243 -0.4580  0.0726
 6416W        W 6616   4.969  13.923   8.599 -0.1242  0.0921 -0.0675
 6417W        W 6617   5.032  11.676  10.934  0.0717  0.0626  0.1138
 6418W        W 6618   7.891  11.172   1.565 -0.1724 -0.0095 -0.0126
 6419W        W 6619   1.404  14.765   9.187 -0.0386  0.3287  0.0601
 6420W        W 6620   1.463   6.203  10.937  0.2914  0.2165 -0.0632
 6421W        W 6621   3.049   6.055   5.937 -0.1099  0.0543  0.0884
 6422W        W 6622   0.531   7.574   1.813  0.1242  0.2704 -0.1439
 6423W        W 6623   7.503   5.197   9.567 -0.1986 -0.1628  0.2217
 6424W        W 6624  13.775  11.796   2.109 -0.0086 -0.1008  0.1328
 6425W        W 6625   7.378  14.432   0.164 -0.1761  0.0191  0.2623
 6426W        W 6626  14.421   7.157  12.594 -0.1317 -0.3730 -0.3399
 6427W        W 6627  14.083   9.092   4.825  0.0191  0.2282  0.0079
 6428W        W 6628  15.009   1.348  10.372  0.0023 -0.1420 -0.3347
 6429W        W 6629   3.828   0.669  11.718  0.2808  0.0679 -0.2353
 6430W        W 6630   2.408  14.368   4.167  0.2014 -0.0388  0.1584
 6431W        W 6631  13.935  14.598   8.706  0.1448 -0.0842 -0.2175
 6432W        W 6632   2.678   9.183   1.626 -0.3044  0.1768  0.3280
 6433W        W 6633  13.367  13.920  12.415 -0.0178  0.0178 -0.4005
 6434W        W 6634   1.383   8.935   5.610 -0.0364  0.0011 -0.0716
 6435W        W 6635  11.997   5.368   8.928  0.1971 -0.1436 -0.0559
 6436W        W 6636  15.067   8.721  14.960 -0.1022 -0.0735 -0.0457
 6437W        W 6637   8.421   8.833  13.997 -0.3715  0.0488  0.1836
 6438W        W 6638   1.987   9.417  13.347 -0.1488  0.1599  0.3555
 6439W        W 6639  12.942   9.460   1.186 -0.1769  0.3295 -0.0325
 6440W        W 6640   1.430  11.392   9.265  0.1247 -0.0475 -0.1315
 6441W        W 6641   5.642   7.521   7.028 -0.0258 -0.0766  0.2709
 6442W        W 6642   3.673   8.038   3.430 -0.1258  0.1130 -0.0468
 6443W        W 6643   1.884   1.477   7.946 -0.1149  0.0951 -0.0719
 6444W        W 6644   4.134   3.357  14.477  0.0902 -0.0536  0.1829
 6445W        W 6645   1.148   8.346   2.642 -0.0812 -0.0450 -0.2551
 6446W        W 6646   6.246  13.166  14.657 -0.1973  0.3853 -0.0347
 6447W        W 6647  10.234   2.740  14.210  0.1697 -0.2923  0.0772
 6448W        W 6648   1.538  10.675   1.758  0.1678 -0.0840 -0.0930
 6449W        W 6649   6.775   6.041  14.561  0.0747 -0.1573  0.2507
 6450W        W 6650  12.248   3.507   9.381  0.2337 -0.0265 -0.0308
 6451W        W 6651   0.279  13.137  10.035  0.3610  0.0564 -0.1292
 6452W        W 6652   8.060  13.109  11.612  0.0459 -0.0321 -0.4702
 6453W        W 6653   4.141   2.084   4.996 -0.0059  0.2694  0.4086
 6454W        W 6654   5.300  12.841   3.121 -0.0111  0.1952 -0.3895
 6455W        W 6655  10.606   5.173   7.808  0.0587 -0.4211  0.1758
 6456W        W 6656   7.119  13.333   9.778 -0.3076 -0.1138 -0.0489
 6457W        W 6657  11.489   4.742   7.512  0.2103 -0.2548 -0.2825
 6458W        W 6658   0.764   2.046   4.724 -0.1806  0.1480  0.1985
 6459W        W 6659   3.790   1.343  13.513 -0.0492 -0.0734 -0.2071
 6460W        W 6660   3.681  12.511   6.284  0.1634  0.1551 -0.1640
 6461W        W 6661   6.791  12.220  10.125  0.0041 -0.0164  0.1209
 6462W        W 6662   0.107   4.623  12.147  0.0613  0.1106  0.0546
 6463W        W 6663   6.825   0.613  14.433  0.1088 -0.1814 -0.0464
 6464W        W 6664   2.283  13.400   3.766 -0.1403  0.4336  0.2992
 6465W        W 6665  11.289  12.760  14.987 -0.3106 -0.1542  0.0886
 6466W        W 6666   5.054   2.456   1.963  0.0529  0.1289  0.2204
 6467W        W 6667   1.965   1.691   6.120 -0.2164  0.3828  0.1834
 6468W        W 6668  14.890   8.238   4.338 -0.0671 -0.0654 -0.0227
 6469W        W 6669   6.415   4.908  10.996 -0.1931 -0.0049  0.0045
 6470W        W 6670   2.774   1.548  10.518  0.2030 -0.1565  0.2621
 6471W        W 6671   8.964   9.648   2.518  0.1642 -0.1009  0.2937
 6472W        W 6672  13.823  10.503   0.958  0.0004  0.1180  0.4477
 6473W        W 6673   4.622   4.216  10.644 -0.0294 -0.0662  0.1144
 6474W        W 6674  14.027  10.581   2.161  0.1312 -0.1709 -0.0560
 6475W        W 6675   3.924   3.747   5.003  0.2711  0.2389 -0.0455
 6476W        W 6676  15.100   4.190   5.511 -0.0596  0.0885 -0.1122
 6477W        W 6677   3.085   5.416  14.807  0.0141 -0.2380 -0.0000
 6478W        W 6678   6.012  10.663  11.180  0.0050  0.2235 -0.2342
 6479W        W 6679  14.912   3.348   2.514 -0.2728 -0.1316  0.2794
 6480W        W 6680   1.535  11.966   0.721  0.2806  0.3437  0.0472
 6481W        W 6681   5.336  11.289  10.716  0.0223  0.0621 -0.1209
 6482W        W 6682   3.418   1.028  12.667  0.0201  0.3335 -0.2533
 6483W        W 6683   8.085  12.525  10.587  0.2351 -0.2255  0.1148
 6484W        W 6684   8.677  11.002   3.538  0.0568 -0.0683  0.1938
 6485W        W 6685   2.214   8.466  14.222  0.1673  0.0538  0.1607
 6486W        W 6686  12.619   9.250  14.075  0.4187 -0.1113  0.1705
 6487W        W 6687  12.213  10.183  11.935  0.1153 -0.4526  0.1355
 6488W        W 6688   2.519  12.566  13.405  0.0141 -0.0547 -0.0433
 6489W        W 6689   9.988  11.220   4.188 -0.2408 -0.2680  0.0006
 6490W        W 6690   5.551   7.931  11.907  0.0779  0.2474  0.1897
 6491W        W 6691   6.756  15.122  14.203 -0.0573 -0.2273  0.0847
 6492W        W 6692  10.315   2.145  14.424 -0.1893 -0.2251 -0.3628
 6493W        W 6693   4.124   1.739  13.551  0.0504  0.0894 -0.2069
 6494W        W 6694   4.529  13.569  11.546  0.0131 -0.3568  0.0461
 6495W        W 6695   5.936   4.230  10.438  0.0302 -0.2552  0.1488
 6496W        W 6696   8.115  11.996   0.487  0.1145 -0.2823 -0.0205
 6497W        W 6697   4.442   3.428   2.354 -0.5282  0.2956  0.0916
 6498W        W 6698   4.276  14.156  13.655  0.0325  0.0956  0.0038
 6499W        W 6699   2.557   9.750   9.016  0.2372 -0.2534 -0.4363
 6500W        W 6700   2.669   2.338  11.043  0.2656 -0.4465  0.1836
 6501W        W 6701   3.328   4.878  14.098  0.1210 -0.1369  0.1262
 6502W        W 6702  12.918  13.471   8.749 -0.2008 -0.0319  0.0512
 6503W        W 6703  14.716   2.786   9.020 -0.1179  0.1197 -0.0164
 6504W        W 6704   7.320   1.785  10.959  0.0815 -0.2276 -0.0101
 6505W        W 6705   7.213  12.985   1.070 -0.2731 -0.0650  0.0445
 6506W        W 6706  13.050   9.834   3.062 -0.2725 -0.0793  0.1523
 6507W        W 6707   0.276   1.927   9.172 -0.0999  0.3416 -0.0558
 6508W        W 6708   3.591  11.505   1.769 -0.2291  0.1169  0.0482
 6509W        W 6709  14.906  10.523  11.573  0.1908  0.1064  0.1222
 6510W        W 6710   2.018   7.516   9.791  0.0010  0.0294  0.1588
 6511W        W 6711   3.297   0.754  11.547  0.2082  0.3688 -0.0994
 6512W        W 6712  14.488  10.639  11.892 -0.2389  0.0886  0.2456
 6513W        W 6713  11.832   9.994  14.587  0.0174 -0.3079  0.0323
 6514W        W 6714  12.126  10.832   9.691 -0.0777 -0.2166  0.0788
 6515W        W 6715   1.174   6.695   5.073  0.1925  0.1183  0.3150
 6516W        W 6716   4.956   1.696   3.114 -0.2175 -0.2419  0.1218
 6517W        W 6717  12.536  14.229  14.919 -0.1555  0.0011  0.1893
 6518W        W 6718   9.540  10.267  13.368 -0.3014 -0.2835  0.0529
 6519W        W 6719   4.560   1.264  11.915 -0.0168 -0.0389 -0.1185
 6520W        W 6720   1.005   3.109   4.088  0.1472  0.2900 -0.0239
 6521W        W 6721  10.520  13.160  12.808  0.1669  0.0428 -0.0403
 6522W        W 6722   5.242  11.639  11.894 -0.0521  0.0941 -0.3252
 6523W        W 6723  14.530  11.033   6.856  0.2407  0.0705 -0.1441
 6524W        W 6724   5.849  12.764  12.661  0.1773 -0.0430  0.2289
 6525W        W 6725   4.674   0.889  11.502 -0.0655 -0.0756 -0.0707
 6526W        W 6726   5.747  11.948  15.180 -0.2452  0.2644 -0.2032
 6527W        W 6727  13.089   5.471  13.831 -0.2819  0.1056 -0.1542
 6528W        W 6728   1.839   9.435  14.750  0.0303 -0.0921 -0.2918
 6529W        W 6729  10.663   8.951  11.753 -0.0034  0.0838  0.0345
 6530W        W 6730   0.139   8.200   0.437  0.3758  0.1246  0.0300
 6531W        W 6731  10.102  11.619  14.451 -0.5163 -0.0438  0.1296
 6532W        W 6732   5.950  14.452   4.556  0.1232  0.1531 -0.1735
 6533W        W 6733   8.725   3.559   6.038  0.0956 -0.0990  0.3120
 6534W        W 6734  13.650  14.679   5.643  0.0300 -0.1758 -0.0526
 6535W        W 6735   0.689   9.605   6.272  0.1110  0.1379 -0.1930
 6536W        W 6736   8.386   2.985  11.979  0.1657 -0.2531  0.2076
 6537W        W 6737   8.187   0.554   2.320  0.0788 -0.0816  0.2321
 6538W        W 6738   2.246  12.652  11.046 -0.1151  0.0106 -0.0222
 6539W        W 6739  11.891   4.470   1.044  0.0185  0.1753 -0.1588
 6540W        W 6740  13.088   5.178   6.141  0.2809 -0.1032 -0.0521
 6541W        W 6741  14.363  11.250  10.812 -0.0645 -0.1037 -0.1637
 6542W        W 6742   6.061   2.018  12.701 -0.2144  0.1248 -0.3616
 6543W        W 6743  12.008   8.039   5.563  0.1586  0.0724  0.1683
 6544W        W 6744  13.045   1.036  15.144  0.1248  0.0966  0.1195
 6545W        W 6745   8.740   0.290   0.335  0.1251 -0.2542  0.0943
 6546W        W 6746   0.650   6.083  15.073  0.2302  0.0782 -0.1295
 6547W        W 6747   2.217   6.387  12.754  0.0265  0.0174 -0.1954
 6548W        W 6748   1.219   9.978  14.160  0.0821  0.0746 -0.0461
 6549W        W 6749   0.715   9.426  10.010  0.1215 -0.2112 -0.0449
 6550W        W 6750  12.747  10.001  10.101 -0.4082  0.0133 -0.3208
 6551W        W 6751   4.920   6.436   6.769  0.1665 -0.6130 -0.2517
 6552W        W 6752   6.465  10.607   9.052 -0.1150  0.2459 -0.0944
 6553W        W 6753   6.909   6.438   6.168  0.0911  0.1612  0.0474
 6554W        W 6754   8.818   5.465   2.744  0.3407  0.2043 -0.0760
 6555W        W 6755   6.699   5.850   9.949 -0.1651  0.2909 -0.1875
 6556W        W 6756   1.140  13.006   1.773 -0.1618 -0.1314  0.2498
 6557W        W 6757  15.156   2.017  12.033  0.0442  0.1833 -0.3766
 6558W        W 6758   1.346  12.725  10.143 -0.0308 -0.1156 -0.1870
 6559W        W 6759  11.870   3.504   0.423  0.0946 -0.0917  0.0400
 6560W        W 6760  13.706   1.672  10.369  0.1447 -0.0610 -0.2050
 6561W        W 6761   5.078   0.152   9.013  0.1466  0.0509  0.1605
 6562W        W 6762  14.940  10.750  14.839 -0.2056 -0.0637 -0.1447
 6563W        W 6763   3.433   5.031   5.699  0.2658  0.0126  0.2512
 6564W        W 6764   1.587   1.529  11.142  0.2209  0.2483 -0.0688
 6565W        W 6765  15.112  13.321   2.425 -0.2243 -0.1033 -0.0188
 6566W        W 6766   8.276  13.373   6.042 -0.1548 -0.1164 -0.0661
 6567W        W 6767   2.371   3.170  13.439  0.1985  0.0615 -0.1038
 6568W        W 6768   3.125  11.729   7.658  0.2934  0.0268  0.2611
 6569W        W 6769   1.534  11.027   0.636 -0.1176 -0.4699  0.2278
 6570W        W 6770   1.826  12.266   5.869  0.0455  0.1393  0.0574
 6571W        W 6771  11.278   9.190  13.637  0.2493  0.1849  0.0219
 6572W        W 6772   1.460   5.566  13.476  0.1468 -0.1774  0.2279
 6573W        W 6773  12.041  11.949   9.753 -0.0159 -0.1849  0.0209
 6574W        W 6774   9.613  11.407  14.151  0.2523  0.0455  0.1952
 6575W        W 6775   7.875   4.985   6.831  0.1592  0.2884  0.3271
 6576W        W 6776   2.766  12.490   0.732 -0.0113 -0.0096 -0.0911
 6577W        W 6777   4.964  13.758   9.967  0.2810 -0.2872  0.0610
 6578W        W 6778   3.759  13.175   2.747 -0.1584  0.4844  0.2342
 6579W        W 6779   8.403  10.006   8.876 -0.2172  0.0914 -0.1083
 6580W        W 6780   5.469   2.061   3.088 -0.2002  0.3107 -0.0179
 6581W        W 6781  14.026  14.752   1.707  0.0878 -0.2165 -0.0555
 6582W        W 6782   4.925  14.118   5.720 -0.1726 -0.1343  0.0782
 6583W        W 6783  14.055  10.393   5.389  0.0362  0.0068  0.4305
 6584W        W 6784   9.806   0.278   6.819  0.2067  0.0043 -0.0388
 6585W        W 6785   0.632   7.839   7.044  0.0485  0.0073  0.1064
 6586W        W 6786   4.775  13.828   1.800 -0.0715  0.0133 -0.0250
 6587W        W 6787  14.619  13.700   0.714  0.0605  0.0248 -0.1637
 6588W        W 6788   8.670  13.481   3.269  0.1250  0.3122 -0.1459
 6589W        W 6789  10.508   0.351   6.277 -0.0604  0.0729  0.0687
 6590W        W 6790   1.682   3.108  12.896  0.0703  0.1404  0.0758
 6591W        W 6791  11.672   2.807   7.399  0.3344 -0.2807  0.3296
 6592W        W 6792   7.648   4.963  10.694  0.0511 -0.2367  0.2237
 6593W        W 6793   7.398  12.383   8.119 -0.0430  0.0586 -0.1275
 6594W        W 6794   4.911   0.599  12.464 -0.1333  0.1485 -0.1242
 6595W        W 6795   4.284  10.166  14.980 -0.0327  0.0588  0.2136
 6596W        W 6796  11.724  13.121  13.560 -0.0102 -0.1696 -0.1091
 6597W        W 6797  14.506  12.756   9.087  0.1134  0.0174  0.0423
 6598W        W 6798   6.136   6.110   7.000 -0.1792  0.0890 -0.2100
 6599W        W 6799   6.356   4.104   1.715 -0.3923  0.1666 -0.1152
 6600W        W 6800   2.344   2.679  14.672 -0.0092  0.0081  0.1559
 6601W        W 6801   6.308  14.309   9.241  0.0408 -0.0975  0.0981
 6602W        W 6802   4.757   6.896   7.814  0.1532 -0.1887 -0.0154
 6603W        W 6803   5.306   8.264   5.488 -0.3140  0.3333 -0.1149
 6604W        W 6804  13.066   1.716   1.546  0.2332  0.0629  0.1408
 6605W        W 6805   0.872  13.711   0.050  0.1227 -0.0304  0.2868
 6606W        W 6806   1.182   0.961   1.410 -0.2662 -0.1411 -0.2759
 6607W        W 6807   1.981  13.433   0.092 -0.2592  0.3744  0.1520
 6608W        W 6808  11.685  12.511  14.811 -0.2578 -0.1453 -0.2618
 6609W        W 6809  11.842   0.794  12.615 -0.1622  0.0039  0.1595
 6610W        W 6810   6.170   0.699   0.264 -0.0393  0.0361  0.1036
 6611W        W 6811  14.754   1.053   9.927  0.3803 -0.0272 -0.0484
 6612W        W 6812   3.019   4.752   5.308  0.0301 -0.0936 -0.1981
 6613W        W 6813  12.067  13.574   7.292  0.3567 -0.2087 -0.0172
 6614W        W 6814   2.238  11.603   7.141  0.5849  0.2614  0.0260
 6615W        W 6815  14.338   6.822   7.558  0.0530  0.1498  0.0293
 6616W        W 6816  12.519  10.892  12.565 -0.0746  0.0587 -0.3472
 6617W        W 6817   5.958  12.224   8.190 -0.2105  0.0151  0.0381
 6618W        W 6818   1.092   3.033   2.235  0.2743  0.2262  0.0745
 6619W        W 6819   6.383   1.737  10.756 -0.0988  0.0779  0.0209
 6620W        W 6820   1.960   9.444   4.681  0.0214 -0.1973  0.0515
 6621W        W 6821  10.839   8.836  14.810  0.3143 -0.2267 -0.0863
 6622W        W 6822   4.863  12.764   3.581  0.0937  0.1331  0.2033
 6623W        W 6823   2.738   2.692   9.035  0.0206 -0.1119  0.2336
 6624W        W 6824   0.274   4.662   8.352 -0.2502 -0.2872  0.0087
 6625W        W 6825   0.736  10.890   2.834 -0.2158  0.0027 -0.0523
 6626W        W 6826   9.020  13.036  14.105  0.4076  0.3403 -0.1525
 6627W        W 6827   2.461  12.799  10.199 -0.0369  0.0006  0.1908
 6628W        W 6828   0.347  14.584   0.186 -0.2067 -0.1504 -0.2108
 6629W        W 6829   6.891  14.656  11.968 -0.0806  0.3747  0.0318
 6630W        W 6830  11.029   5.613  14.974 -0.2073 -0.1030  0.0391
 6631W        W 6831   4.950  14.059   6.678  0.3805 -0.2527 -0.0557
 6632W        W 6832  10.212  12.580  10.109  0.3914 -0.1510  0.2748
 6633W        W 6833   5.542   2.321   2.087 -0.1722  0.3017  0.1799
 6634W        W 6834   0.814   8.093   2.334  0.1010  0.1094 -0.1410
 6635W        W 6835   3.315   8.540  10.616 -0.2050 -0.2475  0.0942
 6636W        W 6836   3.501  12.937   0.601 -0.2968 -0.0365 -0.1719
 6637W        W 6837   7.364   2.710  11.734  0.1160  0.1425 -0.0217
 6638W        W 6838   8.406  13.137  13.255 -0.0848 -0.1223 -0.2719
 6639W        W 6839  14.678   3.995   4.909 -0.3344 -0.0116  0.0044
 6640W        W 6840  13.604   7.930  14.431  0.1320 -0.1966  0.0179
 6641W        W 6841  13.441  11.934  13.506  0.0331 -0.2184 -0.1814
 6642W        W 6842   1.834  12.552   8.246  0.1364  0.0111 -0.2363
 6643W        W 6843  11.856  12.972   0.023 -0.2172 -0.2072 -0.1503
 6644W        W 6844   5.761  12.172   2.264  0.1103  0.1146  0.2213
 6645W        W 6845   3.707   2.423   0.290  0.2227  0.0624 -0.0462
 6646W        W 6846   3.416   8.129  14.526  0.1309  0.1736 -0.0041
 6647W        W 6847   4.766  12.089   2.319 -0.0886 -0.0360 -0.0038
 6648W        W 6848   2.387   6.488  12.146  0.3826 -0.0511  0.1388
 6649W        W 6849   8.470   6.930   8.405 -0.0235  0.1540 -0.1954
 6650W        W 6850  15.033   3.621  14.592 -0.1021 -0.2413 -0.0509
 6651W        W 6851   6.436   7.679  12.517  0.1455 -0.2145  0.0952
 6652W        W 6852  11.335  12.060   1.444 -0.0250 -0.1746 -0.1329
 6653W        W 6853   5.499   3.027  14.362 -0.1710  0.0727 -0.0655
 6654W        W 6854   7.878   4.087   9.560 -0.0755  0.1057  0.2141
 6655W        W 6855   5.775   9.791   5.588  0.0315 -0.1148 -0.0076
 6656W        W 6856  15.039  12.972   9.893 -0.1993  0.1056 -0.1262
 6657W        W 6857   4.738   4.484   3.217  0.2546  0.4378  0.1753
 6658W        W 6858   2.606   4.332  12.224 -0.0701  0.1519  0.2130
 6659W        W 6859   2.816   1.971   1.332 -0.1762  0.3730 -0.0327
 6660W        W 6860   4.754   8.504   2.905  0.0186  0.2549 -0.1872
 6661W        W 6861   7.072   8.160   6.774 -0.1415 -0.0110 -0.0659
 6662W        W 6862   2.578   1.216   3.703 -0.0402 -0.2329  0.0513
 6663W        W 6863  14.318   9.427  14.100 -0.3261 -0.1679 -0.1395
 6664W        W 6864   3.594   9.406  14.409 -0.0254 -0.3115 -0.1332
 6665W        W 6865   5.137   5.578   4.995  0.0239 -0.0413 -0.0199
 6666W        W 6866   0.726  11.646  12.552 -0.3148  0.0041 -0.4960
 6667W        W 6867   8.900   1.814   4.394  0.0312 -0.0083  0.2321
 6668W        W 6868   0.605  12.537  13.397  0.0311  0.0805 -0.0265
 6669W        W 6869   5.519  11.744  13.946 -0.0381  0.0124 -0.1573
 6670W        W 6870   2.362  14.283   7.697  0.0039 -0.3062  0.0824
 6671W        W 6871   9.422  14.128   3.510  0.1793  0.2480  0.3448
 6672W        W 6872   5.822  10.474  12.138  0.0898  0.0651  0.0910
 6673W        W 6873   1.902  11.336   2.126 -0.0027  0.0821  0.1847
 6674W        W 6874   4.006  14.493   3.696  0.0097  0.0076  0.0503
 6675W        W 6875  13.105   3.091  10.690  0.0261  0.2245  0.2378
 6676W        W 6876   3.128   0.757   0.997  0.1660  0.4052 -0.1925
 6677W        W 6877   8.734  10.845   4.412 -0.1297 -0.1331 -0.1616
 6678W        W 6878   4.209   9.971  12.754 -0.1380  0.2211 -0.1365
 6679W        W 6879   8.471  15.122   6.109 -0.2013 -0.0170  0.0524
 6680W        W 6880   0.382   9.901   9.298 -0.0996 -0.4668  0.1772
 6681W        W 6881   0.515   8.214  10.289  0.0639 -0.0011 -0.1787
 6682W        W 6882   7.709  12.382  10.977  0.2871  0.0448  0.0033
 6683W        W 6883   3.148   1.668  10.130  0.2910 -0.2549 -0.1302
 6684W        W 6884   5.415  10.789  14.381  0.0194 -0.3686  0.1222
 6685W        W 6885   1.557  12.214   7.957 -0.0200 -0.0798  0.2157
 6686W        W 6886   7.959  12.929   0.272  0.3143  0.0551  0.0373
 6687W        W 6887   8.913   6.847  11.627 -0.1214  0.0115 -0.1086
 6688W        W 6888   3.492  11.108  12.211  0.3033  0.0995 -0.0213
 6689W        W 6889   9.130   3.559   1.858 -0.3335  0.0342  0.1342
 6690W        W 6890  14.837  10.128   4.819 -0.1326  0.0605  0.1383
 6691W        W 6891   0.224   7.606   3.808  0.2195 -0.2668 -0.4272
 6692W        W 6892  13.963  10.907   5.572  0.1594 -0.2233  0.0580
 6693W        W 6893   9.312   9.750  13.295 -0.0482  0.0453  0.1812
 6694W        W 6894  11.114   5.736  11.887 -0.1849  0.2830  0.0114
 6695W        W 6895  12.221  13.511   4.441  0.1550 -0.0226  0.1496
 6696W        W 6896   6.688  13.409   8.566 -0.3376 -0.0405 -0.1816
 6697W        W 6897   5.582   0.695  12.744 -0.1641  0.2276  0.0220
 6698W        W 6898   3.000  13.749  13.217 -0.2330 -0.3896  0.1204
 6699W        W 6899   2.635   9.386   8.413 -0.0495 -0.2743  0.2193
 6700W        W 6900   2.809   0.760   8.672 -0.1213 -0.0398  0.1363
 6701W        W 6901   1.038  12.860   7.681  0.0145 -0.1185 -0.0768
 6702W        W 6902   2.161   1.288   2.107  0.2665 -0.5095 -0.0735
 6703W        W 6903   8.123   0.480   7.480 -0.1267 -0.1430  0.0215
 6704W        W 6904   5.350   7.777  13.856 -0.0347 -0.1206  0.0988
 6705W        W 6905  14.186   6.360   3.691 -0.0617 -0.1406 -0.3473
 6706W        W 6906  11.678  11.402   3.017 -0.3480 -0.0886 -0.0292
 6707W        W 6907   3.986   6.394   6.986  0.2213  0.1485 -0.0128
 6708W        W 6908  13.120  11.666   6.936 -0.1129 -0.2739  0.0348
 6709W        W 6909  14.321   8.222  14.000  0.0535  0.0216  0.0606
 6710W        W 6910   4.165  14.872   8.456 -0.3010  0.0521 -0.1241
 6711W        W 6911  14.335  12.761   7.851  0.0789 -0.1865  0.0506
 6712W        W 6912   9.290  13.798   7.968 -0.0126  0.0565  0.2285
 6713W        W 6913   0.312   5.446   9.450  0.1087 -0.1281 -0.4406
 6714W        W 6914   4.513   1.352   1.312 -0.0702  0.3159 -0.0527
 6715W        W 6915  11.768   4.545   4.038  0.1392  0.0483 -0.2911
 6716W        W 6916  13.878   2.333   5.807 -0.2495  0.0429  0.0792
 6717W        W 6917   6.682   1.461  12.785 -0.2730 -0.4071  0.1838
 6718W        W 6918   0.828  12.605   4.961 -0.3920 -0.1718  0.4593
 6719W        W 6919   3.008   0.467   4.007  0.1006 -0.0475  0.3680
 6720W        W 6920  12.193  12.487  11.911  0.1003 -0.0990 -0.2626
 6721W        W 6921  10.174   0.671   5.960  0.1890 -0.0418 -0.1767
 6722W        W 6922  13.141   2.197   4.341 -0.0268  0.1002 -0.1865
 6723W        W 6923  10.786  14.422   0.352 -0.1920  0.1668 -0.1348
 6724W        W 6924   6.817   3.647   7.150 -0.0770  0.1622 -0.0597
 6725W        W 6925  10.394   0.587   5.493  0.0561  0.3122  0.0852
 6726W        W 6926  13.107  15.081  10.515  0.2438  0.0497 -0.1759
 6727W        W 6927   9.080   5.121  14.974  0.1692 -0.1079  0.1549
 6728W        W 6928   5.587   9.627  10.186  0.1969  0.2033 -0.0041
 6729W        W 6929   3.447  15.083  14.267  0.0966  0.2292 -0.1173
 6730W        W 6930   2.413   8.823   5.617  0.0901 -0.1831  0.0910
 6731W        W 6931   4.642   0.389  12.069 -0.4892 -0.1381  0.1887
 6732W        W 6932   8.221  13.063   2.560 -0.2366  0.0774  0.1633
 6733W        W 6933   1.865   2.308  14.798 -0.2468 -0.1593 -0.2788
 6734W        W 6934  13.355  12.619   8.655  0.1400 -0.0761  0.3144
 6735W        W 6935   6.981   1.025  11.032  0.1101 -0.2646  0.0690
 6736W        W 6936   5.408  14.480   0.863 -0.1892  0.1316 -0.1980
 6737W        W 6937  13.709  13.219  12.123 -0.1183  0.0492  0.1838
 6738W        W 6938  13.134   6.186   9.507  0.1090  0.0921  0.2433
 6739W        W 6939   0.870  12.501  14.311 -0.1253 -0.1128 -0.1611
 6740W        W 6940   4.082  15.025   9.981 -0.3170  0.1051 -0.2253
 6741W        W 6941   1.465  13.597   3.917  0.1563 -0.1549  0.3994
 6742W        W 6942   7.515  12.609  14.271  0.1156 -0.0884  0.0076
 6743W        W 6943  13.373  14.469   4.433  0.0726 -0.2878  0.0205
 6744W        W 6944  13.554  10.463  13.257  0.3557 -0.0637 -0.0798
 6745W        W 6945   3.282  14.764   1.607  0.6581  0.0387 -0.2357
 6746W        W 6946   8.676  11.796   5.452  0.0106  0.0102  0.3161
 6747W        W 6947   4.535  11.064   1.386  0.0725  0.1521 -0.4043
 6748W        W 6948  14.732   8.416  14.675  0.1929  0.3979 -0.0109
 6749W        W 6949  11.728   8.723  10.383 -0.3724  0.2328 -0.2077
 6750W        W 6950   0.103   3.587   3.346 -0.1227  0.0038  0.3135
 6751W        W 6951  14.685   3.381  10.574  0.0338 -0.2341 -0.1014
 6752W        W 6952  13.767  13.246  12.931 -0.3607  0.2358  0.1811
 6753W        W 6953   6.599   8.470   1.166  0.0006 -0.0085  0.1887
 6754W        W 6954   5.945   6.806   2.902  0.0278 -0.0820  0.0123
 6755W        W 6955  12.406   3.881   3.529 -0.3513  0.0055 -0.2270
 6756W        W 6956  13.159   3.597  13.343 -0.1388  0.0246  0.1541
 6757W        W 6957   9.896   7.545   5.147  0.2041 -0.3637  0.1773
 6758W        W 6958   5.002   5.225   9.084  0.1424  0.0616  0.2604
 6759W        W 6959   3.051  14.817  14.076  0.1483 -0.0754 -0.1918
 6760W        W 6960  12.025   8.412   2.019  0.0316 -0.2124 -0.1016
 6761W        W 6961  14.177   5.533  11.671 -0.0193 -0.1697 -0.0812
 6762W        W 6962  14.324   6.348  15.107  0.0016  0.1669  0.1773
 6763W        W 6963   5.488  13.614   3.535 -0.0127 -0.0709  0.1100
 6764W        W 6964   5.377   2.057   9.344  0.1649  0.0650  0.3328
 6765W        W 6965   0.986   9.872   1.167 -0.1421  0.3357  0.2288
 6766W        W 6966   4.228   2.082   0.160 -0.0159  0.0944  0.0187
 6767W        W 6967  11.837  13.803  10.089  0.1885  0.1895  0.1072
 6768W        W 6968   1.086  12.455   0.009 -0.1806  0.2814  0.0198
 6769W        W 6969   2.825   4.533  10.299 -0.0202  0.1177 -0.0001
 6770W        W 6970   3.628   2.630  14.666  0.0273 -0.0957  0.0302
 6771W        W 6971   6.208   7.267   1.900  0.0781 -0.1828  0.0655
 6772W        W 6972   8.449  11.558   5.794 -0.0562 -0.1122 -0.1030
 6773W        W 6973  13.070  11.143   1.205 -0.0956  0.3546  0.1368
 6774W        W 6974  13.385   7.903   6.288  0.0722 -0.1656  0.0296
 6775W        W 6975   0.313   5.266  13.979 -0.0529  0.0619  0.0390
 6776W        W 6976   3.457   6.039   9.466  0.1567  0.0436  0.0832
 6777W        W 6977  14.547  12.017   1.555 -0.1764  0.0602 -0.1532
 6778W        W 6978   3.276  11.307  15.095 -0.1191 -0.2348 -0.3965
 6779W        W 6979   8.561   9.380   4.066 -0.1171  0.0317 -0.1803
 6780W        W 6980   8.715  10.938   0.173  0.0800  0.1102 -0.0757
 6781W        W 6981  14.670  10.414   0.485  0.3642  0.1961  0.0152
 6782W        W 6982  13.964   3.376   6.886  0.0676 -0.0656  0.2992
 6783W        W 6983   0.371  14.809   7.508 -0.1341  0.3054 -0.0987
 6784W        W 6984  14.514  12.744   0.453 -0.1497  0.3380  0.1474
 6785W        W 6985  12.538   2.138  10.863  0.3632 -0.2787 -0.1249
 6786W        W 6986   5.601  11.213   4.847 -0.1459  0.3824  0.1456
 6787W        W 6987  12.156   9.923   5.079 -0.1010  0.1144  0.1402
 6788W        W 6988   0.617  14.717   2.413 -0.2579  0.0420  0.0922
 6789W        W 6989   1.604  13.185  10.772  0.1415 -0.1257 -0.1131
 6790W        W 6990   5.901   1.512   9.046 -0.2562  0.0381 -0.3903
 6791W        W 6991   4.543  14.848   5.493  0.0660  0.0076 -0.1875
 6792W        W 6992   4.997   6.156  14.524  0.0517 -0.0266  0.0273
 6793W        W 6993   2.729  12.853   4.037 -0.1889  0.1642  0.1753
 6794W        W 6994  14.777  10.639  10.323  0.0879  0.1357  0.0936
 6795W        W 6995   4.937  15.171  14.152  0.2967  0.0768  0.0951
 6796W        W 6996  10.005  12.618  13.275  0.1784 -0.2380 -0.2629
 6797W        W 6997   9.008  10.130   0.287  0.1827  0.4021  0.1159
 6798W        W 6998   0.786  11.743   1.568 -0.4833  0.3805  0.0825
 6799W        W 6999   8.023  14.420  11.211 -0.0866  0.1690 -0.0296
 6800W        W 7000   7.975  11.838   5.006 -0.1132 -0.0066  0.0515
 6801W        W 7001  11.820   6.110  13.397 -0.1854 -0.1732 -0.3325
 6802W        W 7002  11.500   0.697   9.130 -0.0072 -0.1491  0.1020
 6803W        W 7003   1.100  11.311   3.654  0.0440 -0.0149  0.1962
 6804W        W 7004   0.620   3.896  10.044  0.1227 -0.1013 -0.2469
 6805W        W 7005  13.866   0.094   4.451  0.1283 -0.1240 -0.1816
 6806W        W 7006   3.943   7.304   8.779  0.3160  0.0280  0.0878
 6807W        W 7007   7.329   2.213   1.386  0.0577  0.2640 -0.1065
 6808W        W 7008   0.627   3.040   1.397  0.1422 -0.2014 -0.0785
 6809W        W 7009  10.061   9.547   1.007  0.1658  0.2508  0.2380
 6810W        W 7010  14.474   5.327   2.224  0.1695  0.4162  0.1461
 6811W        W 7011  10.096   0.562  13.709  0.0304 -0.0438 -0.0394
 6812W        W 7012  11.737  10.122   2.272  0.2341 -0.2529  0.0033
 6813W        W 7013  11.212   1.649   0.397  0.1815 -0.1738  0.0726
 6814W        W 7014   3.201   2.276   9.162 -0.2207 -0.0708 -0.0503
 6815W        W 7015  12.564   9.048  14.624 -0.0712  0.0995  0.3222
 6816W        W 7016  12.019   7.102  14.373  0.0643  0.1545 -0.0859
 6817W        W 7017   2.925   0.360  14.487 -0.2834  0.0784 -0.2874
 6818W        W 7018   8.960  10.880   1.513  0.1067 -0.0997 -0.1966
 6819W        W 7019   7.969   5.810  11.436  0.0031  0.1820  0.1166
 6820W        W 7020   0.221   5.449   8.931  0.1225 -0.3458 -0.1225
 6821W        W 7021   8.691   9.836   8.449 -0.4288 -0.3059 -0.0226
 6822W        W 7022   1.909  14.078   2.816  0.0758  0.1114  0.1688
 6823W        W 7023   6.605  11.617   7.272  0.2854  0.0735  0.2214
 6824W        W 7024   1.463   1.923  10.817  0.2697  0.0830  0.1760
 6825W        W 7025   2.457  12.539   7.073 -0.0953 -0.0087  0.2809
 6826W        W 7026   0.912   0.796  11.287  0.3266  0.3012  0.2771
 6827W        W 7027  14.184  11.303   5.870 -0.2005  0.0989 -0.0404
 6828W        W 7028   2.685   7.894   5.556  0.0850  0.1216 -0.0305
 6829W        W 7029   0.974  12.870   5.825  0.0606 -0.0524 -0.0386
 6830W        W 7030   3.926   4.577   8.166 -0.5901  0.2036 -0.0057
 6831W        W 7031   1.170   1.741   8.535 -0.2369 -0.3262  0.2535
 6832W        W 7032   1.008  14.577   8.949 -0.1990 -0.0989 -0.2085
 6833W        W 7033  14.879   0.051   9.015 -0.0033 -0.2457 -0.2815
 6834W        W 7034   6.771   5.760   7.785 -0.1095 -0.0659  0.1966
 6835W        W 7035  12.707   8.337   1.769 -0.0980 -0.0683  0.1005
 6836W        W 7036  11.115   5.228   6.108  0.0346  0.3938  0.1375
 6837W        W 7037   5.036   0.002   7.434 -0.1124 -0.1906  0.0347
 6838W        W 7038   9.344   1.599  13.858 -0.0885 -0.0914  0.0960
 6839W        W 7039   4.481  12.266   3.986 -0.3437 -0.1044  0.1458
 6840W        W 7040  10.384   2.304  13.815  0.2399 -0.4378  0.0923
 6841W        W 7041  13.093   4.363   3.535 -0.0898  0.1652  0.0745
 6842W        W 7042   4.393  12.094   0.057 -0.0609 -0.0960  0.1733
 6843W        W 7043  10.051   1.668   6.072  0.0775 -0.2499  0.0813
 6844W        W 7044   3.646   1.442   4.653  0.1359  0.0056 -0.0868
 6845W        W 7045  15.110  14.979  14.634 -0.2323 -0.1380  0.2168
 6846W        W 7046   7.833   1.503   3.369 -0.0950  0.3401  0.0952
 6847W        W 7047   7.078   0.122   6.540 -0.1293  0.0914 -0.2492
 6848W        W 7048   4.798  11.035   3.208  0.1839  0.2296 -0.0452
 6849W        W 7049   0.832   1.383   3.860  0.0166 -0.1731 -0.0664
 6850W        W 7050   3.358  14.183  12.130 -0.0076 -0.0525  0.1472
 6851W        W 7051   6.977   0.599   3.879 -0.1754  0.0689 -0.1386
 6852W        W 7052   0.882   9.278   8.766  0.0852  0.0979  0.0313
 6853W        W 7053   2.821   1.689   5.146  0.0585  0.1799  0.0891
 6854W        W 7054   9.186  12.426   1.916  0.2113  0.1569 -0.1315
 6855W        W 7055  11.556   9.489   7.673 -0.1256 -0.0596 -0.0906
 6856W        W 7056  12.335   1.501   8.628 -0.4189  0.1378 -0.1864
 6857W        W 7057   7.148  10.473   9.472 -0.1316  0.0467  0.1604
 6858W        W 7058   7.109   1.824   8.123  0.1585 -0.0770 -0.0068
 6859W        W 7059   8.162   6.780   3.325  0.1018 -0.0726  0.1247
 6860W        W 7060   2.622   5.500   4.704  0.0936 -0.3348 -0.1879
 6861W        W 7061   0.758   3.314   6.737  0.1051  0.0442 -0.1889
 6862W        W 7062   0.081  10.616   2.149  0.0288 -0.0843 -0.3495
 6863W        W 7063  14.450   1.067   5.979 -0.1465  0.0789 -0.3840
 6864W        W 7064   5.290   9.948  11.593 -0.0571 -0.3199 -0.0235
 6865W        W 7065  14.876  12.132  13.054  0.4335 -0.2325 -0.1133
 6866W        W 7066  14.180  12.681   8.653  0.1698 -0.1589  0.1408
 6867W        W 7067   9.455   4.041   1.820  0.1770  0.5552  0.0696
 6868W        W 7068   9.141   1.802   3.112 -0.4325 -0.1034  0.0766
 6869W        W 7069   7.865   5.074   8.638 -0.1167 -0.2413 -0.2294
 6870W        W 7070  14.883   4.863  11.128 -0.2273  0.1221  0.1207
 6871W        W 7071   0.026  10.504   6.493  0.4140  0.0428  0.0427
 6872W        W 7072   8.092  14.180  11.784 -0.0272  0.2411  0.1372
 6873W        W 7073  13.039   1.187   7.702 -0.0478 -0.0174 -0.1972
 6874W        W 7074   2.164   2.730   1.766 -0.2173 -0.3374 -0.1220
 6875W        W 7075   3.103   1.665   8.819 -0.2390  0.1618  0.0814
 6876W        W 7076   3.711  14.788   5.974  0.0393  0.0732 -0.0039
 6877W        W 7077  13.540  13.947   1.159  0.0267 -0.1745 -0.2071
 6878W        W 7078   4.348   1.662   5.477 -0.1843  0.0856  0.3242
 6879W        W 7079   0.894   6.018   6.393  0.3062  0.0477 -0.0634
 6880W        W 7080   8.245  12.981   3.711 -0.0792 -0.3402 -0.0141
 6881W        W 7081   5.993   0.872   7.094  0.2488  0.1634  0.2045
 6882W        W 7082   2.221  10.167   8.789 -0.1325 -0.1074 -0.1839
 6883W        W 7083   6.548   3.342   6.876  0.2088  0.1147  0.2355
 6884W        W 7084   1.008  14.345   1.674 -0.3539 -0.4488 -0.1583
 6885W        W 7085   4.885  11.390   1.120  0.0120 -0.0463 -0.1810
 6886W        W 7086   4.642  11.356  11.067 -0.0073  0.4315  0.1999
 6887W        W 7087  14.806   1.328   6.312  0.1279  0.1788  0.1440
 6888W        W 7088  14.455   0.599   8.275 -0.2451  0.1536 -0.1748
 6889W        W 7089  14.991   5.360   7.996  0.0751 -0.0141  0.1807
 6890W        W 7090  14.898   2.368   3.789 -0.1977  0.0773  0.0508
 6891W        W 7091   0.471   1.228   9.265 -0.2030 -0.1304  0.0994
 6892W        W 7092   8.984   9.688   7.081 -0.0775 -0.2096  0.3629
 6893W        W 7093   0.355   6.032  11.372 -0.0840  0.0816  0.0199
 6894W        W 7094  14.325   2.704  13.285  0.2129 -0.1159 -0.2006
 6895W        W 7095   1.986  15.062  13.996 -0.1076 -0.1242 -0.2291
 6896W        W 7096   9.361   3.181   3.818 -0.2654 -0.2415 -0.1782
 6897W        W 7097  11.464   2.842   5.296 -0.1590  0.3077  0.0877
 6898W        W 7098   0.992   5.831  10.058 -0.0749  0.0800 -0.3793
 6899W        W 7099   1.937   9.202  11.178 -0.1612 -0.1439  0.0225
 6900W        W 7100   4.412   1.101   2.309 -0.0418  0.1043  0.1673
 6901W        W 7101   7.417   6.263  10.340  0.2737 -0.0923 -0.0565
 6902W        W 7102   1.166  14.949   0.003 -0.0460  0.0535 -0.3617
 6903W        W 7103  14.250  10.678  13.514 -0.1842  0.1595 -0.2288
 6904W        W 7104   6.623   1.945   1.795  0.0824  0.0568 -0.0331
 6905W        W 7105  10.010   4.422  10.583 -0.1853 -0.0871  0.0121
 6906W        W 7106  13.273  15.134   5.884  0.2240 -0.0698 -0.0765
 6907W        W 7107   3.540  14.675   3.746  0.1931  0.2495  0.0693
 6908W        W 7108  14.163   1.673   3.132  0.0361  0.0247  0.0263
 6909W        W 7109   1.055  11.774   2.449  0.2876  0.1378  0.0949
 6910W        W 7110   0.193  12.370   1.623  0.1227  0.1355 -0.2028
 6911W        W 7111   7.420   4.574   8.204 -0.3703  0.0549 -0.2671
 6912W        W 7112   0.625   4.190   1.471  0.2009 -0.2923  0.2405
 6913W        W 7113   8.302   8.255   9.071 -0.0655  0.1785  0.1190
 6914W        W 7114   2.121   0.485   4.429 -0.2684 -0.1778  0.1019
 6915W        W 7115  13.293   1.990   7.508 -0.1406  0.1051  0.4532
 6916W        W 7116   8.547   0.938   3.224 -0.1779 -0.1755  0.2531
 6917W        W 7117   1.698  13.093   3.182 -0.1747  0.0204  0.0758
 6918W        W 7118  14.803  10.779   2.976  0.0248 -0.2869 -0.0372
 6919W        W 7119   3.299   8.425   1.489  0.1479  0.2894  0.5407
 6920W        W 7120   1.068   4.577   9.502 -0.3214 -0.3087  0.0103
 6921W        W 7121  10.159  12.488  11.583  0.0118  0.2991  0.0944
 6922W        W 7122   2.890   7.199  14.634 -0.4249 -0.3079 -0.0115
 6923W        W 7123  11.553   4.790  14.659  0.0201  0.3433 -0.0311
 6924W        W 7124   3.898  12.392   2.119 -0.1020  0.1163  0.0005
 6925W        W 7125  13.881   7.655   2.879  0.1676 -0.0214 -0.0695
 6926W        W 7126   2.840  15.191  11.836  0.0481  0.3774 -0.3434
 6927W        W 7127  12.925   0.929  14.568  0.0425  0.2525 -0.0625
 6928W        W 7128   7.369   2.249   5.258 -0.0738  0.3326  0.0469
 6929W        W 7129   6.066   4.162   9.507 -0.0542 -0.2425  0.0718
 6930W        W 7130  13.220   1.165  11.709 -0.0542  0.3155 -0.0996
 6931W        W 7131  14.368  14.566   2.491 -0.2549  0.0212 -0.0336
 6932W        W 7132  14.560  11.890   9.327 -0.1249 -0.0845  0.1008
 6933W        W 7133   7.572   7.326  11.559  0.1400  0.2715 -0.0259
 6934W        W 7134   6.197   3.226  13.717  0.1059  0.0342  0.1218
 6935W        W 7135   1.996   4.356   8.615 -0.1559  0.3132 -0.1263
 6936W        W 7136   4.623  10.049   7.949 -0.3306  0.0586 -0.1033
 6937W        W 7137  12.472   1.525   3.880  0.0083  0.0391  0.1262
 6938W        W 7138   0.862   3.993   9.128 -0.0124  0.2218  0.1231
 6939W        W 7139  10.229   3.433  12.118  0.0739  0.4346 -0.3928
 6940W        W 7140   7.779   9.848  10.244 -0.1208  0.3651  0.1447
 6941W        W 7141   2.574   2.973   4.278 -0.1091  0.1149 -0.2213
 6942W        W 7142   4.367   0.614   6.996 -0.1652 -0.0688 -0.0780
 6943W        W 7143   4.158   1.177   9.091  0.0284  0.1481  0.0214
 6944W        W 7144   5.041  12.782   5.862 -0.1122 -0.1397 -0.1325
 6945W        W 7145  12.266   4.128  13.457 -0.2308 -0.4879  0.0858
 6946W        W 7146   8.207  12.290   1.798 -0.1663  0.1146  0.0923
 6947W        W 7147  12.932   0.534   0.820  0.1017  0.0048 -0.1717
 6948W        W 7148   2.369   7.487  13.586 -0.0910 -0.0015  0.3653
 6949W        W 7149   6.549   2.286   4.761  0.0159  0.0778 -0.0015
 6950W        W 7150   2.663  11.764  10.904 -0.1826  0.1505 -0.3939
 6951W        W 7151   9.484   8.803   2.592 -0.0194 -0.1553  0.1209
 6952W        W 7152   0.301   0.532  13.852  0.1412  0.0594  0.0174
 6953W        W 7153   2.511  13.222  11.036 -0.2058  0.2669  0.0029
 6954W        W 7154   5.608  10.929   8.023  0.3972 -0.1203  0.1321
 6955W        W 7155  11.124   4.589  13.870 -0.0875 -0.4177 -0.0646
 6956W        W 7156  13.202   2.896   7.238 -0.3354  0.0565  0.1106
 6957W        W 7157   0.634   6.573   7.717 -0.2032  0.0680  0.2801
 6958W        W 7158   6.780  10.270  12.442  0.0189 -0.1005  0.0413
 6959W        W 7159   2.185  15.080   7.157  0.2610  0.1056 -0.0519
 6960W        W 7160   6.951   2.108  12.763  0.0399 -0.1156  0.1708
 6961W        W 7161  13.231   2.485   4.911 -0.2346  0.0382 -0.0252
 6962W        W 7162   3.165   0.204  12.167 -0.0330 -0.2167 -0.1101
 6963W        W 7163   6.916  10.133  10.080  0.1847  0.1089  0.3108
 6964W        W 7164   2.201  13.362   6.852  0.1358  0.1116  0.1462
 6965W        W 7165   5.455   1.075   8.979  0.0479  0.0807 -0.3272
 6966W        W 7166   3.066  11.783  12.924  0.1318  0.2568 -0.1759
 6967W        W 7167   8.470  14.625  11.558 -0.2343 -0.0500  0.0962
 6968W        W 7168   8.314   5.304   6.224  0.0272  0.0898 -0.2292
 6969W        W 7169   1.913   7.164  12.852 -0.0606  0.2594 -0.0339
 6970W        W 7170   5.203  13.652   4.990 -0.0487  0.1182  0.0456
 6971W        W 7171   4.624  13.413   8.205 -0.0213  0.1044 -0.1752
 6972W        W 7172   9.318   3.022   5.921 -0.0881  0.2035 -0.1416
 6973W        W 7173   0.448   1.649   7.450 -0.1485 -0.0015  0.2409
 6974W        W 7174  12.977   9.876   7.260 -0.4180  0.0307  0.1144
 6975W        W 7175   1.343  13.861  11.395 -0.1067 -0.4420 -0.0463
 6976W        W 7176   2.691   6.007   8.027  0.0993  0.3478 -0.1394
 6977W        W 7177  13.148  13.936   6.198 -0.0625 -0.1282  0.0957
 6978W        W 7178  13.093   1.655  14.144  0.0109  0.2677  0.0783
 6979W        W 7179   1.140  12.281   3.905 -0.0417 -0.2768 -0.0171
 6980W        W 7180  11.580   2.688   0.378 -0.1982 -0.0632 -0.1094
 6981W        W 7181   4.467   5.767  14.336 -0.2533  0.0268 -0.1104
 6982W        W 7182   2.373   3.366  13.908  0.2815 -0.0657 -0.1283
 6983W        W 7183   3.015  12.532   5.476 -0.0095  0.1579 -0.0443
 6984W        W 7184  14.425   9.403  14.886  0.1561 -0.3914 -0.0023
 6985W        W 7185   0.337  13.347   8.220  0.1035 -0.3837 -0.0066
 6986W        W 7186  14.603   3.691   2.132 -0.0238 -0.0699  0.1041
 6987W        W 7187   1.162   1.001   4.384  0.1783  0.1175 -0.0425
 6988W        W 7188  11.934   1.818   0.769 -0.0012  0.2652  0.0690
 6989W        W 7189   9.445   1.026  13.793  0.1087 -0.1250 -0.1986
 6990W        W 7190   4.080   0.711   7.418 -0.1432 -0.2082  0.0714
 6991W        W 7191   0.018  10.366   7.608  0.2033 -0.2488  0.1165
 6992W        W 7192   0.638   6.302  12.899  0.1793 -0.0061  0.0691
 6993W        W 7193   1.222   3.858   8.785 -0.1634 -0.2005 -0.0790
 6994W        W 7194   4.049   6.566   0.106  0.1100  0.0937 -0.0807
 6995W        W 7195  10.675   7.151   6.637  0.1118  0.0052  0.0869
 6996W        W 7196  13.584   3.248   3.215  0.2169  0.0356  0.2826
 6997W        W 7197   1.475   0.211  12.341  0.2043 -0.1716  0.2983
 6998W        W 7198   7.246   0.372   1.369  0.2295 -0.0610  0.0528
 6999W        W 7199  10.231   2.480   0.911  0.3761  0.0332 -0.0216
 7000W        W 7200   3.624  10.291   2.062 -0.0145 -0.0588  0.1140
 7001W        W 7201   1.335   5.137   3.790  0.1016  0.1647 -0.0885
 7002W        W 7202   0.552   3.611   6.228 -0.0798  0.2965  0.0482
 7003W        W 7203   6.313   4.751   3.841 -0.1320  0.0673  0.1127
 7004W        W 7204   8.889   1.631  15.099 -0.0121  0.0706 -0.1026
 7005W        W 7205   3.801   6.071   7.379  0.1815  0.2669 -0.1028
 7006W        W 7206  13.012   2.285  14.472 -0.2466  0.1874 -0.0558
 7007W        W 7207   5.919   2.142   4.718 -0.1924 -0.2033 -0.0988
 7008W        W 7208  10.144   8.804  12.434 -0.0538 -0.1531  0.0216
 7009W        W 7209  12.061  14.618  13.913 -0.0871 -0.2341 -0.0369
 7010W        W 7210   1.616   3.540   1.296 -0.3972 -0.1637 -0.0019
 7011W        W 7211   0.433   5.076   8.618  0.2845  0.3381  0.1812
 7012W        W 7212   2.436   7.956  11.580 -0.1917  0.1106  0.1199
 7013W        W 7213   8.091   1.647  10.366 -0.1046 -0.2492 -0.0290
 7014W        W 7214   7.369   9.494  14.376  0.0774  0.0050  0.2409
 7015W        W 7215  13.928   5.148  12.551 -0.1322 -0.0918  0.1751
 7016W        W 7216   5.928  12.505   6.518 -0.1635 -0.1983 -0.0624
 7017W        W 7217   4.526   3.208   3.845  0.1523 -0.3743  0.0700
 7018W        W 7218   5.080   4.608   4.255 -0.0050  0.3073 -0.2279
 7019W        W 7219   0.496   9.925   1.224  0.0468  0.0588  0.0682
 7020W        W 7220   4.154   2.058   1.811  0.1493 -0.1103 -0.2799
 7021W        W 7221   3.757   2.992   8.450 -0.0008 -0.0078 -0.0700
 7022W        W 7222   3.369   4.330  10.389 -0.1763 -0.1451  0.4020
 7023W        W 7223   6.557   6.356   4.964  0.1776 -0.1044  0.1190
 7024W        W 7224   2.688   0.267   1.939  0.0857  0.2478  0.3882
 7025W        W 7225  11.275   3.057   7.117 -0.0633  0.1873 -0.1191
 7026W        W 7226  12.830   0.596  14.064  0.1456 -0.1823  0.0330
 7027W        W 7227   7.463  10.700   3.230 -0.0914 -0.2372  0.5663
 7028W        W 7228   3.707  14.649  10.861  0.1989 -0.2887  0.4644
 7029W        W 7229   3.023   7.488   3.891  0.2961 -0.2886  0.0334
 7030W        W 7230   8.357   2.713   0.998  0.4594  0.0152 -0.0203
 7031W        W 7231   5.878   6.360   1.933 -0.3985  0.0910  0.1732
 7032W        W 7232  10.897  14.292   8.090  0.2628 -0.2189 -0.0689
 7033W        W 7233   1.947  11.233  10.761 -0.1396 -0.1425  0.2284
 7034W        W 7234   5.764   5.561   4.946 -0.1279 -0.1008  0.2007
 7035W        W 7235  11.019   1.039  11.323 -0.3179 -0.1564 -0.1389
 7036W        W 7236  15.068  10.211   8.055  0.0254 -0.2387  0.3901
 7037W        W 7237   5.005   1.900   2.238 -0.1762 -0.2450 -0.1765
 7038W        W 7238   4.448  10.807  10.053  0.1896  0.1308  0.2440
 7039W        W 7239   6.011  15.109   9.811 -0.1034 -0.1094  0.3606
 7040W        W 7240   0.453   1.422  13.605 -0.0249 -0.1797  0.0235
 7041W        W 7241   8.093   1.831   3.103 -0.0058 -0.2735  0.0306
 7042W        W 7242   4.489  14.684   5.052  0.2711 -0.1044 -0.1123
 7043W        W 7243  11.052  11.624  11.348  0.4869 -0.0567 -0.2118
 7044W        W 7244   8.786  11.369   8.566  0.0363  0.1645 -0.0467
 7045W        W 7245  10.067  12.708   9.126  0.2636 -0.0751 -0.1031
 7046W        W 7246   5.792  11.063   6.346 -0.0235 -0.2597  0.1675
 7047W        W 7247   4.321   1.746  12.192 -0.3318 -0.1872  0.0496
 7048W        W 7248   1.622   3.981   0.130 -0.0769 -0.0412  0.1077
 7049W        W 7249   8.077   5.523   1.068  0.0844 -0.2733 -0.2461
 7050W        W 7250  14.310   3.947   0.847 -0.0833  0.0563  0.1222
 7051W        W 7251   6.833   3.625  12.320  0.5634 -0.2010 -0.2334
 7052W        W 7252   3.116  14.160   8.498 -0.2399  0.1102  0.1328
 7053W        W 7253  13.445   8.296   5.967  0.0266 -0.1781  0.4157
 7054W        W 7254  14.468   9.957   0.335 -0.0346  0.0569  0.0839
 7055W        W 7255   0.111   7.398   1.582 -0.0872 -0.2510  0.1267
 7056W        W 7256   0.337   8.987   4.497  0.0590 -0.0379 -0.1843
 7057W        W 7257   9.406   5.358  13.536 -0.1706 -0.1654 -0.0968
 7058W        W 7258   1.468   4.164   7.881 -0.0982  0.0977  0.3216
 7059W        W 7259   8.183  13.446  11.220  0.3116  0.1730 -0.3009
 7060W        W 7260   8.817   3.099  13.478  0.0186 -0.1125 -0.1140
 7061W        W 7261   2.551   0.299  12.318 -0.0268  0.1863  0.3223
 7062W        W 7262  11.728  11.701  12.998  0.1788  0.1412  0.1993
 7063W        W 7263   7.796   1.573  10.828  0.2063 -0.1546 -0.2002
 7064W        W 7264   7.359   5.643  10.564  0.0069  0.0866 -0.0484
 7065W        W 7265   3.425   4.191   4.008 -0.0150  0.0361  0.2882
 7066W        W 7266   9.337  14.174   5.970 -0.1233 -0.1211 -0.1463
 7067W        W 7267   3.966   3.924   1.233 -0.1699 -0.1455  0.1105
 7068W        W 7268  10.180   6.003   7.368 -0.0513  0.0168 -0.1490
 7069W        W 7269   6.532   1.909  12.597 -0.0487 -0.0728  0.0095
 7070W        W 7270  13.597   2.707   9.924 -0.0202  0.2971 -0.0182
 7071W        W 7271   5.426   9.646   3.332  0.0042 -0.0165  0.4134
 7072W        W 7272   3.589  13.335   3.762 -0.0323  0.2082  0.1436
 7073W        W 7273   7.267  14.370  11.790 -0.1018  0.0713  0.3923
 7074W        W 7274   4.445   7.960   8.451 -0.0433 -0.1847 -0.0780
 7075W        W 7275  14.039  11.242   9.889 -0.1997 -0.2250  0.0809
 7076W        W 7276   8.698   8.947   6.070  0.2176 -0.1440 -0.0401
 7077W        W 7277   2.856   3.488   0.695 -0.1418  0.0887  0.5542
 7078W        W 7278   8.459  12.948  14.670 -0.0089 -0.0725  0.1852
 7079W        W 7279   3.163   3.072   6.546 -0.1785  0.1461 -0.1362
 7080W        W 7280  11.377  13.014   5.852  0.0391 -0.0697 -0.0926
 7081W        W 7281   8.423   0.381   1.180 -0.0981  0.2676  0.2253
 7082W        W 7282   6.604   5.703   9.259  0.0065  0.2796  0.0116
 7083W        W 7283  14.077   7.007   9.909  0.2103  0.0641 -0.1737
 7084W        W 7284   8.021  13.935   5.213 -0.0252  0.1029 -0.1996
 7085W        W 7285   3.738  14.775   2.070 -0.2010  0.0144  0.2893
 7086W        W 7286   1.085   3.479  12.369  0.2715  0.0163 -0.0017
 7087W        W 7287   2.176   9.110   1.486  0.3891  0.0199 -0.1066
 7088W        W 7288   8.487   2.017   3.584 -0.0939  0.2285  0.0232
 7089W        W 7289   6.700   7.164   1.148 -0.1601 -0.3663 -0.1504
 7090W        W 7290  12.865  14.326   3.118 -0.1050  0.1958 -0.0386
 7091W        W 7291  10.785  12.746  14.988 -0.0227 -0.1787 -0.4506
 7092W        W 7292   5.562  11.979   2.988  0.3050 -0.0323  0.2840
 7093W        W 7293   0.302   9.312   4.083  0.2992  0.0089 -0.3008
 7094W        W 7294   8.784   1.636   1.908 -0.0382  0.0995  0.1651
 7095W        W 7295  10.339   6.212   1.326 -0.5652  0.2454 -0.1785
 7096W        W 7296  11.875   0.723   1.145 -0.0725 -0.0648  0.0070
 7097W        W 7297   2.527   1.697   7.349 -0.0616  0.2040  0.0558
 7098W        W 7298   7.115  11.868   1.914 -0.0645  0.1109 -0.1643
 7099W        W 7299   4.035   6.084  14.371  0.0164  0.1321  0.1476
 7100W        W 7300  13.714  11.419   1.719 -0.0944  0.0313  0.0452
 7101W        W 7301   5.347  14.824   0.014 -0.2051 -0.2707  0.0973
 7102W        W 7302   8.451   3.458  13.700  0.3932 -0.0996  0.1767
 7103W        W 7303   7.596  12.061   0.398  0.0326  0.0258  0.3129
 7104W        W 7304   4.187   0.792  14.607 -0.0833 -0.3007 -0.1244
 7105W        W 7305  11.355   6.696  10.048 -0.1171 -0.1540  0.2047
 7106W        W 7306   5.392   6.025   1.787  0.0627 -0.2136  0.1335
 7107W        W 7307   5.992  14.835   1.537  0.0588 -0.2555  0.0275
 7108W        W 7308   1.480  12.746   1.008 -0.0067  0.1474 -0.0146
 7109W        W 7309   7.669  13.308  10.128  0.1447  0.2896 -0.0609
 7110W        W 7310   5.402   1.493  14.313 -0.0541  0.0412  0.1435
 7111W        W 7311   8.938   8.511   6.311 -0.1020  0.2881  0.1937
 7112W        W 7312   8.799  13.849  10.184 -0.2716 -0.2171 -0.2448
 7113W        W 7313   7.995  12.958  13.130 -0.1884  0.1388  0.3668
 7114W        W 7314  13.104  14.384   5.358  0.5107 -0.2558 -0.2345
 7115W        W 7315  13.461  14.383   0.035  0.0829 -0.0630  0.4587
 7116W        W 7316   7.786   7.431   7.183 -0.0537  0.1163 -0.1505
 7117W        W 7317   4.937   8.099   0.863 -0.0336  0.3471 -0.0018
 7118W        W 7318   1.819   6.702   1.342  0.2082  0.2070 -0.5967
 7119W        W 7319  10.286  10.777   8.252 -0.1045  0.2793 -0.0906
 7120W        W 7320   1.150   7.338   7.906 -0.1662 -0.2505  0.2413
 7121W        W 7321   6.966   1.442   4.896 -0.0740 -0.0442  0.0475
 7122W        W 7322   8.020   7.049   1.614  0.1009  0.1250 -0.3220
 7123W        W 7323   3.474   6.134   6.308  0.0995 -0.2888  0.2347
 7124W        W 7324   7.649  14.844  14.403 -0.0485  0.3238 -0.1243
 7125W        W 7325   4.744   2.269  14.536  0.4270 -0.0574 -0.1354
 7126W        W 7326   6.436  11.798   4.838 -0.3646  0.1860 -0.0215
 7127W        W 7327   3.405  10.354  11.534  0.2129 -0.0433 -0.2640
 7128W        W 7328  10.907   9.462   3.394  0.0194  0.2634  0.1723
 7129W        W 7329   1.954   3.633   2.720  0.0390  0.0439 -0.1055
 7130W        W 7330   7.897   1.660   0.634 -0.2042 -0.0822  0.1225
 7131W        W 7331   7.763   5.723   3.165 -0.0070  0.1776  0.1960
 7132W        W 7332  13.126  14.423  12.430 -0.1350 -0.4113 -0.1774
 7133W        W 7333   0.632  14.213   7.448 -0.0780  0.1232 -0.1000
 7134W        W 7334  10.575   6.423   2.484 -0.0258 -0.0037 -0.0699
 7135W        W 7335  11.031  14.065   4.415  0.0067 -0.0531  0.0446
 7136W        W 7336   7.742   2.092  14.493 -0.1615  0.0246  0.2831
 7137W        W 7337   5.520   6.456   3.885 -0.0971 -0.1930 -0.1556
 7138W        W 7338   3.499   4.008   3.086 -0.2475 -0.2401 -0.0227
 7139W        W 7339   2.737   4.387  12.811 -0.1913 -0.3244 -0.3588
 7140W        W 7340  10.874   7.826   1.837  0.0169  0.0963 -0.1838
 7141W        W 7341  10.365   3.818   6.570 -0.2843 -0.1618 -0.0203
 7142W        W 7342   1.326  14.642   0.447 -0.2302 -0.1560 -0.2531
 7143W        W 7343  12.739   4.494   7.213  0.2756  0.2511 -0.1891
 7144W        W 7344  10.123   6.895   0.692 -0.1575 -0.2469 -0.2117
 7145W        W 7345  11.871  13.025  14.077 -0.0620 -0.1976 -0.3018
 7146W        W 7346   3.166   9.276   2.521  0.2131  0.0493 -0.3891
 7147W        W 7347  14.952   4.684   6.931  0.2458 -0.0318  0.0182
 7148W        W 7348   8.703  11.559  12.309 -0.2830 -0.0277  0.0369
 7149W        W 7349  12.617   2.569   6.169  0.0051  0.0130 -0.4033
 7150W        W 7350   6.182  14.717  13.432 -0.1733 -0.1425  0.0824
 7151W        W 7351   1.661   6.680   7.899  0.0669 -0.1242 -0.0239
 7152W        W 7352   4.918   7.848  14.048 -0.1847 -0.2275  0.3510
 7153W        W 7353   7.663   3.475  15.041 -0.2693  0.1642  0.0551
 7154W        W 7354   8.275  14.553   1.298  0.1365 -0.0678 -0.1371
 7155W        W 7355   8.933   5.624   4.927 -0.3764 -0.2883 -0.1320
 7156W        W 7356   5.732  13.313   6.376 -0.0578 -0.0901  0.0379
 7157W        W 7357   0.178   2.292   0.385  0.1911 -0.0672 -0.0504
 7158W        W 7358   2.225   7.379   7.772  0.2095  0.1198  0.3878
 7159W        W 7359   5.554   7.359  14.040  0.1807 -0.0288 -0.0959
 7160W        W 7360   8.358   8.870   3.934 -0.1914 -0.0996 -0.0346
 7161W        W 7361   1.278   2.802  11.580 -0.2902 -0.1247  0.0901
 7162W        W 7362   0.938   8.958   2.109  0.2829 -0.0048  0.3032
 7163W        W 7363  14.890   8.101   0.476  0.2660  0.0154  0.0751
 7164W        W 7364   5.060   3.159   4.043 -0.0605  0.0594 -0.0652
 7165W        W 7365   7.302  14.593  12.289 -0.0785  0.2156 -0.2430
 7166W        W 7366   6.627  12.294   0.409 -0.3191 -0.3052 -0.0325
 7167W        W 7367   7.836   4.222  10.863 -0.0907 -0.1263 -0.0308
 7168W        W 7368   9.294  13.738  14.258 -0.0476 -0.1640 -0.0399
 7169W        W 7369   7.810   9.073   0.357 -0.1630 -0.1615 -0.0449
 7170W        W 7370  10.497   9.279  10.370 -0.1612  0.0344  0.0449
 7171W        W 7371   1.399  13.690   5.103  0.2445  0.1168 -0.2661
 7172W        W 7372   6.771  10.963  13.103 -0.2466  0.2387  0.0586
 7173W        W 7373   7.798   1.230   3.866  0.1236 -0.1601  0.0367
 7174W        W 7374   2.507  14.627  13.423  0.0184 -0.0560 -0.1155
 7175W        W 7375  15.116   8.983  12.620  0.1536 -0.1133  0.0071
 7176W        W 7376  11.709  11.737   1.321  0.2100 -0.0853  0.1756
 7177W        W 7377   8.029  14.068   1.491 -0.2318 -0.1526 -0.0804
 7178W        W 7378  11.661   3.777  14.111 -0.1874 -0.1485 -0.1234
 7179W        W 7379   3.316   1.146  13.537 -0.1179 -0.2610  0.2039
 7180W        W 7380  11.175   0.399   9.568 -0.3160  0.0309  0.5217
 7181W        W 7381   9.106   5.325   3.971 -0.1094 -0.0284 -0.1344
 7182W        W 7382   9.238   4.254   4.090  0.1133 -0.0896  0.1725
 7183W        W 7383   2.186   5.303   5.312 -0.0841 -0.0348 -0.0361
 7184W        W 7384   2.707   3.509   7.595 -0.4244 -0.0928  0.2328
 7185W        W 7385  13.250   2.603  10.559 -0.1643 -0.3741  0.3747
 7186W        W 7386   5.490  10.037   5.208 -0.0358 -0.0300  0.1451
 7187W        W 7387   3.632   4.575   7.703  0.2616  0.3959  0.1741
 7188W        W 7388   3.897  14.907  12.088 -0.2170 -0.0633  0.1753
 7189W        W 7389   9.294   9.904   3.122 -0.3481  0.0140 -0.1203
 7190W        W 7390  13.827   3.223  12.189 -0.0439  0.3826 -0.0532
 7191W        W 7391   6.345   0.087  13.691  0.1790  0.1626  0.1856
 7192W        W 7392   6.497   2.149   0.718  0.0345  0.2115 -0.2860
 7193W        W 7393   2.535   7.130   1.960 -0.4207  0.2736  0.1723
 7194W        W 7394   4.756  13.916   0.557  0.0129  0.1080 -0.0168
 7195W        W 7395   5.080   3.185  11.720  0.2573  0.1576  0.2377
 7196W        W 7396   4.670   2.756  10.648  0.1200 -0.0702  0.0048
 7197W        W 7397   3.414   7.442   4.358  0.0573  0.0333 -0.3073
 7198W        W 7398   4.344   7.137   4.612  0.2778  0.2727 -0.2085
 7199W        W 7399  11.415  14.608  11.107 -0.1414 -0.1307 -0.0785
 7200W        W 7400   2.581   5.259   3.850  0.0165 -0.1271 -0.1192
 7201W        W 7401   9.560  13.181   2.262 -0.1135  0.0585 -0.0585
 7202W        W 7402   7.579  11.593   1.897 -0.0449  0.0929 -0.1001
 7203W        W 7403   8.384   6.327   9.252  0.0475 -0.2153 -0.2028
 7204W        W 7404   3.182   5.982   1.201 -0.3603 -0.1418 -0.0065
 7205W        W 7405   5.199   4.000  14.731  0.0589  0.2620  0.0374
 7206W        W 7406   3.174   3.452  14.018 -0.0177 -0.1352 -0.2880
 7207W        W 7407   9.275  14.321   7.057 -0.0083 -0.0409 -0.0491
 7208W        W 7408   8.661  13.626  11.206  0.2583  0.0018 -0.0928
 7209W        W 7409  10.740   5.043   6.413 -0.0870  0.1712  0.1201
 7210W        W 7410   8.316   0.416   5.890 -0.2381  0.1174  0.1013
 7211W        W 7411   8.985   9.746  10.486 -0.2297 -0.0717  0.0187
 7212W        W 7412   0.998   6.102  13.909  0.0739  0.1770  0.1547
 7213W        W 7413   1.017   2.889   3.253  0.0270 -0.1009  0.1481
 7214W        W 7414   6.296   7.266  13.626 -0.0070 -0.0105 -0.2111
 7215W        W 7415   9.713  13.983   1.315 -0.0718  0.1793 -0.0763
 7216W        W 7416  14.930   1.037   5.914 -0.2114 -0.0880  0.0291
 7217W        W 7417   6.256  13.351   1.560  0.1377  0.0211 -0.0801
 7218W        W 7418   7.182  14.907  13.404 -0.4212 -0.1890 -0.1370
 7219W        W 7419   2.017  12.772   3.082 -0.3344 -0.1818  0.0868
 7220W        W 7420   6.967  13.064   8.234 -0.0641  0.0608 -0.0238
 7221W        W 7421   6.749   8.390  14.014  0.0371 -0.0979  0.2063
 7222W        W 7422   3.998   8.251  14.864 -0.0924  0.1463 -0.1752
 7223W        W 7423   7.799  12.658   6.859  0.0567 -0.1066  0.0124
 7224W        W 7424   0.878  10.271   7.219  0.0240  0.0409  0.1563
 7225W        W 7425  13.132   4.582  14.054  0.3097  0.0424  0.0471
 7226W        W 7426   4.106   2.076   9.930 -0.0047  0.1164 -0.0742
 7227W        W 7427  12.619   1.077  14.931  0.1158  0.2018 -0.2110
 7228W        W 7428   5.163  13.631   5.597 -0.2317  0.3283 -0.3001
 7229W        W 7429  13.271   3.121   4.087  0.1620 -0.0458 -0.2876
 7230W        W 7430  11.316   6.861   5.521  0.0410 -0.0628  0.1436
 7231W        W 7431  14.553   5.007   7.899  0.2832 -0.0513 -0.2277
 7232W        W 7432  12.177   4.001   7.708  0.1266  0.0663  0.1525
 7233W        W 7433  11.015   3.556   7.134 -0.2269  0.0821  0.2653
 7234W        W 7434   1.744   4.273   4.418  0.0412  0.0102  0.3342
 7235W        W 7435  14.179   2.114   0.576 -0.0725  0.0779 -0.1606
 7236W        W 7436   4.343   7.432   0.729  0.2446  0.2009  0.0537
 7237W        W 7437  10.603   6.140   5.202  0.1658  0.0879 -0.0747
 7238W        W 7438  14.388  15.072  13.057 -0.1460  0.2023  0.1233
 7239W        W 7439  12.417  12.865   9.374 -0.1588  0.1659 -0.0937
 7240W        W 7440  14.391   9.872   1.974  0.2666  0.1624 -0.0241
 7241W        W 7441   0.753   7.309   2.464  0.1497 -0.0504 -0.0518
 7242W        W 7442   3.031   4.809   0.749  0.0435  0.1220 -0.2345
 7243W        W 7443   9.122   1.555   9.372  0.2004  0.1315  0.1899
 7244W        W 7444  15.147   3.629  14.076  0.1833 -0.0643  0.3093
 7245W        W 7445   8.905   7.752  13.642 -0.3546  0.2056  0.2385
 7246W        W 7446  12.221   8.283   5.171 -0.0824  0.1318  0.1172
 7247W        W 7447   6.131   8.265  11.633  0.0553 -0.0694 -0.2091
 7248W        W 7448   4.970  14.661   2.369 -0.2800 -0.0748 -0.1296
 7249W        W 7449   1.993   7.826   0.411 -0.0014  0.2464  0.1170
 7250W        W 7450   6.397   7.982   4.962  0.1309  0.1483  0.0781
 7251W        W 7451   2.902   3.608   5.966  0.1406  0.3669 -0.2028
 7252W        W 7452   9.070   3.698   2.721 -0.0938 -0.3235  0.4403
 7253W        W 7453   0.108   4.840   0.524  0.1279  0.0083 -0.1890
 7254W        W 7454   8.186   6.040   5.528  0.0030 -0.1637 -0.0674
 7255W        W 7455   2.969  11.616  10.505  0.1035  0.0615  0.1887
 7256W        W 7456   8.698   5.425  13.150 -0.2299  0.0229 -0.1059
 7257W        W 7457   4.573   4.643   6.630  0.3785  0.1058  0.2150
 7258W        W 7458   3.668  12.677   9.443  0.1415 -0.1604  0.3473
 7259W        W 7459   1.447   6.878   5.897  0.2659  0.1282  0.0683
 7260W        W 7460   6.685   1.851   7.795 -0.2037  0.1632  0.1622
 7261W        W 7461   5.006   0.720   2.645  0.0426 -0.1176  0.0519
 7262W        W 7462   0.626   0.572   1.522  0.0529  0.0532 -0.0901
 7263W        W 7463   7.037  13.244  15.094 -0.2549 -0.1954 -0.1093
 7264W        W 7464   6.058  10.814  12.502 -0.2445  0.0576  0.1045
 7265W        W 7465   4.097  13.945  14.047 -0.1065  0.1848 -0.0279
 7266W        W 7466   6.625  11.017   0.112  0.1296 -0.2498 -0.3057
 7267W        W 7467   3.329   3.540  14.832 -0.0589  0.1487  0.3027
 7268W        W 7468   3.789   2.225   1.416 -0.1981  0.0625  0.0524
 7269W        W 7469  14.220   6.605   0.542  0.0555 -0.0677 -0.0113
 7270W        W 7470   4.101   2.061   4.184 -0.1299 -0.1665 -0.0457
 7271W        W 7471   5.525   1.573  10.425 -0.1701 -0.0669  0.0799
 7272W        W 7472   9.977   7.734   0.892  0.0478 -0.0587  0.0102
 7273W        W 7473  12.349   3.212   8.967  0.1645  0.1552 -0.0412
 7274W        W 7474   5.672  13.314   1.442 -0.1806 -0.2128 -0.0306
 7275W        W 7475   4.390  14.787   6.261  0.0949  0.2144 -0.2978
 7276W        W 7476   2.830   3.201   1.124  0.0378  0.2912 -0.2667
 7277W        W 7477   5.213   6.188   2.701  0.1207  0.0219 -0.0728
 7278W        W 7478   7.485  13.337   5.793  0.2724 -0.2256 -0.0102
 7279W        W 7479   3.344  10.051   1.623 -0.0832  0.0930  0.6784
 7280W        W 7480   4.416   6.665  12.545 -0.1592  0.0087 -0.1520
 7281W        W 7481   8.865   0.766   0.115  0.0285 -0.0119  0.0432
 7282W        W 7482  14.708   4.968   1.851 -0.0319  0.0871  0.0622
 7283W        W 7483   4.744  14.449   8.050 -0.1785 -0.0042  0.0288
 7284W        W 7484   8.437   0.564  11.723 -0.0195 -0.2601 -0.0717
 7285W        W 7485  10.854   5.662   0.650 -0.1983 -0.3526 -0.0601
 7286W        W 7486   7.780   4.185   8.175 -0.0072 -0.3101  0.2931
 7287W        W 7487   3.784   6.279   5.442  0.1626 -0.0335 -0.0533
 7288W        W 7488  13.614  15.141   0.673  0.3783  0.0412  0.1402
 7289W        W 7489   5.480  10.191   4.660  0.0009 -0.0268  0.1908
 7290W        W 7490  14.091  13.457   5.264 -0.0809  0.1959 -0.2917
 7291W        W 7491   4.915   6.570   9.078 -0.2686 -0.0561  0.0507
 7292W        W 7492   5.414   3.668   2.475 -0.1900  0.1228  0.1962
 7293W        W 7493   9.901   1.646   3.581  0.0355 -0.0772  0.4232
 7294W        W 7494   9.531   0.289   5.389 -0.2204 -0.1517 -0.0694
 7295W        W 7495   5.252  10.629  12.959 -0.2625  0.2081 -0.0655
 7296W        W 7496   6.431   3.798   6.757 -0.0877 -0.1067  0.0538
 7297W        W 7497   4.549   5.914   2.882 -0.0998  0.1463 -0.1054
 7298W        W 7498  12.572   1.348  14.285 -0.1572  0.0621 -0.0935
 7299W        W 7499  10.448   4.147   3.569 -0.1236  0.1091 -0.1560
 7300W        W 7500  12.850  15.169   4.270 -0.3687  0.1359 -0.0938
 7301W        W 7501   2.503  13.714  14.313  0.0184  0.1603 -0.1822
 7302W        W 7502  11.827   1.765   5.766  0.1392  0.1616 -0.1087
 7303W        W 7503  14.577   2.910   5.645  0.1765 -0.2723 -0.0793
 7304W        W 7504  10.848  11.415  12.364  0.1126 -0.0014 -0.0342
 7305W        W 7505   1.836   5.764   1.016 -0.0469  0.2453 -0.1278
 7306W        W 7506   9.954   6.218  15.013  0.0959 -0.0819  0.0336
 7307W        W 7507   3.298   5.414  14.293  0.0834 -0.0208 -0.1128
 7308W        W 7508   8.992   1.661   5.522  0.0600  0.1600  0.1753
 7309W        W 7509  10.969   3.197  11.504 -0.2643  0.1656  0.1159
 7310W        W 7510  10.634  12.124   2.092 -0.0046  0.0562 -0.0189
 7311W        W 7511   6.725   3.844   2.686  0.2588  0.3236 -0.1245
 7312W        W 7512   9.546  12.779   5.443 -0.1839  0.1218  0.3180
 7313W        W 7513  11.142  14.586   5.579  0.1499 -0.1507  0.3110
 7314W        W 7514   5.305  13.318   4.530 -0.1773  0.1528 -0.2020
 7315W        W 7515   1.238  12.194   8.286  0.1781 -0.0010 -0.0687
 7316W        W 7516   2.991   4.333   8.557  0.1622  0.0593 -0.1074
 7317W        W 7517   2.549  12.991   9.740 -0.0578  0.0391 -0.1011
 7318W        W 7518   8.428   5.672  10.051 -0.2370 -0.1334  0.2213
 7319W        W 7519  12.351   7.996   1.181  0.1536 -0.2178 -0.1261
 7320W        W 7520   2.983   7.503  11.052 -0.0428 -0.0999 -0.4380
 7321W        W 7521  10.181   0.480   7.074 -0.0737  0.1264  0.1521
 7322W        W 7522   3.120   1.609  13.752 -0.0739  0.1066  0.1020
 7323W        W 7523   0.431   7.191   9.404 -0.1808  0.0641  0.1282
 7324W        W 7524   3.468  12.076   1.892  0.3888 -0.4898  0.1435
 7325W        W 7525   7.906   6.408   1.435 -0.4188  0.0356 -0.4426
 7326W        W 7526  12.619   1.962  14.996  0.1620  0.1038 -0.4428
 7327W        W 7527  13.191   7.125   1.755 -0.2502  0.0274 -0.2456
 7328W        W 7528  12.390   2.734  11.105 -0.2276  0.0840  0.0911
 7329W        W 7529   0.802   8.238   3.311 -0.0174  0.3467  0.1372
 7330W        W 7530   2.784  14.906   2.382 -0.0547  0.0385 -0.0063
 7331W        W 7531   6.251  10.306   9.414 -0.1097 -0.3279  0.1143
 7332W        W 7532   2.177   3.019  12.901  0.4148  0.1491 -0.0439
 7333W        W 7533  13.517  14.389   6.569  0.0185 -0.3171  0.1573
 7334W        W 7534   9.242   9.998   8.368  0.0143  0.1110  0.0629
 7335W        W 7535  10.649   7.843   2.474  0.1287 -0.0847 -0.3973
 7336W        W 7536  14.631   7.666   1.176 -0.0272  0.0586  0.1597
 7337W        W 7537   1.874   7.142   9.174  0.0066  0.1276 -0.2402
 7338W        W 7538   3.009   1.127  10.101 -0.1244 -0.2287  0.1994
 7339W        W 7539   2.723   8.185   3.398  0.3066 -0.2942  0.1276
 7340W        W 7540  12.961  13.254  15.135 -0.2101  0.2683  0.0368
 7341W        W 7541   4.073   5.256   9.652  0.0508 -0.3100 -0.2862
 7342W        W 7542  13.680  10.221   9.604 -0.2719 -0.2221 -0.0532
 7343W        W 7543   6.205   1.785  11.206  0.1700 -0.0016  0.1210
 7344W        W 7544  10.929  13.997  11.148  0.2826  0.1043  0.0707
 7345W        W 7545  14.062   6.546  13.806  0.0957  0.0651  0.2793
 7346W        W 7546  11.848   5.096   3.966 -0.1215  0.1613 -0.1538
 7347W        W 7547  11.052   9.299  11.834  0.1657 -0.1393  0.0377
 7348W        W 7548   0.574   9.461   9.117  0.3811  0.1038 -0.4333
 7349W        W 7549   6.316  13.856  11.873 -0.0728 -0.1336  0.0608
 7350W        W 7550  10.693   7.349   5.722  0.0671 -0.0631  0.2858
 7351W        W 7551  13.856   2.344   6.776  0.3370  0.1698  0.1487
 7352W        W 7552   2.207  10.122   2.389 -0.0423  0.2708 -0.0759
 7353W        W 7553   0.963   6.422   8.719  0.1766 -0.4085  0.1091
 7354W        W 7554   8.533   0.882   7.512  0.0189 -0.0148 -0.3049
 7355W        W 7555   1.663   0.374  11.861  0.2344  0.0560  0.2435
 7356W        W 7556   7.170  11.963  13.044  0.0902  0.0758 -0.0240
 7357W        W 7557   0.245   8.247   1.051 -0.1494  0.2498  0.1159
 7358W        W 7558  10.477   6.574   9.371  0.2116  0.1747  0.1215
 7359W        W 7559   5.909   5.722  12.976  0.4778  0.1397  0.0606
 7360W        W 7560   1.085   4.735  13.695 -0.0116 -0.1201  0.0510
 7361W        W 7561  12.439   6.148   0.907 -0.0191 -0.2846  0.0834
 7362W        W 7562   5.670   5.060  13.037 -0.1140  0.1212 -0.0347
 7363W        W 7563   3.770  15.020  13.496 -0.0044  0.0383 -0.1106
 7364W        W 7564   4.276  10.745   0.687  0.1042  0.0106  0.2021
 7365W        W 7565  10.191   2.987  12.368 -0.1304  0.4268 -0.2871
 7366W        W 7566   3.663   5.849  10.101 -0.2740  0.0107 -0.1870
 7367W        W 7567   8.949   4.577  13.087 -0.1937 -0.2293 -0.3425
 7368W        W 7568   3.136   2.483  11.094 -0.3246  0.1751  0.3840
 7369W        W 7569   2.637   6.058  12.882 -0.1635 -0.2310  0.2484
 7370W        W 7570   4.002  14.894   2.518 -0.1880  0.2773 -0.1026
 7371W        W 7571   6.716  10.576   4.399  0.2929  0.1796  0.1179
 7372W        W 7572   0.862   4.349  13.479 -0.3759  0.1151 -0.0148
 7373W        W 7573   4.523   5.865   4.451 -0.1101  0.0427 -0.0784
 7374W        W 7574   1.224   0.800  12.904  0.3137 -0.1394  0.0843
 7375W        W 7575   4.867   6.888  14.669  0.0954  0.0061 -0.1858
 7376W        W 7576  14.123   0.381   7.475 -0.3961  0.2730 -0.1735
 7377W        W 7577   4.334  12.690   7.168 -0.0833  0.1109  0.0688
 7378W        W 7578   2.258   8.197   0.143  0.0064 -0.2396  0.2127
 7379W        W 7579   7.976   3.841   1.980 -0.0774  0.1993 -0.0607
 7380W        W 7580   8.655   6.655   6.129  0.1031  0.0572  0.1377
 7381W        W 7581  11.465   6.612  15.172 -0.0128  0.1686 -0.1547
 7382W        W 7582   5.327  10.980   1.904 -0.1098 -0.1543  0.2900
 7383W        W 7583   6.085  12.963   0.669  0.2175  0.1369 -0.0667
 7384W        W 7584   6.003   0.723   1.726  0.2435  0.2549 -0.0929
 7385W        W 7585   4.554   0.662   3.970 -0.2590  0.2231  0.2474
 7386W        W 7586   8.196   4.202   4.059 -0.0085 -0.0064  0.1191
 7387W        W 7587  13.868   7.978  14.004 -0.0996 -0.1539 -0.0966
 7388W        W 7588   3.250  14.975  14.708  0.0130  0.0928  0.1388
 7389W        W 7589   4.135   1.768   6.932 -0.0702  0.0077 -0.0751
 7390W        W 7590   9.203  14.578  15.044 -0.2837 -0.2281 -0.0186
 7391W        W 7591   4.619   4.494   1.789  0.1154 -0.3452  0.2898
 7392W        W 7592   5.081  11.575   6.988  0.0723  0.0792 -0.2533
 7393W        W 7593  12.974   0.429  14.559  0.3323 -0.0493  0.2440
 7394W        W 7594   3.547   3.805   4.312 -0.0341 -0.0815 -0.2609
 7395W        W 7595   4.295  13.834   2.862  0.4473 -0.1892 -0.3376
 7396W        W 7596   2.415   2.309   1.588  0.4090 -0.0612 -0.0261
 7397W        W 7597  10.219  11.272  12.895  0.1386  0.1102 -0.0301
 7398W        W 7598  13.143  14.421   6.905  0.2496 -0.1283  0.2679
 7399W        W 7599   5.031   2.917   3.093 -0.1097  0.0777 -0.0148
 7400W        W 7600   3.735  11.580   8.119  0.1583  0.0651 -0.0429
 7401W        W 7601   3.534   6.498   7.163 -0.1713 -0.3768 -0.1466
 7402W        W 7602   6.672   5.072   2.739  0.0370  0.0694 -0.1725
 7403W        W 7603   9.799   9.393   9.669 -0.1515  0.3085 -0.1559
 7404W        W 7604   9.938  13.104  10.071 -0.2014  0.0331  0.0878
 7405W        W 7605   9.308   4.922   9.189  0.1024  0.2885  0.1215
 7406W        W 7606   3.186   4.760   8.241 -0.0634  0.0469  0.0279
 7407W        W 7607   3.251  10.929   7.956 -0.0934  0.0261 -0.2322
 7408W        W 7608  14.107   9.528   4.477  0.0811  0.0424  0.0385
 7409W        W 7609   9.072   5.017  14.113 -0.0858  0.1058  0.1855
 7410W        W 7610   0.616   0.012   9.746 -0.1916  0.1874  0.0800
 7411W        W 7611   8.383   1.382   1.605  0.0009 -0.0163 -0.0422
 7412W        W 7612  14.036  11.485   5.415 -0.0047 -0.4312  0.0061
 7413W        W 7613   5.425   7.012  10.662  0.0477  0.4578  0.1843
 7414W        W 7614   6.753   4.329   9.126  0.2433  0.2832 -0.0371
 7415W        W 7615   1.480   4.740   1.905 -0.0519  0.3561 -0.0006
 7416W        W 7616   6.387   8.494   6.236 -0.1072  0.0955 -0.0169
 7417W        W 7617   5.076  13.579   0.790 -0.0781 -0.0892  0.0952
 7418W        W 7618   7.548  11.979   5.269  0.1255  0.0613 -0.1042
 7419W        W 7619   3.418  15.003   0.687  0.1609 -0.1664  0.2606
 7420W        W 7620   9.454  15.128   4.664 -0.1140  0.0370  0.0104
 7421W        W 7621   8.715  10.644   2.381  0.3288 -0.1107  0.1539
 7422W        W 7622   3.614   1.874   4.398  0.1287  0.0133 -0.2344
 7423W        W 7623   1.403   6.840   7.368 -0.2656  0.0613 -0.0811
 7424W        W 7624   9.038  15.038   8.570 -0.1975 -0.0091 -0.0057
 7425W        W 7625   8.341  11.371   8.248  0.0748  0.0352  0.2875
 7426W        W 7626   2.454   0.524   5.075 -0.0070 -0.2086  0.1625
 7427W        W 7627   1.973   3.090   9.587  0.0515 -0.1335 -0.2167
 7428W        W 7628   0.371  12.013  13.490 -0.0895  0.0806 -0.0676
 7429W        W 7629   1.599   6.541  10.448 -0.0642 -0.2697  0.0644
 7430W        W 7630  10.033  12.671  14.352  0.3184  0.1346  0.0099
 7431W        W 7631   9.546   4.202   5.947  0.2128  0.2979 -0.1366
 7432W        W 7632  11.866   2.854   8.945  0.0996  0.1447 -0.0818
 7433W        W 7633   2.483   1.365   4.995  0.0195 -0.0609  0.0288
 7434W        W 7634   4.389  14.800   3.388  0.1788 -0.0452  0.4887
 7435W        W 7635   2.866   1.035   2.719 -0.2656 -0.1754 -0.1549
 7436W        W 7636   7.253  14.177   8.306  0.0690  0.0121  0.0210
 7437W        W 7637   1.575  12.703  13.016  0.3025 -0.0176  0.0884
 7438W        W 7638   0.560   2.820   7.608  0.1571 -0.0770  0.1144
 7439W        W 7639   0.802   8.508  14.923  0.0725  0.1955 -0.1234
 7440W        W 7640   8.638   7.737   4.786 -0.0262 -0.0085 -0.1092
 7441W        W 7641  11.743   5.527   3.265  0.2903  0.0689  0.0305
 7442W        W 7642   4.221   9.170   6.441 -0.2132  0.1958  0.1289
 7443W        W 7643   4.929   0.557   6.272 -0.0112  0.1005  0.0192
 7444W        W 7644   1.094   8.509   0.998  0.1806  0.0914  0.2305
 7445W        W 7645   9.413   4.356   7.718 -0.3672 -0.1764 -0.1352
 7446W        W 7646   3.465  11.092  11.364 -0.0277 -0.2184 -0.3856
 7447W        W 7647   5.479   6.235   2.279  0.2607  0.3975  0.4882
 7448W        W 7648   5.753  12.844   6.093 -0.2438 -0.0302 -0.3117
 7449W        W 7649   1.611   1.595   3.738  0.0441  0.0434 -0.3624
 7450W        W 7650  12.172   7.226   9.173  0.1416  0.2144  0.1575
 7451W        W 7651   7.727   2.021  11.176  0.3202  0.0519  0.0446
 7452W        W 7652   0.480  10.379  11.917 -0.3459  0.3106  0.3334
 7453W        W 7653  14.482  14.588   7.135 -0.1907  0.2678  0.1819
 7454W        W 7654  12.280   1.343   1.239  0.1238 -0.0973  0.0619
 7455W        W 7655   7.298  11.248   3.179 -0.0661 -0.2762  0.2377
 7456W        W 7656  12.267   6.666   6.296  0.1454  0.0077  0.1088
 7457W        W 7657   3.818   3.733   3.515  0.0202 -0.0182 -0.0802
 7458W        W 7658  14.846  12.195   6.608 -0.1873  0.3861 -0.0011
 7459W        W 7659   8.763   2.605   7.045 -0.0360 -0.1498 -0.1626
 7460W        W 7660  10.041   7.740  13.156  0.1315  0.1535  0.1009
 7461W        W 7661   5.391  10.020   2.606 -0.0193 -0.1503  0.1792
 7462W        W 7662   4.190   6.382   6.237 -0.0038 -0.2856 -0.1152
 7463W        W 7663   5.919   4.389   6.646 -0.1257 -0.1090  0.0365
 7464W        W 7664  15.078   7.234   0.547 -0.2393  0.3616  0.0615
 7465W        W 7665  12.112   4.701   0.049  0.1663 -0.0565 -0.2722
 7466W        W 7666   8.284   3.700   5.846 -0.2706 -0.1177 -0.0364
 7467W        W 7667   3.039  11.179   4.530 -0.0578 -0.2802 -0.4655
 7468W        W 7668   6.247   6.561   7.342  0.4116 -0.0290 -0.2555
 7469W        W 7669  10.257   8.160  12.073 -0.1021  0.2872 -0.0542
 7470W        W 7670  11.683   3.106   8.532 -0.2112  0.0714 -0.1271
 7471W        W 7671   6.819  11.532  15.140  0.0809 -0.1669  0.1531
 7472W        W 7672  10.725   7.946   6.128 -0.0169  0.1331 -0.0332
 7473W        W 7673   0.817   0.426  14.472 -0.0191 -0.0005  0.1617
 7474W        W 7674   2.906  14.809   3.338 -0.0098 -0.0833 -0.1469
 7475W        W 7675   6.983   8.652   6.858 -0.1847 -0.1639 -0.1961
 7476W        W 7676  11.048   3.634   6.642 -0.3772 -0.1351  0.0023
 7477W        W 7677   0.573   1.577  14.490  0.0579 -0.0070  0.1146
 7478W        W 7678   1.487   0.543  14.137 -0.0534 -0.0069 -0.0199
 7479W        W 7679   5.342   0.852  12.306 -0.0579 -0.1225 -0.3420
 7480W        W 7680   9.399  13.736   7.054  0.1874 -0.1486  0.0013
 7481W        W 7681   8.864   4.105  12.170  0.0792  0.0438 -0.3267
 7482W        W 7682   4.122  15.104   5.261  0.0378 -0.2506 -0.2099
 7483W        W 7683   6.842   7.240   2.624 -0.2423 -0.2495  0.0096
 7484W        W 7684   6.074   3.824  13.507 -0.1035  0.3653 -0.2520
 7485W        W 7685   1.602   3.383   2.403 -0.4451  0.1105  0.2256
 7486W        W 7686   4.468   6.240  14.593 -0.3393  0.0252  0.1653
 7487W        W 7687  13.000   0.135  11.429  0.0587 -0.2742  0.0437
 7488W        W 7688   5.802  10.792   9.780  0.2447  0.1829  0.2146
 7489W        W 7689   8.717  14.800   0.900 -0.0986 -0.1976 -0.0077
 7490W        W 7690  10.819  12.111   3.362  0.1838  0.1109 -0.0208
 7491W        W 7691   2.370   2.957   0.874  0.3085  0.2754  0.3465
 7492W        W 7692   3.824  12.830   3.821  0.1666  0.2602  0.1901
 7493W        W 7693   3.725   2.089  14.605  0.1519 -0.4489  0.1762
 7494W        W 7694   3.379  15.171   6.976 -0.2326 -0.2979 -0.2970
 7495W        W 7695   4.530   5.639   8.304 -0.1725  0.0508  0.1378
 7496W        W 7696   8.138   3.608  14.852 -0.0597  0.0090 -0.0315
 7497W        W 7697   9.660   3.813  10.643  0.1638 -0.3794  0.0202
 7498W        W 7698   2.867   7.504   2.432 -0.0341  0.0185 -0.0736
 7499W        W 7699   2.518   3.132   3.713  0.1926 -0.2692 -0.1858
 7500W        W 7700   8.124   6.674   6.828 -0.2515 -0.1920  0.2164
 7501W        W 7701   1.247   1.542   4.074  0.2174  0.1283 -0.1306
 7502W        W 7702   1.074  11.817  10.067  0.0648  0.0706 -0.2610
 7503W        W 7703   0.490   2.604   6.476  0.0385  0.1941  0.0588
 7504W        W 7704  14.336   0.247   4.665 -0.1473 -0.2756  0.0894
 7505W        W 7705   5.286   2.912   2.636 -0.0862  0.0101  0.2181
 7506W        W 7706  11.526  12.956   9.736 -0.0731 -0.0391 -0.0351
 7507W        W 7707   0.747  11.025   6.780  0.1237 -0.2844 -0.1426
 7508W        W 7708   2.143   4.601   0.393 -0.0507 -0.3945  0.0637
 7509W        W 7709   6.680  13.251   4.449 -0.1540  0.0030  0.0740
 7510W        W 7710   2.795   0.522   6.469 -0.1250 -0.3831 -0.1705
 7511W        W 7711   2.434   6.987   6.633  0.1516 -0.2263  0.2609
 7512W        W 7712   7.375   3.244   2.227  0.0944 -0.1165  0.1965
 7513W        W 7713   4.985  12.427   3.165 -0.0300  0.3305  0.0651
 7514W        W 7714   8.574  14.529  14.074 -0.1259 -0.4570  0.0291
 7515W        W 7715  12.583  11.429   4.464 -0.2521  0.2745 -0.1842
 7516W        W 7716   6.778   1.960   7.241  0.0699  0.1338  0.0201
 7517W        W 7717   7.801   3.398   6.826  0.1105 -0.3873 -0.3416
 7518W        W 7718   5.219   9.140   6.723  0.0351  0.0151 -0.3139
 7519W        W 7719  11.983   0.269  14.580  0.0891 -0.3125 -0.1776
 7520W        W 7720   5.414   1.234  12.041  0.1584  0.4751 -0.0536
 7521W        W 7721   6.567   1.545  13.583  0.0029  0.1660  0.4688
 7522W        W 7722   4.698   2.001  14.930 -0.3370  0.0092 -0.2285
 7523W        W 7723   0.074   5.797   8.641 -0.2965  0.2322  0.0138
 7524W        W 7724   6.180   9.267  14.824  0.1488 -0.2220  0.0614
 7525W        W 7725   7.194  12.474   1.169 -0.0681 -0.1439  0.0526
 7526W        W 7726  13.678   2.883  11.388  0.1412  0.2114  0.0199
 7527W        W 7727   4.925   5.141   5.841 -0.2121  0.1177 -0.1345
 7528W        W 7728   8.446   4.627   4.234  0.0061 -0.1723  0.0902
 7529W        W 7729   7.164   4.760   5.888 -0.0362 -0.1778  0.0796
 7530W        W 7730   4.335   8.666  12.861  0.0801  0.5221 -0.1793
 7531W        W 7731   8.171   5.819  10.510  0.2470  0.0525  0.2410
 7532W        W 7732   4.930   1.766   9.177 -0.0511  0.0780  0.0247
 7533W        W 7733  14.417   7.814   6.963  0.2777 -0.0142  0.3597
 7534W        W 7734   4.642   3.218   4.875 -0.3723  0.1033  0.2900
 7535W        W 7735   7.574   5.058   9.072  0.5190 -0.2114  0.2262
 7536W        W 7736  12.621   3.293   1.869 -0.0320  0.1899  0.2050
 7537W        W 7737   2.772  10.688   2.121  0.1209 -0.0238 -0.1133
 7538W        W 7738   8.120   3.104   5.575  0.0276  0.0178 -0.2852
 7539W        W 7739   8.558  14.593   8.496  0.0927  0.2889 -0.0289
 7540W        W 7740   9.433  15.026   2.731  0.0085 -0.1828 -0.0330
 7541W        W 7741  12.794   4.171   9.370  0.0758 -0.2328  0.0153
 7542W        W 7742  10.908  10.153   1.109 -0.1710  0.3257 -0.3812
 7543W        W 7743  14.428   6.833  13.508  0.0283 -0.0115 -0.0053
 7544W        W 7744  12.854   4.015   3.286 -0.0004  0.0266  0.0081
 7545W        W 7745   4.212   8.048  12.160 -0.0106 -0.0930 -0.2168
 7546W        W 7746   6.011   7.615   5.761 -0.1279  0.0167 -0.3063
 7547W        W 7747   6.379   5.935   2.090  0.2644 -0.2495 -0.4680
 7548W        W 7748   9.596  13.132   9.723  0.1115 -0.0630  0.1061
 7549W        W 7749   7.872  14.329   6.846  0.1897 -0.1339 -0.3412
 7550W        W 7750   3.118   7.741   9.108  0.0835 -0.2457  0.1058
 7551W        W 7751   0.702   3.172   1.866  0.0225  0.1631 -0.1044
 7552W        W 7752   0.926  11.562   2.007 -0.0572 -0.0819 -0.3203
 7553W        W 7753  12.246   7.955   1.799  0.2641  0.0769  0.0177
 7554W        W 7754   2.454  13.854   3.960 -0.1103 -0.0793  0.0856
 7555W        W 7755   4.427   7.677   9.997 -0.1481 -0.0416  0.0346
 7556W        W 7756  12.190   6.456   0.552 -0.3249 -0.1640  0.2356
 7557W        W 7757  11.278   2.823   3.520 -0.1620  0.1334  0.0672
 7558W        W 7758   4.976  15.034  10.841  0.0865  0.2079 -0.1233
 7559W        W 7759   5.844  10.281   4.997 -0.0001 -0.0724  0.2170
 7560W        W 7760   2.855   2.091   5.924  0.0354  0.1343  0.0502
 7561W        W 7761   0.606   0.160  13.622  0.0446 -0.3288 -0.1626
 7562W        W 7762   4.717   6.355   3.653  0.1424 -0.4535 -0.2735
 7563W        W 7763   5.983   2.959   1.094  0.1545 -0.2078  0.0658
 7564W        W 7764   5.396   6.784  12.809 -0.0844  0.2056 -0.0219
 7565W        W 7765   7.401   6.652   1.612  0.1700 -0.2174 -0.1185
 7566W        W 7766   6.088   8.483   2.957  0.2026 -0.1069 -0.0052
 7567W        W 7767   1.811   0.511   6.374 -0.0412 -0.0164  0.1107
 7568W        W 7768   3.341  10.136   0.716 -0.1109 -0.1101  0.0138
 7569W        W 7769   7.357  15.012   4.678 -0.2741  0.1596 -0.2439
 7570W        W 7770   8.263   5.395   7.691 -0.0266  0.0480  0.0788
 7571W        W 7771   3.931   5.608   6.559 -0.1431 -0.2150 -0.0007
 7572W        W 7772   1.968   0.348   1.986 -0.1105  0.0781  0.2349
 7573W        W 7773   6.406   2.668  14.729 -0.3992  0.2227  0.2450
 7574W        W 7774   7.962  13.564   8.560 -0.0160  0.0939  0.5389
 7575W        W 7775   8.386   5.454  13.853 -0.1263  0.0328  0.2107
 7576W        W 7776   7.459   3.520   9.941  0.0382  0.1546 -0.2402
 7577W        W 7777  12.736  12.954  13.054  0.1475  0.1708 -0.0498
 7578W        W 7778   4.226  10.009   4.497 -0.0643  0.0663 -0.1814
 7579W        W 7779   9.643   9.412  14.120 -0.1635 -0.0165  0.0265
 7580W        W 7780   7.061  15.112   6.046 -0.0833  0.0985  0.2350
 7581W        W 7781   0.430  11.474  12.181 -0.1183  0.1004  0.1492
 7582W        W 7782   6.821   1.378   0.344  0.0677  0.0863  0.3909
 7583W        W 7783   3.957   0.816   9.411  0.0358 -0.1564 -0.0635
 7584W        W 7784  13.448   5.724  14.825 -0.2658 -0.2470  0.0154
 7585W        W 7785   2.281   4.521   2.230 -0.1831 -0.3405  0.1307
 7586W        W 7786  11.742   2.932   3.350 -0.0929  0.2098  0.2936
 7587W        W 7787   3.864   1.123   4.912  0.2507 -0.0612 -0.0746
 7588W        W 7788   1.409   4.148   4.774  0.1035  0.0511 -0.0172
 7589W        W 7789   2.978   2.085  11.356  0.0458 -0.2309 -0.0957
 7590W        W 7790   3.986   7.042   7.553 -0.1261 -0.0531 -0.2755
 7591W        W 7791   9.582  11.470   2.043 -0.1745 -0.1957  0.4480
 7592W        W 7792  13.421   7.532   1.951  0.0736 -0.0833 -0.0792
 7593W        W 7793   7.420   3.008   6.784  0.2553  0.2066  0.0493
 7594W        W 7794   0.205  12.911   9.575 -0.0590  0.2788 -0.1650
 7595W        W 7795  11.240   6.615  11.827 -0.0042  0.3283  0.2572
 7596W        W 7796  13.787  13.550   0.814  0.4104 -0.1829  0.2686
 7597W        W 7797   2.358  11.725   6.533 -0.1004 -0.1216  0.0226
 7598W        W 7798   9.814   7.833  11.942  0.1886 -0.0284  0.0689
 7599W        W 7799   6.418   9.813  14.444 -0.2274 -0.0224  0.1122
 7600W        W 7800   9.999  12.796  12.803  0.0970 -0.2050 -0.2441
 7601W        W 7801   8.671  13.472   9.256  0.1431  0.0315  0.1144
 7602W        W 7802  10.033   4.035   4.259  0.1190  0.2828 -0.1992
 7603W        W 7803  13.935   7.646   4.268 -0.2153  0.2663  0.0486
 7604W        W 7804   4.617   0.953  10.943 -0.0356  0.0337  0.0490
 7605W        W 7805   2.872  10.656   4.651  0.2389 -0.2655  0.1417
 7606W        W 7806  11.882   0.181  10.420  0.0976  0.0301  0.1113
 7607W        W 7807   4.458  10.291   2.603  0.0127  0.1207 -0.1265
 7608W        W 7808  13.165   1.975   5.106  0.1128 -0.0395 -0.2249
 7609W        W 7809   4.479   0.590   3.287 -0.0710  0.2082 -0.1949
 7610W        W 7810   6.795   3.369   2.880  0.2024 -0.2593  0.0496
 7611W        W 7811  14.521   5.154  14.071  0.0448 -0.0179 -0.0657
 7612W        W 7812   1.259   2.220   6.124 -0.0353  0.1468  0.1208
 7613W        W 7813   0.408   2.949   7.142  0.0664 -0.0495  0.0148
 7614W        W 7814   8.491  12.272  10.588  0.2894  0.0158 -0.0403
 7615W        W 7815   0.560   2.029  11.239  0.3498  0.2179  0.2528
 7616W        W 7816   4.611  14.122  10.754  0.0554 -0.1569 -0.0314
 7617W        W 7817   6.716   2.324   3.517 -0.0265  0.1248  0.0209
 7618W        W 7818   5.382   4.933   1.039 -0.1936  0.3349  0.0484
 7619W        W 7819   5.498  14.581  11.501 -0.1605  0.0590 -0.2917
 7620W        W 7820   9.929   4.808   4.394 -0.1164  0.1663  0.0005
 7621W        W 7821   6.146   5.274   4.192  0.0008  0.0317  0.0903
 7622W        W 7822   1.367   6.490   1.615  0.0532  0.0367 -0.1129
 7623W        W 7823   5.964  14.546   5.505  0.0280 -0.0742 -0.0777
 7624W        W 7824  14.092   9.015   6.846  0.1049  0.3950  0.1945
 7625W        W 7825   7.545   6.006   7.857 -0.4713 -0.1993 -0.0935
 7626W        W 7826   6.025   6.909   8.159 -0.0445 -0.0867 -0.0616
 7627W        W 7827   3.705  14.452   1.670  0.1996  0.0608 -0.2634
 7628W        W 7828   2.035   0.618  11.234  0.0961 -0.5395 -0.0351
 7629W        W 7829   2.891   6.436   8.307  0.0947 -0.0248  0.2332
 7630W        W 7830   6.804   8.105   5.211  0.0156  0.0398  0.0272
 7631W        W 7831  15.171  15.191   7.125 -0.0050 -0.1813 -0.2225
 7632W        W 7832  13.919  10.738   7.627  0.1383  0.2556 -0.1412
 7633W        W 7833   7.167   3.027   0.213  0.1052 -0.1787 -0.1245
 7634W        W 7834  13.595   8.929   4.654  0.2666 -0.5474 -0.0287
 7635W        W 7835   1.188  10.633   0.439 -0.1537  0.1397 -0.0847
 7636W        W 7836  10.471   2.741   2.710  0.2715  0.2110 -0.0916
 7637W        W 7837   2.266   4.354  12.948  0.0381  0.1500  0.1249
 7638W        W 7838   6.755   0.908   3.538 -0.0018 -0.2593  0.1296
 7639W        W 7839   3.775   4.383   7.199 -0.3543 -0.4235  0.1091
 7640W        W 7840   0.497  14.004   4.855 -0.0410  0.0913 -0.2099
 7641W        W 7841   4.421   0.086   6.880  0.2701 -0.0165 -0.3674
 7642W        W 7842   1.783   1.367  11.935  0.1744 -0.1111  0.2827
 7643W        W 7843   3.953   6.149   6.564 -0.1525 -0.0899  0.0909
 7644W        W 7844   1.545   3.146   6.343  0.1687  0.1094  0.1017
 7645W        W 7845  11.392  13.640   6.311 -0.2718 -0.1228  0.1608
 7646W        W 7846   0.745  14.829  13.753  0.1394 -0.0271 -0.1060
 7647W        W 7847  10.590  10.793   6.265  0.2662 -0.1246  0.0029
 7648W        W 7848  11.237   4.751   6.410  0.1155  0.0477  0.0436
 7649W        W 7849   6.650  14.466   5.634  0.0515  0.0166 -0.1489
 7650W        W 7850  13.273   5.874   7.608 -0.1298  0.0642  0.0891
 7651W        W 7851   7.758   1.136   4.371 -0.1340  0.0387  0.0321
 7652W        W 7852   4.339   7.039   5.371  0.2241  0.0614  0.1502
 7653W        W 7853   8.585  13.598  13.041 -0.0075  0.0487 -0.2098
 7654W        W 7854  10.829  10.510   4.338 -0.0722  0.0116 -0.0618
 7655W        W 7855   8.209   4.335   9.137 -0.4117 -0.0408  0.0578
 7656W        W 7856  13.513   9.348   8.043 -0.3572  0.1242 -0.2337
 7657W        W 7857   5.562   7.502   4.414 -0.0869 -0.0743  0.2106
 7658W        W 7858  11.908  11.044  11.806 -0.3390  0.1289  0.0116
 7659W        W 7859   6.124   8.780   6.604  0.0271 -0.0874 -0.1908
 7660W        W 7860   4.341  11.228   4.360  0.0426  0.2321  0.3826
 7661W        W 7861   9.324   7.886   4.911 -0.0739 -0.1757 -0.3554
 7662W        W 7862   4.244   0.699  11.360  0.2178 -0.2850  0.0102
 7663W        W 7863  10.772  11.461   4.637 -0.0259 -0.1534 -0.2327
 7664W        W 7864   7.851   2.427   0.285 -0.2663 -0.0442  0.1425
 7665W        W 7865   9.646   7.243   6.603 -0.3169 -0.0316 -0.0536
 7666W        W 7866   5.206   6.899   4.816 -0.3129  0.5204  0.2153
 7667W        W 7867   3.972  11.207   3.063  0.0376 -0.1840 -0.4327
 7668W        W 7868   0.354  13.867   7.919 -0.0140  0.0492  0.0143
 7669W        W 7869  12.664   8.674   8.015  0.0436  0.0891 -0.0661
 7670W        W 7870  11.773   0.263   5.609  0.0945 -0.0356 -0.1160
 7671W        W 7871   6.354   0.764  11.802 -0.0746 -0.0216  0.0929
 7672W        W 7872  10.145  14.200   3.106  0.1072  0.0123 -0.1334
 7673W        W 7873   5.554   4.718   5.799  0.0273 -0.0687 -0.0708
 7674W        W 7874   4.023  12.555   1.273 -0.0474 -0.2792 -0.0029
 7675W        W 7875  13.184   5.392  14.499 -0.1068 -0.0635 -0.0661
 7676W        W 7876  11.662  13.994  11.213 -0.2452 -0.0983 -0.1096
 7677W        W 7877   6.463   0.076   7.955  0.0840  0.0528  0.1415
 7678W        W 7878   5.473   0.400   4.981  0.2367  0.2327  0.2731
 7679W        W 7879   7.716   4.309   7.246 -0.2245 -0.3080  0.0036
 7680W        W 7880   7.123   0.335  14.750  0.0224 -0.1317 -0.2467
 7681W        W 7881   3.261   0.022  13.178 -0.2340  0.0814  0.2226
 7682W        W 7882  10.701  11.184   0.364 -0.2025 -0.1653 -0.0238
 7683W        W 7883  11.377   6.356   7.321 -0.0659  0.0997  0.0327
 7684W        W 7884   4.879   4.470   0.485 -0.1373  0.1247  0.0722
 7685W        W 7885  10.993   9.897   4.300 -0.2398 -0.0225 -0.1828
 7686W        W 7886   7.536   0.688   2.965  0.1963 -0.0193 -0.3735
 7687W        W 7887   8.880   5.096  12.847 -0.2470 -0.2676  0.0253
 7688W        W 7888   6.802  12.705   3.666  0.0775  0.0244  0.2068
 7689W        W 7889   9.594   2.680   7.932 -0.2956 -0.2904  0.0035
 7690W        W 7890   5.723   5.082   5.464  0.2030  0.1700  0.3973
 7691W        W 7891   4.324  12.298   8.473 -0.2422  0.1279  0.1451
 7692W        W 7892   4.709  13.760   2.490  0.1666  0.0209  0.1073
 7693W        W 7893   4.207   9.750   3.323 -0.1197 -0.4159  0.2614
 7694W        W 7894   2.150   1.521   3.736 -0.1357 -0.1583  0.2068
 7695W        W 7895   5.744  13.708   5.673 -0.0371 -0.0260  0.0266
 7696W        W 7896   4.940   6.755   5.187  0.1272 -0.1842 -0.0651
 7697W        W 7897  12.393   6.853   5.090  0.0356 -0.0794  0.1358
 7698W        W 7898   3.307   3.877   8.526  0.1480  0.3692 -0.2709
 7699W        W 7899   5.702  14.119  11.170 -0.0524  0.1688 -0.0949
 7700W        W 7900   4.449   0.961   4.843  0.0031  0.0785  0.1726
 7701W        W 7901   5.197   1.013   4.928 -0.1638 -0.1521 -0.1882
 7702W        W 7902   1.923  10.361   4.768  0.1613 -0.3003 -0.0297
 7703W        W 7903   4.090   3.765   2.080  0.1995  0.0447 -0.0654
 7704W        W 7904   0.820   4.079   4.048 -0.1003  0.1792 -0.0430
 7705W        W 7905   5.750   4.924  13.785 -0.0699  0.0015  0.0566
 7706W        W 7906   5.153   3.359  13.494 -0.0072 -0.1320  0.4220
 7707W        W 7907   5.209   7.050   4.275  0.0170  0.3197  0.3320
 7708W        W 7908   1.556   0.982   9.199 -0.1697  0.0796  0.1347
 7709W        W 7909   4.641   7.878   0.523  0.1135  0.0183 -0.1410
 7710W        W 7910  10.049  13.807   6.560  0.1740 -0.1598  0.0008
 7711W        W 7911   8.243   4.105   7.811  0.3510 -0.1094  0.0610
 7712W        W 7912   9.138   4.622   4.880 -0.3283 -0.0675 -0.5269
 7713W        W 7913  13.322  13.366   9.016  0.0839 -0.1070 -0.2652
 7714W        W 7914   9.232   4.132  11.342 -0.1556  0.2074 -0.0288
 7715W        W 7915  12.868   1.637   8.306 -0.1385  0.1393  0.2788
 7716W        W 7916  10.091   5.138   7.622 -0.0003 -0.0724 -0.0121
 7717W        W 7917  14.155  13.526   3.616 -0.1311  0.0248  0.1573
 7718W        W 7918   0.594   2.600   0.582  0.2216  0.0415 -0.5482
 7719W        W 7919   4.727  10.325   5.254 -0.0829  0.2523  0.2680
 7720W        W 7920   3.653   8.671   8.915  0.1652 -0.2041  0.0456
 7721W        W 7921   5.046  11.532  13.833 -0.1763 -0.3329 -0.0431
 7722W        W 7922   1.297   4.227  13.861  0.1305 -0.1809  0.1446
 7723W        W 7923   9.037   3.017   2.910  0.4339 -0.3357 -0.1738
 7724W        W 7924   3.169   0.378   1.737 -0.0248  0.0709 -0.2263
 7725W        W 7925   7.191   7.158  13.720  0.0839  0.1171  0.2959
 7726W        W 7926   6.446   1.746  11.822 -0.1400  0.1635  0.0148
 7727W        W 7927   5.796   9.847   9.702 -0.0176 -0.1027 -0.1496
 7728W        W 7928   7.986   6.013   8.773  0.1449 -0.0033  0.0716
 7729W        W 7929   3.669   2.012  15.142 -0.0357  0.0274 -0.0131
 7730W        W 7930   6.527   8.898  10.827  0.1727  0.1309 -0.0049
 7731W        W 7931   5.958  11.217   2.593 -0.0632  0.0626 -0.1140
 7732W        W 7932   1.305   0.155   9.093  0.1138 -0.1452  0.0012
 7733W        W 7933   4.150  14.006   3.596  0.0179 -0.3056  0.0356
 7734W        W 7934   4.962   9.857   5.236  0.0054  0.5371 -0.0510
 7735W        W 7935   9.875   1.278   0.248 -0.2763  0.1280  0.0778
 7736W        W 7936   1.543   6.745   5.431 -0.2474  0.0300  0.0435
 7737W        W 7937   4.676   1.249   5.626 -0.0784 -0.2233 -0.1631
 7738W        W 7938   3.480  13.030  11.377 -0.0126  0.1655  0.1161
 7739W        W 7939  15.102   0.880  12.192 -0.0322  0.4249 -0.1343
 7740W        W 7940   1.490   6.453  11.951 -0.2180  0.0260 -0.0712
 7741W        W 7941  14.366   2.508  11.544  0.1519  0.0082  0.2255
 7742W        W 7942   6.035   4.351   1.203  0.2419 -0.2184  0.2042
 7743W        W 7943  11.905   9.189  10.235  0.0999  0.1821 -0.1723
 7744W        W 7944  14.713  11.636  14.704  0.0013 -0.3288 -0.0253
 7745W        W 7945   0.097  11.753   7.134 -0.0609  0.0200  0.2395
 7746W        W 7946   0.679   6.678  12.559  0.1067 -0.0917  0.1038
 7747W        W 7947  10.720   2.191   4.344 -0.1585  0.2808  0.0195
 7748W        W 7948   7.840  14.263   0.112 -0.1370  0.1969 -0.1343
 7749W        W 7949   7.459  12.282   3.101 -0.0092 -0.3402  0.0218
 7750W        W 7950  15.154   7.298   9.399  0.1685 -0.0837 -0.0996
 7751W        W 7951  14.646  13.372  12.805 -0.0590  0.1676  0.0350
 7752W        W 7952  13.639   8.919   3.876 -0.2154  0.2229 -0.0131
 7753W        W 7953   7.785  10.783  10.736 -0.2739 -0.3260 -0.1276
 7754W        W 7954  13.051   7.338   5.480 -0.4448  0.0192 -0.0006
 7755W        W 7955   7.539  15.063   5.788  0.3043 -0.2958  0.2148
 7756W        W 7956   2.828  13.255   1.562  0.0126 -0.0574 -0.0131
 7757W        W 7957   3.869  14.761   0.686 -0.0020  0.1631 -0.2450
 7758W        W 7958  10.074   4.377   5.161  0.0939 -0.0827 -0.0903
 7759W        W 7959   9.314   4.165  10.403  0.2386  0.3890 -0.0894
 7760W        W 7960   9.897  13.275   3.607  0.0561 -0.2012  0.1053
 7761W        W 7961   1.160  10.799   3.822  0.0644 -0.0439  0.1605
 7762W        W 7962   1.172  11.340  11.468 -0.0353 -0.1273 -0.0583
 7763W        W 7963   7.643   0.353  11.562 -0.2508  0.2466 -0.0644
 7764W        W 7964   2.405  14.339   2.800  0.1713 -0.1852 -0.1208
 7765W        W 7965   7.520   4.702   3.065 -0.1084 -0.0214  0.1978
 7766W        W 7966   3.354   5.289   8.047  0.1472  0.0734 -0.6151
 7767W        W 7967  13.648  10.235   8.128  0.2151  0.1606  0.1126
 7768W        W 7968  13.177   4.004   2.919 -0.1683  0.3490  0.3637
 7769W        W 7969   8.361  12.196   2.650 -0.2679  0.2463 -0.1704
 7770W        W 7970   6.132  12.327  12.631 -0.2464  0.1495 -0.0515
 7771W        W 7971   4.474   1.969   3.671 -0.0789  0.1042 -0.0936
 7772W        W 7972   5.269   4.151   1.711  0.0193 -0.0421 -0.1651
 7773W        W 7973   0.785   4.600   8.942  0.0770 -0.0497  0.4099
 7774W        W 7974  12.307   0.763   4.902  0.1529  0.2529 -0.1216
 7775W        W 7975   6.271  14.862  13.891 -0.0508  0.0449 -0.2697
 7776W        W 7976  12.613   8.938  10.163 -0.0050 -0.0845  0.3203
 7777W        W 7977   0.457   3.386   4.973  0.1586 -0.2083  0.0423
 7778W        W 7978   2.034   2.724  13.372 -0.1708  0.1004  0.1871
 7779W        W 7979   5.006  12.898  12.689  0.0522  0.0365  0.1228
 7780W        W 7980   6.334  14.207  15.051 -0.0219  0.1363  0.0765
 7781W        W 7981  12.810   6.351   2.122  0.0307  0.1149 -0.3044
 7782W        W 7982   7.347   3.741   5.417  0.1882  0.1667 -0.0326
 7783W        W 7983   6.513   3.222   7.357  0.0077 -0.1959  0.1584
 7784W        W 7984   1.987   4.884  12.883 -0.1691 -0.0451 -0.2625
 7785W        W 7985  14.687   3.690   6.682 -0.0138  0.2037  0.1463
 7786W        W 7986   5.061   5.962  11.471  0.1342  0.1698 -0.2210
 7787W        W 7987   2.838   7.668   9.525 -0.0769 -0.0590 -0.0454
 7788W        W 7988   1.872   5.968   5.725  0.3338 -0.2013  0.1926
 7789W        W 7989   6.146   1.546   3.352  0.1180 -0.2008  0.0592
 7790W        W 7990   3.619   8.710  13.315  0.3288  0.0262  0.0251
 7791W        W 7991   8.076   2.855  12.465  0.0184 -0.3827 -0.1270
 7792W        W 7992   8.353   7.090   3.681 -0.2689  0.0220 -0.1876
 7793W        W 7993  10.189  14.957   4.091 -0.2291 -0.1797 -0.2050
 7794W        W 7994   4.360  14.011   8.036  0.1147 -0.0794  0.1318
 7795W        W 7995   9.188   7.421   7.975 -0.3167  0.1403  0.0354
 7796W        W 7996   2.132   6.072  14.617  0.2729  0.1959  0.0324
 7797W        W 7997   6.663   3.072   9.305 -0.0569 -0.0975  0.0069
 7798W        W 7998  11.632  13.970   0.344 -0.2483  0.5267 -0.1258
 7799W        W 7999   1.817   3.861   8.484  0.0574  0.0327  0.2163
 7800W        W 8000  15.118   7.575  10.540 -0.3196  0.1365  0.1550
 7801W        W 8001  14.453  14.975   9.348 -0.1666 -0.0512  0.1433
 7802W        W 8002  12.784   4.819   5.916 -0.1351 -0.1952 -0.1436
 7803W        W 8003  12.571  12.455  12.648 -0.2011  0.0944  0.1141
 7804W        W 8004   7.603   7.082  15.175 -0.3465  0.0867 -0.1147
 7805W        W 8005   5.282   8.446   0.732 -0.1074 -0.0471 -0.1688
 7806W        W 8006  11.648   5.410  12.102  0.2933  0.3041  0.0084
 7807W        W 8007   2.648   1.246   2.197  0.4990 -0.0810  0.2249
 7808W        W 8008   1.418  12.295   9.258 -0.1120 -0.4168  0.2366
 7809W        W 8009   8.253  14.204   8.194 -0.0021  0.0606 -0.0456
 7810W        W 8010   9.950   2.573   1.958 -0.1047 -0.1219 -0.1079
 7811W        W 8011   1.566  13.262   5.973 -0.3522 -0.5854 -0.0080
 7812W        W 8012   9.892  13.824  11.527 -0.2514  0.5064  0.3726
 7813W        W 8013   7.955   7.027   9.350 -0.0492 -0.2788  0.0753
 7814W        W 8014  14.484  14.016   9.467 -0.1644 -0.0662 -0.0071
 7815W        W 8015   3.182   3.003   4.396  0.0755  0.0798 -0.2550
 7816W        W 8016   4.487   1.795  14.475  0.1581  0.0567 -0.2051
 7817W        W 8017  13.689  14.874   0.116 -0.0627  0.4785 -0.1146
 7818W        W 8018  13.987   8.805  11.469  0.0606  0.0822  0.0393
 7819W        W 8019  10.957  12.276   3.881 -0.0818  0.1173  0.0243
 7820W        W 8020  12.634   5.461   7.414  0.1398 -0.2575 -0.0260
 7821W        W 8021   1.973   3.480  10.878  0.0083 -0.2567 -0.2219
 7822W        W 8022  14.283   3.379  11.926  0.1514  0.0762 -0.0085
 7823W        W 8023   3.285   8.674  11.474 -0.0203  0.0199 -0.1089
 7824W        W 8024  10.063  11.971  12.400 -0.0607  0.1686  0.0135
 7825W        W 8025   5.586   3.559   5.418  0.0137 -0.4956  0.1673
 7826W        W 8026  10.462   5.563  14.914  0.2118 -0.1460  0.2077
 7827W        W 8027  10.130  14.728   5.459 -0.0881 -0.0801 -0.2338
 7828W        W 8028   3.326  12.069   3.715  0.1396 -0.1106 -0.0180
 7829W        W 8029   0.565   0.421   7.497  0.1263 -0.0661 -0.0184
 7830W        W 8030   8.327  12.754  13.586  0.1244 -0.1690 -0.1315
 7831W        W 8031   8.005  14.768   7.647  0.1779  0.2789 -0.0763
 7832W        W 8032   1.872   0.215   0.058 -0.0813 -0.3467  0.2000
 7833W        W 8033   4.168  12.502   3.700 -0.0285 -0.3315 -0.1142
 7834W        W 8034   7.766   4.925   5.693 -0.1891  0.0909 -0.1286
 7835W        W 8035   7.889   7.848   6.694  0.0555 -0.3990 -0.1289
 7836W        W 8036   1.137   1.156  10.392 -0.2199  0.0005 -0.1636
 7837W        W 8037   8.218   5.815   3.433 -0.1150 -0.0315 -0.0042
 7838W        W 8038   5.164   0.047   3.508 -0.1015 -0.0646  0.0676
 7839W        W 8039   7.745  15.193   2.447 -0.4135 -0.1956  0.1523
 7840W        W 8040   7.020   7.942   7.302  0.1387  0.0979  0.2098
 7841W        W 8041   4.420   3.686   4.049 -0.2831 -0.3381  0.1443
 7842W        W 8042   6.982   0.112   3.813  0.2023  0.1343 -0.0311
 7843W        W 8043   0.120   6.929   9.749  0.0020  0.1076 -0.0179
 7844W        W 8044   5.792   0.100  13.984 -0.3546 -0.3729 -0.3769
 7845W        W 8045   1.235  13.316   9.438 -0.2281 -0.1799  0.2721
 7846W        W 8046   0.985  13.908   8.294  0.0968  0.5330  0.1495
 7847W        W 8047  14.982  12.873   8.877 -0.0660  0.0120  0.0433
 7848W        W 8048   3.765   5.010   7.919 -0.0180  0.1821  0.1247
 7849W        W 8049   8.344   7.467  14.997 -0.3427  0.4430 -0.0662
 7850W        W 8050   4.900   1.672   6.762  0.0045  0.1352  0.1070
 7851W        W 8051   4.654   2.899   4.202  0.0007  0.5092 -0.0341
 7852W        W 8052  11.698   0.541  12.214 -0.2606 -0.2122 -0.0575
 7853W        W 8053   3.003   5.841  13.116  0.0187 -0.1164 -0.1402
 7854W        W 8054   5.381   4.287   0.422  0.0091  0.0151  0.1144
 7855W        W 8055  11.450   1.950  10.160  0.1219 -0.2481  0.1739
 7856W        W 8056   3.031   2.151   7.656  0.2005  0.1050  0.4502
 7857W        W 8057   5.569   7.929  10.973 -0.0685 -0.0085 -0.4871
 7858W        W 8058   6.991   5.666   5.580 -0.1021  0.1041 -0.0226
 7859W        W 8059  10.053   7.960  14.625 -0.0627  0.1473 -0.1634
 7860W        W 8060  10.257   7.398   1.150 -0.1338 -0.0802 -0.1830
 7861W        W 8061   4.518   6.657   4.217  0.0845  0.0085  0.0830
 7862W        W 8062  11.982   2.446  14.286 -0.0968 -0.1495  0.3248
 7863W        W 8063   9.424   6.413   4.446  0.4861 -0.0579 -0.1442
 7864W        W 8064  11.076   7.280   4.497 -0.2974  0.0565  0.0898
 7865W        W 8065  10.578  11.614   3.393 -0.3899 -0.3115  0.0388
 7866W        W 8066   7.146   4.897   2.851  0.0618  0.0441  0.0660
 7867W        W 8067   3.706   6.050   8.494 -0.0165 -0.3869  0.0740
 7868W        W 8068   0.069   7.275   2.609  0.0887 -0.0983 -0.4221
 7869W        W 8069  14.558   7.130   7.876 -0.0273  0.0442 -0.3793
 7870W        W 8070   2.138   1.331  13.865  0.1157 -0.2570  0.1117
 7871W        W 8071  11.497   2.965  12.793  0.1032  0.0443 -0.1351
 7872W        W 8072   4.090   2.463  14.529  0.0796  0.1128  0.0563
 7873W        W 8073   5.581   9.833   6.047  0.1395 -0.0307  0.2242
 7874W        W 8074   3.531  12.276   6.701 -0.0435 -0.1115  0.1869
 7875W        W 8075  10.329   7.389   6.936 -0.1905  0.1025 -0.0841
 7876W        W 8076  12.007   4.136   8.204 -0.0246 -0.0113  0.3050
 7877W        W 8077   5.065  10.654   0.718 -0.0742  0.0965 -0.0540
 7878W        W 8078   3.483   2.563   7.957  0.0706 -0.0707  0.2806
 7879W        W 8079   5.438  11.100   7.267  0.1785  0.0301 -0.0365
 7880W        W 8080   4.954   0.523   5.094 -0.1874 -0.1597  0.0178
 7881W        W 8081   9.468  11.077  10.315 -0.1267 -0.3279 -0.3822
 7882W        W 8082   6.872   6.642  11.659 -0.1717  0.0181 -0.1637
 7883W        W 8083   9.438   2.366   0.377 -0.0017 -0.2742 -0.0160
 7884W        W 8084   6.695  13.816   7.543  0.0478  0.3168 -0.1321
 7885W        W 8085   2.169   3.977   4.206 -0.3053  0.1570 -0.1021
 7886W        W 8086   1.929   1.208  12.354 -0.3054 -0.1787 -0.2656
 7887W        W 8087   2.438   4.554  13.799 -0.1487 -0.0706 -0.0822
 7888W        W 8088   5.710   2.838  12.248 -0.0478  0.1361  0.1410
 7889W        W 8089   7.523  15.146   6.263  0.2669  0.3022  0.1257
 7890W        W 8090   4.519  12.708   8.234  0.1767  0.1680  0.0082
 7891W        W 8091   6.130  14.128  10.907  0.1088 -0.1089  0.1859
 7892W        W 8092  11.464   4.958   8.948 -0.2576 -0.4364  0.0298
 7893W        W 8093  14.268   2.038   7.278 -0.2200 -0.0728 -0.0942
 7894W        W 8094   4.100   7.824   8.999 -0.1100  0.2067 -0.2605
 7895W        W 8095   7.749   3.211  12.624  0.1806 -0.1134  0.0658
 7896W        W 8096  11.857   1.516   8.368  0.1542  0.1571  0.0597
 7897W        W 8097  13.039   0.920  10.546 -0.3678  0.0107 -0.0043
 7898W        W 8098  13.531   9.558   2.925  0.1950 -0.0492 -0.1113
 7899W        W 8099   1.895  11.561   8.952  0.2621 -0.1424  0.0725
 7900W        W 8100   1.641  12.477   6.698  0.1234 -0.0117 -0.1571
 7901W        W 8101   9.756  12.898   1.207 -0.1033 -0.0008 -0.0672
 7902W        W 8102   8.144  12.559   6.306 -0.0231 -0.0198 -0.0922
 7903W        W 8103  10.503   4.740   9.073  0.0047  0.1080 -0.4853
 7904W        W 8104   7.774   5.625   7.541 -0.3118  0.2861 -0.0220
 7905W        W 8105   4.248  12.721   6.169  0.0538 -0.1500 -0.2964
 7906W        W 8106   5.900   2.787  13.417  0.0544  0.3225 -0.0251
 7907W        W 8107   3.485   0.344   8.882 -0.2357  0.2116 -0.0520
 7908W        W 8108   8.034   6.350   2.313  0.0845  0.1805 -0.1045
 7909W        W 8109   6.084   5.871  12.514 -0.0376  0.1473  0.0490
 7910W        W 8110   8.183   6.717   4.014  0.1551 -0.1064 -0.4445
 7911W        W 8111   7.555   9.400  10.078 -0.2770  0.0574  0.1274
 7912W        W 8112   5.027   2.269   3.253  0.0924  0.1455  0.1049
 7913W        W 8113   8.995   4.068   3.581  0.1632 -0.3927 -0.1161
 7914W        W 8114  10.456  14.257  14.120  0.0255  0.4618  0.1370
 7915W        W 8115  11.079   3.594   3.018  0.1191 -0.1264  0.2179
 7916W        W 8116   4.493   2.899   7.632  0.3383  0.4914  0.0370
 7917W        W 8117   2.863   5.603   8.329  0.0728  0.2993  0.2892
 7918W        W 8118   0.482   2.055  13.468 -0.1424  0.1197  0.0472
 7919W        W 8119  11.037  12.678  11.448 -0.2814 -0.1903  0.0672
 7920W        W 8120  12.506   7.512   9.384 -0.0852 -0.0516 -0.0902
 7921W        W 8121  10.377   4.043  11.684  0.2734 -0.1382  0.0008
 7922W        W 8122  14.671   6.213   1.303  0.0319 -0.3750  0.2303
 7923W        W 8123  10.143   3.436   2.392 -0.1303  0.0585  0.0228
 7924W        W 8124   9.224   7.462   8.518 -0.1996 -0.1093 -0.0271
 7925W        W 8125   1.696   2.077   5.203  0.0108 -0.0887 -0.1277
 7926W        W 8126   5.883   7.362   6.394 -0.3222  0.0339 -0.1247
 7927W        W 8127   8.758  13.346  14.459  0.2875 -0.0818  0.0158
 7928W        W 8128   2.418   5.895   1.831  0.1245  0.2622 -0.0223
 7929W        W 8129   4.245   8.248  11.647  0.0950 -0.0169  0.3732
 7930W        W 8130   9.312   8.950   8.349  0.0719  0.2005  0.1661
 7931W        W 8131  12.608  15.184   9.740 -0.1299 -0.0192  0.2193
 7932W        W 8132   3.105  12.592   8.614 -0.0903  0.0452  0.1443
 7933W        W 8133   1.309   7.795   8.012 -0.0228  0.1056 -0.4214
 7934W        W 8134   1.451  13.399   1.736  0.3025  0.1305 -0.0897
 7935W        W 8135   6.920  12.100   8.120  0.0523  0.0924  0.0663
 7936W        W 8136   9.719   4.395   4.347 -0.0810  0.2362  0.2663
 7937W        W 8137   4.588   3.219   5.492  0.0749 -0.1861 -0.2189
 7938W        W 8138   6.709   0.514   9.308 -0.0166 -0.0781  0.1367
 7939W        W 8139   6.739  10.738   1.365  0.0907  0.0219 -0.1799
 7940W        W 8140  10.702   2.630  14.091 -0.3046 -0.2424 -0.1667
 7941W        W 8141   6.903  12.929   7.028 -0.3324  0.1509 -0.4906
 7942W        W 8142   5.503   2.796   7.995  0.2340 -0.3199  0.0214
 7943W        W 8143   4.717  10.521   8.042 -0.1266 -0.1840  0.2249
 7944W        W 8144  11.352   0.128   8.590 -0.1969  0.1963  0.2036
 7945W        W 8145   8.598  11.985  11.921 -0.0273  0.4913 -0.0871
 7946W        W 8146   5.125   4.206   1.261  0.1008 -0.1547 -0.1696
 7947W        W 8147   4.176  11.632  13.613  0.1225 -0.1893 -0.1034
 7948W        W 8148   8.085  13.021   6.425 -0.0196 -0.0616 -0.1722
 7949W        W 8149   4.627   1.166   6.158  0.1907  0.1642 -0.0350
 7950W        W 8150  13.971  13.965  10.861 -0.3329  0.4797 -0.1069
 7951W        W 8151   5.480   6.429   5.277 -0.3103 -0.1517  0.0035
 7952W        W 8152   0.671   7.269   7.606  0.0506 -0.0357  0.4859
 7953W        W 8153   3.416   8.398   2.530 -0.1730 -0.1917  0.0921
 7954W        W 8154  13.733  13.821  12.747 -0.0941 -0.1222 -0.2960
 7955W        W 8155   4.608   0.314   4.318 -0.1181  0.0551  0.0071
 7956W        W 8156   3.754   7.393   6.277 -0.0532  0.0317  0.0198
 7957W        W 8157  10.883   0.747  10.065 -0.0120  0.3414 -0.1168
 7958W        W 8158   8.551  13.044   9.858 -0.1061 -0.1181  0.1856
 7959W        W 8159   0.115   1.700  11.158  0.1537 -0.1705  0.1773
 7960W        W 8160   6.859   1.057   2.048  0.1370  0.0352  0.0944
 7961W        W 8161   3.576   3.226  12.668  0.0052  0.1609 -0.2234
 7962W        W 8162  11.917   1.056   8.477  0.3182 -0.1631  0.0446
 7963W        W 8163   6.389   3.390   8.843  0.1964  0.0481 -0.1620
 7964W        W 8164   8.806  12.477  12.015  0.0848  0.1307  0.0929
 7965W        W 8165  15.029  14.854   2.144 -0.0893 -0.2100 -0.0157
 7966W        W 8166   5.364  13.573  11.022 -0.1486 -0.0283 -0.1259
 7967W        W 8167   9.937   5.841  11.643  0.0994  0.0705 -0.0153
 7968W        W 8168   7.089  12.361   5.860 -0.0031  0.0632 -0.1589
 7969W        W 8169   5.374   0.514   5.876  0.3779 -0.0206 -0.0728
 7970W        W 8170   5.437   6.069   8.548 -0.1359 -0.2565  0.0020
 7971W        W 8171  14.639  13.229   8.951  0.1045  0.1722  0.0980
 7972W        W 8172   3.560  13.352   6.934 -0.0563  0.2263 -0.0746
 7973W        W 8173   6.845   3.663   8.862 -0.0697  0.0237 -0.2816
 7974W        W 8174   9.960   5.713  10.962 -0.0736 -0.0416 -0.0973
 7975W        W 8175  13.792  13.931   7.016 -0.2243 -0.0667  0.2319
 7976W        W 8176   0.923   2.490  14.823 -0.2510 -0.0423  0.1705
 7977W        W 8177   5.428  13.274   2.311  0.1087  0.0235 -0.0408
 7978W        W 8178   9.307   2.902   1.997  0.0501 -0.0048  0.3139
 7979W        W 8179  10.177   0.160   7.994 -0.2563 -0.3389  0.1262
 7980W        W 8180   3.845  12.762  12.793 -0.0444  0.1626 -0.0246
 7981W        W 8181  14.312   2.085  10.906  0.0351 -0.0546  0.0301
 7982W        W 8182   4.517   3.623   2.786 -0.0934 -0.2904  0.3375
 7983W        W 8183   2.462   4.453   7.421  0.0283  0.0220 -0.0122
 7984W        W 8184   5.635   5.453   6.447 -0.1328  0.1514  0.1182
 7985W        W 8185   4.870  13.306  11.833 -0.0791  0.0479 -0.1121
 7986W        W 8186  11.814  13.052   8.144 -0.4159  0.2017  0.0717
 7987W        W 8187  13.185  12.913  10.918  0.1296  0.3737 -0.2181
 7988W        W 8188   8.029   6.056  13.658  0.1563 -0.2534 -0.0724
 7989W        W 8189   7.677  11.905  13.836  0.0034 -0.0510 -0.2986
 7990W        W 8190   2.606  13.884   2.348 -0.3049 -0.2496  0.0116
 7991W        W 8191   5.469   0.546   8.151 -0.0648 -0.0377  0.2020
 7992W        W 8192   4.795  12.975  10.910  0.0812 -0.1701  0.2020
 7993W        W 8193   7.829   7.984   0.648 -0.0246  0.0410 -0.0686
 7994W        W 8194   2.831  11.928   3.783  0.2540  0.0048 -0.0819
 7995W        W 8195   4.614  11.513   7.182 -0.3006  0.0254 -0.2203
 7996W        W 8196   8.965   4.680   9.541 -0.0170  0.2596 -0.1861
 7997W        W 8197   6.822  11.275   6.956  0.0757  0.3033  0.1756
 7998W        W 8198   5.176   2.536   8.665 -0.0232 -0.1188 -0.2828
 7999W        W 8199   9.691  10.837   4.160  0.3320  0.0209  0.1058
 8000W        W 8200   3.639   4.328   1.412  0.2029 -0.1254  0.2803
 8001W        W 8201   9.110   1.423   3.673  0.0708  0.0970  0.1134
 8002W        W 8202   6.512  11.097  14.243 -0.2422  0.1674 -0.1568
 8003W        W 8203   0.711  13.296   6.431 -0.0480 -0.1702 -0.0149
 8004W        W 8204   0.215   9.244   2.633  0.1273  0.1346  0.0199
 8005W        W 8205  12.701  15.058   7.851 -0.0186  0.1041 -0.1110
 8006W        W 8206  11.337  14.681  11.660  0.2480  0.0657  0.2959
 8007W        W 8207   9.761  13.490  14.354 -0.1442 -0.0748  0.2740
 8008W        W 8208   5.447   2.428  11.339 -0.0749 -0.4564  0.0711
 8009W        W 8209   5.147   2.705   5.027 -0.1852  0.0309 -0.0051
 8010W        W 8210   8.341   8.113   4.421  0.1682 -0.0195  0.0491
 8011W        W 8211   3.004   9.557   6.691 -0.2367  0.0302  0.1065
 8012W        W 8212  11.322   7.577   8.794  0.0769 -0.3919 -0.2004
 8013W        W 8213   3.359  14.671   9.077  0.0023 -0.1665 -0.1094
 8014W        W 8214  10.606   5.687  13.803 -0.0667  0.3769 -0.0028
 8015W        W 8215   3.017  11.161  10.315 -0.0622  0.0389  0.2262
 8016W        W 8216   7.751   0.831   2.468  0.0075  0.4581  0.0681
 8017W        W 8217  11.707   8.071   5.074  0.0217 -0.1035  0.1354
 8018W        W 8218   4.952   5.906   7.857  0.0024  0.0316 -0.0135
 8019W        W 8219   7.881   8.267   1.103 -0.1125  0.1058 -0.1220
 8020W        W 8220   1.829  13.889  10.987 -0.1583 -0.0875  0.0490
 8021W        W 8221   6.313  12.109   3.479 -0.0720  0.2854 -0.0179
 8022W        W 8222   9.857   3.099   4.554 -0.0659  0.0340  0.0406
 8023W        W 8223   9.318   3.421   0.205 -0.2804  0.1015  0.0701
 8024W        W 8224  10.146   5.598   9.093 -0.2765  0.0617 -0.5503
 8025W        W 8225  12.200  15.014   3.081 -0.0109  0.0618 -0.2397
 8026W        W 8226   3.546  13.839  10.406  0.2572 -0.0643  0.1000
 8027W        W 8227   7.920   9.347   5.724  0.0431  0.0924  0.1411
 8028W        W 8228   0.947   3.673   9.688 -0.1161 -0.2499  0.1479
 8029W        W 8229   5.978  13.326   8.787 -0.0928 -0.2273 -0.2233
 8030W        W 8230   5.601   3.184  10.899 -0.1559 -0.1177 -0.0560
 8031W        W 8231   3.976   2.948   3.992 -0.2558  0.1383 -0.1736
 8032W        W 8232   5.415   3.771   1.401  0.1499 -0.2681  0.0005
 8033W        W 8233   4.546   3.848   9.110  0.1729 -0.1686  0.0039
 8034W        W 8234   5.432  11.431   5.372 -0.0202 -0.3112 -0.1040
 8035W        W 8235  12.351   9.809   9.627  0.1112  0.0284 -0.0827
 8036W        W 8236   0.911  11.316  10.059  0.1013 -0.0118 -0.1195
 8037W        W 8237   9.961   3.952   3.298 -0.0956  0.2374  0.3017
 8038W        W 8238   7.015  14.754   9.355  0.1174 -0.2168  0.0707
 8039W        W 8239   9.693   5.141   6.770  0.0394 -0.0954  0.0673
 8040W        W 8240  13.205  14.910  15.008 -0.0446  0.0830  0.0838
 8041W        W 8241   9.615   5.753  12.806  0.1632 -0.0046 -0.0074
 8042W        W 8242  12.573  12.425   9.161  0.1600  0.1403  0.0774
 8043W        W 8243   5.028  13.292   5.913 -0.1225  0.1851 -0.0035
 8044W        W 8244   9.597   9.272   6.386  0.0356 -0.0707 -0.3084
 8045W        W 8245   5.360  15.064  12.162  0.1188  0.0087  0.1407
 8046W        W 8246  10.782  14.455  11.575 -0.0063  0.1952 -0.2591
 8047W        W 8247  13.099  12.665   4.969  0.0778  0.1560  0.0535
 8048W        W 8248   9.090   6.058   9.591 -0.1521 -0.3172 -0.0755
 8049W        W 8249   3.969   3.939  12.297  0.1674 -0.2227  0.1461
 8050W        W 8250   0.102   3.336   9.661 -0.1278 -0.0267 -0.0003
 8051W        W 8251  10.691   4.266   5.273  0.3435 -0.1914 -0.0585
 8052W        W 8252   7.578   2.726   1.584 -0.0168  0.1689  0.1741
 8053W        W 8253   6.791   2.559   4.359  0.1012 -0.0604  0.0475
 8054W        W 8254   4.020   1.600   5.895 -0.2294 -0.2232  0.0606
 8055W        W 8255   4.069  11.101   8.389  0.2520 -0.0876 -0.0503
 8056W        W 8256   5.410  11.556  13.497  0.0739 -0.5215 -0.1853
 8057W        W 8257  13.885  11.587   4.910 -0.0975  0.3707  0.0336
 8058W        W 8258   7.813   0.646  12.342  0.1104 -0.1687 -0.1737
 8059W        W 8259   3.001   6.074  10.595  0.1509  0.2183  0.0352
 8060W        W 8260   5.622   4.486   2.016  0.0712  0.0194 -0.0219
 8061W        W 8261   6.247   3.048   8.341 -0.1292 -0.1796  0.2962
 8062W        W 8262   7.715   8.938   9.890 -0.4656 -0.2974  0.0908
 8063W        W 8263  11.396   6.382   4.116 -0.0719 -0.0337 -0.0067
 8064W        W 8264   5.263   5.978   7.432 -0.0801  0.1011 -0.2561
 8065W        W 8265  10.415  11.093   4.809  0.0110  0.1704  0.1479
 8066W        W 8266  14.941   4.109   2.082 -0.2176  0.1181 -0.2906
 8067W        W 8267   0.777   1.573   1.883 -0.0030  0.1475  0.1159
 8068W        W 8268   4.745   1.448  13.378 -0.3055 -0.2733 -0.0250
 8069W        W 8269   8.404   0.067   6.921 -0.1664 -0.3685 -0.1405
 8070W        W 8270   3.339  10.391  10.223 -0.3466 -0.0335 -0.0428
 8071W        W 8271   0.738  13.548   8.029 -0.0778 -0.1602 -0.2474
 8072W        W 8272   8.074  10.280   9.271  0.1584 -0.2284  0.0540
 8073W        W 8273  13.474   8.001   2.181 -0.3147  0.0193  0.0002
 8074W        W 8274   8.742  11.712   7.145 -0.0848  0.1718  0.0794
 8075W        W 8275   6.164  11.107  11.462 -0.2025  0.0427 -0.1458
 8076W        W 8276  11.103   9.616   0.013  0.0295  0.1762 -0.2066
 8077W        W 8277   1.749  13.997  13.534  0.0854  0.3651 -0.1125
 8078W        W 8278  10.449  13.420  12.304  0.1073 -0.1037 -0.3803
 8079W        W 8279  10.671   2.056   5.319  0.2590  0.0263  0.2770
 8080W        W 8280   9.268  15.061   5.582  0.0762 -0.1288  0.1276
 8081W        W 8281   2.534   4.257   8.709  0.0487  0.0252  0.2173
 8082W        W 8282  11.337  14.237   9.251 -0.0800 -0.0268  0.1719
 8083W        W 8283   8.693  11.125   5.943 -0.1601  0.1591  0.0939
 8084W        W 8284   6.085  14.665  12.499 -0.0393  0.2194  0.1840
 8085W        W 8285  14.592   5.941   9.307  0.0613  0.2337  0.0064
 8086W        W 8286  14.061   1.770  13.989 -0.0420 -0.3180  0.0129
 8087W        W 8287  13.060  14.023  14.468  0.0522 -0.3178  0.1889
 8088W        W 8288   1.236   6.044   9.690 -0.2536  0.2395 -0.3190
 8089W        W 8289   8.547   1.494   7.110 -0.4208  0.0640 -0.1342
 8090W        W 8290   6.623  14.019   4.055  0.0683 -0.1243  0.0159
 8091W        W 8291   9.532   3.234   8.083 -0.0221  0.0787  0.2069
 8092W        W 8292   6.779  10.191   6.081 -0.3019 -0.4075  0.0755
 8093W        W 8293   7.616  10.895   6.012 -0.3168  0.2977 -0.1517
 8094W        W 8294   1.709  14.989   4.632  0.0016 -0.0951  0.0869
 8095W        W 8295  10.012   3.829  13.829 -0.2856 -0.1161  0.4959
 8096W        W 8296   5.083   3.622   8.507  0.2276 -0.1333  0.1098
 8097W        W 8297   0.207   4.109  12.140 -0.3667  0.0692 -0.0369
 8098W        W 8298   8.394   3.269   2.399  0.0075 -0.0430  0.4237
 8099W        W 8299   9.335   8.051  15.129 -0.1017 -0.1278  0.1105
 8100W        W 8300   4.882   9.522   7.942  0.0759  0.1482  0.2500
 8101W        W 8301  12.278  14.923  12.090 -0.1812  0.0446  0.0132
 8102W        W 8302  10.190  13.979   4.359 -0.0640 -0.2399 -0.1715
 8103W        W 8303   5.856  12.552   9.293  0.1175 -0.0083 -0.1103
 8104W        W 8304   1.737   3.336  12.237 -0.0496 -0.1098 -0.2463
 8105W        W 8305   2.594   7.398   7.352 -0.1673  0.0347 -0.0111
 8106W        W 8306   8.781   1.301   2.966 -0.1552  0.0364  0.0268
 8107W        W 8307   9.527   0.436   7.244  0.1858  0.2562 -0.2760
 8108W        W 8308   6.925   6.758   8.337 -0.2333  0.2906  0.0248
 8109W        W 8309   2.983   4.018   6.325  0.0414  0.2545  0.1197
 8110W        W 8310  13.528  11.054   7.549 -0.0624 -0.3893 -0.0945
 8111W        W 8311   8.549  13.373  12.385  0.0137 -0.0440 -0.1095
 8112W        W 8312   9.205   0.127   0.134  0.4945  0.0419 -0.0994
 8113W        W 8313   0.930  11.590   6.745  0.0979  0.1345 -0.1013
 8114W        W 8314   7.913   5.622  11.993  0.2124 -0.1416 -0.4394
 8115W        W 8315   7.533  13.416   8.804  0.0706  0.2542  0.0512
 8116W        W 8316   2.354   6.937   9.798  0.1590  0.0532 -0.0695
 8117W        W 8317   7.954   7.207   8.539  0.0926 -0.0132  0.0849
 8118W        W 8318   2.318   0.041  14.443  0.1404  0.0341  0.2409
 8119W        W 8319   2.256  11.234  12.009  0.1423 -0.0926  0.0567
 8120W        W 8320  11.715  14.011   4.023 -0.2582  0.1380 -0.1264
 8121W        W 8321  10.895   0.007  12.624 -0.1272 -0.3366  0.3642
 8122W        W 8322   2.643   9.104   7.480  0.3317 -0.1566 -0.1325
 8123W        W 8323   2.873   5.378  10.690  0.2393  0.1572 -0.1261
 8124W        W 8324   3.418   7.297   2.627  0.1259  0.1610  0.0991
 8125W        W 8325   1.949   6.805   5.890 -0.0072  0.3240 -0.1649
 8126W        W 8326  14.461  11.098  10.201 -0.0496 -0.0247  0.0086
 8127W        W 8327   5.771   9.521   9.361  0.0071  0.0662 -0.4046
 8128W        W 8328   4.773   6.283  11.204  0.2497 -0.4104  0.2586
 8129W        W 8329  13.983   8.995  14.069  0.1920 -0.1470  0.1520
 8130W        W 8330   3.966   0.272   9.689 -0.3665 -0.2064 -0.1331
 8131W        W 8331  13.330   2.103  12.335 -0.1487  0.2257  0.5521
 8132W        W 8332   0.537   3.250   3.953  0.3297  0.3387 -0.1340
 8133W        W 8333   2.137  11.862   0.393  0.1550  0.1515 -0.1022
 8134W        W 8334   1.896   1.027  14.833 -0.0021  0.1407 -0.0097
 8135W        W 8335  14.664   5.771   9.989  0.0149 -0.1114  0.3033
 8136W        W 8336   5.719   2.036   8.984  0.1442  0.0379 -0.1712
 8137W        W 8337   3.979   2.599  13.222  0.1095  0.1703  0.2393
 8138W        W 8338   3.960   6.198  10.447  0.2987 -0.1238  0.0320
 8139W        W 8339   2.585   1.657   4.526 -0.4048  0.2468  0.1048
 8140W        W 8340   0.005  12.856   5.943  0.3093 -0.1779  0.0713
 8141W        W 8341  12.861  12.836  14.328 -0.2631  0.0995  0.0927
 8142W        W 8342   0.737   4.559   7.330 -0.1427  0.0207 -0.0723
 8143W        W 8343   9.224   7.996  10.006  0.0580 -0.0084 -0.0277
 8144W        W 8344   9.716   0.808   9.253 -0.4677  0.1466 -0.0417
 8145W        W 8345   6.111   9.520   8.157 -0.3590  0.1171  0.0969
 8146W        W 8346   4.316   1.218  15.033 -0.3089 -0.3832  0.1081
 8147W        W 8347   4.436   2.247  12.388  0.1326 -0.1417  0.1977
 8148W        W 8348   0.582  12.389   9.081 -0.1359  0.3345  0.0090
 8149W        W 8349  13.262   1.046   6.712 -0.0086 -0.0456 -0.1776
 8150W        W 8350   0.969   3.685   7.171 -0.2536 -0.0101  0.1588
 8151W        W 8351   9.226  11.345   9.955 -0.2812 -0.0182 -0.1790
 8152W        W 8352   1.254  14.404   3.417  0.2792 -0.0940 -0.0857
 8153W        W 8353   1.123   6.510   6.099 -0.1860  0.0402 -0.1884
 8154W        W 8354   4.976   4.935   2.359  0.1531 -0.2304  0.1860
 8155W        W 8355  13.154  13.196   7.994  0.1529  0.0523  0.0246
 8156W        W 8356   8.142   9.142   6.673 -0.1010 -0.1109  0.0574
 8157W        W 8357  12.023   4.552   3.448  0.0245  0.2971  0.4031
 8158W        W 8358   3.743   7.284   5.251 -0.2285  0.1785  0.2778
 8159W        W 8359  12.331   5.794  11.741 -0.0979  0.0645  0.3231
 8160W        W 8360   1.335  15.113   2.141  0.0898 -0.4728 -0.0108
 8161W        W 8361   8.565  10.543   3.249 -0.2171 -0.1591  0.1975
 8162W        W 8362   4.983   2.219  11.109  0.1469  0.0851  0.2487
 8163W        W 8363  10.553   7.089   8.067 -0.1100 -0.0290 -0.0020
 8164W        W 8364   1.688   1.133   6.968 -0.2736  0.0003 -0.1093
 8165W        W 8365   9.296   1.558   8.785 -0.3213 -0.0497  0.1313
 8166W        W 8366   1.916   1.139  10.938 -0.3542 -0.0753  0.4447
 8167W        W 8367   7.116   9.467   6.327 -0.0202  0.1334 -0.1498
 8168W        W 8368   2.269   5.220  13.148  0.1162  0.0511 -0.1410
 8169W        W 8369   2.896  11.539   5.541 -0.1777  0.0194  0.0463
 8170W        W 8370   2.623   0.098   6.231  0.2771  0.0812 -0.0054
 8171W        W 8371  14.291  14.953   8.772 -0.1094  0.0889 -0.1458
 8172W        W 8372   2.533   8.123   7.265 -0.1211 -0.2173 -0.1751
 8173W        W 8373   9.238   0.301  12.167  0.2044 -0.0554 -0.0568
 8174W        W 8374   3.606  13.747   0.534  0.1858 -0.0075 -0.0317
 8175W        W 8375  11.198   8.533   8.959  0.1488 -0.2106 -0.1076
 8176W        W 8376   3.925   4.364   3.793  0.1309 -0.0955  0.0590
 8177W        W 8377   0.905   3.407  13.544 -0.2219  0.1349  0.1219
 8178W        W 8378   8.410   6.257   6.550 -0.2289 -0.0390  0.0427
 8179W        W 8379   9.543   0.877   6.294 -0.2286  0.0026  0.2108
 8180W        W 8380   8.110  11.320   7.744 -0.1955 -0.1632  0.1867
 8181W        W 8381   4.814   6.176  13.250 -0.0290  0.3786 -0.0491
 8182W        W 8382   1.255  13.768  10.221  0.2824  0.4257 -0.1355
 8183W        W 8383   5.754   7.240  10.293 -0.0301  0.1131  0.1948
 8184W        W 8384   8.583   4.548   0.531 -0.1252 -0.2707  0.0152
 8185W        W 8385  13.665   2.007   8.089 -0.0952 -0.0536  0.1699
 8186W        W 8386   4.759   0.930   0.623  0.3416 -0.2285  0.2313
 8187W        W 8387   6.102  13.081  13.962 -0.0349 -0.2388  0.1947
 8188W        W 8388   7.322  11.710  14.175 -0.1668 -0.0712 -0.2631
 8189W        W 8389  13.357   2.284   6.703  0.1475 -0.3910 -0.1948
 8190W        W 8390  10.594   1.081   9.025  0.1208  0.0053 -0.1142
 8191W        W 8391   7.301  11.223   8.094  0.0702 -0.1948 -0.3574
 8192W        W 8392  13.193   7.052  10.664  0.2735  0.0023 -0.0791
 8193W        W 8393  12.054   8.217   9.020  0.1376 -0.3525 -0.1231
 8194W        W 8394   2.622   4.566   9.460  0.2832 -0.0431  0.0799
 8195W        W 8395   6.154  13.288   9.265  0.0049  0.0535 -0.0745
 8196W        W 8396  10.290   6.601  12.929 -0.1114 -0.0340 -0.2610
 8197W        W 8397   3.403   5.066   0.597  0.1959  0.0988  0.1025
 8198W        W 8398   4.738   2.699   2.318 -0.2071  0.1726  0.0618
 8199W        W 8399   3.813  10.918  10.994 -0.2687 -0.4534  0.0130
 8200W        W 8400  12.961   5.583   1.438 -0.3867 -0.1083 -0.1337
 8201W        W 8401  10.072   5.186   3.184  0.0325 -0.3454 -0.3688
 8202W        W 8402  11.435   1.037   8.252 -0.0159 -0.3248 -0.0737
 8203W        W 8403   4.593   0.432  11.062  0.2085 -0.0924  0.0824
 8204W        W 8404   8.555  10.200   2.172  0.0863  0.1269 -0.1533
 8205W        W 8405   2.505   7.649  11.090  0.0214 -0.0559 -0.0268
 8206W        W 8406  13.902   8.979  15.193  0.4197  0.1708 -0.0970
 8207W        W 8407   4.104  14.492  11.778 -0.2201 -0.2401  0.2525
 8208W        W 8408   4.485  10.276  13.035  0.1329 -0.0409  0.1568
 8209W        W 8409   5.521   3.294   8.181 -0.0686 -0.1874  0.1906
 8210W        W 8410   0.695  12.804  11.722  0.1439 -0.0839 -0.1577
 8211W        W 8411   9.703  13.788   1.790  0.0355 -0.2149 -0.0212
 8212W        W 8412  10.118  11.235  14.815 -0.1278  0.1039  0.0262
 8213W        W 8413   2.338  12.513   8.060  0.4620  0.0866 -0.1562
 8214W        W 8414   5.096  14.736  12.435 -0.1112 -0.1803  0.0809
 8215W        W 8415   0.830  14.962   6.316  0.2671  0.0414 -0.0473
 8216W        W 8416   5.223   7.263   0.122 -0.0491 -0.0392 -0.3573
 8217W        W 8417   8.033  12.517   0.560 -0.0802  0.1567 -0.1470
 8218W        W 8418  13.753  12.728   8.360 -0.0707  0.0494  0.1198
 8219W        W 8419   0.618   1.024   8.816 -0.0941 -0.2770 -0.0050
 8220W        W 8420   5.628   1.378   7.655  0.0831 -0.2780  0.0252
 8221W        W 8421   4.523   3.357   7.308  0.0081 -0.0132 -0.1006
 8222W        W 8422  14.134   2.026   0.053  0.0363 -0.1229 -0.1016
 8223W        W 8423   4.732  14.120  12.877  0.2334  0.1352 -0.2714
 8224W        W 8424   1.697   4.541   8.988  0.0260  0.1067 -0.2845
 8225W        W 8425   1.881   2.846   7.124  0.1112 -0.1854 -0.3498
 8226W        W 8426   7.008   0.123  12.912 -0.2655 -0.2253  0.0912
 8227W        W 8427   7.767   0.451  13.836  0.0820  0.4999 -0.2598
 8228W        W 8428   1.170  10.554   5.987 -0.0335 -0.2061  0.0187
 8229W        W 8429   8.553   2.006   5.624 -0.2006 -0.1882 -0.0553
 8230W        W 8430  11.064  10.913   8.069  0.0781  0.0190  0.0523
 8231W        W 8431   4.617   3.559  11.200  0.0365 -0.3457  0.0711
 8232W        W 8432  12.121   6.691   2.569  0.2345  0.1940 -0.0192
 8233W        W 8433   7.917   7.136  14.773 -0.0001  0.0470  0.0553
 8234W        W 8434   7.556  11.797  14.722  0.0369  0.0656 -0.0838
 8235W        W 8435   7.702  12.852   4.052  0.0506  0.4596 -0.0002
 8236W        W 8436  13.625  12.602  10.771 -0.0620 -0.0917  0.0885
 8237W        W 8437   3.734   1.320   8.324 -0.0038 -0.2131 -0.1444
 8238W        W 8438   7.636   5.092  12.041  0.0734  0.1789 -0.1490
 8239W        W 8439   0.649   4.602  12.816  0.0111  0.2716  0.1758
 8240W        W 8440  10.081   6.747   8.894 -0.2068 -0.3556 -0.2261
 8241W        W 8441   4.677   9.654   5.817 -0.2723 -0.1513  0.1580
 8242W        W 8442   5.711  14.502   6.387  0.0099  0.0815 -0.4817
 8243W        W 8443   7.977   0.446  15.065 -0.0643  0.1527 -0.1665
 8244W        W 8444   0.816  13.898   1.892  0.1184  0.3165 -0.0052
 8245W        W 8445   5.546   2.173   7.980 -0.1243 -0.0700  0.1950
 8246W        W 8446  14.550  11.797  13.291  0.0384  0.0358  0.0856
 8247W        W 8447   4.224  13.406  14.549 -0.2491 -0.0643 -0.0611
 8248W        W 8448  10.100   0.721   8.765  0.2642  0.1254  0.1274
 8249W        W 8449   9.447   2.952   5.446  0.0870 -0.2271 -0.1507
 8250W        W 8450  12.287   5.847  13.359  0.3519 -0.0522 -0.0335
 8251W        W 8451   7.212   0.450  13.249  0.1653  0.0676  0.1494
 8252W        W 8452   6.228   3.854   4.157 -0.0529 -0.2277  0.5170
 8253W        W 8453   8.598  12.492   9.762 -0.3628  0.0832  0.1357
 8254W        W 8454   5.791   4.973  10.802 -0.0218 -0.0499 -0.1419
 8255W        W 8455   2.665   3.006  12.548  0.0281  0.0713 -0.2607
 8256W        W 8456   4.890  11.390   8.617 -0.0470  0.1735  0.1753
 8257W        W 8457   5.315  12.536   9.128 -0.0679 -0.1378 -0.0888
 8258W        W 8458  10.269   9.810  12.986  0.3909 -0.0048 -0.3102
 8259W        W 8459   4.951   1.782  10.623 -0.4715 -0.3176 -0.1350
 8260W        W 8460   9.321  12.523   5.916  0.0002  0.0658  0.3100
 8261W        W 8461   9.373   6.889   6.246 -0.0198  0.0356 -0.1692
 8262W        W 8462   0.638   0.478   6.949 -0.0863 -0.0980  0.0771
 8263W        W 8463   1.522   9.237   4.720  0.0652 -0.0948 -0.0700
 8264W        W 8464   4.036   5.604   2.070  0.4400  0.2586 -0.2068
 8265W        W 8465   7.108  12.313  11.821 -0.1612 -0.0909  0.2507
 8266W        W 8466  12.995   4.579   1.379  0.1332 -0.3377  0.0454
 8267W        W 8467   1.111   8.663   4.340 -0.2515  0.1035 -0.0080
 8268W        W 8468   4.397   4.097   7.157 -0.0445  0.1739  0.2483
 8269W        W 8469   8.958   3.081  11.149  0.4842  0.1708  0.1628
 8270W        W 8470   5.635   2.980   6.964 -0.3892 -0.2770 -0.0096
 8271W        W 8471   5.789   5.171   0.710  0.0815 -0.0264 -0.1886
 8272W        W 8472   9.604   0.980  12.074  0.2528 -0.3262  0.4251
 8273W        W 8473   5.108  10.340  14.968  0.0660 -0.0893 -0.3279
 8274W        W 8474   8.873   9.683  12.835  0.2911  0.2232  0.3052
 8275W        W 8475   6.826   5.539  14.608  0.0957  0.0911  0.3450
 8276W        W 8476  14.019  10.592   6.367 -0.0212  0.0681 -0.1050
 8277W        W 8477   9.466   3.611  13.063  0.0978  0.1070  0.1414
 8278W        W 8478   5.775   1.157  12.354  0.0770  0.0791  0.2168
 8279W        W 8479  12.551  14.976   8.810 -0.0143 -0.0173  0.2577
 8280W        W 8480  10.761   2.847   5.996 -0.0804 -0.1446 -0.0823
 8281W        W 8481   2.310  10.890  13.379  0.2739 -0.0663  0.0884
 8282W        W 8482  10.846  10.440   2.303  0.1744  0.5530  0.0040
 8283W        W 8483   6.225   4.356   3.527  0.1153  0.0024  0.0123
 8284W        W 8484   1.494   4.559  10.612 -0.0640  0.1992 -0.1285
 8285W        W 8485   6.986   4.711   5.376  0.0625 -0.1056 -0.3563
 8286W        W 8486   1.938   1.701   1.912 -0.0027 -0.0593  0.1187
 8287W        W 8487   7.797   4.480   9.893  0.0530  0.3327  0.4013
 8288W        W 8488   0.150   7.475  10.129 -0.3083  0.1853  0.1906
 8289W        W 8489  14.061   0.703  12.658  0.0947 -0.0896  0.1566
 8290W        W 8490  12.512   4.290   6.750 -0.0579 -0.4115 -0.2460
 8291W        W 8491   3.441   7.803   7.273  0.0361  0.1983 -0.0592
 8292W        W 8492   6.970  13.209  14.528 -0.0880  0.3528 -0.2863
 8293W        W 8493  11.628   1.208  10.646  0.0699 -0.0716  0.0028
 8294W        W 8494   5.101   4.555   2.749 -0.1154  0.0044 -0.1073
 8295W        W 8495  13.522  10.804   9.362 -0.0003  0.1051  0.1538
 8296W        W 8496   6.458   4.579   5.279 -0.0760  0.1321 -0.2627
 8297W        W 8497   0.332   8.706   7.974 -0.1072  0.1943  0.3166
 8298W        W 8498  12.146   4.363  12.429  0.0412 -0.2278  0.2051
 8299W        W 8499  13.469  11.331   9.411 -0.0749  0.0350 -0.0095
 8300W        W 8500   5.872  14.632   1.043  0.0926  0.1187  0.0016
 8301W        W 8501   7.365   0.524   8.456  0.0165 -0.3241 -0.1371
 8302W        W 8502  12.068   4.961   2.251 -0.1884 -0.3366  0.0675
 8303W        W 8503   2.849  13.091   4.946  0.1954  0.2119  0.2707
 8304W        W 8504   8.840   5.885   0.777  0.1340 -0.1899  0.0050
 8305W        W 8505   8.895  13.214   3.751  0.1408  0.0538 -0.1646
 8306W        W 8506   4.187  13.282  12.012 -0.1106  0.0746  0.0935
 8307W        W 8507   5.351  10.426  12.483  0.4203  0.0581  0.0801
 8308W        W 8508  13.061   7.855   6.715  0.1135 -0.0937 -0.0758
 8309W        W 8509   8.377  10.992   9.808 -0.3041  0.0188 -0.1402
 8310W        W 8510   3.287   2.162   5.611 -0.0153  0.0782  0.1502
 8311W        W 8511   5.502  10.586   6.233  0.2562  0.1044  0.0915
 8312W        W 8512   2.173  13.203   6.333 -0.0317 -0.0967  0.1947
 8313W        W 8513  10.016   0.734  10.175 -0.2631  0.1113 -0.1185
 8314W        W 8514  13.897   8.649   1.701 -0.1913  0.1624 -0.1027
 8315W        W 8515   0.703  11.958   9.228  0.1821 -0.1505  0.0456
 8316W        W 8516   6.058   0.815   9.869 -0.0813 -0.0575  0.3421
 8317W        W 8517   3.249  12.808   4.463  0.1083 -0.2863 -0.1066
 8318W        W 8518   6.096  14.079   2.741  0.0179 -0.0040 -0.1175
 8319W        W 8519  10.881   6.606   6.591  0.1292  0.2179  0.2222
 8320W        W 8520   0.087   0.108  14.203 -0.0267  0.0216  0.2965
 8321W        W 8521   7.719   0.772   1.977 -0.0692 -0.0700 -0.0914
 8322W        W 8522   2.065   2.997   6.294 -0.0550  0.1839  0.4152
 8323W        W 8523  10.384  12.145   1.226  0.2372 -0.1397 -0.2477
 8324W        W 8524   1.659  15.139   1.296  0.1125  0.0321 -0.3112
 8325W        W 8525   7.336  13.178   3.041  0.0218 -0.0912  0.1601
 8326W        W 8526   5.907   0.806  12.023 -0.1453  0.3406 -0.0848
 8327W        W 8527  13.808  14.744  12.274 -0.1858  0.1869 -0.1382
 8328W        W 8528   3.904   4.411  12.628 -0.1307  0.2332 -0.1674
 8329W        W 8529   2.991  13.697   9.126 -0.0970 -0.1432 -0.0588
 8330W        W 8530  15.090   3.818  12.301 -0.0136 -0.3284  0.1028
 8331W        W 8531   4.187  11.328   6.308 -0.2045 -0.0090  0.2649
 8332W        W 8532   8.862  10.967  11.025  0.1385  0.0345 -0.1283
 8333W        W 8533   9.738  12.366   5.671 -0.1829  0.3813  0.1047
 8334W        W 8534  13.392   0.915   0.372  0.1260 -0.2122 -0.0241
 8335W        W 8535   5.330  10.610  13.688 -0.1518  0.0788  0.0452
 8336W        W 8536   6.068   8.278  14.635  0.2976  0.1549 -0.1328
 8337W        W 8537   5.825   4.898  11.670 -0.1227  0.1726 -0.0073
 8338W        W 8538   6.128   8.587   1.929 -0.1377 -0.0795  0.2307
 8339W        W 8539  11.087   9.183   3.795 -0.0449  0.0805 -0.2047
 8340W        W 8540   1.534  12.071   3.634 -0.2160 -0.1175  0.2237
 8341W        W 8541   6.033   1.403  12.018 -0.1207 -0.2395  0.0748
 8342W        W 8542   8.942   4.479   4.403 -0.1112 -0.1436 -0.0390
 8343W        W 8543   3.488  10.150  13.460  0.3937 -0.0061 -0.0186
 8344W        W 8544   8.789  12.464   3.333 -0.3114  0.2732 -0.3556
 8345W        W 8545   5.142   3.350   7.254  0.1196 -0.0872 -0.0907
 8346W        W 8546   8.658  14.256   9.723  0.1636  0.1803  0.0610
 8347W        W 8547  11.130   2.423  13.862  0.1753 -0.0088  0.5121
 8348W        W 8548   9.621   1.964   5.762  0.2518  0.2444  0.2732
 8349W        W 8549  10.425   7.634   2.003 -0.1458 -0.0535 -0.0938
 8350W        W 8550   6.697   4.117  10.158  0.2329 -0.1708 -0.1634
 8351W        W 8551   7.397  10.587   1.614  0.2076  0.0745  0.2412
 8352W        W 8552   4.954   7.963   4.472 -0.0564  0.0359 -0.0948
 8353W        W 8553   7.538   3.068   4.329  0.0771  0.3149 -0.0784
 8354W        W 8554   6.005   8.161  10.914  0.0955 -0.0715  0.4139
 8355W        W 8555   6.401   2.310   9.732 -0.3114 -0.0041 -0.1989
 8356W        W 8556   7.475  13.927   7.890  0.0403  0.1445  0.0178
 8357W        W 8557  11.057  10.666   1.918  0.1536 -0.0484 -0.0016
 8358W        W 8558  10.492  13.942  13.326 -0.0429 -0.1958 -0.1960
 8359W        W 8559   6.850  13.093   3.947  0.1393 -0.0008 -0.1729
 8360W        W 8560   2.870   4.666  14.071 -0.2246 -0.0827  0.2499
 8361W        W 8561  12.276   7.255  10.717  0.1464  0.3283  0.1131
 8362W        W 8562   9.329   0.747  15.103  0.2978 -0.1868  0.0434
 8363W        W 8563  14.827   1.976  13.500  0.0183 -0.4369  0.2744
 8364W        W 8564   3.936   4.203  13.142 -0.0065  0.0195  0.1247
 8365W        W 8565   7.030   8.821   0.116 -0.3279  0.3502 -0.0480
 8366W        W 8566  10.300  10.976  11.409 -0.1640 -0.1639 -0.2968
 8367W        W 8567   8.549  12.235  13.863 -0.0289 -0.0311  0.0274
 8368W        W 8568   8.206   1.247   4.634 -0.0078  0.1727  0.0059
 8369W        W 8569   6.944  13.501   1.115  0.0975 -0.3830  0.2554
 8370W        W 8570   8.345   0.571  13.204 -0.1984 -0.0723  0.1082
 8371W        W 8571   4.022   1.542  13.103  0.2646 -0.2164  0.2153
 8372W        W 8572   5.316   2.018   5.505  0.1525 -0.0466  0.0980
 8373W        W 8573   9.977   1.455  11.442  0.2104 -0.1191  0.0596
 8374W        W 8574   8.051  14.798   9.382 -0.2139 -0.1813 -0.0929
 8375W        W 8575   3.369  13.872   0.935 -0.4190 -0.0113 -0.1763
 8376W        W 8576   0.947  15.044  13.157  0.0985 -0.1389 -0.2515
 8377W        W 8577  14.754  13.225   1.443  0.0338 -0.1186  0.0250
 8378W        W 8578  13.203   0.251  11.873  0.1005 -0.0003  0.0668
 8379W        W 8579   1.079  12.235   3.411 -0.4105 -0.0140  0.1950
 8380W        W 8580   2.368   4.433   3.252 -0.2608 -0.0655 -0.1994
 8381W        W 8581   5.795  13.522   8.046 -0.2234  0.1515  0.1421
 8382W        W 8582   4.175   0.564  13.373 -0.3407 -0.2080 -0.1622
 8383W        W 8583   9.716   0.919   3.393  0.0864 -0.0520 -0.2729
 8384W        W 8584  14.559   5.260   5.764  0.1482 -0.2032  0.1295
 8385W        W 8585   7.395   5.763   0.984  0.1528 -0.3665  0.2402
 8386W        W 8586   2.435  13.331  11.507  0.0709 -0.5024  0.1975
 8387W        W 8587   4.404   4.903  14.889  0.0405 -0.4137  0.0255
 8388W        W 8588   6.880   1.990  12.189 -0.1873  0.1114 -0.2167
 8389W        W 8589   4.852  10.445  12.758 -0.1162 -0.0136 -0.2705
 8390W        W 8590  11.252   4.793  12.123  0.0684 -0.1845  0.0292
 8391W        W 8591   9.186   3.788  12.587  0.0434  0.1095  0.3673
 8392W        W 8592   6.452   4.002  13.105  0.0571 -0.1479  0.0241
 8393W        W 8593   5.826  10.937  14.852 -0.1781  0.0988 -0.0030
 8394W        W 8594   8.312  10.903  10.791 -0.0057 -0.0721  0.0614
 8395W        W 8595   7.745  14.665   0.412 -0.0011  0.0316  0.0393
 8396W        W 8596  13.550   3.097  10.347 -0.1876 -0.5030  0.0604
 8397W        W 8597   0.796   3.495   9.095 -0.0009 -0.5552 -0.0728
 8398W        W 8598   3.321   5.332  11.779 -0.1557  0.0310 -0.2988
 8399W        W 8599   7.248  12.364   4.833  0.1673  0.1129  0.0210
 8400W        W 8600   2.501  10.524  14.151  0.1413 -0.1423  0.0932
 8401W        W 8601  12.061   4.352   2.970 -0.1485  0.3222  0.0311
 8402W        W 8602   9.508   5.393  14.804 -0.0377  0.1005 -0.0912
 8403W        W 8603   8.117   2.121   2.087  0.3935  0.1091  0.2802
 8404W        W 8604   2.376   3.266  11.200  0.4136  0.4187  0.2955
 8405W        W 8605   2.454   3.850   2.022 -0.2373 -0.2333 -0.0918
 8406W        W 8606  12.455  15.070   5.990 -0.0057  0.2270  0.2225
 8407W        W 8607   6.485   3.263   3.248  0.1950  0.0730 -0.0888
 8408W        W 8608   9.128  13.596   9.101 -0.1983  0.0475  0.3851
 8409W        W 8609   9.102   1.531   2.271  0.1671  0.1371 -0.1649
 8410W        W 8610   1.917   9.641  10.813  0.3201 -0.1447 -0.0306
 8411W        W 8611   1.777   1.713   4.821 -0.3940  0.3189  0.0539
 8412W        W 8612   1.137   1.359   0.634 -0.2482 -0.1194  0.2651
 8413W        W 8613   6.846   9.351   6.724  0.0672 -0.2727  0.0940
 8414W        W 8614   3.790  14.379  10.439 -0.2254 -0.2863  0.0451
 8415W        W 8615   5.796   8.152  14.070  0.2470  0.3562 -0.2873
 8416W        W 8616  11.552  14.873   2.993 -0.2615  0.1463 -0.0833
 8417W        W 8617   5.567   1.915   8.513 -0.2150  0.1697 -0.0615
 8418W        W 8618   3.459   4.588  12.701 -0.1079  0.0073 -0.2092
 8419W        W 8619   5.156   3.149  14.941  0.0221 -0.1537 -0.0031
 8420W        W 8620   8.146   0.396   1.597  0.2601 -0.0352 -0.0727
 8421W        W 8621   9.728  15.138   0.322 -0.1538  0.0857  0.0353
 8422W        W 8622  12.171   0.457   3.997  0.2873 -0.2221  0.0330
 8423W        W 8623   5.985   3.323  10.090  0.0835 -0.0158  0.0326
 8424W        W 8624   0.965   7.041   5.412 -0.2420 -0.0139  0.0413
 8425W        W 8625  11.822   1.347   9.049  0.1140 -0.1269 -0.0188
 8426W        W 8626  13.554   1.863  13.974  0.1517  0.1962  0.2100
 8427W        W 8627   4.256   0.110   8.208  0.0176 -0.0924  0.1149
 8428W        W 8628   2.219  10.842   8.982 -0.0321 -0.4112  0.2364
 8429W        W 8629   6.364   8.098   9.537  0.1460 -0.0117  0.0516
 8430W        W 8630   7.338   4.230   9.589 -0.0354 -0.0561 -0.1719
 8431W        W 8631   7.386   6.937  11.825  0.0597  0.0664 -0.0717
 8432W        W 8632   2.362   9.186  12.971 -0.0534  0.0432  0.3089
 8433W        W 8633   3.792  12.820   0.086 -0.2074  0.1729 -0.3438
 8434W        W 8634  12.108  10.749   2.755 -0.2726  0.0754  0.3470
 8435W        W 8635   8.557   3.060   4.557  0.1240 -0.2648 -0.2175
 8436W        W 8636   7.375   3.933   4.562 -0.1654  0.0957 -0.0024
 8437W        W 8637   3.685  15.168   4.411 -0.1988 -0.0771 -0.1069
 8438W        W 8638  12.696   7.938   2.108 -0.0150 -0.0310  0.0815
 8439W        W 8639   1.602   0.083   0.583 -0.1385  0.0851 -0.2582
 8440W        W 8640  12.539   2.296  14.219  0.3398 -0.0252  0.3471
 8441W        W 8641   6.962   6.370  10.025 -0.1097 -0.0610 -0.1951
 8442W        W 8642   5.647   1.842   2.124  0.1694 -0.0793  0.1157
 8443W        W 8643   4.132   0.017  12.591 -0.2030  0.2614  0.2319
 8444W        W 8644  14.963  10.539  12.391 -0.0039 -0.2392 -0.0230
 8445W        W 8645  15.164   5.616   4.020 -0.0026 -0.1137 -0.0866
 8446W        W 8646  10.333  12.520   0.868 -0.0992 -0.2905  0.1584
 8447W        W 8647   6.910   9.342  14.009 -0.1162  0.1269 -0.1661
 8448W        W 8648  14.357  14.342   3.017  0.4053  0.1634  0.1334
 8449W        W 8649   2.927   4.795  14.882  0.3319 -0.0736 -0.1295
 8450W        W 8650   1.275   1.525   5.980  0.2266  0.0448  0.1319
 8451W        W 8651   6.384  11.787   0.148 -0.1998  0.3297  0.3260
 8452W        W 8652   7.497   0.784  12.967  0.1316 -0.2419 -0.0958
 8453W        W 8653   5.535   2.837   0.071 -0.3835  0.2445 -0.0958
 8454W        W 8654   3.301   7.015   8.019 -0.1591 -0.0181 -0.0318
 8455W        W 8655  11.444   7.504   0.040 -0.0474 -0.0168  0.0443
 8456W        W 8656   4.628   5.113   6.775  0.0269  0.0349  0.1417
 8457W        W 8657   9.407  14.433  10.424 -0.0542  0.1100 -0.0581
 8458W        W 8658   6.189   5.703   7.858 -0.2220 -0.3328 -0.3447
 8459W        W 8659   0.553   0.879  13.036 -0.2660  0.2648 -0.0379
 8460W        W 8660   8.761   1.677  12.060  0.0626 -0.2057 -0.1355
 8461W        W 8661  10.598   8.025  14.928  0.2627  0.1208 -0.0150
 8462W        W 8662   8.227   9.325  11.109  0.0447  0.0413  0.3281
 8463W        W 8663   7.513   1.274   9.529 -0.0556 -0.1816  0.1467
 8464W        W 8664  13.445   4.250   9.956  0.2552  0.1768 -0.2864
 8465W        W 8665   7.719   1.599  14.253 -0.0657 -0.1619  0.0912
 8466W        W 8666  13.229   0.533  15.116  0.1341  0.0719 -0.0353
 8467W        W 8667  11.633   1.973   8.023  0.2841 -0.0943  0.1430
 8468W        W 8668   5.714   2.775   4.993 -0.2811  0.2979  0.1331
 8469W        W 8669  10.248  13.634  12.894  0.1434  0.1113 -0.4678
 8470W        W 8670   3.822   8.898  12.920 -0.0332 -0.0216  0.1072
 8471W        W 8671  10.919   9.342   7.397  0.0695  0.1628 -0.0621
 8472W        W 8672  12.949  11.950  11.996  0.1206 -0.4077 -0.2117
 8473W        W 8673  12.946   5.946   1.803 -0.2348 -0.0595  0.0704
 8474W        W 8674   9.561  11.853   2.402 -0.2227  0.3143 -0.0202
 8475W        W 8675  11.224  13.637   0.383 -0.1909  0.0446  0.2497
 8476W        W 8676  13.658  14.401   9.126 -0.1906  0.1538  0.4960
 8477W        W 8677   0.036   2.587   7.305 -0.3091 -0.0735 -0.0884
 8478W        W 8678  12.016  10.731  13.898 -0.1637 -0.2401 -0.1581
 8479W        W 8679   7.656  14.727   4.401  0.0095 -0.4252 -0.2425
 8480W        W 8680   5.750   1.246   6.696  0.1271  0.2351 -0.0480
 8481W        W 8681   0.702  14.317   2.123  0.0010  0.0176 -0.0005
 8482W        W 8682  10.183  14.347  13.488  0.0178 -0.1559  0.0516
 8483W        W 8683   6.937  11.314  11.748 -0.0558 -0.0495  0.1249
 8484W        W 8684  10.449   4.828  11.847  0.0489 -0.0380 -0.0741
 8485W        W 8685   4.916   7.030   2.645 -0.0206 -0.2258 -0.0197
 8486W        W 8686  13.923  13.477   7.982  0.2675  0.1754  0.0128
 8487W        W 8687  15.114  11.066  11.482 -0.1203 -0.0371 -0.0847
 8488W        W 8688   9.354   6.446  14.049  0.1871  0.0915  0.1165
 8489W        W 8689   4.503  14.113   8.512  0.0041  0.2162 -0.0235
 8490W        W 8690   3.721   9.001  13.775  0.1110 -0.3982  0.3806
 8491W        W 8691  11.691  14.358   0.775  0.0325 -0.1986  0.1800
 8492W        W 8692  12.510  10.502   2.639  0.3227  0.0581 -0.1389
 8493W        W 8693   9.238  14.450  13.291  0.1331  0.1806 -0.0508
 8494W        W 8694   5.396   0.665   5.337  0.0366  0.2684 -0.1495
 8495W        W 8695   3.835  10.348  12.704 -0.0544  0.1610 -0.0564
 8496W        W 8696   9.070   8.333  13.578 -0.3842  0.0614 -0.2315
 8497W        W 8697   5.682  14.650   3.990 -0.2218 -0.2691 -0.0027
 8498W        W 8698   7.412   2.164   2.185 -0.0843  0.0784  0.0440
 8499W        W 8699  14.381  14.023  10.583  0.0326  0.1085  0.3208
 8500W        W 8700   5.836  12.412  13.293 -0.0398 -0.3578 -0.0024
 8501W        W 8701  10.517   1.451   7.086  0.1907  0.0775  0.2665
 8502W        W 8702   2.461  11.690   4.103 -0.1149 -0.0965  0.2305
 8503W        W 8703  10.576  10.636  12.092  0.1839  0.2332 -0.3947
 8504W        W 8704   3.410   6.583   8.402  0.0233 -0.2081 -0.0806
 8505W        W 8705   1.289  10.252   2.544  0.0591 -0.1980 -0.0135
 8506W        W 8706   1.113  10.833  10.995 -0.0786  0.1892 -0.1784
 8507W        W 8707   3.908  14.127   8.211  0.1532 -0.1989  0.0374
 8508W        W 8708   3.851  13.419   6.465 -0.3122 -0.1281 -0.1311
 8509W        W 8709   3.189   2.923  14.860  0.1724 -0.1482 -0.0095
 8510W        W 8710   5.335   9.159   3.091  0.1777  0.2462  0.0458
 8511W        W 8711   2.812  12.497  10.318 -0.1172 -0.0092 -0.0834
 8512W        W 8712  11.866   2.090   8.470  0.0747  0.0506 -0.2057
 8513W        W 8713   8.575  14.519   2.761 -0.0926  0.0160  0.2403
 8514W        W 8714   6.739   2.859   9.933 -0.2521 -0.0828 -0.1852
 8515W        W 8715   0.603   2.472   3.150 -0.0161  0.1799 -0.0523
 8516W        W 8716   4.272   1.681  11.702  0.0743  0.0320 -0.0732
 8517W        W 8717   7.841   5.341   6.474  0.2985 -0.0143 -0.0085
 8518W        W 8718  10.433   1.954   6.277 -0.0619  0.0307  0.2974
 8519W        W 8719  10.478  14.927  12.126  0.0436  0.0902 -0.0324
 8520W        W 8720   9.290   3.758   1.402 -0.2086  0.1270 -0.0702
 8521W        W 8721  10.000   8.189   9.035  0.0209  0.1897  0.0525
 8522W        W 8722  14.262   2.407  12.903  0.0008 -0.0434  0.1920
 8523W        W 8723  10.614   3.355   9.320  0.1040 -0.1602  0.1253
 8524W        W 8724   6.563   0.926   3.995  0.2588 -0.0069 -0.2439
 8525W        W 8725   4.506   0.471   4.841  0.2601  0.2308  0.2110
 8526W        W 8726  12.968   0.643   6.778 -0.0154  0.0812 -0.1356
 8527W        W 8727   4.695   1.829  11.903 -0.1513  0.2518 -0.0788
 8528W        W 8728   4.206   8.487   8.859  0.2325 -0.1955  0.1798
 8529W        W 8729  11.637   4.171   3.629 -0.1662 -0.1514  0.2692
 8530W        W 8730   3.925   0.945   7.030 -0.0881 -0.3523  0.0778
 8531W        W 8731   4.495  14.507   9.017  0.1327 -0.2939 -0.2187
 8532W        W 8732   4.257   2.555   7.931  0.3680  0.1223 -0.1480
 8533W        W 8733  15.176  14.491  12.659 -0.1379  0.1217 -0.0946
 8534W        W 8734   3.221   1.697   1.502  0.0213 -0.2420 -0.0767
 8535W        W 8735  14.512   2.345   2.544 -0.1465  0.1338 -0.0494
 8536W        W 8736   3.318   9.023   9.570 -0.0381  0.0809 -0.0686
 8537W        W 8737  14.627   3.862   9.640  0.0180  0.0172 -0.1022
 8538W        W 8738  10.412   8.527   3.526 -0.1167  0.1535 -0.3256
 8539W        W 8739   6.413   5.956   2.652  0.0265  0.0892  0.1108
 8540W        W 8740   7.687   3.391   8.586 -0.1765 -0.3215 -0.1416
 8541W        W 8741  10.892  13.544   5.414  0.1093  0.2638  0.2983
 8542W        W 8742   7.360   1.613   4.638  0.1247  0.0718 -0.0039
 8543W        W 8743   3.289   3.542   3.316  0.1240  0.0637 -0.1307
 8544W        W 8744   7.978   5.205  12.400  0.0789 -0.1940  0.1082
 8545W        W 8745  11.342  12.051  13.002 -0.0066 -0.2017 -0.1293
 8546W        W 8746   4.727   6.282  11.700  0.0696 -0.1417  0.4366
 8547W        W 8747   8.519   2.305   6.550 -0.2625 -0.0233 -0.0282
 8548W        W 8748   9.689   2.113   8.020  0.0826 -0.1551 -0.1385
 8549W        W 8749   8.198   0.217   8.804 -0.1261 -0.0152 -0.0611
 8550W        W 8750  11.405  14.787   4.827 -0.1192 -0.0503  0.1040
 8551W        W 8751   5.811   4.582   3.723 -0.2983 -0.1082 -0.0598
 8552W        W 8752  14.782  14.723   5.258 -0.2145  0.4282  0.2826
 8553W        W 8753   1.731   7.087   7.107  0.0370 -0.1356  0.0866
 8554W        W 8754   2.575   0.100  14.873 -0.3970 -0.0218  0.0898
 8555W        W 8755   5.040  14.676  10.138  0.0036 -0.1014 -0.1523
 8556W        W 8756   3.029   3.273   7.055  0.0456  0.2305 -0.0739
 8557W        W 8757  12.438   6.726  13.488  0.0067  0.3559 -0.0163
 8558W        W 8758   3.735   4.052   8.132 -0.1357 -0.0177  0.0181
 8559W        W 8759  12.352  13.089   5.540  0.0804 -0.2598  0.0573
 8560W        W 8760  11.590   2.547  14.596 -0.2654  0.2370  0.0521
 8561W        W 8761   5.536   6.733  12.302  0.3496 -0.0619 -0.3350
 8562W        W 8762   1.182   1.701  13.157  0.0191  0.2971 -0.0156
 8563W        W 8763   6.649  10.211   8.686 -0.3392  0.0377  0.2709
 8564W        W 8764  14.490   9.870  11.530 -0.5235  0.2266 -0.1299
 8565W        W 8765   7.343  12.871   5.677  0.0781  0.1647  0.2081
 8566W        W 8766   5.448   4.246   6.755 -0.0017 -0.1079 -0.1715
 8567W        W 8767  10.226   8.276   0.205  0.1983 -0.0413 -0.1629
 8568W        W 8768   3.921  10.454   4.591  0.0543 -0.1659 -0.0181
 8569W        W 8769   6.784  14.375   1.611 -0.0695  0.0026 -0.1757
 8570W        W 8770   5.434   8.958  13.621  0.1885  0.2556 -0.4158
 8571W        W 8771   8.749  14.969   6.594 -0.1169 -0.0515 -0.3680
 8572W        W 8772   3.794   0.167   6.125  0.0989 -0.0517  0.3025
 8573W        W 8773   5.199   1.484   1.837 -0.1168  0.0108  0.0570
 8574W        W 8774   7.189  12.370   9.861 -0.0664 -0.2349 -0.0562
 8575W        W 8775   7.313  13.993  12.209  0.1810  0.2845 -0.2415
 8576W        W 8776   8.393  10.562  14.468  0.3999  0.1800  0.1029
 8577W        W 8777   5.577   3.588  13.274 -0.2105  0.0384  0.2185
 8578W        W 8778   5.600   0.838   4.097  0.0695  0.1473  0.0814
 8579W        W 8779   9.021  12.000  13.821  0.0138  0.0011  0.3372
 8580W        W 8780   0.112  12.988   4.897 -0.3760 -0.1787  0.3844
 8581W        W 8781   3.539   9.840  10.804  0.1928 -0.2210 -0.1289
 8582W        W 8782   7.204  12.360   5.328  0.0968  0.0133  0.1689
 8583W        W 8783   7.367   1.211   3.151 -0.0077 -0.2191 -0.2714
 8584W        W 8784  10.825   3.214  10.573 -0.2357 -0.0352 -0.0915
 8585W        W 8785   9.333  12.391   4.494 -0.0220 -0.1049 -0.1003
 8586W        W 8786   2.469  14.652   6.923  0.0754 -0.1420  0.0424
 8587W        W 8787   3.258   0.677   8.651  0.1234  0.1917 -0.0727
 8588W        W 8788   3.785  15.126  14.914 -0.1263  0.1484  0.1324
 8589W        W 8789   6.935   0.843  14.007 -0.0253  0.0643 -0.0732
 8590W        W 8790  10.721   5.814   3.484 -0.0398  0.0450  0.0233
 8591W        W 8791  11.804   3.125  10.609 -0.0656  0.1829 -0.1121
 8592W        W 8792   4.752  15.174   9.330 -0.0157 -0.1361  0.1216
 8593W        W 8793   4.635   6.004   6.951  0.2462 -0.0367  0.2074
 8594W        W 8794   3.962   8.843  12.442  0.1666  0.1237  0.0683
 8595W        W 8795   3.148   4.261  12.565 -0.2148 -0.1398 -0.0937
 8596W        W 8796   9.507  13.590   2.563  0.2106  0.2932 -0.1854
 8597W        W 8797  14.338   0.963   2.422  0.0072 -0.1062  0.1565
 8598W        W 8798   8.576  12.885   6.364 -0.1710 -0.0627  0.0459
 8599W        W 8799   5.531  12.144   6.409  0.0558  0.1387  0.0593
 8600W        W 8800   2.421  13.939   1.456  0.1005  0.0428  0.3842
 8601W        W 8801   6.504  10.270   5.563  0.0176 -0.0204  0.3135
 8602W        W 8802   9.081  13.975   1.481 -0.2360 -0.1369 -0.3465
 8603W        W 8803  14.588   3.292  12.826  0.0778 -0.0509  0.2418
 8604W        W 8804   7.671  13.582   3.374 -0.0102 -0.2589 -0.3228
 8605W        W 8805  10.068   9.682  13.884 -0.0908 -0.1920  0.0637
 8606W        W 8806  12.231  15.148   0.258 -0.2830 -0.0396  0.1056
 8607W        W 8807   2.483   5.045   4.710 -0.0823 -0.0991 -0.2605
 8608W        W 8808   1.269   7.377   5.080  0.0758  0.1540  0.0858
 8609W        W 8809   6.853  14.111  11.679 -0.1186  0.4084  0.3429
 8610W        W 8810   7.953   4.734   8.982 -0.0061 -0.3049 -0.0695
 8611W        W 8811   2.034   8.995   4.469 -0.0044  0.1495 -0.1579
 8612W        W 8812   0.432   3.747   9.581  0.1316  0.2266  0.0810
 8613W        W 8813  15.171  10.412  10.616 -0.1641  0.0933  0.1513
 8614W        W 8814   1.320  10.040  13.215 -0.1620 -0.3016 -0.4386
 8615W        W 8815   7.333   7.060   0.914  0.2962 -0.0675  0.1372
 8616W        W 8816   5.192   0.090  10.006  0.1847  0.1462 -0.3482
 8617W        W 8817   5.784   8.235  13.451 -0.1259 -0.0355  0.0188
 8618W        W 8818  14.406   5.839   0.932 -0.1486 -0.0485 -0.0285
 8619W        W 8819   5.530   3.437   8.669  0.2599 -0.2047 -0.0070
 8620W        W 8820   7.624   2.678   9.220  0.2080  0.2668 -0.1887
 8621W        W 8821  11.162   1.115   1.629 -0.1161  0.1603 -0.3535
 8622W        W 8822  10.337   1.776  11.610 -0.1834  0.1221  0.2152
 8623W        W 8823  10.143   0.538   0.606  0.2047  0.2201 -0.0131
 8624W        W 8824   7.586   1.204   7.486  0.0582  0.1289 -0.2318
 8625W        W 8825   5.629  13.615   9.045 -0.3459  0.2234 -0.2676
 8626W        W 8826   3.819   6.532   3.270  0.2879  0.2094  0.1548
 8627W        W 8827   8.514   4.535   1.002 -0.2054  0.0922 -0.3049
 8628W        W 8828  13.422   1.638   5.599  0.1094  0.2135  0.2453
 8629W        W 8829   5.550   7.751   2.926 -0.1062 -0.0908 -0.2578
 8630W        W 8830  10.830   3.094   0.519  0.0941 -0.0952 -0.1105
 8631W        W 8831   4.292   4.782   1.058 -0.2879  0.1949  0.2340
 8632W        W 8832  15.018   7.040  10.460  0.2767  0.0238 -0.1416
 8633W        W 8833   3.676   7.083  12.318 -0.3432 -0.0971 -0.0041
 8634W        W 8834   6.932   0.336   0.889 -0.1360 -0.0515 -0.0489
 8635W        W 8835  11.927   1.641   5.307 -0.1089  0.1315 -0.2070
 8636W        W 8836   2.542  11.680  11.414  0.0333 -0.0190 -0.2965
 8637W        W 8837  14.979   9.402   7.460 -0.1489  0.0322  0.0386
 8638W        W 8838   4.352   2.192   7.649  0.0278 -0.0680 -0.0804
 8639W        W 8839   4.756  13.252   0.582  0.0209 -0.2384  0.2050
 8640W        W 8840   7.601   9.468   6.267 -0.3946 -0.0322  0.2579
 8641W        W 8841   7.176  12.656   4.089  0.1676 -0.0616  0.0486
 8642W        W 8842  11.303   5.593  14.535  0.0228 -0.2218  0.2418
 8643W        W 8843   0.447   6.800  11.837  0.2894 -0.1861 -0.2358
 8644W        W 8844   5.752   9.086   3.326  0.2015 -0.3353 -0.1348
 8645W        W 8845   4.352  14.574  11.346  0.1809 -0.2909 -0.0132
 8646W        W 8846   2.227   8.230   1.662 -0.2026  0.1939  0.0839
 8647W        W 8847   2.815  14.850   6.626  0.2704 -0.2663 -0.0325
 8648W        W 8848   0.754   4.184   0.136  0.0329 -0.1828  0.0760
 8649W        W 8849  15.056  11.574   8.419  0.1010 -0.0516  0.1607
 8650W        W 8850   3.489   0.015   1.900 -0.0601 -0.1536  0.1274
 8651W        W 8851  12.372  13.927  10.227 -0.0667 -0.0453 -0.0057
 8652W        W 8852   9.628   2.019  10.105 -0.1447 -0.2636  0.2694
 8653W        W 8853   4.866  14.190   2.158  0.0783 -0.1467 -0.1829
 8654W        W 8854  12.787   2.384   8.809 -0.0799  0.0469  0.0035
 8655W        W 8855   6.096   9.800   0.686  0.2646  0.1609  0.0156
 8656W        W 8856  10.424   6.487  10.505 -0.1076 -0.0966 -0.0460
 8657W        W 8857   8.506  10.294  13.068 -0.1592 -0.2067  0.1182
 8658W        W 8858   7.869   0.024   9.132 -0.1744  0.0660 -0.1278
 8659W        W 8859  10.857  11.576  13.718 -0.0156 -0.2854 -0.0931
 8660W        W 8860  10.719   7.582  11.193 -0.0378  0.0044  0.1935
 8661W        W 8861   7.995  14.003  10.755 -0.1453 -0.3265  0.0577
 8662W        W 8862   3.364   9.935   6.471  0.0503  0.0407 -0.0629
 8663W        W 8863   4.271   4.989   4.153  0.2101  0.0445  0.2927
 8664W        W 8864   6.567   5.266   0.800  0.0883 -0.0091  0.1011
 8665W        W 8865  13.230   5.991   5.708  0.2731 -0.1645 -0.0671
 8666W        W 8866  10.766   9.100   2.282  0.1584 -0.3815  0.1610
 8667W        W 8867   4.608   3.034   3.404 -0.0719 -0.0403 -0.3135
 8668W        W 8868  11.543  14.620  12.906 -0.2150  0.0719  0.0403
 8669W        W 8869   5.553   5.136   9.080  0.2237 -0.1313  0.2587
 8670W        W 8870   8.462  12.276  14.929 -0.2288 -0.1098  0.1896
 8671W        W 8871  14.319  10.303   3.492 -0.0882  0.1766 -0.0968
 8672W        W 8872   1.936  12.876   0.938  0.0311 -0.0013  0.1170
 8673W        W 8873   1.346   2.069   2.445 -0.2222 -0.3180 -0.3170
 8674W        W 8874   5.271  14.202  11.669 -0.2654 -0.2188 -0.0238
 8675W        W 8875   6.813   8.391   9.302  0.0723 -0.3458 -0.1347
 8676W        W 8876   4.185   4.175   4.911 -0.2647 -0.0199 -0.1897
 8677W        W 8877   2.738   4.145  13.787 -0.0906 -0.2375 -0.0481
 8678W        W 8878   9.092   3.342   6.267 -0.1239 -0.1837  0.0446
 8679W        W 8879   7.828   7.230   5.502  0.4514  0.0614 -0.0685
 8680W        W 8880   6.808   2.542   7.086  0.0575 -0.1485 -0.1738
 8681W        W 8881   7.807  14.259   3.449 -0.0747  0.0025  0.1062
 8682W        W 8882  13.986   1.614   1.332  0.0247  0.2549 -0.1413
 8683W        W 8883   3.821   1.380   7.721 -0.0969  0.1424 -0.0336
 8684W        W 8884   4.504   6.526   1.940  0.2132 -0.1744 -0.3039
 8685W        W 8885   6.186   1.857  12.232 -0.2141 -0.2446 -0.1238
 8686W        W 8886   2.198   9.672   8.600  0.0452 -0.1233 -0.2952
 8687W        W 8887   0.382  13.313   2.118  0.0446 -0.1419 -0.1807
 8688W        W 8888  11.884   5.193  15.052 -0.1405 -0.2210 -0.2113
 8689W        W 8889   8.284   2.323   7.471  0.2307 -0.0730 -0.1214
 8690W        W 8890   1.238  14.256   0.778  0.3236  0.2077  0.1033
 8691W        W 8891  10.971  10.281  12.964  0.0954  0.3298  0.1442
 8692W        W 8892   5.058   0.740   1.834  0.0772  0.1145 -0.1210
 8693W        W 8893   3.580   3.933   2.153  0.5278  0.1967  0.2693
 8694W        W 8894   7.564   9.848  10.731  0.1260  0.0267  0.0644
 8695W        W 8895   4.501   2.526   6.778  0.3282 -0.1122 -0.4771
 8696W        W 8896   5.525  11.731   1.979 -0.2159 -0.3490 -0.3079
 8697W        W 8897   1.523   5.142   4.318  0.0907  0.1079  0.0579
 8698W        W 8898   0.524   5.873   1.525  0.4093 -0.0623 -0.1021
 8699W        W 8899  10.132   3.390   7.494  0.1078  0.0323  0.2599
 8700W        W 8900   5.598  10.124   4.157 -0.0700 -0.1600 -0.1552
 8701W        W 8901  12.798   3.606   2.919 -0.2524 -0.0536 -0.0821
 8702W        W 8902   3.204  11.859   0.642 -0.1815  0.1819 -0.1686
 8703W        W 8903   4.069   2.999   7.306  0.3204 -0.2007  0.0006
 8704W        W 8904   3.440  15.130   3.457  0.0574  0.0300  0.2025
 8705W        W 8905  10.943   4.999  11.714 -0.1827 -0.1383  0.1679
 8706W        W 8906  13.059  10.904   2.838 -0.0216  0.2766 -0.3179
 8707W        W 8907   8.061   7.779  10.886  0.0043 -0.1088 -0.1653
 8708W        W 8908   7.265   2.791  13.519  0.0870 -0.1430  0.2730
 8709W        W 8909   3.850   5.927  11.649 -0.1387  0.0361 -0.0795
 8710W        W 8910  11.477   7.385   8.332  0.2940  0.2483  0.0320
 8711W        W 8911   9.987   5.870   0.802  0.0992  0.1565  0.0876
 8712W        W 8912   0.625   2.438   1.649 -0.0859 -0.4560 -0.0192
 8713W        W 8913   8.760   1.761   3.918 -0.1216  0.1549 -0.4125
 8714W        W 8914   5.248   6.597   7.761 -0.2578 -0.0030 -0.0713
 8715W        W 8915  13.325  13.761   3.699  0.1255 -0.0179 -0.1980
 8716W        W 8916   3.221   1.620   6.021 -0.1820  0.0170  0.2621
 8717W        W 8917   7.929   3.800   8.615 -0.0041  0.1317 -0.2548
 8718W        W 8918  13.153   1.560   6.036 -0.2061  0.3235 -0.1850
 8719W        W 8919  10.835   0.866   2.290 -0.0924 -0.0263  0.0190
 8720W        W 8920   9.548   7.517   0.670 -0.1158 -0.0691  0.4094
 8721W        W 8921  11.500   1.236  11.282 -0.0445 -0.1134 -0.0072
 8722W        W 8922   5.121   9.404  13.833  0.1204 -0.3815 -0.1082
 8723W        W 8923  12.770  12.264   3.207 -0.2345 -0.0114  0.1019
 8724W        W 8924   1.194   0.283  12.763  0.1650 -0.2026 -0.1645
 8725W        W 8925   1.415   8.095   2.975  0.0652 -0.0916 -0.1626
 8726W        W 8926  12.240  13.740  13.982 -0.0594  0.0518  0.1819
 8727W        W 8927   4.769   7.171   5.043  0.1073  0.0795 -0.2944
 8728W        W 8928   3.198  11.090   2.108  0.3908  0.3528  0.1553
 8729W        W 8929  14.528   9.221   9.198  0.2742  0.0001  0.0619
 8730W        W 8930   4.923   1.489   0.471 -0.2328  0.0917  0.0555
 8731W        W 8931  13.174  11.875   2.274  0.1063 -0.2860  0.1415
 8732W        W 8932  10.414  11.014   4.220  0.0082  0.0296 -0.1628
 8733W        W 8933   1.487   5.806  13.905 -0.1841 -0.0197  0.2675
 8734W        W 8934   0.345   8.174  12.700  0.1882 -0.1250 -0.1655
 8735W        W 8935   7.971   9.274   3.989 -0.1600 -0.2935 -0.1802
 8736W        W 8936   6.035   4.363   0.662 -0.1317 -0.0428  0.0538
 8737W        W 8937   4.094   9.126   4.609  0.1406  0.0245 -0.1322
 8738W        W 8938  11.587   1.712   2.959 -0.1534 -0.1762  0.1670
 8739W        W 8939   0.177   5.582  12.584 -0.1736 -0.1395  0.0164
 8740W        W 8940   9.202   1.540  12.230  0.0943 -0.0300 -0.1034
 8741W        W 8941   2.464   8.633   1.673  0.1150  0.0309  0.1238
 8742W        W 8942   6.238   7.704   7.250 -0.1497  0.1631  0.1211
 8743W        W 8943  14.154   2.299  10.094  0.1001 -0.1792  0.0833
 8744W        W 8944  13.908   5.618   9.421  0.1020 -0.1227 -0.2693
 8745W        W 8945   0.256  15.105   2.041 -0.0014  0.2116  0.2400
 8746W        W 8946   1.196   8.244   3.652  0.1625  0.1945 -0.0270
 8747W        W 8947   8.301   1.549   3.662  0.1409 -0.0968  0.0189
 8748W        W 8948   9.693   7.155   7.676  0.1399  0.0727  0.2495
 8749W        W 8949   0.895   3.608  10.515  0.4077  0.2587  0.6020
 8750W        W 8950   1.397   2.784   0.257 -0.0931 -0.1713 -0.0317
 8751W        W 8951   8.654  13.779   9.717 -0.0509  0.0229 -0.0205
 8752W        W 8952   9.344   9.413   5.881  0.0249 -0.3189 -0.3589
 8753W        W 8953   2.147  14.521  14.947 -0.0513  0.4165 -0.2642
 8754W        W 8954   9.096   9.286  10.279 -0.3890  0.0558 -0.2096
 8755W        W 8955   8.876   8.267  15.112 -0.3033 -0.2160 -0.1575
 8756W        W 8956   1.946   7.085   0.535  0.2252  0.2507  0.1902
 8757W        W 8957   3.989   9.458   2.999 -0.2612 -0.0402  0.1254
 8758W        W 8958   3.693   2.247   5.903  0.1604 -0.0094  0.0799
 8759W        W 8959   0.486   0.161  12.408  0.2601 -0.0667  0.3716
 8760W        W 8960   4.583  10.569   1.730  0.0465  0.2045 -0.2050
 8761W        W 8961   6.576   8.072  11.772 -0.1006  0.3408 -0.2249
 8762W        W 8962   5.495   9.135   7.545 -0.0212  0.4411 -0.0165
 8763W        W 8963  14.437   2.401   4.361 -0.0459 -0.0383 -0.1150
 8764W        W 8964  10.362  12.282  14.138  0.0942 -0.2396  0.1808
 8765W        W 8965   0.291   0.632  11.819 -0.2758  0.0759  0.4245
 8766W        W 8966  12.008  11.349   0.599 -0.1367 -0.3118  0.3361
 8767W        W 8967  12.064   2.089   1.208  0.0177  0.0144  0.2437
 8768W        W 8968  15.099   1.813   4.695  0.4047  0.3273 -0.2144
 8769W        W 8969   4.994  12.529   4.724 -0.1890 -0.0198 -0.1423
 8770W        W 8970   3.001   3.763   4.929  0.2913 -0.1242 -0.0698
 8771W        W 8971   6.990  11.919   4.831  0.1787 -0.0682 -0.2862
 8772W        W 8972   5.815   5.282  12.082 -0.1360  0.0654 -0.2628
 8773W        W 8973  10.849   4.225   0.066  0.1313 -0.0402 -0.0764
 8774W        W 8974   1.038  12.511   5.405  0.0095 -0.1514  0.0770
 8775W        W 8975   5.100  12.399   1.498  0.0867  0.0681 -0.0344
 8776W        W 8976  13.202   9.066   8.726  0.0449 -0.6232  0.3119
 8777W        W 8977   5.517   4.599   1.453  0.2282 -0.2967  0.0508
 8778W        W 8978   5.200   8.086   2.773  0.1691 -0.0287  0.2514
 8779W        W 8979   4.365   3.909  14.615 -0.0765  0.0157  0.0312
 8780W        W 8980  11.543   5.264   1.359 -0.1600 -0.0639 -0.0437
 8781W        W 8981   7.229   6.916  10.895  0.2693 -0.1724  0.0322
 8782W        W 8982   4.749   6.773  10.273 -0.0736  0.3508 -0.4224
 8783W        W 8983   7.846  10.408   4.593  0.2960  0.0691 -0.1936
 8784W        W 8984   9.276   3.219  13.619 -0.0322 -0.1080  0.2476
 8785W        W 8985  10.738   7.955  10.244  0.1714 -0.1014 -0.0463
 8786W        W 8986   1.290  10.165   0.491 -0.2202 -0.2332  0.4166
 8787W        W 8987   2.110   4.393   5.321 -0.0243 -0.1169  0.0773
 8788W        W 8988  11.221   0.041   2.228 -0.0600  0.2653 -0.2692
 8789W        W 8989   2.963   4.949   3.718 -0.0396 -0.1227  0.0898
 8790W        W 8990  12.251   2.728   0.360  0.0276  0.1157  0.1770
 8791W        W 8991   4.261   7.327   2.140 -0.1778  0.3856  0.0256
 8792W        W 8992   6.348   6.128   5.346 -0.0461 -0.0306  0.0521
 8793W        W 8993   6.850   9.874   6.459  0.1642  0.0640  0.0226
 8794W        W 8994   5.314   6.524   4.416  0.1236  0.0591  0.2953
 8795W        W 8995   3.990   0.985   2.683 -0.0971  0.1111  0.1726
 8796W        W 8996   4.274   0.640   8.455 -0.0070  0.1524  0.0724
 8797W        W 8997   7.078   7.904   1.657 -0.0538 -0.1152  0.0558
 8798W        W 8998   3.132   5.755   7.894 -0.0897  0.0394 -0.1026
 8799W        W 8999  12.248  13.046   0.971 -0.3049 -0.2359 -0.0008
 8800W        W 9000  11.854  14.748   3.387  0.0143  0.2176  0.4180
 8801W        W 9001   2.759   6.026   8.599 -0.1745 -0.1299  0.0464
 8802W        W 9002   2.527   3.967  15.031  0.1924 -0.0812  0.1555
 8803W        W 9003   6.201   9.458   9.677 -0.2160  0.0500  0.1184
 8804W        W 9004   6.506   7.760   3.302 -0.2555  0.0166 -0.0287
 8805W        W 9005   1.241   6.968   2.625 -0.1219 -0.0305 -0.0936
 8806W        W 9006  13.467   7.408   4.438 -0.1908 -0.0631  0.0032
 8807W        W 9007   9.602   1.559   8.408  0.1064 -0.1871  0.0954
 8808W        W 9008  14.602   6.424   2.980 -0.0727  0.2600 -0.3952
 8809W        W 9009  13.771   1.335  12.686 -0.1159 -0.1824  0.0175
 8810W        W 9010  11.149   8.288   1.789  0.0278  0.1492  0.0376
 8811W        W 9011   0.084   6.027   4.221 -0.2040 -0.0349 -0.1412
 8812W        W 9012  15.081   4.289   1.152 -0.0280 -0.0482  0.0527
 8813W        W 9013   6.379   9.937   1.086 -0.1135 -0.1839  0.0099
 8814W        W 9014   9.049   1.843  11.385  0.2027 -0.0920  0.2559
 8815W        W 9015   4.384   7.187   4.125 -0.1983  0.0618  0.0492
 8816W        W 9016   6.823   0.139   1.423 -0.0105  0.2939 -0.1549
 8817W        W 9017   8.487   3.896   8.727  0.0386 -0.1458  0.1591
 8818W        W 9018   0.569   6.969   1.483 -0.0373  0.0929 -0.2511
 8819W        W 9019  11.214   5.124   9.329  0.2467 -0.2459 -0.0651
 8820W        W 9020   6.343   7.764  14.847  0.0111  0.1215 -0.0641
 8821W        W 9021   8.141   1.874  14.942 -0.2241 -0.0370 -0.1522
 8822W        W 9022   8.256   4.661   5.409  0.0741  0.0370 -0.1178
 8823W        W 9023  14.889   1.044  14.649 -0.0581  0.2615  0.0059
 8824W        W 9024   9.506   8.703   8.827 -0.2546  0.0608 -0.0594
 8825W        W 9025   2.975   0.265   5.969  0.1351 -0.0363  0.1308
 8826W        W 9026  13.741   4.428   2.181 -0.2288  0.2599  0.2492
 8827W        W 9027   2.013   0.553  10.245 -0.1895  0.0167  0.1428
 8828W        W 9028   7.065   3.217   8.010  0.1997 -0.0930  0.1358
 8829W        W 9029  11.921   5.664   9.942  0.4068 -0.0707  0.1754
 8830W        W 9030  14.030   8.098   1.996 -0.0063  0.0019 -0.0768
 8831W        W 9031   8.953   8.933   8.756  0.2773  0.0529 -0.1326
 8832W        W 9032   3.670   9.669   3.861  0.0687 -0.0602  0.2140
 8833W        W 9033   6.888  10.315   4.976  0.2081  0.0518 -0.1329
 8834W        W 9034  10.987   5.409  13.632  0.3366  0.1342 -0.2095
 8835W        W 9035  11.709   8.284   6.987  0.1295 -0.2099  0.1155
 8836W        W 9036  13.982  10.720   4.946  0.0840 -0.0386  0.1811
 8837W        W 9037   9.587  12.914  13.175  0.0433  0.0685 -0.1140
 8838W        W 9038   7.941   7.851  12.468 -0.1402  0.1354  0.2044
 8839W        W 9039   7.865   7.208   0.811  0.1834 -0.1452  0.0527
 8840W        W 9040   8.569   8.239  12.838 -0.2349  0.0166  0.1405
 8841W        W 9041   9.241  11.940  13.340  0.0226  0.1426  0.0413
 8842W        W 9042   8.495  13.704   5.654  0.1373  0.1431  0.1308
 8843W        W 9043   2.981  10.584   5.630 -0.0385 -0.1555 -0.1588
 8844W        W 9044   7.950   8.459   3.101 -0.2519  0.1495  0.0419
 8845W        W 9045  10.400   6.997   5.886  0.0242 -0.1519  0.0614
 8846W        W 9046   3.324   5.095   1.094  0.3170  0.0532  0.0795
 8847W        W 9047  11.877  10.449  11.582  0.1149  0.2313  0.3669
 8848W        W 9048  13.837  14.446   2.057  0.3349  0.1205 -0.3662
 8849W        W 9049   9.064   7.540   4.728  0.1351 -0.0580  0.1792
 8850W        W 9050   9.230   4.659  11.365 -0.1542  0.3442 -0.1411
 8851W        W 9051   8.504   8.497  13.600  0.0237 -0.0955 -0.1717
 8852W        W 9052   8.185   1.045   2.226  0.4214 -0.0405 -0.0719
 8853W        W 9053   5.385   6.364   9.041 -0.1430  0.0225 -0.1742
 8854W        W 9054  13.213   5.362   1.832 -0.0473 -0.0977  0.1831
 8855W        W 9055   4.028  11.574   1.203  0.0083  0.1817  0.2013
 8856W        W 9056   4.634   5.575   9.714  0.0393 -0.1227 -0.2148
 8857W        W 9057   3.457   2.128  11.010 -0.2547 -0.0483 -0.0736
 8858W        W 9058   5.528   4.040   3.368  0.2349 -0.4021 -0.1203
 8859W        W 9059  13.179   9.981   1.227 -0.1118  0.0973  0.2870
 8860W        W 9060   4.010   5.347   9.155 -0.1408  0.0363 -0.1257
 8861W        W 9061   6.046   6.293  10.632  0.1037 -0.2437 -0.2618
 8862W        W 9062   3.862  10.441  13.607  0.1577 -0.1329 -0.0824
 8863W        W 9063  10.131   6.575   2.083  0.1864  0.1401 -0.3693
 8864W        W 9064   9.561   2.600   9.227 -0.3379 -0.0030 -0.0537
 8865W        W 9065   8.963   7.888   7.678 -0.0969  0.1835  0.0519
 8866W        W 9066  10.140  15.164  13.739  0.2752 -0.1350  0.0462
 8867W        W 9067   5.350   4.708   7.130 -0.0697  0.0589  0.2734
 8868W        W 9068   4.886   8.983   3.049 -0.1547 -0.1288 -0.1589
 8869W        W 9069   4.566   8.752   2.117  0.1768  0.0138 -0.1713
 8870W        W 9070   5.508  13.351  11.954 -0.1482 -0.1230 -0.0130
 8871W        W 9071   2.622  10.240   5.759 -0.1364  0.1695 -0.1483
 8872W        W 9072   4.384   7.874  12.974 -0.5752  0.0334 -0.2020
 8873W        W 9073   5.666   6.074   4.230  0.2225  0.0508  0.2602
 8874W        W 9074  11.377   5.227   3.068 -0.0154  0.0162  0.0455
 8875W        W 9075   1.996  12.229   3.640  0.1632  0.0266  0.0990
 8876W        W 9076   9.873   0.864   4.648 -0.0762 -0.1535  0.0900
 8877W        W 9077   3.829   7.657   2.021  0.1592 -0.0468  0.0710
 8878W        W 9078   0.725   6.009   8.505 -0.0724 -0.1086  0.0266
 8879W        W 9079   6.471   9.382   7.173 -0.0110  0.2191  0.1901
 8880W        W 9080   1.797   2.272   1.745 -0.3583 -0.3359 -0.1035
 8881W        W 9081   9.900  11.185   7.480 -0.0071  0.1806 -0.1922
 8882W        W 9082   9.754   3.687   2.162 -0.1861 -0.3466 -0.1273
 8883W        W 9083   9.913   1.875   7.566  0.1319 -0.2539  0.2207
 8884W        W 9084   1.376   3.547  10.546  0.1749  0.0596 -0.0081
 8885W        W 9085   3.555   5.804   8.999  0.2116 -0.0212  0.0145
 8886W        W 9086   9.313   8.250   7.730 -0.1715  0.1523 -0.0271
 8887W        W 9087   9.330   9.337   9.780  0.0108 -0.2577  0.1747
 8888W        W 9088  11.816   2.457   5.125  0.3064  0.2116 -0.1176
 8889W        W 9089   8.773  12.277   5.033 -0.0505 -0.1941 -0.1265
 8890W        W 9090   9.755   9.601   6.080 -0.2314 -0.3434 -0.0282
 8891W        W 9091   8.984  10.811   5.683 -0.2331 -0.0205 -0.1088
 8892W        W 9092   0.909  12.035   5.844  0.2370 -0.3173  0.1808
 8893W        W 9093   1.988   4.599   1.818 -0.0995  0.3050 -0.1594
 8894W        W 9094   7.502  10.959  11.252 -0.0966 -0.1039  0.0844
 8895W        W 9095  14.469   9.861   6.459  0.0302 -0.2358  0.0824
 8896W        W 9096   4.397   4.445   0.676 -0.2065  0.0329 -0.2133
 8897W        W 9097   3.530   9.592   6.834 -0.2015 -0.1798  0.1434
 8898W        W 9098   1.742   1.673  10.280 -0.1923 -0.0061  0.2316
 8899W        W 9099   3.460   8.063   8.473  0.1873  0.1073  0.1009
 8900W        W 9100   1.479   4.191   1.794  0.1285  0.0282 -0.0241
 8901W        W 9101   7.066   9.448   3.718  0.1630 -0.0857  0.2442
 8902W        W 9102  12.095   9.251   1.555  0.1215 -0.1081 -0.0632
 8903W        W 9103   8.352   3.218   7.410 -0.0072  0.0541 -0.3500
 8904W        W 9104   6.252   1.330  13.238 -0.4716  0.3306 -0.0387
 8905W        W 9105   5.383   0.448   0.076  0.1050 -0.3858  0.0896
 8906W        W 9106   1.953  12.753  12.151 -0.1430  0.1255 -0.0556
 8907W        W 9107   8.719   5.745   1.869 -0.1391 -0.1538  0.1501
 8908W        W 9108   5.114   1.816  11.621 -0.3142 -0.0836  0.0240
 8909W        W 9109   6.284   4.683  14.869  0.1513  0.0397 -0.5378
 8910W        W 9110   5.678   9.719   6.804  0.0507 -0.1532 -0.0427
 8911W        W 9111  14.611   8.992  14.226 -0.1058 -0.2080  0.0163
 8912W        W 9112   3.773   2.815   2.683 -0.1837 -0.1632  0.1152
 8913W        W 9113   5.999  14.332  14.636  0.0429 -0.1203  0.0210
 8914W        W 9114  10.983  13.606  14.737  0.2400  0.0529 -0.4157
 8915W        W 9115  10.222   4.486   8.433  0.0909 -0.0529 -0.1790
 8916W        W 9116  11.510  14.090   1.232  0.1429 -0.0174 -0.1085
 8917W        W 9117  11.206   7.456  13.411  0.0076  0.1414  0.1467
 8918W        W 9118   7.245   4.907   0.610  0.1542 -0.1338  0.0459
 8919W        W 9119   2.817   6.849   1.480 -0.0613 -0.0730 -0.3274
 8920W        W 9120   1.895   1.041  12.944 -0.1759  0.0842  0.0015
 8921W        W 9121   4.787  14.510   4.551 -0.1935  0.0392  0.2868
 8922W        W 9122  13.825   3.263  11.646  0.1529 -0.0750  0.0631
 8923W        W 9123   9.242   5.025   6.584 -0.1427 -0.0138  0.0410
 8924W        W 9124   1.694   6.740   0.826 -0.0317  0.0249 -0.1509
 8925W        W 9125   4.833   4.199  13.921 -0.1155  0.0573  0.0919
 8926W        W 9126   0.261   9.336   8.034 -0.1190  0.1667  0.0763
 8927W        W 9127   5.965   2.070  13.974 -0.0087  0.4031 -0.1496
 8928W        W 9128   4.348   9.109  12.624 -0.3989 -0.3567 -0.0382
 8929W        W 9129   6.377  10.318   1.383  0.1156  0.1127  0.1512
 8930W        W 9130   9.139   2.729   7.793  0.0042  0.3178 -0.1214
 8931W        W 9131  13.342   7.158   3.234 -0.0083 -0.2571  0.0102
 8932W        W 9132   4.084   8.582   9.703 -0.1874  0.0728 -0.2101
 8933W        W 9133   4.957  14.835   7.752 -0.3429 -0.0725 -0.3512
 8934W        W 9134   3.368   1.190   0.884 -0.0829 -0.0831 -0.0811
 8935W        W 9135   3.158   8.641   6.908 -0.1682 -0.0625  0.3587
 8936W        W 9136   7.581   3.744   8.157 -0.1748 -0.0875 -0.0031
 8937W        W 9137  13.120   9.417  14.900 -0.2925  0.0391  0.1648
 8938W        W 9138   5.769   4.111  13.919 -0.1728  0.0656 -0.1677
 8939W        W 9139  12.025   2.453   1.876 -0.1867  0.3826 -0.2435
 8940W        W 9140   8.729   7.792   8.344 -0.1393  0.0792  0.2817
 8941W        W 9141  13.267   4.856  14.513 -0.0401  0.1716 -0.0663
 8942W        W 9142  10.986   3.210   0.045 -0.0795  0.1387  0.1658
 8943W        W 9143  10.804   8.765   7.846 -0.0520  0.0513  0.1145
 8944W        W 9144   2.841   7.036  13.289 -0.0216  0.0840  0.3198
 8945W        W 9145   4.015   2.087  13.228  0.0686 -0.1201  0.5051
 8946W        W 9146   7.848   6.331   6.607 -0.0457 -0.3823 -0.0338
 8947W        W 9147  10.956   5.772   1.754 -0.0712  0.0606 -0.2206
 8948W        W 9148   9.132   1.698   4.943  0.1056  0.2089 -0.1037
 8949W        W 9149   8.090   9.719  11.445  0.0868  0.1777  0.1072
 8950W        W 9150   9.278   7.457  12.821 -0.1038  0.2021  0.2056
 8951W        W 9151   4.550   5.026   2.016 -0.1716 -0.0479 -0.2583
 8952W        W 9152  13.070  13.627   7.406  0.0682 -0.2591  0.1334
 8953W        W 9153   4.172  14.250   4.149  0.0152  0.0790 -0.0669
 8954W        W 9154   5.758   0.370   9.826 -0.1806 -0.0716  0.1538
 8955W        W 9155   1.506   7.480  13.088 -0.3548  0.1876  0.0215
 8956W        W 9156   1.786   9.058   2.798 -0.1481  0.0657 -0.1583
 8957W        W 9157   3.267  13.696  11.966 -0.1776  0.3587 -0.0225
 8958W        W 9158   4.249   8.541   7.668 -0.2816 -0.3018 -0.0120
 8959W        W 9159  12.343   1.105   2.396  0.2647  0.0647 -0.1577
 8960W        W 9160   9.536   3.880   4.326 -0.0955  0.0132 -0.0907
 8961W        W 9161  12.158   4.887   3.058 -0.0278  0.0289  0.0926
 8962W        W 9162   2.087   1.166   7.474  0.0844 -0.4242  0.0125
 8963W        W 9163  10.591   4.843   8.517 -0.0059 -0.2028 -0.2331
 8964W        W 9164  14.467   5.140  11.811  0.0170  0.1571 -0.0078
 8965W        W 9165   8.099   6.484   9.651 -0.0230 -0.0979 -0.0764
 8966W        W 9166   5.004   0.022  13.685 -0.4622  0.3915  0.2250
 8967W        W 9167   0.217  12.255   7.209 -0.2369 -0.2825 -0.2396
 8968W        W 9168   9.545  14.606   2.439  0.0296  0.2565  0.0457
 8969W        W 9169  14.559   3.254   7.563 -0.0481  0.0078  0.0310
 8970W        W 9170   3.685   2.424   0.835 -0.1106  0.2445  0.0105
 8971W        W 9171   7.435   3.147   1.393  0.1779  0.0577 -0.1179
 8972W        W 9172   8.072   8.241  14.607 -0.2100  0.0344  0.1194
 8973W        W 9173   5.777   9.547   1.884  0.3529 -0.0467 -0.0326
 8974W        W 9174   7.838  10.191   0.574  0.0457 -0.2989  0.1161
 8975W        W 9175   7.575   3.488  13.952  0.1430  0.1331  0.1881
 8976W        W 9176   3.071   6.780   4.727 -0.0747 -0.0184  0.2893
 8977W        W 9177   2.067   3.662   9.718 -0.0049 -0.0494 -0.0159
 8978W        W 9178   1.274   7.564  10.305  0.1152 -0.1626 -0.0887
 8979W        W 9179   2.197  12.055   6.882  0.2365  0.1141  0.0956
 8980W        W 9180   5.706  13.944  13.835  0.0003  0.2198  0.1455
 8981W        W 9181  11.679   6.566  11.003 -0.1665  0.3158  0.0301
 8982W        W 9182   1.111   4.283  14.550  0.0160  0.0073  0.2483
 8983W        W 9183   3.589  11.348   1.214 -0.2850 -0.0878 -0.4677
 8984W        W 9184   7.950   6.691   5.570 -0.2811  0.2180 -0.1922
 8985W        W 9185  10.539   9.332   3.736  0.2284 -0.2434 -0.1313
 8986W        W 9186  14.565  11.835   6.827 -0.1041 -0.2205 -0.1404
 8987W        W 9187   0.800   1.996   8.793  0.1496  0.3059 -0.1632
 8988W        W 9188  15.108  11.524   2.148  0.0063 -0.3472  0.1367
 8989W        W 9189   5.249   5.638   6.040  0.0716 -0.0645  0.0408
 8990W        W 9190   6.838   1.999  13.444  0.0274  0.1119  0.2368
 8991W        W 9191   1.537  14.237   6.238 -0.2619  0.0794  0.0161
 8992W        W 9192  11.275   5.967   0.512 -0.5103 -0.1168  0.0643
 8993W        W 9193   9.224   9.982   5.343  0.1842 -0.2389 -0.0371
 8994W        W 9194   0.373  11.334  15.174 -0.2082 -0.0648  0.1176
 8995W        W 9195   1.148   9.168   3.913 -0.0353  0.2154 -0.0872
 8996W        W 9196   8.241   1.496  12.837 -0.0572 -0.0604  0.1987
 8997W        W 9197   7.919   5.034   3.124  0.5077  0.3493  0.0000
 8998W        W 9198   3.260  13.469  10.114  0.5530 -0.2022 -0.0038
 8999W        W 9199   1.749   6.302   6.688  0.2987  0.0131  0.1270
 9000W        W 9200   5.496   1.268   5.292 -0.2924 -0.0434  0.1118
 9001W        W 9201   4.032   4.540  13.908  0.1531  0.3228 -0.0001
 9002W        W 9202   4.659   8.870   6.472  0.4811  0.1543  0.0712
 9003W        W 9203   7.250   4.715   1.057  0.0265  0.0606 -0.2333
 9004W        W 9204   4.750   5.872  12.800  0.1720 -0.1693  0.0930
 9005W        W 9205   5.101  14.299   8.352  0.0866  0.2470  0.1608
 9006W        W 9206   9.967  12.411   7.148 -0.2185 -0.0622 -0.1583
 9007W        W 9207   4.104  10.628  13.062  0.4901  0.3532  0.3783
 9008W        W 9208   5.723   6.442   0.626 -0.0255  0.0475  0.1779
 9009W        W 9209   9.514   7.944   7.385 -0.0954 -0.1087 -0.2340
 9010W        W 9210   2.200  13.627   4.692  0.4435 -0.1588  0.0444
 9011W        W 9211  15.099   5.591   0.487  0.0457 -0.0790 -0.2508
 9012W        W 9212   3.807   5.026   0.193  0.0337 -0.1780  0.0717
 9013W        W 9213   2.075   0.705   0.124  0.2082  0.0080 -0.2787
 9014W        W 9214   6.499   3.702   9.953  0.0066  0.0125 -0.1996
 9015W        W 9215   6.217   8.278   2.531 -0.3703 -0.0048  0.1285
 9016W        W 9216  11.591   4.925  13.478  0.1319  0.2428 -0.3825
 9017W        W 9217   9.410   7.911  13.668 -0.0611  0.1104  0.0975
 9018W        W 9218  12.150   5.954  10.810 -0.1168 -0.1968  0.1271
 9019W        W 9219   5.039   1.284   8.188 -0.2385  0.0170 -0.1095
 9020W        W 9220   4.330   9.363  13.603 -0.2233  0.1014 -0.0278
 9021W        W 9221  12.259   8.917   7.757  0.0601 -0.0501 -0.1243
 9022W        W 9222  14.804  13.618  13.218  0.3877 -0.0527  0.0221
 9023W        W 9223   0.066  10.273  14.983  0.0679  0.0964  0.0078
 9024W        W 9224  10.715   8.094   4.417 -0.2636 -0.0739  0.2772
 9025W        W 9225   7.063   9.107  10.728  0.0499  0.0303 -0.2820
 9026W        W 9226   6.366   0.468  15.095 -0.0528 -0.0744 -0.1462
 9027W        W 9227   5.297  13.894   4.503 -0.1771 -0.0745  0.0369
 9028W        W 9228   6.799   4.821   0.246 -0.1944 -0.1226 -0.3618
 9029W        W 9229   3.408   4.493   2.936 -0.3219 -0.2730  0.1424
 9030W        W 9230  11.421   4.391   3.079  0.1318 -0.0002  0.3706
 9031W        W 9231   9.646   0.195  13.705 -0.2875 -0.4656  0.0699
 9032W        W 9232  10.202   6.092   2.283  0.0006  0.1226 -0.1064
 9033W        W 9233  12.577   6.099   7.055  0.0860  0.0932  0.1345
 9034W        W 9234   7.292   9.118   6.738  0.0367 -0.0779  0.1658
 9035W        W 9235   9.542   6.430   3.680  0.3179 -0.1132 -0.2068
 9036W        W 9236   5.188   3.290   1.232 -0.2307 -0.1139 -0.0228
 9037W        W 9237   6.735   7.035   7.949 -0.0111  0.3179  0.0079
 9038W        W 9238   7.030   6.499  14.676 -0.1016  0.0687 -0.0317
 9039W        W 9239   6.969   9.713  13.676  0.1459 -0.1253 -0.1157
 9040W        W 9240  10.115  15.074  11.496 -0.2170  0.0898  0.2961
 9041W        W 9241   6.692   8.740   9.738  0.3002  0.2394 -0.0207
 9042W        W 9242   0.539   7.686  13.169 -0.0611 -0.0170 -0.4581
 9043W        W 9243   8.192  11.320  11.743 -0.0415 -0.1453 -0.1277
 9044W        W 9244   4.819   8.949   5.669  0.1852  0.0595  0.2369
 9045W        W 9245  14.055   9.383   9.081  0.0817  0.1924  0.0567
 9046W        W 9246   7.679   7.000   4.651 -0.2221 -0.0272 -0.3226
 9047W        W 9247   5.192   1.582   4.428 -0.1865  0.2230  0.1203
 9048W        W 9248   6.130  13.744  13.481 -0.3195  0.0402 -0.0772
 9049W        W 9249  11.390   6.539  13.777  0.1140  0.2163 -0.0051
 9050W        W 9250   6.672  12.202  11.018 -0.0868  0.0206  0.0469
 9051W        W 9251   7.159  11.006   5.770  0.1031  0.2085  0.0747
 9052W        W 9252   0.138   0.898   1.989  0.2159 -0.1332  0.1223
 9053W        W 9253   7.344   2.410  13.211  0.1878  0.1553 -0.0393
 9054W        W 9254   9.603   5.328   2.659  0.1335  0.3499  0.1330
 9055W        W 9255   2.104   2.770  12.009  0.4088  0.1515  0.2218
 9056W        W 9256   0.997   4.221   5.052  0.1204  0.0913 -0.1378
 9057W        W 9257   3.908   6.080   4.436 -0.1360 -0.0582  0.1246
 9058W        W 9258   4.899  10.752  15.066  0.1613  0.1089  0.0471
 9059W        W 9259   1.270  11.230  13.212 -0.0611  0.0317 -0.0456
 9060W        W 9260  10.577   4.576   7.121  0.1364  0.0247  0.2226
 9061W        W 9261  11.796   6.866   5.388  0.0239  0.0289 -0.1075
 9062W        W 9262   0.920   2.895  12.352  0.1759 -0.1065  0.0280
 9063W        W 9263   8.536   4.832  11.833  0.4054  0.0272 -0.0138
 9064W        W 9264   1.021   9.486   7.625 -0.1442 -0.0749  0.1879
 9065W        W 9265  14.589  12.901   8.580 -0.0899  0.2455 -0.0312
 9066W        W 9266   3.521   3.701   7.600  0.0240 -0.0421  0.1685
 9067W        W 9267   6.168   4.160  11.503  0.2685 -0.1562  0.0768
 9068W        W 9268   6.533   9.364   8.913  0.0316  0.0092 -0.1797
 9069W        W 9269   3.864  13.138   8.293 -0.0149  0.1998  0.1094
 9070W        W 9270  14.380   2.865  12.797 -0.0884 -0.3410 -0.1985
 9071W        W 9271   6.827   6.719   2.543 -0.2028 -0.3081  0.2757
 9072W        W 9272  14.741   2.641   6.063 -0.0182  0.1634 -0.2262
 9073W        W 9273   7.863   5.536   9.380  0.0491 -0.1090 -0.2451
 9074W        W 9274   4.069   0.766  15.130  0.1195  0.0167 -0.2045
 9075W        W 9275   4.357   6.280   4.708  0.1210  0.2782  0.2440
 9076W        W 9276   5.516   8.528   8.788  0.1768 -0.0148 -0.0515
 9077W        W 9277   4.139   8.563   4.523  0.2458  0.0818 -0.1260
 9078W        W 9278   0.602   5.417   4.721  0.1834 -0.2029 -0.1218
 9079W        W 9279   9.874   8.460   4.691 -0.0736 -0.1716 -0.2917
 9080W        W 9280   5.159  11.119   0.494  0.2661  0.0641 -0.0322
 9081W        W 9281   5.673   9.336   9.790 -0.0916  0.1173  0.0519
 9082W        W 9282   9.329   3.063  14.122 -0.2480 -0.0985  0.0105
 9083W        W 9283   3.437   6.292   2.445 -0.0581 -0.2484 -0.0106
 9084W        W 9284   8.448   5.805   6.105 -0.4135 -0.1142  0.2076
 9085W        W 9285   6.780   8.443   7.286  0.1399  0.0470 -0.0124
 9086W        W 9286   4.039  10.398   6.309 -0.1258 -0.0159 -0.2578
 9087W        W 9287   4.689  10.680   6.878 -0.0729 -0.2141 -0.2963
 9088W        W 9288   5.067   8.433   2.320 -0.3448  0.1045 -0.1416
 9089W        W 9289   5.000   2.832   5.571  0.2112 -0.4307 -0.3408
 9090W        W 9290   2.545   4.962  13.544 -0.0082  0.0274  0.1070
 9091W        W 9291   0.550  13.140   7.765 -0.0052  0.0282 -0.3486
 9092W        W 9292  10.532   2.580   7.916 -0.0533  0.3424  0.0169
 9093W        W 9293   7.329   4.241  11.084 -0.2559  0.0818 -0.0628
 9094W        W 9294   7.459   5.091   8.258  0.0135  0.2160 -0.4036
 9095W        W 9295  11.755   1.467  14.589  0.1508 -0.1415  0.0972
 9096W        W 9296   9.207   6.907  12.106  0.1861  0.0674 -0.1888
 9097W        W 9297  10.353   3.704   9.603 -0.0352 -0.0760  0.2907
 9098W        W 9298  10.671   3.488  12.380 -0.3880 -0.1505  0.2122
 9099W        W 9299  12.081   9.150  11.517 -0.0557  0.0851 -0.1317
 9100W        W 9300   1.501   5.638   4.070  0.2664 -0.1097  0.1262
 9101W        W 9301   2.950   7.853   8.657 -0.1061  0.1120  0.0308
 9102W        W 9302  12.777   3.128   9.262  0.0368 -0.1051  0.1815
 9103W        W 9303   4.252   6.826   8.624 -0.0667  0.1518  0.0864
 9104W        W 9304   4.773   7.996   9.802  0.0736  0.1351  0.1427
 9105W        W 9305  14.257   7.248   8.209  0.0389  0.0465 -0.0782
 9106W        W 9306   2.016   8.819   7.113  0.1226 -0.1315  0.1723
 9107W        W 9307   8.049   3.969   6.663 -0.1459  0.0685 -0.1694
 9108W        W 9308   1.808   6.039  13.607 -0.2079  0.2906  0.0744
 9109W        W 9309  13.542   2.599   7.115  0.5073  0.2540 -0.0361
 9110W        W 9310   6.735  10.132   9.223  0.3492 -0.4090  0.0138
 9111W        W 9311   9.201   2.626  10.741 -0.0390  0.1193  0.5500
 9112W        W 9312   2.514   5.651  10.306  0.1747 -0.0975 -0.0353
 9113W        W 9313   0.737  13.788  13.941 -0.1990 -0.0768 -0.0410
 9114W        W 9314  12.282   2.984   9.393 -0.3369 -0.3429 -0.2586
 9115W        W 9315  10.736  11.322  11.924 -0.0747 -0.0680  0.2805
 9116W        W 9316   1.946   0.967   4.409 -0.0634 -0.0216  0.0956
 9117W        W 9317  11.256   8.780   8.060  0.0264 -0.1942 -0.2813
 9118W        W 9318   8.406  10.488   1.351 -0.0879  0.1436  0.0279
 9119W        W 9319   2.737   3.705  13.994  0.0410 -0.0195  0.1175
 9120W        W 9320   3.844   9.083  11.305  0.0472  0.0475  0.2841
 9121W        W 9321   7.701   3.538   3.347 -0.0546  0.0678 -0.2585
 9122W        W 9322  11.571   4.417   4.460 -0.1329  0.0715  0.4090
 9123W        W 9323   5.610   8.205  10.492  0.4704  0.3207 -0.1384
 9124W        W 9324  12.100   2.514   9.360 -0.0327 -0.1053  0.0950
 9125W        W 9325   2.348   1.054   1.579 -0.2515  0.0014 -0.1031
 9126W        W 9326   6.137   2.640   1.951 -0.2128 -0.0234  0.0692
 9127W        W 9327   5.501   8.458   7.361 -0.1810 -0.0053  0.0595
 9128W        W 9328   3.635   1.775  13.400 -0.1088  0.1046 -0.1862
 9129W        W 9329   3.720  10.673   6.663  0.0953 -0.1549  0.1719
 9130W        W 9330  12.461  11.358  12.677  0.0231 -0.1267 -0.0217
 9131W        W 9331  14.493   6.409   9.404  0.4028 -0.1756  0.3009
 9132W        W 9332   8.628   4.591   7.579 -0.1121  0.0824 -0.1076
 9133W        W 9333   8.080  15.143   3.522  0.4938 -0.0613 -0.1289
 9134W        W 9334   3.808   5.913   5.055 -0.0997  0.2605  0.1599
 9135W        W 9335   9.031   3.383   6.843  0.2524  0.2920  0.1296
 9136W        W 9336   3.190  12.141   8.598 -0.3341  0.1691 -0.2031
 9137W        W 9337   4.440  14.273  12.073  0.0991  0.2384 -0.0212
 9138W        W 9338   2.156  10.825   6.113  0.2103  0.0994 -0.2658
 9139W        W 9339  10.302  10.822  13.792  0.1063  0.2071 -0.1625
 9140W        W 9340   8.643   7.272   5.500 -0.1258 -0.1100 -0.3645
 9141W        W 9341  14.376  12.498   1.994 -0.0112 -0.0088 -0.1868
 9142W        W 9342  14.254   6.047  11.220  0.0606  0.0026 -0.0992
 9143W        W 9343  10.995   0.514   2.654  0.1595 -0.2808 -0.3773
 9144W        W 9344   6.560   3.185   4.562  0.3143  0.1692  0.1418
 9145W        W 9345  13.430   9.148   9.629  0.0426  0.0753  0.2632
 9146W        W 9346   1.339   1.491   7.694  0.0954  0.0049 -0.3107
 9147W        W 9347  10.364   3.039  10.820 -0.1248  0.1318 -0.0199
 9148W        W 9348   0.070   2.442   2.524 -0.4010  0.3447 -0.2750
 9149W        W 9349   9.265   6.604   8.336 -0.0033  0.1098  0.0933
 9150W        W 9350  14.824   1.199  12.495  0.0665 -0.2566  0.4853
 9151W        W 9351  14.959  12.688   8.328  0.0098  0.0141  0.0123
 9152W        W 9352   4.703   7.389   2.973 -0.3168  0.0629 -0.0804
 9153W        W 9353  11.343   4.777  11.304 -0.0969  0.2002 -0.3487
 9154W        W 9354   9.694   5.331   4.546 -0.3995 -0.0379 -0.0000
 9155W        W 9355   1.854   7.657   6.351  0.3314 -0.4329 -0.1565
 9156W        W 9356  12.613   7.535   2.426 -0.2878 -0.0501 -0.3119
 9157W        W 9357   8.262   0.088   5.054 -0.3116 -0.0693 -0.0798
 9158W        W 9358   3.114   8.147   6.066  0.1039 -0.1054 -0.2037
 9159W        W 9359   4.669   4.504   2.319 -0.4079 -0.0139 -0.0266
 9160W        W 9360   1.778   6.014   3.684 -0.2613  0.1140  0.1798
 9161W        W 9361   9.160   6.296   7.282  0.0447  0.0446 -0.2421
 9162W        W 9362  15.096   7.857   4.133 -0.0892  0.0710  0.1239
 9163W        W 9363   9.685   7.323  13.593  0.2085  0.0739  0.2111
 9164W        W 9364   7.628   6.669   5.929  0.0200 -0.1621 -0.2013
 9165W        W 9365  13.495   3.909  10.859 -0.1692  0.0240  0.1458
 9166W        W 9366   3.434   8.281   3.069  0.0631 -0.4188 -0.0715
 9167W        W 9367   6.712  12.761   4.231 -0.1496  0.3979  0.0907
 9168W        W 9368   5.351   0.156   5.457  0.2461  0.0554  0.2937
 9169W        W 9369   6.346  12.360   4.411  0.1173 -0.1879 -0.0730
 9170W        W 9370   0.729   2.336   5.612  0.0632 -0.1897  0.0090
 9171W        W 9371   7.854   3.520   9.051 -0.1193  0.1109  0.1197
 9172W        W 9372   1.627   6.963  12.086  0.2292 -0.2821  0.1336
 9173W        W 9373  11.613   3.879   8.650  0.1135  0.0269  0.0761
 9174W        W 9374   6.921   9.959   1.001  0.0593 -0.0744 -0.0895
 9175W        W 9375   8.392   0.122  15.179 -0.0475  0.0058  0.0713
 9176W        W 9376   6.813   6.169   8.095  0.0161 -0.2351 -0.0910
 9177W        W 9377  10.900   5.447  10.552 -0.0306  0.0025 -0.3282
 9178W        W 9378   0.349  11.370   7.440  0.0916  0.2242  0.2486
 9179W        W 9379  11.183   0.596   8.250 -0.3278 -0.1579  0.3143
 9180W        W 9380   9.141  14.118  11.959 -0.0281 -0.1344 -0.1575
 9181W        W 9381   7.517   7.229   6.837 -0.1638 -0.3426  0.2885
 9182W        W 9382  14.683   6.054  10.434 -0.2583 -0.4725 -0.0180
 9183W        W 9383   4.101  11.703   3.299 -0.0479  0.2609 -0.0713
 9184W        W 9384   4.276   4.836   7.151 -0.1534 -0.1302  0.1154
 9185W        W 9385   5.756  12.714   3.889 -0.0881 -0.1157  0.2016
 9186W        W 9386   6.338   7.127   6.446 -0.2074 -0.0927  0.0174
 9187W        W 9387   6.456  11.198   2.502 -0.0094 -0.3348  0.1721
 9188W        W 9388  14.767   0.873   5.056 -0.0446 -0.2433 -0.1291
 9189W        W 9389   1.253   7.443   5.954 -0.0253 -0.0922  0.0871
 9190W        W 9390   5.704   5.895   9.661 -0.1125 -0.1420 -0.0611
 9191W        W 9391   7.603   8.079  11.069 -0.0311  0.0260 -0.1316
 9192W        W 9392  14.977   1.564   0.213  0.1194 -0.2938  0.0268
 9193W        W 9393   4.490  11.545   5.063  0.0802  0.2771 -0.1206
 9194W        W 9394   5.648   9.793   8.182  0.2611 -0.0076 -0.4978
 9195W        W 9395  11.147   0.020  11.489 -0.0380  0.1930  0.2042
 9196W        W 9396   9.885   7.567  10.920 -0.2257  0.1078  0.0112
 9197W        W 9397   2.021   7.835  11.084  0.1513  0.0806 -0.1616
 9198W        W 9398  10.474   2.430   6.085  0.1001  0.0321  0.0114
 9199W        W 9399   8.634   0.953   6.171  0.0614 -0.1019  0.3874
 9200W        W 9400   4.960  10.918   1.558  0.0141 -0.0106 -0.1302
 9201W        W 9401   9.896  12.864   3.944 -0.0112  0.1605  0.0638
 9202W        W 9402   6.012   9.560   5.952  0.0264  0.0982  0.0137
 9203W        W 9403   9.723   7.183   4.274 -0.1036  0.0122 -0.2264
 9204W        W 9404   7.196  14.413   9.617 -0.0519 -0.0708 -0.2546
 9205W        W 9405   7.743   6.448   7.155  0.1832  0.2242 -0.0419
 9206W        W 9406   8.046  12.006  10.674  0.2269  0.0249 -0.2364
 9207W        W 9407   6.907   4.191   4.767 -0.0827 -0.2662  0.1550
 9208W        W 9408   6.878   8.612   0.711  0.0410 -0.0911  0.2324
 9209W        W 9409   2.349   8.962   0.646  0.0568  0.1045  0.0164
 9210W        W 9410  11.376  12.537   4.732  0.0037 -0.0131 -0.1366
 9211W        W 9411   3.226  13.457  14.896  0.0694 -0.2778 -0.3442
 9212W        W 9412   6.969   9.579   7.209 -0.2518  0.4198 -0.2628
 9213W        W 9413   1.306  11.795  11.167 -0.1202 -0.0897  0.0123
 9214W        W 9414   6.556  10.087   1.832  0.0009  0.3033  0.1507
 9215W        W 9415   4.539   0.586   2.777 -0.0201  0.0050  0.0893
 9216W        W 9416   2.162  12.150   4.399  0.0407  0.0070 -0.1186
 9217W        W 9417   5.542   8.088   3.263 -0.0691 -0.1529  0.3046
 9218W        W 9418  13.486  10.248   2.199 -0.3227  0.2606  0.2249
 9219W        W 9419   2.500   3.684   5.641  0.2699 -0.2941 -0.3874
 9220W        W 9420  13.531   6.472   9.336  0.2821  0.3464 -0.2701
 9221W        W 9421  12.625   4.774   4.861 -0.1421  0.1875 -0.3419
 9222W        W 9422  12.210   5.290  10.845 -0.3058 -0.1571  0.5005
 9223W        W 9423   7.321   0.294   7.836 -0.0811 -0.1638  0.0570
 9224W        W 9424  15.077   6.350   1.031 -0.0964 -0.2064  0.2021
 9225W        W 9425   3.582  12.048  12.907  0.0315  0.1665  0.2791
 9226W        W 9426   0.762   5.487   6.344  0.2421 -0.3219  0.0080
 9227W        W 9427   9.892   6.495  14.126 -0.0870 -0.3082 -0.1523
 9228W        W 9428  14.522   4.375  13.055  0.1850 -0.4266 -0.1017
 9229W        W 9429   6.448  15.137  12.251 -0.0322 -0.1334 -0.4263
 9230W        W 9430   4.570   8.807  13.553 -0.0043  0.3245 -0.2243
 9231W        W 9431   6.762   6.791   1.458 -0.1452  0.0385  0.2506
 9232W        W 9432   6.845  11.671   3.550  0.0217 -0.1330 -0.1710
 9233W        W 9433   6.631   6.976   6.786  0.0550  0.1763 -0.2482
 9234W        W 9434  11.137   6.936  14.023 -0.1838 -0.0178 -0.0449
 9235W        W 9435   1.359  13.435   0.765 -0.2039 -0.0119 -0.1608
 9236W        W 9436   8.788   0.315   2.422 -0.2529 -0.0495 -0.2247
 9237W        W 9437  11.240  10.150  11.568 -0.0592 -0.2864 -0.1126
 9238W        W 9438   6.903  14.204   4.429 -0.0865 -0.1681  0.0198
 9239W        W 9439   1.776   3.545   9.166  0.2790  0.2256 -0.0143
 9240W        W 9440   1.519  14.468   7.250 -0.2147  0.0497  0.1618
 9241W        W 9441   4.936  13.414  13.566  0.0676 -0.0177  0.0074
 9242W        W 9442   3.141  13.998   7.101 -0.1163  0.2379  0.1895
 9243W        W 9443   5.975   5.148  11.217 -0.0158 -0.1301 -0.2669
 9244W        W 9444   3.356  11.320   4.215 -0.0167 -0.1038 -0.0955
 9245W        W 9445   2.490   2.651   5.063  0.1265 -0.0921  0.1486
 9246W        W 9446   2.844  11.249   7.767 -0.0672 -0.1641  0.1743
 9247W        W 9447  11.026   3.654  10.140  0.3061  0.4190  0.0052
 9248W        W 9448   7.033  14.955   4.189 -0.1342 -0.2882 -0.1145
 9249W        W 9449   1.086   7.503   0.088  0.0997  0.1759  0.0655
 9250W        W 9450   2.818   7.623   6.043  0.1570 -0.0924  0.0502
 9251W        W 9451   0.443   5.184   8.141 -0.0377 -0.1230 -0.3175
 9252W        W 9452  10.315  12.492   2.612  0.0958 -0.4186 -0.4863
 9253W        W 9453   4.067   8.261   6.840 -0.0826 -0.2079  0.1633
 9254W        W 9454   2.835   0.137   3.125 -0.0553 -0.0922 -0.0226
 9255W        W 9455  12.581   5.203   6.291 -0.1111 -0.2925 -0.3321
 9256W        W 9456   4.638   7.363   6.299  0.3929  0.1026 -0.2522
 9257W        W 9457   9.012  12.900   1.520 -0.2958  0.0508  0.1320
 9258W        W 9458   4.176   5.782   7.435 -0.2319 -0.2128 -0.0135
 9259W        W 9459   3.483   8.138   5.745  0.1399 -0.0839  0.2990
 9260W        W 9460   5.752   5.997   5.269 -0.1918 -0.0479  0.1716
 9261W        W 9461   7.195   2.823  11.273  0.0437 -0.0396  0.2374
 9262W        W 9462  10.492  15.045   6.290  0.0075  0.1055  0.2085
 9263W        W 9463   0.898   6.651  15.192  0.0740 -0.0056 -0.0896
 9264W        W 9464  10.344  14.203   5.651  0.0703 -0.0308 -0.0980
 9265W        W 9465   6.298   4.912  12.328 -0.0696 -0.0872 -0.0377
 9266W        W 9466   1.629   8.320   6.942  0.0229 -0.0453 -0.2621
 9267W        W 9467   1.284   8.009   6.041 -0.2824  0.2757  0.2901
 9268W        W 9468  12.913  10.500   3.906  0.3123  0.0395 -0.0259
 9269W        W 9469   0.051   9.471   0.178  0.0090 -0.0146  0.3766
 9270W        W 9470   0.352   5.969   3.684  0.0477  0.0392  0.0218
 9271W        W 9471  11.384   8.374   0.253 -0.0868  0.2746  0.1027
 9272W        W 9472   7.315   1.357   4.166 -0.2170 -0.0174 -0.1157
 9273W        W 9473   3.868   4.976   0.829  0.2370 -0.0296  0.1333
 9274W        W 9474   2.087   5.799   7.899 -0.2031 -0.5009 -0.0731
 9275W        W 9475   4.856  10.761   5.526 -0.1705 -0.1614  0.0539
 9276W        W 9476   0.861   6.659   2.317 -0.1458  0.0139 -0.1674
 9277W        W 9477   6.001   4.409   2.600 -0.1576 -0.2777 -0.2860
 9278W        W 9478  11.559   3.772  10.089  0.1484 -0.1336 -0.0700
 9279W        W 9479  15.134   9.910   5.889 -0.4949  0.2009  0.1435
 9280W        W 9480   7.353   6.681   2.137  0.1450 -0.2980 -0.2420
 9281W        W 9481   2.165   1.200   1.114  0.0762 -0.0695  0.0830
 9282W        W 9482   7.430  14.010   7.054 -0.3253 -0.1492  0.0567
 9283W        W 9483   9.820  13.212  11.602  0.2696  0.1219 -0.6580
 9284W        W 9484  14.032   5.181   9.725 -0.2166 -0.1955 -0.1183
 9285W        W 9485   4.916   7.795   4.007  0.1691  0.0023 -0.2477
 9286W        W 9486  13.734  12.268  13.875  0.0097 -0.2505  0.0577
 9287W        W 9487  13.289   4.936   6.553  0.1319  0.2599 -0.0793
 9288W        W 9488   5.099   4.243  13.067 -0.1573 -0.1756 -0.0924
 9289W        W 9489   2.064   8.558   2.055 -0.1594  0.2205  0.1009
 9290W        W 9490   3.813   4.891  12.462  0.1586 -0.0023  0.3693
 9291W        W 9491   9.151  13.415   4.280  0.2050 -0.0157  0.1414
 9292W        W 9492   2.884   1.793  14.631  0.2527  0.3528 -0.1059
 9293W        W 9493   6.966   3.873   5.794  0.0107 -0.1619  0.0834
 9294W        W 9494   6.761   7.415   6.369  0.3257  0.1138  0.1778
 9295W        W 9495   4.314  10.375  11.419  0.0480 -0.2083  0.3255
 9296W        W 9496   3.395   4.846  15.118  0.2247  0.0785  0.1154
 9297W        W 9497   7.231   0.282   5.174 -0.1163  0.1116 -0.0415
 9298W        W 9498   7.289   6.065  10.877 -0.2033 -0.0094  0.1563
 9299W        W 9499   5.933   8.260   8.121  0.2111 -0.0161  0.0047
 9300W        W 9500   5.482   5.697  11.330  0.0847  0.2765  0.1883
 9301W        W 9501   3.385   0.704  10.240 -0.0358 -0.2687 -0.1595
 9302W        W 9502   5.373  14.395   7.870 -0.2656  0.0383  0.0505
 9303W        W 9503   1.152  13.149   1.242 -0.1119 -0.1945  0.2002
 9304W        W 9504   5.237   4.653   8.516  0.0338 -0.2442 -0.1524
 9305W        W 9505   9.173   5.281   3.460 -0.2065 -0.2533 -0.1142
 9306W        W 9506   8.263   6.504   4.483 -0.2545 -0.0531  0.2243
 9307W        W 9507   2.246  11.107  10.263 -0.1009  0.1860  0.0302
 9308W        W 9508   1.256   9.257  12.359  0.0241  0.0914  0.2914
 9309W        W 9509   4.675  10.168   2.174  0.1902  0.2081  0.0801
 9310W        W 9510   6.777  14.323   0.057  0.2109 -0.0137 -0.0152
 9311W        W 9511   9.131   7.253   3.284  0.0933  0.0789 -0.0459
 9312W        W 9512   9.438   8.735   6.399  0.0348  0.2463  0.0659
 9313W        W 9513   5.798  12.098   9.509 -0.1728 -0.1123  0.1929
 9314W        W 9514  12.825   0.942   8.196  0.0348 -0.1083  0.2371
 9315W        W 9515   4.213   1.130   5.812  0.2023  0.0868  0.2706
 9316W        W 9516   2.668   0.226   6.878  0.4515  0.0941 -0.2226
 9317W        W 9517   4.887  11.127   2.100  0.0618 -0.2223 -0.1907
 9318W        W 9518  14.435   3.040   8.373 -0.2350  0.3167 -0.0820
 9319W        W 9519   3.395   9.113   6.787  0.2114 -0.0550  0.0754
 9320W        W 9520  11.954  12.388  11.043  0.0825  0.1212 -0.0268
 9321W        W 9521  13.405   2.319  11.337 -0.1185 -0.0044  0.1276
 9322W        W 9522   9.682   8.793   5.185 -0.5247 -0.0677 -0.1274
 9323W        W 9523   8.112   2.545   5.606  0.1529  0.4907  0.1826
 9324W        W 9524   4.483  12.369   8.964  0.0650  0.1550 -0.3213
 9325W        W 9525   3.713   3.924  10.939 -0.0604 -0.2363  0.1105
 9326W        W 9526   5.067   5.690   5.592  0.3311 -0.1431 -0.1079
 9327W        W 9527   1.545   2.918  10.711  0.2728  0.0269  0.1348
 9328W        W 9528   5.961   3.857   3.248 -0.1924 -0.1426 -0.1432
 9329W        W 9529   7.158   5.163   5.614  0.0993 -0.1509  0.2225
 9330W        W 9530   6.799   2.832   7.616  0.1103  0.0232  0.3639
 9331W        W 9531   5.650   9.077  14.072 -0.0882 -0.2795 -0.3009
 9332W        W 9532   4.189   5.190   4.594  0.0436 -0.4187  0.1469
 9333W        W 9533  10.640   1.719   4.150  0.0064 -0.0746  0.1135
 9334W        W 9534  11.669  12.636   9.323 -0.0619  0.4662  0.0947
 9335W        W 9535   3.248  11.579   3.753  0.1542 -0.2551 -0.0991
 9336W        W 9536   1.553   6.273   2.483 -0.0720  0.0720  0.1629
 9337W        W 9537   2.240   2.780   6.710  0.0877  0.4652  0.1921
 9338W        W 9538  11.622   9.058   1.465 -0.4144  0.0143 -0.2614
 9339W        W 9539   8.756   5.127   7.740  0.0803 -0.3204  0.1003
 9340W        W 9540  14.522   1.299  10.377  0.1855  0.1012  0.2107
 9341W        W 9541   4.672   5.884   7.421  0.2848 -0.1750 -0.1660
 9342W        W 9542   3.485   3.308   0.104 -0.0675  0.1811  0.0946
 9343W        W 9543   2.481  12.311   3.916 -0.1373 -0.0904 -0.2402
 9344W        W 9544   8.456   7.850   9.334  0.1263 -0.3009  0.3183
 9345W        W 9545   4.373   0.230  14.511  0.0279 -0.1382 -0.0314
 9346W        W 9546   1.708   0.909   5.434  0.0406  0.1403  0.1380
 9347W        W 9547   8.953  13.395   9.703  0.0485 -0.3328 -0.1660
 9348W        W 9548   5.006  11.871   7.909  0.0352  0.0684  0.1301
 9349W        W 9549   5.505   6.077   6.160 -0.0510  0.1068  0.0745
 9350W        W 9550   3.731   9.129   6.407  0.4194  0.4564 -0.0332
 9351W        W 9551   1.737  10.657   5.898  0.0581  0.0698  0.0770
 9352W        W 9552   7.478   5.935   9.420 -0.1130 -0.0491 -0.1593
 9353W        W 9553   1.454  11.765   2.817 -0.1370  0.0401  0.0804
 9354W        W 9554   3.975  14.579   6.453  0.1888  0.0121  0.2469
 9355W        W 9555   3.938   1.879   7.467  0.0037 -0.2418  0.0260
 9356W        W 9556   9.574  10.851   6.762 -0.1004  0.0536  0.1887
 9357W        W 9557  13.737   1.166   1.232 -0.4191 -0.3273  0.1311
 9358W        W 9558  10.017   2.909   9.895  0.1530 -0.2155 -0.1891
 9359W        W 9559  12.836   3.607  13.957 -0.3127 -0.0719 -0.1271
 9360W        W 9560   4.550   7.493  13.778 -0.1741 -0.0450  0.0375
 9361W        W 9561   3.977  15.167   1.911  0.0265 -0.2189  0.1793
 9362W        W 9562   4.106   6.521   9.614  0.0695 -0.0847 -0.0331
 9363W        W 9563   5.367   7.761   8.778 -0.0474 -0.1008  0.2152
 9364W        W 9564   6.673   7.849   9.866 -0.2387  0.0846  0.1687
 9365W        W 9565  12.150   7.736   9.064 -0.2443  0.0176  0.0055
 9366W        W 9566   4.955   9.105  13.467  0.0647 -0.0439  0.2371
 9367W        W 9567   1.062   2.902  14.353 -0.3091  0.0042 -0.0667
 9368W        W 9568   9.621   6.459   6.160 -0.0241 -0.1498  0.1095
 9369W        W 9569   3.670   8.112   6.296  0.1395  0.0497 -0.0662
 9370W        W 9570  13.855  12.159  14.713  0.3241  0.1845 -0.0648
 9371W        W 9571   2.893   5.168  13.934  0.0394  0.3454 -0.1087
 9372W        W 9572  13.611   9.299   6.686 -0.0220 -0.0556 -0.0646
 9373W        W 9573   0.221   8.508   3.151 -0.3548 -0.0664 -0.1730
 9374W        W 9574   0.730   7.373   5.861 -0.0014 -0.0551  0.0891
 9375W        W 9575   1.847   5.179   8.536  0.3298 -0.1362 -0.0939
 9376W        W 9576   3.550   4.883  10.869  0.0481 -0.3278  0.0531
 9377W        W 9577   9.574   6.186   2.865  0.0837 -0.2157  0.0799
 9378W        W 9578  14.861   3.644   7.778 -0.3633  0.1148  0.1806
 9379W        W 9579  10.453   7.651  13.796  0.2116 -0.2169  0.0308
 9380W        W 9580   1.262  14.930  12.142 -0.0025 -0.3011  0.2548
 9381W        W 9581  10.255   7.597   9.634 -0.0581 -0.2020 -0.2724
 9382W        W 9582   6.411   4.023   7.925  0.3319 -0.1709 -0.0817
 9383W        W 9583  12.882   4.105   1.059  0.0571 -0.1086  0.0578
 9384W        W 9584   4.173   3.387   3.290 -0.1178 -0.1148 -0.1108
 9385W        W 9585   6.774  13.149   0.844  0.2156 -0.3439 -0.0083
 9386W        W 9586   3.243   4.091  14.587  0.0808 -0.1044 -0.0602
 9387W        W 9587   5.290  15.071  10.448 -0.0547  0.1232  0.0265
 9388W        W 9588  10.039   6.116   8.914  0.2813 -0.1567 -0.0906
 9389W        W 9589   6.871   7.128   4.400  0.2174  0.2150 -0.0461
 9390W        W 9590   1.677   6.330   2.998  0.2168 -0.1867 -0.1662
 9391W        W 9591   1.119   8.139   6.921  0.1365  0.1132 -0.1514
 9392W        W 9592   0.596  11.358  14.469 -0.2362  0.1968 -0.1667
 9393W        W 9593   9.998   7.414   7.295  0.2539 -0.1891 -0.3421
 9394W        W 9594   6.538   4.504   9.942  0.2038 -0.1472  0.2065
 9395W        W 9595   9.837   6.572   4.164  0.1106 -0.1112  0.1911
 9396W        W 9596   3.311   6.159   8.090  0.1344  0.0872 -0.0420
 9397W        W 9597   4.306   4.297   5.874  0.0106  0.0086 -0.0267
 9398W        W 9598  12.763   7.194   1.490 -0.4574 -0.2107 -0.1363
 9399W        W 9599  10.120   6.908   4.408 -0.0727  0.2611 -0.0264
 9400W        W 9600   6.527   0.257  14.620  0.0514  0.0952  0.1522
 9401W        W 9601   6.923   4.296  10.628  0.2697 -0.1635  0.0198
 9402W        W 9602   5.907  14.883   6.695  0.0856  0.0338  0.1389
 9403W        W 9603   6.816  13.036   7.701  0.0988 -0.0347  0.4228
 9404W        W 9604   7.882  15.133   0.707 -0.1097 -0.0265  0.2869
 9405W        W 9605   2.164  10.309  13.387 -0.0001  0.3270  0.0622
 9406W        W 9606   3.912   8.994   0.093  0.1820 -0.0011 -0.2781
 9407W        W 9607   0.500   3.790   4.668  0.2929 -0.0204 -0.1541
 9408W        W 9608   3.892   2.380   7.632 -0.0744 -0.0352  0.1576
 9409W        W 9609  12.959   8.073   5.819 -0.1233  0.0106 -0.1845
 9410W        W 9610   0.749  11.608   9.599  0.0474 -0.0533 -0.0269
 9411W        W 9611   6.067   6.221   3.102  0.1170 -0.0825  0.0129
 9412W        W 9612   3.428  10.689   9.114 -0.0039  0.0832  0.2439
 9413W        W 9613  12.187  14.745   5.617 -0.1695  0.1527  0.0119
 9414W        W 9614   1.118   0.283  14.955 -0.2391 -0.0951  0.0949
 9415W        W 9615   2.967  12.026   5.595  0.0373 -0.0987 -0.3430
 9416W        W 9616   6.131  10.876  10.304  0.1005  0.1297 -0.1687
 9417W        W 9617   6.826   5.567   1.894  0.1449  0.3164  0.0819
 9418W        W 9618   0.851   2.870  13.474  0.0904  0.3012  0.0146
 9419W        W 9619   9.665   3.581  15.006 -0.2068 -0.2102 -0.2578
 9420W        W 9620   4.763  10.874   0.991  0.1561  0.1459 -0.2214
 9421W        W 9621  11.386   9.919  13.179 -0.1547 -0.1647 -0.0224
 9422W        W 9622   1.306   9.221  14.049 -0.2481 -0.0521 -0.1183
 9423W        W 9623   3.365   4.592  11.290 -0.0532  0.0547  0.0699
 9424W        W 9624   4.543   4.778   5.934 -0.3011  0.0945 -0.2202
 9425W        W 9625   5.115   5.438  11.599  0.0527  0.3192  0.1704
 9426W        W 9626   3.576   6.354   8.940 -0.1105 -0.0240 -0.3246
 9427W        W 9627  11.108   8.091   9.884  0.3868  0.0569 -0.0729
 9428W        W 9628   5.681   4.628  12.644 -0.1911  0.0202 -0.0563
 9429W        W 9629   4.166  13.872  12.004  0.0900 -0.3128  0.4770
 9430W        W 9630   8.992  10.112   9.707  0.4255 -0.2906  0.0468
 9431W        W 9631   0.171   3.855   6.012 -0.2407 -0.0658  0.2221
 9432W        W 9632   1.245  13.746  13.934  0.0819  0.1652  0.3737
 9433W        W 9633   5.821   6.118   4.698 -0.0346 -0.0937  0.0120
 9434W        W 9634   0.860  12.004   4.723 -0.0973  0.2761 -0.1518
 9435W        W 9635   5.362   7.025   3.790 -0.1719 -0.0436 -0.1212
 9436W        W 9636  13.320   4.865   0.996 -0.0854  0.0614 -0.3521
 9437W        W 9637   6.203   3.736  10.415 -0.0268  0.0679 -0.3129
 9438W        W 9638   6.151  14.066   2.252  0.1254  0.2004 -0.3256
 9439W        W 9639   0.634   1.530  10.533 -0.0638  0.2400  0.3526
 9440W        W 9640  11.830   8.915   4.100  0.1582 -0.2454 -0.1756
 9441W        W 9641   9.364   5.918  14.266 -0.0274  0.3599 -0.0597
 9442W        W 9642   4.471   9.769   2.369 -0.1997  0.0536  0.1316
 9443W        W 9643   5.931   6.496   0.116  0.0245 -0.1194  0.2127
 9444W        W 9644  12.811   4.061   3.813 -0.1649  0.1776 -0.0661
 9445W        W 9645  13.890  15.177   8.584  0.3559  0.0964 -0.1652
 9446W        W 9646   2.011   2.436   6.362 -0.2596 -0.1108  0.0390
 9447W        W 9647   8.501   1.084   0.296  0.1234  0.1006  0.0002
 9448W        W 9648  12.136   7.997   6.626  0.0100 -0.0260  0.0732
 9449W        W 9649  10.829   4.324   8.864 -0.3181 -0.3117  0.2105
 9450W        W 9650   7.529   8.706   8.300 -0.2089  0.0024  0.1132
 9451W        W 9651   1.847  12.557  10.367 -0.1831 -0.1537 -0.1485
 9452W        W 9652   5.023  13.240   7.319 -0.3249  0.1147  0.4629
 9453W        W 9653   6.134  13.107   8.347  0.1767  0.2704  0.2024
 9454W        W 9654   7.040   3.691   7.969  0.1680 -0.2483 -0.1376
 9455W        W 9655   6.064   3.913   6.294 -0.0744 -0.0164 -0.0772
 9456W        W 9656   4.374   0.073   9.706 -0.2509  0.0520  0.0002
 9457W        W 9657   8.556   3.405  12.251  0.0720  0.1356 -0.1630
 9458W        W 9658  12.404   7.379   1.761  0.3232 -0.2355  0.0417
 9459W        W 9659  15.117  14.702  13.562 -0.3643  0.1527 -0.1135
 9460W        W 9660   2.203   6.818  13.042 -0.0284 -0.1322  0.0870
 9461W        W 9661   2.673   0.562   2.899  0.1818 -0.1192  0.1679
 9462W        W 9662   9.981   8.515  14.528  0.3029  0.2285 -0.2694
 9463W        W 9663   2.993   1.169  13.168  0.0018 -0.2528 -0.1511
 9464W        W 9664   5.562   8.139   7.769 -0.1636  0.0588 -0.1030
 9465W        W 9665  11.263   1.424  10.191 -0.0063 -0.0273  0.1736
 9466W        W 9666  10.570   5.430   6.762 -0.1565 -0.0223 -0.2963
 9467W        W 9667   5.961  12.509   5.439  0.3715  0.0935  0.2742
 9468W        W 9668   4.437   3.897  13.914 -0.0633  0.3144  0.1101
 9469W        W 9669   7.454  13.656   1.796 -0.1724 -0.0116 -0.0507
 9470W        W 9670   6.389   5.527  14.905  0.0367  0.0988 -0.1992
 9471W        W 9671  12.671   3.328  13.552 -0.1106  0.2883 -0.0977
 9472W        W 9672   2.275   1.745  10.383  0.2606  0.1066  0.0000
 9473W        W 9673  10.484   1.407   1.506 -0.2401 -0.4324 -0.4388
 9474W        W 9674  14.791   1.525   1.866 -0.3017  0.2753 -0.1565
 9475W        W 9675   1.747  10.045   8.821 -0.1333 -0.1889 -0.2773
 9476W        W 9676  11.066   0.513   6.208  0.1956  0.0113  0.3474
 9477W        W 9677   6.739   8.046   4.061 -0.1231  0.2614 -0.1036
 9478W        W 9678   1.903  13.945   6.025  0.1682 -0.0250 -0.1544
 9479W        W 9679   0.156   8.241   6.709  0.0768 -0.0635  0.0321
 9480W        W 9680   9.300   3.047  10.458  0.0740  0.0459  0.2833
 9481W        W 9681  13.278   0.513   5.023  0.3232  0.0189 -0.1123
 9482W        W 9682   4.866   4.410  11.581  0.0447  0.2468 -0.1908
 9483W        W 9683  12.381  12.957  10.955 -0.0967  0.1742  0.1934
 9484W        W 9684  15.115   0.517   6.163  0.1185 -0.2324 -0.0642
 9485W        W 9685   2.541   3.293   6.250  0.0267  0.1805 -0.0927
 9486W        W 9686   7.623   4.373   0.423  0.0970 -0.0058  0.2947
 9487W        W 9687   4.206   8.153  12.640  0.1444 -0.2686  0.0762
 9488W        W 9688   3.506   8.738  12.338  0.0467 -0.1895 -0.2294
 9489W        W 9689  11.011   0.870   7.504  0.1972 -0.2021 -0.3317
 9490W        W 9690  12.985   6.491   4.303  0.1667 -0.4237  0.2112
 9491W        W 9691  13.648   8.414   5.510 -0.1232  0.2242  0.1206
 9492W        W 9692   3.158   7.530  11.539 -0.1156  0.0445 -0.0838
 9493W        W 9693   1.073   2.233   7.428  0.2378 -0.1275  0.2079
 9494W        W 9694   6.069  10.093   7.936  0.0825  0.1826 -0.1206
 9495W        W 9695   5.833   2.027   3.445  0.0130 -0.0500 -0.1199
 9496W        W 9696  10.352   1.342   0.406  0.0553  0.2165 -0.1331
 9497W        W 9697   4.530   5.277   9.307 -0.1865 -0.0952 -0.2360
 9498W        W 9698   1.608   9.746   0.369 -0.0082  0.2889  0.2210
 9499W        W 9699   4.366  12.624   6.645  0.2083 -0.1082 -0.3211
 9500W        W 9700  12.175   8.410   9.514 -0.1538 -0.0175 -0.0679
 9501W        W 9701   9.659   8.894   9.676 -0.1686  0.2153  0.1525
 9502W        W 9702   3.114  10.486   9.729  0.2820  0.1036 -0.0170
 9503W        W 9703   2.336   3.247  10.536  0.0688  0.1524 -0.3599
 9504W        W 9704   4.630  11.252  10.008 -0.1663 -0.1277 -0.1163
 9505W        W 9705   3.094   9.317   0.744 -0.0996  0.1099  0.2454
 9506W        W 9706  13.420   4.903   7.323 -0.0891 -0.3487  0.2181
 9507W        W 9707   2.019  11.808   7.538 -0.1101 -0.2344 -0.0429
 9508W        W 9708  14.718   6.267  11.128 -0.0894  0.0468 -0.0931
 9509W        W 9709   2.154   2.726   7.545  0.0958 -0.0806 -0.0099
 9510W        W 9710   2.327  10.335   3.455  0.0654 -0.2582 -0.0065
 9511W        W 9711   4.071   8.258   8.427 -0.4170  0.1481 -0.2724
 9512W        W 9712  11.208   4.180  12.356  0.1547 -0.0325  0.1743
 9513W        W 9713  12.059  10.471   2.259 -0.1982  0.1006 -0.0863
 9514W        W 9714   5.472   3.279   2.194  0.2404 -0.1873  0.2532
 9515W        W 9715   4.878   8.795   4.816 -0.3201  0.0528 -0.1238
 9516W        W 9716  10.406   3.756   9.034  0.0913  0.1487  0.4500
 9517W        W 9717   4.480   0.794  12.344 -0.1046 -0.1733 -0.0664
 9518W        W 9718  11.349   5.626   2.480 -0.3606  0.3528 -0.0184
 9519W        W 9719   4.092   3.106   4.728  0.2860 -0.2138  0.1979
 9520W        W 9720   0.980   8.318  13.957  0.3415  0.3110  0.2589
 9521W        W 9721   5.196  13.908   7.634  0.4862 -0.2975  0.0181
 9522W        W 9722   6.830   1.642   2.132 -0.2272 -0.2190 -0.1774
 9523W        W 9723   3.898   8.599   1.655  0.0270  0.1843 -0.0194
 9524W        W 9724   8.592   0.143   3.899  0.1408  0.0586 -0.0185
 9525W        W 9725  14.856  15.100   8.537 -0.1744  0.1249  0.0964
 9526W        W 9726   4.567   4.410   9.973 -0.2753  0.0417  0.0096
 9527W        W 9727   7.600   6.288  11.184  0.1582  0.2313  0.0398
 9528W        W 9728  12.018   4.735   7.600  0.0426 -0.0943  0.0935
 9529W        W 9729   8.874  12.097   5.901  0.2221 -0.4357  0.1034
 9530W        W 9730   4.150   5.146   1.671  0.0967  0.1738  0.0118
 9531W        W 9731   6.796   7.552   8.931 -0.3145 -0.0158 -0.0316
 9532W        W 9732   0.721   6.604   6.375  0.2217  0.0538  0.1111
 9533W        W 9733   1.369   5.692   4.649 -0.0213 -0.3146  0.0826
 9534W        W 9734   8.154   0.295  12.279 -0.3182  0.2403  0.3826
 9535W        W 9735   9.175   1.025  10.826  0.0608 -0.0585  0.3420
 9536W        W 9736   5.828   1.659  11.657  0.2816  0.1087 -0.0240
 9537W        W 9737   4.339   7.888   0.906 -0.1165 -0.0623 -0.2980
 9538W        W 9738   9.319   7.142   4.615  0.0186  0.0761 -0.0235
 9539W        W 9739   4.517   9.407   1.406 -0.0656  0.1844  0.1538
 9540W        W 9740   2.615   7.539   8.098 -0.0014 -0.1320 -0.0151
 9541W        W 9741   2.177   8.386   4.646  0.0079 -0.1657  0.1434
 9542W        W 9742  10.189   5.494   4.541  0.0382 -0.1744 -0.2311
 9543W        W 9743  12.241   1.964  11.705 -0.0367  0.1668  0.2989
 9544W        W 9744   7.341  13.117   2.485  0.0113 -0.1337 -0.3108
 9545W        W 9745  12.991   8.912  10.545 -0.1362 -0.0932 -0.2474
 9546W        W 9746   4.953   6.374  10.634  0.2183  0.1541  0.2265
 9547W        W 9747   7.323   5.821  11.281 -0.2113  0.2280 -0.1033
 9548W        W 9748  11.217  11.061  12.496  0.0208  0.0087 -0.2097
 9549W        W 9749  14.222   1.155   7.716 -0.0667  0.0630  0.3044
 9550W        W 9750  10.455  11.850   6.006 -0.2190  0.3631  0.1613
 9551W        W 9751   6.706   2.571   9.480  0.2183  0.2636 -0.0776
 9552W        W 9752  11.905   4.037   5.808  0.1692 -0.2973 -0.1130
 9553W        W 9753   0.128   7.671   6.816 -0.0211 -0.1917 -0.0133
 9554W        W 9754  11.597   6.767  13.327 -0.0238 -0.1389  0.3927
 9555W        W 9755  12.603   5.237   0.690 -0.1814  0.2606 -0.1779
 9556W        W 9756  11.498   0.470   7.360 -0.0326  0.1699 -0.0400
 9557W        W 9757   6.420   5.307   6.921 -0.0048  0.0227  0.2363
 9558W        W 9758  12.435   2.085   6.063 -0.0863  0.0406 -0.1797
 9559W        W 9759   7.128   0.293   4.273  0.1783 -0.0446 -0.2254
 9560W        W 9760   4.451   9.916  11.687 -0.0853 -0.0686  0.2156
 9561W        W 9761   2.435   9.436   3.787 -0.2440 -0.3568 -0.1903
 9562W        W 9762  13.812   3.068   2.383  0.1630 -0.0360  0.0922
 9563W        W 9763   6.388   9.443   5.030 -0.2128 -0.2528  0.0443
 9564W        W 9764  11.269   7.097  10.469  0.0236  0.0397  0.0271
 9565W        W 9765   8.523   2.304  10.718 -0.0255  0.0322  0.0518
 9566W        W 9766   6.404   8.429   7.832  0.3122  0.2048 -0.0797
 9567W        W 9767   4.778   5.533   1.026  0.1901  0.1511 -0.0180
 9568W        W 9768   6.340   1.079  12.228 -0.4205  0.0605  0.0653
 9569W        W 9769   8.824   4.951   1.017 -0.0674  0.2806  0.3769
 9570W        W 9770   6.317   2.253   7.333 -0.0893 -0.0953  0.0701
 9571W        W 9771   2.966   1.603   0.022  0.0691  0.3075  0.2552
 9572W        W 9772   9.330   5.196   2.217  0.1221 -0.1665 -0.0068
 9573W        W 9773  13.799   4.900   6.463 -0.1871 -0.0327 -0.0995
 9574W        W 9774   4.439   8.298   2.224 -0.0306  0.0122 -0.1013
 9575W        W 9775   1.611   4.402  14.408  0.1957  0.0702 -0.0143
 9576W        W 9776   6.857  13.241  11.159 -0.0026  0.2118  0.0930
 9577W        W 9777   7.135   9.329   5.095  0.0034  0.0892  0.1632
 9578W        W 9778  11.911   4.092   1.922 -0.0021 -0.2452 -0.2064
 9579W        W 9779   9.666  14.236   4.524  0.0988 -0.2725 -0.0301
 9580W        W 9780   1.735  11.317   0.083 -0.2393  0.1416 -0.0553
 9581W        W 9781  11.505  13.586   7.045  0.0391 -0.1159 -0.0753
 9582W        W 9782   5.075   9.183   6.050  0.3269 -0.3881 -0.3001
 9583W        W 9783  13.536   7.073  10.311 -0.1628 -0.0057 -0.0338
 9584W        W 9784   7.949  13.761   8.091 -0.0979  0.2498 -0.2157
 9585W        W 9785  12.311   9.578  13.692  0.0959  0.0841  0.2256
 9586W        W 9786   4.639   3.227  10.388 -0.2103 -0.1229 -0.1733
 9587W        W 9787   2.855  11.608   2.955  0.0233 -0.0468 -0.3404
 9588W        W 9788  12.372   8.345   6.982  0.0852  0.2656  0.0901
 9589W        W 9789  10.874   6.680   1.705 -0.0872 -0.1518 -0.0621
 9590W        W 9790   3.948  11.818  13.233  0.0683 -0.1116  0.2386
 9591W        W 9791  12.756  14.138  10.617 -0.0473  0.3693  0.0212
 9592W        W 9792   5.977   8.737   1.078  0.3079  0.2085 -0.1626
 9593W        W 9793   0.687   3.751   2.856  0.0019  0.1772 -0.2607
 9594W        W 9794  12.274  10.319   9.662  0.1701  0.2948 -0.2521
 9595W        W 9795   5.381   3.624  14.308 -0.0833 -0.0821  0.0064
 9596W        W 9796   4.432  11.003   5.647 -0.1422 -0.1065  0.1296
 9597W        W 9797  11.024  11.671  13.267  0.1233  0.1763  0.0026
 9598W        W 9798   9.175   3.903  10.793  0.0801  0.1756  0.1420
 9599W        W 9799   7.259   6.845   4.290 -0.1976  0.0519 -0.0207
 9600W        W 9800  13.747   2.216   9.569 -0.3820  0.2956 -0.0058
 9601W        W 9801   8.500   1.599  11.612 -0.0057  0.2248 -0.2901
 9602W        W 9802   2.499   7.318  10.721 -0.0343 -0.2718 -0.1975
 9603W        W 9803   6.964   5.373  12.980 -0.1910  0.0831  0.1441
 9604W        W 9804   6.583   5.036   5.033 -0.0893  0.0238  0.4994
 9605W        W 9805  14.863  12.351   5.602  0.0382  0.0586 -0.0621
 9606W        W 9806   4.272  13.789   9.555  0.1995  0.3735 -0.1011
 9607W        W 9807   6.328   8.005   5.963  0.0505 -0.1481 -0.1163
 9608W        W 9808   3.946   6.027  15.120 -0.0122 -0.0957 -0.0843
 9609W        W 9809   4.992   0.183   4.702 -0.0420 -0.1522 -0.1013
 9610W        W 9810   9.028   8.658  10.989  0.0434 -0.0508 -0.2117
 9611W        W 9811   5.684   8.054   9.638 -0.2498 -0.1541  0.2811
 9612W        W 9812   2.699   3.181   5.694 -0.1173 -0.1032  0.3843
 9613W        W 9813   1.115  11.502  13.647  0.0887  0.0074 -0.0830
 9614W        W 9814   9.714   2.353   4.872  0.1244  0.2090  0.0358
 9615W        W 9815  12.257  12.665  11.417  0.1146  0.2180  0.1527
 9616W        W 9816  15.124  12.459   4.689 -0.2087  0.0863 -0.0432
 9617W        W 9817   2.434   4.782   6.044 -0.0567  0.0806  0.2725
 9618W        W 9818   7.137   6.011   0.395 -0.1639 -0.2787  0.0155
 9619W        W 9819   3.286   3.106  13.242  0.0461  0.0509 -0.0288
 9620W        W 9820   2.771   2.168  13.168  0.3530 -0.0371 -0.1450
 9621W        W 9821   9.976   6.940  13.384  0.1887 -0.0473  0.1351
 9622W        W 9822   2.261   2.565   8.956 -0.0648  0.0856  0.1567
 9623W        W 9823   3.221   0.226  10.483  0.0656 -0.1306  0.1439
 9624W        W 9824  14.346   5.935   2.837  0.2878 -0.0762 -0.0127
 9625W        W 9825   3.423   3.044   1.932  0.1299 -0.2509  0.1279
 9626W        W 9826   8.870  12.983   8.933  0.1922  0.2887  0.1420
 9627W        W 9827   9.600   3.623   3.280 -0.1413 -0.1053  0.2040
 9628W        W 9828  13.189  12.717   0.629 -0.1809  0.1198  0.0149
 9629W        W 9829   8.899   8.740   9.486 -0.2950 -0.3582 -0.2935
 9630W        W 9830  13.223   5.739   6.218 -0.1058  0.2418 -0.0090
 9631W        W 9831   5.766   5.151   1.300 -0.3049 -0.1285  0.4617
 9632W        W 9832   1.284  12.656   8.090 -0.1118  0.1867  0.0607
 9633W        W 9833  11.255  11.505   7.107 -0.1371 -0.2211  0.2883
 9634W        W 9834   5.038   4.425   7.502 -0.2023  0.0530  0.1248
 9635W        W 9835  11.032   6.668   8.692  0.0271  0.1587  0.0915
 9636W        W 9836   6.886   0.235  12.443 -0.0255 -0.3383  0.2895
 9637W        W 9837   8.564   9.415  13.345 -0.2197 -0.1120 -0.1189
 9638W        W 9838   4.805   8.275  12.108 -0.2142 -0.2139 -0.1526
 9639W        W 9839   1.125   6.745   9.732  0.0732 -0.0429  0.1400
 9640W        W 9840   4.355  12.979  10.998 -0.2615  0.0778  0.1396
 9641W        W 9841   7.757   4.026   9.132  0.2814  0.1491  0.3227
 9642W        W 9842  10.643   5.516  10.141 -0.0824  0.0241  0.2844
 9643W        W 9843   4.201  12.531  12.539  0.0067 -0.4151  0.1607
 9644W        W 9844   5.503  11.710   9.752  0.0244  0.0443 -0.0787
 9645W        W 9845   9.759   5.079  10.039  0.3881  0.1673 -0.2318
 9646W        W 9846   0.635  10.979   8.900 -0.2901  0.4406  0.2593
 9647W        W 9847  12.198   8.859   9.232 -0.0996 -0.2293 -0.1948
 9648W        W 9848   6.787   9.635  13.179  0.1144  0.0529 -0.1499
 9649W        W 9849   6.236  11.280   7.091 -0.3545  0.0262  0.2595
 9650W        W 9850   2.312  14.404   1.366 -0.0509  0.0544 -0.0741
 9651W        W 9851   3.329   9.718  12.302 -0.1873 -0.1460  0.3107
 9652W        W 9852   3.279   5.331   7.239  0.1077 -0.1017  0.0776
 9653W        W 9853   9.174   0.563  13.787  0.0192 -0.0502 -0.0703
 9654W        W 9854   0.615   0.716   9.257  0.1348 -0.1177 -0.0867
 9655W        W 9855   9.670  14.179  13.510  0.2620  0.1909 -0.0307
 9656W        W 9856   4.913  14.818   2.851  0.0394  0.1480  0.1879
 9657W        W 9857   1.373  10.669   5.414  0.0402 -0.0656 -0.0279
 9658W        W 9858   3.828   2.946   9.773 -0.0624 -0.0934 -0.0031
 9659W        W 9859   8.777   8.724  11.460  0.0676 -0.2198  0.2819
 9660W        W 9860   7.787  12.941   8.756 -0.1796  0.0390  0.0159
 9661W        W 9861   7.664  11.440   4.429  0.1829 -0.1672  0.2345
 9662W        W 9862  14.210   2.569   9.620 -0.0503  0.2975 -0.2073
 9663W        W 9863   3.619   3.224   7.457 -0.0431 -0.0286  0.2216
 9664W        W 9864   6.069   0.660   4.142 -0.1412  0.0669 -0.2032
 9665W        W 9865   9.570   5.976   9.823  0.1181 -0.0826  0.1648
 9666W        W 9866   0.161   1.517   5.214  0.1420 -0.1216  0.0768
 9667W        W 9867   8.900   5.003   0.322 -0.0403  0.0437  0.1088
 9668W        W 9868   7.533   6.366   4.482  0.1039 -0.0690 -0.2181
 9669W        W 9869   2.943   5.604  13.700  0.1342 -0.2607 -0.1123
 9670W        W 9870   2.505   4.216   3.872 -0.1098  0.3062 -0.0834
 9671W        W 9871   1.876  10.006  11.179  0.0049  0.2756 -0.2098
 9672W        W 9872   2.078   5.431   6.446  0.0276 -0.0820 -0.1786
 9673W        W 9873   8.542   0.996   5.413  0.0408  0.3340  0.1544
 9674W        W 9874   4.005   9.928   5.273 -0.1570  0.0970  0.4529
 9675W        W 9875   4.320   9.249   0.165 -0.3536 -0.1576 -0.1742
 9676W        W 9876   2.282  10.596   4.032  0.1388  0.0257  0.0238
 9677W        W 9877  12.815   6.973   2.917  0.0470 -0.0488  0.0724
 9678W        W 9878   8.617   9.506  10.673 -0.1968  0.2292 -0.3143
 9679W        W 9879   3.984  10.458  12.238  0.0392 -0.1417  0.2054
 9680W        W 9880   7.888   2.686   8.021  0.3262 -0.1917  0.0559
 9681W        W 9881  12.233  14.463  11.914 -0.0655  0.0182  0.1401
 9682W        W 9882   1.697   8.367   3.433  0.1307  0.0409 -0.1015
 9683W        W 9883   8.568   6.300   7.441  0.2904  0.1381 -0.4219
 9684W        W 9884   8.267   0.787  10.890 -0.0899 -0.0066  0.1600
 9685W        W 9885  13.951   4.726   7.356 -0.0882  0.1030 -0.1894
 9686W        W 9886   8.233   1.940  10.842 -0.0126  0.3647 -0.3050
 9687W        W 9887   9.362   3.843   4.988 -0.1065 -0.1553 -0.1942
 9688W        W 9888   1.136  13.747   1.600 -0.0066 -0.0713 -0.0134
 9689W        W 9889   1.137   7.349  14.474  0.0665 -0.1262 -0.2646
 9690W        W 9890   7.836   2.946   0.859  0.1243 -0.1595  0.2323
 9691W        W 9891   6.830   6.994   0.576 -0.0385  0.2466  0.1184
 9692W        W 9892   6.164   1.083   4.894 -0.2272 -0.3371  0.2472
 9693W        W 9893  10.442  12.526   3.757  0.0093 -0.2230  0.0468
 9694W        W 9894   9.892   6.174   0.388 -0.1457  0.0025 -0.3768
 9695W        W 9895   7.617  13.527  13.695 -0.1000 -0.2257  0.0465
 9696W        W 9896   9.316   8.722   5.521  0.0396  0.0117 -0.1829
 9697W        W 9897   7.862   8.867   5.701 -0.0768 -0.0404 -0.0237
 9698W        W 9898   6.032   5.234   7.809  0.1338  0.0341  0.0452
 9699W        W 9899   0.274   7.449   7.319  0.0854 -0.0314  0.3781
 9700W        W 9900   0.386  14.861  14.466  0.0033 -0.3335 -0.0565
 9701W        W 9901   2.677   4.593   7.899  0.1297  0.1853 -0.1432
 9702W        W 9902   1.063   4.269   9.969 -0.1178 -0.3497  0.2179
 9703W        W 9903  11.031   4.644   9.199  0.3786 -0.2157 -0.4202
 9704W        W 9904   6.474   4.558   8.752  0.2195  0.0287 -0.2066
 9705W        W 9905   3.830  13.888  11.257 -0.0074  0.1737 -0.0544
 9706W        W 9906  11.228   0.797  14.529  0.4011 -0.0145  0.0349
 9707W        W 9907   2.004   5.697   8.732  0.1386  0.0246  0.0786
 9708W        W 9908   2.207   6.642   0.760  0.0566  0.1004 -0.1902
 9709W        W 9909   8.654   3.811   9.286 -0.0343 -0.1985  0.0614
 9710W        W 9910   4.829   4.488  12.055 -0.3664  0.1824 -0.2022
 9711W        W 9911   1.675   2.943   4.163 -0.0688 -0.0937 -0.2331
 9712W        W 9912   4.397   7.926  13.995 -0.2670  0.0065  0.1396
 9713W        W 9913   6.056  14.247  13.640 -0.1041  0.3333  0.3087
 9714W        W 9914  10.559   4.008  12.559  0.2747  0.1608  0.0567
 9715W        W 9915   5.212  11.601  14.328  0.0218 -0.2722 -0.0596
 9716W        W 9916   5.640   2.943  12.715 -0.0458 -0.0026 -0.0112
 9717W        W 9917   4.369  10.254   7.586 -0.2077 -0.3279  0.1656
 9718W        W 9918   3.287   2.110  10.262  0.1125  0.0687 -0.3228
 9719W        W 9919  12.335  14.410  10.297 -0.0173  0.1774  0.1010
 9720W        W 9920   2.625   6.886   2.915  0.0742  0.2517 -0.1510
 9721W        W 9921   7.579   8.066   5.857 -0.0752  0.0809 -0.0879
 9722W        W 9922  15.088   9.373   8.411 -0.2228 -0.0988 -0.0305
 9723W        W 9923  13.637   6.643  13.050 -0.2345 -0.1830  0.0633
 9724W        W 9924   5.146   6.140   3.912  0.4227 -0.1400  0.2036
 9725W        W 9925   8.098   4.165  10.078  0.1265 -0.0403  0.0667
 9726W        W 9926  12.217   3.691   1.871 -0.3915  0.0585 -0.2204
 9727W        W 9927   3.675  11.082   5.685 -0.0697  0.3210 -0.1161
 9728W        W 9928   2.087  12.082   5.366  0.0427 -0.1211  0.3622
 9729W        W 9929   6.220   5.857   4.977  0.4697 -0.2386 -0.1329
 9730W        W 9930   0.444   7.077   0.678  0.2056 -0.2735  0.0782
 9731W        W 9931   8.468   3.104  14.245 -0.0420 -0.1627  0.0205
 9732W        W 9932   4.516  13.571   9.894  0.2084 -0.2088  0.0776
 9733W        W 9933   5.498   6.019  12.189 -0.1092  0.1327 -0.0306
 9734W        W 9934   7.316  10.100   8.079 -0.0559  0.3784  0.0144
 9735W        W 9935   4.150  12.691   1.771  0.1166  0.2638  0.1588
 9736W        W 9936  14.075   9.940   1.291 -0.0528  0.0780  0.0204
 9737W        W 9937   1.697   2.010   9.625  0.1302 -0.2457 -0.4304
 9738W        W 9938   6.216  11.051  10.862 -0.0479  0.1139  0.0618
 9739W        W 9939   0.962   6.177   1.484  0.0184  0.1235  0.2002
 9740W        W 9940   3.532   3.730  11.932  0.2410  0.0921  0.0855
 9741W        W 9941   4.017   2.114   8.728  0.0627  0.0237  0.3097
 9742W        W 9942  14.339  10.856   6.031 -0.1267  0.0924  0.1348
 9743W        W 9943  15.073  13.811   4.786 -0.1992  0.2989  0.0563
 9744W        W 9944   5.841   5.607   4.423  0.1494  0.0887 -0.2183
 9745W        W 9945   1.668  14.683  14.181 -0.1471  0.0528  0.1657
 9746W        W 9946  11.886   5.161   7.793  0.0766 -0.1958  0.0876
 9747W        W 9947  14.161   8.102   8.339  0.1150 -0.1126 -0.1800
 9748W        W 9948   5.320   9.316   4.101  0.2568 -0.0109 -0.2689
 9749W        W 9949   6.483  14.434   3.675 -0.0921  0.0211 -0.2691
 9750W        W 9950   4.033   9.659   2.558 -0.0205  0.1112  0.0362
 9751W        W 9951   9.170   7.759   9.232 -0.1894 -0.1712 -0.2518
 9752W        W 9952   2.246   7.032  11.561 -0.2288 -0.0452 -0.0192
 9753W        W 9953   1.349   7.916   4.835  0.1299  0.3457  0.0564
 9754W        W 9954   2.011   4.904   4.464 -0.2491  0.2979 -0.1982
 9755W        W 9955   0.377   9.850   8.804 -0.2986 -0.5398  0.2401
 9756W        W 9956  11.837   0.413   3.647 -0.0007  0.2007  0.0824
 9757W        W 9957   3.975   7.877   7.120  0.1052  0.1944 -0.0310
 9758W        W 9958  10.466   4.622   4.935  0.1689  0.1255 -0.0637
 9759W        W 9959   7.709  13.649   6.985  0.0695 -0.1286  0.0005
 9760W        W 9960  10.614   5.341   5.487 -0.0788 -0.0708  0.0233
 9761W        W 9961   4.703   8.369   6.291  0.1920 -0.0956 -0.0784
 9762W        W 9962   5.923   7.137  10.747  0.1488  0.1312  0.0080
 9763W        W 9963  11.076   7.549   8.008 -0.0636 -0.0340 -0.1164
 9764W        W 9964   3.982   8.267   5.894 -0.1712 -0.0436 -0.0993
 9765W        W 9965   4.740   2.447  13.966 -0.2404 -0.1996  0.0737
 9766W        W 9966  14.850  12.561   7.847  0.4214  0.0044 -0.0489
 9767W        W 9967   5.415   2.011   4.508 -0.2154  0.2342  0.0206
 9768W        W 9968  13.872   0.256   7.074  0.0944  0.0094  0.2606
 9769W        W 9969  14.050  13.802  11.369 -0.0173 -0.2471 -0.1050
 9770W        W 9970  12.429   0.506   6.726  0.0157 -0.0914  0.4758
 9771W        W 9971  13.671   3.507   5.793  0.1846 -0.2194 -0.2320
 9772W        W 9972   6.123   4.264   8.927  0.0864  0.0545  0.1403
 9773W        W 9973   2.797   1.650  12.356  0.0721 -0.3282  0.0545
 9774W        W 9974   5.343   5.805  14.127 -0.6150 -0.1090 -0.2122
 9775W        W 9975  11.122   6.932   7.345  0.0376 -0.0462  0.3322
 9776W        W 9976   1.721  11.037  12.796  0.1394 -0.0046 -0.0365
 9777W        W 9977   0.865   1.275   2.405 -0.3675 -0.0524  0.1400
 9778W        W 9978  13.953   7.621  13.652  0.3320 -0.0696  0.0445
 9779W        W 9979   6.397   7.690   2.748  0.3325  0.2125  0.0512
 9780W        W 9980   5.339  12.006  12.655  0.1754 -0.2467  0.0432
 9781W        W 9981   8.747  14.125   8.254  0.0379 -0.1309  0.0568
 9782W        W 9982  15.143  12.880   2.590  0.0125 -0.2273 -0.0332
 9783W        W 9983   9.242   8.982   7.397 -0.2516 -0.0909 -0.1845
 9784W        W 9984   1.364   6.895   9.342  0.0187 -0.1803 -0.0480
 9785W        W 9985   0.434  12.216  11.756  0.0440 -0.1985 -0.0071
 9786W        W 9986   4.508   3.982   2.329 -0.2062  0.0762 -0.0203
 9787W        W 9987  10.409   9.210   0.239  0.1474  0.0606  0.0785
 9788W        W 9988   2.311  13.357   7.380  0.3564 -0.2950  0.0210
 9789W        W 9989  14.784   3.379   9.659  0.0931 -0.0053 -0.0619
 9790W        W 9990  11.379   8.400  12.979  0.1260  0.0388 -0.0931
 9791W        W 9991   0.523   4.057  11.727 -0.2150  0.1848  0.0311
 9792W        W 9992   3.647   1.755   8.604  0.1895  0.2875 -0.0598
 9793W        W 9993  11.407   5.708  11.478 -0.0197  0.2089  0.1169
 9794W        W 9994  13.164   7.053  14.498  0.0876  0.0282 -0.1329
 9795W        W 9995  10.518   9.396  13.116  0.0027 -0.0735 -0.2943
 9796W        W 9996   5.727   3.906  14.725  0.1321  0.0028  0.1835
 9797W        W 9997   9.558  10.475   4.504 -0.3060  0.0314 -0.1392
 9798W        W 9998   7.406   5.507  12.187 -0.2764 -0.4417  0.2938
 9799W        W 9999   6.824   1.894   5.070 -0.2742 -0.1742 -0.0337
 9800W        W10000   0.950  13.405   7.589  0.1104  0.2845 -0.1853
 9801W        W10001   5.886   5.072   3.774 -0.1048 -0.2162  0.1528
 9802W        W10002   5.388  14.768   3.540 -0.2321 -0.0861 -0.0060
 9803W        W10003  10.860  14.759  12.345 -0.2007  0.1997  0.1803
 9804W        W10004   1.326   7.993  10.566 -0.0888 -0.0611  0.0037
 9805W        W10005   4.116   3.312   9.630 -0.0128 -0.1310 -0.0458
 9806W        W10006  11.604  12.645  12.769 -0.2820  0.1116  0.1543
 9807W        W10007   3.531   8.531   8.437 -0.0260 -0.4566 -0.0455
 9808W        W10008  11.891   1.052   0.322 -0.2338  0.1309  0.1077
 9809W        W10009  14.838  11.061  10.756  0.1572  0.2464 -0.0872
 9810W        W10010   9.686   6.608   0.702 -0.0284 -0.0834 -0.4377
 9811W        W10011   1.355  14.422  11.430 -0.0711  0.0645  0.2431
 9812W        W10012  11.357   2.139   6.908 -0.2328  0.0897  0.0340
 9813W        W10013   9.412   7.426   5.144 -0.0959 -0.3338  0.3813
 9814W        W10014   8.429  11.539   4.996 -0.1008 -0.1506  0.2776
 9815W        W10015   2.379   6.210   7.577  0.0476 -0.2369  0.1712
 9816W        W10016   3.349   9.132  11.394 -0.1646 -0.3950  0.0491
 9817W        W10017   6.886  10.134  11.373  0.0130  0.0953  0.1908
 9818W        W10018   3.834   0.227   3.361  0.0218  0.1297  0.0104
 9819W        W10019   5.626   3.350   7.297  0.1883  0.1879 -0.0723
 9820W        W10020   3.688  10.693   9.710 -0.3467  0.0787 -0.0384
 9821W        W10021  14.108  11.460   8.526 -0.0731 -0.1602  0.0423
 9822W        W10022   8.852   6.247  13.974  0.0374  0.0221  0.2003
 9823W        W10023   6.020   8.864   8.002  0.0818  0.0715  0.3067
 9824W        W10024   6.429  10.627   8.002  0.3418  0.1322  0.0022
 9825W        W10025   3.834   4.246   1.863 -0.1270 -0.0879  0.0644
 9826W        W10026   7.523   7.318   7.701  0.0460  0.2298  0.2293
 9827W        W10027   8.376   7.460   4.449  0.1753  0.2762  0.3907
 9828W        W10028   1.386  10.590  11.861  0.2158  0.0079  0.0512
 9829W        W10029   4.634   6.517   9.567  0.1338 -0.1394 -0.0770
 9830W        W10030   4.938   8.390   5.834 -0.0988 -0.1920  0.0541
 9831W        W10031  10.898   3.917  11.553  0.0655 -0.1647  0.1154
 9832W        W10032   4.363   0.026   1.004 -0.0651  0.2296  0.2235
 9833W        W10033   9.100   6.969  10.734  0.0884  0.3609  0.3200
 9834W        W10034   4.670   4.525   1.229  0.0733 -0.0901 -0.2479
 9835W        W10035   2.788   8.825   8.402 -0.0283 -0.1954 -0.0436
 9836W        W10036   8.757   7.481  12.779 -0.1882 -0.1578  0.1606
 9837W        W10037   7.516  10.562  13.430 -0.1376  0.0851  0.0018
 9838W        W10038   6.809  13.811  15.183 -0.0706 -0.2826 -0.1342
 9839W        W10039   2.282   2.674   8.232 -0.4382  0.0545 -0.1177
 9840W        W10040  12.821   9.235   6.155 -0.0858 -0.1442 -0.3128
 9841W        W10041   2.869   1.429   8.092 -0.1085  0.1841  0.0267
 9842W        W10042   8.873   3.319  12.585  0.1686 -0.0749 -0.3639
 9843W        W10043  10.361   9.640  12.163  0.2091 -0.0095 -0.1105
 9844W        W10044   5.482  13.335   0.974 -0.1651  0.0070  0.1053
 9845W        W10045   6.287   0.589   7.376  0.0372  0.1171 -0.1463
 9846W        W10046  12.446  11.109   8.917 -0.1648 -0.0828 -0.3005
 9847W        W10047   7.785  14.843   8.807  0.1020 -0.1136 -0.0773
 9848W        W10048   7.098   3.750  10.251  0.0938  0.1702  0.1757
 9849W        W10049   9.935  10.464   8.462 -0.2499 -0.0531  0.3846
 9850W        W10050   1.809   9.826   9.594  0.1094  0.0724 -0.0096
 9851W        W10051  10.573   4.651   2.318 -0.0948 -0.2409 -0.2606
 9852W        W10052   5.037   8.236   3.260  0.2937 -0.1173  0.1372
 9853W        W10053   1.850   6.466   3.904  0.0746 -0.0995  0.3607
 9854W        W10054   4.484  15.106   1.881  0.4422  0.1823  0.2054
 9855W        W10055   5.145   9.578  10.664  0.2274  0.1878 -0.0493
 9856W        W10056   1.870   9.143   0.546  0.1702 -0.0849 -0.0144
 9857W        W10057   3.088   4.558   0.263 -0.2999  0.0570 -0.1411
 9858W        W10058   3.409  12.866   5.582  0.2258  0.1593  0.0165
 9859W        W10059  14.272  13.067   1.391 -0.0373  0.1825  0.0204
 9860W        W10060   7.991   3.065   9.283  0.1829  0.2507 -0.0246
 9861W        W10061   8.590   1.849  10.478 -0.0415 -0.2773 -0.0616
 9862W        W10062   7.341   7.795  10.737 -0.1878 -0.2953 -0.2145
 9863W        W10063  12.719   7.813  13.266  0.2564 -0.5224 -0.1078
 9864W        W10064   5.481  11.205   9.781 -0.4329  0.1524 -0.2343
 9865W        W10065  10.526   7.020  10.401 -0.0077  0.0015  0.1034
 9866W        W10066   9.997  11.158   2.103 -0.1298 -0.0110  0.0779
 9867W        W10067   8.470   8.884  14.917  0.0416 -0.2300  0.1623
 9868W        W10068   9.233   4.765   3.866  0.4322  0.2317  0.3152
 9869W        W10069  10.574   6.929   0.319  0.4304 -0.3407  0.0092
 9870W        W10070  11.646  10.650   5.313  0.0659 -0.1067 -0.2277
 9871W        W10071   9.079  11.326   2.891  0.0170 -0.4113 -0.1738
 9872W        W10072   8.624   4.521  10.966  0.0534 -0.0682  0.1920
 9873W        W10073   4.435   7.880  13.491  0.0548  0.2418 -0.1590
 9874W        W10074  11.743   1.813   3.433 -0.2598  0.2541  0.2521
 9875W        W10075   3.185   6.956   5.384  0.0476 -0.0595  0.2600
 9876W        W10076   4.016  10.116   7.283 -0.1512  0.3443 -0.0310
 9877W        W10077   1.732   6.310   5.354 -0.0507  0.3679  0.0236
 9878W        W10078   9.324   0.862   0.802 -0.0770  0.1251  0.1398
 9879W        W10079   7.361   6.464   9.049 -0.0061 -0.3083 -0.0267
 9880W        W10080   8.180  14.901  13.085 -0.0014  0.0079 -0.1866
 9881W        W10081  14.474   7.156  11.096 -0.3983  0.0047 -0.0933
 9882W        W10082  15.109   3.740   3.921 -0.1363  0.2095 -0.0471
 9883W        W10083   6.581  14.974   0.899  0.4390 -0.0747  0.0794
 9884W        W10084   7.793  14.533  12.500  0.1500  0.3167 -0.1031
 9885W        W10085  10.391   5.847   0.512 -0.0763 -0.0442  0.0151
 9886W        W10086   1.294   3.571  13.988  0.2735 -0.1946 -0.2415
 9887W        W10087   8.000   8.110  11.737 -0.1800 -0.0739  0.1622
 9888W        W10088   7.536   2.714   0.525 -0.1706  0.1917 -0.0875
 9889W        W10089   7.883   3.923  14.160 -0.0507  0.0525  0.1662
 9890W        W10090   8.440   1.478   5.612  0.2708 -0.0413 -0.2899
 9891W        W10091  13.932  10.859   2.659  0.2205 -0.1053  0.3952
 9892W        W10092   2.965  15.074   9.874 -0.1022  0.0174 -0.0866
 9893W        W10093   0.446  10.411  10.453  0.2718  0.0113 -0.0768
 9894W        W10094  14.281  10.504   8.772  0.1555 -0.0224 -0.0385
 9895W        W10095   4.098   7.164   3.075  0.2263 -0.2855  0.1231
 9896W        W10096  14.925  11.105   2.403  0.5125  0.2404  0.0109
 9897W        W10097   4.302   3.803  13.465  0.3228  0.1390  0.2018
 9898W        W10098   4.782   7.826  15.184  0.1755 -0.0035  0.0983
 9899W        W10099   4.697   6.912  11.321 -0.1844  0.0616 -0.1184
 9900W        W10100   7.929  13.601   1.822 -0.2964 -0.2655  0.0479
 9901W        W10101  10.536  13.520   0.949  0.1313  0.0640 -0.1577
 9902W        W10102   6.527   6.029  13.454  0.0953 -0.1851  0.1728
 9903W        W10103   7.655   4.965  11.569  0.1322 -0.0301 -0.1645
 9904W        W10104   2.634  10.258  14.630 -0.2077 -0.0051  0.1386
 9905W        W10105  12.003  13.376  14.996  0.1765 -0.2644 -0.0843
 9906W        W10106  10.891   3.969  13.681  0.0386 -0.1542  0.1958
 9907W        W10107   5.781   4.643   8.725 -0.0726  0.0041  0.1486
 9908W        W10108   7.317   1.620   7.176  0.0561 -0.0183 -0.1844
 9909W        W10109   0.047   2.292  13.448 -0.2240  0.0730 -0.3539
 9910W        W10110   4.625   2.983  11.835  0.0338  0.0106 -0.2596
 9911W        W10111  10.729  13.693  12.679 -0.3482  0.2233  0.0468
 9912W        W10112  14.992  11.425   1.605 -0.0016  0.0275  0.1490
 9913W        W10113   9.013   8.561   7.432 -0.2407 -0.0550  0.1595
 9914W        W10114   5.026   2.844   6.861  0.1309 -0.1065 -0.2125
 9915W        W10115   6.583   7.491  14.464 -0.0408 -0.0990  0.2410
 9916W        W10116   6.298   7.996   5.472 -0.0419  0.1418 -0.2404
 9917W        W10117   5.864   7.247   3.752 -0.1133  0.0112 -0.2214
 9918W        W10118   7.068   1.557  11.851 -0.0297  0.1821 -0.1892
 9919W        W10119   1.017   4.030   3.530  0.0348 -0.1065  0.0797
 9920W        W10120   3.733   8.216   9.734  0.2520 -0.0589 -0.1330
 9921W        W10121   3.103   3.248  12.761 -0.2690  0.0699  0.1726
 9922W        W10122  15.017  12.810   0.381  0.1099  0.1552  0.0547
 9923W        W10123   5.788   5.589   5.846  0.0437  0.1292  0.1634
 9924W        W10124  14.980  10.428   9.119 -0.4230 -0.0392  0.0640
 9925W        W10125   5.915   8.580   9.078 -0.0832  0.0301  0.1378
 9926W        W10126   7.454   6.266   1.168 -0.0355  0.0850  0.0844
 9927W        W10127   5.161   5.049   3.016 -0.3304  0.0140  0.1117
 9928W        W10128   2.146   2.644  11.258 -0.1298  0.0538  0.0450
 9929W        W10129   1.937   7.851   7.712  0.1916  0.1280 -0.2173
 9930W        W10130  10.328  12.920  12.417 -0.2183 -0.1376 -0.0212
 9931W        W10131   9.177  10.342   0.753  0.0420 -0.0481 -0.0476
 9932W        W10132   1.472   0.965  11.913  0.2570  0.0915  0.1395
 9933W        W10133   4.282   2.519   7.228 -0.1916 -0.1182  0.1773
 9934W        W10134   7.913  13.930  13.567 -0.3863  0.0600 -0.2691
 9935W        W10135   8.862  12.530   4.592  0.1211 -0.1679 -0.1352
 9936W        W10136   3.229  14.675   8.597  0.1596 -0.2302 -0.0490
 9937W        W10137   1.299   6.501   9.057 -0.0377  0.2523  0.0096
 9938W        W10138  11.241   4.360  13.444  0.0377  0.1013  0.1900
 9939W        W10139   6.260  12.622   3.554 -0.0760 -0.1738 -0.0224
 9940W        W10140   4.735   4.830   9.344  0.0549 -0.0843  0.2141
 9941W        W10141   0.943   3.866   6.667 -0.1760  0.2214 -0.0706
 9942W        W10142   0.440   6.311  12.262 -0.1220 -0.1117 -0.0929
 9943W        W10143   5.066   5.399  12.143  0.0644 -0.2398  0.4368
 9944W        W10144  10.802  10.958  14.035 -0.1829 -0.0197 -0.0536
 9945W        W10145   2.198   5.887   1.408 -0.0593  0.1506  0.2131
 9946W        W10146  11.165   3.292   5.403  0.1122 -0.2169 -0.2835
 9947W        W10147   6.787   0.160   2.036  0.1350 -0.0676 -0.0297
 9948W        W10148   7.297   5.498   1.760 -0.3050  0.0450 -0.2285
 9949W        W10149   9.139   4.032   7.414  0.0867  0.1891 -0.1621
 9950W        W10150   4.497  14.466   5.856 -0.0663 -0.2977  0.0345
 9951W        W10151   6.030   2.081  11.797  0.2855  0.1046  0.1744
 9952W        W10152   9.532  14.159  11.624  0.0044 -0.2935  0.2068
 9953W        W10153   0.064  12.992   1.899  0.0354 -0.3164 -0.3791
 9954W        W10154   3.882   8.336   0.211  0.0665  0.1491 -0.0029
 9955W        W10155   7.671   0.566   1.470  0.1362  0.0139 -0.0178
 9956W        W10156   3.059  10.038   9.995  0.2678  0.2128  0.0034
 9957W        W10157   6.931   8.787  11.126  0.0277  0.0609  0.0941
 9958W        W10158   3.119  14.239  15.170  0.4990 -0.0179 -0.2531
 9959W        W10159   8.981   4.650  15.026  0.2342 -0.0023 -0.0099
 9960W        W10160  13.496   3.991   1.932  0.0318  0.0038  0.0206
 9961W        W10161   6.365  11.180   9.914  0.1346 -0.1191 -0.0127
 9962W        W10162  11.576  10.955   5.865 -0.5703  0.0533 -0.0770
 9963W        W10163   9.093   2.911   6.844  0.0814 -0.2770 -0.1077
 9964W        W10164   3.316   5.369  12.290 -0.0472  0.0129  0.1549
 9965W        W10165   9.028   2.801   3.532 -0.0660  0.1794 -0.0987
 9966W        W10166  13.325   4.920   2.004 -0.1298 -0.1418 -0.1071
 9967W        W10167   7.182   4.402  13.958  0.0077 -0.1305  0.0305
 9968W        W10168   5.535  11.186  11.900 -0.0194  0.1482 -0.2078
 9969W        W10169   5.291   9.268   9.448  0.3557  0.0540 -0.0887
 9970W        W10170   8.519   8.950   1.093 -0.0316 -0.1612  0.3816
 9971W        W10171   5.288   1.349  14.847  0.2164  0.0903  0.2527
 9972W        W10172   1.175   7.556  10.808 -0.0670  0.1277 -0.2142
 9973W        W10173   5.657   2.520   2.568 -0.0142 -0.1418  0.2209
 9974W        W10174   9.627   7.972  11.429  0.1564  0.0757  0.0411
 9975W        W10175  11.518  13.223  14.837 -0.0920  0.0720  0.0351
 9976W        W10176  10.426  11.333  13.841 -0.0982  0.1126  0.1450
 9977W        W10177  11.136   9.548   0.584  0.4576 -0.1105  0.1745
 9978W        W10178   6.394   9.407  12.961 -0.0979 -0.0422 -0.3171
 9979W        W10179  10.383   1.181  11.943 -0.0435 -0.1300  0.3122
 9980W        W10180  14.656   1.065   4.212 -0.0185  0.1169 -0.1366
 9981W        W10181   0.215  11.741  12.519 -0.0643  0.0899 -0.0549
 9982W        W10182   4.534   0.613  10.554 -0.0251  0.1896 -0.0422
 9983W        W10183   7.173   0.312  11.675  0.1140  0.3238 -0.0964
 9984W        W10184  11.724  10.373   1.172  0.3764 -0.2858  0.2363
 9985W        W10185   4.383  14.193   2.439  0.0615 -0.0060 -0.2530
 9986W        W10186  11.112   5.109   9.894  0.1320  0.4331  0.2059
 9987W        W10187   4.093  13.595   8.265  0.0608 -0.0428  0.0478
 9988W        W10188   4.957   8.605   1.837 -0.0411 -0.2534  0.0890
 9989W        W10189   6.276   9.802   7.329  0.1796  0.1581  0.0438
 9990W        W10190  11.743  14.388  13.307  0.3194 -0.0319  0.2647
 9991W        W10191   6.026   8.435   9.533  0.0131  0.1944  0.0071
 9992W        W10192   9.489   3.200  14.607 -0.0682 -0.0053  0.0586
 9993W        W10193   2.949   5.678   1.774 -0.0896  0.0474  0.0158
 9994W        W10194   3.135   2.184  14.833  0.2110  0.2257  0.2558
 9995W        W10195   8.652  14.910   1.381 -0.0985 -0.1262 -0.1878
 9996W        W10196   5.259   2.874   9.866  0.0191 -0.2448  0.0176
 9997W        W10197   9.769   7.771   3.340 -0.0453 -0.1619  0.0604
 9998W        W10198   6.918  10.246   1.458 -0.3286  0.1140  0.1571
 9999W        W10199  14.625  11.534   5.020  0.0065 -0.1805  0.3604
10000W        W10200  12.095   2.637   3.140  0.1308 -0.0010  0.1594
10001W        W10201   3.774   5.866  11.117  0.0310  0.1096 -0.0602
10002W        W10202   7.308   7.419  12.863  0.2029 -0.0648 -0.2027
10003W        W10203   7.560   1.270   1.279  0.1096  0.0970  0.2658
10004W        W10204  15.047   5.278   6.431 -0.3100 -0.1020 -0.3209
10005W        W10205  13.959   9.757  11.406  0.2008 -0.1654  0.0372
10006W        W10206  11.010  13.073   5.511  0.1618  0.0332 -0.1464
10007W        W10207   7.937   1.454   7.279 -0.0693  0.1371  0.2242
10008W        W10208  10.819   1.893   2.360  0.1260  0.0337 -0.4218
10009W        W10209  12.192  13.918   4.187 -0.0779 -0.0855  0.0797
10010W        W10210   1.638   5.184  13.712  0.1918  0.0187 -0.0796
10011W        W10211  10.300  12.153  10.313  0.3868  0.1306 -0.0693
10012W        W10212   2.552   3.521   5.008  0.0888  0.0444 -0.0556
10013W        W10213   9.905  14.280  12.499 -0.1708  0.3175  0.0682
10014W        W10214  10.329  13.623   0.143 -0.3465 -0.1417 -0.1646
10015W        W10215   1.075   3.055   7.788  0.1233 -0.0756 -0.1654
10016W        W10216   5.000   5.162   0.207  0.1953 -0.3234 -0.0304
10017W        W10217   6.710   8.498  15.155  0.1227  0.3575  0.3706
10018W        W10218   1.672  11.485  13.143 -0.2548 -0.0636 -0.0786
10019W        W10219   8.016   8.499   0.493  0.0926  0.1615  0.1759
10020W        W10220   0.721   8.548   5.586 -0.1792 -0.1880 -0.2889
10021W        W10221  12.575   5.200  10.351 -0.1318 -0.0362 -0.1697
10022W        W10222   3.514   7.302  11.861 -0.0953 -0.0790  0.0127
10023W        W10223   8.204   3.381  11.617  0.1213 -0.0758  0.1426
10024W        W10224   6.840   0.341   7.813  0.0530  0.1651 -0.2854
10025W        W10225   3.604  10.356  11.103 -0.0403 -0.1755  0.1556
10026W        W10226   6.955   0.219  13.632 -0.1751 -0.0691  0.2574
10027W        W10227   7.219   0.405   6.074 -0.2343 -0.1294 -0.0003
10028W        W10228   3.751   8.285  12.416 -0.3255 -0.0140  0.2785
10029W        W10229   9.677   6.693   1.207  0.0331 -0.1426 -0.1921
10030W        W10230   1.797   6.748  14.847  0.2627 -0.2419  0.1235
10031W        W10231   9.867  12.508  13.930  0.3084  0.1808  0.3489
10032W        W10232   1.271   6.045   5.813  0.2342  0.0513  0.1039
10033W        W10233   6.528   6.124   7.412 -0.0073 -0.0654  0.1302
10034W        W10234   1.501   5.762  14.999 -0.2940 -0.0315 -0.0545
10035W        W10235   2.759   8.047   2.460  0.3534  0.2507  0.2939
10036W        W10236  12.591  10.530  13.496 -0.0579 -0.1166 -0.0960
10037W        W10237   7.274   4.310  14.907 -0.1777 -0.2781  0.1355
10038W        W10238   4.577   5.795  12.326  0.0168 -0.1553  0.0410
10039W        W10239   1.614   9.778   6.182 -0.0564 -0.0024 -0.0446
10040W        W10240  10.128  13.954  14.345 -0.2795 -0.1529 -0.0732
10041W        W10241  13.423   3.834   0.414  0.1426 -0.2860 -0.0947
10042W        W10242  12.891  12.927   5.320  0.2415  0.0741  0.2714
10043W        W10243   1.265   5.200   1.477  0.0713 -0.1867  0.1613
10044W        W10244  12.844   3.994   7.002  0.1077  0.1533 -0.0850
10045W        W10245  12.602  15.038   4.717 -0.0839  0.0446 -0.1102
10046W        W10246   0.168   1.827   9.753  0.1101 -0.1022 -0.2081
10047W        W10247   7.407  11.851   7.357  0.1750 -0.1337 -0.3338
10048W        W10248  13.763  10.757  13.669 -0.2102  0.1308  0.0708
10049W        W10249  10.123   7.363   7.866 -0.1612 -0.2191  0.2965
10050W        W10250   8.899   5.686   8.825  0.2357 -0.0921  0.0861
10051W        W10251   6.896   8.933  11.619  0.0443 -0.0548 -0.0179
10052W        W10252   6.050  11.712   8.175  0.0997  0.2203  0.1258
10053W        W10253   4.528   8.341   9.298 -0.2078 -0.0787 -0.2052
10054W        W10254   5.998   1.844   0.316  0.0806 -0.1446  0.6075
10055W        W10255  13.174   8.601  13.683 -0.1579  0.0706  0.1030
10056W        W10256  15.010   2.117   6.086  0.0222  0.0266 -0.3848
10057W        W10257  12.914   8.246  13.942 -0.0152  0.1603  0.0572
10058W        W10258  10.392  14.184  14.776  0.1471  0.1119  0.1331
10059W        W10259   9.135  11.376  13.217 -0.2625  0.0094 -0.0554
10060W        W10260   6.232  14.811  11.413 -0.2530 -0.1621 -0.0505
10061W        W10261   0.823   2.080  13.062  0.0461 -0.2052 -0.3017
10062W        W10262  12.338   1.118  12.184  0.0414 -0.0124  0.3243
10063W        W10263   3.300   0.836   4.048  0.1138  0.2027  0.0870
10064W        W10264   0.004  10.587  13.935  0.3405 -0.3143 -0.0489
10065W        W10265   4.688   5.024   3.807 -0.0255 -0.1512  0.0130
10066W        W10266  10.018  11.903  14.031 -0.0857  0.0180  0.2118
10067W        W10267   8.141   2.949   3.311 -0.2107  0.2480 -0.1377
10068W        W10268  13.484  14.389   8.671 -0.0369  0.2404  0.1997
10069W        W10269   5.937   4.853   2.370 -0.0937  0.0490  0.1976
10070W        W10270  14.142   4.370   3.035 -0.0184 -0.1470  0.2416
10071W        W10271   6.598   3.157  12.315  0.1493  0.0939  0.0756
10072W        W10272   9.762  10.668   2.017 -0.3708 -0.0027  0.1825
10073W        W10273   2.877   7.453   1.783  0.0560 -0.1555  0.2030
10074W        W10274   7.876   9.036  13.961 -0.0498 -0.0057  0.1933
10075W        W10275  14.770  11.957  10.284  0.1368 -0.2400  0.0247
10076W        W10276   1.862   8.386  12.850  0.1193  0.2004  0.1341
10077W        W10277   9.020   0.716   5.329 -0.0324 -0.2252 -0.2392
10078W        W10278   6.207   3.452   1.037  0.1730 -0.1738  0.3898
10079W        W10279   8.736   6.275   3.195  0.0072 -0.0030  0.0026
10080W        W10280  11.383   4.450   2.449 -0.0998 -0.0244  0.3504
10081W        W10281   0.736   0.146   1.158  0.1697  0.1746 -0.0792
10082W        W10282   4.330  13.518  13.969  0.2657 -0.0469  0.2080
10083W        W10283   5.285  11.554   0.760  0.1436 -0.3441 -0.3073
10084W        W10284   1.078   9.746   5.148  0.2483  0.0904 -0.1644
10085W        W10285   2.365  15.111   6.604 -0.1674  0.1604 -0.3024
10086W        W10286  13.572   1.807   1.049  0.1603  0.2620  0.2452
10087W        W10287  12.420  13.765   7.998  0.1159  0.1166 -0.1365
10088W        W10288   4.903   6.618  14.274  0.0539  0.1849 -0.0724
10089W        W10289  13.907   2.487  11.687 -0.0685 -0.1392 -0.1041
10090W        W10290   8.997   8.059  14.703 -0.0268  0.1344 -0.3561
10091W        W10291   7.642   3.001   3.575  0.1888 -0.1980  0.0765
10092W        W10292   5.755  10.109  12.506 -0.1816  0.3913  0.0251
10093W        W10293   6.123   5.388   1.046  0.1776  0.0206  0.0356
10094W        W10294   7.942  10.665  14.512  0.1185 -0.0474 -0.2242
10095W        W10295  10.356  15.018   2.272 -0.2942 -0.0028 -0.1449
10096W        W10296   3.661   5.838   1.263  0.4046 -0.1229 -0.0562
10097W        W10297   7.018   3.907   9.782 -0.0657 -0.3705  0.2378
10098W        W10298  14.745   7.746   2.844 -0.3119  0.2544 -0.2247
10099W        W10299  11.615   5.759  10.302 -0.2008 -0.3223 -0.0373
10100W        W10300   4.699   4.106  11.178 -0.1788 -0.1452  0.1018
10101W        W10301   5.404  12.021   9.147 -0.0691  0.2727 -0.2591
10102W        W10302   9.617  13.019  12.352 -0.0922 -0.0162 -0.0025
10103W        W10303   2.219   2.084   2.059 -0.0458  0.0624  0.1454
10104W        W10304   7.729   5.387  12.840  0.0291 -0.2865 -0.0407
10105W        W10305   8.486   9.681  13.873 -0.1166  0.3377 -0.0980
10106W        W10306  12.152   9.661   6.464 -0.0499 -0.2403  0.0700
10107W        W10307   5.203   3.669  15.138 -0.0104  0.0526 -0.0982
10108W        W10308   1.892   7.036   9.647  0.0444 -0.3017 -0.0625
10109W        W10309   0.019   3.918   7.984  0.0431  0.1628  0.1028
10110W        W10310   6.568   0.931  14.789  0.1476  0.0428  0.1321
10111W        W10311   5.876   3.780   7.429  0.2880 -0.1979  0.1279
10112W        W10312   5.174  14.248  12.569  0.1729  0.0048  0.2513
10113W        W10313  13.186   3.916  13.719  0.1468  0.1520  0.0672
10114W        W10314   7.513   8.381   0.464 -0.0500  0.1278  0.2740
10115W        W10315   7.781  12.484   9.028  0.0256  0.2341  0.0580
10116W        W10316   5.739  12.244  12.268  0.0335 -0.0667 -0.0829
10117W        W10317   1.485   9.773   2.512 -0.1167 -0.0900  0.0344
10118W        W10318   8.661   7.710   0.549 -0.0296  0.2153 -0.0406
10119W        W10319   4.738  14.312  10.276 -0.1895  0.0389 -0.2158
10120W        W10320  10.690   1.256   6.675  0.2368  0.2106 -0.2257
10121W        W10321   5.687   3.550   1.827  0.2198 -0.1558 -0.0558
10122W        W10322  10.022  13.320   1.763  0.2428  0.0714  0.2442
10123W        W10323   7.294   8.201  11.510 -0.0772 -0.2132  0.2530
10124W        W10324   9.810   0.299   5.834  0.1179 -0.0718  0.1078
10125W        W10325   6.854   8.435   8.086 -0.3841  0.0533 -0.0462
10126W        W10326   9.668   7.709   8.449 -0.2970  0.0664 -0.3238
10127W        W10327  14.579   0.779  12.818  0.1045 -0.1428 -0.0226
10128W        W10328   7.344  11.016   0.691  0.1565 -0.1193 -0.0123
10129W        W10329   9.667   3.160   2.401  0.0782  0.0795  0.0472
10130W        W10330  11.304   4.507   0.273  0.1629  0.0591  0.1571
10131W        W10331   0.813   6.400  10.574  0.1800 -0.0364 -0.1149
10132W        W10332  12.341   6.535   2.109 -0.0294  0.2114 -0.0069
10133W        W10333   8.072   8.229  11.200  0.0839 -0.2334  0.0941
10134W        W10334   7.632   2.740  12.756  0.0991  0.1361 -0.3151
10135W        W10335  13.859   5.580  10.320 -0.0145  0.2709 -0.1175
10136W        W10336  14.943   8.155   5.532  0.1496  0.0653  0.1169
10137W        W10337   1.903  11.837   3.978  0.1491 -0.1364  0.2745
10138W        W10338   8.216   2.172   9.769  0.0462 -0.0424 -0.1620
10139W        W10339   8.729  14.200  14.571 -0.2344  0.1086 -0.2488
10140W        W10340   3.793   4.034   8.638 -0.0832 -0.1877 -0.0993
10141W        W10341   6.188   0.599   9.348 -0.0928  0.2312  0.0136
10142W        W10342   0.677  12.179   7.490  0.1818 -0.1317  0.0018
10143W        W10343  10.768   6.015  14.952 -0.0406 -0.2457 -0.0569
10144W        W10344   0.824   1.070  12.309  0.0205 -0.0254 -0.2065
10145W        W10345  11.685   2.225   2.935 -0.0830  0.0849 -0.1423
10146W        W10346   0.787   6.461   8.210  0.0637  0.2849  0.0605
10147W        W10347   8.537   2.683   4.901  0.2015  0.1940  0.0661
10148W        W10348   1.810  10.429  11.704 -0.3204 -0.1727  0.3271
10149W        W10349   1.564  14.077  11.879 -0.0143 -0.1644 -0.2039
10150W        W10350   9.815   9.845   0.341 -0.1952  0.1276  0.0096
10151W        W10351  14.360  10.833   1.194 -0.1046  0.0001 -0.2913
10152W        W10352   2.303  14.381   5.633 -0.0131  0.0778 -0.1351
10153W        W10353   6.737   6.227   5.676 -0.2346  0.3368 -0.0044
10154W        W10354   7.952   8.462   9.971  0.3361 -0.1287  0.2468
10155W        W10355   3.279   8.805  12.830 -0.1100 -0.1380  0.1369
10156W        W10356   5.111   5.326  11.110  0.2836 -0.1695 -0.3615
10157W        W10357   6.588   4.046  12.505  0.1433 -0.1387 -0.2235
10158W        W10358  13.605   8.537  13.429 -0.2550  0.3247  0.1656
10159W        W10359   1.933   8.315  11.251  0.0177 -0.3203 -0.3074
10160W        W10360  10.786   6.272   4.281  0.2271  0.1599  0.6269
10161W        W10361  13.745   6.099  10.171  0.0082  0.0473  0.2847
10162W        W10362   6.344  13.425   7.455  0.1713  0.1582  0.1232
10163W        W10363  12.527   6.077  11.207  0.2501  0.0255  0.0833
10164W        W10364   6.643   7.304  10.287 -0.0369 -0.1324 -0.3640
10165W        W10365  12.869   7.410   1.922  0.5752  0.0950  0.0772
10166W        W10366   9.540  10.331   7.194  0.2234  0.0829 -0.0022
10167W        W10367  11.052  14.325   2.329 -0.0576 -0.1585  0.1231
10168W        W10368   5.708  14.366  12.565  0.2795 -0.3424  0.1804
10169W        W10369   6.893  10.836   6.632 -0.1350 -0.1116  0.0417
10170W        W10370   0.654   3.321  12.590 -0.0947  0.1863 -0.0651
10171W        W10371   2.207  10.675   8.520 -0.2723  0.0759  0.3937
10172W        W10372  13.637  15.104   1.771 -0.0954 -0.2732 -0.0070
10173W        W10373  11.725   5.810   5.248 -0.1287 -0.2645  0.1870
10174W        W10374   5.882   1.736  13.182  0.0418  0.0195  0.0644
10175W        W10375   2.915  13.409   2.071  0.0162  0.0108  0.2324
10176W        W10376  14.735   2.952  10.765 -0.1209  0.0627  0.1961
10177W        W10377   0.364   8.481  12.051  0.2090 -0.0369 -0.0774
10178W        W10378   0.288  12.734  10.921 -0.0512 -0.1006  0.0987
10179W        W10379   7.824   3.899   7.618 -0.0800 -0.1320 -0.2234
10180W        W10380   9.546   6.426  10.258 -0.3104  0.0009 -0.2797
10181W        W10381   0.574  14.646   3.700 -0.1426 -0.0929  0.1854
10182W        W10382   3.446   5.103  13.151  0.0800  0.3307 -0.0402
10183W        W10383   2.273   7.203   8.845 -0.0523 -0.1128  0.3392
10184W        W10384   4.055  11.315  14.012  0.1121  0.0898 -0.0280
10185W        W10385   9.076   1.859  14.376 -0.2320  0.2652 -0.3284
10186W        W10386   8.470  12.766  11.750 -0.1047  0.1173 -0.0165
10187W        W10387   5.777   6.048   0.192  0.2252  0.1055 -0.1226
10188W        W10388   3.089   6.432  10.984  0.3110  0.1284  0.1112
10189W        W10389   4.037  14.936  11.019 -0.0303 -0.0684  0.0477
10190W        W10390   0.689   5.548   9.002 -0.2333  0.3826 -0.1493
10191W        W10391   4.172   9.452  14.377  0.1102  0.0608 -0.2476
10192W        W10392   2.864   4.344   3.106 -0.1395  0.0347  0.1224
10193W        W10393   2.056  11.172   8.562 -0.3467 -0.0204 -0.4901
10194W        W10394   0.696   5.809  11.916 -0.0287 -0.0545 -0.0326
10195W        W10395   2.796   9.709   1.714  0.0906  0.0672  0.0692
10196W        W10396  10.285   8.888   5.676 -0.0764  0.0613  0.2083
10197W        W10397  13.125   9.821  10.935 -0.2189  0.1602  0.0853
10198W        W10398   7.416  13.890  11.752  0.1768 -0.1876 -0.1937
10199W        W10399   3.064   3.864  12.225  0.1832 -0.4302  0.1838
10200W        W10400   8.608  11.850  13.516 -0.2011  0.0136 -0.4550
10201W        W10401   5.920   4.766  14.417 -0.0567  0.1837 -0.1100
10202W        W10402  13.237  10.257   4.608 -0.2558 -0.0520  0.0447
10203W        W10403   6.155  11.237   5.641  0.3862 -0.0396  0.3515
10204W        W10404   8.170  10.036   1.434  0.0942 -0.0192 -0.3426
10205W        W10405   6.974   7.040   9.239 -0.1961 -0.0963  0.2953
10206W        W10406   5.054  13.294   9.888  0.1042  0.3543 -0.1593
10207W        W10407   8.625   8.587  10.606  0.0292 -0.3036 -0.1058
10208W        W10408   2.649   4.952   3.320  0.0779  0.1226  0.0815
10209W        W10409   8.393   1.858  12.411 -0.0258  0.1575 -0.0520
10210W        W10410  10.918   1.711   6.298  0.2163 -0.0150 -0.2222
10211W        W10411   8.362   4.895   5.849 -0.2141 -0.2196 -0.2039
10212W        W10412   4.919   7.517   9.511  0.0482 -0.0057 -0.0580
10213W        W10413   5.561   0.782   2.963 -0.1616  0.0019 -0.2282
10214W        W10414   5.280  11.113   1.064  0.1389  0.1200  0.0141
10215W        W10415  14.974   3.683   2.988 -0.0273  0.0374  0.1666
10216W        W10416   1.499   6.161   0.140  0.3866 -0.2349  0.0250
10217W        W10417   6.111   1.099  13.666  0.1320 -0.1679 -0.1383
10218W        W10418   7.805   3.459   2.434  0.0231  0.2160 -0.1318
10219W        W10419   5.511   9.559   2.806  0.0965 -0.1044 -0.1698
10220W        W10420   3.323   7.752   6.328 -0.0621  0.0372 -0.1055
10221W        W10421   4.877   6.446   8.083 -0.1587  0.0413 -0.1013
10222W        W10422  14.646   5.857  11.437  0.2530 -0.0270  0.0786
10223W        W10423   1.470  10.102   6.496 -0.1207 -0.4107  0.1605
10224W        W10424   5.367   7.891   0.836 -0.2065  0.0522 -0.0697
10225W        W10425  13.902  13.388   6.451 -0.1650 -0.2618 -0.0054
10226W        W10426   6.547   3.280  10.240  0.1858  0.2733  0.0143
10227W        W10427  13.315   2.827  13.709 -0.2509  0.1043 -0.0007
10228W        W10428   9.631   5.471   3.459  0.0366 -0.3431  0.2812
10229W        W10429   5.905   2.229  13.175 -0.0647  0.3306 -0.1141
10230W        W10430   9.857  14.526   7.448 -0.2808  0.0243 -0.0619
10231W        W10431   6.060   1.885   9.871 -0.2887 -0.0663  0.1457
10232W        W10432   6.703   2.508   0.429  0.0031  0.1995  0.1420
10233W        W10433  10.273  10.797   9.824 -0.3454 -0.0305  0.1199
10234W        W10434   7.524   2.981  14.897  0.4537  0.2512  0.2353
10235W        W10435   9.970   2.005  13.796 -0.1149 -0.3178 -0.1001
10236W        W10436  10.454   3.103   3.678 -0.0517 -0.2481  0.2089
10237W        W10437   3.823  11.537  12.103  0.1469  0.2247  0.3044
10238W        W10438  12.739  10.708   9.890  0.3107 -0.0383 -0.0238
10239W        W10439   5.356   2.204   6.361  0.2176 -0.1064  0.0076
10240W        W10440   8.101   6.870   1.140 -0.2873 -0.4353 -0.0076
10241W        W10441   1.197   7.507   8.516 -0.1251  0.0888 -0.3950
10242W        W10442  11.159   1.198  10.874 -0.0164 -0.0083 -0.2198
10243W        W10443   9.762  10.990   5.815  0.2080 -0.0604 -0.1991
10244W        W10444   4.498  14.579   9.879 -0.1151  0.1209 -0.2314
10245W        W10445   1.596  13.903   8.175 -0.0232  0.0180  0.2338
10246W        W10446  10.406   0.945   1.058 -0.0790  0.0410  0.3009
10247W        W10447   0.327   6.889  10.251 -0.2320 -0.1414  0.0564
10248W        W10448   6.604   4.641   3.370  0.0486 -0.1632 -0.0354
10249W        W10449  13.407  13.512   0.245  0.0951 -0.0492  0.1632
10250W        W10450   5.081   8.195  10.671 -0.0979  0.0036 -0.0629
10251W        W10451  13.250   2.394  10.103 -0.2202 -0.1049  0.2938
10252W        W10452  14.859   3.267   6.523 -0.3912  0.1740 -0.1888
10253W        W10453   7.260  11.189   4.825  0.0993  0.2603  0.1787
10254W        W10454   4.100   3.213  12.754 -0.1667 -0.1332  0.1616
10255W        W10455   5.652   6.404   2.819 -0.0421 -0.1656 -0.2518
10256W        W10456  10.533   6.875   9.000 -0.0868  0.3024 -0.1154
10257W        W10457   5.186  14.963   5.155  0.0661  0.0605 -0.0338
10258W        W10458   5.312   3.347   6.830 -0.2227  0.0869  0.2527
10259W        W10459   3.971   3.482  11.798 -0.1317  0.0917  0.0425
10260W        W10460   7.711  11.508   6.870  0.2574 -0.0474 -0.1611
10261W        W10461  13.235   7.997   0.641 -0.2592  0.0283 -0.2017
10262W        W10462   9.453   5.905   6.157  0.2415  0.0670  0.0067
10263W        W10463   0.480   2.620   2.704 -0.1822  0.0495 -0.1646
10264W        W10464   3.641   8.148   3.991 -0.3044 -0.1632  0.0902
10265W        W10465   4.560   0.947  14.267  0.0090 -0.1703  0.0937
10266W        W10466   1.023   5.613  14.111  0.0011 -0.0950 -0.0885
10267W        W10467   0.952   8.550   7.241  0.3701 -0.0922  0.1011
10268W        W10468   2.591   6.659   4.968  0.0583 -0.0321  0.0373
10269W        W10469   0.123   4.697   1.017 -0.1421 -0.0220 -0.0960
10270W        W10470  14.594   1.956   5.569 -0.3096  0.1340 -0.5576
10271W        W10471   5.217   8.677   5.171  0.1059 -0.0658  0.2059
10272W        W10472   7.165   5.768  12.592 -0.0385  0.0423 -0.0659
10273W        W10473   5.186   5.866  13.010  0.0711 -0.1037 -0.5562
10274W        W10474   0.664   3.915   7.546 -0.1155  0.1443 -0.0735
10275W        W10475   1.362   7.019  13.620  0.2972 -0.0329  0.0631
10276W        W10476   3.192   1.576   0.531  0.1642 -0.1029 -0.1177
10277W        W10477   5.598   8.854   9.998 -0.5129  0.1629  0.1571
10278W        W10478   1.919   8.006   9.599  0.2387 -0.0960 -0.0971
10279W        W10479   5.032   1.251  11.115 -0.0638  0.1453 -0.0993
10280W        W10480   0.688   3.919  12.189 -0.1682 -0.0233 -0.0653
10281W        W10481   4.623  13.935   7.575  0.1914  0.0379 -0.1006
10282W        W10482   3.890   0.550  12.915 -0.1291 -0.0915 -0.0922
10283W        W10483   2.050   4.910   5.772  0.0760 -0.0857  0.2805
10284W        W10484   1.572   7.087   8.159 -0.0054  0.1690 -0.0757
10285W        W10485   3.188   3.154   0.488 -0.1077  0.1805 -0.2055
10286W        W10486   3.130   9.009  15.131 -0.2892  0.0893 -0.2210
10287W        W10487   5.176   8.394   4.630 -0.0865  0.1375  0.2165
10288W        W10488  13.116   3.560   4.917  0.0868  0.0021 -0.1311
10289W        W10489   1.913   8.444  10.296 -0.1465 -0.4281 -0.0757
10290W        W10490  10.686  11.982   0.223  0.0835  0.1069  0.0940
10291W        W10491   3.131  15.188  11.462 -0.1328 -0.0127 -0.0764
10292W        W10492   1.129   7.388   2.170  0.1225  0.2668 -0.1287
10293W        W10493   5.301  13.088   3.580  0.1786 -0.2460  0.0958
10294W        W10494   0.513   9.033   0.574 -0.0866 -0.0869 -0.0244
10295W        W10495   8.142   8.656   0.979 -0.1867  0.0729 -0.2726
10296W        W10496   3.128   5.898  14.427  0.0781  0.1393  0.1530
10297W        W10497   4.262   7.831   3.236 -0.0708  0.0987 -0.0975
10298W        W10498  10.097   3.321  13.534 -0.0520  0.1395 -0.1274
10299W        W10499  10.863   8.138   1.389  0.1182 -0.1738  0.2312
10300W        W10500  12.201   2.386  13.339 -0.0735 -0.1650  0.2553
10301W        W10501   1.594  15.007   0.160  0.1417  0.0793 -0.0140
10302W        W10502  15.027   6.946  12.296 -0.3649 -0.0010 -0.1153
10303W        W10503  14.062   4.351  15.167 -0.1058 -0.3717 -0.0154
10304W        W10504   5.728  10.963  13.023  0.2302 -0.1026 -0.1011
10305W        W10505   3.253   6.996   9.677 -0.2324 -0.0386 -0.0038
10306W        W10506   1.690  14.878   9.640 -0.1015  0.0396  0.3066
10307W        W10507  12.178   5.845   2.537 -0.2761 -0.0412  0.1126
10308W        W10508   9.840   6.404   7.984 -0.0522  0.0320  0.1407
10309W        W10509   3.419   9.793   0.197  0.2094  0.0533 -0.1917
10310W        W10510   4.041  12.859   7.577 -0.0326  0.2258 -0.0453
10311W        W10511   4.392  11.996  11.469 -0.1476  0.1372  0.1204
10312W        W10512   4.505   6.441   3.242 -0.1284  0.1041 -0.1880
10313W        W10513  10.337  10.012   4.974  0.1544 -0.0713 -0.2873
10314W        W10514   2.604   6.059   7.022 -0.2658 -0.1428 -0.2776
10315W        W10515  10.615   5.311  14.179  0.4501  0.2594 -0.1638
10316W        W10516  11.127   2.127   0.511  0.3032  0.0152  0.1199
10317W        W10517  11.436   6.980   8.664  0.0200  0.1299 -0.2895
10318W        W10518  11.809  10.146   4.207  0.2439 -0.3313 -0.2742
10319W        W10519   6.534   1.874   9.961 -0.2107  0.2079 -0.2007
10320W        W10520  13.277   1.881  11.460  0.1733  0.0904 -0.0080
10321W        W10521  14.565   5.770   5.241 -0.0008 -0.1144 -0.0706
10322W        W10522   9.118   4.091   8.070 -0.0233  0.0291  0.2785
10323W        W10523  10.239   5.381   0.670  0.1256 -0.0415  0.0288
10324W        W10524  11.659   0.086   2.013 -0.2197 -0.3367 -0.0294
10325W        W10525   7.933   8.219   1.632 -0.2309  0.2425 -0.0593
10326W        W10526   0.891   6.511  14.657  0.2998  0.1107 -0.0258
10327W        W10527   2.766   5.774   7.447 -0.0437  0.0327 -0.0390
10328W        W10528   6.774   4.890   8.934  0.1650  0.0414  0.0076
10329W        W10529  12.816  10.013   8.803 -0.1580 -0.0923 -0.0198
10330W        W10530   1.520   9.678  11.250 -0.2824  0.2464  0.1039
10331W        W10531  13.132  14.977   4.921  0.0310 -0.1238  0.1034
10332W        W10532   8.011   1.198   5.475  0.0389  0.2529 -0.0338
10333W        W10533   3.774  10.048   4.305  0.0604  0.0386  0.2114
10334W        W10534   9.696   6.812   4.638 -0.0250  0.1393  0.0338
10335W        W10535   6.335   6.669  12.864 -0.0526 -0.2557 -0.1726
10336W        W10536   4.672   2.143   1.979 -0.1046  0.0384  0.3415
10337W        W10537  13.615  12.102   3.012 -0.2187  0.1821 -0.0456
10338W        W10538   8.034   5.314   7.233 -0.0483  0.2593 -0.1666
10339W        W10539   2.588   7.146  11.161 -0.1398  0.0220 -0.1884
10340W        W10540  10.317   6.459   4.177 -0.0358 -0.1353 -0.1397
10341W        W10541   1.493   9.667   1.931  0.0519  0.3440 -0.1337
10342W        W10542   4.581   2.488   0.336 -0.1240  0.0906 -0.1685
10343W        W10543  13.572   2.445  10.868 -0.2888  0.2134  0.0960
10344W        W10544   2.210  11.957   1.561  0.3292 -0.2140  0.3394
10345W        W10545   2.657   1.094  11.545  0.1231 -0.0140  0.0720
10346W        W10546   8.169  13.178   1.364 -0.0973  0.2187 -0.0607
10347W        W10547   1.515   9.991   0.869 -0.0584  0.0134  0.2399
10348W        W10548   0.126  11.714   0.690  0.0590  0.0097 -0.0270
10349W        W10549   3.123   5.123   1.732 -0.1015 -0.0781 -0.2242
10350W        W10550   1.716   8.816   3.242 -0.1620  0.1407 -0.0680
10351W        W10551   3.377   6.220  11.407 -0.3386  0.2621 -0.0607
10352W        W10552  14.025  12.968   0.264  0.0103  0.1468  0.2024
10353W        W10553   7.023   4.564  11.348  0.1763 -0.0237 -0.1274
10354W        W10554   8.759  10.061   5.531  0.0691  0.1581  0.1607
10355W        W10555  10.205  10.522   9.335  0.0601  0.1673 -0.0860
10356W        W10556  10.604   3.171   7.800  0.1978 -0.1821  0.1152
10357W        W10557   4.522   0.754   0.215 -0.0934  0.0166 -0.1910
10358W        W10558  13.275  14.795  10.162  0.0392  0.0899 -0.3081
10359W        W10559   7.522  15.054  11.667  0.1353 -0.0252  0.1627
10360W        W10560  14.891  11.415  11.135  0.1206 -0.3943 -0.0214
10361W        W10561  12.763  14.987   5.609 -0.2613  0.1072  0.1573
10362W        W10562   5.928   9.376   5.294  0.2676  0.1651 -0.1048
10363W        W10563   7.389   5.696   5.865 -0.0334  0.1020 -0.0733
10364W        W10564   6.393   6.388   0.127 -0.3959  0.2606  0.0895
10365W        W10565  13.045  14.885   8.797  0.1405 -0.0815  0.0104
10366W        W10566  12.880  13.453   0.942  0.0533  0.1125 -0.1723
10367W        W10567   3.233   7.240   0.277 -0.2838  0.2140  0.4431
10368W        W10568   4.276  14.836   6.844  0.3422 -0.3959 -0.0227
10369W        W10569   7.536   1.530  11.313 -0.2331  0.0596 -0.4753
10370W        W10570   9.588  13.790  11.985 -0.1108 -0.1191  0.0957
10371W        W10571  10.219  10.722  10.853  0.1877 -0.3154 -0.1003
10372W        W10572  12.179   9.943  14.984  0.1127 -0.1340  0.0368
10373W        W10573   5.730   6.072  13.936  0.1174 -0.0539 -0.1924
10374W        W10574   9.757   6.017   6.926 -0.0700 -0.0182  0.0937
10375W        W10575   0.065   9.298  11.299  0.2439  0.0706  0.0135
10376W        W10576   2.344   7.687   6.287  0.0447 -0.2407 -0.0516
10377W        W10577  12.800  10.421   6.840 -0.1456 -0.0928 -0.2394
10378W        W10578  11.993  12.537   8.583  0.0330 -0.0011 -0.0760
10379W        W10579   2.704  13.409   3.313 -0.2328 -0.0501  0.1165
10380W        W10580   9.421   4.342   3.591 -0.1527 -0.1745 -0.2684
10381W        W10581   5.578   9.497  12.729 -0.0740  0.1266  0.1584
10382W        W10582  13.905   9.890  15.040 -0.3382  0.0154 -0.0430
10383W        W10583   2.693   5.770   2.244  0.1472 -0.2575  0.3484
10384W        W10584   5.797   1.137  11.631 -0.1873 -0.0588 -0.3176
10385W        W10585   7.094   0.356   6.982  0.2352  0.1595  0.2027
10386W        W10586  14.838  11.308   0.179 -0.0226 -0.2376  0.0510
10387W        W10587   1.355   6.233   4.984 -0.2187 -0.1248 -0.0520
10388W        W10588   4.577  11.734  14.580 -0.0148 -0.0469  0.2959
10389W        W10589   5.567   9.989  14.889 -0.0897 -0.1297  0.0602
10390W        W10590   1.072   3.024   6.457 -0.3004  0.2391 -0.0716
10391W        W10591   2.353  14.552  10.654  0.0989  0.3128  0.3178
10392W        W10592   4.867   8.826   2.585  0.1572 -0.1916  0.1116
10393W        W10593   3.807   7.794   4.600  0.2320  0.0097 -0.2497
10394W        W10594   5.020   9.502  12.847 -0.2119  0.1313  0.1310
10395W        W10595  12.584  13.144   2.148 -0.1795 -0.0635 -0.2145
10396W        W10596   4.461  10.617   3.715 -0.1561 -0.0356  0.0556
10397W        W10597   5.249  11.474   6.105 -0.4238 -0.1172 -0.0926
10398W        W10598   4.957  15.052   1.100  0.1434  0.3512 -0.1176
10399W        W10599   4.205   5.375  14.037 -0.3446  0.3996 -0.0902
10400W        W10600   7.847  10.042   2.998 -0.2060  0.0499 -0.1860
10401W        W10601  10.968  11.044   9.050  0.0647  0.1392  0.1338
10402W        W10602   3.060   3.540   4.085  0.0332  0.1593  0.3549
10403W        W10603   2.165  11.702  13.221 -0.0021 -0.2432 -0.1641
10404W        W10604  13.059  12.445   1.972  0.1656  0.0642  0.2634
10405W        W10605   4.335   9.302   2.271 -0.0598 -0.0732  0.3224
10406W        W10606   2.223   8.842   2.965 -0.0842 -0.2346  0.1947
10407W        W10607   6.856   2.181   3.984 -0.1356 -0.0279 -0.0706
10408W        W10608   5.616   0.270   1.133 -0.3696 -0.0435 -0.0439
10409W        W10609  11.665  13.743   4.519 -0.0994 -0.6140 -0.2962
10410W        W10610  11.480  12.763  10.750  0.0227  0.1693  0.1495
10411W        W10611  11.749   4.412   7.837 -0.0884 -0.2268  0.0990
10412W        W10612   8.542  14.924   1.857 -0.1403 -0.0327  0.0054
10413W        W10613  12.688   8.992   5.733  0.0225 -0.0619  0.1456
10414W        W10614   6.757   9.023  13.207 -0.4139  0.0013 -0.0110
10415W        W10615   1.134   7.879  12.340  0.1456 -0.0658  0.1381
10416W        W10616   2.503   3.883  14.460 -0.0215  0.0047 -0.0319
10417W        W10617   4.081  12.398  14.578  0.1183  0.1088  0.2762
10418W        W10618   1.515  12.694   2.372  0.2654 -0.1333 -0.1298
10419W        W10619   9.004  12.859   7.416  0.0200 -0.2572  0.2367
10420W        W10620   4.596   8.036  10.333  0.2342  0.0444  0.2444
10421W        W10621   9.142   3.943   2.212  0.0064  0.0760  0.4276
10422W        W10622   6.149   4.420   2.095  0.3103  0.0770 -0.0647
10423W        W10623  12.203  12.828   2.360 -0.2244  0.2077 -0.1214
10424W        W10624   9.347  14.813   3.493 -0.3252  0.0107 -0.0542
10425W        W10625   9.788   4.649  14.271  0.3258  0.1371  0.5256
10426W        W10626   6.331   5.422   3.731  0.0065 -0.0619  0.1234
10427W        W10627  11.542   1.148  14.963  0.2324  0.0321  0.0386
10428W        W10628   2.284   6.708   1.974 -0.0052 -0.0686  0.0337
10429W        W10629   2.912   6.317  11.599 -0.2661 -0.1103 -0.1944
10430W        W10630   4.323  11.035   0.213  0.0174 -0.0461 -0.0313
10431W        W10631   9.507  12.151   8.244 -0.1316  0.1194 -0.2774
10432W        W10632   2.827   9.617  12.222 -0.0954  0.2267  0.2703
10433W        W10633   1.412   3.604   2.862 -0.2627 -0.2866 -0.1761
10434W        W10634   6.424   4.720   2.423 -0.1374  0.0147 -0.0925
10435W        W10635   6.435   6.435   2.230  0.0600  0.1849  0.3239
10436W        W10636   7.967  10.749   6.399  0.0749  0.1715  0.0422
10437W        W10637  11.614   8.808  13.725  0.1225  0.0883  0.0290
10438W        W10638   8.084   2.630  10.064 -0.0305  0.2897  0.2141
10439W        W10639   1.512   8.192  11.474  0.1048  0.0231 -0.0865
10440W        W10640   7.682  10.920  14.241 -0.2079  0.0224  0.0277
10441W        W10641  14.939  11.595   1.123  0.0381 -0.2079  0.1252
10442W        W10642   9.605   0.466  10.021 -0.0250 -0.1037  0.0597
10443W        W10643   9.367  12.048   5.996 -0.2135 -0.1177  0.0510
10444W        W10644   6.270   6.961  10.443 -0.1555  0.1111  0.1527
10445W        W10645  12.073  12.576  15.127  0.0339  0.4490 -0.0880
10446W        W10646   0.144   3.461   0.090  0.1501  0.0148  0.0124
10447W        W10647   6.349  10.308  12.095 -0.1780 -0.1421  0.0948
10448W        W10648   5.441   1.041   5.734  0.1012 -0.1080  0.1067
10449W        W10649   5.014   4.489   6.688 -0.1788  0.0078 -0.0366
10450W        W10650   4.785  11.318  14.164  0.1308 -0.2600 -0.2777
10451W        W10651  10.119   8.562   7.322  0.2728  0.2999  0.1063
10452W        W10652   6.551   2.434   2.116  0.2065  0.0453 -0.1259
10453W        W10653  12.781  10.236  10.570  0.2986  0.2036 -0.1863
10454W        W10654   6.610   6.246   1.359 -0.1978 -0.2376  0.0383
10455W        W10655   5.343   1.614  13.160  0.1595  0.2887 -0.3463
10456W        W10656   1.535   7.711   9.840 -0.0417 -0.2072 -0.0551
10457W        W10657  12.245   7.532   5.637  0.0270  0.2583 -0.1187
10458W        W10658  13.361  10.649   6.694  0.3515  0.0119 -0.1390
10459W        W10659   5.269   9.495   2.332 -0.0395  0.3134  0.2968
10460W        W10660   0.613   1.558  11.025  0.1738  0.0372 -0.0580
10461W        W10661   7.180   8.624   1.949 -0.0509  0.1988 -0.0602
10462W        W10662   6.865  11.173   3.402  0.2280 -0.1135 -0.4413
10463W        W10663   9.459  13.484  13.137 -0.0628  0.3354 -0.0264
10464W        W10664   2.821  11.426  12.609 -0.1792 -0.0988 -0.2218
10465W        W10665  11.404   0.901   6.288 -0.1828  0.1384  0.1160
10466W        W10666   5.442   6.434   1.076  0.3232 -0.3914  0.0622
10467W        W10667   5.489   2.827   1.021 -0.3157  0.1713 -0.0963
10468W        W10668   0.027  13.439   9.656 -0.2316  0.0573 -0.0599
10469W        W10669   9.938  12.512   6.656  0.1455  0.3109 -0.0936
10470W        W10670   1.602   4.542   1.465  0.1800 -0.0360  0.2199
10471W        W10671   5.575   9.574  10.925 -0.0630  0.0947  0.0386
10472W        W10672  12.627  10.923   2.534  0.0000 -0.0778  0.0380
10473W        W10673   9.432   5.443   0.071 -0.0168  0.0650  0.2102
10474W        W10674   0.367   3.700  14.864 -0.2288  0.0480 -0.0955
10475W        W10675   9.532   4.213   1.367  0.0957  0.3116 -0.1075
10476W        W10676  12.115   7.589   9.729 -0.0131 -0.0718  0.1972
10477W        W10677   2.148  10.164  14.886  0.3578  0.2391 -0.0407
10478W        W10678  14.482   3.386  11.058  0.0615 -0.1955  0.0285
10479W        W10679  10.579   6.683   2.897  0.1077  0.1504  0.1153
10480W        W10680  10.581   7.302  12.522  0.0128 -0.2169 -0.0504
10481W        W10681   6.694   9.819   3.582  0.2219 -0.3379 -0.0141
10482W        W10682  10.147   9.622   3.334  0.2292 -0.0796  0.1707
10483W        W10683   1.991  14.302   2.258 -0.3184 -0.2295 -0.3217
10484W        W10684  13.778   8.992   2.129  0.0322  0.1305 -0.2289
10485W        W10685   3.149   9.734  12.759 -0.1470  0.2000  0.1425
10486W        W10686   5.896   7.724   8.817 -0.0184  0.0845 -0.1373
10487W        W10687   3.701   9.819  12.714 -0.0451  0.1346  0.1592
10488W        W10688   6.198  14.355   3.162  0.2307  0.0333 -0.1898
10489W        W10689   8.858   8.987   3.968 -0.4469  0.0540  0.0634
10490W        W10690   9.717   6.135  14.553 -0.0893  0.0617  0.0299
10491W        W10691   5.921   9.185   1.495  0.0169  0.1156 -0.0443
10492W        W10692  12.399  13.519   8.631  0.1490 -0.0262 -0.0412
10493W        W10693   2.074   5.632  11.123  0.2576 -0.0177  0.0058
10494W        W10694   8.091   7.432   2.202 -0.2017 -0.1886  0.3984
10495W        W10695  12.537  12.331   3.829  0.0699 -0.1842  0.1234
10496W        W10696   5.815   6.116   8.033 -0.1589  0.0452  0.7070
10497W        W10697  10.833   8.909   7.022 -0.0161 -0.3055  0.0955
10498W        W10698   2.463   4.772   5.553  0.1850  0.1008  0.0086
10499W        W10699   8.548   8.417  14.717  0.2486  0.2482 -0.1835
10500W        W10700  10.891   8.406  11.711  0.1890 -0.1406  0.1420
10501W        W10701   4.952   9.734  11.099  0.1368 -0.0542 -0.0085
10502W        W10702   6.630  12.313   3.929  0.1886  0.2807  0.0077
10503W        W10703  10.894   0.295   8.557  0.3319  0.1931  0.3384
10504W        W10704   1.009   9.828   2.677  0.1791  0.2347  0.2393
10505W        W10705   0.161   8.797  13.584 -0.1236  0.2688  0.3458
10506W        W10706  13.671   7.305   6.328  0.0953 -0.0317  0.1721
10507W        W10707  13.414  13.472  13.225  0.0028 -0.2430 -0.3330
10508W        W10708   5.871  10.384   3.559  0.0683  0.2869  0.0966
10509W        W10709   8.836   8.854   3.438 -0.1106  0.4443  0.2297
10510W        W10710   8.707  12.971   2.578  0.0066 -0.0198 -0.2264
10511W        W10711  14.124  14.847   2.875  0.0625 -0.2241 -0.3000
10512W        W10712   4.620   5.660   5.136 -0.1288 -0.2363 -0.2068
10513W        W10713   6.379  14.612  12.938 -0.0288  0.0318  0.0351
10514W        W10714   4.198  10.253   0.519  0.5668 -0.1731 -0.0529
10515W        W10715   0.486  11.598   3.699  0.0918  0.1209 -0.2005
10516W        W10716   7.200   2.325   7.946  0.1537  0.1566  0.0645
10517W        W10717  10.058   8.631   0.913  0.2887 -0.0851 -0.0103
10518W        W10718   3.930  10.750   0.288  0.1156  0.0548  0.1221
10519W        W10719  11.618  11.454  11.675  0.2706 -0.5378  0.1913
10520W        W10720   8.178  14.015   9.835 -0.3869  0.1295 -0.1066
10521W        W10721  11.411  12.300   9.063 -0.0742  0.0010  0.0585
10522W        W10722   3.954   6.490   7.483  0.3629 -0.1807  0.0104
10523W        W10723  11.901  11.334   3.719  0.1681  0.3902 -0.1763
10524W        W10724  12.723   4.335   0.681  0.0472 -0.0151  0.2279
10525W        W10725   3.644   9.313  12.550  0.3179  0.2281 -0.0695
10526W        W10726   7.974   5.377   3.571 -0.2457  0.0725 -0.0873
10527W        W10727   2.466  11.121   3.883  0.0749 -0.2209 -0.0748
10528W        W10728   3.746   4.865   9.905  0.0482 -0.2951 -0.1507
10529W        W10729  11.038   7.802  14.673 -0.1225 -0.5697 -0.0025
10530W        W10730   0.018   3.042   1.077 -0.2268  0.1863 -0.0231
10531W        W10731  12.516  13.625   2.116  0.1225  0.2226  0.0207
10532W        W10732   6.430   0.269   8.588 -0.4007  0.2068 -0.3450
10533W        W10733   9.598  15.028  12.162 -0.0544  0.0293  0.1157
10534W        W10734  10.448  12.506   6.464  0.3063 -0.1197  0.1124
10535W        W10735   6.905  13.189   3.344 -0.0360 -0.0150 -0.2766
10536W        W10736   1.153   3.079  13.847 -0.2875  0.2825 -0.0300
10537W        W10737   2.815   1.404   1.645 -0.0267  0.3942  0.1268
10538W        W10738   9.495   1.073   8.212 -0.0999  0.0817  0.1308
10539W        W10739   6.461   4.184   4.558  0.0614  0.1215 -0.2926
10540W        W10740   6.186   5.868   1.015 -0.0861 -0.0797  0.0842
10541W        W10741  13.892   8.002   8.800 -0.0547 -0.0799  0.2583
10542W        W10742   0.518  13.832   8.407  0.1330 -0.0638 -0.0998
10543W        W10743   6.945  11.816   2.407  0.1987 -0.1668 -0.0914
10544W        W10744   3.046  11.016  12.440  0.1630  0.0349 -0.1780
10545W        W10745   1.910  12.770   3.551 -0.4740 -0.1931 -0.2965
10546W        W10746   9.676   9.048  12.602  0.0361  0.4375 -0.0303
10547W        W10747   5.890   1.169   1.447 -0.0532 -0.2065 -0.0488
10548W        W10748  13.696   4.951   4.188  0.1402 -0.2795 -0.0671
10549W        W10749   3.125   5.152  11.225  0.1314  0.2775 -0.4714
10550W        W10750  10.082   7.985   1.814  0.2808 -0.0303  0.0943
10551W        W10751   4.523   6.609  12.005  0.0618  0.1153 -0.0855
10552W        W10752   4.950  12.590   4.037  0.0107 -0.2665  0.0351
10553W        W10753  10.423   5.224   4.932  0.0629  0.1818 -0.1825
10554W        W10754   5.535  15.054   1.456  0.3829 -0.2985  0.1807
10555W        W10755   3.548   9.000  14.827  0.0279 -0.1079  0.0576
10556W        W10756   0.695   9.154   7.821 -0.0860  0.0750  0.0019
10557W        W10757  10.704   3.892   1.365  0.3131  0.0778  0.2997
10558W        W10758   6.051   7.975   3.022  0.0346  0.0537  0.0853
10559W        W10759   6.637   5.272  13.730  0.4113  0.0691 -0.0604
10560W        W10760   2.785  11.296   8.238  0.0841 -0.1478 -0.0172
10561W        W10761   6.597   5.560   5.079 -0.0617  0.1033  0.0326
10562W        W10762   7.439   7.856  13.336 -0.3003  0.1935 -0.2433
10563W        W10763  13.680   6.844  11.304  0.0774  0.3603  0.0605
10564W        W10764   6.813  12.248   0.862 -0.0847 -0.0742  0.3566
10565W        W10765  11.251  12.935   8.447  0.2289 -0.1686  0.0569
10566W        W10766  13.895  14.904   7.849  0.2833  0.1238  0.2435
10567W        W10767   8.923   9.670  13.605 -0.4294  0.0627 -0.0042
10568W        W10768   2.608   9.264   5.748  0.0489  0.0684 -0.1077
10569W        W10769  12.439   4.875   3.549 -0.0285 -0.1685 -0.0678
10570W        W10770   1.403   2.273   9.307  0.1350  0.1793  0.1715
10571W        W10771   8.753  10.279   9.264 -0.0186 -0.1037  0.1247
10572W        W10772  10.749   4.955  11.277  0.1578  0.0433 -0.0168
10573W        W10773   4.807   3.982  14.364 -0.0504  0.0529  0.1528
10574W        W10774   5.165   5.210  12.954 -0.0593 -0.4139  0.0077
10575W        W10775  11.752  14.350  12.296  0.0785 -0.0927  0.3313
10576W        W10776   1.747   6.792  11.551  0.4288 -0.3828  0.0063
10577W        W10777  13.667   9.650   6.229 -0.2034  0.1115  0.0739
10578W        W10778   6.898   3.212   3.569 -0.1271  0.0207 -0.2617
10579W        W10779   3.704   5.334  10.035 -0.2409 -0.5241  0.1515
10580W        W10780  11.900   1.349   3.925 -0.0117  0.2383 -0.1353
10581W        W10781  12.283  14.465   3.330  0.1628 -0.1520  0.2320
10582W        W10782   7.579  11.403  12.442 -0.2573  0.1425  0.0610
10583W        W10783  13.454   7.779   2.595 -0.1805 -0.2422  0.0488
10584W        W10784   3.948  11.393   8.899 -0.1575 -0.1465 -0.1672
10585W        W10785  10.260  12.893  14.919 -0.1137  0.1962 -0.0754
10586W        W10786   5.696   1.302  13.415 -0.1984  0.1658 -0.0703
10587W        W10787   2.711   3.020  14.738  0.1822 -0.0669  0.1248
10588W        W10788   1.827   0.977  14.017 -0.1407  0.5131 -0.1777
10589W        W10789   8.412   8.401   9.531 -0.2435  0.3429  0.2087
10590W        W10790   1.646   8.892  14.899 -0.1044 -0.1317 -0.1529
10591W        W10791   1.533   9.380   3.129 -0.4010 -0.0389  0.2231
10592W        W10792   6.364  14.361  10.140 -0.3304  0.2092 -0.0012
10593W        W10793  14.903   7.292   5.622 -0.0588  0.1551 -0.3416
10594W        W10794   3.240   9.237   8.963 -0.2145 -0.0239 -0.3713
10595W        W10795   9.047  10.529  12.345 -0.1941  0.0003 -0.2541
10596W        W10796   7.818   3.542   1.491  0.1609 -0.2940  0.4606
10597W        W10797   5.648   9.143   4.502  0.0266  0.0561 -0.2179
10598W        W10798   8.910   9.916   4.538  0.0022 -0.1611 -0.0509
10599W        W10799   8.862   6.690   5.254  0.1487 -0.1078 -0.0110
10600W        W10800  11.117  11.072  11.582  0.0232  0.1120  0.2590
10601W        W10801  11.292   5.682  12.387  0.2379 -0.2376 -0.1475
10602W        W10802   2.906   5.224   4.336  0.1447  0.1906  0.3568
10603W        W10803   4.368   3.731  11.988 -0.3309 -0.1762  0.4107
10604W        W10804   6.556   6.954   8.848  0.0479  0.1635 -0.5181
10605W        W10805   5.486   2.272  12.263  0.1497 -0.2431 -0.1484
10606W        W10806   5.758   8.278  15.066  0.1807 -0.1470 -0.1294
10607W        W10807   1.769   9.085   1.871 -0.0855  0.1188 -0.1818
10608W        W10808  11.339   3.721   5.135 -0.4123  0.0852  0.0989
10609W        W10809   8.088   6.726   2.796 -0.1542 -0.4207  0.2271
10610W        W10810   8.740   9.068   9.827  0.0347  0.2030 -0.2678
10611W        W10811   9.456   7.910   5.906  0.0618  0.1562 -0.1190
10612W        W10812   9.734   2.963   4.110 -0.0501  0.4426  0.1599
10613W        W10813   2.844   9.590  14.126  0.2810 -0.4924 -0.0181
10614W        W10814   1.719  11.832   4.489 -0.1650  0.6064 -0.0339
10615W        W10815   6.804  12.703   9.072  0.3314 -0.4418  0.3679
10616W        W10816   0.467  11.771  12.962  0.0155 -0.0506  0.1528
10617W        W10817  13.580  11.501   3.922 -0.1545 -0.1800 -0.0455
10618W        W10818  11.220   4.690   1.593 -0.0417 -0.1086 -0.0596
10619W        W10819   2.665  10.400   8.373  0.1780  0.1053 -0.2355
10620W        W10820   2.716   5.933  14.055 -0.3182 -0.0205  0.0428
10621W        W10821   2.137  10.091  11.882 -0.1418 -0.3498  0.1229
10622W        W10822   9.519   5.996   0.638 -0.0893 -0.1408 -0.0559
10623W        W10823   6.012   5.895  11.409  0.0092  0.0059  0.0825
10624W        W10824   7.950   4.689   4.058 -0.0333  0.1728 -0.0015
10625W        W10825   6.409   8.217  11.229  0.0001 -0.3986  0.1975
10626W        W10826   5.621  10.589   2.726  0.0033  0.0452 -0.1959
10627W        W10827   9.211  14.949  12.977  0.1455 -0.1433  0.0605
10628W        W10828   4.517   2.700  14.391  0.0608 -0.1198 -0.0540
10629W        W10829   8.907  11.382  12.757  0.2518  0.2953  0.1138
10630W        W10830   4.109  11.353   0.500  0.3370 -0.1879 -0.0156
10631W        W10831   2.687   1.423  13.808  0.0825  0.1957 -0.1622
10632W        W10832  11.643   0.657   6.683 -0.2139 -0.4541 -0.1916
10633W        W10833  11.180  13.362   4.999 -0.0970  0.0606 -0.1017
10634W        W10834   7.293  12.931   7.920  0.1493 -0.1485  0.0659
10635W        W10835  10.940   5.108  12.645  0.0362 -0.1222  0.1254
10636W        W10836  11.718   0.589   8.075  0.0849  0.0837  0.2128
10637W        W10837   6.238  11.035   1.484 -0.0621 -0.0050  0.0281
10638W        W10838   0.440  10.900   7.940  0.1320 -0.2127  0.1397
10639W        W10839   7.133  12.349   0.297  0.1243  0.2913  0.1486
10640W        W10840   7.146  11.636   4.469 -0.2866  0.1144  0.0918
10641W        W10841   9.943  14.271  11.338 -0.1255  0.2551  0.1671
10642W        W10842  13.047   7.400  11.713  0.0301 -0.0506  0.0919
10643W        W10843   1.865   3.765  14.406 -0.0142  0.1166  0.0423
10644W        W10844   7.124  10.570  12.174  0.1325  0.3359 -0.0328
10645W        W10845   3.680  12.082   0.459  0.1107  0.2007 -0.0632
10646W        W10846   2.320   8.725   7.558 -0.2946  0.1041  0.0072
10647W        W10847  13.896  14.968  10.947 -0.0861  0.0881  0.0938
10648W        W10848  14.955   1.934  14.857 -0.2692 -0.0572  0.1704
10649W        W10849   4.249  12.138  13.443  0.3186 -0.0300  0.3733
10650W        W10850   2.943   7.576   4.558  0.0350 -0.0247 -0.0167
10651W        W10851   5.536   9.663  14.076 -0.0365  0.2244 -0.1777
10652W        W10852  11.566   3.542   5.674  0.0345 -0.1189  0.2016
10653W        W10853  15.032  14.300   4.531 -0.0438 -0.0731 -0.2724
10654W        W10854   0.321   5.949   7.056  0.0502 -0.1288 -0.1897
10655W        W10855   8.091   5.050  10.847  0.1574  0.4956  0.2820
10656W        W10856   8.799   0.063  12.499 -0.0071  0.3186  0.1055
10657W        W10857   8.031   0.720   3.112  0.1637 -0.0725  0.2592
10658W        W10858   4.134   8.479  14.235 -0.2872  0.0919 -0.2298
10659W        W10859   3.579   8.391   6.713  0.0601  0.0583  0.1174
10660W        W10860   2.506  13.851   2.843 -0.0511  0.0021  0.0612
10661W        W10861   6.660   4.813  14.565 -0.2826 -0.1013  0.0590
10662W        W10862   3.790  12.535   3.410  0.2766 -0.1578 -0.1823
10663W        W10863   7.916   8.241   8.736 -0.1473  0.1665  0.2228
10664W        W10864  10.347  11.095   1.323  0.0727  0.2166 -0.0983
10665W        W10865   2.264  15.191  11.998  0.2436 -0.2243 -0.1106
10666W        W10866   4.429   4.305   3.529  0.1513  0.1799  0.2222
10667W        W10867   9.003   6.431   2.660 -0.1698 -0.1701 -0.0313
10668W        W10868   5.749  13.983   7.709  0.1738 -0.1364  0.0718
10669W        W10869   9.108  14.662  11.556  0.1388  0.2651  0.0812
10670W        W10870   1.215   5.443  12.994 -0.1804  0.3397  0.3237
10671W        W10871  11.783  13.460   9.656 -0.0239  0.3063  0.1086
10672W        W10872  12.168   1.573   3.447 -0.0528 -0.1398  0.0121
10673W        W10873   1.753  12.522  14.879  0.2027  0.0367 -0.0684
10674W        W10874  10.078  13.400   6.837 -0.1097 -0.0999  0.0497
10675W        W10875   7.476   3.217  11.027  0.0452  0.1537  0.2175
10676W        W10876   3.596   5.870  10.613 -0.1115  0.2772 -0.0560
10677W        W10877   4.838   4.511   3.778 -0.4478  0.1325  0.3029
10678W        W10878   8.100   2.265   1.546  0.3181  0.0357 -0.0479
10679W        W10879  13.321   6.235  14.646 -0.0440  0.1034  0.3868
10680W        W10880   6.999  11.792   0.456  0.3773  0.0038 -0.1131
10681W        W10881   2.770  11.313  12.061  0.3844  0.1765 -0.0831
10682W        W10882   2.234   8.782  13.331 -0.0463 -0.4201 -0.2208
10683W        W10883   5.479  10.244   0.754 -0.4677 -0.2072 -0.0594
10684W        W10884   4.382  14.520  15.066 -0.0782 -0.1773 -0.0754
10685W        W10885   5.022   0.985  12.774  0.1201  0.0691 -0.3549
10686W        W10886  14.563   8.318  13.170 -0.2508 -0.2665  0.2020
10687W        W10887  12.421   2.123   9.099  0.0398 -0.0471 -0.1271
10688W        W10888   7.165  10.614   5.323  0.2339  0.1719 -0.2213
10689W        W10889   0.440  10.988   3.237 -0.0352 -0.1606 -0.1398
10690W        W10890   9.362   4.747   1.555  0.1280  0.5100 -0.1147
10691W        W10891   6.250   9.345   0.699  0.2439  0.0752  0.0161
10692W        W10892  13.981   1.154   2.691  0.4367 -0.3702 -0.4294
10693W        W10893   6.255   6.810  14.540 -0.0944  0.0686  0.3438
10694W        W10894   8.997  12.809  13.661 -0.0106  0.2308 -0.0929
10695W        W10895   3.366   7.692  13.093  0.3632 -0.0219  0.3153
10696W        W10896   4.726  10.893   4.378  0.0839  0.0995  0.0515
10697W        W10897   6.718  14.407   9.559  0.0864  0.1320  0.1671
10698W        W10898   4.973  14.623   1.867 -0.2444  0.2404  0.3089
10699W        W10899   4.809  11.809  15.096 -0.5175  0.1138 -0.1565
10700W        W10900   3.384   5.709   8.345  0.0630 -0.0415 -0.2565
10701W        W10901  12.870  10.954   7.024  0.0825 -0.1665 -0.2413
10702W        W10902   3.134   6.960   3.738  0.1447  0.1658  0.0030
10703W        W10903   1.224   6.510   0.446 -0.1260 -0.0005  0.1199
10704W        W10904   1.402  13.301  12.375  0.4140  0.2028 -0.2238
10705W        W10905   3.396  13.359  13.954  0.0854  0.0202  0.0611
10706W        W10906   4.037   8.118   4.296  0.4651 -0.0169 -0.1606
10707W        W10907   9.158   3.683   3.877  0.0705  0.2102 -0.0355
10708W        W10908   8.368  12.693   2.271 -0.1073 -0.0406 -0.0930
10709W        W10909  13.933  11.934  13.151 -0.3181 -0.0330  0.0802
10710W        W10910   0.103   7.892  13.023  0.1788 -0.3329  0.0503
10711W        W10911  14.495   9.397   6.320 -0.4130 -0.0548  0.0789
10712W        W10912   6.190   6.181   8.774  0.0435 -0.0234 -0.4237
10713W        W10913   6.732  12.694   1.039 -0.1259 -0.1138 -0.0447
10714W        W10914   2.233   2.008   4.655  0.3391  0.2758  0.1425
10715W        W10915   8.109   7.803   4.889 -0.0985  0.0361  0.0603
10716W        W10916   7.709   8.847   0.873 -0.0525  0.1017 -0.1788
10717W        W10917   8.379  12.065   1.389  0.0484 -0.0782  0.1927
10718W        W10918  11.206   2.583   7.329 -0.0171  0.0604 -0.0550
10719W        W10919   3.743   2.986  15.087 -0.2330  0.2617  0.2578
10720W        W10920  14.653  10.502   1.469 -0.0425 -0.2174 -0.2520
10721W        W10921   1.296   5.415   1.032  0.0585  0.0209  0.0017
10722W        W10922   3.586   7.320   9.838 -0.2496 -0.0832  0.1019
10723W        W10923   9.147  13.818   0.420 -0.0366  0.0573  0.0157
10724W        W10924  13.655   5.469  13.833  0.2459 -0.1159 -0.0338
10725W        W10925   7.806   2.109   4.281 -0.1632  0.4151  0.2465
10726W        W10926   2.754  15.106  11.075  0.1281 -0.1932 -0.1186
10727W        W10927  11.719  10.283  13.659 -0.0941  0.1610  0.2724
10728W        W10928  12.275  12.739   8.248 -0.0436 -0.1965 -0.2210
10729W        W10929   4.748   9.083  11.978  0.1406 -0.1591 -0.2752
10730W        W10930  14.272   6.906   2.985  0.1160 -0.0078 -0.1442
10731W        W10931   3.750  10.304   5.481  0.0113  0.0187 -0.4870
10732W        W10932   7.656   2.645  12.227 -0.0555  0.0230 -0.4382
10733W        W10933  14.804  10.038  10.453 -0.3843 -0.0467  0.2025
10734W        W10934  11.089  11.502   1.679  0.0167 -0.0496  0.0451
10735W        W10935  13.137  15.035   2.005  0.3150  0.3686  0.0322
10736W        W10936  13.900   9.406  14.374 -0.1989 -0.0777  0.0149
10737W        W10937   1.954  10.910  11.168  0.0120 -0.0582  0.1123
10738W        W10938   1.611  14.509   6.656  0.1782  0.0683 -0.0566
10739W        W10939  14.969   8.142   8.010  0.1363 -0.0844 -0.0351
10740W        W10940  14.467  12.890   9.751 -0.0052  0.0445 -0.0986
10741W        W10941   8.019   6.769  12.615  0.0733  0.0225 -0.1418
10742W        W10942   3.397   7.066   4.949  0.1896 -0.2874 -0.2388
10743W        W10943   7.634  14.853  12.845 -0.0123 -0.0248 -0.0633
10744W        W10944   1.698   7.744   1.140  0.4212  0.2620  0.2302
10745W        W10945   1.861   8.656   5.473  0.1835 -0.0814  0.0753
10746W        W10946   9.046   7.060   8.277 -0.0163  0.1488 -0.0735
10747W        W10947   5.375   2.529   9.207  0.0886  0.1311  0.1748
10748W        W10948   3.785  15.148   8.218  0.0897 -0.3406  0.2044
10749W        W10949   1.196   2.260   5.113  0.3466 -0.0495  0.1071
10750W        W10950   0.263  10.804   4.164  0.2894  0.1942  0.1078
10751W        W10951  13.180  12.892   2.186 -0.3671  0.1325  0.2453
10752W        W10952   2.782   1.862  14.067 -0.2048  0.0331 -0.0031
10753W        W10953   2.308   0.116  13.042 -0.2470 -0.1861 -0.2536
10754W        W10954   7.789   7.234  12.402 -0.1133  0.0735 -0.4052
10755W        W10955   8.910  10.166   3.321  0.0650  0.0521  0.2938
10756W        W10956   6.877   8.306  12.668 -0.0056  0.0399  0.2332
10757W        W10957   6.711   9.755   5.804  0.0252  0.2456  0.4773
10758W        W10958  13.379   8.211  11.987  0.2525  0.1770  0.1191
10759W        W10959   6.383  14.519  10.999 -0.4451 -0.1012  0.1174
10760W        W10960   1.529   2.497   3.721 -0.1088  0.1895 -0.2411
10761W        W10961   2.686  13.946  12.094 -0.0468  0.0634  0.2557
10762W        W10962   1.107  12.001  14.908 -0.0621  0.2700 -0.0970
10763W        W10963   4.009   9.408   9.495  0.0340 -0.0468  0.0351
10764W        W10964   1.822  13.693  11.479 -0.2460  0.0243  0.1143
10765W        W10965   6.571   7.486   6.811  0.2620 -0.0082 -0.1626
10766W        W10966   3.399  10.795   5.380  0.0191  0.2025 -0.3466
10767W        W10967   7.249   8.105   9.379  0.0026 -0.2344  0.2801
10768W        W10968  13.350   0.100   6.968  0.2793  0.0256 -0.2782
10769W        W10969  10.766  13.968  14.384 -0.0513 -0.0403 -0.4339
10770W        W10970   2.161   6.290   9.280 -0.1857  0.1287  0.1943
10771W        W10971   0.486  13.625   0.442  0.4003 -0.0781  0.2789
10772W        W10972   0.554   7.923   6.546  0.1295 -0.0598 -0.2717
10773W        W10973   5.406  12.679   5.149  0.0154  0.2661 -0.0693
10774W        W10974  10.159   5.685   4.011  0.2103 -0.1089  0.1109
10775W        W10975  11.416   9.403  14.028 -0.1184 -0.0617 -0.0904
10776W        W10976   7.045  10.096   5.643 -0.1605 -0.0825 -0.0147
10777W        W10977   2.945   7.573   3.382  0.1996  0.1979  0.1438
10778W        W10978   3.802   5.518   4.591 -0.0656 -0.0606 -0.0532
10779W        W10979   6.979   6.173   7.611  0.2173 -0.0689 -0.3656
10780W        W10980   7.277   3.475   5.838 -0.0374  0.3261  0.1684
10781W        W10981   1.158  13.154   7.178 -0.1475  0.1015 -0.1808
10782W        W10982  10.028  10.207   4.638  0.0984 -0.0331 -0.0443
10783W        W10983  12.070   8.284  12.632  0.1165  0.1229 -0.1616
10784W        W10984   9.406  12.733  14.918  0.0963 -0.3331  0.0379
10785W        W10985   2.321   7.964   3.186 -0.2176 -0.0556 -0.0611
10786W        W10986   0.256  14.108   4.388 -0.1784 -0.3462 -0.0683
10787W        W10987   7.100   1.502  13.571  0.1271 -0.0924 -0.0128
10788W        W10988  11.489   5.248  13.851 -0.1437 -0.1846  0.1921
10789W        W10989   6.922  13.461   2.730  0.3167 -0.1006 -0.0913
10790W        W10990   8.681   8.477   1.569 -0.1346  0.1359  0.0789
10791W        W10991   3.688   4.348  14.824  0.1361 -0.1994 -0.1485
10792W        W10992   6.090   3.028   4.732 -0.1526 -0.0760 -0.0840
10793W        W10993   2.036  13.445   5.915 -0.0506  0.0827 -0.0312
10794W        W10994  13.037   1.247   1.689 -0.2411  0.1809 -0.0779
10795W        W10995   8.292  12.298   4.925  0.2393  0.0299 -0.0638
10796W        W10996   1.467   8.341   4.045  0.1290  0.1215 -0.0303
10797W        W10997   2.115   1.427   4.602 -0.0737 -0.0302  0.1010
10798W        W10998   0.180  10.105  11.593 -0.1960  0.0517  0.0733
10799W        W10999   3.633   1.360   1.660 -0.1108 -0.0792  0.2624
10800W        W11000   2.599   1.041   5.416  0.3957 -0.1856  0.1507
10801W        W11001   8.081   1.756   5.377  0.4256  0.0124 -0.1590
10802W        W11002   3.556   6.657   3.788 -0.0370  0.0806  0.3434
10803W        W11003   1.053  13.829   1.034 -0.2379  0.0368 -0.0881
10804W        W11004   3.686  14.189   7.346  0.0162 -0.0376  0.0140
10805W        W11005   7.407   1.364   6.129  0.2155 -0.0007 -0.2379
10806W        W11006   2.901  10.287   0.898  0.0465  0.3510  0.2026
10807W        W11007  11.348   9.366   9.852  0.0562  0.1545  0.0896
10808W        W11008   8.642  13.859   5.209 -0.0594  0.4270  0.0306
10809W        W11009   8.258  11.642   1.123 -0.0058 -0.1826  0.0117
10810W        W11010   6.735  11.910   4.344 -0.1600 -0.2699  0.0686
10811W        W11011   2.837   1.067  15.193  0.1052  0.0683  0.0472
10812W        W11012  11.293  10.374   5.094 -0.0508 -0.0490  0.1227
10813W        W11013   7.496  10.657   4.996  0.1137  0.1429 -0.1299
10814W        W11014   1.796   3.762   3.825 -0.0356  0.1611  0.0290
10815W        W11015   4.110   6.664   1.438 -0.2110 -0.1949 -0.1964
10816W        W11016   5.128   0.790   9.410 -0.2201  0.1406 -0.0921
10817W        W11017   4.236   7.250  14.119  0.0505  0.1095  0.0120
10818W        W11018   7.066   9.475  10.392  0.2566 -0.1570 -0.2564
10819W        W11019   1.849   4.971  10.386 -0.1336  0.2648 -0.0789
10820W        W11020   3.930   3.037   1.788 -0.3437 -0.0915 -0.1860
10821W        W11021   9.389   8.353   4.600 -0.1228  0.2085 -0.1627
10822W        W11022   8.705  12.527   6.065 -0.1256 -0.0630  0.0496
10823W        W11023  12.834   5.922   2.586  0.1424 -0.0146  0.0724
10824W        W11024   6.753   9.047  10.344 -0.1710 -0.1189 -0.0163
10825W        W11025   0.471   5.404   3.736 -0.0824 -0.1561  0.1544
10826W        W11026  11.847  11.127   8.762  0.2266 -0.2597 -0.0628
10827W        W11027   9.343   9.715   6.332  0.2037  0.0947 -0.2020
10828W        W11028  14.537  13.881   7.605  0.1976 -0.0535 -0.0780
10829W        W11029   8.515   0.488  12.612 -0.0886  0.1782  0.0426
10830W        W11030  10.920  12.980  10.324 -0.1236  0.1000  0.0609
10831W        W11031   4.841  14.861   3.715 -0.1293  0.2235  0.2016
10832W        W11032   8.730   8.300  11.236 -0.1670  0.2872  0.0315
10833W        W11033   7.923  12.169   3.462  0.0675 -0.0176 -0.2819
10834W        W11034  13.431   0.283  12.338 -0.1232 -0.6519 -0.0591
10835W        W11035   0.677   8.804   3.255 -0.3052 -0.0510 -0.1564
10836W        W11036  12.241   6.698   3.956  0.0275  0.0942 -0.2688
10837W        W11037   6.446   5.434   2.357 -0.0575  0.1262  0.1640
10838W        W11038   9.836   9.286   4.507 -0.0647 -0.1754 -0.0696
10839W        W11039   6.348   8.318   9.081 -0.1487  0.1507 -0.0373
10840W        W11040  11.221   1.912   3.463  0.1551 -0.0192 -0.0600
10841W        W11041  12.000   4.417  14.758 -0.1692  0.1491 -0.2429
10842W        W11042   0.829  12.027  10.880 -0.2672  0.0919 -0.0580
10843W        W11043  12.388  12.699   5.095  0.3127  0.3791 -0.0961
10844W        W11044   4.805  14.842   6.004  0.2122  0.0666  0.3600
10845W        W11045   5.961   8.318   7.546  0.1738  0.1058  0.2179
10846W        W11046   8.482  14.659   5.966  0.2561 -0.0875  0.3250
10847W        W11047   8.930   4.582   2.849  0.0516  0.0359 -0.1138
10848W        W11048   7.921  13.699   0.750  0.0647 -0.0242  0.0678
10849W        W11049   4.914   0.496   5.623  0.3276 -0.1351  0.0517
10850W        W11050   8.958  10.535   2.951  0.1051 -0.0679 -0.1459
10851W        W11051   0.608  11.257  10.681  0.1764  0.4014  0.2315
10852W        W11052  14.986   5.760   7.700  0.0204  0.2688 -0.1980
10853W        W11053   1.112  14.669   2.223 -0.0053  0.0044  0.3302
10854W        W11054   3.694  10.957   8.794  0.3589  0.3063  0.3289
10855W        W11055  15.127  14.989   6.687 -0.0826  0.0217  0.1092
10856W        W11056   4.920   7.602  10.132 -0.0689 -0.1907 -0.0500
10857W        W11057   8.818   2.021   0.527  0.1695  0.1304  0.4047
10858W        W11058   8.389   7.919   7.916  0.1823  0.0418 -0.1229
10859W        W11059   3.600  13.563   2.345 -0.0410 -0.1720  0.2332
10860W        W11060   9.321  10.364  12.879 -0.0992  0.2926 -0.0596
10861W        W11061   4.548  10.061  10.998  0.2611  0.1018  0.3696
10862W        W11062   5.697   9.410   8.535  0.2785 -0.2311  0.0961
10863W        W11063  12.417   5.627   1.643  0.0971  0.0444 -0.0119
10864W        W11064   7.773  12.287   4.894  0.1959 -0.1168  0.2143
10865W        W11065  14.169  11.920   4.658 -0.0476  0.0656 -0.1539
10866W        W11066   9.144   9.407   4.018  0.1147 -0.0224 -0.0702
10867W        W11067   2.014  12.576   4.040  0.2487 -0.1331 -0.0152
10868W        W11068   9.678  11.893   5.390  0.1404  0.0193  0.0467
10869W        W11069   4.661   1.866   4.386  0.0060 -0.1770 -0.4150
10870W        W11070   3.361   9.782  14.201 -0.0341 -0.0275  0.0387
10871W        W11071   6.674   6.847   3.067 -0.1148 -0.1023  0.1509
10872W        W11072   9.327   6.432  10.760 -0.1129 -0.0111  0.2520
10873W        W11073   5.700   7.017   3.302  0.1792 -0.0026  0.2518
10874W        W11074   9.655   8.214   2.470  0.0928  0.0884  0.5277
10875W        W11075   4.410   6.963   1.713 -0.1675 -0.3496 -0.0716
10876W        W11076   7.654  13.987   5.616 -0.0460 -0.0284  0.0005
10877W        W11077   7.950  10.323  13.593 -0.2024  0.5721 -0.0947
10878W        W11078   2.077   3.164  14.264 -0.2801  0.0648 -0.1237
10879W        W11079   9.835   6.989   6.988 -0.1072  0.0849 -0.1411
10880W        W11080   2.996   3.699  14.445 -0.2346 -0.0014 -0.0321
10881W        W11081   6.688  10.400   9.634  0.1001 -0.0173  0.1409
10882W        W11082   3.162  10.439   3.801 -0.1001  0.3204  0.1912
10883W        W11083   0.784  14.967   9.382 -0.1306 -0.3837 -0.2287
10884W        W11084   3.336   7.668   9.633 -0.1440  0.0631  0.0411
10885W        W11085   4.196   4.204   6.373 -0.3003  0.5926 -0.2389
10886W        W11086   1.817   8.974   8.942  0.1624 -0.0698  0.0012
10887W        W11087  14.789  14.182  11.875 -0.3199  0.2455 -0.0252
10888W        W11088   2.956   0.481  10.176 -0.0383  0.1108 -0.3844
10889W        W11089   9.217  11.171   6.813 -0.0881  0.0583  0.2097
10890W        W11090   8.625   1.467  12.549  0.0785  0.2606 -0.1463
10891W        W11091   1.285   6.476   7.644 -0.3554 -0.1283 -0.0313
10892W        W11092   5.047  11.308   5.680  0.2217  0.1498  0.1586
10893W        W11093   3.646   8.362   4.538 -0.1760 -0.2463 -0.0755
10894W        W11094   6.146  14.709  14.929 -0.0312  0.3843 -0.1137
10895W        W11095   3.460   9.461   9.386  0.2003 -0.0352  0.2471
10896W        W11096   2.108  15.129   0.426 -0.1130  0.2257  0.0240
10897W        W11097   9.881   8.682  13.569 -0.0646  0.0526  0.0697
10898W        W11098   3.040   8.817   9.181 -0.2235  0.1468 -0.1496
10899W        W11099   8.857   0.580   0.733  0.2350 -0.1111 -0.0009
10900W        W11100   2.425  10.959  13.852  0.0305  0.2794  0.1348
10901W        W11101   6.447  14.582   2.379 -0.2029  0.3192 -0.0625
10902W        W11102   3.901   7.369  14.619  0.1900 -0.0623  0.0381
10903W        W11103   3.376   0.221   7.896 -0.0520  0.1544  0.3278
10904W        W11104  14.540  11.370   4.016 -0.1097 -0.1538  0.1222
10905W        W11105   4.902   0.055  12.340  0.0712  0.0467 -0.3039
10906W        W11106   0.769   1.352  13.232 -0.1918  0.1912  0.1854
10907W        W11107  11.079  12.655  14.503  0.4831 -0.1428 -0.1843
10908W        W11108   7.299   8.416   3.371 -0.0876 -0.4060  0.0193
10909W        W11109   3.227  10.686   2.417 -0.0797  0.0169 -0.1339
10910W        W11110   5.281   8.741  14.381 -0.3331  0.0141  0.0599
10911W        W11111   7.101   5.681   9.608 -0.0659  0.1679  0.1283
10912W        W11112   7.539   4.657   8.712  0.0450  0.1496  0.2054
10913W        W11113  10.076   0.972  11.584 -0.1997 -0.1970  0.3842
10914W        W11114   5.118   9.887   3.050 -0.2183 -0.3844 -0.3124
10915W        W11115  12.997   7.825   9.824  0.0104 -0.0695  0.0352
10916W        W11116   8.637   4.495   5.746  0.0774 -0.0908  0.1871
10917W        W11117  10.276   5.820   9.819  0.1806  0.0959 -0.3096
10918W        W11118  13.611   0.767  12.479  0.0456 -0.0034  0.3374
10919W        W11119  14.458   5.656  13.275  0.0328  0.0699  0.1467
10920W        W11120   1.350  10.125  10.272  0.2304 -0.0414 -0.3205
10921W        W11121   4.705  13.414   2.899  0.0105  0.1083 -0.0840
10922W        W11122  14.394   7.781  12.068  0.0627 -0.0360 -0.4153
10923W        W11123   2.946  12.670   0.089  0.0702 -0.4038 -0.1941
10924W        W11124   2.345  13.192  13.878 -0.2527 -0.4067 -0.0544
10925W        W11125  14.782  12.648   6.851  0.1153 -0.2694 -0.1342
10926W        W11126   0.771  10.176  12.265 -0.1150  0.0976 -0.1732
10927W        W11127   2.587  10.817   5.846 -0.1197 -0.0526  0.0082
10928W        W11128   2.092   8.126   0.830 -0.1021 -0.0673 -0.1383
10929W        W11129   0.634  10.448   9.500  0.0092  0.1982  0.0805
10930W        W11130  11.116   4.620  14.531 -0.3950 -0.1125 -0.1100
10931W        W11131   1.430   2.583  14.630 -0.3480  0.2096 -0.2413
10932W        W11132  10.149   6.446   7.028 -0.2887  0.2114 -0.1694
10933W        W11133  13.749   0.336   6.387 -0.2993 -0.0066  0.0104
10934W        W11134   5.021   7.379  13.864 -0.0214 -0.0782  0.1253
10935W        W11135   1.587  10.861  14.332 -0.0763  0.1437 -0.0389
10936W        W11136   5.761   0.915   0.920  0.1327  0.0203 -0.3866
10937W        W11137  10.077  13.694   7.226  0.1896 -0.2144  0.2161
10938W        W11138   5.751   8.978   8.751  0.1306 -0.3197 -0.0943
10939W        W11139  13.378   8.618  10.370  0.0323  0.0660 -0.1049
10940W        W11140  11.803   5.647  11.021  0.2341 -0.1315 -0.1337
10941W        W11141   8.456   3.976   1.122 -0.1127  0.2265 -0.1418
10942W        W11142  13.256  10.163   1.725  0.0685  0.1252  0.3646
10943W        W11143   5.310   2.528   2.942 -0.1601  0.1514  0.3199
10944W        W11144  13.706   3.041   7.113 -0.2603  0.3217  0.2710
10945W        W11145  15.034   1.885   3.562  0.0151 -0.0229  0.1803
10946W        W11146  10.413  13.170  11.058 -0.0824 -0.2164  0.2130
10947W        W11147  10.749  15.168   1.940  0.0673  0.1262 -0.0563
10948W        W11148   8.329   4.318  13.957 -0.0693 -0.0417  0.1733
10949W        W11149   4.580   0.184   5.846  0.2722 -0.1979  0.0951
10950W        W11150   3.739   1.122  14.908 -0.0941  0.1058  0.0446
10951W        W11151   1.528  14.083  10.477  0.0400 -0.2179 -0.0611
10952W        W11152   6.813  14.833  12.429  0.3261  0.1727 -0.1340
10953W        W11153  15.084  10.039   3.875 -0.1065  0.3983  0.1544
10954W        W11154   6.299   9.249  10.508 -0.0604  0.1197 -0.0058
10955W        W11155   7.473   7.842   4.219 -0.0279  0.0710  0.0577
10956W        W11156  13.622   2.069   3.217 -0.2612 -0.3234  0.2980
10957W        W11157   1.408  11.028   5.719 -0.1765 -0.1058 -0.1445
10958W        W11158   3.366  10.075  13.007  0.0781  0.1937 -0.1728
10959W        W11159  11.559   4.329  13.002  0.2036 -0.0606  0.2262
10960W        W11160   1.261  14.992   4.994 -0.0128 -0.1943 -0.0319
10961W        W11161  13.192   8.327   6.707 -0.2167  0.0998  0.1587
10962W        W11162   2.262   8.986   2.463 -0.1663  0.1106  0.1832
10963W        W11163   6.348   1.767  12.999  0.1168  0.0084 -0.0467
10964W        W11164   6.309  11.058   6.071 -0.2356 -0.1193  0.0761
10965W        W11165   9.894  13.344  13.619 -0.0367 -0.0900 -0.0195
10966W        W11166   3.636   8.670  10.060  0.1334 -0.1791  0.1159
10967W        W11167   0.130   8.997   3.094  0.1978  0.2332 -0.1662
10968W        W11168   9.491   6.823  11.585  0.1483  0.1933 -0.1449
10969W        W11169  13.284   1.558   6.570 -0.0114  0.0785 -0.0258
10970W        W11170   2.317  12.939   4.767  0.3856 -0.0501  0.1238
10971W        W11171   0.663   6.486   3.597  0.1613 -0.0406 -0.0735
10972W        W11172  11.294  12.238  10.152 -0.0883  0.1843  0.0454
10973W        W11173   9.194  12.150   3.126 -0.2272 -0.0999 -0.2646
10974W        W11174   8.530   2.622   9.790  0.2864 -0.0483  0.0595
10975W        W11175   3.415  13.226   5.082  0.1164 -0.3600  0.0577
10976W        W11176  11.898  13.228   9.061 -0.2317  0.1058  0.0694
10977W        W11177   8.101   0.667   7.951  0.1207  0.0351 -0.0852
10978W        W11178   5.111   9.985   8.024  0.2263  0.0189  0.0575
10979W        W11179  14.348   8.858   1.945  0.2649  0.0193  0.0793
10980W        W11180  14.923   8.783  13.096 -0.0906  0.0608 -0.0073
10981W        W11181   9.271  10.211  11.318  0.0067  0.2459  0.0370
10982W        W11182   7.949   8.898   3.628 -0.1919  0.0889 -0.0517
10983W        W11183   6.740  11.049   8.123  0.0648  0.2204  0.1945
10984W        W11184   2.059  14.640   7.397  0.0360 -0.2819 -0.0037
10985W        W11185  13.783   7.628   1.234 -0.0354  0.1695 -0.4990
10986W        W11186  11.561   5.626   6.670  0.1407 -0.2750  0.0717
10987W        W11187   2.180   4.620  13.335  0.1294 -0.0398 -0.1799
10988W        W11188   0.873   9.445  13.408 -0.2075 -0.0793  0.1161
10989W        W11189   6.751  12.201  14.401  0.1399 -0.2915 -0.0584
10990W        W11190   3.419  12.755   7.584 -0.3576  0.1018 -0.3428
10991W        W11191   4.191   7.619  12.517  0.0727  0.1198 -0.1598
10992W        W11192   5.851   7.624   0.706  0.1289 -0.2899 -0.0289
10993W        W11193   6.796   7.037   7.480  0.1511  0.0610 -0.0471
10994W        W11194   6.098   6.138   1.526 -0.2914  0.1539 -0.1059
10995W        W11195   5.443   3.688   0.420  0.0530  0.0522 -0.0691
10996W        W11196   5.120   8.650  10.865 -0.2580  0.3084  0.0027
10997W        W11197   6.868  10.909   7.352 -0.2437 -0.0357  0.2255
10998W        W11198  12.026  12.659  13.715  0.5803  0.1270  0.0801
10999W        W11199   2.800   5.290  11.639  0.1552 -0.1404 -0.0842
11000W        W11200   3.297  10.202   5.682  0.2796 -0.1335 -0.0158
11001W        W11201   3.852   4.521   8.725  0.0467  0.1622  0.2469
11002W        W11202   1.344  12.717   4.957  0.0383  0.1163 -0.1693
11003W        W11203  11.207  14.852  10.701  0.1477  0.2559 -0.1992
11004W        W11204   0.809   2.911  12.888  0.0724 -0.0719  0.1825
11005W        W11205   2.128   3.733   0.171 -0.2635 -0.2158 -0.1231
11006W        W11206   3.793  13.952  12.305 -0.0568  0.1353  0.1722
11007W        W11207   6.998   7.489   4.727 -0.2381 -0.2332 -0.1084
11008W        W11208   4.689  11.962   5.345 -0.2457 -0.1242  0.3987
11009W        W11209  11.520   3.611   2.536 -0.4204  0.0105 -0.0106
11010W        W11210   6.735   4.728   0.755  0.0027 -0.0107 -0.0767
11011W        W11211   9.743   5.508  11.956  0.2606 -0.0750 -0.0794
11012W        W11212   8.743   4.740   5.199 -0.1105 -0.0305 -0.0797
11013W        W11213   3.129  13.732   5.978  0.1670  0.1698  0.2402
11014W        W11214  12.386   7.906  12.797 -0.1172 -0.2356  0.0764
11015W        W11215  11.368   8.741   1.795 -0.0544 -0.4463 -0.1439
11016W        W11216   3.052  11.898   1.620 -0.1822 -0.0613  0.1372
11017W        W11217  14.300   9.057   1.279 -0.3123 -0.0736 -0.0279
11018W        W11218   5.509   7.916   4.704 -0.0298  0.1361 -0.0327
11019W        W11219   4.076  11.653   1.723  0.0238 -0.0322  0.0580
11020W        W11220   4.794   1.146   1.655  0.2049 -0.0589 -0.2904
11021W        W11221   3.047  11.554   1.131 -0.0133  0.4181 -0.0372
11022W        W11222   6.249   0.736   3.484  0.3672  0.1943  0.1487
11023W        W11223   2.607   9.780   6.062  0.3201 -0.2039 -0.1640
11024W        W11224   6.248  13.086   0.229  0.1073 -0.1192  0.1811
11025W        W11225  10.627   4.445  13.610  0.1467 -0.5489 -0.0680
11026W        W11226  11.230  11.024   0.854  0.0913  0.2387  0.1143
11027W        W11227   0.361   6.675  14.947  0.1536  0.0007 -0.0230
11028W        W11228   4.923  12.100  11.116 -0.2454  0.2854 -0.1966
11029W        W11229   7.178   1.686   3.163  0.0794 -0.0448  0.1166
11030W        W11230  10.149   5.488   1.726  0.1005 -0.0337 -0.0784
11031W        W11231  10.098   6.990   3.900  0.1583 -0.2775 -0.1216
11032W        W11232   6.952   4.401   6.747  0.0114  0.0419 -0.1858
11033W        W11233   0.453   2.204  12.218  0.1274 -0.2294  0.2162
11034W        W11234   6.210   2.463  13.642  0.0037 -0.3618 -0.1048
11035W        W11235   7.068   2.673   1.470  0.2286 -0.2076 -0.0156
11036W        W11236   1.060  12.961   4.029 -0.0517 -0.0818  0.0642
11037W        W11237  12.570  10.669   1.121 -0.1313 -0.0920 -0.0375
11038W        W11238   7.437   7.843   6.984 -0.2390  0.1541 -0.0117
11039W        W11239   2.247   9.189  14.968  0.2511 -0.4157  0.0862
11040W        W11240  11.005   8.898   8.653  0.0483 -0.0441 -0.1492
11041W        W11241   1.218  15.186   4.560 -0.3762 -0.3226 -0.2814
11042W        W11242   1.384  11.808   2.064 -0.1997 -0.0331 -0.0486
11043W        W11243   2.705   0.565   0.859 -0.2958 -0.0581  0.1382
11044W        W11244   2.808  10.035  12.978  0.2585  0.3830  0.1578
11045W        W11245  13.473   1.397  11.279  0.1563 -0.1022  0.1396
11046W        W11246   4.920  13.119   3.950  0.1394 -0.0154  0.2648
11047W        W11247   8.570   4.150   7.328  0.0708  0.1037 -0.2385
11048W        W11248   4.142   2.076  14.842 -0.4032  0.2260  0.0878
11049W        W11249   7.055  10.527   7.645 -0.0735  0.2030  0.0521
11050W        W11250   6.892   7.226   5.168 -0.0364 -0.2205  0.1205
11051W        W11251   2.613  14.808   1.207  0.0415  0.0485 -0.1925
11052W        W11252   6.740   2.320   7.606  0.0478  0.1110 -0.1914
11053W        W11253   0.729   6.821  13.233  0.0555  0.2767  0.0205
11054W        W11254   9.912   6.365   1.492 -0.0644 -0.1907  0.0900
11055W        W11255  10.337   2.965   3.167 -0.1104  0.2256  0.1185
11056W        W11256   1.173  10.917   2.426  0.2009 -0.0596 -0.1897
11057W        W11257   3.306  13.901   5.374 -0.1107 -0.3863  0.1040
11058W        W11258   7.240   6.323   9.581  0.0128  0.1882  0.0442
11059W        W11259   3.550   8.208  10.294 -0.0422 -0.1399 -0.3794
11060W        W11260   4.859  11.792   0.789  0.2316  0.1755  0.5077
11061W        W11261  12.873  13.000   9.674 -0.0636  0.2773  0.2787
11062W        W11262   7.808   1.853   2.436 -0.0127  0.0708  0.1010
11063W        W11263  10.253   6.159  10.857 -0.1597  0.3589 -0.0946
11064W        W11264   6.819   5.669  11.947  0.3245 -0.0719 -0.3049
11065W        W11265  12.684   1.116   2.041  0.1465 -0.2078  0.0187
11066W        W11266  14.304   8.496  12.361  0.1416  0.3506 -0.2184
11067W        W11267  10.486   1.667   2.050  0.0436  0.1559 -0.3043
11068W        W11268  12.122   7.683   4.310  0.0987  0.0173 -0.1563
11069W        W11269   0.074   7.564  13.479 -0.0745  0.1261  0.0661
11070W        W11270  10.835   6.073   1.153  0.1534 -0.1573  0.0395
11071W        W11271   2.493  13.128   1.862  0.2447 -0.1156  0.2312
11072W        W11272   5.831   0.413   8.518 -0.2296  0.1548  0.0724
11073W        W11273   4.396  11.518  15.109  0.4886  0.1069  0.0131
11074W        W11274  14.439   7.438   5.170 -0.1370 -0.0522  0.1305
11075W        W11275   8.847   9.544   8.836 -0.0742  0.1139  0.0909
11076W        W11276   6.447   4.262   6.615 -0.1776 -0.1321 -0.1976
11077W        W11277   5.552  10.918  12.593 -0.1104 -0.0078 -0.1721
11078W        W11278   5.284   1.710  11.084 -0.0019 -0.0740  0.3733
11079W        W11279   4.168  15.040   5.894  0.2217 -0.1630 -0.1902
11080W        W11280   6.220  14.925   4.525  0.0197  0.3081 -0.0320
11081W        W11281  11.216  11.665  12.722 -0.0045  0.0962 -0.0418
11082W        W11282   0.539   4.690   9.508 -0.3713  0.0728 -0.0400
11083W        W11283  15.126  13.924   7.534  0.0383  0.4390  0.1368
11084W        W11284   1.941  11.710   2.893  0.1599 -0.2592  0.1591
11085W        W11285   5.948  10.023   9.194 -0.0182  0.1366  0.2872
11086W        W11286  10.372   8.458   2.981 -0.1914 -0.1211 -0.1121
11087W        W11287   6.595   0.930   0.078 -0.1615 -0.0880 -0.0630
11088W        W11288   8.191   7.356   9.036 -0.0379 -0.0361  0.0611
11089W        W11289   3.252  12.244   5.138 -0.2654  0.0172 -0.2832
11090W        W11290   3.580   9.476   2.351  0.0525  0.0432 -0.3059
11091W        W11291  14.838   0.606   3.688  0.1579  0.0003 -0.0878
11092W        W11292   1.956  13.057   7.676 -0.0606  0.3233 -0.2047
11093W        W11293  12.347  14.524  14.562  0.2378 -0.2617  0.3935
11094W        W11294   4.694   3.100   0.985  0.1952  0.0493  0.0695
11095W        W11295   6.618   9.645   0.564  0.0600  0.0636 -0.1234
11096W        W11296   6.425   2.132   6.352  0.1261 -0.4347 -0.0407
11097W        W11297   6.577  13.358  12.641 -0.1198  0.0096 -0.0375
11098W        W11298   2.706  12.042   4.358  0.0287 -0.0039  0.1879
11099W        W11299   9.210  10.885   4.293  0.1193  0.1425  0.2955
11100W        W11300   7.079   6.239   4.767 -0.0619  0.2111  0.0949
11101W        W11301   4.917   7.658   8.392  0.0046  0.0146 -0.0397
11102W        W11302   8.816   5.176   6.826 -0.1356 -0.1451 -0.0549
11103W        W11303   2.991  11.042   5.421  0.2340  0.1605 -0.2611
11104W        W11304  14.790  14.112   7.227 -0.0081  0.1505 -0.1625
11105W        W11305   6.166  11.726   7.701 -0.1943 -0.0005 -0.1157
11106W        W11306   1.726   9.657   8.247 -0.0129 -0.1985 -0.0920
11107W        W11307   5.189  12.426   9.646  0.1224 -0.0067  0.2478
11108W        W11308   7.445  11.824   3.403  0.2952 -0.3638 -0.3556
11109W        W11309   5.602   0.200   4.372 -0.1275 -0.2375  0.0346
11110W        W11310   5.072   1.999   8.305  0.1711  0.1188 -0.2403
11111W        W11311   7.462  12.049   5.877 -0.1498 -0.1205  0.2498
11112W        W11312   9.133   4.244  13.825 -0.1355 -0.0756 -0.1205
11113W        W11313   9.385   3.113   3.272 -0.1159 -0.0170 -0.1836
11114W        W11314   3.118  10.831   3.497  0.2473 -0.3518  0.1706
11115W        W11315   2.706   6.419   5.747 -0.1024 -0.0555 -0.0289
11116W        W11316   4.698   8.973   0.342  0.0184 -0.0365  0.1698
11117W        W11317   6.514   9.591   2.626 -0.0500  0.1081 -0.0938
11118W        W11318   8.149   8.739   0.071 -0.1187 -0.3071  0.0564
11119W        W11319   8.662   7.936   2.388 -0.1063 -0.1070 -0.0589
11120W        W11320   1.059   4.506   1.488 -0.1423  0.2302  0.1838
11121W        W11321  10.083   9.127   1.962  0.3324  0.0725  0.0564
11122W        W11322  11.620  10.370  10.934 -0.0660  0.1001  0.1437
11123W        W11323  12.792   0.309   1.294 -0.3314 -0.5648 -0.0851
11124W        W11324  13.979  13.081   9.861 -0.2079  0.2716 -0.2820
11125W        W11325   8.965   2.614   1.610  0.3290 -0.1235 -0.0819
11126W        W11326   5.745  11.430  14.983  0.0490 -0.2190  0.2145
11127W        W11327  11.639   5.265  10.104  0.1499  0.2718  0.0481
11128W        W11328  10.436   0.295   1.703  0.0051  0.1376  0.2000
11129W        W11329   6.567   2.160  14.409  0.0191 -0.0634  0.1873
11130W        W11330   5.878  11.386  13.267  0.0498 -0.2133 -0.1131
11131W        W11331  10.584   8.328   3.991  0.1850  0.0148  0.1748
11132W        W11332   3.702   7.625  11.536  0.0833 -0.3385 -0.0987
11133W        W11333   3.005   5.217   4.848 -0.1874 -0.2894  0.0266
11134W        W11334  11.588  12.428   9.757 -0.0610 -0.0127  0.0057
11135W        W11335   1.721   8.207   8.027 -0.1559 -0.0526  0.2427
11136W        W11336   6.630  12.502   7.070 -0.1970 -0.1531 -0.1737
11137W        W11337   2.593  11.493   9.682 -0.0941  0.2310 -0.1986
11138W        W11338  13.727  13.983   0.020 -0.2529 -0.3090 -0.3362
11139W        W11339   9.619  14.313   8.618 -0.3081  0.3291 -0.0549
11140W        W11340   2.418  12.233   9.359 -0.0786  0.2041  0.1146
11141W        W11341   6.026  10.837   3.393 -0.1928 -0.1184 -0.0570
11142W        W11342   3.112   6.576   7.877 -0.0658  0.0734  0.0413
11143W        W11343   9.237   8.350   6.708  0.3257  0.0668  0.1340
11144W        W11344  14.738  10.365   7.428  0.3863 -0.1299  0.3737
11145W        W11345  12.449  13.818   9.732 -0.1881 -0.0931  0.0445
11146W        W11346   5.421   9.458   6.310  0.0693 -0.1292 -0.0611
11147W        W11347   2.713   6.779  12.769 -0.1238 -0.1161 -0.0748
11148W        W11348   4.402   9.520   0.946 -0.2947 -0.0298 -0.0678
11149W        W11349   5.565  12.428   7.788 -0.2890  0.1598  0.0939
11150W        W11350   9.772  10.624   5.440  0.0655  0.0026  0.2331
11151W        W11351   4.087  14.522   5.627 -0.0096  0.0022 -0.1371
11152W        W11352   6.286   3.882   8.631 -0.1125  0.0484  0.0631
11153W        W11353   3.456   3.423  11.006 -0.2437 -0.1438 -0.3205
11154W        W11354   7.777  10.825   9.320 -0.1183  0.1433  0.4101
11155W        W11355  13.445  11.508   8.664  0.0828  0.0562 -0.2030
11156W        W11356   3.958   0.213   8.626  0.0057  0.2262 -0.0423
11157W        W11357  14.480   8.333   5.215  0.2420 -0.1030  0.0661
11158W        W11358   7.192  10.194  13.679 -0.0885 -0.2909 -0.0101
11159W        W11359  10.359  14.839   4.579 -0.3329 -0.0948 -0.1494
11160W        W11360   7.877   9.994  12.329 -0.2257  0.0399 -0.3101
11161W        W11361  12.613   4.758  10.564  0.0418 -0.1416 -0.0732
11162W        W11362   6.316  10.688  12.919  0.2299 -0.1977  0.1102
11163W        W11363  14.730   7.866  14.350 -0.1299  0.0863 -0.0350
11164W        W11364   7.347   5.532   9.106  0.2132  0.2988  0.0432
11165W        W11365  10.256   6.652  11.272 -0.1059 -0.0124  0.1252
11166W        W11366   0.978   1.334  14.171 -0.1179 -0.0057  0.0520
11167W        W11367   4.149   9.568  12.486 -0.3961  0.3114  0.1331
11168W        W11368  13.324   0.453   1.317 -0.3733 -0.0138 -0.0389
11169W        W11369   4.646   9.918   1.202 -0.2268  0.0609  0.0955
11170W        W11370  15.176   8.451  12.376 -0.0363  0.2355  0.0799
11171W        W11371   3.929  14.651  14.792  0.2809 -0.3860  0.1384
11172W        W11372   4.101   6.156   7.835  0.1667  0.1409 -0.3407
11173W        W11373   6.982   4.396   0.533 -0.3144  0.0368  0.1190
11174W        W11374  14.540   8.357   7.321 -0.3260  0.0897  0.3863
11175W        W11375  10.290   6.018  14.715 -0.2019 -0.1406 -0.5244
11176W        W11376  15.092   1.900  13.071 -0.2888  0.0576  0.3731
11177W        W11377   9.147   2.082  14.937  0.2418  0.0060 -0.2641
11178W        W11378   3.026   7.390   9.926  0.3650  0.1694  0.0249
11179W        W11379  14.157   5.466   8.026  0.4537 -0.0967 -0.0916
11180W        W11380   1.126   3.092  10.318 -0.2175  0.0174 -0.0979
11181W        W11381   2.113   1.622   5.638 -0.0709  0.1348 -0.1533
11182W        W11382  11.945   3.475  11.932  0.1224  0.0142 -0.2709
11183W        W11383   6.783  12.367  14.837 -0.2239 -0.0528  0.0440
11184W        W11384   2.880  10.132   8.981 -0.1342  0.1486  0.0918
11185W        W11385   7.755  12.417   8.516  0.0821 -0.1316 -0.0766
11186W        W11386   8.152  12.414   7.185  0.0345 -0.0916 -0.2603
11187W        W11387  14.722   1.580  13.923  0.0080  0.0462 -0.1095
11188W        W11388   9.093  14.335   4.890  0.0825 -0.0247  0.3105
11189W        W11389   7.447  12.773   9.811 -0.1789 -0.0273 -0.1435
11190W        W11390   5.453   1.674   3.475 -0.1111  0.1272 -0.2429
11191W        W11391  11.889   8.724   6.783  0.1607 -0.2207  0.1409
11192W        W11392   4.884   2.731   9.588  0.1099 -0.0521  0.0611
11193W        W11393  11.898  14.677   4.762  0.2323  0.0202  0.1251
11194W        W11394   7.097  12.822   5.070  0.0181  0.0226 -0.2068
11195W        W11395   5.154   1.629   5.222 -0.0350  0.0671 -0.1437
11196W        W11396   8.507   6.470   9.889 -0.0664 -0.2850 -0.0483
11197W        W11397   0.205   9.373  12.317  0.4234 -0.1280  0.0158
11198W        W11398  11.449  11.046  12.084  0.0373 -0.0342 -0.4539
11199W        W11399   1.768  11.049   9.990  0.0102 -0.3892 -0.2311
11200W        W11400   9.266  10.094  13.745  0.0018  0.0071  0.1846
11201W        W11401   2.995   8.037  13.013 -0.0198  0.1412 -0.0725
11202W        W11402   0.073  12.476   8.752  0.1692  0.0068  0.0027
11203W        W11403   4.519   0.151  13.895 -0.0891 -0.2027  0.3083
11204W        W11404   5.931   8.819   7.498 -0.1508  0.2275 -0.0003
11205W        W11405  11.597  11.215  11.172 -0.0059  0.1070 -0.0256
11206W        W11406  11.752   0.093  12.094 -0.1442 -0.0426 -0.2514
11207W        W11407   2.899   8.933   6.630 -0.0232  0.0256 -0.0051
11208W        W11408   3.253   2.663   6.299 -0.1155 -0.0406 -0.0720
11209W        W11409   4.582  14.951   7.241 -0.4700  0.1737  0.0037
11210W        W11410   1.103   3.821  10.888 -0.2038 -0.1182  0.2745
11211W        W11411   9.588   0.466   1.374  0.0107  0.0716  0.1099
11212W        W11412   4.199  10.397   6.908  0.0859  0.1320  0.2871
11213W        W11413   4.407  10.562   0.111  0.1291 -0.2344 -0.2023
11214W        W11414   7.273  10.725  13.848  0.0130  0.1180  0.1284
11215W        W11415   6.647   0.373  14.006 -0.0167 -0.0033  0.1857
11216W        W11416   6.958  10.289   0.072  0.1263  0.1227 -0.1549
11217W        W11417   7.215   7.671  11.418  0.0089 -0.1172  0.2181
11218W        W11418   3.266  11.509  11.968  0.1464 -0.1863  0.1034
11219W        W11419   0.993   7.333  13.947  0.2036 -0.3085 -0.1193
11220W        W11420   3.746  12.818   5.906 -0.0598 -0.1108  0.3102
11221W        W11421   7.541   2.648   2.983  0.1879 -0.3417  0.2956
11222W        W11422  14.334   4.738   5.382  0.0981 -0.1163 -0.0084
11223W        W11423   1.007   0.164   4.178 -0.1173 -0.0086  0.2207
11224W        W11424   8.932   7.182   3.747  0.0727  0.1566 -0.1257
11225W        W11425   8.683  10.503   4.931 -0.1090 -0.2182 -0.0411
11226W        W11426   5.869   8.025   6.987  0.1268  0.2160 -0.2293
11227W        W11427   5.899  12.636   7.456  0.1081 -0.0940 -0.0759
11228W        W11428   9.252  13.192  13.506  0.0732 -0.1533 -0.1375
11229W        W11429   9.491   8.231  11.837 -0.2524  0.2606  0.1727
11230W        W11430   1.852   4.237  13.511  0.1038 -0.0262 -0.2533
11231W        W11431   4.195   5.611  11.446  0.0897  0.1619 -0.2062
11232W        W11432   1.198  13.072   8.609  0.0215  0.0990  0.0271
11233W        W11433   3.265   9.703   1.187  0.0535  0.1828 -0.0911
11234W        W11434   8.083   2.445   0.726 -0.0440 -0.1086  0.1436
11235W        W11435  13.087   8.449  11.671  0.0512  0.0573 -0.0570
11236W        W11436   2.981  10.995   9.582  0.1795  0.1368  0.0410
11237W        W11437   9.103  14.788   1.200  0.0682 -0.0577 -0.0546
11238W        W11438   6.241  14.792  11.978 -0.0239 -0.0620 -0.1469
11239W        W11439  14.156  11.075  14.734  0.4933 -0.1985 -0.1624
11240W        W11440   6.958   7.993   3.346 -0.0705 -0.1461  0.0208
11241W        W11441   4.739   8.738  15.090  0.0990 -0.2205  0.0004
11242W        W11442   5.919   9.918  12.010 -0.3743  0.1397  0.1254
11243W        W11443  10.112  12.092   5.324 -0.1676 -0.1683  0.0757
11244W        W11444  10.521  11.749   8.860 -0.1064 -0.0869  0.1945
11245W        W11445  13.194   6.118   2.956  0.2739 -0.2255  0.0944
11246W        W11446  14.315   1.435   6.406  0.0751 -0.0956 -0.1933
11247W        W11447   8.034   9.971   4.345  0.0897 -0.0178  0.0972
11248W        W11448   4.606  13.191   3.394 -0.0827 -0.1618 -0.0979
11249W        W11449   1.656   1.391   2.196 -0.0106 -0.1083 -0.0977
11250W        W11450   1.517  14.017   9.864 -0.2085 -0.0210 -0.1835
11251W        W11451   1.389   6.446  13.265 -0.1358 -0.4413 -0.2644
11252W        W11452   3.957   6.280  13.745 -0.0394  0.0577 -0.5051
11253W        W11453   2.985   8.937   7.816 -0.1089 -0.1855 -0.1543
11254W        W11454   4.272  11.914   9.464 -0.2298 -0.1503  0.1995
11255W        W11455   3.871   0.098   7.020  0.0191 -0.1792 -0.1838
11256W        W11456   7.588  10.906   4.490 -0.0846  0.2392 -0.3238
11257W        W11457  10.762   2.108  11.479 -0.0586  0.0293 -0.0948
11258W        W11458   5.777   3.786   2.801 -0.1734 -0.1627 -0.2321
11259W        W11459   1.907   3.528   6.360 -0.1920  0.4368 -0.1850
11260W        W11460   3.613   6.785   4.640 -0.2722  0.3167  0.1972
11261W        W11461   2.670   1.967   3.756  0.2320 -0.2651 -0.0732
11262W        W11462  11.409   7.908   2.038 -0.0598 -0.3375 -0.1727
11263W        W11463   4.017  11.729  11.280 -0.0810 -0.1775 -0.0219
11264W        W11464   3.230   8.444   4.285 -0.0188  0.1725  0.1451
11265W        W11465  14.046  10.507   3.987 -0.0792  0.1523  0.0114
11266W        W11466   3.180   2.868   7.708 -0.1873  0.2079  0.1982
11267W        W11467   4.165  13.973   5.713  0.1130 -0.2047  0.0169
11268W        W11468  10.103  10.688  10.344  0.0550  0.0214  0.5979
11269W        W11469   0.085   6.874   1.802  0.0184 -0.2125  0.2966
11270W        W11470   0.247   2.532  10.300 -0.0289 -0.0110 -0.0837
11271W        W11471   6.445   6.607   5.853  0.0218  0.0019 -0.0861
11272W        W11472   6.639  13.691  10.720  0.0422  0.3153  0.0477
11273W        W11473  14.381   8.897  13.235  0.1514 -0.2141  0.3357
11274W        W11474  14.012  10.025  12.716  0.1990  0.2579 -0.1404
11275W        W11475   6.277   7.812   9.078  0.3127 -0.0350 -0.1257
11276W        W11476   9.989   3.274   8.682 -0.1358 -0.1822  0.0571
11277W        W11477   6.540  12.616   9.823 -0.0884  0.0632  0.1800
11278W        W11478  14.435   7.504   4.713 -0.0732  0.0015  0.3292
11279W        W11479  14.392   9.541   4.956  0.1006 -0.3300  0.1225
11280W        W11480   4.834   7.098   5.558  0.0983  0.2258  0.1160
11281W        W11481  11.631   6.180   0.840 -0.1633 -0.1544 -0.2281
11282W        W11482  11.541   4.726   3.649  0.0601  0.1816 -0.1477
11283W        W11483   5.002   3.747   6.758 -0.2029  0.2537  0.1526
11284W        W11484   5.776   5.426   9.730  0.1664  0.0886 -0.1499
11285W        W11485   2.239  14.626   1.959 -0.0496  0.1965 -0.1565
11286W        W11486   8.558   2.914  12.480  0.1488 -0.0666  0.0352
11287W        W11487   3.707  10.850   1.997 -0.2125  0.1981 -0.0475
11288W        W11488   6.088   5.292  13.895 -0.0827 -0.3962  0.2284
11289W        W11489   4.980   3.938   7.685 -0.1495 -0.3138 -0.1939
11290W        W11490   0.780   1.438   6.844 -0.1732 -0.0452 -0.2845
11291W        W11491   4.075   7.417   7.216 -0.3193 -0.2861  0.4154
11292W        W11492   1.227  14.824  14.666 -0.1050  0.1269 -0.0261
11293W        W11493  14.046   1.088   4.543 -0.1882  0.1354  0.0176
11294W        W11494   3.040   8.239  10.367  0.4424 -0.1639 -0.1113
11295W        W11495  14.658  10.468  10.764 -0.1764 -0.0166 -0.0151
11296W        W11496   7.441   9.310   7.583  0.1212 -0.0779  0.1326
11297W        W11497   4.497   1.614   0.201  0.0520  0.5083 -0.0514
11298W        W11498   4.882   5.587   3.852  0.1727  0.2364  0.0958
11299W        W11499  11.291   2.815  15.188 -0.0359 -0.0817  0.1074
11300W        W11500   8.826   3.650   7.810  0.2164  0.3346  0.0064
11301W        W11501   3.065   3.558   9.901  0.0601  0.3658 -0.1186
11302W        W11502   9.896   2.935   6.566  0.0293  0.1560  0.1790
11303W        W11503   3.257   7.886   2.521 -0.1576 -0.0455  0.2517
11304W        W11504   5.083   7.768  12.124 -0.2322 -0.0934 -0.2260
11305W        W11505   7.349   5.239   6.697 -0.1294 -0.0067  0.3174
11306W        W11506   7.194   5.158   8.701 -0.0288 -0.1013 -0.0432
11307W        W11507   2.899  12.327  13.078 -0.1856 -0.1513 -0.3438
11308W        W11508   1.366  10.755  14.753 -0.3147  0.0891  0.0369
11309W        W11509  14.368   9.361   2.914  0.0112 -0.1771  0.2430
11310W        W11510  14.107   4.747  11.757  0.0748  0.1404 -0.3827
11311W        W11511   8.563  14.487  10.988 -0.4565 -0.0720  0.1292
11312W        W11512  10.314   8.486   9.341  0.0269 -0.0636  0.0657
11313W        W11513   9.859   6.704   7.574 -0.1485  0.0550  0.1214
11314W        W11514   2.873   2.472   1.481  0.2213  0.0662 -0.1999
11315W        W11515  10.330  11.967   8.464  0.1431  0.0974  0.2358
11316W        W11516  12.430   3.641  11.714 -0.0583  0.1250 -0.0345
11317W        W11517   4.245   2.984   5.942 -0.1541  0.0317 -0.2657
11318W        W11518   4.738   4.989   8.412 -0.0080  0.2708  0.2432
11319W        W11519   5.745   2.886   9.810  0.2438  0.0130 -0.0643
11320W        W11520   5.658   4.588   8.017 -0.0505 -0.7309  0.2658
11321W        W11521   2.253  12.319  10.083  0.1940 -0.2875 -0.1195
11322W        W11522  15.109  13.656  10.082 -0.2834  0.0893  0.1099
11323W        W11523   7.466  10.822   2.670 -0.0712 -0.0066 -0.0569
11324W        W11524   8.391   6.959  11.199  0.0317 -0.2562  0.0505
11325W        W11525  12.535   5.462   4.856  0.0111  0.2278 -0.0998
11326W        W11526  13.309   6.646   0.891  0.2555 -0.0716  0.0568
11327W        W11527   3.352   4.624   3.758 -0.2437 -0.1545  0.0992
11328W        W11528  11.485   3.205   6.263  0.0145  0.1736 -0.0658
11329W        W11529   5.433  12.243  11.354  0.4165  0.0683  0.0711
11330W        W11530   3.679   5.904   3.405 -0.1482  0.2749  0.0785
11331W        W11531   9.720   6.206   1.075  0.3726  0.1515  0.1794
11332W        W11532   4.017   7.142  10.085 -0.1684  0.1271 -0.0859
11333W        W11533   6.530  12.051   9.747 -0.2720  0.1485 -0.1053
11334W        W11534   3.104   0.155   4.359 -0.0546  0.1032 -0.0647
11335W        W11535   1.770  14.357   7.736 -0.1257  0.0880  0.1911
11336W        W11536   5.914   8.986   9.591  0.3429  0.1919  0.0161
11337W        W11537   4.972   4.747  13.108 -0.2655  0.0116 -0.0119
11338W        W11538   7.449   0.422   3.890 -0.0396 -0.0438 -0.3292
11339W        W11539  14.013   3.098   8.018  0.1958  0.0687 -0.5028
11340W        W11540   4.512  13.123  14.844  0.1087 -0.0824  0.1536
11341W        W11541  10.657  14.703   9.057  0.0776  0.1737  0.2740
11342W        W11542   2.365  14.132   0.427 -0.1404 -0.1448  0.0987
11343W        W11543   2.432   2.830  15.153 -0.1519 -0.0738  0.0509
11344W        W11544   6.935   3.658  11.782 -0.0145 -0.3071  0.2327
11345W        W11545   2.133   3.685  10.302 -0.3404 -0.3990  0.0229
11346W        W11546  12.263   4.595   9.055 -0.3019  0.1309  0.0011
11347W        W11547  10.952   8.175   2.240 -0.0195 -0.2162 -0.0367
11348W        W11548   4.364   8.461  10.548  0.2399  0.3068  0.1856
11349W        W11549  10.543   8.997   7.438  0.1783  0.1112 -0.1054
11350W        W11550  10.730   2.217   1.931  0.3234  0.0237 -0.0784
11351W        W11551   9.309  14.032   4.052  0.1475 -0.0620 -0.5295
11352W        W11552   9.917  11.569  10.215  0.0178 -0.0011 -0.1600
11353W        W11553   0.071   4.444   0.207  0.2628  0.0627  0.0139
11354W        W11554  10.242   7.843  11.158 -0.0399 -0.0524  0.0036
11355W        W11555   7.176   2.810  14.557  0.2158 -0.0698  0.2502
11356W        W11556   3.121   4.613   1.535 -0.0383 -0.2886 -0.0654
11357W        W11557  11.767   1.180  10.161  0.1504  0.2039  0.2151
11358W        W11558   5.168   5.790   9.818 -0.1605  0.2375 -0.2534
11359W        W11559   9.821  11.369  12.023  0.0332 -0.0433  0.2311
11360W        W11560   8.746   8.534   5.239 -0.1133 -0.1414 -0.1352
11361W        W11561   0.373   1.934   3.488 -0.1039 -0.0210  0.0318
11362W        W11562   2.737   8.208  13.942 -0.1880 -0.3803  0.1135
11363W        W11563   0.550   5.890  12.504 -0.2642  0.4130 -0.2709
11364W        W11564  13.178   8.687  12.109  0.2355 -0.0468  0.1951
11365W        W11565   4.396   3.153   1.920  0.0057 -0.0370  0.0947
11366W        W11566   0.735   9.247  11.842 -0.0625 -0.1385  0.2749
11367W        W11567   0.619   9.050   8.322  0.1279 -0.1002  0.2848
11368W        W11568   4.125  14.318   1.411 -0.0752 -0.0746  0.0866
11369W        W11569   6.932  11.331   8.502 -0.0678  0.0955 -0.0152
11370W        W11570   4.810   7.407   0.505  0.4938  0.0068  0.0985
11371W        W11571   5.134  12.601   8.648  0.0405 -0.1675 -0.2791
11372W        W11572   2.398   8.923   8.705  0.0813 -0.2174  0.0074
11373W        W11573  10.250  13.308   8.864  0.0869 -0.0055 -0.0582
11374W        W11574  14.959   6.782   5.197  0.2116  0.0665 -0.2175
11375W        W11575   5.606   5.965  13.420  0.1437  0.2417 -0.1974
11376W        W11576  14.716   0.403   8.712  0.0940 -0.1172 -0.0101
11377W        W11577  11.650  15.054  11.532 -0.0811  0.1767  0.0302
11378W        W11578   1.956  12.101   9.178  0.1889  0.1702 -0.0447
11379W        W11579  13.394   8.011   9.197  0.1549  0.1825  0.1686
11380W        W11580  10.318  11.332  12.399 -0.0396 -0.0493  0.1025
11381W        W11581   2.000   5.600  13.400  0.0494  0.1189 -0.1722
11382W        W11582   4.127   3.891  15.070 -0.0257  0.3526  0.1887
11383W        W11583   3.787   2.828  13.762  0.3173 -0.1156  0.1250
11384W        W11584   7.012  10.459   7.123 -0.2538  0.1743  0.1375
11385W        W11585   4.927   6.026   8.393  0.0169 -0.2332 -0.2426
11386W        W11586   6.856   4.028  11.168 -0.3496  0.2058  0.0988
11387W        W11587   1.833  13.148  14.052 -0.2119 -0.1745 -0.0621
11388W        W11588  12.084   7.035  13.605  0.3826 -0.0875  0.0304
11389W        W11589   1.257   8.559   3.239  0.0598  0.0082  0.1099
11390W        W11590   3.928  10.435  10.070 -0.1520  0.2836  0.1722
11391W        W11591   7.369  10.273   4.693  0.3002 -0.0037  0.2363
11392W        W11592   5.495   2.604  13.021  0.0117 -0.1213 -0.1726
11393W        W11593  12.482   6.064  14.731 -0.0372  0.0178  0.1481
11394W        W11594   0.822   8.964  10.211  0.1363  0.6173  0.3132
11395W        W11595  14.431   7.058   8.698  0.0255  0.0677  0.0313
11396W        W11596   8.885   6.544   7.953 -0.1768  0.2392 -0.0228
11397W        W11597   4.978   1.035  14.523  0.1437  0.1083  0.2921
11398W        W11598   8.364  12.726  10.176  0.0159 -0.1435 -0.0434
11399W        W11599   1.746   9.736  12.947 -0.0034 -0.0596 -0.5093
11400W        W11600   2.539   3.702  13.512  0.0469 -0.1350 -0.2669
11401W        W11601   2.112  14.774   4.953 -0.1402  0.0916  0.1055
11402W        W11602  10.087   1.180   7.736 -0.0360 -0.2156  0.3116
11403W        W11603   4.541  12.871  12.853  0.0205 -0.0796 -0.1241
11404W        W11604  13.521   9.069   0.355  0.0829 -0.1102 -0.4137
11405W        W11605   2.266   9.701  13.737 -0.1910 -0.2255  0.1218
11406W        W11606   9.005  11.524  13.663 -0.1576 -0.1014 -0.0875
11407W        W11607   5.090  10.147   9.794  0.1480  0.0925 -0.1173
11408W        W11608   4.487  12.311  12.991  0.0283 -0.2374  0.0812
11409W        W11609  12.902  10.647   5.024  0.1459  0.1267  0.1735
11410W        W11610  12.265  14.787   9.892  0.2275  0.0153 -0.0754
11411W        W11611   3.608   3.414   6.548  0.1200 -0.1157 -0.1904
11412W        W11612   8.268  13.597   7.765  0.0236 -0.1787 -0.0199
11413W        W11613  11.565  11.780  10.304 -0.1754 -0.0184 -0.2696
11414W        W11614   4.045   6.278   0.531  0.0150  0.0052  0.0624
11415W        W11615   7.953   9.187   8.644 -0.0821 -0.3534  0.2110
11416W        W11616   7.868   2.631  14.569 -0.0878 -0.0995 -0.2468
11417W        W11617   6.316   3.073  14.451  0.1053  0.1427  0.1971
11418W        W11618   3.096   6.627   8.794  0.2565  0.0234 -0.0905
11419W        W11619   5.836   6.319   9.349 -0.2929 -0.1844  0.0241
11420W        W11620   8.568  10.543   9.701  0.0065  0.1471 -0.4229
11421W        W11621   9.695   5.905   3.652 -0.1450  0.1113  0.0240
11422W        W11622  11.157  10.705  12.842 -0.1924 -0.0528 -0.2335
11423W        W11623   0.075   5.784  13.841  0.0251  0.1281 -0.1771
11424W        W11624   0.589   8.009   4.791 -0.1060  0.1552  0.0935
11425W        W11625   2.858  11.770   8.105  0.1405 -0.1302  0.0943
11426W        W11626   8.421  10.574  13.559 -0.1200 -0.0097  0.0870
11427W        W11627   4.517   6.152  13.660 -0.2745  0.0873  0.1750
11428W        W11628   9.546  12.814   9.059  0.1106  0.0812 -0.1278
11429W        W11629   4.583  13.184  13.231 -0.3175  0.0973  0.1463
11430W        W11630   3.953  11.800  10.786 -0.0768  0.0196  0.0522
11431W        W11631  14.902  11.257   7.625 -0.0405  0.0636 -0.2425
11432W        W11632   9.294  10.839   9.125 -0.2517  0.0701 -0.1754
11433W        W11633   9.608   9.191   7.819 -0.0061  0.2449 -0.0888
11434W        W11634   4.605   2.160  10.692 -0.0538 -0.2086 -0.1702
11435W        W11635   0.717   3.607   1.564 -0.2954  0.0361 -0.1155
11436W        W11636   7.736  11.595   9.851  0.0821  0.0467  0.2441
11437W        W11637   5.165   2.388  13.316 -0.1965  0.1650 -0.4053
11438W        W11638   5.144   5.758   3.452 -0.3840  0.1767  0.0940
11439W        W11639   7.219   9.743   2.271  0.1314  0.0105 -0.0281
11440W        W11640   6.007   0.269   8.922 -0.1614 -0.1528 -0.2988
11441W        W11641   7.482  10.592   8.902 -0.1635  0.0326 -0.1430
11442W        W11642   2.831  10.215   1.866  0.1296  0.2431  0.2193
11443W        W11643   0.714  10.626  10.825  0.1785  0.0180 -0.0067
11444W        W11644   1.449  13.925   4.297 -0.0441  0.0120 -0.1458
11445W        W11645   5.685   9.940  10.597 -0.0619  0.0564  0.2326
11446W        W11646   5.711  15.012   5.270 -0.0483  0.1937 -0.4000
11447W        W11647  10.999   7.410  14.980 -0.1020  0.1182  0.1470
11448W        W11648  10.975   5.118   6.858 -0.1112 -0.0986  0.0683
11449W        W11649  14.917   8.571   6.541 -0.2909  0.1968 -0.3200
11450W        W11650   5.474   2.082  13.043  0.0772  0.2005  0.4112
11451W        W11651  12.868  11.401   6.403  0.0629  0.1624  0.1221
11452W        W11652   5.382   6.346  13.075 -0.0301  0.1228 -0.2781
11453W        W11653   5.843   1.424  11.126 -0.1220  0.1613  0.1928
11454W        W11654   4.376   0.393  10.121  0.2701  0.2417 -0.0211
11455W        W11655  11.427   2.990   9.378  0.2607 -0.1478 -0.0984
11456W        W11656   6.902   0.060   9.684 -0.3571 -0.1534  0.6013
11457W        W11657   1.242   5.902   3.702  0.0564  0.3444 -0.2406
11458W        W11658   3.154  14.049   4.468  0.3868  0.1370 -0.1591
11459W        W11659  12.452   5.241  12.534 -0.1472 -0.1038  0.1169
11460W        W11660  14.318  10.844   7.343  0.0715 -0.3343 -0.0398
11461W        W11661   9.635   9.477   1.306  0.3074 -0.0557  0.3843
11462W        W11662   2.770   3.083   3.279 -0.0577  0.1351 -0.1582
11463W        W11663   4.291   6.113  11.389 -0.1343 -0.2988  0.4761
11464W        W11664   8.786   9.993   0.708 -0.0546 -0.1033  0.0578
11465W        W11665  12.834   8.577   7.040 -0.1094 -0.0074 -0.0154
11466W        W11666  15.059   9.968   8.948 -0.2615  0.3250  0.1115
11467W        W11667   8.767   9.622  11.148  0.0605  0.1852 -0.2487
11468W        W11668  13.279   2.172   1.747  0.0510  0.0791 -0.2324
11469W        W11669   2.826   9.554   8.010  0.0219 -0.3987  0.0060
11470W        W11670  11.688   0.494   9.583 -0.1965  0.0133  0.0611
11471W        W11671   4.196  10.829  12.569 -0.1217 -0.0881 -0.0261
11472W        W11672  12.781   3.808   6.474 -0.1363 -0.1024  0.1558
11473W        W11673  10.746  14.360   5.873 -0.0087 -0.2392 -0.0729
11474W        W11674   2.061  10.840   7.738  0.2023  0.1064 -0.1301
11475W        W11675  11.293   5.885   8.797 -0.3710 -0.1264  0.1620
11476W        W11676   7.459   5.665   2.222 -0.2854 -0.0926  0.0103
11477W        W11677  11.907   5.887  12.921 -0.1812 -0.1871 -0.2625
11478W        W11678   3.889   9.636   6.500  0.2125  0.0727  0.0056
11479W        W11679   7.353   0.058   2.191  0.2022 -0.1244 -0.1000
11480W        W11680   1.599   8.208   2.409 -0.0561  0.4571 -0.0304
11481W        W11681   7.808  11.442  13.549  0.1031 -0.1261  0.0818
11482W        W11682   8.043   0.151  10.107  0.1970 -0.0939 -0.0053
11483W        W11683   1.506   5.897   6.830  0.0053 -0.2300 -0.2404
11484W        W11684   3.200   4.323   5.086  0.0981 -0.3910 -0.0406
11485W        W11685   2.938  12.602   3.191  0.1721 -0.1950 -0.1151
11486W        W11686   5.452  14.980   7.821  0.2331  0.0605  0.2938
11487W        W11687   9.422  11.248  12.824  0.0408 -0.2342  0.0876
11488W        W11688   6.632   5.927   0.362 -0.0010  0.2370  0.1654
11489W        W11689  10.930  14.105   5.393 -0.3514 -0.0573 -0.1343
11490W        W11690   1.225   9.004   7.962 -0.1274 -0.5087  0.4318
11491W        W11691  11.902   4.844   9.957  0.1393  0.0321  0.1357
11492W        W11692   0.312  11.538   9.395  0.2023 -0.0241  0.1138
11493W        W11693   5.476   2.685  10.753 -0.0277  0.0651 -0.0207
11494W        W11694   5.367   7.302  11.936 -0.0272  0.0875 -0.3037
11495W        W11695  13.411   6.144  10.820  0.2350 -0.2248 -0.3071
11496W        W11696   9.565   7.693   8.933  0.0714  0.2278  0.3069
11497W        W11697   5.544   7.467   2.049  0.2970  0.4162  0.1406
11498W        W11698  10.584   4.372   9.436 -0.1510 -0.0626 -0.1795
11499W        W11699   8.515  12.027   9.005  0.1206 -0.1782 -0.2395
11500W        W11700   8.435  11.867   6.680  0.0013 -0.1435  0.0457
11501W        W11701   7.544   3.745  10.975 -0.1344  0.3140 -0.1978
11502W        W11702  10.233   1.936  12.858 -0.1112  0.0877  0.0831
11503W        W11703   1.130   5.312   0.188  0.1573 -0.3047 -0.0372
11504W        W11704   3.025   8.604  12.364 -0.2032  0.0934  0.3744
11505W        W11705   4.039   5.636   8.679 -0.2327  0.0560 -0.1357
11506W        W11706   2.869  10.444  11.645 -0.1461 -0.2560 -0.1680
11507W        W11707   2.391  10.008   8.109 -0.0790  0.2699 -0.2139
11508W        W11708  13.492   1.277   4.578  0.1561  0.0093  0.1337
11509W        W11709   5.139   7.196  10.372 -0.2309  0.0045 -0.0688
11510W        W11710   2.701   7.364  10.286  0.1730  0.0593  0.0868
11511W        W11711  15.107  14.016  12.786 -0.1470 -0.2198  0.0514
11512W        W11712   8.315   9.978  11.979  0.3691 -0.0077 -0.0353
11513W        W11713   8.579  14.874  14.718  0.0302  0.1636 -0.0999
11514W        W11714  13.750   6.778  12.089 -0.1230  0.0610  0.1437
11515W        W11715   5.745  10.928  10.628  0.0597  0.0624  0.0800
11516W        W11716  13.601  15.083   9.426 -0.0826  0.1075 -0.1219
11517W        W11717   5.715   0.448  14.454  0.5268 -0.3004 -0.3467
11518W        W11718   9.289  14.094   9.143  0.0826 -0.2346 -0.1310
11519W        W11719   2.822  13.007  12.339  0.2887 -0.0429  0.1506
11520W        W11720   3.826   7.388   0.727 -0.3497 -0.0819 -0.2130
11521W        W11721   0.351  13.806  11.787  0.0700 -0.2997 -0.3658
11522W        W11722   3.556  10.027   2.507  0.6136 -0.0291 -0.1304
11523W        W11723   5.836   1.864   5.440  0.1934 -0.4191  0.3025
11524W        W11724   3.910  10.877   9.235 -0.0103 -0.2040  0.1427
11525W        W11725   9.271   8.556   0.246 -0.5344 -0.0637 -0.1300
11526W        W11726   8.701   6.827  10.138  0.2524  0.4011 -0.0647
11527W        W11727  13.812  13.688  12.253 -0.0546 -0.1069 -0.2444
11528W        W11728  10.965   5.152   4.273 -0.0583  0.1932  0.1309
11529W        W11729  12.751   3.021  13.937  0.1133  0.0958  0.1074
11530W        W11730   6.391   8.895  15.121 -0.2221 -0.1757 -0.0149
11531W        W11731   6.444  14.354  11.860  0.0441 -0.2246 -0.0641
11532W        W11732   4.642   8.618  14.081 -0.1072  0.0409  0.0224
11533W        W11733  14.529   6.796   3.431  0.4404 -0.0392  0.5005
11534W        W11734   4.220  11.939  14.804 -0.2922 -0.2779 -0.3642
11535W        W11735  14.456   8.597   4.243  0.1164  0.0049 -0.0221
11536W        W11736   3.032  14.242  11.786  0.1654 -0.0421  0.1318
11537W        W11737   7.553   8.337  14.547 -0.0404  0.0239  0.1032
11538W        W11738   5.504   2.983   3.152 -0.3623  0.5458  0.2724
11539W        W11739   7.805  11.553  13.011 -0.0868  0.1080  0.1764
11540W        W11740   8.221   7.301   0.462  0.2182 -0.0322  0.0117
11541W        W11741   6.452   5.440  13.279 -0.2398 -0.1049  0.4570
11542W        W11742   8.191   0.912  15.083  0.0127 -0.3306 -0.0053
11543W        W11743  13.710   0.607   0.187 -0.1018 -0.2096 -0.0808
11544W        W11744  13.289   6.167  13.304  0.1347  0.1744  0.2274
11545W        W11745   4.538   4.656  13.839  0.1831  0.0779 -0.2007
11546W        W11746   6.794  13.390   7.174 -0.0241 -0.1143 -0.1198
11547W        W11747  14.464  12.569   5.760  0.0423  0.1435 -0.0961
11548W        W11748   8.096   7.659  14.555  0.2041  0.0903 -0.0704
11549W        W11749   3.191  15.015  10.893 -0.2394  0.1001 -0.1031
11550W        W11750   4.150   8.334   6.381 -0.0405 -0.0710  0.1348
11551W        W11751  15.076  13.336   5.788  0.0205  0.3010 -0.1591
11552W        W11752   9.495  12.589   1.493  0.1934  0.0293  0.1853
11553W        W11753   8.839  11.789  13.027 -0.2184 -0.1545  0.0361
11554W        W11754   8.154  14.842  14.496 -0.0933  0.1754  0.0751
11555W        W11755   1.803   6.633   9.169  0.2449 -0.0995  0.1507
11556W        W11756   0.468  10.801   2.388 -0.0933  0.3682 -0.1460
11557W        W11757  11.973  12.946  14.748  0.3223  0.1135 -0.0932
11558W        W11758   7.165  13.738   5.694 -0.0526  0.1948  0.1649
11559W        W11759   8.548  11.498   6.305  0.0209 -0.0690  0.0468
11560W        W11760  12.592   2.566  12.515 -0.0083  0.0917 -0.1268
11561W        W11761   5.471   1.062   8.132 -0.1251  0.0129 -0.3672
11562W        W11762   9.080  11.649   2.127  0.1006 -0.0876  0.1241
11563W        W11763  10.763  13.049   7.026  0.3710  0.1170  0.2028
11564W        W11764  12.924   4.720  12.235  0.0324  0.2595  0.0984
11565W        W11765  12.690   9.535   8.975  0.1077  0.1822  0.0433
11566W        W11766  10.262  10.490   5.558  0.0213 -0.0546 -0.1377
11567W        W11767   4.650   7.906  10.816  0.1180 -0.0105  0.1696
11568W        W11768  14.590  12.931  14.708 -0.0974 -0.2558 -0.0047
11569W        W11769   4.891  10.497  13.262 -0.1520 -0.1133  0.1318
11570W        W11770   0.261  12.605  14.276 -0.2915  0.3760  0.1000
11571W        W11771  11.357   1.841   6.454 -0.0493  0.4190 -0.0579
11572W        W11772  14.828  10.840   7.297  0.3697 -0.4186  0.1055
11573W        W11773   5.203   7.297  13.396 -0.0545 -0.1060 -0.1439
11574W        W11774   8.132  10.300   1.862 -0.0197 -0.0428 -0.1216
11575W        W11775   6.943   2.159   9.708 -0.2833 -0.2897  0.1351
11576W        W11776   5.773  11.248   8.953  0.1061 -0.0990  0.1091
11577W        W11777  13.567   6.214  14.180  0.0957 -0.1443  0.0598
11578W        W11778   6.271   3.933  14.581  0.0559  0.0034 -0.2759
11579W        W11779  14.194   8.585   3.264  0.0120 -0.0881  0.1284
11580W        W11780  13.822   8.020   5.909 -0.1347  0.1336 -0.1535
11581W        W11781   7.713   6.604  12.223 -0.1001  0.0496  0.0054
11582W        W11782   9.980   2.452  14.702  0.1475  0.1459  0.0005
11583W        W11783   4.225   3.154   0.882  0.3937 -0.3092 -0.1979
11584W        W11784   4.590   9.949   0.683  0.0656  0.2854  0.0471
11585W        W11785   2.398   7.242  14.044 -0.0545 -0.3346 -0.2017
11586W        W11786   3.266   2.928   1.235 -0.1399 -0.0870 -0.0774
11587W        W11787  14.760   7.544  10.103  0.0609  0.2690  0.0052
11588W        W11788   3.070   4.876  13.539  0.3142 -0.0179  0.0023
11589W        W11789   7.235   8.723   9.160 -0.0366  0.0583  0.0098
11590W        W11790   4.345  13.104  11.544 -0.1401 -0.0888 -0.0512
11591W        W11791   3.804  14.315  14.007 -0.1563  0.0700  0.1265
11592W        W11792   2.407  11.817  13.657 -0.0644  0.2398  0.0960
11593W        W11793   1.199   7.513  11.313 -0.0957  0.1541 -0.1584
11594W        W11794   9.029   6.810  13.277  0.1461 -0.1345  0.2814
11595W        W11795   3.963   0.457   0.874  0.2728 -0.0294  0.2484
11596W        W11796   2.578  11.255  10.586  0.2641 -0.0460  0.0890
11597W        W11797   6.113   4.686  11.346 -0.1381  0.0859 -0.0319
11598W        W11798   8.005   6.238  12.634  0.0962  0.1527 -0.1669
11599W        W11799   5.603   0.062  15.065 -0.1684 -0.2365  0.1558
11600W        W11800  14.897   2.399   7.852 -0.0037  0.3188 -0.2769
11601W        W11801   7.745   5.102  13.305  0.1714 -0.2697 -0.1315
11602W        W11802   2.145  11.244  12.993  0.1576 -0.3025 -0.3715
11603W        W11803   6.521   9.877  12.880  0.0767 -0.1253 -0.1635
11604W        W11804   2.176   4.104  11.984  0.1903  0.1392  0.2902
11605W        W11805   3.584   2.938  11.964  0.0905 -0.1836 -0.0526
11606W        W11806   1.014   9.462   2.319  0.0025 -0.1100  0.4383
11607W        W11807   7.008   4.657   2.332 -0.4590 -0.0310  0.3146
11608W        W11808  11.460  12.953   3.342 -0.0714 -0.0286  0.0022
11609W        W11809  10.907   6.689  10.480  0.1101  0.1113 -0.1995
11610W        W11810  14.530   6.546  14.425  0.0976 -0.3243 -0.1572
11611W        W11811   8.636   4.502  13.617 -0.0135  0.0771  0.0669
11612W        W11812   7.864  12.341  12.417 -0.0705  0.1151  0.1013
11613W        W11813   2.314   0.615   8.537 -0.4656 -0.0606  0.1139
11614W        W11814   0.704  11.747   7.228 -0.0832  0.2561 -0.1064
11615W        W11815   6.623   4.516   1.352  0.1126 -0.2341 -0.1320
11616W        W11816  14.808   3.970  14.936  0.0202 -0.3784  0.4799
11617W        W11817   0.153   9.286   7.164  0.1168  0.4240 -0.0910
11618W        W11818   1.051   5.703  12.224 -0.1312 -0.0580  0.0735
11619W        W11819   9.806   0.218  12.450 -0.1841 -0.0171 -0.1105
11620W        W11820   2.514   7.435   9.832 -0.1523 -0.0618  0.1153
11621W        W11821   1.594  11.736   7.792  0.0143 -0.2741 -0.0821
11622W        W11822   0.517  14.822   9.026 -0.0450 -0.0482  0.1541
11623W        W11823   3.894  14.478   4.567  0.1265 -0.1459  0.0908
11624W        W11824   6.290   9.388  13.934  0.0690 -0.3234 -0.3006
11625W        W11825   4.393   9.478  10.078 -0.1057  0.1151  0.1179
11626W        W11826   7.604   9.042   9.410 -0.2913 -0.0866 -0.0184
11627W        W11827   6.355  11.292   1.919  0.0313  0.0218 -0.2143
11628W        W11828   0.642  11.769   1.010 -0.0296 -0.0376 -0.0296
11629W        W11829   4.564  15.045   8.845  0.1240 -0.1092 -0.0891
11630W        W11830   3.067  11.522   9.928 -0.0081  0.1936  0.1516
11631W        W11831   8.035   9.989  11.003 -0.2815  0.0470  0.2096
11632W        W11832   8.628   4.930  13.314  0.5109  0.0463 -0.3315
11633W        W11833   7.865  13.745   9.403  0.0618  0.1105 -0.3832
11634W        W11834   7.212   9.416  14.908 -0.1727 -0.0156 -0.1017
11635W        W11835  12.616   1.518   9.699  0.0946  0.0070  0.2336
11636W        W11836   7.676   1.578  11.908 -0.3460  0.3602 -0.1300
11637W        W11837   5.151  10.223   8.931 -0.0542 -0.0748 -0.0257
11638W        W11838  15.162   5.910   6.097 -0.0282 -0.2719 -0.4361
11639W        W11839  13.283  13.499   6.634 -0.4985  0.0080 -0.1841
11640W        W11840   9.561   9.453   0.065  0.1208 -0.0684  0.0731
11641W        W11841   3.772  12.989   8.999  0.0731 -0.0757 -0.1033
11642W        W11842   1.165   0.324  11.789  0.1592  0.1587 -0.0369
11643W        W11843   2.027  12.257   0.068 -0.0441 -0.2647 -0.0107
11644W        W11844   3.922   7.440   2.502 -0.3349 -0.3319 -0.0319
11645W        W11845   6.080  13.789   9.284 -0.0918  0.1478  0.2677
11646W        W11846   7.060   8.345   1.357  0.2704 -0.0418 -0.0953
11647W        W11847   5.787   8.728  14.475 -0.4178  0.0465 -0.2104
11648W        W11848   6.815   8.479   8.723  0.0582 -0.0442  0.3535
11649W        W11849   0.721  11.293   8.495 -0.4213 -0.0077  0.0052
11650W        W11850  12.333   1.467   0.048  0.0344 -0.0232 -0.2852
11651W        W11851   1.228   4.396  11.365 -0.0730  0.2253 -0.1592
11652W        W11852   0.529   2.686   2.170  0.1341 -0.2797 -0.3579
11653W        W11853   8.548   1.771   9.704  0.1487 -0.0023  0.2485
11654W        W11854   4.789  11.980  11.995  0.1257  0.0602 -0.1024
11655W        W11855   5.072  12.265  12.316  0.3099 -0.1321  0.0407
11656W        W11856  10.256   9.682  14.626  0.0564  0.0464 -0.0821
11657W        W11857  15.009  13.381   3.791 -0.2776  0.0256 -0.2590
11658W        W11858   6.188   5.282   4.727  0.2290  0.0122  0.1484
11659W        W11859   4.660   5.790  11.196  0.2041 -0.0260  0.1104
11660W        W11860   5.680  13.172  10.911  0.0878  0.0496 -0.1004
11661W        W11861   3.600  13.359   0.920 -0.1133 -0.0916 -0.0805
11662W        W11862   4.093   6.276   8.824 -0.0802 -0.1952 -0.0600
11663W        W11863   0.415  11.271  13.269 -0.0778 -0.2502 -0.1105
11664W        W11864  11.749   9.406  11.857  0.0750  0.3384 -0.1629
11665W        W11865   6.599   4.595  13.236 -0.3165  0.3144 -0.0173
11666W        W11866   9.240  10.004   4.180  0.0814  0.2031  0.1821
11667W        W11867  12.154  10.071   6.109 -0.1946 -0.3440  0.0478
11668W        W11868   6.877  12.869  12.773  0.1311 -0.0096 -0.0447
11669W        W11869   1.172  14.898   6.756 -0.0651 -0.2019 -0.2418
11670W        W11870  10.901  11.211  12.947  0.1853 -0.0247  0.0219
11671W        W11871   2.936   3.251   0.008  0.0661 -0.0780 -0.0484
11672W        W11872   1.054  12.639  13.056  0.1702 -0.1266 -0.0683
11673W        W11873   2.207   8.944  14.412  0.0865 -0.2598 -0.1976
11674W        W11874   7.292   4.216   9.022 -0.2743 -0.3375 -0.0811
11675W        W11875   2.360   9.644  11.547 -0.1080 -0.0203  0.1261
11676W        W11876   5.530  10.803  11.085  0.0364  0.1422 -0.0230
11677W        W11877  11.578   2.315   6.322 -0.0493  0.0681  0.0466
11678W        W11878  13.799   5.874  14.486 -0.0343  0.1332  0.3868
11679W        W11879   0.629   1.214  11.442  0.0854 -0.3361  0.0431
11680W        W11880   8.583   6.792   2.846  0.2207  0.1982  0.0773
11681W        W11881   7.133   0.612   6.557 -0.0902  0.2116  0.0799
11682W        W11882   6.226   4.330   7.099  0.1777 -0.2049 -0.1354
11683W        W11883   0.990   8.458  14.462 -0.0871 -0.1100  0.0155
11684W        W11884   5.578  11.768  11.144 -0.1717  0.2643 -0.2633
11685W        W11885   4.235   9.644   6.093  0.1221 -0.0510  0.0477
11686W        W11886   6.526   5.875   8.348  0.2191  0.0425  0.0447
11687W        W11887  11.196   4.112   5.273 -0.0829  0.2223  0.0186
11688W        W11888   7.992   4.980  10.240  0.0532  0.0302  0.0211
11689W        W11889   2.863   8.344   8.512 -0.0772  0.1191 -0.1215
11690W        W11890   0.361  12.139  14.636 -0.3044 -0.1788  0.0600
11691W        W11891   9.198   2.275  10.094  0.0287 -0.2084 -0.0526
11692W        W11892  11.788   1.987  14.492 -0.2617  0.0219  0.2637
11693W        W11893   6.036   5.473   5.357 -0.4302 -0.0141 -0.1776
11694W        W11894   3.351   6.420   4.915  0.3196  0.0886 -0.0335
11695W        W11895   1.213   5.465   7.665 -0.0741  0.0982 -0.2971
11696W        W11896   8.720   7.396   0.149  0.2268  0.0489  0.1526
11697W        W11897   7.132   2.335  13.703 -0.2404  0.4337  0.2278
11698W        W11898  14.571  14.540   9.511 -0.0646 -0.3064 -0.2198
11699W        W11899   4.619   5.354   4.150  0.1121  0.3070  0.1099
11700W        W11900  11.012   8.949   9.801  0.1247 -0.1629 -0.0938
11701W        W11901   8.532   3.213   0.377 -0.1841  0.1508 -0.2141
11702W        W11902  13.396  11.800  12.283  0.2708 -0.1537  0.0104
11703W        W11903   4.167   7.881   5.645  0.0681 -0.0999 -0.0443
11704W        W11904   8.438   5.197   9.978 -0.0140  0.2113  0.1045
11705W        W11905   4.235   4.709   5.560  0.0587  0.2455  0.0044
11706W        W11906   7.139   5.519   3.021 -0.4122 -0.2070 -0.2634
11707W        W11907  12.865   6.676   1.013  0.0532 -0.1414 -0.4032
11708W        W11908   1.580  11.462   3.821 -0.0040  0.0724 -0.0097
11709W        W11909   2.094  15.189  10.359  0.4262 -0.1593  0.1188
11710W        W11910   7.807   3.320  13.101  0.0009  0.3077  0.0867
11711W        W11911  14.213   8.921  10.707  0.1683  0.3070 -0.0356
11712W        W11912  13.356   5.306   4.759 -0.3511  0.3250  0.2256
11713W        W11913   2.605   3.655   2.497  0.0695 -0.2240  0.1886
11714W        W11914   4.027   3.709  14.132 -0.2113 -0.0074  0.1112
11715W        W11915  14.810   5.533   0.079 -0.0819  0.2052 -0.1966
11716W        W11916   3.305   6.198   3.189  0.1298  0.1415 -0.2617
11717W        W11917   1.849   0.879   0.713  0.1654  0.1222  0.2449
11718W        W11918   4.325  14.546  12.820  0.0751  0.2537  0.1920
11719W        W11919  14.325   8.506   9.951 -0.1056 -0.3758  0.1008
11720W        W11920   7.265   1.921  14.354 -0.0365  0.0341  0.1449
11721W        W11921   9.636  14.546   0.114 -0.1098 -0.2450  0.0797
11722W        W11922   5.487   6.889   5.515  0.1821 -0.1152  0.1067
11723W        W11923   6.282   3.702   5.901 -0.1348 -0.1007 -0.0827
11724W        W11924   1.573   3.083  11.192  0.0891 -0.0478 -0.3126
11725W        W11925  12.031  11.236   2.643  0.0418  0.3047  0.1026
11726W        W11926  10.050  11.755   4.895  0.0405 -0.0690 -0.1359
11727W        W11927   5.866   5.491  11.583 -0.0438 -0.2018 -0.1634
11728W        W11928   4.092   3.465   7.463  0.1387  0.0503 -0.0301
11729W        W11929   3.138  14.247  10.405 -0.0398 -0.0266 -0.0959
11730W        W11930  12.845   9.277   2.499 -0.4948 -0.1684 -0.0579
11731W        W11931  14.189  13.929   7.920  0.1036  0.0239  0.1303
11732W        W11932  12.730   7.432  12.874 -0.0820 -0.2985 -0.1555
11733W        W11933   0.434  11.688   8.391 -0.0432 -0.1147 -0.4304
11734W        W11934   7.062  14.124   9.986  0.0293  0.0275 -0.1079
11735W        W11935   3.367   3.069  13.726  0.1337 -0.1507  0.0552
11736W        W11936   5.836   8.945  12.270  0.1689  0.0688 -0.1800
11737W        W11937   4.790  12.344  11.652 -0.2061 -0.2126  0.0066
11738W        W11938   9.750  14.350  10.853  0.1008 -0.0994  0.1308
11739W        W11939   4.432   5.933   8.708 -0.3766  0.1108  0.2226
11740W        W11940  11.748   9.926  11.494 -0.1201  0.0084  0.4174
11741W        W11941   0.850   8.626  12.875 -0.2809 -0.3235 -0.0226
11742W        W11942   1.629   0.616  15.057 -0.1034 -0.0870 -0.1564
11743W        W11943  14.668   3.513  12.359 -0.1380 -0.0112 -0.1243
11744W        W11944   2.708  10.790   4.186  0.1614  0.0489 -0.0488
11745W        W11945   7.050  11.811  13.748 -0.0060 -0.0724  0.1802
11746W        W11946   1.210  12.168   5.024  0.1619  0.0678 -0.0054
11747W        W11947   7.072  11.529  11.274 -0.1413 -0.1717  0.0580
11748W        W11948   3.006  11.842   2.533 -0.2043 -0.0233 -0.2046
11749W        W11949   4.866   8.306   3.713 -0.1549  0.1708 -0.0002
11750W        W11950   1.900   8.834  10.625 -0.0336 -0.2393  0.0547
11751W        W11951   3.869   9.390  12.078 -0.1954  0.1651  0.1253
11752W        W11952   1.125  11.588  12.267  0.0370 -0.3862 -0.0065
11753W        W11953   3.240  12.788   4.978  0.0120  0.0797 -0.2728
11754W        W11954  12.679  14.796   7.013 -0.1035  0.2560  0.0835
11755W        W11955   7.567   5.243   2.700 -0.0036  0.0115  0.1750
11756W        W11956   6.418   0.804  14.176  0.1916 -0.1195 -0.0672
11757W        W11957  11.398  13.527  14.402  0.1117  0.4084  0.3564
11758W        W11958   0.683   8.276   2.790 -0.0317 -0.2489  0.1673
11759W        W11959   4.948   7.643  12.996 -0.1199 -0.2199  0.2672
11760W        W11960  13.703  13.301  15.033 -0.0724  0.2196  0.1845
11761W        W11961   5.306   6.009  14.895 -0.1146 -0.0191  0.3255
11762W        W11962   7.907   8.853   2.751  0.0075  0.0046  0.0067
11763W        W11963  11.394   3.206  14.925  0.3930  0.1352 -0.3823
11764W        W11964   4.246  10.837   6.097 -0.2753  0.1581 -0.0382
11765W        W11965   2.835  13.843   6.447  0.3133 -0.0440 -0.2966
11766W        W11966  12.646  10.083   0.040  0.1367 -0.0862  0.1334
11767W        W11967  14.667  12.586  14.282  0.1275 -0.0270 -0.2552
11768W        W11968   3.783   6.729   8.764 -0.4223  0.1460  0.1516
11769W        W11969   3.752   7.903   2.495  0.1148 -0.0105 -0.0363
11770W        W11970   0.228   9.941   7.830 -0.1584  0.1277 -0.2385
11771W        W11971   5.642   7.425  14.565 -0.1490 -0.1243 -0.0033
11772W        W11972   9.808   8.901  14.017  0.1329  0.1859  0.2081
11773W        W11973   3.485   3.961  13.314 -0.0808 -0.1919  0.2386
11774W        W11974  10.666   4.808   1.348  0.0839 -0.0457 -0.1330
11775W        W11975  12.187  13.398   2.393 -0.0441  0.0222 -0.1657
11776W        W11976   1.102   7.192   7.338  0.0874 -0.0104 -0.0471
11777W        W11977  13.314   3.796   3.362 -0.2987 -0.0449  0.0499
11778W        W11978  10.159   1.169  10.947 -0.1558  0.0756  0.1695
11779W        W11979  10.184  10.781  12.983  0.2187  0.0754  0.2382
11780W        W11980  11.328   7.071  14.876 -0.1767  0.0492  0.2146
11781W        W11981  11.690   2.492   2.244 -0.1142 -0.0465 -0.2146
11782W        W11982  11.923  12.708   4.397 -0.2221 -0.1440  0.0723
11783W        W11983   5.782  11.541  11.550  0.3660  0.1711  0.0793
11784W        W11984   2.228   4.635  12.063 -0.3176  0.0879 -0.1230
11785W        W11985  10.967   7.203   8.930 -0.2981 -0.0638  0.1988
11786W        W11986   3.781   5.296  12.702  0.1751 -0.1319  0.0950
11787W        W11987  12.830   4.732  11.161 -0.0222  0.0800  0.0119
11788W        W11988   2.868  11.106   0.211 -0.2143  0.0783 -0.2608
11789W        W11989   4.866   2.062   0.183 -0.0916 -0.0369 -0.1148
11790W        W11990   6.760  12.563  10.648  0.0119  0.1351 -0.1596
11791W        W11991   1.235  14.032  14.945  0.0665 -0.0061  0.2269
11792W        W11992  14.665   3.869   1.195 -0.1051 -0.0885  0.0918
11793W        W11993  10.258   9.906   7.866 -0.0308 -0.1416  0.1763
11794W        W11994  13.695   8.608  12.133  0.0614  0.1103  0.0863
11795W        W11995   6.495  13.897   8.334 -0.1568 -0.2116 -0.1622
11796W        W11996   0.980  10.660   1.669  0.0623 -0.1511  0.0129
11797W        W11997   5.532   1.180  13.881 -0.0659 -0.0140  0.4061
11798W        W11998   0.196   4.130   8.582 -0.1009  0.0461 -0.0558
11799W        W11999   0.859   8.079   5.733 -0.4279  0.1540  0.2765
11800W        W12000  14.429   4.751  13.773 -0.2898 -0.1132 -0.0081
11801W        W12001  14.760   6.534   2.525  0.0735 -0.2975 -0.0613
11802W        W12002  15.031   1.710  12.404 -0.3072 -0.0092 -0.2866
11803W        W12003   6.153   4.370  12.486 -0.2754  0.1802  0.0948
11804W        W12004   6.712   5.021  10.104 -0.2975 -0.1581  0.0561
11805W        W12005   6.728   9.666   9.749  0.2345 -0.0732  0.0828
11806W        W12006   7.978   0.213  13.279 -0.0913  0.2826  0.0795
11807W        W12007   0.662   9.596  10.862 -0.3552  0.3008 -0.1396
11808W        W12008   2.590  11.308  13.443  0.4270 -0.0977 -0.1092
11809W        W12009   7.872  13.162   6.839 -0.1360  0.1136 -0.4676
11810W        W12010   7.106   8.080  13.036 -0.0787 -0.2050  0.1044
11811W        W12011   5.028   4.911  11.331 -0.0623 -0.2541  0.1316
11812W        W12012  12.380  12.525  13.127  0.3029 -0.2608 -0.0423
11813W        W12013   2.734   8.908  13.199 -0.2337 -0.1441 -0.0112
11814W        W12014  11.823   3.477  11.257  0.3690 -0.0322 -0.1748
11815W        W12015   3.887  10.921  11.984  0.1629  0.0758 -0.0666
11816W        W12016  11.001  11.258   8.485 -0.0719  0.1848 -0.0236
11817W        W12017   5.731   3.561   0.017  0.0422  0.1455  0.0242
11818W        W12018   2.009  13.587   1.065  0.0541  0.0483  0.0662
11819W        W12019   6.197   8.984   5.208 -0.0884  0.3955  0.2297
11820W        W12020   7.347  12.663   2.750 -0.1778 -0.1272  0.1844
11821W        W12021  13.523   2.335   1.100  0.0524 -0.1136  0.1046
11822W        W12022   2.105  13.992  12.754 -0.0809 -0.1173  0.2099
11823W        W12023   1.125  14.626   8.300  0.2261 -0.1005 -0.0316
11824W        W12024   8.094   3.507   4.738 -0.0701 -0.3245 -0.2786
11825W        W12025   5.932   9.125  10.923  0.1856 -0.2354  0.0903
11826W        W12026   8.713  11.394   9.808 -0.2153 -0.0769  0.1576
11827W        W12027   9.202  14.657   0.761  0.1315 -0.1979 -0.0695
11828W        W12028   6.852  14.746   9.915  0.3475 -0.0808  0.0018
11829W        W12029   2.130  14.882   1.240  0.1054 -0.1027  0.0426
11830W        W12030  13.278  11.811  11.255 -0.3446 -0.2848  0.0333
11831W        W12031   1.746  15.108  14.439  0.1602 -0.0664 -0.2231
11832W        W12032  11.150   4.023   8.506  0.0228 -0.2438 -0.0139
11833W        W12033   5.101   6.419   6.257 -0.1104 -0.1352 -0.0111
11834W        W12034   5.865  11.260   7.478 -0.1970 -0.0156  0.0568
11835W        W12035  11.514   7.665   1.605 -0.0928 -0.2429  0.0186
11836W        W12036   6.582   6.361  12.571 -0.1694 -0.1731  0.4080
11837W        W12037   4.693   3.541   3.242 -0.0178 -0.0597 -0.1418
11838W        W12038   4.408  11.691  14.105 -0.0873  0.0249 -0.1689
11839W        W12039   8.289  14.339   5.097 -0.0721  0.4588 -0.0200
11840W        W12040  10.622  15.080   8.275 -0.3172  0.0451 -0.3304
11841W        W12041   6.808  14.921  14.835  0.1685  0.1400  0.2402
11842W        W12042   4.637   1.158   3.140 -0.0639  0.1378  0.2112
11843W        W12043   5.046   6.629  11.484 -0.1867  0.0117  0.0140
11844W        W12044   6.632   7.759   1.879  0.1369  0.0554 -0.0491
11845W        W12045  10.529  13.699  10.372 -0.3323 -0.1604  0.1520
11846W        W12046  14.284   2.348   3.815 -0.0963  0.0815 -0.3575
11847W        W12047   7.772   4.706   5.005 -0.2809 -0.0094 -0.0606
11848W        W12048   3.490  11.424   4.741 -0.1792  0.0609 -0.2389
11849W        W12049   5.539  10.070  13.728  0.2188  0.0085  0.1187
11850W        W12050   9.367   2.705  14.588 -0.1589  0.0013  0.0886
11851W        W12051   1.149  13.929   6.563 -0.0144  0.1160  0.2031
11852W        W12052   5.024   0.771   8.152 -0.0497 -0.2262 -0.2330
11853W        W12053  13.266  14.943   5.408  0.0071 -0.2819  0.0581
11854W        W12054   6.481   3.932   1.235  0.3082 -0.0227 -0.0646
11855W        W12055   2.165   5.816   6.118  0.0545 -0.1825 -0.0833
11856W        W12056   0.599   2.340   7.319 -0.0789 -0.1403 -0.2492
11857W        W12057   1.594  13.059   0.066  0.0296  0.4409  0.1757
11858W        W12058  10.854   1.586   9.831 -0.2714 -0.2970 -0.2925
11859W        W12059   4.542  15.114  11.270 -0.1846 -0.0512  0.0388
11860W        W12060   1.457  14.940   8.091 -0.1610 -0.1938 -0.0426
11861W        W12061  11.691   6.459   4.567  0.2454  0.1842 -0.0778
11862W        W12062   9.590   8.944   0.152  0.0883 -0.0458  0.1777
11863W        W12063   7.897  11.077   9.859  0.2609 -0.0134 -0.0106
11864W        W12064   4.211   6.343  10.961  0.1826 -0.2778 -0.0999
11865W        W12065   9.820  10.485   3.857  0.1061  0.1623 -0.2438
11866W        W12066   4.624  10.464  11.814 -0.1299 -0.2393 -0.0443
11867W        W12067   3.449  11.603  13.220 -0.0277  0.0605  0.0552
11868W        W12068   0.355  10.796  11.551  0.0522 -0.1090  0.1846
11869W        W12069   6.823   7.696   2.368 -0.0714 -0.0119 -0.2257
11870W        W12070   2.765  12.530  12.589  0.1323  0.1582  0.4390
11871W        W12071   4.661  13.957   3.878  0.0599 -0.3031  0.0647
11872W        W12072   8.209   8.428   2.462  0.1713 -0.1074 -0.1823
11873W        W12073   3.794   7.137   1.194  0.0251 -0.0572 -0.3480
11874W        W12074   5.986   3.870  12.532  0.0344  0.2174 -0.0812
11875W        W12075   5.396  14.653   8.748 -0.1719  0.1256 -0.1777
11876W        W12076   6.801  10.684  14.150 -0.0448  0.2287  0.1774
11877W        W12077   5.106  12.381  12.881 -0.0288  0.0166  0.3929
11878W        W12078   5.672   5.495  10.910  0.2560  0.1975  0.0556
11879W        W12079  14.578   4.895  14.861  0.2331 -0.0532  0.3162
11880W        W12080   5.723   3.864   4.977 -0.0948  0.2081  0.3786
11881W        W12081   5.831   7.303   1.027 -0.2079  0.1923  0.3231
11882W        W12082  14.851   9.650  10.977  0.1600 -0.3167 -0.0905
11883W        W12083   4.611   3.410  13.709  0.2800  0.0370 -0.0131
11884W        W12084  11.877   2.258  14.906  0.0229 -0.0145  0.0754
11885W        W12085   1.510   3.759   7.323 -0.1291 -0.0279  0.2875
11886W        W12086   8.437   9.675   4.452  0.2634 -0.2391 -0.1449
11887W        W12087   1.144  11.052  14.477 -0.0972 -0.2092  0.1466
11888W        W12088   9.675   0.325   2.229 -0.1395  0.0247  0.2104
11889W        W12089   7.261  10.113   9.055 -0.2060  0.2144  0.0339
11890W        W12090   2.359  10.863  10.777 -0.3462 -0.0049 -0.0673
11891W        W12091   4.718  13.948  12.436  0.1921 -0.0503  0.1331
11892W        W12092  14.823   5.106   4.508 -0.2930 -0.0585 -0.1479
11893W        W12093  10.817   5.468  14.568 -0.5596 -0.1506  0.0974
11894W        W12094  14.593   9.817   5.931  0.0364  0.1901  0.0705
11895W        W12095   2.556   8.092   4.642  0.0807 -0.1855 -0.1064
11896W        W12096   1.392   9.505   9.566 -0.2493 -0.1901 -0.0823
11897W        W12097   6.137  10.758   0.145 -0.0060  0.0559 -0.0883
11898W        W12098   1.095   0.112   1.622  0.0534 -0.1418 -0.0821
11899W        W12099   6.205   8.034  12.109 -0.1620 -0.1475  0.4108
11900W        W12100  10.894   5.817  10.882  0.1326 -0.0562 -0.0792
11901W        W12101  10.252   0.800   0.194 -0.2742  0.0440 -0.2129
11902W        W12102   9.556   5.149   3.993  0.0891  0.2419 -0.1916
11903W        W12103   8.533   3.533   2.792 -0.2392  0.1253  0.2703
11904W        W12104   7.664   3.457   1.019  0.1616  0.1037 -0.1515
11905W        W12105   4.973   2.900  13.199  0.0044 -0.0398  0.3585
11906W        W12106   0.946   3.342   0.016 -0.1803  0.0401  0.0380
11907W        W12107   7.850   2.765  13.182 -0.2019 -0.0616  0.1819
11908W        W12108   6.914  10.015  12.054  0.2314  0.1395 -0.2304
11909W        W12109   8.877  12.096   0.133 -0.0020 -0.2575 -0.2113
11910W        W12110   4.535  13.008   0.172 -0.1183 -0.1052 -0.1481
11911W        W12111   3.101  14.907  12.832  0.0939  0.1001 -0.2247
11912W        W12112   9.183  13.928  10.521  0.1587 -0.0171  0.3250
11913W        W12113   0.736   1.911   9.663 -0.0924 -0.0793 -0.0362
11914W        W12114   0.686   2.277   6.159  0.0676 -0.2889  0.0820
11915W        W12115   5.183   9.189  12.458 -0.3253 -0.0286  0.1672
11916W        W12116   1.179  12.904  14.297 -0.1007  0.1081 -0.0368
11917W        W12117   4.646   8.959   0.974  0.0738  0.0255 -0.0270
11918W        W12118   7.480   3.443  10.508  0.1445 -0.3112 -0.0380
11919W        W12119   6.416  10.214  10.309 -0.1246 -0.2394  0.2580
11920W        W12120   1.789  11.863   2.363 -0.1513 -0.1520 -0.0772
11921W        W12121   4.678   7.510   2.451 -0.0583  0.3916 -0.0944
11922W        W12122   8.449   8.246   2.919  0.1339  0.0421  0.1535
11923W        W12123  14.965   5.976   0.254  0.1103  0.1586 -0.1729
11924W        W12124   2.649   3.653   9.001 -0.2674  0.3415  0.2577
11925W        W12125  12.012   3.124  14.782 -0.3137 -0.0886  0.0924
11926W        W12126   3.788   6.957   3.449  0.0398 -0.1610 -0.0815
11927W        W12127   3.598   8.500  14.123 -0.1016  0.1826  0.0833
11928W        W12128   6.072   1.209   1.940  0.3635  0.0506  0.2763
11929W        W12129  11.697  11.989  14.785 -0.0881 -0.4184  0.0038
11930W        W12130   9.441   4.478   0.309  0.1674  0.2779 -0.3441
11931W        W12131  15.064   0.758   8.710  0.1515  0.1566 -0.0136
11932W        W12132  10.074  10.551   5.031 -0.0185 -0.1686  0.0947
11933W        W12133   9.681   3.357  10.423  0.1030 -0.2756 -0.0747
11934W        W12134   0.747   3.148  11.625  0.3323 -0.0623  0.2141
11935W        W12135   8.998   5.883   5.764  0.1120  0.2436  0.3610
11936W        W12136   5.298   1.998   1.806  0.1238 -0.2188 -0.0107
11937W        W12137   6.010   6.559   7.778  0.1776 -0.0052  0.0957
11938W        W12138  12.553   4.367   5.259  0.4314 -0.0938 -0.1370
11939W        W12139   0.279   9.110   6.655 -0.3777 -0.1782 -0.2618
11940W        W12140   6.036   6.066   7.474  0.0068 -0.2145  0.2237
11941W        W12141  13.352  13.867   8.687  0.0669 -0.0186  0.0924
11942W        W12142   1.245   3.331  14.590  0.0818 -0.1752 -0.2372
11943W        W12143   7.714   3.576  14.545  0.3292  0.0239  0.1208
11944W        W12144   0.729  14.243  15.191 -0.1413  0.0185 -0.2887
11945W        W12145   6.395  14.043   1.784 -0.0721 -0.1516 -0.1020
11946W        W12146  11.026  11.294   3.616  0.0258 -0.0648  0.1169
11947W        W12147   1.803   6.568  13.603 -0.1840 -0.0413  0.2975
11948W        W12148   7.530   9.638   0.396 -0.0514 -0.0300  0.4466
11949W        W12149   8.092   6.066  10.066 -0.4298 -0.0305  0.1207
11950W        W12150   4.349   0.721  12.837  0.0635 -0.2883 -0.2454
11951W        W12151  11.455  11.531   3.754 -0.3659 -0.0334  0.1915
11952W        W12152   7.074   6.263  14.242 -0.1650 -0.0364 -0.0885
11953W        W12153   6.688   8.760   4.147 -0.3703  0.2136  0.1082
11954W        W12154   6.403   6.294  14.670  0.0416  0.3966  0.3656
11955W        W12155   6.898   2.389  14.679 -0.2003  0.2530  0.0372
11956W        W12156  11.062   7.374   0.949 -0.2016 -0.1003  0.0332
11957W        W12157   5.148   5.340   0.771 -0.1787 -0.2317 -0.1140
11958W        W12158  11.824   8.559   0.140  0.1986 -0.0040  0.1651
11959W        W12159  11.978  13.941  10.858  0.1237 -0.3174  0.0132
11960W        W12160  11.206  13.656   8.441 -0.0952  0.3465  0.0955
11961W        W12161  14.845   7.766   1.756 -0.0393 -0.0754  0.0925
11962W        W12162  15.100   8.568   2.259 -0.0132  0.1169  0.4555
11963W        W12163   1.457   8.508  10.450  0.2532 -0.1444  0.0722
11964W        W12164   5.625   6.116  14.482  0.0988  0.2165  0.4208
11965W        W12165   5.444   7.204   2.562 -0.1841 -0.4360 -0.0637
11966W        W12166   2.904   9.636   0.255 -0.0365 -0.1968  0.2667
11967W        W12167   5.378   9.341   0.757 -0.1254 -0.1333  0.1993
11968W        W12168   8.779  10.608   6.121 -0.2595  0.1173  0.1433
11969W        W12169   1.084   0.056  13.585 -0.1788 -0.0211 -0.0608
11970W        W12170   8.051   4.780  14.810 -0.0144 -0.0386 -0.0592
11971W        W12171   2.414  10.255   9.255 -0.0921  0.1822 -0.1835
11972W        W12172  10.387   2.001   0.670 -0.2924  0.4165  0.1020
11973W        W12173   3.692   3.330  14.140  0.0794 -0.3127 -0.0093
11974W        W12174   3.884  10.639  15.000  0.2724 -0.0869 -0.0980
11975W        W12175   6.154   2.442   4.998  0.3188  0.0377 -0.0087
11976W        W12176   9.949   5.030  12.038  0.0096 -0.1563 -0.1964
11977W        W12177   5.615   3.975  10.712  0.4211 -0.1681 -0.1630
11978W        W12178   7.862  12.740   2.695  0.0120 -0.2589  0.1248
11979W        W12179  14.837  11.287   5.893  0.1795  0.0218  0.1582
11980W        W12180   5.410   6.802   2.899  0.0541  0.0950  0.0794
11981W        W12181   5.415   8.457   1.906 -0.1015 -0.0545 -0.0922
11982W        W12182   2.689  10.327   7.798  0.1854  0.2478 -0.1690
11983W        W12183   7.668   5.938   0.304 -0.2561 -0.1529 -0.1545
11984W        W12184  10.894   7.453  11.702 -0.2413  0.0923  0.1987
11985W        W12185  13.865  14.348   3.125 -0.0673  0.0680  0.1724
11986W        W12186   8.400   5.058   4.517  0.2358  0.0066  0.1510
11987W        W12187   4.386  13.812   1.534 -0.2623 -0.1080  0.0606
11988W        W12188  13.303  11.658  11.739 -0.0543  0.1916 -0.0382
11989W        W12189   5.741   5.268  10.412 -0.2173 -0.1413 -0.2951
11990W        W12190   0.507  11.948   0.384  0.3482  0.2843 -0.0225
11991W        W12191   1.353  10.204   1.704  0.3313 -0.0572  0.2689
11992W        W12192  11.329   1.814  14.364  0.0487 -0.1771  0.1292
11993W        W12193  11.885   8.254   0.588  0.2495  0.4162  0.0961
11994W        W12194   9.040  14.585  14.505 -0.1142  0.1468 -0.1100
11995W        W12195   8.568   8.518   4.268 -0.0349 -0.0173  0.0054
11996W        W12196   6.155   8.238   0.340 -0.3925 -0.0451 -0.2526
11997W        W12197   0.863   1.513   6.332  0.0052  0.1211  0.1122
11998W        W12198   3.373   4.762   4.238 -0.1512 -0.0871  0.1744
11999W        W12199   3.319   6.642   2.077  0.0021 -0.2113 -0.1834
12000W        W12200   8.070  10.918   2.068  0.2555  0.2144  0.0876
12001W        W12201  11.543   6.250  10.241  0.0472  0.0339 -0.0185
12002W        W12202   6.973   4.133  12.168 -0.2910 -0.0565  0.1750
12003W        W12203   0.338   8.536   1.898  0.1444  0.0116  0.0828
12004W        W12204   7.459  10.118   0.283 -0.1262  0.1872  0.2397
12005W        W12205  14.120  13.068   8.360 -0.1224 -0.0409  0.0159
12006W        W12206   6.665  15.091  13.323 -0.1557  0.2283  0.4204
12007W        W12207   3.778  11.564  12.802  0.3531  0.0386  0.0269
12008W        W12208   7.880   1.163   2.971 -0.2041 -0.0493 -0.0725
12009W        W12209   6.839   9.777  14.731  0.0914 -0.1294  0.0687
12010W        W12210   0.850   9.383   1.859  0.2189 -0.3483 -0.0968
12011W        W12211  12.961  14.798  12.825 -0.0719  0.3082 -0.1933
12012W        W12212   8.607  13.704   0.054 -0.1242 -0.2455 -0.0817
12013W        W12213   6.724   4.560  13.709  0.0211 -0.0062  0.0847
12014W        W12214   5.990   1.455   5.237  0.1615 -0.2879  0.4337
12015W        W12215   7.978  12.153  12.930 -0.0507 -0.1041  0.1371
12016W        W12216   3.187   7.416   0.775  0.1069 -0.0405 -0.1498
12017W        W12217   4.091  13.440   1.633 -0.0879 -0.0601  0.0391
12018W        W12218   9.335   0.126   4.196 -0.2389  0.1333 -0.4209
12019W        W12219   5.758   2.473   1.676  0.1738 -0.0238 -0.0085
12020W        W12220   4.209  11.274  10.265 -0.4499 -0.0587 -0.0554
12021W        W12221  13.390   0.665  14.646 -0.0512 -0.1868 -0.1104
12022W        W12222   1.566   0.156   1.697 -0.1706  0.0152  0.0768
12023W        W12223   0.288  12.977   9.006 -0.1114  0.0668  0.0262
12024W        W12224  11.500   0.371   6.296 -0.1333  0.1348  0.0624
12025W        W12225   1.854   8.705   1.567 -0.0294  0.2404 -0.0663
12026W        W12226   9.113  12.176  12.305  0.0443 -0.1344 -0.2577
12027W        W12227  13.501   6.910   9.092 -0.0031  0.1640 -0.0969
12028W        W12228   6.753   2.572   2.630 -0.3475  0.1672 -0.1479
12029W        W12229   1.239   3.550   6.463 -0.0641  0.0436 -0.1605
12030W        W12230   5.524  13.986  12.868  0.0201  0.4131  0.1811
12031W        W12231   5.325   7.711   9.764 -0.0083 -0.2009 -0.1651
12032W        W12232   7.639  12.786   8.187 -0.2017 -0.0942  0.1903
12033W        W12233   5.670   8.240   2.704 -0.1390 -0.0174 -0.1519
12034W        W12234   2.494   7.501   2.871 -0.1734  0.1449 -0.0286
12035W        W12235  14.341  11.682   7.718  0.0448 -0.0960  0.1766
12036W        W12236  13.226   4.604  13.542 -0.1552  0.0670 -0.0376
12037W        W12237   9.201  13.495   3.469 -0.1711 -0.2514 -0.2636
12038W        W12238   8.109  12.022  14.705 -0.1032 -0.0684  0.0252
12039W        W12239   2.940  14.243  11.260  0.2018 -0.1406 -0.0790
12040W        W12240   5.369   0.382   2.807 -0.3221 -0.0644  0.2175
12041W        W12241   3.283  14.722   9.640  0.0271  0.1271 -0.0203
12042W        W12242  13.764   5.387   0.054 -0.1175  0.2856  0.2088
12043W        W12243   4.342  14.252   4.643  0.1617  0.0778  0.3703
12044W        W12244  13.733  12.292   0.749  0.2331  0.1815  0.1012
12045W        W12245   6.462  11.278  12.208  0.1408  0.0676 -0.0101
12046W        W12246  10.167  12.572   1.358 -0.1483 -0.1014  0.2997
12047W        W12247  12.449   3.512   0.418 -0.2401 -0.3207  0.3408
12048W        W12248  11.339   2.163  14.752  0.1792 -0.1511  0.1206
12049W        W12249   2.304   6.263   4.046  0.0171 -0.3042  0.3472
12050W        W12250   5.384   0.396  10.355 -0.2057  0.0101 -0.1112
12051W        W12251  12.252  11.713  14.149 -0.1051 -0.0330  0.2980
12052W        W12252   4.967   3.590   9.029 -0.0711  0.0848 -0.2315
12053W        W12253  13.887   3.398  10.069  0.0807  0.0606  0.1673
12054W        W12254   8.781  10.808   6.766 -0.0549  0.1425 -0.0759
12055W        W12255   7.737  10.710   4.086 -0.1806 -0.2447  0.0438
12056W        W12256   4.552  14.303   5.384 -0.2528 -0.0157  0.0724
12057W        W12257   8.955  10.577  13.281 -0.0871 -0.0391  0.0414
12058W        W12258   8.463  11.002   1.528 -0.1629 -0.1031  0.3975
12059W        W12259   1.586   4.688   0.516  0.0691  0.0189  0.2452
12060W        W12260   2.693   8.903   2.712  0.0888 -0.0960 -0.0214
12061W        W12261   2.499   6.271  14.876 -0.0557 -0.1657 -0.3702
12062W        W12262  11.125  11.071   1.480 -0.1773 -0.2830  0.2429
12063W        W12263   4.983  11.540   3.184  0.6381 -0.1368  0.0320
12064W        W12264  13.519  14.184   2.814  0.0249  0.0184  0.1273
12065W        W12265   6.435  10.832   7.012  0.2392  0.0773  0.3181
12066W        W12266   3.200   0.296  11.069  0.1231  0.1920 -0.1410
12067W        W12267   3.911  15.080  14.449 -0.1195  0.2671  0.1085
12068W        W12268   7.271   9.212  11.866 -0.0466 -0.2280  0.0267
12069W        W12269   4.829   5.609   0.072 -0.0976 -0.0982  0.1259
12070W        W12270   8.512  14.768   2.316 -0.1864  0.2506 -0.0571
12071W        W12271   3.057   8.701   2.376  0.1804 -0.1935  0.3131
12072W        W12272   8.802   5.989  14.675 -0.1840  0.0256  0.0202
12073W        W12273   4.097   1.876   3.116  0.2373 -0.1858  0.1778
12074W        W12274  12.608  10.551  14.776 -0.0453  0.1206  0.0097
12075W        W12275   1.047   0.669   1.826 -0.1809 -0.2942 -0.0865
12076W        W12276   3.234  10.590   1.926 -0.1332 -0.0091  0.1982
12077W        W12277  14.195  11.699   8.987  0.0614  0.2307 -0.0921
12078W        W12278   6.592  12.595  13.867  0.1859  0.0632 -0.0215
12079W        W12279   6.680   8.838  14.231  0.1444  0.0656 -0.2285
12080W        W12280  10.089  11.486   6.010 -0.2166  0.1985 -0.5665
12081W        W12281  12.444  13.090   3.652  0.1989  0.2107  0.1420
12082W        W12282  15.126  10.951   3.457  0.0085  0.2903  0.2294
12083W        W12283  14.808  13.944   3.677  0.1713  0.1046  0.2608
12084W        W12284   2.504  14.732   8.017  0.2717 -0.0571  0.1118
12085W        W12285   0.650  13.641  10.640 -0.0773 -0.2801  0.1211
12086W        W12286   7.669   0.007  10.768  0.0860  0.1445  0.0530
12087W        W12287   5.776  12.932   3.464  0.1677 -0.1176  0.3229
12088W        W12288   5.743   4.722   0.359 -0.1824 -0.3538  0.1425
12089W        W12289   9.410  11.088  10.812  0.1150 -0.1895 -0.0299
12090W        W12290   1.889  14.524  10.431 -0.1127  0.1029 -0.2298
12091W        W12291   4.697   5.438   6.226 -0.0547  0.1381 -0.0514
12092W        W12292  13.833   8.254   0.343 -0.2542 -0.0050 -0.2627
12093W        W12293   1.323  12.814  13.442  0.0855  0.2039  0.2896
12094W        W12294   7.672   9.413  13.405  0.0754 -0.1375 -0.2435
12095W        W12295   3.674  10.020   1.145 -0.1192 -0.0100  0.1315
12096W        W12296  14.062  10.342  13.179  0.0170 -0.2132 -0.0055
12097W        W12297   8.125  10.496  14.966 -0.0287 -0.0494  0.0090
12098W        W12298  11.226  12.964  12.839  0.1175 -0.1131 -0.0447
12099W        W12299   7.422   4.274   0.931 -0.2292  0.0900  0.2851
12100W        W12300   4.445   9.586  14.935 -0.0886  0.1102 -0.1601
12101W        W12301   4.569   4.615   4.907 -0.0603  0.2969 -0.3041
12102W        W12302  10.671   0.856   0.467  0.0894 -0.4073 -0.0925
12103W        W12303  13.676   3.651  12.391  0.0427  0.0919 -0.0125
12104W        W12304  13.463   1.372   2.853  0.0978 -0.0521  0.0829
12105W        W12305   3.972   8.055   7.595  0.2281 -0.2104  0.2117
12106W        W12306   1.261   6.817  14.089  0.0792 -0.1478  0.1781
12107W        W12307  13.495  10.821  14.767  0.0003  0.4128 -0.0662
12108W        W12308   5.833  12.945   5.104 -0.2037 -0.0966  0.2378
12109W        W12309  11.459   6.756   2.758 -0.0104 -0.1714  0.1513
12110W        W12310   8.309   8.182   6.498  0.1424 -0.2266  0.2886
12111W        W12311  12.601   3.073   7.210  0.2226 -0.1579  0.1473
12112W        W12312   3.645   9.022   3.773  0.2734  0.2109 -0.0693
12113W        W12313   4.828   4.051   1.923 -0.1843  0.0540 -0.2554
12114W        W12314  13.056   6.446  12.524  0.1013  0.1972 -0.2305
12115W        W12315  14.942  10.579   4.383 -0.0890  0.1615 -0.1908
12116W        W12316   3.525   6.163  14.196 -0.1448  0.1460  0.1345
12117W        W12317  11.872   3.632   2.197 -0.1682  0.0242 -0.2451
12118W        W12318   5.153  12.354   5.672  0.1115 -0.1969  0.0328
12119W        W12319  10.816   2.931   9.694 -0.5864  0.0368 -0.0328
12120W        W12320   3.502  11.385   2.993  0.3140  0.1015  0.1593
12121W        W12321   7.406   8.275   8.032 -0.1029 -0.3014 -0.0604
12122W        W12322   0.201   1.954   5.809  0.0314  0.1431  0.2211
12123W        W12323   8.062   9.179  15.035 -0.1215  0.0227  0.2268
12124W        W12324   8.972   5.029   2.558  0.0490 -0.0400  0.2190
12125W        W12325   7.269   9.734  13.240  0.1138 -0.0923  0.1055
12126W        W12326   6.562   8.637   2.730 -0.0454  0.1537 -0.0445
12127W        W12327   4.656  14.590  14.645  0.0770  0.2983 -0.1628
12128W        W12328  14.585   3.781   5.922  0.1546 -0.0880  0.2103
12129W        W12329   5.016  10.166   0.912 -0.2403 -0.0817  0.1128
12130W        W12330   6.448   1.166   3.223  0.0237  0.0592  0.0320
12131W        W12331   6.238  12.924  11.555  0.1705  0.0348 -0.1002
12132W        W12332   4.516   6.898  13.082 -0.0244 -0.1948  0.0215
12133W        W12333   0.045   8.914  12.154  0.3663  0.0362  0.1032
12134W        W12334   9.101   6.174   8.659 -0.2176 -0.3337 -0.0165
12135W        W12335  11.543   7.902   0.662 -0.0033 -0.0313  0.0193
12136W        W12336   7.873   5.616   6.018 -0.1814  0.1110 -0.0546
12137W        W12337  13.873  13.444   2.019 -0.2118 -0.1089  0.1749
12138W        W12338  15.058  11.787   0.260 -0.0676  0.2772 -0.0633
12139W        W12339   7.438   7.354   5.142  0.1839  0.1526 -0.0943
12140W        W12340   3.791   0.426   8.203 -0.3731  0.0730 -0.0197
12141W        W12341  13.644   3.496   9.035  0.2274 -0.2851 -0.2233
12142W        W12342   9.308  15.191  11.656 -0.2350 -0.2582 -0.2598
12143W        W12343   1.793   1.650   1.225  0.0069  0.0943  0.1227
12144W        W12344   8.563   9.877   7.945 -0.0467 -0.1762 -0.1441
12145W        W12345   6.025  10.417   3.102  0.0385  0.1420 -0.3401
12146W        W12346  14.427  10.857   1.678  0.0648 -0.3246  0.0097
12147W        W12347   2.541   1.484   5.498  0.0723 -0.2277 -0.1417
12148W        W12348   7.806   8.105  13.074  0.0910 -0.0681  0.0984
12149W        W12349   3.230   2.113   4.612  0.1319 -0.1147  0.3246
12150W        W12350  10.273   8.839   2.362 -0.1801 -0.2210  0.0121
12151W        W12351   4.039   5.606  10.292 -0.3205  0.1337  0.0803
12152W        W12352   8.050   3.956   3.435  0.1280  0.2880  0.1277
12153W        W12353   1.545  12.346   6.267  0.0194 -0.0300  0.2963
12154W        W12354   4.135   8.731  10.152 -0.0061 -0.1420 -0.1112
12155W        W12355   1.974  12.955  12.765 -0.3152 -0.2169  0.1856
12156W        W12356  15.083   6.211   3.304 -0.1100 -0.0632  0.2219
12157W        W12357  12.834   2.152   8.292 -0.2023  0.2258  0.1330
12158W        W12358   0.315   2.782   0.197 -0.0619  0.2062  0.3333
12159W        W12359  13.585   0.416   1.801 -0.1411  0.0955  0.0116
12160W        W12360   8.372   4.932   7.316 -0.1183 -0.1922  0.2282
12161W        W12361   3.924   2.712   2.159 -0.1224  0.2435  0.0511
12162W        W12362  10.860   7.704   9.701 -0.2208 -0.1954 -0.0415
12163W        W12363   8.346   0.455   0.699  0.1758 -0.1113 -0.0211
12164W        W12364   7.296   3.694  12.084 -0.0704  0.0755  0.1273
12165W        W12365   4.569  10.406   4.306 -0.0779 -0.0380 -0.4415
12166W        W12366   6.520   0.173   5.596  0.1471 -0.1919  0.4371
12167W        W12367   9.330   6.552  13.019 -0.1352  0.0583 -0.0200
12168W        W12368   7.042  13.652   8.381 -0.1028 -0.1791  0.0853
12169W        W12369   8.463  14.378   8.919  0.2567 -0.1669  0.0360
12170W        W12370   8.436   9.357   5.709  0.1249 -0.0273  0.1778
12171W        W12371   4.669  12.112   1.354 -0.1411  0.3083 -0.0654
12172W        W12372   7.482   8.456  13.382  0.1999 -0.1210 -0.2810
12173W        W12373  12.877  10.911   9.125 -0.1555  0.0623  0.0604
12174W        W12374   7.014   6.737   9.611  0.3491 -0.2027  0.0552
12175W        W12375   5.399  11.243  13.994  0.0517  0.2898  0.2202
12176W        W12376   2.826   3.787   9.424 -0.1121  0.0492  0.3014
12177W        W12377   5.551  12.109   3.789  0.2968 -0.0673 -0.1766
12178W        W12378   4.494  14.879  13.689 -0.2995 -0.1330  0.0870
12179W        W12379   3.426   9.855   9.693  0.0330  0.1883 -0.2012
12180W        W12380  12.139   1.190   3.169 -0.4106 -0.1769  0.0137
12181W        W12381   6.970  12.136  12.533 -0.0088 -0.1412  0.2234
12182W        W12382  11.538   9.519   6.919  0.1676  0.0081  0.2753
12183W        W12383  11.732  10.240   3.637 -0.3781  0.1258 -0.0803
12184W        W12384   2.102   9.340   1.002  0.2778 -0.1021 -0.1271
12185W        W12385  14.002   9.689   1.773 -0.0693  0.1721  0.0409
12186W        W12386  11.156   9.656  12.740  0.0437 -0.2058  0.2360
12187W        W12387  10.103   7.256  10.611 -0.1229 -0.0941  0.0871
12188W        W12388  13.446  10.814  12.830  0.0962  0.0863 -0.1329
12189W        W12389   8.861   4.125   0.730  0.2257  0.1377  0.2477
12190W        W12390   7.687   6.424   8.558  0.0533 -0.1787 -0.2458
12191W        W12391  13.475   6.817   8.596  0.3903 -0.1210 -0.0585
12192W        W12392   8.117  14.748   2.608 -0.0059  0.0069  0.0022
12193W        W12393   0.101   0.197   0.793 -0.2113  0.1167  0.1027
12194W        W12394   6.176  12.597   0.319  0.1024 -0.3075  0.2950
12195W        W12395  13.238   1.742   2.017  0.0532  0.0761  0.1566
12196W        W12396   4.758   9.371   6.497  0.1771  0.1229  0.1286
12197W        W12397  14.099   3.811   3.827 -0.1498 -0.1231 -0.1136
12198W        W12398   8.650   2.068   2.266 -0.0980  0.1754  0.2355
12199W        W12399  14.984  10.011   2.379  0.4679 -0.1226 -0.0814
12200W        W12400   6.624  12.541  11.540  0.0660 -0.0705 -0.0254
12201W        W12401   1.748  14.677   1.500  0.2127 -0.1663  0.0723
12202W        W12402  14.171  14.894   4.713 -0.0355  0.1362 -0.0278
12203W        W12403   2.063   4.200  14.572  0.0845  0.2274 -0.1207
12204W        W12404   9.729  10.931   1.244  0.1114  0.0258 -0.0509
12205W        W12405   7.337   4.215   5.708 -0.3092 -0.0245  0.2175
12206W        W12406  10.246   4.823   9.746  0.1537  0.3058  0.0640
12207W        W12407   8.262   3.677   0.608 -0.1452 -0.0419  0.2163
12208W        W12408   7.839   3.174   5.051 -0.2663  0.0071  0.1049
12209W        W12409   4.170  11.836   5.404  0.2276 -0.1735 -0.2710
12210W        W12410  14.361   1.025   5.408  0.3370 -0.2053  0.0957
12211W        W12411   0.012   8.484  12.870 -0.2804  0.0038  0.2422
12212W        W12412   8.872   0.123   1.043 -0.1217  0.0198  0.1667
12213W        W12413   4.566  10.414   0.902 -0.1263 -0.0667 -0.1637
12214W        W12414  14.398  12.562  15.144 -0.0282  0.1312  0.1335
12215W        W12415   4.216  14.534   8.095  0.0116  0.2241  0.0870
12216W        W12416  14.454   2.533   1.500  0.0623  0.1519  0.1794
12217W        W12417  12.563  12.481   0.125 -0.1307 -0.0658  0.3712
12218W        W12418   9.417  12.134  10.811  0.1939  0.1020 -0.1289
12219W        W12419   9.435  12.794  11.423  0.1501 -0.2106  0.2984
12220W        W12420  13.947  10.221   9.208  0.0728 -0.0331 -0.0582
12221W        W12421   5.708   2.465   3.213  0.0288  0.1223  0.0343
12222W        W12422  15.032  10.615   2.569  0.0053 -0.5011  0.1965
12223W        W12423   0.398   8.645   4.062 -0.1939  0.3410  0.1044
12224W        W12424   0.307   6.361  10.499  0.1504 -0.2836  0.1995
12225W        W12425   6.897   8.482   6.328  0.1424  0.2596  0.0624
12226W        W12426   0.180   9.763  11.172  0.1433  0.1380  0.1215
12227W        W12427  12.092   1.421   2.738 -0.1402  0.0356 -0.0014
12228W        W12428   9.598  10.135   5.693 -0.1520 -0.0991 -0.1385
12229W        W12429   1.115  11.530  14.553  0.1804  0.1139  0.0045
12230W        W12430   4.130   4.757   0.429 -0.1807 -0.2900 -0.1065
12231W        W12431   0.728   9.931   0.650 -0.1209 -0.0403  0.0899
12232W        W12432   6.313   8.250   3.417 -0.1266  0.0143 -0.1706
12233W        W12433   0.691   8.949   6.928  0.0468 -0.0872 -0.0649
12234W        W12434   8.592   7.445   2.346  0.0185  0.3189  0.2736
12235W        W12435   5.505   4.275   7.301  0.0004  0.1246 -0.0036
12236W        W12436  14.889  10.675  13.438 -0.1598 -0.0660  0.1097
12237W        W12437   5.690   8.506  12.480 -0.0354 -0.1149 -0.0978
12238W        W12438   8.830  12.507   7.745  0.1288  0.0057 -0.2890
12239W        W12439   5.963   0.080  14.666 -0.1865 -0.0084 -0.0241
12240W        W12440   8.913   9.487   5.725  0.1524 -0.0675 -0.0096
12241W        W12441   7.326   1.474   7.841 -0.1120 -0.1196  0.0227
12242W        W12442   7.797   2.615   6.810  0.2530 -0.0132  0.1569
12243W        W12443   5.403   6.860   6.271  0.1207 -0.0471 -0.2533
12244W        W12444   8.517  14.100   5.983 -0.0827 -0.0115  0.0644
12245W        W12445  11.519   1.083   1.991  0.3085 -0.3610  0.0614
12246W        W12446  11.109   6.488   2.975  0.1290  0.0343  0.1024
12247W        W12447   7.735   8.956   4.523  0.2991  0.0220 -0.0971
12248W        W12448   6.574  10.591  14.590  0.2395  0.1775 -0.0914
12249W        W12449   2.591   3.933  13.062 -0.1977  0.0052  0.0045
12250W        W12450   9.630  11.805   3.810 -0.0525  0.1440 -0.1822
12251W        W12451   8.417   9.420   9.597  0.0892 -0.3439 -0.3699
12252W        W12452   9.262  11.491   6.381  0.0699  0.0235  0.3946
12253W        W12453   7.507   3.536   0.344  0.0197  0.1277 -0.0111
12254W        W12454  10.810   9.894   7.744 -0.0609  0.2957  0.3109
12255W        W12455   3.697   4.054   0.746 -0.0046  0.4405 -0.0049
12256W        W12456  15.017   0.692   2.322 -0.3131  0.3568  0.3248
12257W        W12457  13.346  13.145   1.751 -0.2544 -0.2416  0.0432
12258W        W12458  11.375   5.478   1.838 -0.0524 -0.0967  0.0176
12259W        W12459   6.038   2.157   6.901  0.0255  0.0721  0.0966
12260W        W12460   9.775   5.882   4.424  0.3705  0.0629  0.2821
12261W        W12461   1.875   4.295   8.136  0.1525  0.3223 -0.1399
12262W        W12462  10.551   0.166  13.104 -0.1073 -0.0388  0.3108
12263W        W12463   2.469   5.186   6.722 -0.2748 -0.2346  0.0713
12264W        W12464   4.515   8.541   6.895 -0.1204  0.2828 -0.0226
12265W        W12465   7.164   9.720   9.976 -0.0431 -0.0738  0.1323
12266W        W12466  12.983   7.415   2.752 -0.2128 -0.1141 -0.0216
12267W        W12467   1.844   0.565   3.162  0.0741  0.0570  0.1070
12268W        W12468   6.807   8.367  11.435  0.1675 -0.2581  0.1157
12269W        W12469  14.070  10.566   8.297 -0.2143  0.1505  0.2127
12270W        W12470  13.152   6.498   1.733 -0.3120 -0.3386 -0.1850
12271W        W12471  15.038   4.455   4.769 -0.1951 -0.0706 -0.2257
12272W        W12472   0.417  10.679   5.564 -0.0169  0.0177 -0.2587
12273W        W12473  13.424  12.192  11.006  0.1369 -0.0565 -0.0685
12274W        W12474  10.670   3.264   6.903 -0.2975 -0.0399 -0.0243
12275W        W12475   0.098  14.858  13.050 -0.0495 -0.2341 -0.0382
12276W        W12476  10.986  10.647   4.850  0.6632  0.0060  0.0512
12277W        W12477   6.699   9.181   3.327  0.0645  0.0281 -0.1968
12278W        W12478   5.815   0.282   5.447  0.1173  0.0584 -0.1841
12279W        W12479  10.496   8.009  13.051  0.0276 -0.1605  0.0373
12280W        W12480   4.413  14.030   1.089  0.1499  0.2223  0.5393
12281W        W12481   7.960  14.780   5.882 -0.3215  0.1524 -0.0038
12282W        W12482   3.469  13.630  13.533  0.1662  0.1122 -0.2763
12283W        W12483   7.271   7.959   2.646 -0.0885 -0.1073  0.1926
12284W        W12484  11.237  10.500   8.361  0.2020  0.0126  0.0194
12285W        W12485   5.608   5.832   2.575 -0.0668 -0.0574 -0.1601
12286W        W12486   1.961   4.399   5.859  0.2224 -0.1230  0.0793
12287W        W12487   7.161   0.734  10.635 -0.2287  0.0258 -0.4153
12288W        W12488   8.128   2.512  12.053  0.2219 -0.4353  0.1219
12289W        W12489   3.437   5.110   3.471 -0.0150 -0.0595  0.0699
12290W        W12490   0.231   0.183  11.526  0.1006  0.0958 -0.1098
12291W        W12491  11.306  11.957   4.134 -0.1144  0.0596 -0.0885
12292W        W12492  13.122  10.629  14.058  0.2545 -0.0191 -0.0826
12293W        W12493   1.549   5.037   7.012  0.0687 -0.1464 -0.2711
12294W        W12494  12.873  10.823  13.113 -0.3646 -0.0048  0.0585
12295W        W12495   7.975   7.310  14.178  0.6059  0.0179  0.0646
12296W        W12496   5.118   1.286   9.273 -0.1950 -0.2301 -0.0479
12297W        W12497   3.379   5.204   4.506 -0.3352  0.3253  0.3747
12298W        W12498   7.473   7.409   3.958  0.0609  0.0326  0.0805
12299W        W12499  11.646  14.623   5.221 -0.0779  0.0545  0.0214
12300W        W12500   4.825   4.690   8.830  0.1404 -0.0864  0.1828
12301W        W12501   1.680  13.957  13.010  0.0978  0.1476  0.0792
12302W        W12502  14.230  14.780   9.937  0.0065  0.1744 -0.2186
12303W        W12503  11.944   9.420  12.383 -0.0427  0.1074  0.2059
12304W        W12504   9.071   7.628  14.936 -0.3192 -0.0951 -0.1718
12305W        W12505   0.007  13.511   0.666  0.2240 -0.0134 -0.0973
12306W        W12506  10.104  13.780   9.243 -0.1825  0.0508  0.2565
12307W        W12507  13.325  11.247   6.718  0.3201 -0.3259 -0.2273
12308W        W12508   2.545  15.019   4.958  0.2905 -0.2298  0.2454
12309W        W12509  11.881   8.287  14.889  0.1739 -0.1731 -0.1804
12310W        W12510   2.584   1.615   5.961  0.2144 -0.1402  0.1202
12311W        W12511   8.542  10.824  13.148  0.0924 -0.1776  0.2888
12312W        W12512  13.802   2.387   5.101 -0.0267 -0.0364  0.0104
12313W        W12513   6.541  13.662   2.078 -0.3946  0.0183  0.3154
12314W        W12514   3.440  10.747  12.579 -0.1594 -0.0451  0.3697
12315W        W12515   7.446   5.933   1.515  0.1495 -0.1974  0.0829
12316W        W12516   5.309  11.190  15.085 -0.5627  0.2429 -0.4161
12317W        W12517   6.428   5.751  14.324 -0.1346 -0.0706 -0.2818
12318W        W12518   7.374   3.168   0.658 -0.0388 -0.0232 -0.0796
12319W        W12519  10.469  13.692  14.650 -0.0265 -0.1551 -0.1117
12320W        W12520   2.425   9.332   4.482  0.0233  0.0157  0.1332
12321W        W12521   4.678  14.403  12.487  0.1965  0.3183  0.0726
12322W        W12522  13.576   5.902   3.647  0.1389  0.1930 -0.0199
12323W        W12523   8.448   9.008   4.401 -0.3358 -0.0040  0.0159
12324W        W12524   7.582   0.357   7.229  0.2193  0.0116  0.0557
12325W        W12525   0.926   8.452  10.627  0.5235  0.1532 -0.2811
12326W        W12526   1.162   6.745  11.680  0.2067 -0.0311  0.1727
12327W        W12527   1.207   4.710  14.358  0.1159  0.3074 -0.2611
12328W        W12528  15.008   1.114   1.669  0.1013  0.3958  0.0244
12329W        W12529   3.648   1.940   0.491  0.2827 -0.0802  0.3802
12330W        W12530   4.712   4.375   6.234  0.2943  0.2563 -0.2871
12331W        W12531   4.239   9.470   1.821 -0.2871  0.1085  0.2020
12332W        W12532   2.575   6.441   3.096  0.0876  0.0798 -0.3793
12333W        W12533   5.719   0.012  10.179  0.1647  0.2395  0.0910
12334W        W12534   2.286   3.867   5.146  0.1151  0.1811 -0.0881
12335W        W12535   9.311   9.501   7.497  0.0127 -0.1782 -0.0182
12336W        W12536   8.719  14.904   4.270  0.1427 -0.1100 -0.0069
12337W        W12537   5.129   7.466   6.452 -0.1004 -0.0927 -0.0832
12338W        W12538   2.164  12.694   8.630 -0.1881  0.4291 -0.1217
12339W        W12539  14.470   5.534   0.483 -0.0382 -0.0076 -0.2734
12340W        W12540  10.264   5.993   5.525  0.0665  0.0589 -0.0036
12341W        W12541  10.401  14.870  14.651 -0.1614 -0.0086 -0.1405
12342W        W12542  12.958  11.379   1.677 -0.0749 -0.2023  0.2560
12343W        W12543  14.280   2.121  14.360 -0.1986  0.1717  0.2877
12344W        W12544  14.142  12.994  14.962 -0.0029  0.0046  0.1818
12345W        W12545   4.985   1.979  13.000 -0.2063 -0.0543  0.2399
12346W        W12546   0.494   1.760   3.958  0.1264 -0.0594  0.1515
12347W        W12547   0.642   9.826  14.228  0.0499  0.2201  0.1947
12348W        W12548   0.510  12.543  11.345 -0.1329  0.2156  0.0388
12349W        W12549   2.802  12.115  11.251  0.0712  0.1272 -0.2093
12350W        W12550   8.147   9.194   0.760  0.2102  0.1656  0.2708
12351W        W12551   6.897   3.042  11.637 -0.0443  0.1749 -0.1315
12352W        W12552  11.267  14.919   7.761 -0.1253 -0.0491 -0.1096
12353W        W12553   0.920   1.337   5.030  0.4260 -0.0731 -0.1263
12354W        W12554   7.893  11.430   0.248  0.0318  0.0750  0.1079
12355W        W12555  14.176   9.834   6.976  0.0562 -0.0945 -0.0485
12356W        W12556  11.162   3.531   1.666 -0.3275  0.1358  0.0259
12357W        W12557  14.720   1.776   9.690  0.1207 -0.0091  0.1681
12358W        W12558   1.093   5.793   2.327 -0.3238  0.0760 -0.0874
12359W        W12559  11.822   9.062  13.289  0.0928 -0.0489  0.0383
12360W        W12560   8.296  10.024   5.249 -0.0749 -0.3938  0.0809
12361W        W12561  13.021   0.320   2.372  0.1551 -0.0463  0.2675
12362W        W12562   9.787   5.102   0.836 -0.0702  0.2560  0.2623
12363W        W12563   4.333   8.210   7.273  0.1389 -0.1592  0.1284
12364W        W12564   4.309  14.816   9.449  0.2586  0.1155  0.2764
12365W        W12565  11.756   0.407  13.001 -0.0123 -0.3599 -0.0575
12366W        W12566   8.437  11.790   0.154  0.1328  0.1399 -0.3619
12367W        W12567  10.863   1.703   1.264  0.3098 -0.2651  0.0917
12368W        W12568   9.609   8.048   1.491  0.3944  0.0708  0.0449
12369W        W12569   8.244   9.934  10.412  0.0177 -0.0032  0.0464
12370W        W12570   0.840   1.866   4.254  0.2462  0.1639  0.1985
12371W        W12571  13.122   7.313   6.147  0.3261 -0.0465 -0.2720
12372W        W12572   4.215   7.837   2.337  0.0251  0.2023 -0.0740
12373W        W12573  12.969   5.996  10.933  0.0782  0.1494 -0.0678
12374W        W12574  13.276  13.976   5.154  0.0001 -0.1394 -0.2140
12375W        W12575   9.634   7.561   4.692  0.2017 -0.0601 -0.0595
12376W        W12576   9.945   2.043  11.419 -0.0355 -0.5066 -0.3670
12377W        W12577  12.345   4.463   8.043 -0.1205  0.2874  0.1716
12378W        W12578   8.311   6.480   1.892  0.0751 -0.0895 -0.2577
12379W        W12579   6.001   6.833   1.766  0.0288  0.1080  0.3311
12380W        W12580   6.852  10.104  13.215 -0.1240  0.2581 -0.0815
12381W        W12581  14.148  12.689   5.367 -0.0144  0.1786  0.0402
12382W        W12582   5.026   0.544  13.646  0.0285  0.0836  0.0875
12383W        W12583   1.376  13.775   6.079 -0.1397  0.3915  0.1568
12384W        W12584  10.382  13.766  11.401  0.0683  0.0276  0.0391
12385W        W12585  13.567  14.558   9.627 -0.2278 -0.0854 -0.0495
12386W        W12586   8.142  10.090   2.595 -0.0522  0.0924  0.1125
12387W        W12587   9.815  10.966  13.755  0.0388 -0.2056  0.0383
12388W        W12588   3.535  12.123  14.745  0.0116 -0.0460  0.1747
12389W        W12589   6.182  13.979   4.350  0.0367  0.2015  0.0150
12390W        W12590   9.250  10.028   6.768  0.0569 -0.1413  0.3359
12391W        W12591   7.299  13.012   3.641 -0.1851 -0.0246 -0.3419
12392W        W12592   0.161   3.324  12.285  0.0577  0.0911 -0.1583
12393W        W12593   3.075   2.980  11.846  0.1388  0.2268 -0.2870
12394W        W12594   1.042  11.785   3.120 -0.1333 -0.1695  0.0610
12395W        W12595  12.765   6.630   3.877  0.2332 -0.0948  0.3272
12396W        W12596  13.897   9.704   4.077 -0.4428 -0.0606  0.2690
12397W        W12597   0.170   5.274  14.442  0.2910  0.1138  0.0180
12398W        W12598   1.948   0.519   3.894 -0.0320  0.3550 -0.0526
12399W        W12599   9.731  15.003   6.582  0.0367 -0.0007 -0.0970
12400W        W12600   2.005  12.625   2.620 -0.3050  0.1945  0.5536
12401W        W12601  13.041   1.612   2.849  0.0785 -0.0580 -0.0071
12402W        W12602   7.774  11.401   3.314 -0.1564  0.2507 -0.2683
12403W        W12603  14.447  10.330   1.878 -0.0453  0.3379  0.3360
12404W        W12604   0.127  10.728   9.350  0.1279 -0.0976 -0.0848
12405W        W12605   9.084  11.877   0.519 -0.0223 -0.0520  0.0772
12406W        W12606   4.308   1.785  10.561  0.3540 -0.2642 -0.0240
12407W        W12607   8.489  12.009   9.739 -0.0420 -0.2242 -0.4752
12408W        W12608   7.167  15.030   2.679 -0.0904  0.0714  0.1449
12409W        W12609   1.939  13.698  14.406 -0.2390 -0.0989 -0.3535
12410W        W12610   0.082  11.430  10.824  0.0373  0.1183  0.0788
12411W        W12611  13.760   2.302   6.306 -0.2273  0.2288  0.3282
12412W        W12612  11.502  13.617   3.866 -0.2136  0.0183 -0.1528
12413W        W12613   1.911   8.623   0.604  0.1148  0.0567  0.3004
12414W        W12614  13.157  13.775   7.896  0.0763 -0.0912 -0.2492
12415W        W12615   2.090   5.395   1.719 -0.0828  0.1049  0.0571
12416W        W12616  12.301  13.538   1.056 -0.0475  0.1774 -0.1353
12417W        W12617  12.264   3.839   5.060  0.0279 -0.1279  0.0853
12418W        W12618  10.166   6.858   4.883  0.1542  0.4312  0.0223
12419W        W12619   7.560   4.831   2.463 -0.0532 -0.1626  0.1233
12420W        W12620   4.937   3.673   1.552  0.0340  0.1018  0.0438
12421W        W12621   6.008  12.052  13.047 -0.2653 -0.1224  0.0066
12422W        W12622   5.161   5.478   7.645  0.1100 -0.1319 -0.0263
12423W        W12623   5.663  10.430   8.958 -0.0699  0.2000  0.0744
12424W        W12624   3.826   6.298   2.785 -0.4504 -0.0438 -0.0329
12425W        W12625   5.020  12.091   3.827  0.1472  0.0759  0.0527
12426W        W12626   4.704   1.970   0.628  0.0853 -0.0706 -0.1084
12427W        W12627   9.018  13.438   5.649  0.2130 -0.0533  0.0167
12428W        W12628   5.763   9.511  15.052  0.3464  0.0765  0.1025
12429W        W12629   0.218   3.649  10.979 -0.0823  0.1096 -0.1285
12430W        W12630  14.721   4.698   9.000 -0.0180 -0.0112  0.0930
12431W        W12631   1.673   4.955  14.425  0.0231  0.0380 -0.0330
12432W        W12632  14.843  15.005  12.769  0.2584  0.0652  0.1308
12433W        W12633   6.287  12.385   3.063  0.2815  0.3032 -0.0951
12434W        W12634   5.137   2.938   8.366 -0.3367 -0.3144  0.1368
12435W        W12635  14.804   4.214   9.908  0.1707  0.0495 -0.0719
12436W        W12636  14.028   0.486   5.293 -0.3048  0.1765 -0.2905
12437W        W12637   8.075   3.742  10.931 -0.1685  0.2653 -0.2624
12438W        W12638   1.398   1.643  11.746 -0.0581  0.0969  0.1834
12439W        W12639  10.910   5.677   5.221 -0.0930  0.0594  0.0084
12440W        W12640   2.705  11.897   0.606  0.1937 -0.0898  0.0018
12441W        W12641   2.393   1.240   4.226  0.1153  0.0015  0.0786
12442W        W12642   8.585   3.733   3.903  0.0455  0.0445 -0.1506
12443W        W12643   9.117   0.575   4.312  0.0368  0.0352 -0.1840
12444W        W12644  12.775  10.845  10.345 -0.2076  0.0484 -0.2858
12445W        W12645   5.300  12.046   2.428 -0.2380 -0.1499  0.4058
12446W        W12646   5.148  12.995  12.192  0.2181 -0.2711 -0.0652
12447W        W12647   6.275   0.205   2.300  0.1911 -0.0691  0.3801
12448W        W12648   4.582   0.146   7.745  0.1232 -0.0449 -0.1281
12449W        W12649  13.320  12.544  14.732 -0.1891 -0.0925 -0.0540
12450W        W12650  13.583  12.241   0.000 -0.0444  0.2794  0.2338
12451W        W12651   0.100   1.193  13.217 -0.2054  0.0317 -0.1960
12452W        W12652   2.552   7.118   2.453  0.2024  0.1828 -0.0225
12453W        W12653   9.007   9.545  15.041  0.0593  0.0903  0.1350
12454W        W12654   0.316   4.595   5.741 -0.1054 -0.2304 -0.1722
12455W        W12655  11.686   0.257   0.698 -0.1282 -0.0699 -0.2176
12456W        W12656   4.552  12.287   2.941 -0.2069  0.1372  0.2568
12457W        W12657   6.777  14.846  13.728 -0.0778  0.1175 -0.1177
12458W        W12658   6.891   1.180  12.381  0.3393 -0.1598 -0.1426
12459W        W12659   0.109  13.966   1.302 -0.1283  0.2438 -0.1050
12460W        W12660   1.872  12.732   4.552 -0.3706  0.3377  0.3698
12461W        W12661   7.019  11.630  14.601  0.0516  0.1639  0.1512
12462W        W12662  14.336  10.572   7.775 -0.1355 -0.0577  0.3543
12463W        W12663   3.696   1.851  10.079 -0.1781  0.0309  0.1708
12464W        W12664   1.099  13.409   3.582  0.2562 -0.0786  0.3359
12465W        W12665   4.229   1.138   9.661  0.1062  0.4376 -0.0195
12466W        W12666   3.700  11.827   3.884  0.0879  0.2507  0.1426
12467W        W12667  11.021   6.756   2.564  0.0994 -0.0411 -0.1139
12468W        W12668   7.571   0.497  10.840 -0.1515 -0.0606 -0.0761
12469W        W12669  10.348   7.985  14.190 -0.3987 -0.0907  0.0840
12470W        W12670   6.329  13.705  11.094 -0.0486  0.0153  0.0941
12471W        W12671   3.625   6.052  14.668  0.2271  0.1159  0.3409
12472W        W12672   1.193  10.695   4.290 -0.1713 -0.1046  0.0890
12473W        W12673   7.964   4.504   3.155  0.2408  0.2109  0.1040
12474W        W12674   3.848  14.296  12.785 -0.3018 -0.0352 -0.0367
12475W        W12675   9.467   1.306   3.256  0.0234 -0.2363 -0.0073
12476W        W12676   4.082  13.551   4.407  0.0009  0.0766  0.0295
12477W        W12677   6.561  11.703   8.071  0.1794  0.0879 -0.3924
12478W        W12678  13.390   9.023  15.072 -0.1436 -0.3692 -0.0593
12479W        W12679   4.521   8.476   9.975 -0.2708 -0.1177 -0.1528
12480W        W12680   0.470   4.926   4.950 -0.1013  0.0877  0.0155
12481W        W12681   7.041   6.990   7.056 -0.2098  0.2239  0.0517
12482W        W12682   0.991  10.863   5.607  0.1637 -0.0068  0.0248
12483W        W12683   9.720  12.722   4.441 -0.0371 -0.0309  0.2387
12484W        W12684  14.754   2.287  13.025 -0.2399  0.2047 -0.1623
12485W        W12685  13.901  14.493   4.632 -0.0802 -0.1648  0.0650
12486W        W12686   5.828   9.878  13.317  0.1255 -0.1926 -0.1141
12487W        W12687  14.641  10.202   2.911 -0.1359  0.2244  0.1885
12488W        W12688   9.113   3.650  11.235 -0.1909 -0.1254 -0.0619
12489W        W12689   5.273  12.317  10.418  0.0246  0.2222  0.1863
12490W        W12690  10.551   3.520   0.442 -0.0524 -0.3361  0.0985
12491W        W12691  10.233  12.452   2.130 -0.1474  0.0195 -0.1764
12492W        W12692   1.708   7.150   6.522 -0.0233 -0.0218 -0.0462
12493W        W12693  12.781   0.631  13.103  0.0138  0.1967 -0.1611
12494W        W12694   9.655   9.504   3.138 -0.0995  0.6275 -0.0952
12495W        W12695   2.866   5.586   2.778  0.0162 -0.1920 -0.2430
12496W        W12696   8.283   9.353   4.809 -0.3308  0.0755 -0.2425
12497W        W12697   1.518   0.889   6.592 -0.0771  0.1694  0.1607
12498W        W12698  12.311   7.501   1.258  0.2415 -0.0333 -0.0026
12499W        W12699   9.603  12.636   9.938 -0.0160 -0.0960 -0.2775
12500W        W12700   9.229   8.380   5.079 -0.4032 -0.0134 -0.0242
12501W        W12701   7.988  12.008   9.021  0.0143  0.1512  0.1374
12502W        W12702   7.449  12.084   9.024  0.1297 -0.2457  0.2677
12503W        W12703  13.730  11.430  13.116  0.1304  0.2020  0.1325
12504W        W12704  11.860   8.022  10.997 -0.0490 -0.0177 -0.0910
12505W        W12705   8.523  10.954   0.648  0.0973  0.0188 -0.4548
12506W        W12706  10.594  10.429   9.650  0.2351  0.2143 -0.0623
12507W        W12707   8.982   7.601   2.674  0.3380  0.0717  0.0149
12508W        W12708   4.982   2.781   0.128  0.1374 -0.1292 -0.1024
12509W        W12709  11.421  13.656  10.424 -0.0406  0.1841 -0.2424
12510W        W12710   4.553   6.312   1.275 -0.4235 -0.3937  0.1061
12511W        W12711  10.089   8.136   3.269  0.1081 -0.1123  0.0555
12512W        W12712  14.243   3.740   2.915 -0.0995 -0.0485  0.0980
12513W        W12713  12.320   0.481  14.060  0.2737 -0.0570  0.2137
12514W        W12714  14.503   9.098  11.882  0.2679  0.1053  0.3411
12515W        W12715   1.829   1.420   4.174 -0.1270  0.2440 -0.2432
12516W        W12716   1.744   3.286   7.379  0.1809  0.1459 -0.0433
12517W        W12717   6.841  13.003   2.298 -0.0807 -0.3158  0.1659
12518W        W12718  11.510   4.647   9.315  0.0313 -0.0809  0.0076
12519W        W12719   9.347   9.456   4.486  0.0846  0.2708  0.2774
12520W        W12720  10.198  12.901   2.857  0.3036  0.0611 -0.3273
12521W        W12721  10.083   8.957  11.696 -0.0806 -0.1401 -0.2030
12522W        W12722   3.880   3.792  14.633 -0.0248 -0.0675 -0.1072
12523W        W12723   3.004   0.661  12.419  0.1806 -0.0366 -0.0099
12524W        W12724   3.218  11.769   5.258  0.0339 -0.0346 -0.1471
12525W        W12725   9.765   9.976   7.554  0.2580 -0.3431  0.0246
12526W        W12726   5.799  13.194  14.371  0.2788  0.0047  0.1468
12527W        W12727   3.882   3.689  12.697  0.0532 -0.3959 -0.0405
12528W        W12728   9.502   7.272   9.490 -0.1945 -0.1284 -0.1721
12529W        W12729  10.433   9.647   5.864  0.0201 -0.0218  0.1863
12530W        W12730   9.743  14.714   0.593  0.2187 -0.2061  0.1573
12531W        W12731   7.259   9.701  11.941  0.3371  0.1286  0.0766
12532W        W12732  14.943  11.377   3.686  0.0763 -0.0636  0.0824
12533W        W12733  14.376   1.913  13.093 -0.1895  0.1325 -0.1205
12534W        W12734  12.568  13.815   5.854  0.0851  0.0711  0.2297
12535W        W12735   0.451  13.086   5.886 -0.2935 -0.2240  0.1323
12536W        W12736   7.795   7.139   3.027  0.3505  0.0710 -0.2731
12537W        W12737   0.567   4.166   2.598  0.2633 -0.1470  0.1168
12538W        W12738  14.072   1.746   8.138  0.1597  0.4119 -0.0030
12539W        W12739  11.428  10.971  10.686  0.0978  0.5704  0.0859
12540W        W12740   2.683   1.518  10.002 -0.4105 -0.0737  0.1335
12541W        W12741  13.358   8.112  13.317 -0.0712  0.1556 -0.0958
12542W        W12742   6.132  10.276  13.067 -0.1158  0.1332 -0.2624
12543W        W12743   2.072  13.796  13.243 -0.1588 -0.1156 -0.0236
12544W        W12744   0.058   7.739   4.878 -0.2153 -0.0605  0.0727
12545W        W12745   7.419  13.770   1.215  0.1265 -0.0973  0.0413
12546W        W12746   2.435   1.644  11.569 -0.1572  0.1685 -0.1777
12547W        W12747   8.144  12.127  14.222 -0.0618  0.0007 -0.0992
12548W        W12748  12.413  11.101   0.846 -0.0862 -0.0527  0.0770
12549W        W12749   5.188   0.474   2.283 -0.3799  0.0245 -0.2477
12550W        W12750  10.215  11.199  13.368  0.0333  0.0792  0.1178
12551W        W12751   7.337  10.666   8.046 -0.1337  0.1861  0.1081
12552W        W12752   7.214  14.249   5.526  0.1861 -0.3193 -0.4016
12553W        W12753   0.815   1.767   0.914 -0.0696  0.1741  0.1030
12554W        W12754   1.679   7.550   6.854  0.0263 -0.2410  0.1413
12555W        W12755   6.003   7.700   1.970 -0.3244 -0.0557  0.1149
12556W        W12756  14.708   0.389  13.404  0.1007 -0.3017 -0.0651
12557W        W12757   2.009  11.567   5.330 -0.1912 -0.0567  0.0060
12558W        W12758   7.114   2.562   5.606  0.1625  0.0158  0.1779
12559W        W12759   0.394  14.989   4.874  0.3769  0.3363  0.1090
12560W        W12760   4.358  13.724  12.873  0.2067  0.0719  0.1563
12561W        W12761   3.542   3.848  14.256  0.0043 -0.2429  0.0091
12562W        W12762   7.842   1.371   5.002  0.1577  0.0962  0.2993
12563W        W12763   3.521   8.858   7.166 -0.1807  0.4407 -0.2677
12564W        W12764  15.101  14.353  13.145 -0.2678  0.2422 -0.1163
12565W        W12765  14.744  13.785  13.739 -0.1004  0.1934  0.3468
12566W        W12766   3.411   0.686  11.989  0.0677 -0.0743 -0.0295
12567W        W12767   3.079   8.186   7.228 -0.2355 -0.0056  0.0352
12568W        W12768   0.568   5.035   6.017 -0.2245  0.0708 -0.1354
12569W        W12769  13.452  14.150  14.708  0.1664  0.2120  0.0842
12570W        W12770   3.836  11.353  11.570  0.2283  0.1798 -0.1812
12571W        W12771   2.777   7.046  15.128  0.0459 -0.1089 -0.0134
12572W        W12772  10.403  11.957  11.523 -0.0326  0.0397 -0.0530
12573W        W12773   0.152  11.555  14.082 -0.1252  0.0278  0.0560
12574W        W12774   7.811   4.857  12.759 -0.2929 -0.0475 -0.0344
12575W        W12775   1.871  13.770  10.225  0.2565 -0.2950 -0.2996
12576W        W12776   5.577   9.606  11.784 -0.2675  0.1773 -0.1286
12577W        W12777   2.631   0.261   4.695  0.0516 -0.1764 -0.0835
12578W        W12778   1.597  14.744   6.168  0.1744 -0.0671 -0.3638
12579W        W12779  14.665   5.382  11.351  0.1824  0.1691 -0.0997
12580W        W12780   2.828   0.981   4.084  0.3661  0.2198  0.1552
12581W        W12781  12.467   4.014  12.659  0.1723 -0.1430 -0.3238
12582W        W12782   5.139  11.848   6.526 -0.0418 -0.4005 -0.1751
12583W        W12783   1.994   9.463   3.237 -0.1659 -0.5508  0.0359
12584W        W12784  14.892   6.650   4.727  0.0033 -0.3776  0.3297
12585W        W12785  10.835  11.104   2.010  0.1829  0.0473 -0.1666
12586W        W12786   6.858  11.103   9.974 -0.2835 -0.3577  0.0212
12587W        W12787   9.799  11.108   3.314 -0.0414  0.0144 -0.2389
12588W        W12788   6.694   4.863  11.956  0.1330 -0.2668 -0.0785
12589W        W12789   6.608   2.084   9.302 -0.2410 -0.2854  0.0197
12590W        W12790   9.165   2.739   4.598  0.0710  0.3611 -0.0197
12591W        W12791  14.128  12.251   6.045 -0.1136  0.0606  0.0227
12592W        W12792   5.188  14.767   8.218 -0.0299 -0.0939  0.3923
12593W        W12793   4.093  14.609  13.731  0.2053  0.1160  0.0251
12594W        W12794   8.507   4.045  12.953  0.1955 -0.0808 -0.0040
12595W        W12795   9.936   3.016  11.231 -0.3329 -0.1233  0.3878
12596W        W12796   7.234   4.611   4.894 -0.1304  0.0098  0.2034
12597W        W12797   3.727  13.051   1.779  0.2895 -0.0447  0.0804
12598W        W12798   0.875   7.779   6.201  0.3363  0.0326 -0.0055
12599W        W12799   1.437   4.375   3.594 -0.0500 -0.0664 -0.1474
12600W        W12800  11.012  10.689   5.363 -0.0559 -0.0607 -0.1304
12601W        W12801   2.273  10.916   1.221  0.0758 -0.3991  0.1593
12602W        W12802  10.332  14.982   9.311  0.0020  0.0818  0.1778
12603W        W12803  10.250  11.203   7.963  0.1523  0.0219  0.0092
12604W        W12804   9.592  10.148   2.094 -0.0703  0.1156 -0.1764
12605W        W12805   9.282   5.712   1.948  0.2221 -0.0400  0.1022
12606W        W12806   1.302   0.449   3.315  0.1103 -0.1204 -0.2736
12607W        W12807   0.826   2.858   9.850 -0.0010  0.1207 -0.0282
12608W        W12808  10.943  13.989  12.989  0.1121 -0.1709 -0.1187
12609W        W12809   9.170   2.074   4.117  0.2436  0.0992  0.0953
12610W        W12810  14.394   2.478   5.755 -0.0043  0.0628 -0.2081
12611W        W12811   7.152   6.880   4.861  0.3143  0.0241  0.2602
12612W        W12812   9.424  13.674  13.626 -0.0891  0.1625 -0.7046
12613W        W12813   2.364  13.455   9.809  0.1433  0.1906 -0.0903
12614W        W12814  13.361  10.927   7.106  0.3336 -0.1784  0.2675
12615W        W12815   5.394   0.687   4.578  0.2728  0.4213  0.0481
12616W        W12816   4.289   2.895   2.505 -0.0588 -0.0532 -0.1759
12617W        W12817   6.121  10.419   4.012  0.1631  0.1121 -0.1011
12618W        W12818  14.693   9.372  11.506  0.4339  0.1206 -0.0773
12619W        W12819   2.422   5.376   9.408  0.0426 -0.2057 -0.1559
12620W        W12820   2.891   4.657   5.787 -0.2293 -0.1161 -0.1251
12621W        W12821   6.386  10.863   1.053  0.0176 -0.2166 -0.1421
12622W        W12822   4.447  14.850   7.791  0.1322 -0.0625  0.1173
12623W        W12823  12.497  13.819   7.434  0.2800 -0.0193 -0.0060
12624W        W12824   8.078   3.733   4.033  0.0417 -0.2913  0.0378
12625W        W12825   6.281   2.190  10.279  0.0864  0.1875 -0.1754
12626W        W12826   0.406   6.985   6.220  0.1854 -0.2926 -0.1834
12627W        W12827   0.119  14.546   4.161  0.2596  0.0483 -0.0377
12628W        W12828   8.643  11.754  14.105 -0.0545 -0.1022 -0.0476
12629W        W12829   5.883  14.798  14.411 -0.0430 -0.1413 -0.1667
12630W        W12830   9.036   5.513   7.991  0.0579  0.0820 -0.1032
12631W        W12831  10.449   5.253   7.251  0.0406  0.0330 -0.1015
12632W        W12832  15.055   4.295   8.921 -0.1322  0.0531 -0.0039
12633W        W12833   4.785  12.572   2.560  0.1258  0.1779 -0.1727
12634W        W12834  10.738   0.161   0.408  0.0924  0.0399 -0.2782
12635W        W12835  12.609  12.224   4.402 -0.2496 -0.3166  0.2035
12636W        W12836  14.265  14.188   2.167 -0.0645 -0.1678  0.0302
12637W        W12837  11.657  13.893   8.559 -0.0365  0.0744 -0.0152
12638W        W12838   8.244   8.864   3.169 -0.2560 -0.2643 -0.3251
12639W        W12839  14.630   0.627   6.089 -0.0677 -0.1955  0.2693
12640W        W12840  14.797  11.203   4.627 -0.2691  0.0270 -0.1361
12641W        W12841   4.180   9.571   4.964  0.1651  0.1614  0.0636
12642W        W12842   4.927   1.919   6.294 -0.2918 -0.2602 -0.0985
12643W        W12843  12.275  11.963   1.267 -0.2383  0.0854 -0.1088
12644W        W12844   3.013  10.527   5.133 -0.1930 -0.0113 -0.0289
12645W        W12845  13.432  12.194   5.277 -0.0668  0.1126 -0.0023
12646W        W12846  11.723  10.911  15.127 -0.0163  0.0154  0.0593
12647W        W12847   8.390   5.875   2.373 -0.1026 -0.0800 -0.1078
12648W        W12848  12.602   1.294   7.340 -0.0062  0.2727  0.2733
12649W        W12849   3.090   3.497   8.258  0.0225  0.0688  0.1623
12650W        W12850   6.923   4.040   7.541  0.0518 -0.3470  0.0003
12651W        W12851   2.889   6.440   1.114 -0.1617  0.0472 -0.1977
12652W        W12852  14.953   1.168   0.488 -0.1434  0.1361  0.0164
12653W        W12853   2.082  14.227  13.772 -0.3560 -0.2356 -0.0533
12654W        W12854   0.770   1.969   3.196  0.0956  0.1837  0.0257
12655W        W12855   6.667   8.379   5.769 -0.0279  0.0244  0.1156
12656W        W12856  14.349   8.590  14.352 -0.0942  0.1396  0.0313
12657W        W12857   5.900   8.985   5.697 -0.0805 -0.0003 -0.3489
12658W        W12858   3.897   7.431   0.221 -0.0369  0.0793 -0.1886
12659W        W12859  12.307   6.424  10.216 -0.1388  0.0513 -0.0311
12660W        W12860   7.793  13.527  11.575 -0.2797  0.0085 -0.0808
12661W        W12861   5.181   3.956   9.371  0.2307  0.1928 -0.1134
12662W        W12862   5.327  11.419  11.356  0.0407 -0.0201 -0.1860
12663W        W12863   4.049   1.794   4.601 -0.1343  0.0478  0.3176
12664W        W12864   7.831   6.865   7.625  0.0800  0.0314 -0.1653
12665W        W12865   4.479   9.376   8.131 -0.0070  0.0102  0.2573
12666W        W12866   1.523   7.390   1.827  0.0150 -0.0387 -0.4475
12667W        W12867   6.291  10.124   3.656  0.3403 -0.0442 -0.1920
12668W        W12868   8.124   7.536   1.726  0.0529  0.1699 -0.0742
12669W        W12869   8.962   4.421   0.246 -0.0652 -0.1252  0.1883
12670W        W12870   6.207   5.215   5.814 -0.2528 -0.1852  0.1125
12671W        W12871   0.607  14.261  12.223 -0.1431 -0.2454 -0.0247
12672W        W12872  11.552  12.928   4.149  0.0761  0.2564  0.2453
12673W        W12873   4.402  10.696   8.396  0.0400  0.0222  0.6766
12674W        W12874   4.462   1.679   4.858 -0.0370 -0.0733 -0.0034
12675W        W12875  12.762  10.884   7.550 -0.0504  0.2759 -0.0660
12676W        W12876   9.800   6.623   2.923 -0.2954  0.0671 -0.0345
12677W        W12877   7.526  10.253   4.211  0.0473 -0.1751  0.0999
12678W        W12878   4.083  13.205  10.592 -0.1190 -0.2034 -0.0182
12679W        W12879   8.279   7.214   2.686  0.1247 -0.0671  0.0645
12680W        W12880  10.720  14.913  13.374  0.2072  0.0654  0.1614
12681W        W12881  13.406   1.305   3.807 -0.3108  0.2704 -0.0461
12682W        W12882  14.914   9.620   4.523  0.1024  0.1013  0.0992
12683W        W12883  13.866  12.402   2.100 -0.1023 -0.0153 -0.3919
12684W        W12884   5.461  10.083  14.361 -0.2545 -0.1310  0.1059
12685W        W12885   3.565  13.970  13.082  0.2001  0.2052 -0.1239
12686W        W12886   4.984  10.187   3.951  0.1657  0.3767 -0.0872
12687W        W12887   6.040  13.292  10.580  0.0617  0.1649  0.0345
12688W        W12888   7.649   4.538  14.585  0.2196  0.2079  0.1321
12689W        W12889   4.681   9.592   4.894 -0.1756  0.1077 -0.0488
12690W        W12890   9.502   1.376   5.999  0.1017 -0.0446  0.5955
12691W        W12891   7.709   5.258  11.087 -0.1902  0.2910 -0.1954
12692W        W12892   7.635   1.821   5.134  0.0901 -0.1889  0.0382
12693W        W12893  10.795   2.317   6.940 -0.0102 -0.1735 -0.2110
12694W        W12894   4.886   9.687  14.240  0.0649  0.1797  0.3456
12695W        W12895  13.261   7.249   1.200 -0.1324 -0.0862 -0.0869
12696W        W12896   9.963   3.862   8.812 -0.4807 -0.1957 -0.0231
12697W        W12897   3.600   4.738   5.295 -0.0849 -0.0550  0.2591
12698W        W12898  15.129   8.093  11.184 -0.2005  0.0762 -0.0907
12699W        W12899  14.688   0.091   7.372 -0.1468  0.1302  0.0381
12700W        W12900  10.143   9.018   3.873 -0.0101  0.0666  0.1890
12701W        W12901   1.315  14.684   7.699  0.2649  0.1906 -0.0087
12702W        W12902   2.395  12.044   6.127 -0.0898 -0.1130 -0.0133
12703W        W12903  11.208  10.888   2.348 -0.0123 -0.0586 -0.2996
12704W        W12904  10.490   5.278  13.449  0.3110  0.0495 -0.0194
12705W        W12905   7.098   2.739   0.710 -0.3343 -0.0821  0.2962
12706W        W12906  11.648   7.871  13.952  0.1360 -0.0660  0.1926
12707W        W12907   3.682   0.124   4.981 -0.0130  0.2733  0.0184
12708W        W12908  12.628   1.040   5.193 -0.0064  0.1471 -0.3135
12709W        W12909  10.641   3.792   0.027 -0.1042 -0.4558  0.2340
12710W        W12910   1.450  11.419   3.175 -0.0594  0.1215  0.3011
12711W        W12911   5.079   2.627   4.263 -0.2956 -0.0910 -0.2676
12712W        W12912   4.417   5.322   8.679 -0.2290  0.5193 -0.2359
12713W        W12913   5.520  14.658   7.400 -0.3527  0.3784 -0.1386
12714W        W12914   8.379  12.781  11.233 -0.1294 -0.0313 -0.2490
12715W        W12915   2.098   3.198   4.061 -0.0317 -0.0292  0.0602
12716W        W12916   1.142   7.873   0.553  0.2525 -0.2326 -0.1279
12717W        W12917  10.665   0.538  14.577 -0.2149 -0.4376 -0.0849
12718W        W12918   4.448   3.505  14.946  0.1863 -0.2085 -0.0590
12719W        W12919   4.028   5.045   8.769  0.0982 -0.0415 -0.0719
12720W        W12920   9.165   3.236   7.694 -0.2438 -0.0552  0.1161
12721W        W12921   4.190  12.284   7.506 -0.0766  0.2427 -0.0148
12722W        W12922   4.492   0.310  12.574  0.2630  0.0907  0.0089
12723W        W12923  13.085   1.284   5.553  0.1788 -0.1144 -0.0695
12724W        W12924   4.199   1.315   4.602  0.3520  0.1671 -0.2672
12725W        W12925   7.069  10.866   8.519 -0.2093 -0.1350 -0.2735
12726W        W12926   9.885  10.067   2.666 -0.0323 -0.0567 -0.0146
12727W        W12927   8.035   9.552   5.293  0.1386 -0.0127 -0.0455
12728W        W12928   9.134  14.335   0.295 -0.2022  0.0452 -0.0090
12729W        W12929   4.360  10.185  12.114  0.1556  0.1840 -0.1287
12730W        W12930   2.197  15.042   7.722 -0.3805 -0.0364 -0.0801
12731W        W12931   0.483  12.732   4.659 -0.1093  0.4178  0.0864
12732W        W12932   8.521  10.719   5.451 -0.3745 -0.0765 -0.1041
12733W        W12933   1.966   0.325   9.740 -0.1904  0.0742  0.1459
12734W        W12934  14.469   1.243   2.911 -0.0542  0.4383 -0.0197
12735W        W12935   5.066  11.837   1.560 -0.0313  0.2551 -0.2126
12736W        W12936  13.343   1.092   3.294  0.0844  0.0852 -0.4137
12737W        W12937   9.399  14.547   9.889  0.0900 -0.0538 -0.2403
12738W        W12938   0.643   7.166   4.417  0.0056  0.0583  0.1621
12739W        W12939  12.690   2.939   3.691  0.0786 -0.0848  0.0912
12740W        W12940   7.307  12.104   0.776  0.1104 -0.2006  0.1033
12741W        W12941   5.694   0.304  11.925  0.2082  0.0338  0.4490
12742W        W12942   6.008   2.682  15.047  0.0992  0.1157 -0.0398
12743W        W12943   3.103   6.285  14.921 -0.2128  0.0315  0.0756
12744W        W12944   3.256   7.080   1.643  0.2386 -0.0307 -0.0476
12745W        W12945  11.852  11.805   7.689 -0.0754 -0.0692 -0.4736
12746W        W12946   4.468  11.031  14.891 -0.0126  0.1228  0.1956
12747W        W12947   8.746  10.213  14.487 -0.1143 -0.0805 -0.4354
12748W        W12948   8.476  14.330  10.193  0.2198  0.1384 -0.0319
12749W        W12949   7.371   7.608  12.364  0.0860  0.1773  0.3047
12750W        W12950  10.169   2.046   5.620 -0.0796 -0.2747 -0.0806
12751W        W12951   9.712   6.112   7.544  0.0424 -0.2003 -0.1229
12752W        W12952   5.383   4.506   3.201  0.0336 -0.0960  0.2150
12753W        W12953   5.795   2.671   0.462  0.5123 -0.0935  0.2594
12754W        W12954   0.421   7.360   6.588  0.2127 -0.0046  0.2315
12755W        W12955   1.733  11.925  13.438  0.1660  0.0698  0.1728
12756W        W12956   6.752   0.982   6.703 -0.4078 -0.2488  0.1686
12757W        W12957   0.348   8.766  14.091  0.1768  0.1259  0.2890
12758W        W12958   4.863  11.695  11.444 -0.1953  0.2326 -0.0275
12759W        W12959  14.978  13.311   8.563 -0.0181  0.0207  0.1176
12760W        W12960   1.047   8.210   6.433  0.0306 -0.2471  0.2420
12761W        W12961   4.978  13.091   8.362 -0.0363 -0.2849 -0.1787
12762W        W12962   5.051  11.847   9.569 -0.0784 -0.3466  0.0752
12763W        W12963  11.227  10.910  13.354  0.3291  0.1675 -0.2117
12764W        W12964  10.058   8.958  10.637  0.1334  0.0538 -0.1879
12765W        W12965   5.550   0.934   7.303 -0.0512 -0.0468  0.0650
12766W        W12966   6.098   4.663   9.665 -0.0880  0.0053  0.1796
12767W        W12967   5.251  10.719   0.202 -0.0279 -0.2405 -0.0344
12768W        W12968   3.621  11.474   6.156 -0.2114 -0.3316  0.0236
12769W        W12969   4.418  12.213   4.504 -0.2741 -0.0864  0.1578
12770W        W12970   0.089   0.599   0.441 -0.0392  0.1352 -0.0123
12771W        W12971   0.359  12.526   2.593 -0.3271 -0.0411 -0.0352
12772W        W12972   2.604   7.110   3.791 -0.1943  0.0224 -0.1003
12773W        W12973   0.825  14.819   5.297 -0.2466  0.0184  0.1175
12774W        W12974  14.850  15.187   3.997 -0.0452 -0.0181  0.1304
12775W        W12975   8.150  13.597   2.341 -0.1249 -0.3300 -0.0416
12776W        W12976   7.360  13.660   9.222  0.1452 -0.0662 -0.4004
12777W        W12977   1.490   8.933   9.376 -0.0892 -0.0942  0.0512
12778W        W12978   6.080   2.609   6.414 -0.0461 -0.0128 -0.1879
12779W        W12979   4.194  10.335   8.059  0.3511 -0.1642  0.1352
12780W        W12980   7.943   2.751  15.119  0.1682  0.2644  0.2529
12781W        W12981   1.132  13.918   9.570  0.0614  0.1546  0.0146
12782W        W12982   4.338   2.169  14.208  0.0879 -0.1038 -0.0393
12783W        W12983   2.333  12.783  12.458  0.3512  0.0269 -0.0877
12784W        W12984   3.744   9.851   3.397 -0.1321  0.1776 -0.2448
12785W        W12985   6.052  13.459  15.024  0.0762 -0.0288 -0.0097
12786W        W12986   7.608  10.978   1.961  0.1327  0.0055 -0.2891
12787W        W12987   2.899  10.691  14.457  0.1186 -0.5780 -0.0306
12788W        W12988  11.309   8.522   6.669 -0.1358 -0.1233 -0.0794
12789W        W12989  10.095   9.069  10.093  0.1705 -0.2132  0.0256
12790W        W12990   7.800   5.668   1.802  0.0467 -0.1990  0.3228
12791W        W12991   8.637  12.388   6.584 -0.0478 -0.0446 -0.1444
12792W        W12992   9.160   2.217   4.705  0.4506  0.0102  0.2822
12793W        W12993   4.099   7.589  13.349 -0.3699 -0.0423 -0.2483
12794W        W12994   4.687   0.081   5.124  0.1794 -0.2794 -0.1237
12795W        W12995  14.001   0.896   0.863 -0.2676 -0.2121  0.1337
12796W        W12996   6.760   9.195   0.659 -0.0498  0.0691  0.0146
12797W        W12997   9.535   5.973   1.506 -0.1163 -0.1340  0.0161
12798W        W12998   0.395   7.443  11.560  0.0246  0.2628  0.0236
12799W        W12999   2.881  11.375   0.675 -0.0664  0.1239  0.2578
12800W        W13000   0.875   0.529   5.341 -0.2319 -0.0874  0.0798
12801W        W13001  12.650   0.316  11.751  0.3354  0.2395  0.0110
12802W        W13002   6.923   5.627   0.072 -0.1137 -0.0919 -0.4089
12803W        W13003  12.504  14.250   0.765 -0.1812  0.0368 -0.0995
12804W        W13004   1.195   0.331   4.953  0.1228  0.1621 -0.2107
12805W        W13005   1.468   1.987   3.443 -0.0412 -0.1861 -0.0310
12806W        W13006   2.870   3.048   2.765  0.0624  0.0379  0.0196
12807W        W13007   6.618  13.181   9.843  0.0855  0.1237 -0.0034
12808W        W13008   2.249   1.055  11.933 -0.1253 -0.1407 -0.0772
12809W        W13009   0.380   8.741  12.561 -0.2377  0.1584 -0.1140
12810W        W13010   7.227  14.158  12.824 -0.0330 -0.0669 -0.1355
12811W        W13011   2.166  10.766   2.601 -0.0623 -0.1704  0.3945
12812W        W13012   3.284  14.682   7.086  0.0946  0.1291 -0.0609
12813W        W13013   6.284   7.619   6.234  0.1598 -0.0199  0.1399
12814W        W13014  13.097  13.324   2.421  0.3113 -0.3128 -0.0774
12815W        W13015   3.216  11.755   4.528  0.0647  0.2374  0.0068
12816W        W13016  14.253   1.853   8.979 -0.0267 -0.0611  0.0046
12817W        W13017   7.589   0.857   9.822 -0.2005  0.0745  0.0054
12818W        W13018  14.556  13.884  10.041 -0.1099  0.1503  0.3015
12819W        W13019  10.805   1.469   9.299  0.2292 -0.0220  0.3220
12820W        W13020  13.228  10.526   9.659  0.0109  0.0336  0.1825
12821W        W13021   3.951   0.636   0.418 -0.0554  0.0260 -0.0709
12822W        W13022   2.169   5.093   3.512 -0.0399 -0.1433  0.1002
12823W        W13023  11.143   2.841  11.844  0.0697 -0.3528 -0.2622
12824W        W13024  11.511   3.122   3.792  0.0540 -0.4020 -0.1094
12825W        W13025   7.019  14.005   1.373 -0.0696  0.0222 -0.2035
12826W        W13026   0.952  13.348  14.142  0.3403 -0.3213 -0.2374
12827W        W13027   7.283   2.541   9.647  0.0278 -0.0636  0.0688
12828W        W13028   3.473  14.019   1.935  0.0206 -0.2507 -0.2137
12829W        W13029  14.466   2.033  14.786  0.1349  0.1424  0.1764
12830W        W13030   4.125   5.588   5.656 -0.0258 -0.0514 -0.0432
12831W        W13031  14.341   1.247  14.546  0.2003  0.0164  0.0006
12832W        W13032  13.642  13.123   8.131  0.2025  0.0346  0.0569
12833W        W13033  10.536   5.043   3.968 -0.1142  0.0635 -0.3031
12834W        W13034   3.377   3.768  11.368 -0.1376 -0.1072 -0.3469
12835W        W13035   3.142  11.778   8.993  0.2542 -0.1349  0.1269
12836W        W13036   0.742   2.196  10.345  0.0647  0.0832 -0.0871
12837W        W13037  12.109  14.758  11.531  0.1933  0.2804 -0.0817
12838W        W13038   3.577  12.537  11.527 -0.2811  0.1528  0.0777
12839W        W13039  10.663  14.349  12.063 -0.0089  0.2457  0.0588
12840W        W13040   2.841  13.162   9.274 -0.1076 -0.2552 -0.0526
12841W        W13041   4.047   6.764   3.965  0.2725  0.1727 -0.0331
12842W        W13042   0.298  13.819  13.058  0.1154  0.0905  0.1117
12843W        W13043   6.466  14.943   7.458 -0.5163  0.3287  0.4057
12844W        W13044   5.526  13.183  12.506 -0.1580 -0.0940  0.2223
12845W        W13045  11.522   5.194   5.794  0.2678  0.3266 -0.0481
12846W        W13046  10.800  12.518   7.046  0.0777 -0.2022  0.3371
12847W        W13047   5.880  13.200   7.704  0.1664 -0.0393  0.3193
12848W        W13048   9.448  10.795   3.664 -0.0832  0.2275  0.1384
12849W        W13049   2.503  14.780   7.459  0.0336  0.1721 -0.1329
12850W        W13050   1.990  12.590   7.736  0.0167  0.1961  0.0097
12851W        W13051  11.192   2.298   2.177 -0.2062  0.0403 -0.0586
12852W        W13052   1.491  10.614   4.930  0.0369  0.2226  0.1343
12853W        W13053   2.015   2.342   7.887 -0.1484  0.1938  0.1535
12854W        W13054   1.538   6.676   3.514  0.2519 -0.1215  0.0007
12855W        W13055   3.615   9.955  10.184 -0.2168 -0.0902 -0.1664
12856W        W13056   6.870   0.654   1.719  0.1765 -0.0098 -0.2916
12857W        W13057   8.074  11.820   3.090  0.1429  0.0906 -0.3133
12858W        W13058   6.785  12.725   6.599  0.1973  0.0006  0.0047
12859W        W13059   4.550   6.665   0.153  0.1701  0.4258 -0.2274
12860W        W13060   5.185  10.865   2.477 -0.1261  0.0134  0.2786
12861W        W13061   5.309  14.829   6.188  0.2253 -0.0385 -0.0164
12862W        W13062  11.741   7.613   7.964 -0.2943  0.2818  0.0156
12863W        W13063   2.388  11.388   8.941  0.0104  0.0229  0.0932
12864W        W13064   7.921   0.698   3.878 -0.0227 -0.1797 -0.3339
12865W        W13065  14.394  13.826   3.065  0.0992 -0.0680 -0.0514
12866W        W13066   2.973  14.788  13.432  0.1751 -0.0800  0.0579
12867W        W13067  14.306  13.474   1.631 -0.0091 -0.2163  0.1468
12868W        W13068   6.913  11.432  10.411 -0.2375 -0.1184  0.1599
12869W        W13069   5.425  12.572  13.948 -0.3118  0.0236 -0.0340
12870W        W13070   7.964  13.550   5.575  0.1540  0.0504 -0.0088
12871W        W13071   6.649   8.849   6.077  0.4079 -0.2807 -0.0871
12872W        W13072   5.016  10.906   9.344  0.1904 -0.1569 -0.0633
12873W        W13073  11.516   0.382   2.902 -0.0310 -0.2618 -0.1189
12874W        W13074  12.776  14.160   7.258  0.0104  0.2994  0.1163
12875W        W13075   1.038   8.314   4.754  0.1537  0.2235  0.0356
12876W        W13076   1.009   0.883   0.530 -0.0267 -0.0627  0.1102
12877W        W13077   9.061  12.493  14.131  0.0979 -0.1642  0.3047
12878W        W13078   6.392   6.601   6.397  0.3126 -0.0955  0.1746
12879W        W13079   7.417   3.003   4.772  0.2283  0.1585 -0.0819
12880W        W13080   5.871  14.892   0.175 -0.0397 -0.0624  0.1354
12881W        W13081  13.359  13.691   3.154 -0.0700 -0.2392  0.3119
12882W        W13082  14.370   8.099   7.820 -0.0973  0.4241  0.1132
12883W        W13083   5.836  14.059   1.002  0.2085  0.1454 -0.0302
12884W        W13084  10.687  10.162  11.470  0.3314 -0.0830  0.1541
12885W        W13085   0.774   6.804   7.278  0.0393  0.1306 -0.0406
12886W        W13086  10.058   4.793   5.850  0.1771 -0.0200  0.2700
12887W        W13087   8.289   2.374   4.594  0.0420 -0.0618  0.0710
12888W        W13088   5.865  11.266  12.674  0.1749  0.1181 -0.0936
12889W        W13089   5.277   8.181  13.581 -0.2038  0.1506  0.1591
12890W        W13090   9.303   2.378   3.540 -0.0724  0.0543  0.4382
12891W        W13091  15.193  11.165   9.548  0.0476  0.0030 -0.0294
12892W        W13092   2.915  15.049   7.098 -0.0188 -0.0635 -0.2838
12893W        W13093  10.232   3.512   6.994 -0.0761 -0.0573 -0.1095
12894W        W13094   3.033  13.187   5.950  0.2251  0.0655  0.5111
12895W        W13095  11.274  12.543   4.254  0.0357  0.2028  0.1400
12896W        W13096   6.738   1.504   2.969 -0.0871  0.2753  0.0040
12897W        W13097  14.834   6.235   5.301  0.1068  0.0510 -0.0307
12898W        W13098   6.579   3.606  13.726 -0.2255  0.2524  0.0557
12899W        W13099  10.837   3.614  14.767  0.0528  0.3995 -0.1498
12900W        W13100   7.416   9.698  12.431 -0.2188  0.1550  0.0541
12901W        W13101   9.513  12.326  14.638 -0.1179  0.1221  0.1284
12902W        W13102   0.361   0.078   0.245  0.0750 -0.0073 -0.3421
12903W        W13103   2.756   9.183   4.039 -0.3227 -0.0847 -0.0768
12904W        W13104  14.091   6.487   3.209 -0.1373  0.4437  0.0136
12905W        W13105   1.282  11.707  13.217  0.0060 -0.2419 -0.0634
12906W        W13106   1.987   7.941   6.807 -0.1242 -0.0507 -0.0919
12907W        W13107  11.385  14.561   3.398  0.1108  0.0107 -0.3737
12908W        W13108   3.286   0.467   3.595  0.1254  0.2644  0.3484
12909W        W13109   8.804  10.965  13.549  0.0696 -0.1236  0.2294
12910W        W13110   0.239   8.099   9.296 -0.0505  0.0267 -0.1104
12911W        W13111  10.214  13.548  14.044  0.0416  0.2636  0.3772
12912W        W13112   4.063   6.000  13.267  0.1427  0.3513 -0.0187
12913W        W13113   3.089  13.026   9.795  0.0538 -0.1846 -0.0281
12914W        W13114   0.502  11.354   6.452 -0.1795 -0.1351  0.1676
12915W        W13115  14.454  11.841   8.226  0.1004 -0.1785  0.0256
12916W        W13116   6.517  15.091  12.783  0.2675  0.3095 -0.5584
12917W        W13117   7.004   2.315  14.167 -0.0656  0.3347 -0.2063
12918W        W13118  10.508  10.314   0.897  0.0855 -0.0294  0.0939
12919W        W13119   5.259   1.238   3.376  0.1425 -0.2897 -0.0253
12920W        W13120   7.085  11.903   9.623  0.2270 -0.3583  0.1114
12921W        W13121   3.327  14.522   6.180 -0.0320 -0.0521  0.0914
12922W        W13122  11.578  14.255   7.475  0.1051  0.0154 -0.0535
12923W        W13123   4.370  14.291   3.130  0.0304  0.4087  0.1958
12924W        W13124   9.511  11.634  13.575 -0.1325  0.1523 -0.2227
12925W        W13125   3.563  12.495  13.820  0.1647 -0.0457 -0.1440
12926W        W13126  11.132   1.876   9.066 -0.3414  0.0729  0.1688
12927W        W13127  12.281   4.904  11.757 -0.3314 -0.1393  0.0638
12928W        W13128   2.258   7.401   9.362 -0.1638  0.2660  0.0520
12929W        W13129   7.002   3.242  12.070 -0.0374 -0.0826 -0.2970
12930W        W13130   5.445  13.775   1.592 -0.0972 -0.0307 -0.1795
12931W        W13131   0.480   0.508   9.709 -0.1592 -0.0074 -0.0879
12932W        W13132   0.158  10.036   4.689 -0.1299 -0.0152  0.1572
12933W        W13133   2.561  14.399   2.320 -0.2181 -0.2105  0.0221
12934W        W13134  12.661  11.964   8.220  0.1557 -0.2210 -0.4027
12935W        W13135   6.802   1.993   2.843  0.2375 -0.3006 -0.2267
12936W        W13136   1.525   1.583   0.448 -0.1656  0.2689 -0.0933
12937W        W13137   5.052  10.486   6.582 -0.0258 -0.0102 -0.0779
12938W        W13138   4.793   8.166  13.689 -0.1665 -0.3694 -0.0415
12939W        W13139   7.554   4.149   1.995  0.0319  0.2635 -0.0457
12940W        W13140   5.312   7.809   5.225  0.0062 -0.2621 -0.2354
12941W        W13141   3.857   5.433   3.604  0.1946  0.1271  0.3032
12942W        W13142  10.464   8.880  12.816 -0.1713 -0.4193  0.1124
12943W        W13143   2.282  14.779   2.512 -0.2750 -0.0926  0.0384
12944W        W13144  13.053   9.510   4.917 -0.0277 -0.1924  0.0154
12945W        W13145   8.997   2.566   6.040  0.0823  0.0357 -0.0251
12946W        W13146   8.613   1.484   9.166  0.1289 -0.0050  0.0375
12947W        W13147  11.645  12.272  13.921 -0.0867 -0.2145  0.0008
12948W        W13148   9.644   8.728   3.794  0.0626 -0.0208  0.2898
12949W        W13149   7.886   2.056   4.777 -0.2763  0.0797 -0.0328
12950W        W13150  10.278  10.493   4.241  0.0440  0.0110 -0.3654
12951W        W13151   2.526   1.338  13.331 -0.0475  0.1052  0.2259
12952W        W13152   6.056   9.923  13.907  0.2386 -0.1450  0.1837
12953W        W13153  10.573   8.069  11.526  0.0100 -0.0812  0.1629
12954W        W13154   9.790   4.696  13.384  0.0937 -0.0335  0.4396
12955W        W13155  10.977   7.843   0.109 -0.0143  0.0826 -0.0130
12956W        W13156  14.400   1.387   9.546  0.0819  0.2492 -0.0681
12957W        W13157  13.928   5.818   0.461 -0.0955 -0.2124  0.0464
12958W        W13158   7.598  14.784   2.785 -0.0355 -0.0129  0.1394
12959W        W13159   5.646   6.403   7.479  0.3261  0.0260 -0.2465
12960W        W13160   6.734   7.522   7.286 -0.0074  0.2121 -0.2433
12961W        W13161   8.985   9.499  12.354  0.1603 -0.1081  0.0201
12962W        W13162  15.149   6.365   8.649 -0.0462 -0.1594 -0.2009
12963W        W13163   7.810   0.935  10.999 -0.2080 -0.1607 -0.2218
12964W        W13164   2.906   4.098   7.030  0.0338  0.1264  0.0246
12965W        W13165   3.238   3.022   8.456 -0.3406  0.3525  0.3275
12966W        W13166   6.051  13.601  14.478 -0.3477 -0.1181  0.0589
12967W        W13167   3.853  11.305  10.605  0.0627  0.1406 -0.1282
12968W        W13168  12.997   3.206  14.847  0.1990 -0.0583  0.1874
12969W        W13169   3.450  10.287  15.138  0.1641 -0.1627  0.0990
12970W        W13170  14.420  13.150  11.632 -0.0229  0.1027  0.0023
12971W        W13171   3.717  11.102   8.020 -0.1725 -0.0887 -0.3525
12972W        W13172  13.118  13.492  10.178  0.0077 -0.1787 -0.0330
12973W        W13173   1.984  13.429   9.371 -0.0154  0.4076  0.1469
12974W        W13174   6.243   0.827  10.398  0.2048 -0.0789 -0.0022
12975W        W13175   7.999  11.114   4.353  0.1398  0.1450  0.1880
12976W        W13176   2.030  14.425   6.920 -0.0418  0.2322 -0.4580
12977W        W13177   3.525  13.083   2.264 -0.2879 -0.0942  0.1941
12978W        W13178   2.714  10.015   3.420  0.1961  0.2631  0.0430
12979W        W13179   8.231   1.269  14.082  0.0865  0.0698 -0.1003
12980W        W13180   3.736   7.542   3.465 -0.1609  0.3178 -0.0299
12981W        W13181   9.574  14.633   1.109 -0.0408 -0.2564 -0.1678
12982W        W13182   6.788   1.500  10.169  0.1976  0.2191  0.4108
12983W        W13183   5.805   9.436   7.287  0.1739 -0.2372  0.0161
12984W        W13184  13.313   3.509   8.212  0.0936  0.1206 -0.0824
12985W        W13185  14.821  11.810  10.779 -0.1153 -0.0850  0.2734
12986W        W13186   4.907   4.120   5.877 -0.2072  0.0878 -0.1505
12987W        W13187   8.444  13.828   1.128 -0.0897 -0.1221  0.2487
12988W        W13188   0.772   6.520  14.159  0.1950  0.1696 -0.1072
12989W        W13189   6.053   0.731   2.236 -0.2922  0.0832  0.0823
12990W        W13190   5.046  13.903   7.184  0.2619 -0.3090 -0.0397
12991W        W13191   7.270   6.409  13.043 -0.0011  0.2250 -0.0017
12992W        W13192   3.202   5.510   1.415 -0.0042  0.0050 -0.1722
12993W        W13193   1.439  10.924  11.332  0.0790 -0.0401  0.0631
12994W        W13194   3.742  10.602   7.955 -0.0554 -0.2876  0.1266
12995W        W13195  13.684   1.875   6.593 -0.2589 -0.2321 -0.2577
12996W        W13196   6.037   7.766  14.295  0.0077  0.1978 -0.0573
12997W        W13197   0.153   9.644   6.790  0.0393 -0.0521  0.0540
12998W        W13198  13.778   8.987   6.348  0.0409 -0.0189  0.0934
12999W        W13199   5.885   1.123   9.435 -0.3866  0.2680  0.1163
13000W        W13200   3.126  13.761  11.493 -0.0561  0.0426 -0.1069
13001W        W13201  13.455   0.082  10.279 -0.0649  0.2765  0.0067
13002W        W13202   5.410   7.767   9.273 -0.2910  0.2329  0.1026
13003W        W13203  14.871  10.748   7.813  0.2717  0.0727 -0.2371
13004W        W13204   1.748  10.807   1.247 -0.0842 -0.0486 -0.0425
13005W        W13205  14.939   7.503  12.938 -0.0200 -0.3965  0.1155
13006W        W13206   4.878  13.931   8.068 -0.3008  0.1838 -0.1770
13007W        W13207   5.165   8.471  12.700  0.5019  0.3400  0.0171
13008W        W13208   3.850   7.446   6.782 -0.0278 -0.1954  0.2103
13009W        W13209   4.976   4.642   5.761 -0.0784  0.2048 -0.1783
13010W        W13210   5.596  12.778   0.674  0.4032 -0.1274  0.1509
13011W        W13211   2.572  13.580   1.147  0.0848 -0.0437  0.2015
13012W        W13212   5.107  13.631   8.943 -0.0332 -0.0335  0.3007
13013W        W13213  11.657  10.064   5.457  0.1046 -0.0291 -0.0245
13014W        W13214   4.960   0.826   8.916 -0.3467  0.1228  0.1003
13015W        W13215   5.349  12.034   0.574  0.2381 -0.1618  0.0473
13016W        W13216   0.638   2.946   4.533 -0.1420  0.1416  0.2144
13017W        W13217  12.205  12.203   0.561 -0.0859 -0.1773 -0.2145
13018W        W13218   6.370   0.668   5.678  0.0448  0.0636 -0.0094
13019W        W13219  11.624  13.669   5.017 -0.0946 -0.2330 -0.1674
13020W        W13220   1.416   1.472  14.387  0.1771 -0.1188 -0.1343
13021W        W13221   6.610   2.965   5.582  0.3092 -0.1731 -0.4075
13022W        W13222  14.865   5.185   7.000 -0.1992 -0.0363  0.0487
13023W        W13223  12.958  12.528  10.023  0.3062 -0.2205  0.0601
13024W        W13224   0.019  10.565   7.130  0.0806 -0.1556  0.5120
13025W        W13225   7.152   1.011   0.029 -0.0993 -0.1594  0.1960
13026W        W13226   3.805   8.630   2.873 -0.0514 -0.4666 -0.1793
13027W        W13227   4.154  11.871   7.954 -0.1058 -0.1455 -0.3330
13028W        W13228   9.867  12.033   6.789  0.5774 -0.4001  0.2279
13029W        W13229  10.959  10.926  14.502 -0.1193 -0.2025 -0.0773
13030W        W13230   3.676  11.912   7.719  0.1950 -0.3495 -0.2697
13031W        W13231   0.460  14.983   5.919 -0.1293  0.1170  0.0231
13032W        W13232  11.216  11.248   7.539  0.0269 -0.1263 -0.0374
13033W        W13233  11.084  14.934   3.845  0.3026 -0.4310  0.1202
13034W        W13234   5.418   1.700   6.711  0.0209  0.0614  0.1673
13035W        W13235  11.081   4.207   4.353 -0.1081 -0.1065  0.0663
13036W        W13236  10.599   4.751  14.293 -0.0650  0.2174 -0.2779
13037W        W13237   7.442   4.405  12.280  0.0514 -0.0067  0.1464
13038W        W13238  12.890   2.618  12.985  0.1182 -0.0765  0.0437
13039W        W13239   5.445   9.601  14.587 -0.0940  0.2168 -0.0839
13040W        W13240   7.395  13.823  11.221  0.0034 -0.1433 -0.1395
13041W        W13241  15.154  12.082   8.074  0.1658  0.2583 -0.0989
13042W        W13242  11.116   7.515   2.262  0.0825 -0.0981 -0.0478
13043W        W13243   1.675   9.323   5.535 -0.1561  0.1762 -0.1756
13044W        W13244   6.891   9.660  12.423 -0.0089  0.1220 -0.1281
13045W        W13245   0.249  14.132   2.995 -0.2401  0.1049 -0.3315
13046W        W13246  12.626   7.550  11.590  0.0626  0.3052  0.1154
13047W        W13247   0.305  14.764   6.935 -0.0229 -0.0312  0.0032
13048W        W13248   3.157   4.901  11.613  0.2645  0.2221  0.0254
13049W        W13249   4.175  11.747   7.485 -0.0832  0.1046  0.2739
13050W        W13250   8.777   0.655   5.782  0.3072 -0.1227 -0.0700
13051W        W13251  11.162   8.858  11.625 -0.0136  0.1685 -0.3347
13052W        W13252   5.464   1.137  12.982 -0.0977 -0.1523  0.2227
13053W        W13253   4.122  14.918   7.449 -0.0808  0.0813 -0.1394
13054W        W13254   9.772   2.170  15.170  0.0341  0.3040  0.0473
13055W        W13255   3.606  13.868   6.977 -0.2920  0.2467 -0.2180
13056W        W13256  10.605  13.259  10.604 -0.1329  0.3074  0.0932
13057W        W13257   2.966   9.006  10.581  0.1595  0.1867  0.1728
13058W        W13258  15.077   8.921   4.922 -0.2727 -0.2375 -0.2209
13059W        W13259   8.427  10.036  14.807  0.2947 -0.1536  0.0741
13060W        W13260   6.345  11.214  13.159  0.2622 -0.0177 -0.0269
13061W        W13261  14.414   7.393   9.726 -0.0190  0.2180  0.2171
13062W        W13262   7.652   2.435   7.595  0.2005  0.2832 -0.1927
13063W        W13263   1.943   3.994  11.117  0.3325  0.0785 -0.2218
13064W        W13264   1.750   2.117   2.877 -0.2810  0.3423  0.1046
13065W        W13265   4.943   4.565   9.700 -0.1032  0.2469  0.1269
13066W        W13266   1.514   0.671   1.686  0.0450 -0.0584 -0.1920
13067W        W13267   4.115   3.190   8.723 -0.1398 -0.2017 -0.0380
13068W        W13268   7.283  12.412   3.626 -0.0006  0.1318  0.2197
13069W        W13269   1.216  12.667  11.614 -0.0875 -0.0844  0.2105
13070W        W13270   6.234   4.576  11.855  0.2546  0.0166 -0.2128
13071W        W13271   8.036   9.201   9.246  0.1442 -0.1160 -0.0594
13072W        W13272   3.335  12.794   3.785 -0.2056 -0.3031 -0.5349
13073W        W13273   5.759   1.561   6.300 -0.0195  0.0800  0.1124
13074W        W13274  11.761  13.219   7.390  0.0505 -0.0003  0.4333
13075W        W13275  13.707   8.855   7.915  0.2116  0.0244  0.0358
13076W        W13276   4.010   1.312   3.301 -0.2249 -0.0930 -0.0744
13077W        W13277  11.757  14.582   6.429 -0.1658 -0.2983  0.2785
13078W        W13278  11.168  13.212   4.122  0.5401  0.3984  0.0913
13079W        W13279   2.786   1.007  10.561  0.3796  0.3250 -0.0605
13080W        W13280   4.025  11.592   4.884  0.0955  0.1300 -0.1622
13081W        W13281   9.684  13.320   4.610 -0.0266 -0.1818  0.1976
13082W        W13282   3.854   1.411   5.466 -0.1358  0.3571  0.0636
13083W        W13283  11.708  11.697  10.820 -0.1516 -0.1712  0.1542
13084W        W13284   8.370  10.231   7.287  0.0962 -0.2392  0.1899
13085W        W13285   8.483   8.497   6.080  0.0813 -0.2478 -0.1377
13086W        W13286  10.238   9.954   8.359  0.2030  0.0716  0.0847
13087W        W13287   3.667  14.664   5.269 -0.0989 -0.0873 -0.1054
13088W        W13288   6.723   1.920  10.450  0.0155 -0.2222  0.0508
13089W        W13289  13.014  13.477   5.252 -0.2037  0.0120 -0.2271
13090W        W13290  13.612   9.844   2.476  0.1407 -0.0926 -0.0269
13091W        W13291  14.608   2.011   1.829 -0.1255  0.1047  0.0484
13092W        W13292  10.921   5.013   8.849 -0.0379 -0.1965  0.0205
13093W        W13293   8.635   0.052   8.051  0.3000  0.2149 -0.0930
13094W        W13294   7.868   5.812   0.732  0.3613  0.0124 -0.1392
13095W        W13295   7.522   0.825   1.047  0.1603  0.1411  0.0865
13096W        W13296   8.124   6.498  12.049  0.1551  0.0013  0.1370
13097W        W13297   4.153  10.287  14.010 -0.3513  0.3608  0.3737
13098W        W13298   2.329   0.381  13.520  0.1860  0.0207 -0.2038
13099W        W13299   2.217   2.592   9.463 -0.1641  0.2726  0.2222
13100W        W13300   8.584  10.984   4.933 -0.2101 -0.3408 -0.0848
13101W        W13301  14.117   8.888   2.830  0.3059 -0.3478  0.0827
13102W        W13302  13.401  12.921  12.584  0.1275 -0.0869  0.0797
13103W        W13303   3.073  10.396   2.769  0.2255 -0.1006  0.0872
13104W        W13304   8.874   6.702   7.498  0.2260 -0.0438 -0.2924
13105W        W13305   9.519   7.571  13.212  0.3300 -0.1095  0.0049
13106W        W13306   6.011   6.432   5.121 -0.2657 -0.2889 -0.0847
13107W        W13307   4.291  10.182   9.335  0.0273  0.0897 -0.2386
13108W        W13308   6.131  12.568   4.956 -0.1348  0.0735 -0.2505
13109W        W13309   9.577   9.269  13.147 -0.1317 -0.2323  0.0740
13110W        W13310  13.825   0.801  10.608 -0.1748 -0.0378 -0.0332
13111W        W13311   5.562   8.916   3.889 -0.1147  0.1200 -0.2914
13112W        W13312   9.427   6.649   2.517  0.0240  0.1051  0.0988
13113W        W13313   3.556   2.206   8.347  0.2729  0.0086  0.0567
13114W        W13314   5.329   2.288   9.872 -0.0579 -0.0924  0.3158
13115W        W13315  10.553   1.294   8.591 -0.1033  0.1861  0.0553
13116W        W13316   6.583  12.492  12.441  0.0388 -0.2363 -0.0519
13117W        W13317  10.908   1.566  14.813 -0.0050  0.0039 -0.0939
13118W        W13318   4.700  15.027   8.180 -0.0590  0.1433  0.0397
13119W        W13319  15.043   6.020   2.360  0.0549 -0.5344 -0.0436
13120W        W13320   6.985   8.862  12.717  0.1442 -0.0782  0.1136
13121W        W13321   2.672   1.379  11.937 -0.0955  0.1880 -0.0079
13122W        W13322  13.825  13.815   2.356 -0.0124  0.1213 -0.0174
13123W        W13323  14.451   4.635   3.489 -0.1418 -0.0411 -0.2029
13124W        W13324   8.027  11.405   4.749  0.0385 -0.1337  0.0729
13125W        W13325   3.082   8.451  14.285  0.1872  0.4882  0.5098
13126W        W13326   5.028   7.550   0.969  0.2520 -0.3294 -0.0275
13127W        W13327   4.228   1.958   2.653  0.3267 -0.1015 -0.0146
13128W        W13328   8.063  10.445  11.926 -0.0239  0.1820 -0.0606
13129W        W13329   5.177  13.207  10.645 -0.4666  0.1345  0.0521
13130W        W13330  11.637  13.402   8.666 -0.0001  0.2170  0.0586
13131W        W13331  12.168  10.650   3.297 -0.1066  0.1902  0.2059
13132W        W13332   0.902   2.788   0.082  0.0506  0.0209  0.2482
13133W        W13333   7.687   9.312  14.711 -0.0021 -0.1211  0.1110
13134W        W13334   2.134  11.137   0.338  0.0267  0.3069 -0.0361
13135W        W13335   5.985   9.771  12.869 -0.0366 -0.2263 -0.1618
13136W        W13336   5.442  12.728  12.999  0.0108  0.2372  0.2364
13137W        W13337  14.972   9.776  11.548 -0.2658  0.1532  0.0643
13138W        W13338   1.676  13.089   2.705 -0.0662 -0.2218  0.0035
13139W        W13339   9.229  14.821   4.300  0.0345  0.3500 -0.0761
13140W        W13340  10.538   8.302   6.464 -0.1088  0.0360  0.3476
13141W        W13341   6.550   8.884   7.983 -0.0042  0.0872  0.2899
13142W        W13342  10.109   2.495   3.022  0.2533 -0.0944  0.0252
13143W        W13343   4.635  10.967   7.757 -0.1380  0.1683  0.0771
13144W        W13344   8.423  10.027   9.580 -0.2108 -0.0702  0.0122
13145W        W13345   1.854   8.078  14.287 -0.3008  0.1767  0.2074
13146W        W13346   5.163   5.131  14.431 -0.2056  0.0498  0.1256
13147W        W13347   6.395   2.868   2.931 -0.1335  0.1403  0.1883
13148W        W13348  14.631   3.747   2.600  0.3552  0.2341 -0.3047
13149W        W13349   5.994  13.836  10.463  0.1224 -0.1592 -0.0490
13150W        W13350  13.237  13.360   9.564 -0.2643  0.0105 -0.1850
13151W        W13351   5.417   2.834   6.517  0.0774 -0.4251 -0.2918
13152W        W13352  11.184   9.411   6.252 -0.0914  0.1478  0.2481
13153W        W13353   4.234   2.688   4.392 -0.0191 -0.1930 -0.1164
13154W        W13354   5.540  13.186  13.232  0.1547  0.1943  0.0633
13155W        W13355   3.232  13.387   0.517 -0.2703  0.1241 -0.1327
13156W        W13356  13.006   8.694   5.269  0.1822  0.2716  0.1912
13157W        W13357   8.006  11.721   7.490  0.2089 -0.0613  0.2631
13158W        W13358  11.559   7.088  10.915  0.1422 -0.0663  0.1061
13159W        W13359   4.156  13.944  10.549 -0.2683 -0.1973  0.0687
13160W        W13360   6.008  11.955   1.221 -0.1472 -0.0837 -0.0463
13161W        W13361   5.368  12.706  15.149 -0.1669  0.3001 -0.0040
13162W        W13362   3.647  10.458   7.181  0.0033  0.1334 -0.1173
13163W        W13363   3.680   4.380   9.437  0.3622 -0.1954 -0.0471
13164W        W13364   6.656   1.151   8.718 -0.2200 -0.3115  0.0734
13165W        W13365   8.445   7.378  13.158  0.1050  0.1428  0.0310
13166W        W13366   6.231   2.600   0.788 -0.3248  0.0736 -0.1414
13167W        W13367   1.704  10.005  15.115 -0.1001  0.4028 -0.1755
13168W        W13368  10.834  11.602   7.395  0.0301  0.0508  0.0879
13169W        W13369   4.882  11.011   7.228 -0.2052 -0.3528 -0.0032
13170W        W13370   2.627   4.649   5.007  0.3187  0.0904  0.2380
13171W        W13371   6.867  11.820   8.601  0.0101 -0.1709  0.1032
13172W        W13372  13.125   0.152  12.892 -0.0437 -0.2660  0.1159
13173W        W13373  14.824  13.140   4.808 -0.0243 -0.2351 -0.1378
13174W        W13374   0.942   8.930   5.844  0.2992 -0.1181  0.1730
13175W        W13375  11.492  12.920  14.363  0.1879  0.0354 -0.1110
13176W        W13376  14.128  14.958   0.580  0.0027  0.0525  0.0399
13177W        W13377  12.800   3.965   7.530 -0.0071  0.0129  0.1126
13178W        W13378   7.514   5.979   4.899  0.0612 -0.0055 -0.1344
13179W        W13379  10.270   1.617  12.129 -0.2346 -0.1751 -0.0605
13180W        W13380   3.270   0.037   9.424  0.1159  0.0402 -0.0893
13181W        W13381   6.945   1.189   3.904  0.0382 -0.2164 -0.2167
13182W        W13382   4.377   1.529   9.326 -0.1027  0.1847  0.1952
13183W        W13383   8.442   1.011   9.083 -0.3869 -0.1049 -0.4297
13184W        W13384  13.088  13.253   0.525 -0.0156  0.0660  0.1130
13185W        W13385  13.857  11.630  12.513 -0.1542 -0.0809 -0.1960
13186W        W13386   3.786   4.878   3.941  0.2548 -0.1145  0.1081
13187W        W13387  13.083   0.312   1.852 -0.2210  0.2327  0.0362
13188W        W13388   4.562   3.504  14.190  0.1508  0.2855 -0.3631
13189W        W13389   6.155  14.857   0.576  0.2742 -0.0854  0.0524
13190W        W13390  13.667  13.391   3.543 -0.2312  0.4550 -0.3346
13191W        W13391   1.323   5.008  11.603 -0.0868  0.2662 -0.0447
13192W        W13392   4.626   8.921   4.367 -0.1754 -0.0536  0.3384
13193W        W13393  12.064  10.912   9.178  0.0897  0.2272 -0.1532
13194W        W13394   9.953  14.700  12.156 -0.0092  0.0612 -0.0530
13195W        W13395   0.795  10.910   2.024 -0.1002 -0.0876  0.2913
13196W        W13396   2.681  13.887  13.808 -0.0494 -0.1105  0.0537
13197W        W13397   2.218   7.920  13.948 -0.1093 -0.0374  0.2896
13198W        W13398   1.422  12.140   5.625  0.2537 -0.4541 -0.2046
13199W        W13399   3.578  12.637  13.361  0.2314 -0.2522 -0.0362
13200W        W13400   9.867   9.292  11.417  0.3049  0.1851 -0.2862
13201W        W13401   3.597   1.176  11.765  0.0618  0.2187 -0.1800
13202W        W13402  15.179   1.517   9.347  0.2417 -0.0144  0.4368
13203W        W13403   3.026   8.905  11.048 -0.0946  0.2767  0.1422
13204W        W13404   3.687  12.237  10.756 -0.2477 -0.0427 -0.0275
13205W        W13405   4.035  14.137   6.750  0.1579  0.1071  0.0629
13206W        W13406  13.044   7.996   3.902 -0.1808 -0.0699  0.1180
13207W        W13407  10.908   2.699   2.245 -0.1325  0.0943 -0.0827
13208W        W13408  14.128   2.818   6.764 -0.0323  0.0830  0.0538
13209W        W13409   7.210   1.343   0.902 -0.1051 -0.1438  0.0692
13210W        W13410   9.082  11.202  11.885  0.2846 -0.1511 -0.2705
13211W        W13411   4.770  11.924   6.943  0.1665  0.1989  0.1077
13212W        W13412  10.171   3.780  10.830 -0.2320  0.0209 -0.1396
13213W        W13413   7.256  10.880  11.716 -0.0143  0.2563 -0.2513
13214W        W13414   7.808  12.461  13.295 -0.1167  0.3580  0.0740
13215W        W13415   1.499   2.588  11.995 -0.1263 -0.1937  0.1907
13216W        W13416  11.288  11.417   5.563 -0.0092 -0.0381  0.3759
13217W        W13417   6.583   8.418   6.695 -0.1503 -0.2575  0.0138
13218W        W13418   5.142  14.903   9.546 -0.1459 -0.2917  0.0545
13219W        W13419  11.492   3.911   6.575 -0.0673  0.0477 -0.0693
13220W        W13420  14.312   2.183   6.715  0.0983  0.0909 -0.1203
13221W        W13421  11.390   9.047  12.143  0.0134  0.0115 -0.0690
13222W        W13422  14.671  13.222  12.061 -0.0586  0.1525 -0.0081
13223W        W13423   0.988  12.093  12.374  0.0863  0.0987  0.2128
13224W        W13424   1.212  11.541   4.513 -0.1147 -0.0590 -0.1171
13225W        W13425   7.994   8.632   7.224 -0.2258  0.0523  0.3233
13226W        W13426   5.273   2.712   3.489  0.2914  0.2074 -0.0261
13227W        W13427  12.789  12.221  13.048  0.0924  0.1605  0.2196
13228W        W13428   3.323  14.441   7.582  0.0928 -0.3214  0.0939
13229W        W13429   9.674   3.324   6.234 -0.2442  0.0093  0.0237
13230W        W13430   0.853  11.492   4.131 -0.0792 -0.0711 -0.0161
13231W        W13431   1.363  11.912   6.612  0.1496 -0.0837 -0.1060
13232W        W13432  10.076  12.622   0.218 -0.2339  0.3726  0.0707
13233W        W13433   8.172  11.913  12.264 -0.2219  0.0191 -0.1361
13234W        W13434  11.695  14.634  14.835 -0.3172 -0.1113  0.0070
13235W        W13435   2.168   7.124   1.569  0.0022 -0.1007 -0.3948
13236W        W13436   4.529   0.053   3.358  0.3004 -0.3361 -0.1869
13237W        W13437   9.961  13.452   5.536 -0.0802 -0.3190 -0.1791
13238W        W13438   1.453   8.683  11.540  0.1162 -0.0982 -0.0055
13239W        W13439   9.496  11.516   3.303 -0.0794 -0.3283  0.1672
13240W        W13440   7.576  12.890   6.419  0.0028  0.1680  0.0927
13241W        W13441  10.266   0.682   7.837  0.2482  0.2314 -0.2260
13242W        W13442   0.149  11.304  11.825  0.0185 -0.0122 -0.1733
13243W        W13443   5.038   9.722   6.145  0.0866  0.0443 -0.3421
13244W        W13444   5.475   8.404   3.832  0.1411  0.4306  0.0018
13245W        W13445   8.146   9.860   2.041 -0.1138 -0.0537 -0.2126
13246W        W13446   4.084  12.583   9.706  0.2373  0.0939 -0.1584
13247W        W13447   5.069  11.236   4.735  0.0014 -0.0706  0.2493
13248W        W13448  11.341   7.574   6.902 -0.1807 -0.1184 -0.1885
13249W        W13449   9.122   3.495   3.406 -0.2945  0.1674  0.0260
13250W        W13450   2.111  14.319  13.259  0.0160 -0.3199  0.1292
13251W        W13451   2.583  10.030  13.475  0.0440  0.1760 -0.2040
13252W        W13452   0.361  14.555  10.655  0.0829  0.2277 -0.2323
13253W        W13453   7.110   8.876   8.641 -0.5222 -0.1237 -0.3826
13254W        W13454   7.678   9.979   2.426  0.1654 -0.0339  0.0991
13255W        W13455  10.865  12.854   7.914 -0.0420 -0.1799  0.0892
13256W        W13456   4.619  13.535   0.154 -0.0210 -0.1985  0.0939
13257W        W13457  11.646  12.939   1.129  0.1757  0.1447  0.1048
13258W        W13458   4.844   9.632  11.724 -0.1545 -0.2174 -0.2334
13259W        W13459   9.896  10.019  14.834 -0.1478  0.1220  0.3024
13260W        W13460   8.053  12.399  13.852  0.0572  0.1138 -0.0278
13261W        W13461  12.424  15.085  12.541 -0.0480  0.2630  0.0900
13262W        W13462   1.343   4.445   2.641  0.2055 -0.2751  0.0036
13263W        W13463   1.337  14.659   1.096 -0.4864  0.0239 -0.0330
13264W        W13464   9.957   2.084   8.407 -0.1828 -0.1821  0.0191
13265W        W13465   8.262  11.620   3.994  0.3571 -0.0516 -0.0249
13266W        W13466   5.411   6.170  10.586 -0.0589 -0.2887 -0.0439
13267W        W13467  12.242   6.128  12.087  0.2103  0.3000 -0.1599
13268W        W13468   2.280   1.771   5.078 -0.1085  0.0578 -0.1723
13269W        W13469   0.369   7.640  12.663  0.0649  0.1936  0.0583
13270W        W13470   6.969   6.667  13.400  0.2255 -0.0145  0.2521
13271W        W13471  12.464   8.229  11.871  0.1002 -0.1275  0.0873
13272W        W13472  10.794  13.469   3.262  0.0724 -0.1323 -0.1939
13273W        W13473   6.605   0.362  13.149  0.2418 -0.3408  0.0328
13274W        W13474   8.686   2.245  12.882  0.1065  0.3269  0.1796
13275W        W13475   3.140   0.952   9.340 -0.2822 -0.0920 -0.3836
13276W        W13476   2.489  14.440  11.581  0.1029  0.0382  0.0757
13277W        W13477  11.947  12.122   0.147 -0.2960 -0.3561  0.2794
13278W        W13478   6.321   2.233  10.996 -0.2038 -0.0724  0.2283
13279W        W13479  11.306  12.976  11.735 -0.2179 -0.1409 -0.0600
13280W        W13480  15.003   2.896  10.296 -0.1756  0.0133  0.1954
13281W        W13481  13.342  11.044   8.986  0.0226 -0.0252 -0.0692
13282W        W13482   9.397  11.595  11.686 -0.2467  0.0868  0.0215
13283W        W13483   5.869  11.352  13.787  0.1605 -0.1202  0.1152
13284W        W13484   6.372  14.119  11.367  0.3099 -0.1394  0.4079
13285W        W13485   4.214  14.114  11.492 -0.0350  0.1950 -0.2634
13286W        W13486   3.680  14.098   6.363  0.0176  0.2275  0.1022
13287W        W13487   9.815   6.336   2.416  0.4069  0.1417 -0.0449
13288W        W13488  11.888   7.275   8.774 -0.1980 -0.1253  0.3734
13289W        W13489  10.442  12.419  15.137  0.1066  0.1595 -0.0005
13290W        W13490   1.049   0.197   8.403 -0.4164 -0.2799  0.0180
13291W        W13491   3.421   9.266   0.332 -0.2314  0.2385 -0.1075
13292W        W13492   5.844   9.289  11.496 -0.0912  0.0504 -0.1310
13293W        W13493   0.211   0.001   8.757  0.2216 -0.1230 -0.0016
13294W        W13494  14.237   9.554  12.648 -0.0410 -0.1881 -0.0645
13295W        W13495  13.555  11.140   2.652 -0.0880  0.3024  0.2408
13296W        W13496   0.788  11.348   3.284  0.0879 -0.0455  0.0083
13297W        W13497   6.748  11.398   7.748 -0.0707  0.0380  0.2758
13298W        W13498   4.897  12.869   1.635  0.1982 -0.2006 -0.4740
13299W        W13499   6.027   3.772   1.408  0.0773  0.1350 -0.4409
13300W        W13500  14.489   3.456  15.157 -0.1231  0.0424 -0.2253
13301W        W13501   9.100   3.559   4.633 -0.0223  0.0603 -0.3144
13302W        W13502  15.105   6.893  14.813  0.0582 -0.0366 -0.4218
13303W        W13503   9.927   9.537  11.879 -0.1705  0.0153 -0.0624
13304W        W13504  11.175  11.917  12.279 -0.0878 -0.0382  0.1956
13305W        W13505  13.525   7.342   2.762  0.1242  0.0191 -0.0971
13306W        W13506  14.881   0.798   6.506  0.1557 -0.1748  0.1294
13307W        W13507  13.679   7.043   4.111 -0.1217  0.0462  0.1103
13308W        W13508  11.150  13.946   3.933  0.0618 -0.0209 -0.3540
13309W        W13509   8.882  12.579   0.461  0.2166  0.2182  0.1523
13310W        W13510   6.789  13.058  11.736  0.0018 -0.0938 -0.2223
13311W        W13511   5.122   6.344   1.461  0.1240  0.1350  0.4293
13312W        W13512   1.743  13.207   1.343  0.0282 -0.4317 -0.0903
13313W        W13513   6.474   8.543  11.871  0.1380 -0.2298  0.1954
13314W        W13514  14.749   2.832   7.325  0.0099 -0.0756 -0.0453
13315W        W13515   3.815  10.134   0.255 -0.0586 -0.0492 -0.0175
13316W        W13516  14.489   3.992  11.285  0.2436  0.0339 -0.3474
13317W        W13517  13.616   6.789   1.911  0.0991  0.0827 -0.2782
13318W        W13518   2.320  10.113   5.364 -0.1992 -0.1931  0.2433
13319W        W13519   7.160  11.031  13.421 -0.1437  0.1083 -0.2907
13320W        W13520   9.943   9.864   9.709 -0.0819 -0.2203  0.1627
13321W        W13521   8.562   9.374   7.939  0.0811  0.1267 -0.0782
13322W        W13522   9.632  14.560  14.780 -0.0733 -0.0179 -0.0657
13323W        W13523   9.636   4.596   4.822  0.2140 -0.2409  0.2438
13324W        W13524   2.881  14.426   0.385 -0.0440  0.1029  0.1800
13325W        W13525   3.475  11.058  13.327 -0.4866 -0.2876 -0.0319
13326W        W13526   3.275   9.636  11.166 -0.3073 -0.0470 -0.2472
13327W        W13527   5.724  11.836  11.981  0.1962 -0.0906  0.1402
13328W        W13528   0.125   6.541   7.812 -0.1759 -0.0731  0.0031
13329W        W13529  13.775  14.578  14.810  0.0765  0.1107  0.1268
13330W        W13530   4.220   8.778   0.462 -0.1920 -0.0774  0.1363
13331W        W13531   9.047  13.300   2.371  0.0280 -0.1638 -0.2109
13332W        W13532   0.924  13.505  13.533 -0.0391  0.0508 -0.2201
13333W        W13533  12.400  10.714   7.259 -0.1836 -0.0061 -0.3033
13334W        W13534   5.503   1.020   9.827 -0.1282  0.4475 -0.0161
13335W        W13535   2.505  12.473  13.879  0.0150 -0.1875 -0.2797
13336W        W13536   8.099  12.597  14.498 -0.0209  0.0434 -0.1551
13337W        W13537  10.458   0.261   9.455 -0.1144 -0.2363 -0.1599
13338W        W13538   9.451   2.018  12.329  0.0852 -0.1127 -0.1534
13339W        W13539  14.428   7.773   6.478  0.0787  0.3209  0.1439
13340W        W13540   1.303   9.140  13.576 -0.1494  0.3530  0.1187
13341W        W13541   5.962  11.968  10.360  0.1260 -0.0730 -0.2196
13342W        W13542  15.128  11.379   4.959  0.0901 -0.0256  0.1930
13343W        W13543   3.094   1.094  14.009 -0.1468  0.0887  0.5959
13344W        W13544   0.192   1.020   0.623  0.0263  0.2434  0.1332
13345W        W13545   9.335   8.589   3.373 -0.1184  0.1170  0.0826
13346W        W13546   8.041  14.432   4.172 -0.1402  0.0227 -0.2228
13347W        W13547  13.061  12.608  12.810 -0.0777  0.0922  0.4275
13348W        W13548  12.593   5.097  14.527  0.0071 -0.1653 -0.1842
13349W        W13549   2.631   8.389  14.891  0.2175 -0.3846  0.0772
13350W        W13550   3.560  10.253   3.141  0.1544  0.2445  0.2972
13351W        W13551   8.688   8.905  14.441  0.0057  0.3199  0.0748
13352W        W13552  13.874  14.330   1.010  0.1881 -0.0802  0.2387
13353W        W13553   7.641   6.424  11.712 -0.0284  0.1034 -0.3187
13354W        W13554   5.017   0.738  11.130  0.0395 -0.0894  0.3239
13355W        W13555   0.256  14.130   0.382 -0.0231 -0.2567 -0.0185
13356W        W13556  10.566  13.311  14.926  0.1304 -0.1440  0.0575
13357W        W13557   6.068  14.055   0.284  0.2911  0.1253  0.1614
13358W        W13558  15.131  13.620  12.351  0.1501  0.0624 -0.0188
13359W        W13559  10.449   1.777   7.643  0.0027  0.1181  0.0085
13360W        W13560   6.252  12.821   6.325 -0.1015 -0.0212 -0.3777
13361W        W13561   5.445  11.611   3.563 -0.2671 -0.1010 -0.0242
13362W        W13562   6.012   9.077  13.584  0.2381  0.1471  0.2359
13363W        W13563   0.735  10.005   4.505  0.0021  0.0288  0.0039
13364W        W13564   4.756   5.425   4.703 -0.1463 -0.0759  0.2620
13365W        W13565   6.040   4.494  13.887 -0.1658 -0.0127 -0.1663
13366W        W13566  14.914  12.404   0.131 -0.2748 -0.0573 -0.1740
13367W        W13567  14.236   3.321  14.423 -0.0887 -0.3951  0.0344
13368W        W13568   5.921   2.886   5.656 -0.1786  0.2485  0.0133
13369W        W13569   2.221   0.381   7.157  0.1728 -0.0867 -0.0173
13370W        W13570  14.890  10.286   3.363 -0.3314 -0.0059  0.6487
13371W        W13571  12.368  12.244   6.629 -0.0417  0.2414 -0.0199
13372W        W13572  11.690   9.963   4.928  0.0671 -0.4944  0.0392
13373W        W13573   7.094  12.717   3.170 -0.0792 -0.2683 -0.1214
13374W        W13574   8.334   7.991  13.520 -0.0448 -0.0037 -0.1598
13375W        W13575   5.281  10.755   8.891  0.2291 -0.3878 -0.0140
13376W        W13576   1.044  11.384   2.825 -0.0718 -0.0789  0.3965
13377W        W13577   5.921   9.370  14.368 -0.1876  0.1763  0.0056
13378W        W13578   4.945   4.479  13.531  0.1944 -0.1429  0.0644
13379W        W13579   5.788  13.627  13.139  0.1060  0.1091  0.4367
13380W        W13580   4.778   3.997   9.662  0.2204 -0.0573  0.0969
13381W        W13581   8.792  10.817   1.051  0.1254 -0.0148  0.3085
13382W        W13582   4.226   4.949  13.688  0.0904 -0.2880 -0.0046
13383W        W13583   7.572  12.684   1.879  0.2467 -0.1059  0.0234
13384W        W13584   9.206  14.747  12.480  0.0035  0.2523 -0.0219
13385W        W13585   0.926  10.095   3.612  0.1160 -0.1492 -0.1476
13386W        W13586   8.230   6.250   7.034 -0.1586  0.0937  0.1274
13387W        W13587   2.144   6.788  14.054 -0.0078  0.2565 -0.1411
13388W        W13588   7.134   7.432  11.005 -0.0270 -0.1295  0.2347
13389W        W13589   0.038  11.332   0.439  0.2703  0.0176  0.0771
13390W        W13590   1.057  12.640   2.076 -0.1886 -0.2393  0.1795
13391W        W13591   3.482  14.591  13.521  0.1477 -0.1600 -0.1302
13392W        W13592   8.565  11.778  10.328  0.1350 -0.0231 -0.0155
13393W        W13593   6.527   3.434  11.819  0.2063  0.1699 -0.2619
13394W        W13594   3.315   8.116   0.964  0.3554  0.1047  0.0843
13395W        W13595   7.549  12.709  10.627 -0.2193  0.1554  0.0055
13396W        W13596   3.832   7.773   9.998  0.0005  0.1569  0.1883
13397W        W13597   5.533  10.703   3.332  0.3013  0.1241 -0.2334
13398W        W13598   7.497   0.076  13.598  0.0642  0.0082  0.0146
13399W        W13599   0.134   9.959  10.216 -0.2872 -0.0428  0.0582
13400W        W13600   7.193  13.001  12.031 -0.0656  0.0203 -0.0556
13401W        W13601   9.245  12.871   4.500 -0.1651  0.2293  0.0932
13402W        W13602   7.877  14.393   2.933  0.2767  0.0731 -0.1277
13403W        W13603   4.767   7.078   0.846 -0.2535  0.0433  0.1826
13404W        W13604  11.569   3.618  14.616  0.0397 -0.2052  0.0505
13405W        W13605  11.431   9.449   5.405 -0.4286  0.0432  0.3569
13406W        W13606   5.014   8.661  11.821 -0.2438  0.3022 -0.1274
13407W        W13607   2.608   5.187  14.997 -0.1885 -0.0872 -0.1342
13408W        W13608  13.082   9.652  11.851 -0.2122  0.1749  0.0312
13409W        W13609  13.204   9.967  14.059  0.1398  0.1268  0.2982
13410W        W13610   9.231  10.710  10.553 -0.2376  0.1359 -0.0057
13411W        W13611   3.890   3.243   6.898  0.1201  0.1152 -0.0148
13412W        W13612   4.055   2.020   6.259 -0.0509 -0.2116  0.0807
13413W        W13613   6.785  14.596  13.282 -0.1639 -0.1973 -0.1589
13414W        W13614   8.616   4.462  11.462 -0.1227  0.0839  0.2721
13415W        W13615   4.986   7.462  12.522  0.0592  0.0829 -0.2682
13416W        W13616   5.675  13.020  14.878 -0.0685  0.1298 -0.2115
13417W        W13617   7.832  12.970  14.543 -0.0934 -0.1172  0.3101
13418W        W13618   8.835  13.825   0.812 -0.0830 -0.0965  0.1747
13419W        W13619   3.659   1.735   6.190  0.1950  0.0346 -0.0913
13420W        W13620   7.511  11.871   4.775 -0.1424  0.1148 -0.0339
13421W        W13621  11.208  14.129   0.207 -0.1009  0.1018  0.1604
13422W        W13622   4.726   9.869   9.983  0.2399 -0.0766  0.1441
13423W        W13623   9.311   5.598   9.625 -0.0630  0.0099 -0.0486
13424W        W13624   3.869   1.945  12.402  0.0707 -0.0553 -0.3162
13425W        W13625   5.979   5.204  13.404 -0.2243 -0.0189 -0.2933
13426W        W13626   3.822  14.655   9.397 -0.2535  0.3179  0.1247
13427W        W13627  10.763  12.932  12.026  0.1617 -0.0999  0.0184
13428W        W13628   5.472   9.160  11.962  0.2506 -0.1742  0.1901
13429W        W13629   8.732  10.004   5.043  0.2056 -0.1540  0.0977
13430W        W13630  13.354   3.829   0.933  0.1716  0.2785 -0.0324
13431W        W13631   5.424   4.172  10.302  0.1297 -0.2223 -0.1293
13432W        W13632   0.138   2.795   3.251 -0.0695  0.1311  0.1107
13433W        W13633   3.675  14.172   1.186  0.2884 -0.2813 -0.1117
13434W        W13634   3.568  10.535  13.077 -0.2136  0.0844  0.2945
13435W        W13635   2.993   1.097   7.717 -0.1038 -0.0771 -0.1222
13436W        W13636   9.796   4.974   1.362 -0.1337  0.0887  0.1525
13437W        W13637   8.307  10.956   3.240 -0.0535 -0.1742  0.1682
13438W        W13638  12.908   5.819   9.735  0.1198  0.1831 -0.2269
13439W        W13639   0.497  13.142  10.687 -0.0018 -0.1219 -0.0788
13440W        W13640   0.127   9.057   7.625 -0.1238  0.4996  0.1340
13441W        W13641   4.014  13.893   4.777 -0.0906  0.2305 -0.1622
13442W        W13642   8.940   3.824   6.525  0.1530 -0.0070 -0.0008
13443W        W13643   5.756   7.835   7.441 -0.1186 -0.0228 -0.1084
13444W        W13644   4.590   7.396  13.202 -0.0905 -0.1035 -0.0241
13445W        W13645   0.167   2.092   8.179  0.1426 -0.1204 -0.1723
13446W        W13646   1.455   3.712  12.056 -0.0749  0.1489  0.0902
13447W        W13647   2.588   9.743   4.884 -0.1603 -0.0531 -0.4498
13448W        W13648   6.084   9.912  14.926  0.1484 -0.0785  0.2486
13449W        W13649   9.911   8.758  13.036 -0.1588 -0.0821 -0.3067
13450W        W13650   3.197  11.844  11.048  0.2689 -0.1267  0.2183
13451W        W13651   5.096  12.498  10.887 -0.0852 -0.2156  0.2578
13452W        W13652   3.149  12.172  12.590  0.2896 -0.0181 -0.4636
13453W        W13653   7.425   7.784  10.275  0.0256 -0.2352 -0.2645
13454W        W13654   4.533  11.169  12.399  0.0865  0.0911  0.0528
13455W        W13655   6.519  12.113   1.259 -0.1111  0.0548  0.2394
13456W        W13656   2.231   8.339   9.979  0.1501 -0.1893 -0.2786
13457W        W13657  14.528  10.574  12.799  0.1243  0.0435 -0.2308
13458W        W13658   0.411  13.661  10.037 -0.2957  0.5116 -0.2327
13459W        W13659  14.512  11.279   3.388 -0.1808  0.0908  0.2243
13460W        W13660   8.355   7.118   6.278 -0.2345 -0.2313 -0.0638
13461W        W13661   6.188   6.464  10.163  0.2773 -0.0992  0.2092
13462W        W13662   9.775  11.054   0.592  0.1363  0.0232  0.3979
13463W        W13663   6.323   9.247   6.565  0.2223  0.0923  0.1948
13464W        W13664   0.107   9.292   3.521 -0.1723  0.2436 -0.0162
13465W        W13665   7.352   3.398  13.511  0.0944 -0.0198 -0.0912
13466W        W13666   9.029  14.941  11.036 -0.0820  0.0407  0.0069
13467W        W13667   3.408   7.919  13.917  0.0286 -0.0035  0.0347
13468W        W13668   7.276  11.385   6.687 -0.1780 -0.1796 -0.3060
13469W        W13669   9.341  12.332   0.289 -0.1597 -0.1695 -0.0926
13470W        W13670   6.464   1.268  10.492  0.0813 -0.0987 -0.0240
13471W        W13671  10.397  11.184   3.518  0.0607  0.0834  0.1574
13472W        W13672   4.627  10.205  14.051 -0.1105  0.0518 -0.2404
13473W        W13673  11.065   3.529  13.420  0.1556  0.2294 -0.0106
13474W        W13674   5.424   8.344  14.613 -0.1133 -0.2380 -0.1090
13475W        W13675   5.769   1.269   2.976 -0.2457 -0.3849  0.2579
13476W        W13676  11.690   6.064   0.225  0.2562 -0.3579  0.1719
13477W        W13677   2.173  11.555  15.177 -0.0308  0.1680 -0.5062
13478W        W13678   8.693   8.679   0.111  0.0105 -0.4571 -0.1756
13479W        W13679   8.882   2.397   3.865 -0.1206 -0.2267 -0.2048
13480W        W13680  10.650   9.252   1.301 -0.1931 -0.1597  0.0258
13481W        W13681   8.794  14.332   7.362 -0.1062  0.0942  0.0157
13482W        W13682   1.664   1.316   5.742  0.1876  0.1085 -0.1696
13483W        W13683   7.322   9.952  11.281 -0.2714  0.2577  0.1487
13484W        W13684   6.497   0.559   2.976  0.1401  0.0284  0.2888
13485W        W13685   8.810   9.752  14.647 -0.1210 -0.0722  0.1215
13486W        W13686   3.241   0.042   0.206 -0.1652 -0.0100  0.1208
13487W        W13687  10.194   5.884   8.065  0.2078  0.1018 -0.1612
13488W        W13688   0.388   1.899   6.254 -0.0028 -0.2493  0.0328
13489W        W13689  14.393   3.766  12.766  0.2120  0.0430  0.1390
13490W        W13690   4.084  11.380   5.809 -0.1176 -0.2325 -0.0136
13491W        W13691   8.148  13.074   7.754  0.4256  0.2979  0.2712
13492W        W13692   8.836  12.027   3.599  0.4629 -0.1129 -0.0028
13493W        W13693   0.182   4.769  14.104  0.1884  0.0665  0.2286
13494W        W13694  10.446  10.018   1.408 -0.2887  0.1342 -0.0144
13495W        W13695  12.984  12.642  12.295 -0.2428  0.2118 -0.2386
13496W        W13696  11.774  14.901   7.683 -0.0251  0.3670  0.0160
13497W        W13697  14.187  13.994   0.285  0.2621 -0.1195  0.0073
13498W        W13698   9.358   2.747   8.791 -0.1346  0.4374  0.2782
13499W        W13699   3.790   9.289  13.374  0.2021  0.3686 -0.1084
13500W        W13700   2.233   9.301   7.124 -0.2813  0.1139 -0.0352
13501W        W13701  11.223   4.201   9.354  0.0452 -0.2113 -0.0335
13502W        W13702   1.528  12.296   1.907 -0.1343 -0.2251  0.1695
13503W        W13703   6.322   7.474   0.255  0.0578 -0.1263 -0.0205
13504W        W13704   8.630   7.732   1.929  0.0187 -0.0615  0.3431
13505W        W13705   4.281  11.200   7.470  0.0133  0.1429 -0.1268
13506W        W13706   9.543  13.420  12.628 -0.0851 -0.0440 -0.1970
13507W        W13707  11.975   9.503   9.818  0.1314  0.0064  0.0869
13508W        W13708   0.619   9.800   1.830 -0.0621  0.2090  0.0323
13509W        W13709  10.099  14.612   6.423  0.0687  0.0497  0.1017
13510W        W13710   7.300   4.044  13.648  0.0258 -0.4882 -0.0575
13511W        W13711   7.840  11.393   8.221  0.0652  0.2043  0.3841
13512W        W13712   7.298  14.130   3.512  0.0457  0.3479 -0.0092
13513W        W13713   7.852   1.090  12.067  0.0586 -0.0528 -0.1470
13514W        W13714   7.523   8.564   1.414 -0.0785 -0.4385 -0.1573
13515W        W13715   2.837   9.092   0.284  0.0788 -0.2486 -0.2646
13516W        W13716   6.684   0.551   0.435  0.2784  0.2028 -0.0536
13517W        W13717   4.654   2.492  12.002 -0.0183 -0.0618 -0.0269
13518W        W13718   5.734   2.936   9.263 -0.2399  0.2314 -0.0575
13519W        W13719  14.141   1.563   4.469 -0.1039 -0.2544 -0.0160
13520W        W13720   4.974   2.669  14.775  0.0041 -0.1291  0.0403
13521W        W13721   0.517   4.922  11.930 -0.0070 -0.0626 -0.1099
13522W        W13722   5.904  13.414  10.097  0.2697 -0.1913 -0.0030
13523W        W13723   2.947   8.286   0.620  0.0843  0.3550  0.1523
13524W        W13724   5.085  15.069   8.583 -0.1414  0.0801 -0.3857
13525W        W13725   6.665   0.223  11.360  0.2422  0.1664 -0.0645
13526W        W13726  12.191   4.561  13.751 -0.1429 -0.0351 -0.1527
13527W        W13727   6.987   2.442   8.500  0.0991  0.2659 -0.1844
13528W        W13728   5.594   8.137   8.536 -0.1614  0.0489  0.2802
13529W        W13729   6.884   4.200  13.031  0.0313  0.2295 -0.0446
13530W        W13730   0.032   4.639   9.297 -0.1228 -0.0024  0.1233
13531W        W13731   4.828  13.548  11.019  0.0632  0.1624 -0.0431
13532W        W13732   8.733   7.527  11.488 -0.2382 -0.1356 -0.2474
13533W        W13733   4.209  12.580  15.074 -0.1801  0.0066 -0.0094
13534W        W13734   8.805   5.371   1.538 -0.0762  0.0775 -0.0608
13535W        W13735   6.099  13.609   8.352 -0.2549  0.4140  0.0173
13536W        W13736   6.995  12.434  12.921  0.0070  0.4086 -0.3145
13537W        W13737   0.010   1.597   6.177 -0.1303 -0.1116 -0.0773
13538W        W13738   2.074   2.580   5.885 -0.1174  0.0495  0.0974
13539W        W13739   8.541  11.001  12.103 -0.0843  0.2372  0.4246
13540W        W13740  15.121   6.194  10.122  0.0654  0.0717 -0.1376
13541W        W13741   3.733   2.593   3.143 -0.2719  0.2018 -0.0696
13542W        W13742   1.103  15.152   0.505  0.1874 -0.0519  0.4276
13543W        W13743  10.935   8.250  12.287  0.1067  0.1372 -0.1513
13544W        W13744   6.066  10.749   7.666 -0.1544 -0.0303 -0.0550
13545W        W13745   2.717   8.373   9.994  0.1492 -0.0616  0.1230
13546W        W13746  10.897  12.186   0.576  0.1876 -0.0786  0.3504
13547W        W13747   8.451   1.070   9.991 -0.0826  0.0888  0.1052
13548W        W13748   6.688  14.535  11.429 -0.2412 -0.0140  0.2002
13549W        W13749   2.082  11.504   4.496  0.1493 -0.1966 -0.2273
13550W        W13750  10.588   7.453   6.242  0.0785 -0.0720 -0.2526
13551W        W13751   1.322  13.630   7.319  0.1801  0.0200  0.3284
13552W        W13752   4.970   8.474   9.169 -0.3373  0.0674  0.0500
13553W        W13753   7.857  14.893   1.229  0.3755 -0.2096  0.0471
13554W        W13754   3.252   1.937   3.590 -0.1177  0.4232 -0.1981
13555W        W13755   5.080  13.796  10.563  0.0970 -0.0308  0.0413
13556W        W13756   8.754  15.173   5.215 -0.1469 -0.2041  0.2236
13557W        W13757   3.398  10.662  13.789  0.0993 -0.0021  0.0427
13558W        W13758   5.898   0.545   4.639 -0.2308 -0.1344 -0.3638
13559W        W13759  11.361  12.280   7.291  0.0380 -0.0486 -0.0807
13560W        W13760  10.706   2.351   0.711 -0.0107  0.0068 -0.0320
13561W        W13761   7.134  13.478   7.893  0.0187 -0.3166  0.4357
13562W        W13762   3.947  13.936   1.741 -0.0700 -0.0187 -0.1714
13563W        W13763   2.388   7.494   5.819  0.1897 -0.0662 -0.1679
13564W        W13764  14.416  10.531   9.282 -0.1764  0.1120 -0.0271
13565W        W13765  11.257   9.996  10.611 -0.1048  0.0041  0.2108
13566W        W13766   4.204   2.902  10.528 -0.1171  0.2510 -0.2548
13567W        W13767   6.823   7.731   3.732  0.1317 -0.1128  0.0006
13568W        W13768   2.576  12.620  12.055  0.2272  0.2026 -0.1932
13569W        W13769   5.807  14.364   0.598 -0.0973 -0.0801  0.0074
13570W        W13770   4.916  12.685   5.237 -0.1551  0.0722 -0.0102
13571W        W13771  12.816   2.316   1.500 -0.0263 -0.1973  0.0530
13572W        W13772   9.826   0.223   9.422 -0.2102 -0.0674  0.0409
13573W        W13773   6.304   2.187   7.950 -0.3228 -0.1405  0.1197
13574W        W13774   2.283   7.969   4.252 -0.3525  0.1170  0.2386
13575W        W13775  14.165   7.913  11.591  0.0219  0.1781  0.2530
13576W        W13776  14.654  11.243   1.966  0.1745  0.3027 -0.1896
13577W        W13777   0.585  13.201   7.278  0.0857  0.0108 -0.3073
13578W        W13778   0.811   1.064   3.404 -0.0272  0.1164 -0.0919
13579W        W13779  10.345   9.458   4.891  0.0272  0.2539  0.0883
13580W        W13780   8.897  14.008  12.778 -0.4157  0.3082 -0.2142
13581W        W13781  12.588  11.822   5.257  0.1218 -0.2494 -0.1000
13582W        W13782   1.475  12.785  13.895 -0.1658  0.2995 -0.0557
13583W        W13783  13.795  12.401   4.656 -0.2838  0.3918  0.0141
13584W        W13784   3.479   0.977   5.245 -0.3029  0.0291  0.1099
13585W        W13785   6.432  12.745  11.055  0.4314 -0.0178  0.1731
13586W        W13786  10.431   2.777  13.169  0.1658 -0.0494 -0.5169
13587W        W13787   0.918   9.501  13.923  0.1037  0.1323 -0.0711
13588W        W13788   1.884   2.906   1.036  0.0815 -0.2709  0.2929
13589W        W13789   3.270  10.873  11.803  0.2168  0.1588  0.1561
13590W        W13790  12.821   4.621   4.411  0.2162  0.0454 -0.0714
13591W        W13791   4.750   9.145   3.602  0.1557  0.1127 -0.0841
13592W        W13792   5.299   1.174   2.815  0.1101 -0.1005  0.0622
13593W        W13793  10.102   1.110  15.049 -0.1883 -0.0311 -0.1474
13594W        W13794  14.692   1.086   3.565 -0.1728 -0.0797 -0.2315
13595W        W13795  11.334   9.686  11.803 -0.1233 -0.0875 -0.0465
13596W        W13796   1.605  14.428   8.217 -0.0041  0.1754  0.0790
13597W        W13797   8.188  10.763   5.918  0.1311  0.1224 -0.2332
13598W        W13798   4.470   0.811   8.987  0.0247  0.0232  0.4672
13599W        W13799   4.404   2.024   9.515 -0.1043  0.3744  0.1647
13600W        W13800   4.810  12.902   3.029 -0.1712 -0.0882  0.1882
13601W        W13801   0.468   3.590   0.692  0.0027 -0.0509  0.0099
13602W        W13802   3.183  12.856   1.576 -0.1025 -0.0541 -0.1965
13603W        W13803   5.688   9.391   3.719 -0.0384 -0.0964  0.2146
13604W        W13804   6.840   9.002   3.757 -0.1953  0.1046  0.0980
13605W        W13805  15.133   1.678  11.644  0.0425 -0.0361  0.1574
13606W        W13806  10.430   7.831   1.464 -0.2158  0.0639  0.1463
13607W        W13807   2.005  12.975   5.924 -0.0024 -0.1926 -0.0293
13608W        W13808  14.330  12.383   9.670  0.0089  0.0193  0.0026
13609W        W13809   9.904  14.654   2.854  0.0205 -0.0460  0.3032
13610W        W13810   8.124  11.314   2.863  0.0890  0.1113 -0.0900
13611W        W13811   0.712  13.763  12.859 -0.2493 -0.0693  0.2004
13612W        W13812   1.728   1.034  13.503 -0.5666  0.1909  0.0135
13613W        W13813   1.647   9.908  11.653 -0.2814 -0.1985  0.1779
13614W        W13814   2.399   7.623   0.117  0.2148  0.0814 -0.3038
13615W        W13815  10.470  12.679   8.792 -0.2807  0.1968 -0.0395
13616W        W13816   4.646   7.887  12.385  0.1132 -0.0846  0.0013
13617W        W13817   3.442   4.646   1.081 -0.1259  0.0237  0.2174
13618W        W13818   8.024   1.133   8.349  0.0533 -0.1086 -0.0232
13619W        W13819   1.459   3.906   2.195  0.0332 -0.0097  0.0120
13620W        W13820  10.088   7.671  15.174  0.1702 -0.1222  0.0229
13621W        W13821   7.109   2.797  14.023 -0.0663  0.0160 -0.0462
13622W        W13822   9.446   9.090   2.202  0.0437 -0.1258 -0.0559
13623W        W13823   0.333  12.515   7.692 -0.3836  0.3903  0.1694
13624W        W13824   1.422   8.778  12.578 -0.0266 -0.0255 -0.1182
13625W        W13825   8.805   6.335   1.154  0.0698  0.0439 -0.1326
13626W        W13826   3.136  13.980  13.728 -0.1987 -0.0382  0.0101
13627W        W13827   6.503   8.824   0.364 -0.3480 -0.2654 -0.1548
13628W        W13828   0.656   0.273  10.170 -0.3094 -0.0235  0.2172
13629W        W13829   4.023  14.085  15.033  0.0312  0.0780  0.1505
13630W        W13830  13.756   1.385   9.015  0.1456 -0.2325 -0.2432
13631W        W13831   9.966  13.196  12.079 -0.0665  0.2710 -0.0626
13632W        W13832   1.757   9.910  14.608  0.1718 -0.2370 -0.1563
13633W        W13833  12.553  11.152   1.314  0.0485  0.0311  0.2406
13634W        W13834   9.118   5.812  11.413 -0.0518  0.2825  0.2820
13635W        W13835  11.619   7.186   1.047  0.0427 -0.3086  0.1215
13636W        W13836   3.611  11.822   8.682  0.4099  0.0640  0.1128
13637W        W13837   3.930   3.710   9.958  0.1250  0.1049 -0.2878
13638W        W13838  14.805   0.127   3.188 -0.2016  0.1052 -0.0097
13639W        W13839   1.932  13.817   4.022 -0.1831  0.2239  0.0353
13640W        W13840   3.338  11.760  12.489  0.0093  0.1067 -0.0221
13641W        W13841  10.530  10.969   8.813 -0.0622 -0.4200 -0.0673
13642W        W13842  10.484   5.799  11.769  0.2964 -0.1909 -0.3818
13643W        W13843   6.028  13.756   6.102  0.3017 -0.0861 -0.0313
13644W        W13844   3.112   1.465  12.799 -0.1135  0.0700  0.0725
13645W        W13845   7.620  14.325  13.718  0.0809 -0.4849 -0.1584
13646W        W13846   2.448   0.152   1.212 -0.0877 -0.0288 -0.1023
13647W        W13847   6.382   1.234   8.290  0.2813 -0.3917  0.1770
13648W        W13848  15.145  14.476  14.841 -0.1066  0.1927 -0.0202
13649W        W13849   8.330  14.125  15.017 -0.2151 -0.0247 -0.0349
13650W        W13850  14.633   3.638   4.503 -0.2560  0.1570 -0.0131
13651W        W13851   2.695  12.927  13.694  0.0707  0.0364 -0.1716
13652W        W13852   1.368  12.657  10.597  0.0368  0.2615 -0.0707
13653W        W13853   8.103   0.254   0.349 -0.1749  0.3421  0.0680
13654W        W13854  10.695   1.935   7.231 -0.1469  0.0474 -0.0131
13655W        W13855   8.361   6.458  12.930  0.2245 -0.1076  0.0405
13656W        W13856  13.777   2.620  13.510  0.0279 -0.1962 -0.0133
13657W        W13857   7.857   2.527   1.187  0.0089  0.1748  0.4297
13658W        W13858   3.571   0.467   2.076  0.2047  0.1316  0.1434
13659W        W13859   9.219  10.992  11.464  0.4109  0.1273 -0.0172
13660W        W13860   8.214  15.090   1.534  0.1419 -0.0493  0.1156
13661W        W13861   2.845   8.559   1.248 -0.1625 -0.1113 -0.0265
13662W        W13862   7.679  10.564  12.949 -0.1451 -0.2979  0.1660
13663W        W13863   7.148   3.229  14.209  0.0493  0.1324 -0.2622
13664W        W13864   5.260  10.416   9.336 -0.0277  0.2728 -0.1064
13665W        W13865  11.227   8.881   0.533  0.3215  0.0795  0.2884
13666W        W13866   8.826   7.810   6.662 -0.1095 -0.4567 -0.1813
13667W        W13867  10.659   2.228   0.166 -0.0051  0.0353  0.1904
13668W        W13868   9.124   1.095   1.997  0.0820 -0.0116 -0.0777
13669W        W13869   8.758   9.534   4.793  0.0814  0.3227 -0.3593
13670W        W13870   9.526   5.652   5.730 -0.1331 -0.2651 -0.0550
13671W        W13871   3.789   2.390   9.180 -0.3583  0.2130 -0.1769
13672W        W13872  12.898   6.977  12.058  0.0496  0.0195  0.3002
13673W        W13873   4.252   1.124   0.411 -0.0827 -0.1889 -0.0081
13674W        W13874   5.545   5.482   3.606 -0.2214 -0.2186 -0.2186
13675W        W13875   6.903  12.106  11.423  0.0226  0.1028  0.3899
13676W        W13876   6.018   0.355   3.159  0.0948  0.1102 -0.3643
13677W        W13877   0.793   9.437   3.766  0.0101 -0.2479  0.0469
13678W        W13878   8.869   7.146  14.072 -0.0854 -0.1272  0.1031
13679W        W13879   8.065   8.665   6.702  0.1063  0.2443 -0.1114
13680W        W13880   6.138  13.457   4.718  0.0946 -0.1684  0.0198
13681W        W13881  13.387   0.079   0.017 -0.2083 -0.1688 -0.0420
13682W        W13882   0.869   7.693   1.044  0.1679 -0.1354 -0.1366
13683W        W13883   2.764   0.748   6.935 -0.1970 -0.2821  0.1476
13684W        W13884   0.107   6.159  14.839  0.1269 -0.0446 -0.1060
13685W        W13885  11.468  12.262   2.534  0.0423 -0.0962 -0.1395
13686W        W13886   4.688  10.916  13.506 -0.1196  0.2120  0.0026
13687W        W13887   6.620  14.143   2.238 -0.1484  0.2171 -0.1809
13688W        W13888  10.689   2.795   7.099 -0.4407 -0.1960 -0.0087
13689W        W13889   1.362   1.152  14.891 -0.1641 -0.0218  0.2941
13690W        W13890   7.641   6.874   5.198 -0.2472  0.1704 -0.0673
13691W        W13891   8.351   0.012   9.241  0.1682 -0.0798  0.1788
13692W        W13892   9.583  14.976  14.994  0.1051  0.2261 -0.2243
13693W        W13893   2.402  11.531   0.869  0.2015  0.0056  0.0827
13694W        W13894  13.344   1.696   8.920  0.1907 -0.2481  0.3695
13695W        W13895  13.898   8.528  13.912 -0.3897 -0.0584 -0.1798
13696W        W13896   7.258  10.664  10.917  0.1759 -0.0842  0.1804
13697W        W13897   4.763   5.404   1.526  0.0650  0.2841  0.1633
13698W        W13898   4.441  11.474  11.529  0.1953  0.2892 -0.0795
13699W        W13899  13.339   7.228   7.166  0.0494  0.1499 -0.1561
13700W        W13900   2.638   8.591   0.225  0.3593 -0.0461  0.1698
13701W        W13901   7.033  12.348  13.705  0.1446  0.4485 -0.2166
13702W        W13902  12.637   0.654  10.759  0.0499  0.0721 -0.0517
13703W        W13903   1.435  12.320   1.137  0.0140  0.4797 -0.2880
13704W        W13904   2.979  10.592  15.176  0.0955 -0.2461 -0.1001
13705W        W13905   3.104   3.098   9.722  0.2622  0.2652  0.2762
13706W        W13906   3.432   0.795   1.633 -0.2872 -0.3684 -0.0179
13707W        W13907   8.376  13.548   1.627 -0.0308 -0.0572  0.0762
13708W        W13908   9.528  11.769   9.970 -0.2084 -0.2006 -0.1828
13709W        W13909   5.574   8.637   2.320 -0.0504 -0.0200 -0.1041
13710W        W13910   3.961  10.772   5.383  0.4749  0.3108  0.0255
13711W        W13911   5.677   9.261   7.986  0.4008 -0.1837 -0.2853
13712W        W13912  15.067   5.417  13.600 -0.0833 -0.2072  0.4214
13713W        W13913   9.852  13.963   3.980 -0.3401  0.0894  0.1688
13714W        W13914   5.405   8.735  14.906 -0.1419  0.0826  0.1450
13715W        W13915   2.273  12.639   0.725 -0.1766 -0.1789 -0.0087
13716W        W13916   6.075   2.296   2.868 -0.0863  0.3273 -0.0505
13717W        W13917   3.439   3.087   6.969  0.1325  0.0182  0.1519
13718W        W13918   8.922   1.695   7.299 -0.2328  0.2820 -0.3365
13719W        W13919  14.827  12.736   3.035  0.0409  0.0644  0.0037
13720W        W13920   3.376  12.187   4.243 -0.3059  0.2785  0.1042
13721W        W13921  14.819   2.840  13.032  0.0414 -0.1981  0.0622
13722W        W13922   8.248   5.786  12.756 -0.1384  0.0354  0.0792
13723W        W13923   6.601   3.509   1.574  0.2450 -0.3006 -0.0748
13724W        W13924   5.761   6.915   7.422 -0.3295 -0.0874  0.0243
13725W        W13925   3.711   1.979  14.120  0.1851 -0.1261  0.0925
13726W        W13926   4.360   8.967  10.524  0.2528 -0.1467 -0.0186
13727W        W13927   9.672  10.871   4.955  0.0307 -0.1000 -0.0826
13728W        W13928   2.403  14.075   6.070 -0.0272 -0.1242  0.0903
13729W        W13929   2.787   4.209   4.826  0.3806  0.0952 -0.3675
13730W        W13930  14.514   2.450   7.563 -0.0205 -0.1215  0.2032
13731W        W13931  11.911   4.939  11.429  0.0911 -0.4071  0.3321
13732W        W13932   5.001  13.862  14.569  0.3007  0.1036 -0.0731
13733W        W13933   5.339  14.937   2.136 -0.1682 -0.0628 -0.1066
13734W        W13934   2.519   2.542   5.588  0.0669  0.0459 -0.0634
13735W        W13935   5.896   1.783   3.024 -0.0055 -0.1399  0.0937
13736W        W13936   3.879   0.788   1.870 -0.2246  0.1857  0.2007
13737W        W13937   8.452   0.179   2.035 -0.1277 -0.0070  0.0923
13738W        W13938   6.725   1.281   0.884  0.0720  0.1211  0.2751
13739W        W13939  11.840   0.935   7.358 -0.0898 -0.1157 -0.2526
13740W        W13940  10.875  10.260   6.794  0.0756  0.0192  0.1356
13741W        W13941  12.043  12.273   3.629 -0.0709  0.1062  0.0951
13742W        W13942   9.138  11.647   3.738 -0.1541  0.1973  0.3021
13743W        W13943   6.298   8.126  13.852  0.2812 -0.1373 -0.3635
13744W        W13944   1.989   0.301   1.402 -0.0444  0.0852 -0.3195
13745W        W13945  12.341  13.774  11.178  0.1709 -0.2511 -0.0472
13746W        W13946   0.511   0.456   2.032  0.2467 -0.0664 -0.0591
13747W        W13947  11.670   2.133  10.585  0.0227  0.2277  0.0164
13748W        W13948  12.186   1.696  14.402 -0.1645 -0.1524  0.1466
13749W        W13949   7.981   5.409  14.224 -0.1359  0.0220 -0.0319
13750W        W13950  15.174   3.015  15.076 -0.0405 -0.1226 -0.1911
13751W        W13951   0.546   5.572   9.882 -0.2310  0.2954 -0.0161
13752W        W13952   1.020  13.089   8.113  0.0672  0.1153 -0.0398
13753W        W13953  11.454   1.704  14.870 -0.4454 -0.2828  0.0746
13754W        W13954   8.426  13.703   0.604 -0.0600  0.1066  0.2117
13755W        W13955  14.827  11.422  10.446  0.1705 -0.4038  0.2770
13756W        W13956   7.901   3.528   6.395  0.1173 -0.0664 -0.4504
13757W        W13957   4.024   0.437   6.655  0.3699 -0.1392  0.2041
13758W        W13958  10.935   1.575   1.775  0.1316  0.2473  0.1003
13759W        W13959   2.566   5.522   7.871  0.0665 -0.0946 -0.4741
13760W        W13960  10.780  15.039  10.830 -0.0855 -0.0485  0.1895
13761W        W13961   8.190  13.357   3.431 -0.4499  0.2500  0.1599
13762W        W13962   3.416   9.193   4.937  0.1019 -0.1028  0.3042
13763W        W13963   4.300  13.705  11.058 -0.0803  0.0268  0.0856
13764W        W13964  14.860  13.760   6.905  0.1441 -0.1135 -0.1010
13765W        W13965   4.826   4.067   4.101 -0.1641  0.0819 -0.3056
13766W        W13966   9.485   3.977   5.494 -0.0621 -0.1037 -0.0224
13767W        W13967   1.408  11.087  10.264 -0.0922 -0.0207  0.0638
13768W        W13968   4.973  12.323   7.684  0.2644  0.0205  0.2119
13769W        W13969   1.586   4.732   4.010  0.1222 -0.1836  0.1415
13770W        W13970   5.960   7.827   4.548  0.1549  0.0285 -0.2165
13771W        W13971   7.246   2.326   0.442 -0.0367  0.0641 -0.1269
13772W        W13972  10.539   1.975  14.932 -0.2553  0.0533 -0.0201
13773W        W13973   4.995  12.935   4.407 -0.1707 -0.0292  0.1774
13774W        W13974  15.048   0.835   7.718 -0.1630 -0.0568 -0.0365
13775W        W13975   2.485  11.273   2.791 -0.2383 -0.1251 -0.0684
13776W        W13976  10.539   0.326  13.565  0.0128 -0.0999  0.3490
13777W        W13977   5.905  11.831  12.439  0.0701  0.0087  0.0179
13778W        W13978   9.049   8.538  14.585  0.2377  0.1162  0.1220
13779W        W13979   5.985   5.139   7.232 -0.0540  0.1294  0.0826
13780W        W13980   7.975   6.259   7.569  0.0368  0.2659  0.1342
13781W        W13981   5.775   5.412   8.670  0.2299 -0.0352 -0.0938
13782W        W13982   9.336   3.310  12.343 -0.2790  0.4326  0.2944
13783W        W13983   2.247  14.342   9.602  0.2760  0.2314  0.1481
13784W        W13984   7.525  11.111   0.216  0.2052 -0.1151 -0.3644
13785W        W13985   7.073   5.148  14.416 -0.1934  0.1015 -0.0578
13786W        W13986   5.940   8.284   4.642  0.0805 -0.2595  0.1898
13787W        W13987   0.150  13.523  11.437 -0.1284  0.0395 -0.0345
13788W        W13988   5.950   0.886  10.827 -0.0754 -0.2324 -0.2493
13789W        W13989   6.493  13.787  14.788  0.3962 -0.3230 -0.1609
13790W        W13990   6.525  13.272  15.100 -0.0244  0.0641  0.0912
13791W        W13991   2.740   1.370   8.572 -0.2249 -0.2140  0.0302
13792W        W13992  12.098   8.791   7.312 -0.1183 -0.0144 -0.3261
13793W        W13993   4.584  14.933  12.667 -0.3627  0.1935  0.0841
13794W        W13994   5.620  15.000  12.672 -0.2335 -0.0150  0.3968
13795W        W13995   2.528   3.854   4.574 -0.0239  0.2956 -0.0132
13796W        W13996   6.667   7.277   1.866  0.1974  0.1094  0.0902
13797W        W13997   0.713   3.443  11.009  0.0469 -0.1144 -0.0608
13798W        W13998   5.530   4.587  13.145 -0.2072  0.3516  0.0201
13799W        W13999   9.847   6.060   6.453 -0.0382 -0.0957 -0.1548
13800W        W14000   3.061  13.349   8.315 -0.0614  0.1410 -0.4281
13801W        W14001   4.338   5.289   2.426 -0.0907  0.1348 -0.1963
13802W        W14002   3.960   2.762   0.703 -0.0405 -0.1072 -0.1877
13803W        W14003  10.785  10.036   8.653 -0.0546 -0.2850  0.1671
13804W        W14004   4.479  13.831   4.369 -0.0094  0.0988 -0.1104
13805W        W14005   9.436  11.605   7.955  0.4865  0.1160 -0.2073
13806W        W14006  14.144   1.502   3.654 -0.2302 -0.1451 -0.0911
13807W        W14007   5.920  10.460   1.435 -0.2274 -0.2686  0.0644
13808W        W14008  10.278   4.665   3.575 -0.0039  0.0963  0.2628
13809W        W14009   5.159  10.374   5.506  0.0587  0.2069  0.0014
13810W        W14010   9.097   3.711   5.394 -0.2090  0.3018  0.0384
13811W        W14011   2.979  14.566   2.909  0.1736  0.3169  0.1180
13812W        W14012  11.919   5.439  11.560  0.0205  0.0367  0.2612
13813W        W14013   5.333   2.210   3.613 -0.3480 -0.1101  0.1060
13814W        W14014   6.079   0.148   7.408  0.0557  0.0324  0.1421
13815W        W14015   9.660   3.269   1.904  0.3694 -0.0782  0.1304
13816W        W14016   3.768   9.045   9.724 -0.1308 -0.1582  0.2892
13817W        W14017   1.058   3.998   2.496 -0.4315  0.1262 -0.1393
13818W        W14018  12.214   6.419  13.181 -0.2087 -0.1181  0.2700
13819W        W14019   0.962   2.171   1.925 -0.0349  0.2001 -0.0843
13820W        W14020   1.713  13.048   9.589  0.1976  0.2143 -0.0151
13821W        W14021  15.134   4.995   8.914 -0.0050  0.0168  0.1621
13822W        W14022  15.151   2.544   9.384 -0.3605 -0.0469 -0.1305
13823W        W14023   1.851   3.968  13.034  0.3283  0.1972  0.0289
13824W        W14024   3.247   5.541  10.264 -0.0912 -0.3841 -0.0559
13825W        W14025  12.240   0.968  10.469  0.1998  0.4389  0.0462
13826W        W14026  11.924   1.179   0.862  0.3036  0.0412  0.2870
13827W        W14027   2.763  13.984   7.886 -0.0935 -0.1211  0.2685
13828W        W14028   0.463   3.560  11.455 -0.2928 -0.2692  0.4826
13829W        W14029   7.316   1.278   9.044 -0.0784 -0.3419  0.1181
13830W        W14030   3.389  11.019   1.611  0.3775  0.2097  0.0585
13831W        W14031   3.383  12.353   5.810  0.2066 -0.2437 -0.0275
13832W        W14032   3.295   6.722  10.636 -0.1718 -0.2909 -0.2081
13833W        W14033   4.083  14.346   8.649  0.0440 -0.2844  0.5068
13834W        W14034  12.237   8.572  13.490 -0.1600  0.2711 -0.3193
13835W        W14035   9.968   2.034   1.643  0.0112 -0.0178 -0.0329
13836W        W14036   2.345   2.032  10.775 -0.1643  0.0195  0.1381
13837W        W14037   7.827   0.502   0.736  0.1678 -0.3749 -0.2393
13838W        W14038  13.795  13.236   4.404 -0.2359  0.0764 -0.0196
13839W        W14039   9.158  13.013   3.198  0.1081  0.0037 -0.1698
13840W        W14040   6.587  10.665  10.052 -0.3035 -0.0262  0.0566
13841W        W14041  11.463   4.660   9.818  0.1800  0.0211 -0.0067
13842W        W14042   3.206   9.999   3.547 -0.1726  0.4899 -0.0694
13843W        W14043   8.206  14.042   8.698  0.2799  0.1660  0.0390
13844W        W14044   9.981   1.964   6.570 -0.0021  0.1107  0.2608
13845W        W14045   5.430  13.612   8.568 -0.0524  0.0197  0.0529
13846W        W14046  12.308  14.193  14.234 -0.0860  0.2502 -0.0247
13847W        W14047   1.997   9.214   3.999  0.0787  0.1189  0.2429
13848W        W14048   8.471  14.845   7.246  0.0351 -0.0962  0.4011
13849W        W14049   8.472  13.255  14.012  0.3968  0.3042  0.1856
13850W        W14050   7.719  10.437   2.166 -0.0450 -0.1644 -0.1655
13851W        W14051   8.120   5.127   5.387 -0.0153 -0.0517  0.1076
13852W        W14052   9.332  14.603   2.897 -0.2077  0.0588  0.2823
13853W        W14053   2.154  10.865   5.552  0.1774  0.1327  0.0094
13854W        W14054  13.056   4.143   0.281  0.1351  0.1092  0.0790
13855W        W14055   3.771  13.857   9.463  0.2820  0.0474 -0.1189
13856W        W14056   6.690   0.056   0.039  0.4934 -0.1675 -0.1141
13857W        W14057   5.002   8.764  11.337 -0.1287 -0.0299  0.0358
13858W        W14058   5.496   3.790   8.197 -0.0380 -0.1317 -0.1758
13859W        W14059   2.288   6.818   9.270 -0.0754  0.0469  0.2257
13860W        W14060   7.649  11.866  12.543  0.2186  0.0810 -0.0612
13861W        W14061  14.241  14.578  13.279  0.1453  0.1483 -0.0358
13862W        W14062  13.121  12.407  10.515 -0.1508 -0.2552  0.0717
13863W        W14063   5.323  13.962   3.960  0.0665  0.2518  0.3695
13864W        W14064   6.357  14.029   5.810 -0.0121 -0.2011  0.0765
13865W        W14065   6.791  12.988  13.656 -0.1972  0.4566 -0.0611
13866W        W14066   2.085  13.013  10.688 -0.0016  0.0958 -0.3902
13867W        W14067   3.966  10.188  13.155 -0.1696 -0.0661 -0.2773
13868W        W14068   2.491   1.259  12.389  0.1340 -0.1388 -0.3011
13869W        W14069   2.432   8.477   0.679  0.2265 -0.1846  0.1900
13870W        W14070   1.692  14.633  12.401  0.1403 -0.2615  0.0676
13871W        W14071  14.561   0.397   0.131  0.0717  0.1554  0.0100
13872W        W14072  10.243  14.645   0.733  0.0724  0.1981  0.1913
13873W        W14073  14.043  10.736  10.192 -0.0712  0.0960 -0.2197
13874W        W14074  14.990  12.424  11.788  0.1021  0.1372 -0.1541
13875W        W14075   6.565   2.884   8.648 -0.1048 -0.0265  0.0886
13876W        W14076   8.082  14.526  13.543  0.0356  0.0262  0.1356
13877W        W14077  10.439   7.394   2.955  0.0590  0.2650  0.0781
13878W        W14078  13.104  10.184   5.751 -0.1273  0.1199  0.2006
13879W        W14079   2.730   2.610   2.587 -0.0194  0.2074 -0.0586
13880W        W14080   3.802   8.362  12.931 -0.1238 -0.1013  0.0957
13881W        W14081  11.977  10.381  15.195 -0.0586  0.4590  0.0626
13882W        W14082   5.752   2.405  12.648  0.0310  0.0849  0.0628
13883W        W14083   8.960  10.142  15.002 -0.0985  0.0187 -0.0380
13884W        W14084   3.095   5.208   3.047  0.1181 -0.3580 -0.1352
13885W        W14085  14.077   4.591  11.258  0.2153  0.0639  0.0214
13886W        W14086  13.994  14.749   9.438 -0.1746 -0.0841  0.0836
13887W        W14087   3.573  13.524   1.787 -0.0725  0.0723 -0.1084
13888W        W14088  15.043   9.628   7.997  0.0900 -0.2104  0.1177
13889W        W14089   6.648  12.765   0.526  0.1226  0.1748  0.2934
13890W        W14090  12.351  10.179  11.457  0.0418 -0.2139  0.1475
13891W        W14091  14.337   1.424   0.261  0.2918  0.4279 -0.2738
13892W        W14092   5.620  13.409   3.027  0.1316 -0.0553 -0.0618
13893W        W14093  12.400  14.622   0.268 -0.1056 -0.1665  0.3293
13894W        W14094  13.467  10.541  12.212  0.0776  0.0187 -0.0288
13895W        W14095   8.204   2.011  12.824  0.0099 -0.1458 -0.3387
13896W        W14096   6.304   5.132   1.467  0.2128 -0.0080 -0.0309
13897W        W14097   5.197  13.087   5.458 -0.0043  0.1404 -0.2197
13898W        W14098   6.809  15.064   8.745  0.0425  0.2836  0.1166
13899W        W14099   6.516   1.924  14.859  0.0230  0.2613 -0.0505
13900W        W14100   9.920   3.196   5.087 -0.2047  0.4096 -0.4108
13901W        W14101  14.974  12.243   0.644 -0.3356 -0.0292  0.0743
13902W        W14102   0.818  15.034  10.366  0.1288 -0.0319  0.0797
13903W        W14103   4.339   3.540   1.181 -0.3983  0.3836 -0.1676
13904W        W14104   3.539   3.226   1.474  0.1095 -0.1176 -0.3661
13905W        W14105   7.224  15.118  14.484 -0.0345 -0.0925 -0.2767
13906W        W14106   0.873  13.266  14.618 -0.1759 -0.0951  0.0984
13907W        W14107   7.476   2.973   5.754  0.1126  0.1982  0.3386
13908W        W14108  11.289   0.491  11.269 -0.2666 -0.3838  0.4193
13909W        W14109   5.006   2.725   0.991 -0.0848 -0.2412  0.0691
13910W        W14110   5.394  14.129   8.774 -0.0482 -0.0549 -0.0781
13911W        W14111   2.954  10.349   7.204 -0.2046  0.0258 -0.2540
13912W        W14112   4.307   9.329  11.684 -0.2674  0.0178  0.0588
13913W        W14113   9.324   2.571   4.067  0.1208  0.4907  0.0473
13914W        W14114  11.593  14.147  15.061  0.3189  0.0143 -0.0817
13915W        W14115  12.218   0.397  11.250 -0.1279  0.2298 -0.1413
13916W        W14116   0.836   0.672   8.441  0.0993  0.1122 -0.0625
13917W        W14117   2.618   8.085   6.105 -0.1587  0.1008  0.0998
13918W        W14118   2.355  13.740   5.690  0.0029  0.0137  0.0663
13919W        W14119   4.078   0.447   5.794  0.0162  0.0242  0.0779
13920W        W14120  10.829  11.065  11.211  0.0020 -0.1986 -0.2236
13921W        W14121  10.796   3.889   9.301 -0.1401 -0.0795 -0.0151
13922W        W14122   3.791   7.375   9.259 -0.0386  0.0790 -0.1787
13923W        W14123   9.767   2.882  14.258 -0.0711 -0.0941 -0.0536
13924W        W14124   1.167   1.642   2.156 -0.2152 -0.2990  0.0891
13925W        W14125  14.882   1.419   3.863 -0.1057  0.1069 -0.2931
13926W        W14126   9.001  14.889   3.851  0.0327 -0.0494  0.0880
13927W        W14127  14.685   1.638   9.147 -0.2228 -0.2794  0.5109
13928W        W14128   4.416   7.289   7.719  0.1704  0.2166  0.1559
13929W        W14129   8.929  14.326   8.885 -0.0147 -0.4418  0.0579
13930W        W14130   2.674   2.388  13.670  0.1205  0.0395  0.3167
13931W        W14131   1.110  13.989  13.518  0.0679  0.3212  0.2337
13932W        W14132   7.002   9.850  14.127  0.0030  0.2469  0.2401
13933W        W14133  11.479   3.294   8.061 -0.0306 -0.1580  0.2986
13934W        W14134   9.884  11.141  10.570 -0.0769  0.2505  0.2201
13935W        W14135  11.509   4.074  14.556  0.0889  0.0510 -0.4569
13936W        W14136   6.798   4.944   1.157 -0.2217  0.2398 -0.1097
13937W        W14137   1.803   8.402  13.341  0.1119  0.1451 -0.0522
13938W        W14138  13.062   5.476   2.717 -0.2163 -0.1712 -0.1975
13939W        W14139   7.287   0.313   3.343 -0.1136 -0.3024  0.0009
13940W        W14140   9.988  11.536   3.145 -0.0452 -0.2190  0.3154
13941W        W14141   6.677   9.408   1.088  0.2865  0.3184 -0.0020
13942W        W14142  13.341   4.025   4.992  0.0408  0.1116 -0.1033
13943W        W14143   9.562   2.888   4.900  0.0926 -0.0264 -0.0844
13944W        W14144  14.355   3.252   0.596  0.0365  0.0865  0.2462
13945W        W14145   7.804   4.006  14.861 -0.0344 -0.2197 -0.2746
13946W        W14146   3.102   0.122   2.246 -0.1953 -0.1647  0.0724
13947W        W14147   8.053  15.099   3.021 -0.0042  0.1130  0.4439
13948W        W14148   9.092   5.782  13.313  0.0270  0.1482  0.0190
13949W        W14149  12.222   2.716   2.294  0.0071  0.0732  0.0465
13950W        W14150   7.825   6.252  15.128  0.0929  0.0088 -0.0589
13951W        W14151  14.674   7.290   0.328 -0.1244  0.2214 -0.4056
13952W        W14152  12.080   9.120  14.541 -0.0676 -0.1194 -0.0401
13953W        W14153   5.124  12.138   1.967  0.0934  0.0229  0.0798
13954W        W14154   9.022   1.262   8.354 -0.3456 -0.0308  0.0400
13955W        W14155   8.424  14.428   6.853  0.4503  0.2174  0.1531
13956W        W14156  11.064  12.797  13.600 -0.0740 -0.3210  0.0750
13957W        W14157   8.269   2.784   6.547 -0.0305 -0.2032  0.2568
13958W        W14158   9.844   0.827   2.237 -0.0512  0.1985  0.1867
13959W        W14159   0.625  13.789   8.988 -0.1315 -0.1323  0.1846
13960W        W14160  12.041   9.044   0.313 -0.2115  0.0477 -0.1834
13961W        W14161   6.588   5.507   4.528 -0.2122 -0.3438 -0.0911
13962W        W14162   0.915   1.896   3.738 -0.1937 -0.3028 -0.0945
13963W        W14163   1.752  14.256   0.500 -0.0685 -0.1642 -0.1177
13964W        W14164   4.217   4.553   4.522  0.0158  0.2951  0.2724
13965W        W14165   8.987   2.547  12.550 -0.3623 -0.0282  0.0956
13966W        W14166   7.630   3.063   8.176 -0.0915 -0.1862 -0.2027
13967W        W14167   6.749  11.583  12.870 -0.2090 -0.2910  0.0907
13968W        W14168  13.439   5.382   1.247 -0.0199 -0.1557  0.0845
13969W        W14169  10.197  14.206   2.109  0.1634 -0.0390  0.0675
13970W        W14170   5.846   7.581   9.310  0.2451  0.1401  0.0333
13971W        W14171   9.483  10.121   1.115  0.3026  0.0141  0.0855
13972W        W14172   7.136  15.041   3.220  0.0857 -0.1603 -0.0216
13973W        W14173  14.921   2.280   7.048  0.1594 -0.3432  0.0890
13974W        W14174   4.931   3.855   0.318 -0.2821 -0.0976  0.1545
13975W        W14175  13.387   5.689  14.193  0.0754  0.1533 -0.0698
13976W        W14176  13.599  15.152   7.409  0.0412 -0.1642 -0.1660
13977W        W14177  10.185   2.488   2.428  0.2654  0.6891  0.1155
13978W        W14178   9.905  13.748  13.288  0.1324 -0.0226 -0.0480
13979W        W14179  10.403   1.815   4.552  0.0522 -0.3022 -0.1646
13980W        W14180   3.325   2.827  12.386 -0.0291 -0.0405 -0.0040
13981W        W14181  13.908   6.746   1.547  0.1140  0.1215  0.1828
13982W        W14182  14.031  13.247  14.055 -0.0905 -0.2596 -0.0557
13983W        W14183   9.588   9.496   0.809  0.0823  0.2828 -0.1970
13984W        W14184   0.549   7.671   4.360  0.0945  0.0829 -0.1177
13985W        W14185   3.700   4.508   0.180  0.3675  0.2143 -0.0020
13986W        W14186  12.595   0.521   9.794 -0.2034  0.1413  0.3538
13987W        W14187   8.645   1.195  12.094  0.1382  0.0536 -0.0659
13988W        W14188   5.436  13.606  14.138 -0.1961  0.0017 -0.1891
13989W        W14189   8.557  12.987   0.162  0.0586 -0.1130  0.0733
13990W        W14190  10.342  13.143   2.103 -0.0633  0.1769  0.2128
13991W        W14191   2.393   1.057  14.559 -0.1337  0.1350 -0.0071
13992W        W14192  14.206   1.623  12.757  0.0406  0.1214  0.2007
13993W        W14193   0.228   2.725  11.458 -0.5512  0.0309 -0.0546
13994W        W14194   7.126   4.175   6.247 -0.0695  0.1509  0.0273
13995W        W14195   2.797  14.825  11.477 -0.0088 -0.2132  0.3314
13996W        W14196   2.648   7.125   6.226 -0.2796 -0.1581  0.1200
13997W        W14197   3.250   1.441   8.437  0.2684 -0.0348 -0.0209
13998W        W14198   7.776   9.241  12.841 -0.3525 -0.0333  0.2255
13999W        W14199  12.649   8.747  12.250 -0.3318  0.0113 -0.3125
14000W        W14200   1.406  14.862   3.122  0.0428 -0.0590 -0.2246
14001W        W14201   5.088   5.200   4.218  0.3388 -0.3220 -0.2851
14002W        W14202  11.759   0.097   3.223 -0.0091  0.1233 -0.2341
14003W        W14203   3.522   2.411   3.642 -0.1665  0.0930 -0.3143
14004W        W14204   5.359  12.409   2.801  0.0982  0.0886  0.0561
14005W        W14205  12.785   4.975   6.734 -0.0437  0.0494  0.3999
14006W        W14206   3.848   5.120   5.379 -0.1507 -0.2349  0.0226
14007W        W14207   9.774  12.254   1.807 -0.1366  0.1222  0.0896
14008W        W14208   6.319  11.962   0.776  0.2459  0.1054  0.1230
14009W        W14209   8.925   2.985  14.437 -0.1956  0.2511  0.2202
14010W        W14210  13.522   1.639  14.483  0.2253  0.1363  0.0603
14011W        W14211  10.486  12.943   0.190  0.1029  0.0805 -0.1519
14012W        W14212   2.778   3.409   4.573  0.0547 -0.1674  0.2492
14013W        W14213   9.040   8.121  10.895 -0.2373 -0.1956 -0.0991
14014W        W14214   7.208   5.820   8.149  0.3254  0.1572  0.0428
14015W        W14215   4.803   3.415  13.141 -0.3464 -0.1577  0.0445
14016W        W14216   9.420  14.447  11.241  0.2168 -0.0506 -0.1742
14017W        W14217   0.663  15.176   6.716 -0.1467 -0.3772  0.0822
14018W        W14218   6.304  13.508   4.102  0.1641 -0.1517  0.1740
14019W        W14219  13.014   6.016   0.308 -0.0166  0.2414  0.0476
14020W        W14220   1.341  14.271   8.595  0.2847 -0.0074  0.0028
14021W        W14221  11.461   9.171  10.379  0.0280  0.1253 -0.1444
14022W        W14222   0.308   1.883  12.586 -0.1939  0.2276  0.1075
14023W        W14223  14.734   6.814   0.532  0.0775  0.3588  0.0358
14024W        W14224   6.961   1.613   4.313 -0.1501  0.1538  0.0590
14025W        W14225   6.253   7.046   3.959 -0.0085  0.1253 -0.3506
14026W        W14226   6.130  14.588   8.379  0.0974  0.0288  0.0737
14027W        W14227  12.599   1.493   1.698  0.1121  0.2801 -0.0044
14028W        W14228   9.308   5.028   2.958  0.1977 -0.2175  0.1343
14029W        W14229   0.848   6.410   3.174 -0.1716 -0.1428  0.0627
14030W        W14230  11.151   6.045   6.700 -0.1126 -0.0321 -0.0174
14031W        W14231   1.636   6.411   5.853  0.1527 -0.1969  0.0578
14032W        W14232   5.305   9.865   9.335  0.1649 -0.1474  0.2855
14033W        W14233  13.276  10.003   9.391  0.1422  0.1073  0.0553
14034W        W14234   0.643   7.342   8.151 -0.2062  0.3780  0.0875
14035W        W14235   2.799   7.080   7.001  0.0527 -0.2638  0.3114
14036W        W14236  11.396   2.907   8.904 -0.0405  0.2202  0.0986
14037W        W14237  13.564  13.729   4.428 -0.1558 -0.0219 -0.1381
14038W        W14238   0.010   1.431   5.680 -0.2881  0.0272  0.2034
14039W        W14239  11.746   1.945   7.296  0.0597 -0.0208 -0.2335
14040W        W14240  11.823   6.058   3.271 -0.1136 -0.3571  0.1234
14041W        W14241  13.228  11.024   1.971  0.0003  0.0514 -0.0123
14042W        W14242  10.594   0.527   0.764 -0.1978 -0.1261 -0.1980
14043W        W14243   3.608   6.748   1.710 -0.0632  0.1021 -0.1273
14044W        W14244   0.030  11.790   3.853  0.0277 -0.2043 -0.0607
14045W        W14245   6.088   3.921   0.898  0.1368  0.2742 -0.1821
14046W        W14246   8.307   4.132  11.037 -0.4202  0.2497 -0.1518
14047W        W14247   6.321  10.428   2.375 -0.0026  0.0399  0.2599
14048W        W14248   0.353   3.858   4.149 -0.2663 -0.2463 -0.1332
14049W        W14249   4.971  10.433   8.429 -0.0118  0.0626  0.0529
14050W        W14250  11.099   4.507   5.038 -0.3598  0.0636  0.1212
14051W        W14251  13.351   3.987  10.343 -0.1195  0.1903 -0.0280
14052W        W14252   0.216   5.719   3.220  0.0621 -0.1647 -0.0418
14053W        W14253  10.124  12.041   3.488 -0.1177 -0.0254  0.2549
14054W        W14254  11.507   3.097  11.050 -0.0150 -0.1039  0.4863
14055W        W14255  12.041  11.679  14.644 -0.2045  0.1582 -0.1647
14056W        W14256   8.296  12.875   8.888  0.0787 -0.1650  0.5200
14057W        W14257  11.142   8.418   7.080 -0.0377 -0.2710 -0.0321
14058W        W14258   9.644   2.545  10.021  0.0407 -0.1365 -0.1552
14059W        W14259  11.936   5.305   5.260 -0.1962  0.2444 -0.1636
14060W        W14260   0.658   0.942   6.709  0.0081  0.0195 -0.1387
14061W        W14261  10.789   4.389   1.623  0.0635 -0.0866  0.0169
14062W        W14262   7.589   9.767   9.250  0.0857 -0.0156 -0.2073
14063W        W14263   3.387   3.750   3.763  0.1887  0.0288  0.2034
14064W        W14264  12.952   1.175   4.835  0.4117  0.0960 -0.3167
14065W        W14265   5.802  10.436  15.161  0.1386 -0.0762 -0.1295
14066W        W14266   7.145  12.729  13.952 -0.1175 -0.0094 -0.3712
14067W        W14267   6.661   9.899   5.221  0.1044 -0.0003  0.0699
14068W        W14268  12.230   7.986  13.373  0.1001 -0.0571 -0.3161
14069W        W14269   5.538  14.007   6.198 -0.0720  0.1646 -0.1036
14070W        W14270   8.911  11.626   5.002 -0.1419  0.2384 -0.0688
14071W        W14271  10.414  12.054  12.763 -0.2053 -0.0921  0.0199
14072W        W14272   2.629  14.646  14.265  0.1767  0.2287  0.2342
14073W        W14273   6.123  11.373   0.981 -0.0069  0.1594  0.0118
14074W        W14274  13.784   6.257   6.799  0.1640  0.1218  0.0543
14075W        W14275   6.967   3.801  12.770  0.1964  0.2830 -0.1649
14076W        W14276   0.103   4.759  14.632  0.1192 -0.0140  0.0914
14077W        W14277   3.203  13.423   3.490  0.1671 -0.0312  0.1017
14078W        W14278  10.028   1.889  14.859  0.1143  0.1406 -0.1423
14079W        W14279  12.677   6.770   2.473 -0.2430 -0.1522 -0.0165
14080W        W14280  13.671   8.780   2.557  0.2934  0.1971  0.0056
14081W        W14281   0.173   8.046  13.516 -0.0924  0.0049 -0.0145
14082W        W14282   7.507   6.762  14.245 -0.1079 -0.1047  0.0066
14083W        W14283  14.597   4.122   3.088 -0.5428 -0.1618  0.2373
14084W        W14284   7.505   2.275   3.838  0.1651  0.0124 -0.3791
14085W        W14285   3.269   2.336   1.132 -0.0301 -0.0107  0.2159
14086W        W14286   2.420  11.889  11.902  0.1443 -0.0110  0.1744
14087W        W14287  12.480   9.731   8.543  0.1898  0.1809  0.1364
14088W        W14288  13.969   5.203   5.867 -0.0402 -0.0651  0.2050
14089W        W14289   8.472   4.156   3.611  0.0087 -0.0722 -0.1807
14090W        W14290  13.208   1.812   0.120 -0.1137 -0.1687 -0.2805
14091W        W14291  13.316  10.595   7.677 -0.1683  0.0591 -0.5301
14092W        W14292  11.902  14.171   2.423  0.1580 -0.3333  0.1739
14093W        W14293   6.671  14.683   4.356  0.1527 -0.0419  0.1762
14094W        W14294  14.353   6.257  10.768  0.3368 -0.0143  0.0788
14095W        W14295   7.547   1.928   0.383  0.2103 -0.1558 -0.3186
14096W        W14296  10.441  15.169   1.112 -0.1130  0.1722 -0.3303
14097W        W14297   0.377   0.735  12.327 -0.0175  0.1119  0.0973
14098W        W14298   9.413  14.341   1.572  0.2495  0.1914  0.0330
14099W        W14299  11.370  13.277  13.937 -0.1282 -0.1771  0.0871
14100W        W14300   6.345   7.407  10.673 -0.0605  0.2844 -0.0779
14101W        W14301  11.064   5.494  14.101  0.0908 -0.3213  0.0845
14102W        W14302   7.251   5.177   0.153  0.0208  0.3413  0.1008
14103W        W14303  12.134   5.444   0.691  0.1995 -0.0049 -0.2123
14104W        W14304  12.710   7.512   5.875 -0.1470 -0.2183 -0.0842
14105W        W14305  11.521  14.091   3.553  0.2879 -0.0045 -0.3793
14106W        W14306   9.427   3.305   2.787  0.0507 -0.2317 -0.3012
14107W        W14307  11.944   3.670   9.758  0.0713 -0.1374 -0.0851
14108W        W14308  15.030  13.883   0.297 -0.3157 -0.2525 -0.0989
14109W        W14309   6.286   1.928   5.003  0.0556  0.1023 -0.0060
14110W        W14310   5.281   9.962  10.326  0.0560  0.1326 -0.0398
14111W        W14311   9.193   6.518  12.545 -0.1795  0.1776 -0.3254
14112W        W14312   6.805   6.197  12.094  0.0600  0.1429  0.0498
14113W        W14313   4.460  13.009   0.919  0.0843  0.3127 -0.2518
14114W        W14314   3.021   3.600  11.062  0.2132  0.1844 -0.1894
14115W        W14315   2.691   0.799  13.220  0.2524  0.3460  0.0626
14116W        W14316   3.593   2.899   0.343 -0.2450 -0.2157 -0.2829
14117W        W14317  11.031  13.798   9.296  0.5090  0.1888 -0.0043
14118W        W14318   7.715  14.933   7.988  0.1184  0.0108 -0.2214
14119W        W14319  10.250  13.212  14.428 -0.1119  0.1872 -0.1957
14120W        W14320   2.559  11.665   4.660 -0.0848  0.0283  0.0025
14121W        W14321  13.129   2.744   2.388 -0.0237 -0.0667 -0.0343
14122W        W14322   8.638   1.114  10.840  0.1491 -0.3925  0.1103
14123W        W14323  12.256   9.812   1.282  0.2458 -0.0243 -0.0766
14124W        W14324   6.931  14.259  12.303  0.2171 -0.2418 -0.1779
14125W        W14325  12.552  14.451   8.615 -0.1969  0.2117  0.0734
14126W        W14326   8.118   2.794   2.401 -0.1715 -0.4471 -0.1657
14127W        W14327   6.599   4.540   4.850  0.4542 -0.1545 -0.0165
14128W        W14328   5.032   2.449  10.617 -0.2966  0.1714 -0.0037
14129W        W14329  14.368   5.657  14.253 -0.0400 -0.0242  0.3847
14130W        W14330  14.705   1.460  14.818 -0.1698 -0.0426 -0.0307
14131W        W14331  13.496   4.269  13.843 -0.1891  0.0930 -0.1572
14132W        W14332   9.616  10.529  10.206  0.0320 -0.2132  0.0079
14133W        W14333   2.837   4.587   7.070 -0.1702 -0.1481 -0.1796
14134W        W14334  13.054   9.427   0.189  0.3848  0.1559 -0.1543
14135W        W14335   8.180   3.262   4.132  0.1635  0.0533 -0.2147
14136W        W14336  14.155   3.624  13.348  0.0886 -0.1509 -0.3232
14137W        W14337  13.731   1.354  14.087 -0.0599  0.0462 -0.0899
14138W        W14338   9.914  14.703  11.138  0.0027  0.0786 -0.4304
14139W        W14339  13.079   5.689   2.192  0.0013  0.5214  0.0067
14140W        W14340   0.408  14.517   4.596  0.1169 -0.0864 -0.2621
14141W        W14341  14.368   6.038  12.371  0.1578 -0.1391  0.1230
14142W        W14342   8.146   2.098  10.249 -0.0345  0.2366 -0.2046
14143W        W14343   2.839   6.709   2.062  0.0372 -0.0730  0.2189
14144W        W14344  12.820   7.287   3.300 -0.0061  0.2274 -0.4070
14145W        W14345   4.527   8.643   3.879  0.2007  0.0160  0.0491
14146W        W14346  10.167   9.256  14.155 -0.0361  0.4573 -0.0562
14147W        W14347   7.272   9.018  10.212  0.0695 -0.2221 -0.0527
14148W        W14348  13.695   5.235   5.075  0.1481 -0.0156  0.0029
14149W        W14349   6.665   0.684  12.262  0.1234  0.3144 -0.1356
14150W        W14350   8.493   5.752  14.980 -0.1923  0.2203 -0.1821
14151W        W14351  11.361   2.964   2.338  0.0903  0.1597 -0.0239
14152W        W14352   7.883   8.053   4.518 -0.0116  0.0146 -0.1448
14153W        W14353   4.694   7.951   3.022 -0.1756 -0.1193  0.0410
14154W        W14354   0.432   3.446  13.464  0.2315 -0.2534 -0.2344
14155W        W14355   8.880   1.821   2.627  0.0400 -0.1075  0.0695
14156W        W14356  11.603   1.619  12.337 -0.1094 -0.2634 -0.0065
14157W        W14357   0.113   4.663   9.762  0.0647  0.1611 -0.1915
14158W        W14358   8.870  11.418   4.206  0.0607 -0.1481 -0.0563
14159W        W14359   0.165   9.847   2.122 -0.0306 -0.2383  0.0576
14160W        W14360   8.728  14.268   2.146  0.2671 -0.1988 -0.0863
14161W        W14361   8.538   2.193  11.266 -0.2567  0.1953  0.0863
14162W        W14362  14.645  13.957  12.824  0.1641  0.0242  0.2396
14163W        W14363   6.726   5.042  13.259 -0.0887 -0.0578  0.0927
14164W        W14364   1.277  15.137   0.969 -0.3177 -0.2577  0.0442
14165W        W14365   6.417  14.963   1.971 -0.1644 -0.1618  0.2246
14166W        W14366  12.327  11.404   4.035 -0.0054  0.1261  0.0161
14167W        W14367   0.076   4.686   2.025  0.1567 -0.2616  0.0720
14168W        W14368   0.764   5.040  15.163 -0.1555 -0.2505  0.0702
14169W        W14369  12.881   5.174   4.603  0.0299  0.2100  0.0954
14170W        W14370  10.499  14.463   7.358  0.0541 -0.2077 -0.0323
14171W        W14371   5.160   8.703   3.440  0.0440  0.1680 -0.1755
14172W        W14372   5.557   6.546  10.881  0.2132 -0.2190  0.1315
14173W        W14373   0.904   5.475   2.755  0.3420 -0.0349  0.0388
14174W        W14374   7.648   5.969   8.349  0.2431 -0.1476  0.3467
14175W        W14375   6.902   7.554  14.894 -0.0935  0.2189  0.4448
14176W        W14376  11.733   8.016   4.306  0.0182  0.0139  0.0023
14177W        W14377   5.937  12.895   1.609  0.1272 -0.3732  0.1867
14178W        W14378   5.820  11.557   6.327 -0.0905  0.0910 -0.1114
14179W        W14379  14.889   5.868  13.391 -0.0250  0.0412 -0.4110
14180W        W14380   3.983   1.056  12.812  0.0101  0.3912  0.0815
14181W        W14381   7.066   8.176  10.954  0.2203 -0.0324  0.1534
14182W        W14382  13.461   5.406   2.321 -0.0503  0.0010  0.2308
14183W        W14383   4.168  13.433   1.124 -0.0702  0.2363  0.0402
14184W        W14384  13.568   7.220  13.086  0.1074  0.2301 -0.0221
14185W        W14385   1.467   8.229   9.951  0.0233 -0.0638  0.1887
14186W        W14386  11.961   7.000   1.981  0.0647 -0.1229 -0.2260
14187W        W14387   0.289  12.653  10.010  0.2383 -0.2515 -0.0824
14188W        W14388  10.915  12.364   1.363 -0.1079  0.2054 -0.2022
14189W        W14389   1.015   3.550   1.929  0.0597 -0.1614 -0.0300
14190W        W14390  13.067   2.385   7.101  0.2717 -0.1064  0.1964
14191W        W14391  11.782   1.631   6.846 -0.3208 -0.1041  0.2136
14192W        W14392   3.801  11.006  12.853 -0.4005  0.0800  0.0491
14193W        W14393   2.494  10.747   0.290  0.2866 -0.2026 -0.0552
14194W        W14394   5.611   4.095   1.009 -0.3321 -0.4047 -0.1579
14195W        W14395  13.224  14.918   7.828 -0.0657 -0.0431  0.2332
14196W        W14396  10.112   6.599   6.134  0.2442  0.0102  0.1498
14197W        W14397   4.853   4.947  11.784  0.3379 -0.3825 -0.2789
14198W        W14398  14.200   2.145   5.359 -0.0607 -0.0777  0.3209
14199W        W14399   9.130   3.263  13.112  0.0039  0.0742 -0.0900
14200W        W14400   0.502   8.995   1.721  0.1183  0.0479 -0.0503
14201W        W14401   6.420  10.627   6.404 -0.3296  0.0643  0.1058
14202W        W14402   1.646  11.958   1.491 -0.1145  0.0178 -0.1197
14203W        W14403   8.825   2.579  11.135 -0.0106  0.1413  0.1051
14204W        W14404   1.525  14.384   2.459  0.0452 -0.1252  0.1500
14205W        W14405   7.174  13.532   6.184 -0.2274 -0.0114 -0.2359
14206W        W14406  11.863  12.135   1.624 -0.2125 -0.0216 -0.1210
14207W        W14407   5.507   4.985  14.750  0.0745  0.0552 -0.2989
14208W        W14408   4.482   6.025   9.604 -0.0534 -0.2572  0.0973
14209W        W14409   7.547   6.167   2.396 -0.0423  0.0082 -0.1934
14210W        W14410   8.657   1.788   5.173  0.3699 -0.5353 -0.1926
14211W        W14411   0.717   5.358  13.250  0.0457  0.0883  0.1076
14212W        W14412   1.161   1.495   3.488  0.1674  0.0212  0.0851
14213W        W14413   7.899  12.024   5.616  0.0412  0.3387 -0.6338
14214W        W14414   9.204   7.978   1.781  0.0642  0.0601 -0.1148
14215W        W14415  13.761   9.420   3.679 -0.1902  0.1170 -0.0654
14216W        W14416  11.000   7.633   5.932 -0.0145  0.1675 -0.4268
14217W        W14417   8.326   2.625  12.895 -0.0526 -0.1156  0.2702
14218W        W14418   9.002   2.878   5.016 -0.0007  0.2181  0.0682
14219W        W14419   7.450   0.725   4.319 -0.2686  0.0545 -0.0453
14220W        W14420   9.147   5.084  13.230 -0.1852  0.1703 -0.0652
14221W        W14421  12.705   2.836   2.162  0.1556 -0.0875 -0.3036
14222W        W14422   5.910   3.554   2.387 -0.0477  0.0276 -0.1145
14223W        W14423   1.332   6.575  11.236  0.0929  0.1690 -0.0059
14224W        W14424  13.937   5.245   2.122 -0.1588 -0.2039 -0.0630
14225W        W14425   1.143   4.806   7.548  0.0255 -0.0942  0.1321
14226W        W14426   9.395   1.988   2.720  0.2410  0.3581 -0.1053
14227W        W14427   5.514  11.444   4.402 -0.0677 -0.1098  0.0918
14228W        W14428   5.339   2.528   7.069  0.0027 -0.1343 -0.1163
14229W        W14429   8.811   7.688  10.226 -0.1498  0.0073 -0.2999
14230W        W14430  11.399   4.188   5.760  0.0021 -0.3392 -0.0457
14231W        W14431   2.894   0.367   0.157 -0.2601 -0.1930  0.1262
14232W        W14432   8.948   1.896  13.887  0.1325 -0.0447 -0.0331
14233W        W14433   5.917  11.579   1.638  0.0081 -0.2464  0.1389
14234W        W14434   5.364   4.276   5.793  0.1906  0.1227 -0.3551
14235W        W14435   4.403  11.388   8.661  0.0612  0.0784 -0.2957
14236W        W14436   9.524   8.443   2.941  0.0485  0.0552  0.2857
14237W        W14437   2.504  14.575   4.613 -0.2681 -0.0077 -0.1422
14238W        W14438   3.373   1.409   6.452 -0.1038  0.0276  0.1129
14239W        W14439   2.156   2.968   3.328 -0.0863 -0.0340  0.0757
14240W        W14440  13.748   2.693  15.081  0.2907  0.1361 -0.2019
14241W        W14441  11.710   7.340  11.844 -0.0199 -0.2135 -0.0914
14242W        W14442  12.618   4.736   1.074  0.0886  0.1748 -0.0988
14243W        W14443   8.268   1.038   4.115  0.5253  0.0748 -0.1526
14244W        W14444  14.639   3.487   4.946  0.2026 -0.1008  0.1004
14245W        W14445  14.170   0.249  12.867 -0.1406 -0.1554  0.1966
14246W        W14446   7.599   3.328   5.427  0.2692  0.1121 -0.1392
14247W        W14447   6.062   6.711   4.702  0.0495  0.2077  0.2270
14248W        W14448   9.957  14.338  14.006  0.0394 -0.7111  0.0110
14249W        W14449   8.607  10.262  12.234 -0.1542 -0.1440  0.3117
14250W        W14450  10.735   2.048  12.794  0.1728 -0.0470 -0.1086
14251W        W14451  14.461   2.494   7.054 -0.0767 -0.2382 -0.1199
14252W        W14452   7.981  13.247   9.180  0.2663  0.3795  0.0847
14253W        W14453  12.499   6.222   1.713  0.2652  0.2800 -0.2613
14254W        W14454   8.397   4.993   0.360  0.0443 -0.1697 -0.2032
14255W        W14455   2.494   1.823   6.827  0.0439  0.0033 -0.1318
14256W        W14456  12.099   8.013   3.944  0.1050 -0.1955 -0.1135
14257W        W14457   7.874   6.946   7.165  0.1645 -0.1152 -0.0337
14258W        W14458   7.501   5.922   8.863  0.2592  0.1645 -0.1145
14259W        W14459  11.703   6.325  11.884  0.0384 -0.1865 -0.0750
14260W        W14460   5.167   4.083   6.347  0.3401  0.1869  0.1702
14261W        W14461   6.338  12.979   1.111  0.0202 -0.2007 -0.1767
14262W        W14462   9.182   6.759   0.520 -0.0104 -0.2949  0.1715
14263W        W14463  13.124   5.616  12.111 -0.0909  0.2726  0.0081
14264W        W14464  10.571   8.641  14.307  0.3005 -0.2795  0.2136
14265W        W14465   6.738  12.146   5.325 -0.0342  0.4280 -0.0080
14266W        W14466   3.005   4.451  11.550  0.1533 -0.3110 -0.3174
14267W        W14467  13.206   9.611   1.604  0.0076  0.0212 -0.1188
14268W        W14468   8.114  14.967   2.070  0.2546  0.0757  0.0502
14269W        W14469   9.956   4.266   5.618 -0.0257  0.2239 -0.1941
14270W        W14470   2.786  14.673   1.950 -0.0037 -0.0838  0.0072
14271W        W14471   2.719   3.897  11.858 -0.0466  0.0825  0.0009
14272W        W14472   9.624  10.528   9.536 -0.2054 -0.5306  0.6298
14273W        W14473  10.662   1.067   1.837 -0.1147  0.2685 -0.1840
14274W        W14474  12.165   9.079   5.845 -0.0560  0.3470 -0.1284
14275W        W14475  11.499   9.238   8.319  0.1767 -0.0906  0.5803
14276W        W14476  10.976   6.142  13.002 -0.0292  0.0175  0.2237
14277W        W14477  13.941   9.193   8.301 -0.1380  0.1194 -0.1397
14278W        W14478  12.344   7.000   1.177  0.0804 -0.3903  0.0611
14279W        W14479  11.327   3.054   0.563 -0.2553 -0.3745  0.0918
14280W        W14480   8.028  12.779   1.615 -0.0006  0.5507 -0.3560
14281W        W14481   8.069   1.965  14.127  0.0488  0.2074  0.0778
14282W        W14482   2.564   2.616   3.399 -0.2212  0.0414 -0.0692
14283W        W14483   4.214  10.823   7.929 -0.0500 -0.0532  0.1366
14284W        W14484   0.262  14.968  11.124  0.1210  0.0939  0.3016
14285W        W14485  11.550   4.885   2.278 -0.0831 -0.1185 -0.2314
14286W        W14486   9.283   0.033   6.443 -0.0387 -0.0500 -0.2111
14287W        W14487  12.025  13.861   9.465  0.0157  0.3996 -0.1190
14288W        W14488   9.212   8.790  11.752 -0.4340  0.1122  0.0693
14289W        W14489   0.616   2.720   4.111 -0.0579 -0.0615 -0.0383
14290W        W14490   8.083   3.035   4.658  0.0445 -0.0267 -0.1513
14291W        W14491  11.146   5.019   0.195  0.3900  0.3059 -0.0571
14292W        W14492   6.700   8.515  14.598  0.3359 -0.1689 -0.0444
14293W        W14493   4.947   9.126   5.181  0.0934  0.0128  0.1945
14294W        W14494  12.892  10.280  13.815  0.1727  0.0332  0.1931
14295W        W14495  10.832   7.097   1.278  0.1371 -0.1184 -0.2259
14296W        W14496   8.514   3.163   1.370 -0.1355  0.0251  0.1877
14297W        W14497  13.719   6.027   7.374 -0.2168 -0.0523 -0.1142
14298W        W14498  10.404   7.573  11.704  0.1354 -0.1146  0.1957
14299W        W14499   2.536   2.490   3.934 -0.1863  0.2498 -0.0413
14300W        W14500   9.705  14.952   4.183 -0.1035  0.1077  0.0532
14301W        W14501   6.978   9.392   8.584  0.0981 -0.0777  0.0537
14302W        W14502  12.915   0.692  11.882  0.1233  0.2372  0.1146
14303W        W14503   9.925  10.779   7.819 -0.0415  0.1034 -0.3249
14304W        W14504   4.333   9.522   6.845  0.1704  0.1496 -0.1270
14305W        W14505   3.092  12.417   1.751 -0.1079 -0.1015  0.2051
14306W        W14506   3.017   8.302   3.847  0.0892  0.0159  0.1770
14307W        W14507  11.509   2.337  11.987 -0.2567  0.1286  0.0220
14308W        W14508   9.070   0.327   3.881  0.2171  0.0384 -0.1476
14309W        W14509  14.264   5.155   1.740 -0.1344  0.0275  0.4375
14310W        W14510   3.758   7.963   0.874  0.0645 -0.0091  0.1411
14311W        W14511   0.171  13.465   6.210  0.0719  0.0821  0.0282
14312W        W14512   5.130  10.418  14.212 -0.0661  0.3248  0.1920
14313W        W14513   6.482   1.133   5.400 -0.0146 -0.0323 -0.1184
14314W        W14514  12.479  11.372   5.420 -0.1546  0.0246 -0.0806
14315W        W14515   6.509  12.009  12.869  0.3914 -0.1020 -0.1216
14316W        W14516   6.912   0.352   8.746 -0.0638 -0.0311 -0.3852
14317W        W14517  14.395  14.512   4.365  0.1083  0.0299  0.0913
14318W        W14518  13.439  14.627   1.784  0.3798  0.2250  0.4629
14319W        W14519  11.503   1.114   1.156  0.0602  0.1502  0.1264
14320W        W14520   3.951   9.991   8.762 -0.0417  0.2959 -0.0576
14321W        W14521   5.606  10.210   9.995 -0.1693 -0.0390  0.3300
14322W        W14522   3.744   3.489   6.020  0.1114  0.2341  0.0765
14323W        W14523  11.281   0.459  10.683 -0.3585 -0.1836  0.2035
14324W        W14524   1.837   1.801  13.540  0.1672  0.1387  0.2473
14325W        W14525   5.939   2.753  14.505  0.1737  0.1049  0.2029
14326W        W14526   5.041   7.620   1.994 -0.1079  0.0782 -0.0183
14327W        W14527   8.799   5.284  13.642 -0.1192 -0.2523  0.1147
14328W        W14528   9.525   2.440   8.408  0.0173  0.2230  0.6660
14329W        W14529   7.595  12.600  11.794 -0.2404 -0.1616  0.0629
14330W        W14530   9.319   8.752  13.461 -0.1471 -0.2642 -0.3225
14331W        W14531   6.027   2.240  14.685  0.0510  0.1716  0.3912
14332W        W14532  14.282   2.852   2.454 -0.0264  0.0152 -0.1950
14333W        W14533   5.569   8.568   3.213 -0.0125  0.0638 -0.0372
14334W        W14534   6.247  13.750   7.882  0.4454  0.1278 -0.1911
14335W        W14535   6.440   0.763   4.580 -0.1364  0.3294  0.0146
14336W        W14536  10.662   3.566   4.742 -0.0479 -0.1826  0.0680
14337W        W14537   1.040   4.851   2.249  0.3094 -0.3632 -0.1277
14338W        W14538   3.134   5.629   4.479 -0.0041  0.1363  0.2349
14339W        W14539   0.146  10.009   6.360 -0.1993  0.0135  0.1408
14340W        W14540   7.527   0.933   6.467 -0.3246  0.1470  0.0044
14341W        W14541  13.963   2.766   4.771 -0.0567 -0.1668 -0.0861
14342W        W14542   7.492   2.661   6.318  0.2858  0.1527 -0.2662
14343W        W14543   6.018  12.247   8.889  0.3399  0.0374  0.1047
14344W        W14544  14.052   2.166   2.717  0.2761 -0.1698  0.1727
14345W        W14545   4.834  13.390   5.224  0.3210 -0.0294 -0.0931
14346W        W14546  11.075   3.892   7.488  0.1641 -0.2748 -0.1120
14347W        W14547   9.284   9.624   2.155 -0.3204  0.1410  0.1300
14348W        W14548  13.809   6.671   7.572  0.2836 -0.0668 -0.1139
14349W        W14549   7.471  13.655   4.261  0.0669 -0.1175 -0.1441
14350W        W14550  11.536  10.168  11.925 -0.2160 -0.0387  0.0853
14351W        W14551   0.012   7.293   5.207 -0.2539 -0.0472  0.1093
14352W        W14552  13.640   2.086   4.111 -0.0510 -0.2613  0.1019
14353W        W14553  12.677  12.506   8.067 -0.2072 -0.1300 -0.2895
14354W        W14554   1.005   3.060   8.452 -0.0197 -0.2689 -0.1104
14355W        W14555   4.461  11.341  13.268  0.1664  0.0153 -0.1276
14356W        W14556   4.469   7.086  11.751  0.0847  0.1402 -0.0223
14357W        W14557   5.307   1.698   1.408  0.1586 -0.0012 -0.1205
14358W        W14558  12.180  10.519   3.736 -0.0626  0.0428 -0.1298
14359W        W14559  14.544  11.766   5.923 -0.1600 -0.1787 -0.3089
14360W        W14560   5.572  12.098  10.093 -0.2061 -0.2050  0.1443
14361W        W14561  13.303  12.986   0.120  0.2064 -0.2297 -0.1943
14362W        W14562   3.212   2.014   5.077 -0.2018  0.0635 -0.2681
14363W        W14563   5.381  14.872   6.695  0.1805  0.2927  0.0288
14364W        W14564  10.669   5.068   0.037 -0.2743  0.1278  0.0384
14365W        W14565   4.177   5.352  13.023  0.1984  0.2533 -0.0922
14366W        W14566  10.881   0.796  10.692  0.0173  0.0837 -0.0610
14367W        W14567   2.828   1.881   6.415  0.0062 -0.1295 -0.2283
14368W        W14568   0.054   1.324   7.573  0.0196  0.0211  0.0475
14369W        W14569   6.196   9.963   3.198  0.0514 -0.2253  0.1416
14370W        W14570   3.700   2.053   3.923  0.3400  0.0214  0.0020
14371W        W14571   1.329   7.131   3.337  0.0102  0.6061  0.0725
14372W        W14572   4.549  12.677  13.565 -0.2538  0.2515 -0.3009
14373W        W14573  11.649   2.644  10.677  0.1227  0.0846 -0.1225
14374W        W14574  13.083   2.485   0.841 -0.0212 -0.3650  0.0781
14375W        W14575   6.375   2.897  13.377  0.2079  0.1277  0.0880
14376W        W14576   2.463   6.307   5.323  0.0079 -0.0037 -0.3840
14377W        W14577   2.999   7.740   1.260  0.2235  0.0603 -0.0705
14378W        W14578   1.405   1.154   5.135  0.2991  0.1457 -0.1881
14379W        W14579  12.109   5.931   6.066 -0.0717  0.0746  0.2114
14380W        W14580  12.868   2.049   0.729  0.1097 -0.0772  0.1941
14381W        W14581   4.802  13.644  13.107 -0.0812  0.2501 -0.1631
14382W        W14582  11.281   4.438   1.128 -0.0826 -0.1924 -0.2684
14383W        W14583   4.360  14.683   4.419  0.3345 -0.2571  0.2220
14384W        W14584  14.564  13.887   1.265 -0.0145 -0.0044 -0.0433
14385W        W14585  10.515   2.928   8.292  0.0477 -0.0726 -0.1019
14386W        W14586   8.521   4.270   6.600  0.0898  0.1110  0.1809
14387W        W14587   6.606  12.918   8.599 -0.0140  0.3258 -0.0513
14388W        W14588   2.277  12.964   4.230 -0.1102  0.0954  0.0905
14389W        W14589  11.080   7.152   3.638 -0.1379  0.1624  0.1430
14390W        W14590   9.040   3.936  14.245  0.0063 -0.1204  0.1847
14391W        W14591   6.201   4.806   2.896 -0.0618  0.1205  0.0312
14392W        W14592   8.195  13.139   4.162 -0.1414 -0.0582 -0.0317
14393W        W14593   6.576   9.270   9.397 -0.0138  0.3981  0.2514
14394W        W14594   2.656   4.536   1.468  0.3964 -0.3695 -0.2822
14395W        W14595   2.873   2.200   5.346 -0.0555 -0.0434  0.0944
14396W        W14596  10.790   4.689   0.366 -0.0829  0.2617  0.1196
14397W        W14597   7.059   2.499   6.126 -0.4060 -0.1908  0.2279
14398W        W14598   6.660  14.551   0.544 -0.0305 -0.0483 -0.1708
14399W        W14599   4.938   0.607  10.242  0.0092 -0.0214 -0.2640
14400W        W14600  13.641   0.919   4.138  0.1148 -0.0475  0.2205
14401W        W14601   2.906   2.575   5.933  0.1197 -0.0509 -0.1530
14402W        W14602  12.006   4.157   4.288 -0.2517 -0.3036 -0.3289
14403W        W14603   6.692   1.789   3.393 -0.1569 -0.1096 -0.0302
14404W        W14604   6.460   9.714   8.562 -0.4343  0.1467 -0.0390
14405W        W14605   1.212  10.480   3.406  0.0351  0.2146 -0.0420
14406W        W14606  13.261   0.989   5.216 -0.1965  0.0234 -0.0081
14407W        W14607  14.972   5.110   9.403  0.0649 -0.1885 -0.1908
14408W        W14608   8.259   3.217  12.785  0.0906  0.2158 -0.0228
14409W        W14609   7.693   3.821   7.044  0.0520  0.1616 -0.3886
14410W        W14610   9.170   6.736  14.832  0.1081 -0.0430 -0.4215
14411W        W14611   7.598   9.227   5.388 -0.0287  0.0211  0.0941
14412W        W14612   7.614   2.290   0.804  0.1437  0.0453 -0.1453
14413W        W14613  14.610  10.841   3.664  0.1726  0.3960  0.0279
14414W        W14614   7.528   3.355   7.753  0.0585 -0.0941  0.0392
14415W        W14615   7.306  13.215   4.871  0.0243 -0.4156 -0.5689
14416W        W14616   8.852  10.346   6.541 -0.1540  0.2022  0.0828
14417W        W14617   4.486  11.186   2.420  0.0286 -0.1939  0.2318
14418W        W14618   5.277  13.244  11.482  0.1927 -0.3680  0.4257
14419W        W14619   3.049   2.632   6.865 -0.2372  0.1175  0.1318
14420W        W14620  12.095   0.795  13.616 -0.0426 -0.2450  0.0600
14421W        W14621   7.637   4.634   9.444 -0.0177 -0.0158  0.3901
14422W        W14622   3.781  14.129   5.436 -0.1545 -0.2544 -0.0649
14423W        W14623   4.455   7.296   3.412 -0.1649  0.1553  0.3360
14424W        W14624   7.245   7.432   7.277 -0.3206  0.1894  0.1535
14425W        W14625   7.021   0.553   2.237  0.0656 -0.1733  0.1764
14426W        W14626  10.196   2.380   5.128 -0.0712  0.3985  0.0398
14427W        W14627   5.960   2.561   7.170 -0.0590 -0.0979  0.1517
14428W        W14628  10.843   3.682   8.633  0.2178 -0.0971  0.2835
14429W        W14629  10.522   2.870   0.799  0.1013  0.1618 -0.0804
14430W        W14630   7.942  15.002   5.453  0.1831  0.0444  0.1755
14431W        W14631   6.843   2.424   6.610  0.0562  0.0042  0.1887
14432W        W14632  11.983  14.900  15.115  0.0998 -0.0973  0.1753
14433W        W14633  12.952   1.638   7.431  0.1866 -0.2018 -0.1351
14434W        W14634   3.617   5.277   6.720 -0.2066 -0.2788  0.0437
14435W        W14635   9.033   5.245  12.378 -0.1123 -0.1353 -0.0086
14436W        W14636  12.859   5.330   3.557 -0.1051  0.0872  0.3367
14437W        W14637   4.498  14.067   9.925 -0.2218 -0.3076 -0.0617
14438W        W14638  12.829  12.461  13.950  0.1673 -0.0519 -0.0805
14439W        W14639  11.694  12.177   6.007 -0.1103  0.1573 -0.0464
14440W        W14640  14.197   3.900   9.876 -0.0625  0.0408  0.1517
14441W        W14641  10.770  15.027  10.229  0.1207 -0.1091 -0.1052
14442W        W14642  10.083   2.542   5.764 -0.2423 -0.2058 -0.0226
14443W        W14643   6.342  12.748   5.788 -0.1585  0.1418  0.1388
14444W        W14644   6.129  13.066   9.763 -0.0456 -0.4062  0.1111
14445W        W14645  14.898   9.389  12.311  0.4585  0.2622  0.1202
14446W        W14646   4.495   6.785   4.924 -0.0697  0.1790 -0.3658
14447W        W14647  11.865   3.884  13.220  0.0048 -0.2040 -0.0956
14448W        W14648   7.008  13.718   5.157 -0.0092 -0.1099  0.1192
14449W        W14649  11.998  14.186   6.570 -0.1222 -0.1241  0.2589
14450W        W14650  10.467  13.543   9.807 -0.1067  0.0855  0.2534
14451W        W14651   7.500  11.432   6.024  0.0176  0.3299 -0.1002
14452W        W14652  11.969   5.864   9.493 -0.2534 -0.5075  0.0119
14453W        W14653  13.459   6.935   4.680 -0.0000 -0.0540  0.2387
14454W        W14654   0.007  14.975   3.053  0.0336  0.1217  0.2862
14455W        W14655   2.786  13.355   3.812 -0.1243  0.1168  0.0061
14456W        W14656  12.393   5.322   3.822 -0.0487  0.0663  0.0983
14457W        W14657  12.327   0.114  10.145 -0.2473 -0.0117  0.1159
14458W        W14658  12.403   2.233   8.540  0.3204  0.0888 -0.0809
14459W        W14659   5.584  12.002   1.494  0.1087 -0.0456 -0.1772
14460W        W14660  11.613   3.562  10.802 -0.2738  0.1535 -0.1867
14461W        W14661   4.615  11.103   3.957 -0.0648 -0.1733 -0.0968
14462W        W14662  11.234  14.294   6.555  0.1108 -0.0678  0.0285
14463W        W14663   2.702  11.575   3.487  0.0070 -0.1315 -0.1029
14464W        W14664   9.467   3.789   8.765 -0.3700 -0.1418  0.2945
14465W        W14665  12.518  10.109   9.193 -0.1039  0.2483  0.2492
14466W        W14666   8.188   6.256   3.640  0.0426 -0.0111  0.1431
14467W        W14667   2.419   0.652  11.587 -0.1110  0.1397 -0.1204
14468W        W14668   7.532  11.270   8.562 -0.0899  0.1953 -0.0496
14469W        W14669   2.567  13.929   5.232  0.2050  0.0884  0.0407
14470W        W14670   9.979  11.618   7.078 -0.0885  0.2404  0.0054
14471W        W14671   7.259  13.195   4.240  0.0774  0.0421  0.0128
14472W        W14672   5.339   4.819  10.911  0.2533 -0.0610 -0.0866
14473W        W14673   3.841   2.720   6.125  0.4068 -0.1014 -0.0991
14474W        W14674   7.176   2.987  12.512  0.0198 -0.1209  0.1979
14475W        W14675   7.144   9.232  12.369 -0.2078  0.0559 -0.0335
14476W        W14676   8.218   0.211   6.494  0.1779 -0.2412 -0.1546
14477W        W14677   0.046   6.663   0.697 -0.0583 -0.3109 -0.2944
14478W        W14678   9.747  12.859   7.000 -0.1225 -0.0055 -0.0967
14479W        W14679   9.795   4.905   8.487 -0.6151 -0.2442  0.3437
14480W        W14680   8.789   0.843  13.941 -0.1073 -0.0254 -0.4046
14481W        W14681  12.192   4.779   5.298 -0.3887 -0.1812  0.0732
14482W        W14682  11.121   0.010  13.546  0.1459  0.0133  0.4960
14483W        W14683  12.046  11.220  11.384 -0.0325  0.1298  0.3012
14484W        W14684   8.834  13.073   4.661 -0.1950  0.0971 -0.0399
14485W        W14685  10.002  13.769   5.911 -0.1672 -0.0983 -0.0229
14486W        W14686  12.710   5.566   3.087 -0.0096  0.0409  0.0631
14487W        W14687  11.026  13.115   9.846 -0.1730 -0.2680  0.0921
14488W        W14688   3.184   0.029   4.885  0.1062 -0.0099  0.1558
14489W        W14689   1.178   6.054   8.237  0.0351 -0.0501  0.4419
14490W        W14690   3.238   1.129   0.300  0.1492  0.0078  0.1436
14491W        W14691  13.550   4.364   5.787 -0.3007  0.0808  0.3892
14492W        W14692   6.090   9.849   4.055 -0.1396 -0.0862  0.2726
14493W        W14693   5.453  14.246  12.132  0.2046  0.1842 -0.4749
14494W        W14694   7.360   2.823   7.750 -0.0218 -0.2781 -0.1065
14495W        W14695  14.939  13.689   6.429  0.3727 -0.2649  0.0998
14496W        W14696   9.679   1.453   7.838  0.1483 -0.0713 -0.1096
14497W        W14697  14.812   2.821   2.541 -0.1353  0.0298  0.0894
14498W        W14698   5.488   9.024   5.271  0.2509  0.4474 -0.0130
14499W        W14699   3.989   4.361   0.987 -0.1483 -0.1789  0.0477
14500W        W14700   2.139  12.324  14.482  0.0800 -0.0753 -0.0370
14501W        W14701   1.017   9.744   7.006  0.2217 -0.1215 -0.1528
14502W        W14702   3.817   5.111  13.454 -0.1715  0.3006 -0.0090
14503W        W14703  14.398   9.067   3.307 -0.2402 -0.0137  0.1853
14504W        W14704  14.156   2.849  12.036 -0.0827 -0.2261 -0.2688
14505W        W14705   6.029   1.091   3.821  0.0562 -0.2151  0.0401
14506W        W14706  13.385   4.780   3.329  0.1501 -0.2018  0.1039
14507W        W14707   5.495  12.650   2.397  0.1063  0.0669 -0.0407
14508W        W14708  10.888   1.820   4.632  0.0351  0.0304  0.1413
14509W        W14709   8.954   1.583  10.843 -0.2438 -0.1319 -0.0551
14510W        W14710   2.849   3.192   9.238 -0.0698 -0.4554 -0.0977
14511W        W14711   9.589  14.653   6.225 -0.0924  0.0082  0.3121
14512W        W14712   0.507   4.503   0.749 -0.3556 -0.0343  0.2443
14513W        W14713   5.398   8.051   2.280 -0.4839  0.0175  0.0982
14514W        W14714  14.690  13.116  13.341 -0.0783 -0.0087  0.1231
14515W        W14715   4.626  10.950   6.433  0.0048  0.0012 -0.4249
14516W        W14716   9.922   7.690   6.867  0.1099 -0.1842 -0.1319
14517W        W14717   8.931  14.490  12.848  0.0464 -0.0587 -0.0395
14518W        W14718   8.407   3.709   6.396 -0.1411  0.0775 -0.0367
14519W        W14719   7.926  12.535   2.173 -0.0949  0.1050  0.0889
14520W        W14720  12.336   1.235   5.561  0.2777 -0.1233 -0.0790
14521W        W14721  10.483   0.769  10.940  0.1550  0.0726 -0.4855
14522W        W14722   9.024  14.489   9.447 -0.2757  0.0357  0.1412
14523W        W14723   7.945   9.992  14.870 -0.2231 -0.4194 -0.0490
14524W        W14724   4.810   7.633   5.885 -0.1300  0.2379 -0.0513
14525W        W14725  14.681  14.676  11.754  0.0363 -0.0415 -0.0681
14526W        W14726   5.939  10.503   8.267 -0.2178  0.1063 -0.1134
14527W        W14727   4.909  11.223   2.744  0.1400 -0.1156 -0.1963
14528W        W14728  11.292   2.022   2.632 -0.0054  0.0951 -0.3714
14529W        W14729  14.111   3.251  13.012  0.1359 -0.2708 -0.4229
14530W        W14730   8.653   0.997  14.865  0.0234  0.1682  0.0340
14531W        W14731   0.977   6.511   1.869 -0.2152 -0.1585 -0.0330
14532W        W14732  11.415  13.922   9.656 -0.2711  0.1283 -0.2973
14533W        W14733  11.137   8.745   5.278 -0.2563 -0.1122 -0.1279
14534W        W14734  12.392   1.651   9.181  0.0962 -0.1631  0.0822
14535W        W14735   6.301   7.831   3.887 -0.1982  0.0533 -0.0046
14536W        W14736  12.150   8.562   5.637 -0.0267 -0.1066  0.1877
14537W        W14737   3.945   1.927   9.354  0.1298  0.0313  0.2064
14538W        W14738   5.419  12.232   4.683 -0.1038 -0.0712  0.1622
14539W        W14739   0.498   8.918   8.831  0.0120  0.0961  0.0415
14540W        W14740   9.374   8.000   2.768  0.0409 -0.1685 -0.0662
14541W        W14741   7.605   4.542  11.771 -0.0996 -0.0204 -0.0366
14542W        W14742  15.125   2.348   8.905  0.0815  0.3139 -0.1451
14543W        W14743   7.478   7.028   8.603  0.2981 -0.0185  0.0900
14544W        W14744   0.851   9.165   2.722 -0.1268  0.0380 -0.1243
14545W        W14745   8.873   2.246   5.242  0.0556 -0.0208  0.0425
14546W        W14746   1.819  13.932   4.980 -0.0095  0.2684  0.4060
14547W        W14747   9.913  12.239   2.719 -0.2082  0.0575 -0.1731
14548W        W14748   4.174  12.798   0.481  0.1183  0.0817  0.1006
14549W        W14749  13.064  12.144   6.960 -0.1767  0.2326 -0.1068
14550W        W14750  14.541  11.438   5.497  0.0399 -0.0124 -0.3121
14551W        W14751   6.039   5.741  10.600  0.0588  0.0226  0.0182
14552W        W14752   3.578   1.129   3.667  0.2784  0.2698 -0.2569
14553W        W14753   4.462  11.634   6.649 -0.3115  0.2078 -0.1710
14554W        W14754  11.850   3.228   9.411  0.0276  0.3708  0.3374
14555W        W14755   7.297  12.198   7.667 -0.0730 -0.1221 -0.1070
14556W        W14756   7.954   8.707   9.518  0.0360 -0.1884  0.0024
14557W        W14757   0.749   6.880   8.676 -0.1735 -0.0673 -0.1482
14558W        W14758   4.599  13.054   6.959 -0.1663 -0.0869 -0.0961
14559W        W14759  10.312   6.402   0.367  0.1399  0.1317 -0.0567
14560W        W14760  13.753   1.726   5.272 -0.0986  0.1397  0.3413
14561W        W14761   8.038  13.158   8.235  0.1260 -0.0608  0.2005
14562W        W14762   2.825   2.838   0.791 -0.1194  0.0483 -0.2892
14563W        W14763  12.931   0.625   5.452  0.0970  0.4608 -0.1904
14564W        W14764   7.006   7.539   7.739  0.3219  0.3205  0.2675
14565W        W14765  14.494   0.373   6.577 -0.0029 -0.2422 -0.0265
14566W        W14766  10.455  14.177  11.123  0.0221 -0.0959 -0.1414
14567W        W14767   2.136   2.417   3.151  0.0865  0.2240 -0.2403
14568W        W14768   8.077   1.840   6.274  0.0212 -0.0254  0.0220
14569W        W14769  11.704  13.486  12.792  0.2652 -0.0210 -0.0970
14570W        W14770   7.634   0.051   4.241 -0.1222 -0.2127 -0.3220
14571W        W14771   4.632   5.328  11.508 -0.0598  0.0494 -0.1372
14572W        W14772   6.820  10.141   7.865 -0.0513 -0.3751  0.1627
14573W        W14773   4.958   9.360   7.415  0.0662 -0.0361 -0.6552
14574W        W14774   8.786   6.641  10.947 -0.1024  0.0314  0.1327
14575W        W14775   1.023   7.586  11.788  0.3778 -0.2565  0.0881
14576W        W14776   5.163  11.286   9.008  0.0941  0.1895  0.1643
14577W        W14777  12.884   1.329  10.208  0.1645 -0.0787 -0.1655
14578W        W14778   8.678   9.237   3.057 -0.1934  0.3845 -0.0899
14579W        W14779   5.674   5.956   0.702 -0.1246 -0.0648  0.0683
14580W        W14780   3.856   7.531  10.459  0.0607 -0.0582 -0.2323
14581W        W14781   6.399   7.153   4.529  0.3024  0.0823 -0.1048
14582W        W14782   3.886   9.215   2.002  0.0931 -0.1147 -0.2182
14583W        W14783   5.645   3.071   3.622 -0.0091  0.1087 -0.2154
14584W        W14784  13.256   4.516  12.558 -0.1656  0.3439 -0.0352
14585W        W14785  10.028   5.603   6.612 -0.0549  0.2810  0.0239
14586W        W14786   9.016  13.699  14.682  0.0078  0.0857  0.1732
14587W        W14787  13.165   2.870   3.700 -0.1575  0.3583  0.1423
14588W        W14788   9.403  14.338  12.747  0.2982  0.1043 -0.0419
14589W        W14789  14.965  13.211   2.911  0.1547  0.2482 -0.0423
14590W        W14790   2.976   6.821   5.851  0.1221 -0.2083 -0.1073
14591W        W14791   7.825   1.361   2.264  0.1319 -0.0571 -0.1233
14592W        W14792  13.119   6.640  14.155 -0.2441  0.2415 -0.0736
14593W        W14793   8.904  13.085   6.657  0.1983  0.2013 -0.1221
14594W        W14794  10.502   9.800  10.414  0.2327  0.1198 -0.2920
14595W        W14795   9.829  13.654   8.812  0.0249 -0.0064 -0.3739
14596W        W14796   6.218  11.601  12.871 -0.1351 -0.0452 -0.0986
14597W        W14797  10.800  14.873   5.928  0.1722  0.2844  0.2127
14598W        W14798   5.579   1.355   1.099 -0.0650 -0.0622  0.2298
14599W        W14799   6.264   2.731   9.050  0.1203  0.1075  0.0631
14600W        W14800   4.171  14.231   6.166  0.1075 -0.1901 -0.1852
14601W        W14801   9.345  13.561  11.599 -0.1812 -0.2730  0.2756
14602W        W14802  14.690  15.055   2.693  0.0082  0.0593 -0.2793
14603W        W14803  11.185   9.794   7.403  0.0690 -0.1543 -0.2035
14604W        W14804   9.052   7.873   8.718 -0.0731  0.1217 -0.2925
14605W        W14805   1.810   9.131   9.760 -0.0321  0.3999 -0.0903
14606W        W14806  11.360   1.682   7.151  0.0880  0.1389  0.1461
14607W        W14807   5.179   4.073   4.992 -0.0075 -0.0781  0.1011
14608W        W14808  10.644  13.712   2.883  0.1483 -0.0356 -0.1769
14609W        W14809   6.262   7.128  11.769 -0.0448  0.0259  0.0254
14610W        W14810   5.653   9.621   4.291  0.0899 -0.3230 -0.1322
14611W        W14811   5.979   3.037   7.945 -0.1273 -0.1380 -0.0128
14612W        W14812   8.443   4.162   4.508  0.2143  0.0721 -0.2328
14613W        W14813  13.646  14.856   3.061 -0.3961  0.0042 -0.0843
14614W        W14814   9.918  13.538   2.366  0.0679  0.0785  0.1011
14615W        W14815   7.390  14.131   9.239 -0.1205 -0.0721 -0.2620
14616W        W14816   0.161   1.483   3.644 -0.0653  0.2094  0.0881
14617W        W14817   4.029   0.325  14.786  0.0998 -0.1438  0.0191
14618W        W14818  14.897   8.782   3.361  0.1214  0.2420 -0.4879
14619W        W14819   1.900   1.490   2.835 -0.1674  0.4265  0.2276
14620W        W14820  13.705  11.812   9.156 -0.3032 -0.3054  0.1194
14621W        W14821   5.982  11.727   7.181  0.0264  0.1900 -0.0059
14622W        W14822  14.131  10.575   3.067  0.1775  0.1370 -0.0745
14623W        W14823   1.147   9.759   0.258 -0.2626 -0.0900 -0.4874
14624W        W14824  11.325  14.043  14.582 -0.0148 -0.2504 -0.0982
14625W        W14825   8.283   2.589   7.045 -0.0212 -0.2417 -0.0421
14626W        W14826   8.700   8.330   6.742 -0.0807 -0.0936 -0.0705
14627W        W14827   2.483   1.955   3.303 -0.1428 -0.0411  0.2171
14628W        W14828   3.239   1.436   3.861  0.1730  0.0565 -0.0769
14629W        W14829  11.240   3.441   9.427  0.1310  0.0844  0.0643
14630W        W14830  14.703   8.118   6.179 -0.0164  0.1390 -0.0237
14631W        W14831   8.470  12.740   7.456 -0.1532 -0.2185 -0.2470
14632W        W14832   9.425  11.544   5.058 -0.2795  0.1119 -0.0774
14633W        W14833   4.523   1.629   5.954 -0.1037 -0.1332 -0.2948
14634W        W14834   3.876  14.411  12.312 -0.0114 -0.1570  0.1771
14635W        W14835   3.359  14.729   5.680  0.3114  0.0923  0.0605
14636W        W14836  11.134  12.857   9.420 -0.3009 -0.1429 -0.1873
14637W        W14837  13.983   2.153  14.796 -0.2072  0.2902  0.5176
14638W        W14838   6.646   5.999   8.824 -0.0446 -0.0515  0.1928
14639W        W14839  13.653   6.416   8.834 -0.1349  0.1206  0.0542
14640W        W14840   8.449   6.292   4.078  0.0350  0.2367  0.1322
14641W        W14841   1.227  11.736   1.117 -0.0745  0.3455  0.0313
14642W        W14842  12.986   5.260   1.065  0.0089 -0.1960  0.0578
14643W        W14843  13.148   3.356   5.809  0.0733  0.3706 -0.0713
14644W        W14844   7.521   6.390  13.511  0.0420  0.1076  0.1450
14645W        W14845  10.987   0.834   6.630  0.0484  0.2160  0.0401
14646W        W14846  13.860  13.479   9.150 -0.2036 -0.4090  0.1902
14647W        W14847   7.369  14.705   5.426  0.2769 -0.1914 -0.1892
14648W        W14848   7.344   6.056   5.356  0.0150 -0.0107  0.1165
14649W        W14849   3.019   6.532   2.879  0.3842  0.0474  0.3559
14650W        W14850   3.973   3.207   6.296 -0.1185 -0.0784 -0.3351
14651W        W14851   2.054  11.350   1.207 -0.1032 -0.1932 -0.1072
14652W        W14852   8.056  11.538   8.708 -0.4268 -0.1211 -0.0378
14653W        W14853   3.179   5.197   8.496  0.0695  0.0573  0.1483
14654W        W14854   1.864   0.759  12.264  0.2178  0.3986  0.1551
14655W        W14855  10.482   1.893   1.607  0.2125  0.1079  0.1884
14656W        W14856   4.044   4.298   7.722  0.0840 -0.0639  0.0526
14657W        W14857   8.291  13.450  10.063  0.0558  0.2142  0.0188
14658W        W14858   7.093  13.048  10.741 -0.0823 -0.1439  0.0479
14659W        W14859   7.007  11.119  14.315  0.4898  0.1730 -0.3408
14660W        W14860   3.100   8.677   4.944 -0.0427  0.0622  0.0450
14661W        W14861   3.535  15.155   2.442 -0.0240  0.2050  0.1163
14662W        W14862  13.825  11.844   8.515 -0.1314 -0.1146  0.3688
14663W        W14863  15.040   1.564   7.140 -0.0763 -0.0432  0.1235
14664W        W14864   4.965  12.341  13.814  0.1852 -0.3328 -0.1033
14665W        W14865   8.188  14.424   7.293  0.0438 -0.0850 -0.0158
14666W        W14866  12.443  12.771   6.847 -0.0932 -0.0343  0.2172
14667W        W14867  12.884   5.805   8.370  0.0118 -0.0310 -0.0288
14668W        W14868   3.601   1.761  12.860 -0.0021 -0.0255 -0.1634
14669W        W14869   8.529  13.247   5.545  0.3742  0.4055 -0.3019
14670W        W14870  10.175   1.188   5.736 -0.1259  0.1095 -0.1287
14671W        W14871  11.198  12.487   1.764  0.1884 -0.0365  0.2198
14672W        W14872   3.662   5.450   5.890  0.0113 -0.1540 -0.0901
14673W        W14873  10.967  11.035  10.655 -0.1634 -0.1782  0.1594
14674W        W14874   7.518  12.026  10.554  0.2478 -0.0242 -0.0043
14675W        W14875   9.759  13.886   8.336 -0.2142 -0.3291 -0.0539
14676W        W14876  13.516   6.420   2.659 -0.0971  0.2245 -0.3926
14677W        W14877   9.521  14.676   9.308 -0.2312 -0.2057  0.2030
14678W        W14878   8.662   2.099  10.081  0.0789 -0.2390 -0.3432
14679W        W14879   8.301  11.121   1.069 -0.2799 -0.0305  0.0958
14680W        W14880   8.488  13.485   2.715  0.0238 -0.1216 -0.0708
14681W        W14881   4.172   4.457   6.869 -0.2129 -0.0450  0.1434
14682W        W14882   7.384  10.179  12.182  0.0139  0.2516 -0.3182
14683W        W14883  12.554  10.589   6.337 -0.2446 -0.1580  0.1887
14684W        W14884   1.965  11.240   3.234  0.0646  0.5149  0.0501
14685W        W14885  14.798   5.085   0.478  0.1409  0.0347  0.0020
14686W        W14886  11.348   2.495   2.611 -0.1274  0.1259  0.2287
14687W        W14887   3.370  12.844   3.330 -0.0115  0.1605  0.0209
14688W        W14888   5.298   3.965   3.973  0.0598  0.1167  0.1514
14689W        W14889   5.818   0.244   1.587 -0.0753 -0.2283 -0.0459
14690W        W14890   8.321   2.652  11.051 -0.4384 -0.0262 -0.0015
14691W        W14891   1.442   1.434   4.652 -0.0521  0.0161  0.2087
14692W        W14892   9.603  14.135  14.434  0.0352 -0.0284 -0.0329
14693W        W14893   9.359  14.628   5.777  0.0238 -0.2514  0.2608
14694W        W14894   9.749   1.624  13.438 -0.1332  0.0969  0.0462
14695W        W14895   5.588   7.500  10.678  0.2451 -0.0664 -0.1704
14696W        W14896  11.976   9.416   8.420 -0.0034  0.1690  0.1606
14697W        W14897   4.271   3.814  11.494  0.0499  0.0718 -0.0687
14698W        W14898   3.546  11.996   6.290 -0.1757 -0.0478  0.4411
14699W        W14899   9.788   7.655  10.383 -0.3111 -0.1481  0.0048
14700W        W14900   8.353   5.125   3.956  0.1652 -0.0970  0.2776
14701W        W14901  13.258   1.372   1.221 -0.3943 -0.2325  0.1861
14702W        W14902   5.854   8.602   6.989 -0.0029  0.1596 -0.2995
14703W        W14903   8.227   4.909   4.931 -0.4146 -0.1115  0.0466
14704W        W14904  13.580   6.317   1.626  0.0980  0.0457 -0.0986
14705W        W14905   6.849   0.686  13.518 -0.2500 -0.3706  0.2623
14706W        W14906   1.828   2.490   8.425 -0.0853 -0.0312  0.0328
14707W        W14907  13.398  12.513  13.587 -0.1750  0.0246  0.2360
14708W        W14908   2.486   1.988   5.580  0.0233 -0.0458  0.3245
14709W        W14909   5.548   0.946   0.016 -0.3209  0.1669 -0.1218
14710W        W14910  12.618  14.699   5.262 -0.3068  0.2898  0.3964
14711W        W14911   0.967   1.487   3.014 -0.0141 -0.0337  0.0170
14712W        W14912  10.500   1.431   0.903 -0.0758 -0.1187  0.3302
14713W        W14913   8.040  12.926   7.238 -0.1608 -0.0073  0.0604
14714W        W14914   5.120   5.368  13.899  0.1051 -0.1111  0.0604
14715W        W14915   1.035  13.712  14.521  0.0107  0.0142  0.1047
14716W        W14916  14.450  14.472   8.599  0.1219  0.1764  0.1854
14717W        W14917  12.415   8.783   4.605  0.0491 -0.0936  0.0861
14718W        W14918   1.704   0.544   9.329  0.0165  0.0996  0.2576
14719W        W14919   2.662   8.434  11.318 -0.2318  0.1816  0.1106
14720W        W14920   0.310   6.786  12.970  0.0937 -0.3652 -0.0637
14721W        W14921  10.890   6.478   9.660 -0.0337 -0.1973 -0.0917
14722W        W14922   6.432   5.225   7.528 -0.0591 -0.2346  0.1398
14723W        W14923  12.408  12.973   9.890  0.0852  0.1100  0.0618
14724W        W14924   9.265   0.890   8.992 -0.2835  0.1195 -0.0779
14725W        W14925   9.697   8.135   6.877  0.2180 -0.0047 -0.0814
14726W        W14926   4.640   7.715   8.848  0.3026 -0.2750 -0.1576
14727W        W14927   4.430   2.939   9.638 -0.0230 -0.0186 -0.0648
14728W        W14928   1.045   2.729   1.869 -0.0479  0.1679  0.1379
14729W        W14929   3.364  10.389   4.634  0.0778 -0.0938 -0.0389
14730W        W14930  12.188   1.179   1.898 -0.1778  0.1400  0.1576
14731W        W14931  15.096   8.803   4.140  0.1554  0.4116 -0.0081
14732W        W14932   9.326  10.600   1.300 -0.0978  0.3070 -0.0303
14733W        W14933   4.212   9.940  10.221  0.4263  0.0833 -0.3100
14734W        W14934   3.735  13.957   2.631  0.1826  0.0412  0.2810
14735W        W14935   8.947  12.032   6.800  0.2867  0.2660 -0.0177
14736W        W14936  12.927  13.878   9.716  0.0316 -0.4094 -0.1284
14737W        W14937   4.925   9.677   2.063  0.3259  0.2177  0.1331
14738W        W14938  10.801   8.827   5.663 -0.1711  0.0836 -0.1675
14739W        W14939  15.000  10.444  12.975 -0.0703  0.2818  0.0851
14740W        W14940   0.872  11.321   5.315  0.2576 -0.0452 -0.0336
14741W        W14941   1.698  14.902   8.515  0.1299 -0.2142 -0.0111
14742W        W14942  12.733   4.349  10.790 -0.0990  0.2661  0.1797
14743W        W14943   4.655  14.472   4.089 -0.3534 -0.2733  0.1594
14744W        W14944   1.249   1.128  13.362  0.2438  0.0405 -0.1217
14745W        W14945   4.594   1.234  13.815 -0.2057 -0.0021  0.2250
14746W        W14946  14.680  13.613   2.661  0.0161 -0.0006  0.0907
14747W        W14947   7.644   5.143   1.730  0.2222  0.3868 -0.1512
14748W        W14948   6.913  12.656  11.096  0.2104 -0.0428  0.0570
14749W        W14949   7.678   8.288   6.877  0.0496  0.0520  0.3333
14750W        W14950   3.569   3.278  11.509 -0.0258  0.0936 -0.1003
14751W        W14951   7.985   4.280  12.084  0.1838 -0.0906 -0.1447
14752W        W14952   9.795   5.896   5.330  0.1074  0.1837  0.0801
14753W        W14953   8.058   8.688  13.660 -0.2001  0.0738 -0.1106
14754W        W14954   5.535  14.938   9.200 -0.1564  0.0482  0.0666
14755W        W14955  15.073   3.644   9.363 -0.0969 -0.1918 -0.0039
14756W        W14956   0.944   4.913   1.687  0.0313 -0.2396 -0.2009
14757W        W14957  14.267   1.767   9.984 -0.2114  0.0704 -0.3127
14758W        W14958   4.718   1.398  14.792 -0.0410  0.0563  0.1013
14759W        W14959   0.859   7.102  14.951  0.0453  0.3338  0.1185
14760W        W14960   3.838  12.610   8.412  0.2378 -0.2740 -0.0757
14761W        W14961  12.657   0.818  10.206 -0.0878  0.1822  0.0145
14762W        W14962  10.042   5.367   8.060  0.1484 -0.0159  0.1182
14763W        W14963   9.377   9.909   2.571 -0.0534 -0.3063  0.0542
14764W        W14964  10.555   0.029  15.024  0.3139 -0.0444 -0.0349
14765W        W14965   6.127   0.167   4.285  0.0295 -0.1764 -0.2066
14766W        W14966  12.266   1.784  13.470 -0.3465  0.1875 -0.5028
14767W        W14967   5.892  12.611   4.543 -0.0953  0.0959 -0.0258
14768W        W14968   8.617   5.938   2.838  0.0558 -0.1257 -0.1273
14769W        W14969   9.097  11.439   5.452 -0.1398  0.1377  0.1476
14770W        W14970  12.595  12.266  12.185  0.2447 -0.1796 -0.0091
14771W        W14971  11.749   0.304  11.445 -0.3128 -0.1474  0.0060
14772W        W14972   2.158   5.244   8.939 -0.1291  0.0726  0.0223
14773W        W14973  13.401   2.538   4.027  0.1686 -0.1088 -0.2884
14774W        W14974  15.140   5.498   2.652  0.0695  0.2914  0.0899
14775W        W14975  12.892   0.425   6.380  0.0228 -0.2458  0.3458
14776W        W14976   5.870  12.079  11.513  0.1853  0.3740 -0.1893
14777W        W14977   6.424   5.050  15.162 -0.0864  0.2463 -0.0753
14778W        W14978  13.343   3.884   5.905 -0.2478 -0.2096 -0.2017
14779W        W14979   0.660   8.029  11.788 -0.0087 -0.1312 -0.2887
14780W        W14980   7.400   0.959   1.669  0.0724  0.0542  0.3294
14781W        W14981   9.306   3.082   9.244  0.1896 -0.1456  0.1155
14782W        W14982   9.893   7.706   4.271 -0.3199 -0.1011 -0.1261
14783W        W14983   0.251   4.366  12.592 -0.0110 -0.1503 -0.0343
14784W        W14984  13.764   2.251  13.146  0.2402  0.0302  0.1743
14785W        W14985   0.181   1.167   4.709  0.3005 -0.0499 -0.0520
14786W        W14986  12.589   9.213  10.644  0.0625  0.0063 -0.1924
14787W        W14987  14.413  13.558   7.180 -0.1584 -0.2381  0.4062
14788W        W14988   0.310   6.435  10.016  0.0180  0.1982  0.1193
14789W        W14989  14.296   6.957   9.488  0.2531 -0.3072  0.5727
14790W        W14990   0.257   0.482  10.461 -0.1712  0.0175 -0.1189
14791W        W14991  12.871   4.641   7.709  0.0559  0.3161  0.1178
14792W        W14992  10.511   3.449  11.183  0.1264 -0.2020 -0.0229
14793W        W14993   7.589  13.687  12.621 -0.0605 -0.3252 -0.2742
14794W        W14994  11.419   6.086  12.648  0.0505 -0.3442 -0.2767
14795W        W14995  10.668   3.567   2.119  0.1376  0.0839 -0.3284
14796W        W14996   0.591  13.000   1.726 -0.3347 -0.1345 -0.0802
14797W        W14997   9.318   5.124   1.280 -0.0859  0.1923  0.1361
14798W        W14998   9.065   0.316  10.021  0.1418 -0.1570  0.0284
14799W        W14999  13.590  11.637   7.675  0.1475  0.0219 -0.1467
14800W        W15000   8.302   2.195   1.118  0.1586 -0.0010  0.2733
14801W        W15001   8.062   8.509   5.373  0.1244  0.0106  0.3280
14802W        W15002  11.417   5.969   9.310  0.3360 -0.0925 -0.0652
14803W        W15003  11.011   8.376  14.928 -0.2560  0.1036  0.0479
14804W        W15004   1.461   0.440   9.818 -0.2989  0.0086 -0.1196
14805W        W15005  10.130   2.782  11.821  0.0806 -0.2174  0.3282
14806W        W15006   0.076   6.680   4.149  0.2673 -0.1206 -0.2273
14807W        W15007   9.915   9.218   3.472 -0.3279  0.4260  0.1983
14808W        W15008  11.714   8.284   6.405 -0.2023  0.0986 -0.0925
14809W        W15009  10.762   3.954  12.066 -0.0108 -0.1942 -0.1399
14810W        W15010   3.504   9.226  10.069 -0.1550  0.0880 -0.0253
14811W        W15011   5.439  12.968   1.842 -0.1586  0.0883  0.0790
14812W        W15012  13.752  14.418  10.749  0.0095  0.0105 -0.2656
14813W        W15013   7.411   6.727  10.092 -0.2013  0.3832 -0.3806
14814W        W15014  10.453   5.046  10.607  0.1275 -0.0845 -0.0146
14815W        W15015   7.318  14.536   7.105 -0.1994  0.1595 -0.1067
14816W        W15016  12.047   3.489   0.941 -0.0545 -0.1773 -0.0258
14817W        W15017  11.230   4.308  10.677 -0.1242  0.0121  0.0083
14818W        W15018   9.969  11.929   5.817 -0.2565  0.3013 -0.1687
14819W        W15019   8.057   2.399  10.701 -0.4215 -0.2115  0.3332
14820W        W15020  11.262   2.183  12.813 -0.0697  0.0123  0.1968
14821W        W15021  11.594   2.184   0.737  0.1141  0.3095  0.0200
14822W        W15022   0.192   7.404   5.892 -0.0473 -0.0776  0.1663
14823W        W15023   2.284   4.483   4.684  0.3756 -0.0674 -0.0767
14824W        W15024  11.374  13.511   9.942 -0.2884  0.0150 -0.4257
14825W        W15025   3.465   4.267   9.016  0.0294 -0.0603  0.2628
14826W        W15026  14.972  10.756   1.709  0.1929 -0.2919  0.0517
14827W        W15027   0.070  12.384   5.956 -0.2320 -0.2683 -0.0405
14828W        W15028  12.741  12.444   0.582  0.0793  0.0391 -0.0421
14829W        W15029  13.804   1.241   9.872 -0.0770 -0.3192 -0.3118
14830W        W15030   8.530  11.936  11.396 -0.1146 -0.1271 -0.0888
14831W        W15031   7.800   6.611   3.689 -0.0206 -0.1388  0.0196
14832W        W15032  10.515   0.789  10.385  0.0741  0.0214  0.1133
14833W        W15033   3.159   3.312   7.559 -0.0652 -0.1662 -0.2474
14834W        W15034  11.388   4.801  10.794 -0.0063 -0.1816  0.1958
14835W        W15035  13.157   5.418   7.476 -0.0476  0.2092  0.3475
14836W        W15036   6.464   1.199   6.318  0.0732 -0.1435 -0.0991
14837W        W15037   1.056   2.512  10.132 -0.3872  0.1810 -0.0569
14838W        W15038   5.556   1.581   7.216  0.0474 -0.1228 -0.0854
14839W        W15039   2.236   5.717   3.479 -0.0383  0.0076 -0.2739
14840W        W15040  13.489  15.186  11.283  0.2431  0.0600 -0.1478
14841W        W15041   2.180   0.517  12.052  0.1292  0.2197  0.1766
14842W        W15042  11.027  13.029   3.146  0.1633 -0.1611  0.0807
14843W        W15043   8.246   0.306   9.626  0.2518  0.0009  0.1390
14844W        W15044   1.237   9.872   7.956  0.0618  0.0021  0.0330
14845W        W15045   2.998  15.121   1.825 -0.0411  0.0369  0.0207
14846W        W15046  10.863   7.256  10.773  0.0580  0.1697  0.0495
14847W        W15047   0.738   5.161   9.489  0.0096  0.2117  0.0941
14848W        W15048   9.071   0.833   3.843  0.1674  0.1036  0.0426
14849W        W15049  11.166   3.497  13.956 -0.1234  0.2742  0.1212
14850W        W15050   4.932   4.198  10.220  0.1871 -0.2639 -0.2763
14851W        W15051  11.772   5.806   1.173 -0.1846  0.1954 -0.3139
14852W        W15052   2.389  13.161   1.356 -0.0645  0.0865 -0.1463
14853W        W15053   2.636   1.857   8.388 -0.2804  0.0773 -0.0049
14854W        W15054   0.620  12.961  14.327 -0.1057  0.2636 -0.1876
14855W        W15055   1.029   0.509   7.310  0.0077  0.1291  0.2311
14856W        W15056   8.979   3.089   0.217  0.1880 -0.2343 -0.4533
14857W        W15057   7.401   1.275  10.912 -0.0091 -0.1032 -0.2028
14858W        W15058  14.530  10.103  12.791  0.0678  0.0553 -0.3586
14859W        W15059   5.709   0.743  10.211 -0.2808 -0.2639 -0.1810
14860W        W15060   2.775   2.025  11.841 -0.2847 -0.2753  0.1407
14861W        W15061  13.590   5.793   2.028 -0.2351  0.1263 -0.0064
14862W        W15062   3.799   6.888  14.798 -0.3679  0.0992  0.0463
14863W        W15063  13.259   3.319  13.822  0.0827  0.0741  0.0099
14864W        W15064  13.404   4.172   8.556 -0.3730  0.0282 -0.1813
14865W        W15065   7.305  13.909   8.731 -0.0494 -0.1403 -0.0521
14866W        W15066   7.658  11.775  11.981  0.0948  0.1825  0.0518
14867W        W15067  10.058   8.075   9.532 -0.0347 -0.0974 -0.1034
14868W        W15068   2.273   5.602   0.842 -0.0355 -0.0003  0.1155
14869W        W15069   8.499   1.673  13.959  0.0008 -0.1049 -0.0760
14870W        W15070   2.278   0.777  10.583 -0.2314 -0.0686  0.3001
14871W        W15071  12.864   6.454   8.188 -0.3586 -0.0646 -0.2377
14872W        W15072   4.619  14.529   0.975 -0.1304 -0.1475 -0.0375
14873W        W15073   5.720  11.703   2.572  0.4685 -0.3762  0.4658
14874W        W15074   0.385  13.579   1.621 -0.1154  0.0666 -0.1522
14875W        W15075   9.816   1.723   9.622 -0.0178 -0.2253 -0.0875
14876W        W15076  12.017  13.934  13.139  0.0492  0.0243 -0.1684
14877W        W15077  12.806   5.622   8.819 -0.1345 -0.2120 -0.1423
14878W        W15078   7.911  13.476   4.465 -0.0554 -0.2480 -0.1234
14879W        W15079   2.469  11.021   0.749 -0.1361  0.6626 -0.3384
14880W        W15080   6.507   4.416   7.636 -0.1694 -0.2955  0.2257
14881W        W15081   4.947   5.152   9.651  0.0472  0.1337 -0.2285
14882W        W15082   4.161   8.836   4.128 -0.0084 -0.4115  0.3765
14883W        W15083  10.106  14.462  14.473  0.4078  0.0349  0.3231
14884W        W15084  13.269   1.621   4.168 -0.0297 -0.2149 -0.1232
14885W        W15085   3.666   7.723   5.440  0.0841  0.1457  0.0115
14886W        W15086   6.509   7.428   7.735 -0.0657 -0.1637 -0.0762
14887W        W15087  10.469   2.109   1.168  0.1083  0.0377  0.2061
14888W        W15088   0.742   0.061   8.870  0.1178  0.0636 -0.1373
14889W        W15089   7.707   0.434   9.512  0.1080 -0.1241 -0.3163
14890W        W15090  11.413   1.760  11.376  0.1650  0.2048  0.1590
14891W        W15091   6.431  11.118   3.698 -0.0096  0.2838 -0.1170
14892W        W15092  14.652   5.460   6.203  0.4958 -0.2171  0.0980
14893W        W15093   4.306   2.514   6.252  0.1453  0.1180 -0.0796
14894W        W15094  13.682   9.820   3.360 -0.0291  0.3706 -0.2626
14895W        W15095  12.492   0.690  14.521 -0.3569  0.0118 -0.1437
14896W        W15096  11.989   3.498   7.837  0.0757  0.0787 -0.1621
14897W        W15097   5.951  10.070   4.542  0.0587 -0.0096 -0.1005
14898W        W15098   4.722  13.545   6.875 -0.1534 -0.0583 -0.2651
14899W        W15099  10.637  11.608   9.864  0.0970  0.0633  0.2073
14900W        W15100   5.569   2.052   7.022  0.1903 -0.0609  0.1100
14901W        W15101   8.867   7.484   8.960 -0.2185 -0.0981 -0.2673
14902W        W15102   6.482  14.187   6.243 -0.1878  0.1305  0.0482
14903W        W15103   1.268   8.092   9.476 -0.1039  0.5071 -0.0388
14904W        W15104  13.182  12.114   7.752  0.2963  0.0955  0.0329
14905W        W15105  13.493   9.540   5.262 -0.0553 -0.3828  0.2158
14906W        W15106   4.335   1.390   1.822 -0.0251  0.0168 -0.1915
14907W        W15107   7.269   0.560  13.824 -0.0567  0.1345 -0.1631
14908W        W15108  14.026  12.866  11.695  0.0679  0.3302  0.1166
14909W        W15109   9.646  11.622   7.469 -0.1269 -0.0016  0.0259
14910W        W15110   5.241   7.256   5.923 -0.1374  0.2439  0.0273
14911W        W15111  12.919  11.064  14.079  0.0507  0.1167  0.0065
14912W        W15112   5.085   0.521   6.756 -0.3426  0.1068  0.3667
14913W        W15113   6.816   4.037  14.038 -0.1085 -0.2567  0.2235
14914W        W15114   8.742   8.634  10.101 -0.0976  0.2812 -0.0764
14915W        W15115  13.346   0.069   8.603  0.1160  0.1118 -0.1431
14916W        W15116  10.894   0.377  13.919 -0.2210 -0.3224 -0.2707
14917W        W15117   2.266   4.932   1.490 -0.0704  0.0290  0.0436
14918W        W15118   8.042   1.829   7.764 -0.0498 -0.2948  0.2548
14919W        W15119   7.167   2.303   9.228  0.0851  0.1083  0.0103
14920W        W15120   8.324  10.705   9.214 -0.4037  0.0177 -0.2207
14921W        W15121  12.728   7.017  14.129 -0.2472  0.1960 -0.2838
14922W        W15122   9.987  13.507  14.821 -0.2168 -0.2611 -0.2673
14923W        W15123   6.317   5.034   2.078 -0.2361  0.0324  0.1078
14924W        W15124   3.119   1.020   6.684 -0.0269  0.2882  0.2287
14925W        W15125   8.165  11.077   5.248 -0.1654  0.0177 -0.0869
14926W        W15126   0.296   6.259   8.347 -0.1365  0.1204 -0.1369
14927W        W15127  12.357   0.954  13.194  0.0156 -0.1199 -0.0379
14928W        W15128   8.135   8.214   7.558 -0.2896  0.0202 -0.0576
14929W        W15129  10.665   3.471   1.629 -0.1381  0.1113  0.0787
14930W        W15130   8.043   1.473  11.383 -0.1110  0.0845 -0.0988
14931W        W15131   6.375   2.527   6.797 -0.2829  0.0412  0.1146
14932W        W15132   0.514   0.010   7.165 -0.1042 -0.2179  0.1186
14933W        W15133   7.432   0.990  13.996  0.2660  0.0549 -0.1774
14934W        W15134  11.918   9.831  13.778  0.0537  0.1325  0.2541
14935W        W15135   8.268  12.410  12.147 -0.1580 -0.0697  0.0654
14936W        W15136   7.980   7.656  13.484  0.1091  0.4040 -0.1875
14937W        W15137  10.956  10.433  14.301 -0.1100  0.2371  0.0243
14938W        W15138   3.529   4.761   1.758 -0.1532  0.2019 -0.0461
14939W        W15139  13.795   3.234   6.421  0.1086  0.4663  0.1980
14940W        W15140  12.700  12.167  10.458  0.3396 -0.0860  0.0215
14941W        W15141   8.488   4.955  13.853  0.2730  0.1708  0.1413
14942W        W15142   8.155   9.473   6.244  0.0795 -0.0043  0.0063
14943W        W15143   3.612   5.884   2.919  0.3021  0.1011 -0.1360
14944W        W15144   1.328   3.147   2.738 -0.3036 -0.1308 -0.0376
14945W        W15145  13.813   1.815   7.494  0.0241 -0.1111 -0.0499
14946W        W15146   5.201   1.870   0.629  0.0939 -0.5025 -0.0501
14947W        W15147   9.044   1.169  15.161 -0.0938 -0.1628 -0.3051
14948W        W15148  10.706   0.464  12.607 -0.0853  0.1575 -0.1480
14949W        W15149   1.678   3.059  11.848  0.0022  0.0198 -0.0067
14950W        W15150   5.421   8.225   9.138 -0.1286  0.1337  0.1367
14951W        W15151   8.910  13.561   8.144 -0.2708 -0.0508  0.0519
14952W        W15152   6.139   7.378  14.659  0.0816 -0.2248  0.2621
14953W        W15153   0.469  14.367   1.399 -0.0197 -0.2383  0.2811
14954W        W15154   2.260   2.272   2.552 -0.1359  0.2086 -0.0213
14955W        W15155  12.336   3.999   0.793 -0.1610  0.0361 -0.0728
14956W        W15156   8.570   7.928   3.336  0.0712 -0.0305 -0.0279
14957W        W15157   3.635   0.003  10.706 -0.2109  0.1948  0.2217
14958W        W15158   4.960  14.043   3.477  0.0329  0.2076 -0.1303
14959W        W15159   5.256   0.714  13.212 -0.2890  0.1366 -0.0429
14960W        W15160   6.215   4.102   9.977  0.0751  0.3241  0.2093
14961W        W15161   7.282   4.969  13.187 -0.0335  0.1717 -0.0065
14962W        W15162   2.883   9.279   9.339  0.3666  0.0798 -0.0903
14963W        W15163   0.824  12.666   6.333  0.5256 -0.0369  0.0211
14964W        W15164  14.825   7.128   9.792 -0.0680  0.0829 -0.1867
14965W        W15165   7.219   1.692  10.496  0.3338 -0.0726 -0.1933
14966W        W15166   8.322   5.701  14.478 -0.1358  0.0830 -0.0292
14967W        W15167   8.273  13.534   9.580 -0.1781 -0.2705  0.0442
14968W        W15168   1.884   9.902  13.461  0.3835  0.2229 -0.0672
14969W        W15169  12.897   7.536  12.228 -0.2611  0.1591 -0.3845
14970W        W15170   0.587  11.080   5.819 -0.0784 -0.1340  0.3822
14971W        W15171  11.603   2.414   3.434  0.2647  0.1046 -0.1294
14972W        W15172   9.064  11.044   3.847 -0.4050 -0.2885 -0.0282
14973W        W15173   3.341   8.733   6.438  0.1151  0.1318 -0.1372
14974W        W15174  13.566   2.463   9.085  0.1708  0.1779  0.0126
14975W        W15175  11.674   1.645   9.769 -0.3604 -0.1713  0.2467
14976W        W15176   0.569   9.305   2.249  0.3650  0.2834 -0.0595
14977W        W15177  10.140   9.029   9.542 -0.1424 -0.0874 -0.2186
14978W        W15178  11.679   4.028  11.524  0.0295 -0.0234  0.0288
14979W        W15179  13.864   4.715   9.648 -0.0972 -0.3311  0.0310
14980W        W15180   8.710  14.648   5.126  0.1227  0.0361  0.1730
14981W        W15181   5.560  14.662  14.797 -0.1388 -0.0344  0.0350
14982W        W15182   7.982  12.450   8.046  0.0071 -0.2297  0.0547
14983W        W15183   5.813  14.592   2.258 -0.0329 -0.2079 -0.0125
14984W        W15184   7.558   3.258   9.435  0.4305  0.0879 -0.2153
14985W        W15185   3.602   6.051  13.540  0.0363  0.1089  0.1731
14986W        W15186  11.937   9.514   2.864  0.1254 -0.0945  0.1001
14987W        W15187   9.323   2.790   9.645 -0.3013  0.2085 -0.2093
14988W        W15188  11.631   8.974   7.619  0.0796  0.2845  0.0418
14989W        W15189   6.844   2.549  11.668 -0.2146  0.0416 -0.3511
14990W        W15190   0.341   2.078  10.744  0.0544 -0.1116  0.3269
14991W        W15191   0.376  14.370   5.522  0.3247 -0.4841  0.1247
14992W        W15192  10.901   0.331   3.226 -0.0555 -0.2051 -0.0931
14993W        W15193   0.391   5.793   0.795  0.0077  0.0185  0.0281
14994W        W15194   8.024   0.652   9.962  0.1653 -0.2032 -0.1233
14995W        W15195   9.230   8.387   0.988  0.3054  0.1614 -0.1909
14996W        W15196  11.003   3.501   0.717  0.0127 -0.2223  0.2911
14997W        W15197   0.566   9.953   6.839  0.3099  0.1788 -0.1434
14998W        W15198  14.128  14.156  15.016 -0.3109  0.0529 -0.1308
14999W        W15199  10.361  12.253   9.012  0.2168  0.3646  0.0469
15000W        W15200   2.933  14.389   6.764  0.0884 -0.1897  0.2158
15001W        W15201   7.507   4.004   0.094  0.0469 -0.0289  0.0004
15002W        W15202  14.995   7.840   3.663  0.0997  0.3205 -0.1777
15003W        W15203   9.050   7.873  12.719  0.3122  0.2234  0.2370
15004W        W15204   2.254   0.011   2.730  0.1942  0.1592  0.2534
15005W        W15205  12.681   2.781  10.246 -0.1081 -0.1437 -0.2127
15006W        W15206   2.403   4.257  11.156  0.3498 -0.0386  0.0733
15007W        W15207  10.532   7.390   9.149 -0.3460 -0.0451  0.0924
15008W        W15208   5.684  10.404  14.053  0.0497 -0.1108 -0.2811
15009W        W15209  11.393  15.109   1.251 -0.0049 -0.1245 -0.3116
15010W        W15210   3.460   7.575   1.123  0.0916 -0.1738 -0.0972
15011W        W15211  11.403   3.277   3.299  0.1538  0.1378  0.0802
15012W        W15212  15.188  14.355   8.879 -0.1658 -0.0746  0.3182
15013W        W15213  12.274   7.774  15.122 -0.1925  0.0004  0.0399
15014W        W15214   7.567   4.070  11.814 -0.1477  0.0169 -0.1128
15015W        W15215  10.656   1.947   9.512  0.1320  0.0440 -0.0285
15016W        W15216   9.553   4.782   7.219 -0.1600 -0.0382  0.0640
15017W        W15217  10.586  11.243   6.499  0.2227 -0.2466 -0.0333
15018W        W15218  14.027   7.169  11.251  0.0751 -0.2082  0.1225
15019W        W15219   0.140  12.069   3.434 -0.0574  0.1336  0.0332
15020W        W15220   5.427   0.887  14.307  0.0456 -0.1961 -0.1789
15021W        W15221   4.744   0.143  10.318  0.0045  0.1889 -0.0257
15022W        W15222  13.983   4.003   1.786  0.1467  0.0809  0.1075
15023W        W15223  12.068   8.488  10.125  0.1121 -0.1889  0.2726
15024W        W15224   8.326  14.850   8.068 -0.2054 -0.1619 -0.2003
15025W        W15225   3.718  12.312  10.022 -0.2985 -0.1460 -0.0395
15026W        W15226  12.686  14.301  11.553  0.1400  0.0683  0.0895
15027W        W15227   4.259  11.748   4.453  0.2642 -0.1717  0.1113
15028W        W15228  12.492  14.038  13.616  0.2251  0.1001 -0.0213
15029W        W15229   1.355   7.122   4.631 -0.0914 -0.1092  0.1260
15030W        W15230  10.015  12.647   8.025 -0.1458 -0.0498  0.7118
15031W        W15231   1.091  10.403   8.585  0.1433  0.3497  0.1289
15032W        W15232   7.809   2.941  11.844  0.0030 -0.2101  0.1341
15033W        W15233   9.850   3.260   0.143 -0.1085  0.0011 -0.1586
15034W        W15234  10.883  10.375   0.166 -0.0954 -0.2910  0.0431
15035W        W15235   3.856   3.149  13.267  0.2990 -0.0927 -0.1970
15036W        W15236   9.086  11.776   2.621  0.0949 -0.2429  0.2274
15037W        W15237  12.900   8.099   9.363  0.2922 -0.1085  0.0194
15038W        W15238   7.768   5.811  14.047 -0.0369 -0.2156 -0.0841
15039W        W15239   9.237   1.837  10.329  0.0791  0.0195 -0.3196
15040W        W15240   3.786   9.536  10.518  0.1015 -0.1500  0.0569
15041W        W15241  12.282   0.559  12.894 -0.0839  0.0280 -0.0729
15042W        W15242   3.156   8.401   8.077 -0.0782  0.0659 -0.0157
15043W        W15243   5.768   9.549   4.875 -0.2700 -0.1136 -0.0442
15044W        W15244   9.838   8.597   6.750  0.0406  0.1979 -0.0690
15045W        W15245   8.590   5.375  11.403  0.2493 -0.3563 -0.2935
15046W        W15246   8.967   2.686   9.201 -0.1319 -0.0411 -0.0363
15047W        W15247   7.254   3.182   3.877 -0.1642  0.0036  0.0870
15048W        W15248   0.592   0.153   4.544 -0.1292  0.1114  0.0456
15049W        W15249   5.060  11.016   6.742 -0.1541 -0.3169 -0.2297
15050W        W15250   8.022   3.997   6.159 -0.3419 -0.4577 -0.0651
15051W        W15251   3.727   6.498  11.768  0.0313 -0.1193 -0.1271
15052W        W15252   7.328   1.677   2.307 -0.0987  0.3142 -0.1743
15053W        W15253   1.455   0.583   7.627  0.0944 -0.0006 -0.1886
15054W        W15254  13.524  14.812  10.569 -0.2029  0.1058  0.3780
15055W        W15255   5.227   1.659   7.554 -0.1266  0.4966  0.3336
15056W        W15256   7.807   0.886   7.185 -0.1522  0.2410 -0.0110
15057W        W15257   4.047  13.229   3.967 -0.2092 -0.3516 -0.2764
15058W        W15258   3.173   3.997  11.742  0.0393 -0.2561 -0.0070
15059W        W15259   1.508  12.919  11.955  0.1714 -0.1143 -0.2408
15060W        W15260  12.936  11.600  13.365  0.1994 -0.2157  0.1125
15061W        W15261   9.984   2.176   6.041 -0.1237  0.3129  0.1202
15062W        W15262   6.025  12.689   7.968  0.2087 -0.0113  0.0283
15063W        W15263   8.568   5.177  10.966  0.1962  0.0889 -0.2093
15064W        W15264  14.163   1.900   4.006  0.1491  0.1156 -0.3192
15065W        W15265   3.747  12.799   7.938  0.2455 -0.1110 -0.1192
15066W        W15266  13.767  13.041   5.429 -0.2602 -0.0853  0.2312
15067W        W15267  14.180   6.203   2.247 -0.0050  0.0214  0.1884
15068W        W15268   2.416   2.531   7.131  0.2042 -0.1527 -0.1217
15069W        W15269   2.866  11.398   2.398 -0.0342 -0.1148 -0.2545
15070W        W15270   0.865  12.561  10.906 -0.3080 -0.2193 -0.1564
15071W        W15271   9.129  11.627  14.125  0.0439 -0.2412  0.2309
15072W        W15272  12.693  12.359   4.848  0.1084 -0.0664  0.0671
15073W        W15273  10.457  10.044   1.931  0.0438  0.3835  0.0409
15074W        W15274  11.067   2.095   9.800 -0.2296  0.1102  0.0347
15075W        W15275   0.003   1.156   9.030 -0.2674  0.3771 -0.0570
15076W        W15276   7.043   5.204   5.077  0.1852  0.2824  0.0543
15077W        W15277  11.888   8.998   8.702  0.1578 -0.1077  0.2866
15078W        W15278   4.068  10.004   2.838 -0.2000  0.1275 -0.0649
15079W        W15279   2.655  13.004   6.224 -0.3846 -0.0315 -0.1593
15080W        W15280   6.937   8.387   4.351  0.2133  0.1334 -0.0002
15081W        W15281   6.587  14.045   6.714  0.0440 -0.0726 -0.0512
15082W        W15282   9.184   5.071   8.113  0.2544 -0.0148 -0.1504
15083W        W15283  11.162   0.045   7.330  0.1101 -0.3663  0.0773
15084W        W15284   2.699  12.164   6.776  0.0832  0.1158  0.0421
15085W        W15285  10.800  11.512  10.712 -0.0692 -0.0885 -0.1195
15086W        W15286  10.450  13.413   5.551 -0.2964 -0.0315  0.1414
15087W        W15287  12.385   6.517   7.499 -0.3398  0.0913  0.3082
15088W        W15288   7.838   9.588   7.385  0.1588  0.1493 -0.0535
15089W        W15289   8.102   3.186   8.408 -0.3232 -0.0460 -0.2780
15090W        W15290   6.706   3.094   0.664  0.0353 -0.1056 -0.0027
15091W        W15291   5.754   8.632   1.548  0.0590  0.1782 -0.1144
15092W        W15292  12.094  11.775  12.575 -0.1474 -0.0459  0.1681
15093W        W15293   7.133  11.668  12.582  0.2881 -0.2659 -0.0644
15094W        W15294  12.431   0.178   9.255  0.4422  0.3269  0.1522
15095W        W15295   9.797  12.106  13.620  0.2612 -0.0006 -0.0736
15096W        W15296   8.245   1.551  12.011  0.0355  0.0289 -0.0479
15097W        W15297   4.670   1.021   7.937  0.0618 -0.0372 -0.2361
15098W        W15298   4.288  14.713  12.335 -0.1935  0.1693 -0.1034
15099W        W15299   9.985  11.429  13.815 -0.1537  0.0840 -0.3493
15100W        W15300   7.179   0.016   1.691  0.0771 -0.1279 -0.0140
15101W        W15301  13.131  10.631  10.659  0.0284  0.0723 -0.2159
15102W        W15302  15.003   4.304  12.368  0.2235  0.3951 -0.1858
15103W        W15303   1.100   9.374   6.014 -0.0688 -0.1230  0.0526
15104W        W15304  14.054  12.384  13.426  0.1715  0.1299 -0.1101
15105W        W15305  14.488  14.434   0.074 -0.1891  0.2038 -0.1933
15106W        W15306   6.879   2.043   6.245 -0.0482 -0.1913  0.0735
15107W        W15307   5.681  12.305   5.928 -0.0906  0.0659  0.2232
15108W        W15308   0.463   6.955   7.986 -0.6307  0.0246 -0.0560
15109W        W15309   8.184   3.774   2.494 -0.0623 -0.0787 -0.2849
15110W        W15310   7.851   1.616  12.370 -0.0304  0.2273 -0.1634
15111W        W15311   6.291   1.815   9.026  0.1536 -0.0973 -0.1048
15112W        W15312   4.558  11.661   8.253 -0.0309 -0.2282  0.1782
15113W        W15313   1.981  14.624   0.209  0.1717 -0.1027  0.1846
15114W        W15314   5.645  13.933   2.182  0.0950 -0.1814  0.0007
15115W        W15315   6.767  11.593   5.287  0.1563  0.0135 -0.2522
15116W        W15316   3.460   8.414  11.968 -0.2530  0.2142 -0.1284
15117W        W15317   8.282   5.501   9.570 -0.0487 -0.2813 -0.0007
15118W        W15318   7.171  14.829   6.516 -0.0006 -0.2503 -0.1908
15119W        W15319   8.954   3.132   0.773  0.2462  0.1629 -0.0737
15120W        W15320  10.902   4.676  13.155  0.1696  0.1210  0.3881
15121W        W15321  13.644   8.190  12.521 -0.3532  0.1128 -0.3691
15122W        W15322  15.110   0.156   9.470  0.0024  0.1321  0.0109
15123W        W15323   2.913   3.031   4.880  0.0641  0.3267 -0.1132
15124W        W15324   4.856  12.715   1.116  0.2900  0.0648 -0.0564
15125W        W15325  11.166  13.589   7.747 -0.0623  0.2746  0.1643
15126W        W15326   9.747  10.087  11.057  0.3838  0.4573  0.3295
15127W        W15327   3.781  10.192   8.299  0.4521  0.0499 -0.2282
15128W        W15328   6.685   9.421   8.142 -0.1463 -0.1571  0.0102
15129W        W15329  10.110  14.415   8.346 -0.0244  0.1275  0.0527
15130W        W15330  12.938   8.937  11.530  0.0414 -0.1669 -0.0501
15131W        W15331   5.275   7.223   5.167  0.0885  0.0916  0.0909
15132W        W15332   7.861   2.245   8.432  0.2336  0.0044 -0.1416
15133W        W15333   7.885   2.231   5.285  0.1759  0.2478  0.1239
15134W        W15334   8.892   2.053  12.337 -0.0611  0.2699  0.0037
15135W        W15335  12.097   0.772   2.743 -0.2003  0.0661 -0.0796
15136W        W15336   9.117  13.573  15.173  0.1599  0.1924  0.2334
15137W        W15337  15.160   9.685  12.636 -0.4601  0.1342  0.0889
15138W        W15338   7.743   9.603  15.152  0.0735  0.1750  0.1255
15139W        W15339   5.078   1.940   7.142  0.2081 -0.0074  0.3332
15140W        W15340   8.628   1.755  12.953 -0.2087  0.2502 -0.0124
15141W        W15341  12.493   4.199  11.662 -0.0737  0.0168  0.3412
15142W        W15342  10.874  14.835  11.851  0.1113 -0.1608  0.2733
15143W        W15343   2.389   4.451   9.970  0.0276  0.0457  0.1206
15144W        W15344   3.632   6.339   1.403 -0.0756  0.0075 -0.2281
15145W        W15345   2.342   0.121   8.103  0.0507 -0.4042 -0.1066
15146W        W15346   7.716  12.830  15.084 -0.0799  0.3660 -0.2742
15147W        W15347   4.956  11.718  12.447  0.0090  0.2514 -0.0111
15148W        W15348   9.670   7.116   0.895  0.1419  0.0473  0.3427
15149W        W15349   4.229   9.682   9.128 -0.1140  0.0357 -0.5929
15150W        W15350   5.365   3.507   4.296 -0.1641 -0.0535 -0.0175
15151W        W15351  10.939   1.650   8.440  0.0446  0.0413 -0.2302
15152W        W15352  13.170  10.414  12.987 -0.0078  0.0224  0.1369
15153W        W15353  11.244   0.754   4.295  0.2612 -0.1585  0.2692
15154W        W15354  10.771   6.991   9.483 -0.0947  0.0303  0.1857
15155W        W15355   7.033   3.077   1.058 -0.3646 -0.2537 -0.0447
15156W        W15356   1.600   4.902   2.808 -0.2345 -0.0931 -0.0290
15157W        W15357  10.601   1.630  13.089 -0.0085  0.0166 -0.0787
15158W        W15358   7.535  12.470  13.812  0.1079 -0.0149 -0.0027
15159W        W15359   2.868   4.070  10.788 -0.1236  0.3534  0.2557
15160W        W15360   5.570   3.818   6.531 -0.0398  0.0316  0.1704
15161W        W15361  12.054  13.734   1.425  0.0402 -0.1673  0.1388
15162W        W15362   4.045   0.700  10.376  0.3340 -0.1115  0.2404
15163W        W15363  14.150   5.120  11.334  0.2259 -0.0082  0.0314
15164W        W15364   7.292   6.183   4.060 -0.2518  0.1122 -0.0623
15165W        W15365   4.958   3.193   2.319 -0.0063  0.0532  0.0046
15166W        W15366   4.572   5.076  11.051  0.2023  0.1678 -0.0659
15167W        W15367  13.118   0.211   7.679  0.2652  0.1667  0.2769
15168W        W15368   7.432   9.361   2.492 -0.0376  0.2105 -0.1233
15169W        W15369   4.971   2.137  12.253  0.0387 -0.1628  0.0860
15170W        W15370   7.780   7.136   3.556 -0.0105 -0.2523  0.2461
15171W        W15371  10.909   1.398   2.637  0.0099  0.0257 -0.0962
15172W        W15372  14.368   9.582  11.157  0.1845  0.0823  0.0385
15173W        W15373   6.774  10.843   6.047  0.1857 -0.0795 -0.0043
15174W        W15374   6.377   1.913   3.040 -0.0257 -0.0978 -0.2802
15175W        W15375   5.140   0.185  13.242 -0.0352 -0.1667 -0.2433
15176W        W15376   8.355  14.849   3.842  0.0404 -0.0544  0.1628
15177W        W15377   7.220   1.365  14.779 -0.3188  0.1646  0.3138
15178W        W15378  12.644   2.633   9.326 -0.1093  0.0113  0.4634
15179W        W15379   2.582  12.062   7.778 -0.2403 -0.0241  0.1861
15180W        W15380   5.616   7.189  13.092  0.1901  0.2332  0.1364
15181W        W15381   4.884   9.811   7.498  0.0199  0.0485 -0.0110
15182W        W15382   4.417   2.027   9.033  0.1865  0.2099  0.0020
15183W        W15383  13.472  14.135   5.589  0.1131  0.1880  0.0817
15184W        W15384   6.521   6.884   9.447  0.1379 -0.0846 -0.0385
15185W        W15385  11.976   3.940   0.436  0.2132  0.2135  0.1120
15186W        W15386   0.255   8.408  11.483 -0.1266 -0.1474 -0.1996
15187W        W15387   7.769   6.964  13.891  0.0818  0.2552  0.0384
15188W        W15388   9.670   9.801   8.423 -0.0945 -0.0232 -0.0109
15189W        W15389   1.021   0.855   7.633  0.1821 -0.0786  0.0495
15190W        W15390   3.108  13.916  12.763 -0.1432  0.1914 -0.0604
15191W        W15391  13.482   8.878   8.342  0.1472 -0.1188  0.2380
15192W        W15392  14.430   2.683   0.525 -0.2813  0.1234 -0.2854
15193W        W15393   0.965   7.598   4.694 -0.1090  0.0345  0.1345
15194W        W15394   6.635   3.147  14.073  0.0408  0.1096  0.1467
15195W        W15395   5.048  12.758  10.021  0.0357  0.0371  0.1109
15196W        W15396  14.030  12.823   1.825 -0.2549 -0.1079 -0.0417
15197W        W15397   5.229   2.653  12.326 -0.0093 -0.1386 -0.1971
15198W        W15398   4.046   0.955   8.136 -0.0213 -0.1172  0.0566
15199W        W15399  10.211  13.663   7.791  0.0261  0.0076  0.3130
15200W        W15400  12.308   0.242  12.136  0.1068  0.1929 -0.3072
15201W        W15401   5.819   4.022   8.629  0.4048  0.3323 -0.1081
15202W        W15402   3.378  13.416   9.617 -0.2902 -0.0013 -0.2082
15203W        W15403  11.556   8.504  14.121 -0.1413  0.0548 -0.0909
15204W        W15404  11.852   1.465  15.140  0.1648 -0.1645  0.2356
15205W        W15405   3.023   7.913  14.266  0.3842 -0.2117 -0.1132
15206W        W15406   9.480  11.959   0.855  0.0108 -0.1872  0.0686
15207W        W15407  11.337  15.016  12.033 -0.0993 -0.1284  0.2167
15208W        W15408  15.029   5.111  13.975  0.1700 -0.0535  0.1299
15209W        W15409  13.537  14.804   3.584 -0.0004  0.1739 -0.1187
15210W        W15410   2.834   3.971  11.348  0.1284 -0.3390  0.2258
15211W        W15411   3.641  11.105   5.088 -0.4808  0.1153  0.2236
15212W        W15412  11.566  12.221  10.708 -0.0061  0.0558 -0.1433
15213W        W15413   4.239   8.751   1.228 -0.1952  0.4607  0.0508
15214W        W15414  11.800   4.672  12.753 -0.1078 -0.0265 -0.3775
15215W        W15415   2.669  12.830  11.269 -0.2070  0.0287 -0.0855
15216W        W15416  12.135   7.883   3.128  0.0526 -0.0249 -0.1000
15217W        W15417   6.570  14.771   4.920  0.3207  0.0625  0.1672
15218W        W15418   1.964   8.739   3.704  0.4413  0.2553  0.0017
15219W        W15419  10.961  12.563  12.985  0.0437 -0.0790  0.3609
15220W        W15420  12.540   3.068  12.598  0.2857 -0.1689  0.0779
15221W        W15421   3.901   2.882  11.189 -0.0197 -0.2196  0.1316
15222W        W15422  11.986   6.341  14.625 -0.2445  0.0413 -0.0478
15223W        W15423   9.899   0.545   1.755 -0.2831  0.1523 -0.3257
15224W        W15424   3.337  13.139  12.398  0.0141  0.0996 -0.1455
15225W        W15425  12.318   8.782   3.809  0.0156  0.0062  0.3342
15226W        W15426   1.675  12.253   4.200  0.1086 -0.1508  0.2827
15227W        W15427  10.203   0.290  12.751 -0.0546  0.1568 -0.0274
15228W        W15428  10.024   3.091   7.050 -0.0751  0.3089  0.1336
15229W        W15429  10.179   0.642  14.446 -0.1165 -0.1736 -0.0603
15230W        W15430  10.852  10.050   9.422  0.0553 -0.0357  0.0155
15231W        W15431   6.761  12.507  13.353  0.4529  0.2804 -0.1610
15232W        W15432   0.064   6.399   0.071  0.4855 -0.0423 -0.1035
15233W        W15433   7.985   3.013  11.319  0.1239  0.1249  0.0292
15234W        W15434   3.113   3.890   2.760  0.0080  0.0593 -0.0186
15235W        W15435   7.423   5.448  13.241 -0.0437  0.0362 -0.0971
15236W        W15436  15.100  11.859   5.853  0.0318 -0.1090 -0.3668
15237W        W15437  11.906   2.288  13.709  0.2083 -0.1267  0.2083
15238W        W15438  13.969   0.416  13.999 -0.0973  0.6300  0.0486
15239W        W15439   1.292   4.573  11.912  0.2353  0.1291  0.3026
15240W        W15440  12.699  11.784   4.114  0.0837  0.0918 -0.0021
15241W        W15441   6.193  15.190  15.114  0.0594 -0.0375 -0.2648
15242W        W15442  10.258  10.415   7.874 -0.0972 -0.1594 -0.0081
15243W        W15443   6.747   8.498   4.924  0.3437  0.1109  0.0942
15244W        W15444   7.529  11.241   9.490  0.0613  0.0518  0.1086
15245W        W15445  14.873   4.575   0.574  0.0422  0.0282 -0.1985
15246W        W15446   4.371  10.960   2.868 -0.2043  0.1124  0.0999
15247W        W15447   0.641  13.078   4.960 -0.1904 -0.0820 -0.0297
15248W        W15448   9.470   3.073   7.130 -0.1247  0.0165  0.0411
15249W        W15449  13.641   5.581   4.032 -0.1530 -0.0193  0.0173
15250W        W15450  11.770  12.352  11.599  0.0757  0.0781  0.1778
15251W        W15451   2.210   6.091   3.039 -0.0983  0.3518  0.1733
15252W        W15452   7.630   6.269   9.861  0.3745 -0.0110  0.2271
15253W        W15453   8.655   0.218   1.583  0.1747  0.0975 -0.1952
15254W        W15454   9.501  13.226  15.034 -0.1600  0.0377 -0.1560
15255W        W15455   8.855   8.206  10.315 -0.2516 -0.3266  0.0566
15256W        W15456   1.379   3.963   3.960  0.0239  0.1146  0.1663
15257W        W15457  12.634   2.791  14.365 -0.0571 -0.0340 -0.0212
15258W        W15458  12.351   9.870   2.962  0.0393 -0.1497  0.3209
15259W        W15459  10.697  15.186   2.568  0.0045  0.0708  0.0660
15260W        W15460  10.337  14.566  12.449 -0.3194  0.3573  0.0765
15261W        W15461   8.377   7.249  14.505  0.1548 -0.2767 -0.0287
15262W        W15462   6.341  11.678  13.369 -0.2771 -0.0052 -0.0366
15263W        W15463  10.051   9.261   2.438  0.2601 -0.2372 -0.0591
15264W        W15464   3.704   0.096  12.862  0.1182  0.5853 -0.1886
15265W        W15465   8.859   1.283   5.748  0.0545 -0.0759  0.3338
15266W        W15466   9.324   1.236   0.418 -0.1460 -0.3635  0.3215
15267W        W15467   7.007  12.894   9.644 -0.0868  0.1382 -0.2443
15268W        W15468  14.610   6.870  14.877 -0.2025  0.3275  0.0659
15269W        W15469  12.339   8.947   0.901 -0.1309 -0.3038 -0.0070
15270W        W15470   0.553  11.051   9.354  0.0618  0.2626 -0.3240
15271W        W15471  13.769   6.906   9.489 -0.0920  0.0726  0.1157
15272W        W15472  13.820  14.929   7.058 -0.1340  0.2414  0.1169
15273W        W15473   1.186   3.789   0.298  0.1825  0.2069 -0.0616
15274W        W15474   9.902   2.588  13.213 -0.2078 -0.0737 -0.0420
15275W        W15475  11.267  13.318   9.475  0.1868 -0.0808  0.0015
15276W        W15476   3.872   8.048  11.382 -0.3828 -0.1063  0.0126
15277W        W15477   9.408  12.580   7.319 -0.4247 -0.1876 -0.3260
15278W        W15478   9.596   4.160   2.305  0.2060  0.0107 -0.0711
15279W        W15479   6.694   9.384   5.434  0.0658  0.2298 -0.0925
15280W        W15480   7.372   5.381  14.816 -0.0962 -0.1354 -0.1249
15281W        W15481  13.721   1.057   6.967 -0.1271  0.1358 -0.1475
15282W        W15482  14.345   0.177   2.963  0.0014  0.0221  0.2996
15283W        W15483   2.257  12.568   9.663  0.1260 -0.0391  0.1711
15284W        W15484   2.679   3.055   6.626  0.0862 -0.0607 -0.0652
15285W        W15485   2.728   3.252  10.863 -0.0288 -0.4083  0.0350
15286W        W15486   7.323   0.948   6.929  0.1412 -0.1029 -0.2587
15287W        W15487  10.072   0.760  10.702  0.2962  0.0282 -0.2806
15288W        W15488  13.296   5.475   5.248  0.0205  0.0284 -0.3305
15289W        W15489   3.677  13.219  13.386 -0.2332  0.1344  0.0688
15290W        W15490  14.008  11.182  10.454 -0.1790 -0.0248  0.2411
15291W        W15491  10.807  13.673  11.589  0.0168 -0.1715  0.0856
15292W        W15492   0.582   3.615   2.411 -0.0430  0.1724 -0.0212
15293W        W15493   9.934   7.442   3.799 -0.3301  0.1492 -0.0440
15294W        W15494   2.510  13.560   9.219  0.2422  0.1111 -0.0555
15295W        W15495  13.947  14.173  14.013  0.0083  0.0783  0.1224
15296W        W15496   1.355   4.077   5.430 -0.1156 -0.0841 -0.2272
15297W        W15497  13.282  13.529   8.315 -0.2138  0.2997  0.0330
15298W        W15498   7.661   5.517   8.025  0.2146 -0.3423 -0.1398
15299W        W15499   5.039   8.667   8.642 -0.1209 -0.0200  0.1502
15300W        W15500   4.631   4.020   3.175 -0.0996 -0.0867  0.2797
15301W        W15501   6.647   3.509  14.800 -0.1239  0.0688  0.1858
15302W        W15502  11.429  11.281  12.928 -0.0871  0.1245  0.1776
15303W        W15503   1.977   0.323   8.885 -0.1161 -0.0876 -0.3611
15304W        W15504  10.076  15.181  12.025  0.2210  0.1549 -0.1790
15305W        W15505   3.488  13.913   9.044  0.2048 -0.0607  0.1455
15306W        W15506  12.497  13.256   0.555 -0.1526  0.1124 -0.3051
15307W        W15507  15.135   0.685  13.515 -0.0771  0.2262 -0.0800
15308W        W15508   4.087   1.693   1.456 -0.0886  0.0070 -0.0086
15309W        W15509  11.134  15.021  14.416 -0.1895 -0.0782  0.1596
15310W        W15510   4.273   3.247  11.450 -0.0542 -0.0411  0.1923
15311W        W15511  13.874   2.569   0.347 -0.0405  0.2635 -0.0920
15312W        W15512   7.221   7.475   0.090 -0.0803  0.2718 -0.0880
15313W        W15513   4.930   5.902  10.408  0.0992 -0.0095  0.6576
15314W        W15514  11.920   3.048   0.594  0.4359 -0.4839  0.3723
15315W        W15515   7.018   9.079   9.459  0.1528 -0.2206  0.0648
15316W        W15516  14.602   3.154   3.373  0.1559  0.1725  0.0047
15317W        W15517   8.619  10.138   1.709 -0.2190 -0.0281 -0.0569
15318W        W15518   3.971  13.849   0.892  0.2597 -0.2391  0.1760
15319W        W15519   8.011  10.945  12.155  0.0806  0.2015  0.1898
15320W        W15520   7.291  12.605   8.825 -0.1146 -0.1382 -0.0876
15321W        W15521   7.638  14.249  10.984  0.2471  0.0154 -0.2136
15322W        W15522   2.196   8.359  11.741  0.0642  0.2083  0.0704
15323W        W15523   3.123   1.984  12.779 -0.1255  0.1377 -0.1625
15324W        W15524  10.815  12.236  14.410 -0.1033  0.3481 -0.2452
15325W        W15525   0.467   3.735   3.676  0.1734  0.0041  0.3780
15326W        W15526  11.619   8.088  11.550 -0.2576 -0.0933  0.0654
15327W        W15527  11.077   6.419   5.263 -0.0015  0.1643  0.0458
15328W        W15528   0.982   1.655  13.673  0.2920  0.1596 -0.0888
15329W        W15529  14.742  13.726   8.803 -0.0713 -0.0846 -0.1112
15330W        W15530   9.359   2.056   1.247 -0.1770  0.0777 -0.3228
15331W        W15531   8.589  12.525   9.119  0.1344  0.2806  0.1340
15332W        W15532   5.837   1.560  14.078  0.0365  0.0135  0.2886
15333W        W15533   1.178   7.891  13.709  0.2729 -0.0957  0.2611
15334W        W15534   0.661  14.608   6.666  0.1654  0.0480 -0.0937
15335W        W15535   5.349   0.383  14.102  0.2460  0.3185  0.1189
15336W        W15536   9.097   2.435  13.193  0.0871 -0.0424 -0.1003
15337W        W15537   1.543  10.639   9.179 -0.3558 -0.2365  0.1402
15338W        W15538   1.139   2.265  11.159  0.0245 -0.1309 -0.1641
15339W        W15539   1.103   0.647  10.767 -0.0184 -0.0849  0.1414
15340W        W15540   1.130   4.785   7.095 -0.1665  0.1255 -0.0041
15341W        W15541  11.602   6.083   6.974 -0.0171  0.1545 -0.2485
15342W        W15542   5.449   9.378   1.306 -0.0479  0.1871  0.1926
15343W        W15543   0.019   1.554  14.954  0.0773 -0.3242 -0.2570
15344W        W15544   8.249   0.956  12.909  0.1073 -0.0304 -0.4056
15345W        W15545  12.259  14.358  13.261  0.2631 -0.1463  0.1586
15346W        W15546  10.363   5.427   0.200  0.0337 -0.2502 -0.0911
15347W        W15547   9.344  12.382  13.619 -0.1396 -0.0435  0.1423
15348W        W15548   5.257   7.818  10.421 -0.1168  0.0377  0.0136
15349W        W15549   8.325  12.880   5.970  0.0539 -0.0353  0.3462
15350W        W15550   7.973   0.031  11.805  0.0596  0.0207  0.0476
15351W        W15551   7.474  10.036  14.039 -0.1784  0.0593 -0.1967
15352W        W15552  13.570  12.745   0.966  0.0066  0.0215  0.2637
15353W        W15553  12.018  11.950   2.051 -0.1751  0.0403  0.1475
15354W        W15554   1.376   2.567   1.014 -0.0242  0.2959 -0.0991
15355W        W15555   1.479  12.923  14.757  0.0382  0.1940 -0.1377
15356W        W15556   6.501  12.639   5.263  0.1964  0.0158  0.0004
15357W        W15557   5.588  12.270   8.574 -0.2124 -0.2791 -0.0437
15358W        W15558  10.911   8.140   5.693  0.0440  0.0979  0.2811
15359W        W15559   6.029   4.255  11.013 -0.1628  0.3168 -0.3654
15360W        W15560   7.658   0.168   0.188  0.0504 -0.2002  0.3422
15361W        W15561   8.823   7.883  11.811 -0.0828  0.1331 -0.1751
15362W        W15562  13.333   2.053   2.789 -0.0019 -0.0649 -0.0708
15363W        W15563   8.561   2.983  10.187 -0.0266 -0.0553 -0.3115
15364W        W15564   4.103   1.148  11.682  0.0565 -0.0177 -0.2146
15365W        W15565   8.249   5.262  13.391  0.3825 -0.2556 -0.1402
15366W        W15566   3.399  14.116   8.057  0.2082 -0.3336  0.0492
15367W        W15567  10.232   2.520  12.795 -0.1410 -0.2326  0.0776
15368W        W15568  11.419   1.719   8.699  0.0626  0.1044  0.0370
15369W        W15569   5.883  12.939  10.222 -0.0607  0.1071  0.1149
15370W        W15570   0.173   0.377  15.053  0.0767  0.1262  0.1555
15371W        W15571  12.097   3.658  14.700 -0.0179  0.2661 -0.1952
15372W        W15572   2.644  14.196   9.209 -0.0782 -0.1343 -0.0383
15373W        W15573   0.413  13.526  14.788 -0.1539  0.2758  0.1196
15374W        W15574   8.078   8.847   4.852  0.0854  0.0705 -0.3616
15375W        W15575   5.953  13.478   0.353 -0.1589 -0.2143 -0.1443
15376W        W15576  12.620   2.910   9.785 -0.1977  0.3477 -0.0717
15377W        W15577   8.889  14.856   9.008 -0.0514  0.1786 -0.3186
15378W        W15578   8.654   3.336  13.077  0.0883 -0.0302  0.1841
15379W        W15579  11.095   9.730  10.211 -0.0117 -0.2116 -0.0058
15380W        W15580  14.593   4.800   4.870  0.1396  0.1258  0.0466
15381W        W15581   1.185   6.967   1.768 -0.2187 -0.5242 -0.1533
15382W        W15582   5.057  14.813   7.131 -0.0301  0.2992  0.2555
15383W        W15583   0.964   6.195  11.040  0.1185  0.0094  0.0644
15384W        W15584   6.945  15.109   0.580  0.2901 -0.0381  0.0159
15385W        W15585   6.703   0.067   3.103  0.1717 -0.1054  0.2343
15386W        W15586  10.596   0.758   8.483  0.0522 -0.0585 -0.1850
15387W        W15587   7.018   7.208   3.897 -0.2157  0.1403 -0.0950
15388W        W15588  14.064   0.531  11.487  0.4098 -0.0760  0.1730
15389W        W15589  14.947   4.100  11.843 -0.0405  0.0848  0.0546
15390W        W15590  12.085   4.978  13.344  0.3088  0.1595  0.0930
15391W        W15591  12.439   4.391   7.580 -0.2340  0.3225  0.0402
15392W        W15592   0.843   8.004  10.860  0.0796  0.1659  0.1340
15393W        W15593   9.013  12.159   7.282 -0.3033  0.6363 -0.0318
15394W        W15594   0.537   3.121  13.834 -0.0331  0.3200 -0.0664
15395W        W15595  10.631   9.449   0.636 -0.0585 -0.0632  0.2479
15396W        W15596   0.050   5.376   0.911  0.0938  0.4053 -0.0844
15397W        W15597   3.019   1.670   7.504  0.1518 -0.1219 -0.1181
15398W        W15598  11.644  15.025  13.713 -0.1774  0.1474 -0.0896
15399W        W15599   7.977   1.037   6.754  0.2791  0.1324 -0.1018
15400W        W15600  10.805   1.076  14.509  0.0582  0.3038  0.1632
15401W        W15601   0.799   2.350   8.369 -0.2183  0.1571 -0.1237
15402W        W15602   9.058  13.005   0.249 -0.2838  0.1339  0.1763
15403W        W15603  10.792   6.578   1.229  0.1854 -0.1665  0.0219
15404W        W15604  11.212   7.800  12.518  0.1486 -0.0773 -0.0134
15405W        W15605  12.987  12.456  11.067  0.0513 -0.0607 -0.3094
15406W        W15606   5.204   2.290  12.652  0.0610 -0.1736  0.0412
15407W        W15607  10.968   9.686   2.170 -0.1080 -0.0036  0.2499
15408W        W15608  10.156   1.151  10.406 -0.1932  0.0087  0.1096
15409W        W15609   8.142  13.237   0.815 -0.2475 -0.2241 -0.1785
15410W        W15610   7.302   7.730   8.082  0.1673 -0.0579  0.2277
15411W        W15611   8.554  11.407  13.721 -0.3556  0.2459  0.1067
15412W        W15612   9.752   8.205  14.119 -0.1132 -0.0107 -0.0749
15413W        W15613  10.818  15.037   4.726 -0.1604  0.0412 -0.0470
15414W        W15614  11.267  11.944  14.203 -0.0509 -0.1103  0.1181
15415W        W15615   9.351   9.866  11.904  0.0035 -0.2739 -0.1906
15416W        W15616  13.248   2.791   0.003 -0.1543 -0.1984 -0.2379
15417W        W15617   5.206  13.322  14.511 -0.0685  0.4938 -0.1071
15418W        W15618  12.136   6.813   7.908 -0.0827 -0.1024 -0.0433
15419W        W15619  14.973   5.516   3.143  0.0904 -0.2011 -0.0399
15420W        W15620   6.603   2.747   6.332  0.0714  0.0572 -0.2338
15421W        W15621   5.994   0.312   7.961  0.0349 -0.1744 -0.3221
15422W        W15622   4.875   9.437   3.260 -0.0793 -0.0038  0.1072
15423W        W15623   9.558   1.164  14.999 -0.1695  0.0130 -0.1079
15424W        W15624   0.628   1.105   2.867 -0.2062 -0.2095 -0.2364
15425W        W15625   7.075   8.469   2.447 -0.1894  0.0817  0.0437
15426W        W15626   9.106   6.259  12.040  0.0227  0.2601 -0.0263
15427W        W15627   4.089   6.785   0.548  0.1915 -0.0665  0.0739
15428W        W15628  11.187   2.371   4.051  0.1122  0.1032 -0.0541
15429W        W15629   9.144   8.160  14.083 -0.0656  0.0807 -0.3961
15430W        W15630   9.391   0.232  14.902  0.2369  0.0139 -0.1416
15431W        W15631   3.127  10.613  11.188 -0.0303  0.3327 -0.1625
15432W        W15632   6.575   1.980   0.242 -0.2926 -0.2509 -0.2029
15433W        W15633   3.563  14.198   4.867  0.0115 -0.3285  0.0255
15434W        W15634  12.741   5.125  11.990 -0.0413  0.0219 -0.1228
15435W        W15635   6.511   3.396   5.171 -0.1916 -0.2624  0.0559
15436W        W15636   2.435   6.621   3.763 -0.2385 -0.3118  0.1434
15437W        W15637  13.021  14.481   8.449 -0.0707  0.1963 -0.0590
15438W        W15638  10.638   6.877   4.121  0.0819 -0.0574 -0.2147
15439W        W15639  13.169   3.122  11.954  0.2245  0.1537 -0.0657
15440W        W15640  11.093  15.031  13.071 -0.2783  0.1124  0.1392
15441W        W15641   3.198  10.787   4.194 -0.2012  0.0317  0.2528
15442W        W15642   6.489   1.474   5.042 -0.1690  0.0887  0.1875
15443W        W15643   0.301  13.146   0.800  0.1020 -0.0175 -0.0410
15444W        W15644   7.831   1.424   7.939 -0.0763  0.1429  0.2254
15445W        W15645  13.356   1.652   7.901 -0.0753 -0.2075  0.0255
15446W        W15646   9.122  11.377   1.685 -0.0888 -0.2204  0.4070
15447W        W15647   4.122   2.606   8.833  0.2010  0.0008  0.2025
15448W        W15648  12.738   9.805   1.407 -0.4000  0.1272 -0.2500
15449W        W15649  10.950   1.557  11.204 -0.1309  0.0526 -0.1832
15450W        W15650  12.087   2.436   6.330 -0.3651  0.0914 -0.0500
15451W        W15651   9.932  12.307  12.760 -0.0217  0.2147 -0.0047
15452W        W15652   7.809   2.000  10.603  0.4857  0.2186  0.0525
15453W        W15653  13.744   3.970  14.836  0.0423 -0.4398  0.1866
15454W        W15654  10.491   3.957  11.195 -0.3823 -0.1644  0.3433
15455W        W15655  10.395  14.086  11.759  0.0571 -0.3355  0.0138
15456W        W15656   0.904   5.098   8.378  0.3055  0.1084 -0.3698
15457W        W15657  15.027   3.476   1.903  0.2307  0.0612  0.1551
15458W        W15658  11.568  12.995   4.971  0.1292 -0.1308 -0.2396
15459W        W15659  11.126   0.390   9.029  0.1730 -0.0214 -0.1760
15460W        W15660   8.819  13.736  11.671 -0.0999  0.2709 -0.1143
15461W        W15661   7.577  14.000  10.142 -0.0974  0.0524 -0.0660
15462W        W15662   5.564   5.884   6.657 -0.0975  0.2457  0.0554
15463W        W15663   2.033   4.834   0.803 -0.2382 -0.0942 -0.2365
15464W        W15664   5.126   7.683   2.504 -0.0882  0.0097  0.0802
15465W        W15665  13.883   6.012   1.341  0.0549  0.2557 -0.0722
15466W        W15666   7.052  13.243   9.275 -0.0363 -0.0017 -0.1427
15467W        W15667   5.278   3.236  13.972  0.0143  0.2376 -0.0774
15468W        W15668   1.812   9.373   9.228  0.1950  0.1904 -0.3076
15469W        W15669   2.721   0.190   2.598 -0.1370  0.2328  0.0022
15470W        W15670   7.093   6.337  12.499 -0.0334  0.0351  0.2142
15471W        W15671  13.379  13.765   9.858 -0.2384 -0.4407  0.0780
15472W        W15672  13.638   0.725   8.237 -0.0198  0.0196 -0.2331
15473W        W15673   1.546   1.413  10.585  0.0352 -0.3316 -0.2524
15474W        W15674  12.034   3.475  14.186  0.3035 -0.2347 -0.0030
15475W        W15675  11.455   6.747   1.767 -0.1176 -0.0990 -0.0771
15476W        W15676  12.807   0.597   3.793 -0.1901 -0.2807  0.2015
15477W        W15677   4.221   4.615   3.200  0.2077  0.0075  0.0733
15478W        W15678  14.271  14.005  12.042 -0.4373  0.0986 -0.2299
15479W        W15679   0.502   4.623   2.373  0.2488 -0.1665  0.0638
15480W        W15680   8.735   4.029  11.247 -0.1538 -0.3613  0.2338
15481W        W15681   8.485   2.044   7.841 -0.0419  0.0034 -0.1487
15482W        W15682   1.941   8.241   3.030  0.2645  0.0738 -0.0294
15483W        W15683  11.570   1.513   1.815 -0.1232  0.0051  0.2309
15484W        W15684   6.601  14.497  14.738  0.3882 -0.1348 -0.1002
15485W        W15685   9.690   1.164  11.151  0.0248 -0.0365  0.1925
15486W        W15686   9.301   1.336  13.141 -0.2060 -0.0337 -0.1741
15487W        W15687  14.969  14.874   0.856  0.0025 -0.0775 -0.2381
15488W        W15688   8.168   5.766   6.531  0.0674  0.5111  0.1817
15489W        W15689  10.694   5.995   7.689  0.1793  0.0985 -0.0699
15490W        W15690  12.442  13.255   4.932 -0.0020 -0.0824 -0.1279
15491W        W15691   7.990  10.688   1.617  0.0327 -0.0268  0.2422
15492W        W15692   5.552  13.355   5.312 -0.4426 -0.0490 -0.0494
15493W        W15693   6.779   3.958   0.649 -0.0279  0.0806  0.2970
15494W        W15694   6.708  12.141  12.053 -0.2955 -0.3081 -0.0841
15495W        W15695  11.187  12.281   6.707 -0.1235 -0.3076 -0.1452
15496W        W15696   8.448   4.522   3.200 -0.2700  0.4075 -0.3012
15497W        W15697   8.781   4.498   3.862 -0.1544 -0.2726 -0.0799
15498W        W15698  12.282   8.792  14.261 -0.1661 -0.1468 -0.2331
15499W        W15699   6.298  11.995   8.455 -0.0878 -0.1597  0.0546
15500W        W15700   6.085  14.259  12.184  0.4828 -0.0969  0.1738
15501W        W15701   7.647  12.160   3.919  0.0423 -0.0722  0.1462
15502W        W15702   7.550  11.422   1.298 -0.0826 -0.1879  0.0536
15503W        W15703  14.279   2.731  13.782  0.1056 -0.0671 -0.2242
15504W        W15704   0.254   3.289   5.911 -0.1577  0.0270 -0.0017
15505W        W15705  12.302  13.008  14.377 -0.1825  0.1497  0.3042
15506W        W15706  10.794  12.114   9.187 -0.0487 -0.1127 -0.0571
15507W        W15707  14.278   2.434  12.361  0.1829 -0.2331  0.1850
15508W        W15708   6.856   2.127   2.268 -0.2329  0.0707  0.2569
15509W        W15709   4.953  12.716   6.543 -0.1140 -0.0569  0.2998
15510W        W15710  15.011   0.647   0.018 -0.0853 -0.2601  0.0446
15511W        W15711   7.190   2.281  11.947 -0.1542  0.1225 -0.0996
15512W        W15712   5.163   3.058  10.529  0.4183  0.3018  0.1643
15513W        W15713   5.717   6.010   8.944 -0.1775  0.1916 -0.2323
15514W        W15714  11.751  14.761  11.992 -0.3996  0.1719 -0.1485
15515W        W15715   2.839   4.391   2.027 -0.1419 -0.3093  0.1101
15516W        W15716  14.851   6.834  11.810 -0.1780  0.1412 -0.0844
15517W        W15717   5.462  14.989  13.213  0.0954 -0.0149  0.1236
15518W        W15718   9.605   3.898   7.445 -0.1337  0.3430  0.1642
15519W        W15719  11.858   2.811  15.125  0.0214  0.3526  0.3665
15520W        W15720  10.342   4.024   1.675 -0.1162  0.0874  0.2139
15521W        W15721  12.293   9.606  12.697 -0.3826 -0.0279 -0.3132
15522W        W15722   3.636   2.617   8.759  0.5008 -0.2447  0.4482
15523W        W15723  13.428   9.820  11.504 -0.0517 -0.5755  0.2129
15524W        W15724   7.177   3.463  15.184  0.2315  0.0546  0.0253
15525W        W15725   1.692   5.440  11.677  0.2883  0.0268 -0.3059
15526W        W15726  12.720   9.388  12.186  0.4357 -0.1886 -0.1211
15527W        W15727   4.032   4.218   0.372 -0.0346 -0.0175  0.2259
15528W        W15728   9.072   4.657   0.674  0.0719 -0.3345 -0.6298
15529W        W15729   0.076  14.318  14.312 -0.1467 -0.0606 -0.0471
15530W        W15730   6.210   2.633   2.516  0.1054 -0.2382 -0.4357
15531W        W15731   7.040  14.746   8.186 -0.1366  0.2503  0.0638
15532W        W15732   1.401   0.648  11.545  0.0307  0.1052  0.1439
15533W        W15733   2.148   1.893   1.477 -0.0353  0.0391  0.0469
15534W        W15734   7.449  13.009   9.117  0.0003  0.0159 -0.0979
15535W        W15735  11.682  10.842  12.554  0.0139  0.0121 -0.2883
15536W        W15736   9.052  10.352   5.727 -0.0740 -0.2883 -0.0299
15537W        W15737  10.602   3.399   0.965  0.6116  0.0347 -0.1346
15538W        W15738   0.484   9.111  10.813  0.2419 -0.2698 -0.0634
15539W        W15739   7.222   2.317  11.286 -0.4149  0.2322 -0.1284
15540W        W15740  12.877   1.861  12.433  0.1076  0.0027  0.0660
15541W        W15741   0.968  13.292  12.042 -0.0088  0.0575 -0.1185
15542W        W15742  10.914   4.031   3.158  0.2949 -0.0302 -0.2199
15543W        W15743  10.691   4.926  10.177  0.1788  0.0320 -0.2211
15544W        W15744  11.971   6.253   2.345 -0.0262  0.3210 -0.0084
15545W        W15745   4.464   2.320  12.929 -0.1680  0.3272  0.1874
15546W        W15746   0.257  10.229   2.458 -0.0005 -0.0755 -0.0884
15547W        W15747  14.402   6.062   4.270 -0.2539  0.0893  0.0678
15548W        W15748   3.791   5.039  13.961  0.2416 -0.1138  0.0205
15549W        W15749  14.368   1.467   5.683  0.0231  0.0006 -0.3344
15550W        W15750   7.648  12.507  14.741  0.0255 -0.5476 -0.4936
15551W        W15751   5.014  12.557  14.318  0.1090 -0.0245 -0.2975
15552W        W15752  13.009   6.716   9.442 -0.1776 -0.2829 -0.1218
15553W        W15753  14.071   8.925   9.850 -0.1274  0.1448 -0.1014
15554W        W15754  12.507  15.173  11.347  0.1924 -0.2006 -0.1083
15555W        W15755  13.964   3.036  13.421 -0.0324 -0.0440 -0.1213
15556W        W15756   0.986   4.524   0.472 -0.2499  0.2672 -0.2538
15557W        W15757   6.696  10.049   2.469  0.2586 -0.0897 -0.1683
15558W        W15758   6.433   4.406  14.494 -0.1977 -0.1715 -0.1403
15559W        W15759  14.227  14.350  10.973  0.2729  0.0792  0.1886
15560W        W15760  10.674   1.078   5.623 -0.0219  0.0805 -0.1569
15561W        W15761   8.822   2.352   2.690 -0.0459  0.4020 -0.2776
15562W        W15762  10.096   8.046  11.629 -0.2171  0.2749  0.2924
15563W        W15763  13.063   1.064  13.389 -0.0089  0.2371  0.0288
15564W        W15764   5.063  14.690  13.399 -0.0200  0.2550 -0.0084
15565W        W15765   3.902   2.888  14.357  0.0593 -0.2245  0.3211
15566W        W15766   5.475   0.202   6.451  0.1229 -0.2115 -0.1044
15567W        W15767   7.210   0.807   5.120  0.0714 -0.0849  0.0305
15568W        W15768  13.937  11.597  10.717 -0.1018 -0.3144  0.1691
15569W        W15769   6.550   0.645   2.417 -0.4634 -0.1107 -0.4165
15570W        W15770   2.321   1.895   1.003  0.0456 -0.2938 -0.1688
15571W        W15771  12.219   0.993   9.953  0.2293  0.0673 -0.0443
15572W        W15772   8.294   6.383  13.915 -0.1732 -0.4019 -0.3963
15573W        W15773  13.827   7.759  12.277  0.0753  0.1984  0.1310
15574W        W15774  14.652   8.229   3.455 -0.3643  0.0805  0.1306
15575W        W15775   3.792  13.405   9.898 -0.2346 -0.0214 -0.0291
15576W        W15776  12.257   5.897   3.056 -0.1682  0.0537 -0.1256
15577W        W15777   0.935   7.925   8.473  0.2542 -0.0664  0.0053
15578W        W15778  14.473   1.562  11.206  0.0795  0.2086  0.3151
15579W        W15779   8.414  14.196   3.082  0.0785  0.3711  0.1058
15580W        W15780  12.023   4.963   8.630 -0.0890 -0.1228 -0.0477
15581W        W15781   9.929   7.464   2.934 -0.1216  0.1125  0.0195
15582W        W15782  10.371   4.812  13.269  0.0647 -0.1442  0.0892
15583W        W15783   6.836   7.554  12.207 -0.0282 -0.1209  0.0398
15584W        W15784   0.331   2.916  12.692 -0.4097  0.1534 -0.1245
15585W        W15785  10.113  14.928   8.216 -0.1156  0.1731  0.0056
15586W        W15786  11.060  10.459   0.653 -0.1008  0.2850 -0.0175
15587W        W15787  13.610   6.106   0.949  0.1664 -0.0562 -0.2229
15588W        W15788   5.879  14.310   5.079  0.4124  0.1385  0.2054
15589W        W15789   4.130   9.799   1.438  0.0463 -0.0344  0.3219
15590W        W15790   6.092  15.053   5.657 -0.0504 -0.1756 -0.3034
15591W        W15791   6.151  14.549   1.926  0.0929 -0.2823  0.0877
15592W        W15792   1.246   7.393  12.240  0.1982 -0.2381  0.0184
15593W        W15793  14.405  13.434  13.567 -0.1743 -0.1447 -0.1743
15594W        W15794   5.307  13.677  13.200 -0.0160 -0.1007  0.1530
15595W        W15795  15.075   6.806   8.860 -0.1523 -0.1497  0.1518
15596W        W15796  11.530   3.824   1.804  0.2880 -0.2865  0.4296
15597W        W15797   0.041   6.196   6.632  0.1698 -0.0581 -0.0950
15598W        W15798  10.198  13.948   8.638  0.3044 -0.0243 -0.0122
15599W        W15799   6.938  14.468   4.003 -0.0907 -0.2934  0.0560
15600W        W15800  13.612   9.270   1.727 -0.0348  0.2806  0.0461
15601W        W15801  13.122   7.426  14.872  0.0049 -0.0443  0.2321
15602W        W15802  10.167   2.995  15.082  0.1158 -0.0892 -0.1678
15603W        W15803  14.105  10.005   5.678 -0.0348 -0.0370 -0.1377
15604W        W15804   6.447   7.883  10.866 -0.3539  0.1838  0.1000
15605W        W15805   9.238   0.802   1.298 -0.0016 -0.1906  0.0837
15606W        W15806  13.153  14.855   0.796  0.2067 -0.0826 -0.1813
15607W        W15807   9.596   8.681   1.185  0.0159  0.0298  0.0321
15608W        W15808   1.658   2.920   5.582  0.0089 -0.1805 -0.2731
15609W        W15809   2.846   0.868  14.671 -0.1823  0.0879  0.1763
15610W        W15810   5.670   3.527  10.497  0.0638  0.2764 -0.1299
15611W        W15811  12.930  12.078   9.910  0.2743 -0.6250 -0.0854
15612W        W15812   2.408   3.299   2.841 -0.2044  0.2867  0.0940
15613W        W15813  11.724   2.804   6.575  0.2498  0.1847  0.0830
15614W        W15814  15.176   8.377  13.847  0.1507 -0.1676 -0.0364
15615W        W15815   2.989   8.341  11.749 -0.0543 -0.0457  0.0090
15616W        W15816   9.485   8.909   1.644  0.0350 -0.0432  0.1629
15617W        W15817   8.810   1.087   0.680  0.0333 -0.0473 -0.3544
15618W        W15818   1.522  13.176  12.847  0.0440  0.1435  0.0407
15619W        W15819   7.600   1.038   5.262 -0.1626  0.0902  0.1450
15620W        W15820   9.231  14.831   5.163 -0.0439  0.2576  0.0655
15621W        W15821   5.560   5.992   3.699  0.0496  0.1970 -0.1705
15622W        W15822   7.273   9.348   4.588 -0.1208  0.0555  0.0941
15623W        W15823   7.179   3.947   0.454 -0.0386 -0.1217  0.0524
15624W        W15824   4.443  14.742   2.870  0.0468 -0.0573 -0.2604
15625W        W15825  14.211   4.205   1.368  0.1042  0.1757 -0.2557
15626W        W15826   2.270   5.594   6.936 -0.0695  0.1686  0.0746
15627W        W15827   3.914  11.741   6.585  0.3653  0.0834 -0.2103
15628W        W15828   3.873   6.711  10.624  0.2339  0.2058 -0.2961
15629W        W15829   7.667   3.067   0.197 -0.1392  0.0337 -0.1834
15630W        W15830   9.707  12.922   3.139 -0.0567 -0.3374 -0.1433
15631W        W15831   4.545  13.944   6.014 -0.2086 -0.0462 -0.1990
15632W        W15832  10.551  13.874   9.455  0.0802 -0.0145  0.2432
15633W        W15833  11.128   3.495  12.568  0.1544  0.0738  0.1138
15634W        W15834   7.887   9.054   7.560  0.3589  0.4189  0.1576
15635W        W15835  12.270   9.575  10.723 -0.2237 -0.0010  0.0835
15636W        W15836   3.825   2.627  10.736 -0.1402  0.2955 -0.1692
15637W        W15837   4.044  13.580  11.605  0.2874 -0.0702 -0.0663
15638W        W15838  11.195   2.786  14.677 -0.2903 -0.1329 -0.3031
15639W        W15839  13.162   9.358  10.712  0.5918  0.0791  0.1361
15640W        W15840   7.079   1.670   0.031  0.3539 -0.2958  0.0138
15641W        W15841  11.397   8.106   1.364  0.1171 -0.0512 -0.4025
15642W        W15842   6.469   2.321  15.111  0.1866  0.0274 -0.0447
15643W        W15843  13.015   2.000   3.169 -0.0136 -0.0465  0.0129
15644W        W15844   7.168   6.659   1.143 -0.0384 -0.1358  0.1431
15645W        W15845   0.132  14.647   2.620  0.0283  0.4098 -0.2990
15646W        W15846   0.251   7.788   0.847 -0.1108  0.0989 -0.0286
15647W        W15847   0.678  13.114   0.366  0.0168  0.0014  0.1599
15648W        W15848  12.975   3.385   7.436  0.0109  0.2782 -0.1122
15649W        W15849  10.846   0.849  13.036 -0.0571  0.1133  0.1034
15650W        W15850   5.074  10.412   2.493 -0.0241 -0.0621  0.0633
15651W        W15851   4.522   2.156   1.517  0.1976  0.0252 -0.1854
15652W        W15852  14.645  15.068   6.363 -0.2818 -0.0265  0.0799
15653W        W15853   4.432   0.231  11.632  0.0031  0.0451 -0.1782
15654W        W15854  14.035  10.589  12.682 -0.3223  0.0810 -0.2845
15655W        W15855   2.050   8.457   2.600 -0.0204 -0.1425 -0.1447
15656W        W15856   4.685   7.554   4.670  0.0668 -0.1560  0.0857
15657W        W15857  10.819   3.463   9.741 -0.2246 -0.1412 -0.0630
15658W        W15858  11.169   7.785   2.764  0.0876 -0.2330 -0.0172
15659W        W15859  12.531   6.928   9.319 -0.1875  0.1508 -0.1293
15660W        W15860   8.941   6.270   3.752  0.0883  0.0451 -0.1436
15661W        W15861   5.076   3.266   5.246 -0.0283 -0.4010  0.1072
15662W        W15862   9.168  13.853   8.430  0.0234  0.0304 -0.1902
15663W        W15863  10.504   5.994   3.861 -0.0469  0.0625  0.0474
15664W        W15864  11.692   3.603   3.045 -0.1610  0.0731  0.2197
15665W        W15865   7.252  11.209  14.950 -0.1857 -0.1232 -0.0222
15666W        W15866   8.076   2.689   5.122  0.0203  0.0648 -0.0505
15667W        W15867  13.883   7.504  11.807  0.1845  0.2050  0.0294
15668W        W15868   9.945   9.754  12.550 -0.1380 -0.0810 -0.0732
15669W        W15869   7.898   2.662   4.381  0.0328 -0.3017  0.1669
15670W        W15870   6.030  10.094   5.877 -0.0034  0.0618  0.1457
15671W        W15871   7.922  11.886   1.411 -0.2025 -0.0254 -0.1460
15672W        W15872   9.606   4.291   5.188 -0.1070  0.1361  0.0624
15673W        W15873   0.694   4.545   6.764 -0.1657  0.0683  0.0949
15674W        W15874   5.294   1.234   0.736 -0.0144 -0.1080  0.1534
15675W        W15875   1.306   6.205   3.239  0.0547 -0.2333 -0.0903
15676W        W15876   6.332  10.576   5.907 -0.1589  0.1146 -0.4088
15677W        W15877   2.919   7.230  13.751  0.1017  0.1623 -0.2151
15678W        W15878   6.345   1.443   0.204 -0.0412 -0.1109 -0.2150
15679W        W15879  12.805   5.740   7.870  0.2090 -0.2380 -0.1106
15680W        W15880   2.667  12.959   1.018 -0.0282  0.1370  0.2860
15681W        W15881   8.221  12.700  15.003 -0.0674  0.3484  0.2567
15682W        W15882   4.045  14.647  14.244  0.0501 -0.3565 -0.0625
15683W        W15883   9.957   3.755  11.838  0.0859  0.0518 -0.1157
15684W        W15884  12.612   1.739   4.669  0.1449  0.2058 -0.4151
15685W        W15885   3.980   3.236   2.250 -0.1402 -0.0847  0.0388
15686W        W15886   7.711  12.818   7.590 -0.0233  0.2035 -0.1434
15687W        W15887   1.550   5.819  11.307 -0.0815 -0.1681 -0.0392
15688W        W15888   8.491   7.390  10.921  0.0697  0.3491 -0.0876
15689W        W15889  14.308   0.485   5.691  0.3372 -0.0663  0.3065
15690W        W15890   6.226   4.281  13.486 -0.0660  0.1012  0.1679
15691W        W15891   0.539  11.205   0.920  0.1722  0.1402  0.0250
15692W        W15892   4.563   7.255  12.710  0.3007  0.0676 -0.1091
15693W        W15893   9.851   3.692   7.901  0.1636  0.2050 -0.3074
15694W        W15894  12.348   1.996   4.334 -0.1054 -0.1551 -0.0420
15695W        W15895   5.321   4.143  14.255  0.2369  0.4395  0.4631
15696W        W15896   5.863  11.533   4.039  0.1665  0.1968  0.1485
15697W        W15897  12.144  12.329   4.207 -0.0504 -0.1661 -0.0616
15698W        W15898  13.520   8.602   5.087  0.0127 -0.0195 -0.0031
15699W        W15899  11.983  10.354  10.104 -0.2853 -0.1604 -0.2532
15700W        W15900   4.249  15.073  14.880  0.1103  0.0168 -0.1078
15701W        W15901   5.926   3.761   7.971 -0.0010  0.1745 -0.3866
15702W        W15902   0.196  14.211   8.422 -0.0922  0.0305  0.1825
15703W        W15903  11.642   5.193   4.878 -0.1896  0.1935 -0.2687
15704W        W15904   9.529   4.129   9.165 -0.0141 -0.1125 -0.0933
15705W        W15905   1.422   8.315  14.222  0.1513 -0.0260 -0.0702
15706W        W15906   7.419   0.424   2.550 -0.1053 -0.1849 -0.3136
15707W        W15907   7.890   3.264  10.731  0.3578  0.1733  0.0256
15708W        W15908   5.845   6.496  13.002 -0.0023 -0.4252  0.1799
15709W        W15909   6.572   1.645   5.951 -0.0491 -0.2823 -0.2532
15710W        W15910  13.680   3.051   3.761  0.1080 -0.1630 -0.0176
15711W        W15911   6.275  13.524   6.608  0.1653 -0.5053  0.0181
15712W        W15912   9.126  10.738  13.896  0.0921  0.0511 -0.0213
15713W        W15913   9.686   3.725   0.490 -0.0159 -0.1071  0.2592
15714W        W15914   7.666   3.531   4.467  0.0717 -0.1085 -0.2161
15715W        W15915  10.218  14.409   8.795  0.3729 -0.3993  0.0086
15716W        W15916  10.068  10.345   9.861  0.1984  0.0358 -0.1735
15717W        W15917  12.263   3.338   4.361 -0.1896 -0.1290 -0.0914
15718W        W15918   3.958   9.848   0.625  0.1714  0.2269 -0.3544
15719W        W15919  14.292   1.652   2.626  0.1739  0.1014 -0.0849
15720W        W15920  10.592  14.330   4.483 -0.0340  0.1608  0.2380
15721W        W15921   7.474   1.481  13.848 -0.4094 -0.1948 -0.0700
15722W        W15922   8.928   9.740   1.680  0.2632  0.1839  0.3066
15723W        W15923  10.701  14.767  14.215 -0.1410 -0.1771  0.0258
15724W        W15924   5.558   6.756   2.373 -0.0401  0.0900 -0.3421
15725W        W15925   8.636   4.332   9.465  0.1428 -0.0183 -0.3350
15726W        W15926  14.020  15.154   9.106 -0.2428  0.3103 -0.1254
15727W        W15927   9.053   1.972   3.539  0.0322  0.0865  0.0159
15728W        W15928   6.909   0.172   8.265 -0.2304 -0.1227 -0.1383
15729W        W15929   9.895   5.620   7.635  0.0540  0.1882  0.4396
15730W        W15930  10.016   7.389  14.701  0.2212  0.1282  0.1941
15731W        W15931  13.265   3.248   2.396 -0.1922  0.1612  0.1597
15732W        W15932  13.542   3.345   0.596  0.0973  0.0383  0.0514
15733W        W15933   1.025  10.264   6.705  0.1335  0.0960  0.0514
15734W        W15934   1.233   2.714   4.265 -0.1735  0.3032 -0.1546
15735W        W15935   3.426   0.189   7.443  0.0773 -0.0046 -0.0378
15736W        W15936  10.036   6.891  14.891  0.0966  0.0387  0.0236
15737W        W15937  11.996   4.978  13.839 -0.0844  0.0006 -0.1237
15738W        W15938  11.439   2.498   1.755 -0.0532 -0.2666 -0.4415
15739W        W15939  10.401   0.904   4.609 -0.1627 -0.1413  0.1328
15740W        W15940  11.219  10.504  10.648 -0.4018  0.1229 -0.1891
15741W        W15941   2.330   5.316  10.628 -0.4326 -0.1934  0.2442
15742W        W15942   3.167   3.867   0.789 -0.0230 -0.0671  0.0886
15743W        W15943   8.889   3.086   7.310 -0.2889 -0.0087 -0.0622
15744W        W15944   5.036  10.869  13.972 -0.2340 -0.1772 -0.0312
15745W        W15945   5.935   3.615   8.933  0.0925 -0.1180 -0.0716
15746W        W15946   5.232   3.268   1.776  0.1621 -0.0047 -0.0141
15747W        W15947   7.481   5.261   3.310 -0.1546 -0.3192 -0.5672
15748W        W15948   2.711   8.987   3.188  0.1310  0.2984 -0.0174
15749W        W15949   6.412   9.133   4.321 -0.3181  0.1192  0.0946
15750W        W15950   3.553  10.532  12.080  0.1176 -0.0047  0.3055
15751W        W15951   8.650   5.380   0.595  0.3010 -0.0673  0.0626
15752W        W15952   7.505   5.168   6.079 -0.1794 -0.2882 -0.1249
15753W        W15953  15.017   4.747  12.546 -0.1034  0.0452 -0.1142
15754W        W15954   8.497  11.272  10.315 -0.2014  0.0774  0.0148
15755W        W15955   7.605  10.329   7.753 -0.1146 -0.1834 -0.2682
15756W        W15956   9.634   1.885   4.924  0.0662 -0.1159  0.0362
15757W        W15957   3.851  13.761  12.726  0.0762  0.0356  0.3491
15758W        W15958  14.918   5.983   2.896 -0.0194 -0.2733 -0.1230
15759W        W15959  13.238   3.138   8.804 -0.2541 -0.0227  0.1077
15760W        W15960   6.984   3.876   6.716  0.2689  0.0065 -0.1368
15761W        W15961   8.450   2.897  13.784  0.0673  0.2792 -0.1421
15762W        W15962   2.984   7.460  14.221 -0.1182 -0.0218  0.0414
15763W        W15963  11.234  11.811   2.637  0.2047 -0.0512  0.1527
15764W        W15964  12.677   4.368   2.047 -0.1187 -0.0626 -0.1427
15765W        W15965   7.855   5.283   5.024  0.2040 -0.2714  0.0942
15766W        W15966   9.227   2.618  12.022  0.0482  0.1277 -0.2420
15767W        W15967   4.747   8.837   1.426 -0.2162 -0.0625 -0.0693
15768W        W15968  14.370   7.583  14.597 -0.0971  0.0015 -0.1176
15769W        W15969   8.039   1.991   0.218 -0.2694  0.0291  0.0453
15770W        W15970   8.774   4.569  12.279  0.1712  0.1214 -0.5394
15771W        W15971   0.689   7.762   9.505  0.0350 -0.0015  0.0193
15772W        W15972   3.423   3.728  12.499 -0.2975  0.1307  0.0209
15773W        W15973   9.833   7.264   8.940 -0.2034 -0.1707 -0.2346
15774W        W15974   0.927   5.487  14.856  0.5164 -0.1216 -0.2544
15775W        W15975   7.472  13.980  14.449 -0.1180 -0.0220 -0.0960
15776W        W15976   4.550   2.927   7.092 -0.0869  0.1297  0.1905
15777W        W15977   9.405   0.653  14.667 -0.2239 -0.0865  0.1500
15778W        W15978   5.916   4.425   3.186 -0.2589 -0.0428 -0.0838
15779W        W15979  10.951   5.458   9.580  0.0214 -0.0523  0.1895
15780W        W15980   6.502   8.703  12.873 -0.0321  0.1009 -0.3747
15781W        W15981  14.315  13.676  12.995  0.2546  0.0308 -0.2537
15782W        W15982  13.498   0.156   2.245 -0.0625  0.0679  0.0269
15783W        W15983   1.904   0.748  11.692  0.0681  0.1335  0.1422
15784W        W15984   2.918   0.135   0.963 -0.0508  0.0487  0.1002
15785W        W15985   3.653   5.756   2.326 -0.0163 -0.2161  0.1547
15786W        W15986   2.907  11.718  13.439 -0.2221  0.0110  0.0557
15787W        W15987   5.482  11.184   3.970  0.1750  0.0168 -0.1386
15788W        W15988   9.949   4.718  10.962  0.1918  0.3621  0.1783
15789W        W15989   3.580   6.511  12.972 -0.1935 -0.0044 -0.1363
15790W        W15990   3.237   5.678   3.195  0.1454  0.3013  0.0087
15791W        W15991  10.249   6.639  13.815 -0.1275  0.1731 -0.0731
15792W        W15992  10.070   4.528   9.325  0.0394  0.0180 -0.1515
15793W        W15993   7.799   6.789   8.878 -0.0314  0.2299 -0.2718
15794W        W15994   8.512   2.708   3.072  0.1026 -0.3222  0.0021
15795W        W15995   0.078  13.874   3.453  0.2868 -0.3493 -0.2491
15796W        W15996   2.852  14.468   1.471 -0.3314  0.2638 -0.4516
15797W        W15997   3.708  12.325   2.947  0.3722  0.0479  0.0623
15798W        W15998   8.666   2.474   5.732 -0.0347  0.0727  0.1192
15799W        W15999   8.716  10.648   3.932 -0.1936 -0.1604 -0.0077
15800W        W16000   8.407   0.362   2.905  0.0724 -0.0509 -0.1580
15801W        W16001   8.737  10.106   6.096  0.2275  0.0232 -0.1356
15802W        W16002   5.858   3.181  14.091 -0.1612 -0.0413 -0.0538
15803W        W16003   3.790   2.688   5.086 -0.1036  0.1806  0.1668
15804W        W16004   0.799  10.786   1.232  0.0462  0.2713  0.0787
15805W        W16005  12.586   7.781   8.529 -0.2393  0.0390  0.1326
15806W        W16006  11.393  14.760  13.377 -0.1164 -0.2700  0.2686
15807W        W16007   6.457  13.810   2.563  0.0890  0.0532  0.1587
15808W        W16008   2.830   3.543   3.013  0.0712  0.1193  0.2991
15809W        W16009   6.237   3.926   2.454 -0.3704 -0.2503  0.0582
15810W        W16010  10.618   2.820   0.021 -0.1253 -0.1761  0.0571
15811W        W16011   6.764   1.581   9.048 -0.3082  0.1267 -0.1337
15812W        W16012   0.574   5.436  12.263  0.3403  0.0230 -0.0105
15813W        W16013   9.506   1.591   5.274 -0.0043 -0.2017  0.2547
15814W        W16014  13.226   7.578   3.560  0.2065  0.1058  0.1028
15815W        W16015   0.336   8.695   5.873  0.1202 -0.3284  0.0590
15816W        W16016  12.421   8.889   1.447 -0.0491 -0.2332 -0.2287
15817W        W16017   8.944   2.718  11.589 -0.0989  0.1210 -0.0434
15818W        W16018   8.263  11.062  13.572 -0.2139  0.3224  0.0914
15819W        W16019   4.792   7.818   7.260  0.0765  0.1612  0.1805
15820W        W16020   0.364   6.732   3.089 -0.0099  0.2253 -0.1183
15821W        W16021   5.916   8.809  14.987 -0.1534  0.0620  0.2684
15822W        W16022   3.937   0.387  14.318 -0.0681  0.0094  0.1350
15823W        W16023   2.245   1.672  12.545 -0.1801  0.1980 -0.2476
15824W        W16024   9.276   9.167   1.066 -0.1515 -0.1225 -0.1137
15825W        W16025   7.331   4.024  13.106 -0.1269  0.2291  0.2619
15826W        W16026   9.358   3.697   7.814  0.0924 -0.1207 -0.1296
15827W        W16027  12.482  10.546   0.081 -0.0579  0.2107  0.2237
15828W        W16028   2.875   8.175   7.730 -0.0767  0.0528 -0.3955
15829W        W16029   2.310   6.162   0.180 -0.0546  0.0891  0.3119
15830W        W16030  13.143  11.541   9.953  0.0482 -0.4159 -0.2488
15831W        W16031   8.940   2.557   2.193  0.4241  0.0272 -0.2812
15832W        W16032  14.572   1.792   0.006  0.0754  0.2705  0.0622
15833W        W16033  15.109   7.236   3.624 -0.0699  0.0044 -0.0383
15834W        W16034   5.268   1.348   0.196 -0.0760  0.0033 -0.0349
15835W        W16035  11.590   5.188  11.172 -0.3439  0.0237  0.0151
15836W        W16036   4.626   1.823  13.886  0.1101  0.0865  0.0295
15837W        W16037  14.582   1.928   4.690 -0.1651  0.0209 -0.4881
15838W        W16038   9.579  14.885  10.284  0.0919 -0.1191 -0.1740
15839W        W16039  11.437   8.392   0.819 -0.0221  0.1142 -0.1378
15840W        W16040  12.563   7.235   0.439 -0.3322 -0.2142  0.2348
15841W        W16041   8.644   6.064  10.252 -0.1380  0.0420  0.1606
15842W        W16042   2.710   1.730  12.926 -0.0626 -0.1695 -0.2649
15843W        W16043  14.593   0.495   4.187 -0.2053 -0.2610 -0.0823
15844W        W16044   4.617  15.016  13.210  0.3534  0.0178  0.1160
15845W        W16045  12.088  14.183   0.438  0.1866 -0.1493 -0.2757
15846W        W16046   3.031  13.254  11.419 -0.2020 -0.3155  0.1357
15847W        W16047   6.344   4.901  13.617 -0.2637 -0.1284  0.0094
15848W        W16048  10.732   6.086   4.740 -0.1072  0.1373  0.1036
15849W        W16049   8.621  13.865   2.393  0.0742 -0.1331  0.2091
15850W        W16050   8.179   8.455  13.229  0.0234 -0.1057 -0.1003
15851W        W16051   9.016   3.588  12.141  0.2373  0.3660  0.2373
15852W        W16052  15.052   4.886   1.488  0.0448 -0.0857  0.1668
15853W        W16053   7.371  10.597   0.338 -0.0030  0.0189 -0.2469
15854W        W16054  11.896   2.230   5.923 -0.1664  0.0214 -0.1357
15855W        W16055  12.838   3.948  10.398  0.1855  0.1948 -0.1189
15856W        W16056   4.691  10.627  14.271 -0.1419  0.1028  0.0048
15857W        W16057   8.324   0.516   3.431 -0.1416  0.1451  0.1132
15858W        W16058   9.209   3.305   1.150  0.0679 -0.2500  0.2587
15859W        W16059  10.202  14.068   3.596 -0.2660  0.1167  0.2278
15860W        W16060  11.462   8.019   5.637 -0.1658  0.0092  0.1559
15861W        W16061   7.665   5.396   5.538 -0.3186  0.2428 -0.3218
15862W        W16062  10.732   9.739  11.882  0.0736 -0.0320  0.0490
15863W        W16063   8.605   9.012   1.677 -0.1465  0.0682  0.0783
15864W        W16064   8.844   9.217  11.898 -0.2092 -0.1475  0.1054
15865W        W16065   2.753   5.732   1.071 -0.1214 -0.2736 -0.0343
15866W        W16066   6.610  12.806   4.741  0.0089 -0.0553  0.2647
15867W        W16067  10.065  10.284   2.187 -0.0235  0.1034 -0.0482
15868W        W16068   7.986   5.666   4.729 -0.1733  0.0990 -0.0225
15869W        W16069   5.398   7.243   9.391  0.1494  0.3851 -0.0353
15870W        W16070  11.371   5.371  13.367 -0.1425 -0.2368  0.1924
15871W        W16071   9.094  10.989   2.109 -0.0127 -0.0769  0.3866
15872W        W16072   1.342   4.187   0.687  0.0766 -0.2853 -0.0374
15873W        W16073   6.041   8.563  13.752  0.3136 -0.1910  0.1852
15874W        W16074   8.601   9.833   3.472 -0.1412 -0.1428  0.1518
15875W        W16075   7.416   4.123   7.805  0.1693  0.0519 -0.2131
15876W        W16076   0.505   4.144  13.763 -0.1355 -0.2606 -0.2182
15877W        W16077   5.941   7.134   2.391  0.0482  0.0944  0.2227
15878W        W16078   6.727   6.914   6.216  0.1790  0.2316 -0.1327
15879W        W16079  11.966  10.708   7.566 -0.3151 -0.1526 -0.1437
15880W        W16080  11.480   9.419  13.203 -0.1065 -0.0116  0.3840
15881W        W16081   5.819   6.702  10.395  0.1447 -0.1012  0.2246
15882W        W16082   8.022   0.729   1.161 -0.0629 -0.2682  0.0489
15883W        W16083   4.100  13.187  12.981 -0.0007 -0.0628  0.0078
15884W        W16084  10.378   4.668   7.612  0.0243 -0.2122  0.1967
15885W        W16085   3.192   7.311   9.311 -0.0847  0.1207  0.3169
15886W        W16086   3.247   9.326   3.767  0.0233 -0.0693 -0.1231
15887W        W16087   7.681   0.187   8.697  0.0366  0.1811 -0.2964
15888W        W16088   0.497   7.386   0.099 -0.3332 -0.1721  0.1057
15889W        W16089   0.247   7.321  13.073 -0.2715 -0.0785 -0.3309
15890W        W16090   8.690   2.100   4.813  0.0384  0.0525  0.0374
15891W        W16091  11.917   0.188   6.065 -0.1292  0.1128  0.1503
15892W        W16092   6.219  13.841   0.767 -0.1405 -0.0201 -0.0634
15893W        W16093   7.104  14.025  10.868 -0.0953  0.0857  0.1615
15894W        W16094  13.998   6.360   6.196 -0.1392 -0.0788 -0.0668
15895W        W16095  13.144   5.197  13.164 -0.2219 -0.1340 -0.3084
15896W        W16096   5.977   6.176   2.476 -0.1517  0.1646  0.1974
15897W        W16097  14.254   4.265   0.462  0.2442 -0.0405 -0.2351
15898W        W16098   7.440  13.066   0.158 -0.0240  0.0556 -0.2572
15899W        W16099   8.002   4.088  13.103  0.0260 -0.0553  0.2914
15900W        W16100  12.268  13.127  10.452 -0.0990 -0.2201  0.4997
15901W        W16101   5.548   9.376   8.978 -0.0348  0.2560  0.0589
15902W        W16102   2.261   8.453   3.373 -0.2730  0.0863  0.0714
15903W        W16103   9.092  12.541   9.016 -0.0426 -0.0147 -0.0173
15904W        W16104   6.810  11.265  13.886  0.1367 -0.0197 -0.1299
15905W        W16105  13.711  11.957   0.348 -0.3393 -0.1757  0.1450
15906W        W16106   5.549   7.417   5.578 -0.3458  0.2477  0.2721
15907W        W16107   7.389  10.261   2.957  0.3632 -0.0413 -0.2484
15908W        W16108   6.049   5.717  13.559  0.0095 -0.3517 -0.2949
15909W        W16109   2.006   9.587   6.763 -0.2062 -0.1170 -0.1643
15910W        W16110   4.729  10.060  15.069  0.2753  0.1046 -0.0185
15911W        W16111   3.528  12.738   1.147  0.0716 -0.2833  0.1778
15912W        W16112  12.837   5.508  14.875 -0.0191  0.2107  0.0413
15913W        W16113   5.223   6.687   7.062  0.1130 -0.2662 -0.2299
15914W        W16114  10.811  14.501   1.277  0.1104 -0.0218  0.0355
15915W        W16115   3.747  14.019  11.745  0.0685 -0.0999  0.0981
15916W        W16116   7.109   6.470  10.678 -0.0247  0.0294 -0.0826
15917W        W16117   5.978  10.328  13.564 -0.1697 -0.0988 -0.1197
15918W        W16118   3.727  14.964   1.535  0.0124  0.1508 -0.3052
15919W        W16119   6.502   8.142   2.992 -0.2128  0.0548  0.0720
15920W        W16120  11.963   3.944   3.276  0.0635 -0.1734  0.2895
15921W        W16121   0.495  12.276  12.978  0.0011  0.1196  0.0192
15922W        W16122   9.630  13.824   9.426 -0.0104 -0.0926  0.0250
15923W        W16123   7.614   1.657   2.858  0.0772 -0.0503 -0.0506
15924W        W16124   8.053   5.213   8.169 -0.0533  0.5013  0.1265
15925W        W16125   2.660   3.942   0.653  0.0103 -0.0100 -0.2612
15926W        W16126   7.442   3.480   4.961  0.5117  0.0960 -0.2612
15927W        W16127   9.528  12.316  13.117  0.1426 -0.3251 -0.2094
15928W        W16128   4.281   7.957  14.646 -0.1071 -0.1630 -0.3195
15929W        W16129  11.078   8.324  10.517  0.0093  0.0910 -0.1215
15930W        W16130   9.247  10.990   6.063 -0.1492 -0.1084 -0.1648
15931W        W16131   3.840   7.838  12.907  0.1744 -0.0452 -0.2356
15932W        W16132   8.996   5.738  10.079  0.0385 -0.0033 -0.3091
15933W        W16133   1.497   4.141   6.411  0.0933  0.1712  0.2327
15934W        W16134  10.049   2.704  13.745  0.2965 -0.1979 -0.0059
15935W        W16135   3.773   1.433  12.511  0.3046 -0.2599 -0.1968
15936W        W16136  12.943  13.914   2.344  0.0990 -0.3183 -0.0483
15937W        W16137   9.904   0.298   2.811 -0.0708 -0.2200 -0.0001
15938W        W16138   8.724   5.321  11.955  0.0392  0.0258  0.0440
15939W        W16139   7.619   6.693   3.247 -0.0883  0.1369 -0.0386
15940W        W16140   8.548   7.318   9.354 -0.2026  0.0420  0.2526
15941W        W16141  14.735   1.803   2.306 -0.0261 -0.0333 -0.3616
15942W        W16142   9.394   4.174  11.823  0.2898  0.2769 -0.1757
15943W        W16143  14.673   7.533   6.073  0.0692  0.3454 -0.2412
15944W        W16144  14.001   8.858   4.295  0.1064 -0.2047 -0.1042
15945W        W16145  12.497  11.584   5.941  0.3819  0.0832 -0.4171
15946W        W16146   9.001  15.141   0.553  0.1127 -0.0013 -0.1764
15947W        W16147   0.781   6.064   9.015 -0.1221  0.4973 -0.1201
15948W        W16148   9.915   1.473   1.636 -0.0983 -0.2366  0.1730
15949W        W16149   7.977   3.970   4.663  0.0049 -0.0116 -0.0709
15950W        W16150  10.680  13.859   5.777  0.0751  0.2394 -0.0674
15951W        W16151   8.873  14.066   6.795 -0.0908 -0.1390  0.1216
15952W        W16152   6.764   2.004  11.008 -0.1456  0.0297  0.1939
15953W        W16153   7.869   3.751  10.317  0.0153  0.2922 -0.1015
15954W        W16154   5.475  12.470   1.914  0.1026  0.1368  0.1311
15955W        W16155   5.272   8.166   1.433 -0.2406 -0.0206 -0.1264
15956W        W16156   0.893   8.305   0.263 -0.0079 -0.2761  0.0026
15957W        W16157   2.206  13.701  12.358 -0.4351  0.0899  0.0416
15958W        W16158  10.897  15.066   1.382  0.0079  0.0769  0.1610
15959W        W16159   0.801   8.805   4.754 -0.1994 -0.0601 -0.0589
15960W        W16160  12.430   6.714  14.434 -0.4176  0.0838 -0.4646
15961W        W16161   0.886   4.617   2.801 -0.1341 -0.1968 -0.1449
15962W        W16162  12.393   2.660  12.961  0.0506 -0.2697  0.0064
15963W        W16163   7.011  10.620   3.511 -0.0734 -0.3586  0.3448
15964W        W16164  10.909   9.176   8.231  0.0993  0.0826  0.2572
15965W        W16165   8.340   0.880   1.747  0.0371  0.1308 -0.0498
15966W        W16166   7.220   8.109  12.309  0.0293  0.1437  0.0516
15967W        W16167  12.787   1.962   1.915 -0.3741  0.0220  0.0307
15968W        W16168   4.974   7.372   9.041 -0.0607 -0.2945  0.0456
15969W        W16169   3.308   4.550   9.928  0.1453 -0.1909  0.0790
15970W        W16170  10.671  14.462   8.515  0.1879 -0.1886 -0.0643
15971W        W16171   2.070  11.602   9.807  0.0026 -0.0857 -0.1110
15972W        W16172  13.419   7.626   0.874 -0.0649  0.1411 -0.0260
15973W        W16173   8.073   7.785  13.954 -0.1165  0.0163 -0.1165
15974W        W16174   4.736   3.508   1.976 -0.2656 -0.3409  0.1498
15975W        W16175  13.385  12.843   7.739 -0.0956 -0.0918  0.0195
15976W        W16176  14.291   7.650   7.597 -0.0423  0.1377 -0.2324
15977W        W16177   7.095   7.180   1.586  0.2929 -0.0595  0.0422
15978W        W16178   9.826  11.967  10.480 -0.2452 -0.0807 -0.0045
15979W        W16179   6.932   3.669  13.271  0.1779  0.2011  0.1544
15980W        W16180   3.722  10.539   2.495 -0.0349 -0.0908 -0.3304
15981W        W16181   4.158   5.274   6.851  0.0851 -0.1868 -0.0595
15982W        W16182   6.580   3.195   7.873  0.0735 -0.0366  0.0259
15983W        W16183   3.640  12.036   0.977  0.1085 -0.3399  0.2002
15984W        W16184   3.326  13.796   3.886  0.0737 -0.0848  0.1286
15985W        W16185   1.247   6.393   6.577  0.1137 -0.0974 -0.1488
15986W        W16186  12.833  11.794  14.897  0.0200  0.2138 -0.0841
15987W        W16187   4.109   3.849   5.942 -0.0590  0.1045 -0.0421
15988W        W16188  11.732   9.247   2.439 -0.0635  0.0584 -0.0617
15989W        W16189   2.249   5.597   0.360 -0.0235  0.2060  0.2062
15990W        W16190   2.663   4.431   0.575 -0.1728  0.0285  0.1408
15991W        W16191  14.366   7.861   1.551  0.1307  0.0132  0.2866
15992W        W16192  14.700  13.302   9.457 -0.0794 -0.2304  0.0802
15993W        W16193   7.151   9.131   1.961 -0.3435  0.2868 -0.1422
15994W        W16194   0.379   2.303   9.484  0.3515  0.0206  0.1342
15995W        W16195  14.429   8.957  11.230 -0.0961 -0.2293 -0.0070
15996W        W16196  10.083   8.008   7.953 -0.0384  0.0881  0.1955
15997W        W16197   5.426   2.949   5.833  0.2192  0.2491  0.2202
15998W        W16198   2.640   0.722   9.246 -0.1605  0.4572 -0.2065
15999W        W16199  10.982  14.252  13.698 -0.0036  0.4984 -0.1376
16000W        W16200   6.890   1.335   3.422 -0.1241 -0.1728 -0.0115
16001W        W16201  13.190   2.290   0.371 -0.0933  0.1321  0.0445
16002W        W16202  10.026   4.804  12.921  0.2632 -0.2550  0.1913
16003W        W16203   9.884   4.446   8.112  0.0252  0.1901 -0.1778
16004W        W16204  11.683   9.976  15.188 -0.1195  0.0845  0.1913
16005W        W16205  11.689   7.222   6.739  0.1999  0.0016  0.0058
16006W        W16206   9.989  10.952   3.717 -0.2990 -0.0032 -0.2452
16007W        W16207  12.434   4.919   7.799 -0.0959 -0.1522  0.0181
16008W        W16208   8.155   3.963   7.152  0.1358  0.3338 -0.1944
16009W        W16209  11.826   7.791   7.041  0.1115 -0.1576  0.2322
16010W        W16210   2.746  14.531   8.778 -0.0650 -0.2535 -0.1084
16011W        W16211   9.028   6.659   6.545 -0.2242  0.0502  0.0324
16012W        W16212   7.874   6.897  11.796  0.1224 -0.0097 -0.1598
16013W        W16213   8.744   3.494   5.006 -0.1158  0.1887 -0.1139
16014W        W16214   3.036  10.835   7.329 -0.0283  0.0827  0.0800
16015W        W16215  12.193   5.425   2.122 -0.2784 -0.2357 -0.1995
16016W        W16216   7.911  11.193  14.571 -0.0649 -0.0856 -0.3284
16017W        W16217   8.481  12.433   0.232  0.0348 -0.0405 -0.0127
16018W        W16218   7.671   9.742   3.424  0.3030 -0.0712  0.2616
16019W        W16219   4.428   3.644   1.620 -0.1356 -0.0463 -0.2096
16020W        W16220   1.983  12.265   1.132  0.1217  0.4622 -0.2161
16021W        W16221  14.921   8.592   5.265 -0.0472 -0.0020  0.2652
16022W        W16222   1.388   8.951   6.165 -0.1465  0.0810  0.1468
16023W        W16223   9.247   3.373   9.665  0.0200  0.1602  0.2689
16024W        W16224   8.161   1.389   9.531  0.2727  0.0846 -0.1830
16025W        W16225  13.625  12.643   0.373  0.1747 -0.1578 -0.1580
16026W        W16226   5.722  11.775  14.410  0.2000 -0.2186 -0.1832
16027W        W16227  11.179   9.142   7.789  0.1779 -0.1738  0.0921
16028W        W16228  12.042   4.566   1.576  0.0497 -0.0105  0.2064
16029W        W16229   1.422   7.052  11.080 -0.2646  0.1874  0.2844
16030W        W16230   6.959  10.479   2.817  0.1442 -0.2847 -0.1725
16031W        W16231   8.363   5.869   0.810  0.1331 -0.0900  0.1623
16032W        W16232  13.155   9.945   6.229  0.0682 -0.1593 -0.2785
16033W        W16233   7.649   1.460   8.762 -0.2132 -0.1870  0.1643
16034W        W16234  10.703   0.533   0.065 -0.0344  0.2521  0.0640
16035W        W16235   6.670  14.354   8.274 -0.2458  0.0391 -0.1200
16036W        W16236   9.634  10.303   5.004  0.0923  0.0312 -0.1563
16037W        W16237  14.600  11.053  11.477  0.1324  0.1446  0.1804
16038W        W16238   0.607   7.729   7.549 -0.2223 -0.0484 -0.0655
16039W        W16239  14.212   4.207   2.196 -0.2894  0.0296  0.4326
16040W        W16240  13.206  10.297   5.194 -0.1777  0.1061 -0.1406
16041W        W16241  12.795   7.452  14.405  0.0497 -0.1091 -0.2320
16042W        W16242  14.548   1.083   8.511 -0.4848 -0.0664 -0.0125
16043W        W16243   4.437  11.069  14.393  0.3794 -0.0757 -0.0594
16044W        W16244   6.450   3.441   2.424  0.1954 -0.1757  0.2113
16045W        W16245  10.393  10.610   1.289  0.5432 -0.0830 -0.1355
16046W        W16246  12.483   7.907  12.240 -0.0531  0.1873 -0.1395
16047W        W16247   0.138  13.773   5.685  0.2297  0.1008  0.2225
16048W        W16248   6.239  14.534   5.961  0.3612 -0.0661 -0.1025
16049W        W16249   7.731   9.534   2.103 -0.1535 -0.1216 -0.0099
16050W        W16250  10.625   7.332   9.915 -0.0146  0.1614 -0.1841
16051W        W16251  12.177  11.525   6.997 -0.0294 -0.3620 -0.1129
16052W        W16252   3.579   2.658   1.508 -0.0485  0.0658 -0.1525
16053W        W16253   1.012   9.218   4.989 -0.1761  0.1127 -0.2280
16054W        W16254   0.728   4.223  12.520  0.0456  0.0507 -0.1110
16055W        W16255   9.800  12.207   0.064  0.1098  0.1604 -0.0285
16056W        W16256  10.116  12.470   4.153 -0.4755  0.0509  0.0442
16057W        W16257  13.127   6.344   1.227 -0.0747  0.3565 -0.1585
16058W        W16258   6.303   2.766   4.361 -0.1226 -0.2685 -0.2147
16059W        W16259   3.668  13.793   5.796 -0.0782 -0.1464  0.2799
16060W        W16260   0.997  11.057  10.498 -0.1535  0.1957  0.3244
16061W        W16261   6.590   9.352   0.150 -0.0853  0.1862  0.3732
16062W        W16262   2.468   7.462   5.336 -0.2122  0.2641  0.4215
16063W        W16263  14.439   2.351   1.043  0.0613  0.1087  0.2080
16064W        W16264   4.451  10.176   8.472  0.1158 -0.1487  0.1015
16065W        W16265  13.974   5.584   2.961  0.1370 -0.0558  0.1989
16066W        W16266  10.207   7.374  13.491  0.0136  0.0201  0.1027
16067W        W16267  11.636   4.581  11.696 -0.1142 -0.1711 -0.0842
16068W        W16268   7.777  14.328   7.999  0.2172 -0.0609  0.1464
16069W        W16269   1.167  14.340   6.861 -0.1174 -0.0299 -0.1212
16070W        W16270  11.443   2.827   4.404 -0.0651 -0.3681  0.0968
16071W        W16271  10.426   5.298   8.338 -0.0880 -0.0887  0.0550
16072W        W16272   6.815   4.532  14.990  0.1582  0.0612 -0.2518
16073W        W16273   8.281   2.492   3.653 -0.1060  0.0256 -0.1110
16074W        W16274  11.790   0.181  15.109  0.2471  0.0333  0.1360
16075W        W16275   8.576   3.481   5.452  0.2681  0.1741 -0.0950
16076W        W16276  11.895   3.419  12.832  0.1900 -0.1269 -0.0019
16077W        W16277  11.327   8.981   4.180 -0.1001 -0.0233  0.0754
16078W        W16278  11.844   0.003   2.710  0.0759  0.1850  0.2980
16079W        W16279   2.925  10.064   9.482 -0.2555 -0.1847 -0.0059
16080W        W16280   4.522   4.187   7.890  0.2045  0.2936 -0.0077
16081W        W16281   6.478   6.686   5.338 -0.2407  0.3589  0.3934
16082W        W16282   9.126   7.750   0.740  0.0344  0.2747 -0.0354
16083W        W16283   5.701   3.808  10.063  0.0525 -0.4328  0.2384
16084W        W16284   2.176   2.561   1.266 -0.2276  0.2781 -0.0694
16085W        W16285   9.316   4.779   9.940 -0.0393  0.0970  0.2056
16086W        W16286   0.501   2.814   6.019  0.1210  0.1216 -0.1610
16087W        W16287   4.280   4.197   4.081 -0.0887 -0.1219 -0.0818
16088W        W16288   1.036   4.006   1.758  0.0421  0.0791 -0.1578
16089W        W16289   8.237   6.544   0.040  0.0749 -0.0455  0.2238
16090W        W16290   8.129   4.585  10.835 -0.1285 -0.0940  0.2672
16091W        W16291  13.345   6.560  10.377  0.0476  0.1016 -0.1047
16092W        W16292   4.755   4.297   5.450  0.3105  0.1148  0.0305
16093W        W16293   6.747   1.536   5.459  0.0434 -0.1001 -0.1178
16094W        W16294  10.800   3.774  12.976  0.0939 -0.0734 -0.2893
16095W        W16295   7.414  11.980   1.291  0.4675 -0.0654 -0.2445
16096W        W16296   6.948   5.425   8.342 -0.1341  0.2324  0.0603
16097W        W16297   9.463   5.737   7.181  0.4327 -0.1891 -0.0154
16098W        W16298   2.202   8.400   6.942  0.0170 -0.0074  0.0019
16099W        W16299   2.214   7.781   3.762 -0.2926  0.0148  0.1527
16100W        W16300   0.476  13.682   3.034 -0.0004  0.0585  0.1918
16101W        W16301   6.976  14.581   2.809  0.1810  0.0868 -0.1468
16102W        W16302  13.701   6.047   9.619 -0.1020 -0.0495 -0.1182
16103W        W16303  13.336   1.659  11.927 -0.0101  0.1912 -0.1345
16104W        W16304  12.047   7.615   2.676  0.0858 -0.0594 -0.1409
16105W        W16305   7.506   6.516   4.947 -0.2562  0.1081 -0.1536
16106W        W16306  11.975   5.489  13.792  0.0452 -0.1429  0.3101
16107W        W16307  11.034   6.737   4.434  0.4248  0.0340 -0.2177
16108W        W16308  14.185  10.721  11.431 -0.3768  0.0077  0.1594
16109W        W16309   9.848  10.207   8.053  0.0104  0.2480  0.2194
16110W        W16310  10.742   4.877   2.769  0.0939  0.1592 -0.0733
16111W        W16311  11.296  13.103   9.013 -0.0071  0.0588 -0.0077
16112W        W16312   4.789   3.178   9.861 -0.0808  0.0114 -0.0186
16113W        W16313   1.252  11.552  10.481  0.4118 -0.0711  0.0249
16114W        W16314  14.949  10.139   1.048 -0.1749  0.2215  0.0735
16115W        W16315   3.075   3.860   5.413  0.0580 -0.2261 -0.3060
16116W        W16316  14.912  10.904   9.151 -0.1162  0.1489 -0.0675
16117W        W16317   1.528   2.710   1.923 -0.2975  0.0055  0.0264
16118W        W16318  13.413   0.360   0.536  0.4878  0.1643 -0.0218
16119W        W16319  13.889   3.900   0.129 -0.0484  0.0734  0.1342
16120W        W16320   4.399   7.970   4.627  0.0421 -0.0698  0.3170
16121W        W16321  12.049   4.450  11.489  0.0119 -0.2060  0.2788
16122W        W16322   4.611   8.804   8.975 -0.0287  0.0533 -0.0492
16123W        W16323   4.063   5.139   5.874  0.0041  0.3984  0.0877
16124W        W16324   7.614   4.343   4.672 -0.0500  0.2223 -0.0287
16125W        W16325   6.026   3.253  12.039 -0.0952 -0.2046 -0.2522
16126W        W16326  13.821   5.731  11.967 -0.1014  0.0273 -0.2492
16127W        W16327  12.332   8.102   8.026 -0.3410  0.1399 -0.0547
16128W        W16328  10.098  15.018  12.544  0.1151  0.0154 -0.0780
16129W        W16329  13.629   9.640  12.847  0.0381  0.5271  0.0409
16130W        W16330  14.864   2.619  14.515 -0.1115 -0.1742 -0.0947
16131W        W16331   7.989   4.094   2.796  0.1909  0.3414  0.0746
16132W        W16332   0.015   3.299   0.578 -0.2036  0.0936  0.1343
16133W        W16333   5.028   8.399   4.150  0.3855  0.0737  0.0583
16134W        W16334  11.023   6.114   2.627  0.1550  0.0847  0.3360
16135W        W16335   7.346  10.910   3.796 -0.0201  0.0276  0.4796
16136W        W16336  10.545  13.031  13.307  0.0016  0.2464  0.2221
16137W        W16337   7.977   1.633   4.077  0.0473 -0.2299 -0.1962
16138W        W16338   7.022   3.922   9.311 -0.2025 -0.4100  0.2552
16139W        W16339   9.161   5.780   3.709 -0.1753 -0.1752 -0.2906
16140W        W16340   9.509   5.962  11.816  0.1113 -0.4668 -0.2262
16141W        W16341   6.108   7.209  11.189 -0.2085  0.0422 -0.0821
16142W        W16342   4.838  12.608   0.079 -0.2257 -0.1477  0.0619
16143W        W16343   4.159  12.705   4.787 -0.0719 -0.0074 -0.1710
16144W        W16344   5.767   7.025   4.202 -0.2071 -0.0654 -0.1121
16145W        W16345  12.937   5.832   7.262 -0.0712  0.2361 -0.0874
16146W        W16346   9.129   9.738   1.248 -0.1641 -0.1802  0.1560
16147W        W16347   9.949   1.652   5.489  0.0345 -0.1156 -0.0309
16148W        W16348   6.973   1.226   6.256 -0.1032 -0.1310  0.1018
16149W        W16349  12.904   4.303   8.451  0.0664  0.0926 -0.0407
16150W        W16350   4.256   4.314  11.249 -0.1532 -0.3195  0.0723
16151W        W16351   1.112   9.904   2.181 -0.1525  0.1275 -0.0517
16152W        W16352  14.123   5.717   7.530  0.0742 -0.0229  0.0977
16153W        W16353   7.922   6.150   4.694 -0.2526 -0.1285 -0.3488
16154W        W16354  13.575   8.530   3.047 -0.1095 -0.1782 -0.2548
16155W        W16355   9.389   0.114  10.362 -0.1394  0.0956 -0.0145
16156W        W16356   0.701  10.082  13.179  0.1727 -0.1728  0.2992
16157W        W16357   9.066  12.061  14.341  0.1004  0.0525 -0.2401
16158W        W16358   9.690   3.634   9.439 -0.0841 -0.2463 -0.1636
16159W        W16359  12.029   3.972   1.430  0.1190 -0.0079 -0.0168
16160W        W16360   7.030   3.359   5.404  0.1192 -0.2969  0.0388
16161W        W16361  12.644   5.566   6.907 -0.2512 -0.1847 -0.1895
16162W        W16362  13.858   5.578   0.981  0.0105 -0.0003 -0.0786
16163W        W16363   2.129   4.107   3.593  0.2411  0.1947  0.0867
16164W        W16364   4.876  11.911  12.923  0.1916 -0.0504 -0.0094
16165W        W16365   1.538   4.725  13.945 -0.1626  0.3097 -0.3079
16166W        W16366   0.833   0.872   1.050 -0.2462  0.1727 -0.1997
16167W        W16367   0.064  15.087   8.198  0.2884  0.0092  0.1081
16168W        W16368  11.016   3.023   8.060  0.3071  0.1470  0.1261
16169W        W16369   4.345   6.772  13.875 -0.0820 -0.0492 -0.2006
16170W        W16370  14.494   0.526   2.349 -0.0164 -0.1501  0.1164
16171W        W16371  10.795   9.368   1.837 -0.1500  0.2890  0.1457
16172W        W16372   8.803  12.482   2.455  0.0215  0.0279  0.1120
16173W        W16373  13.626   7.219   3.640  0.0602  0.2452  0.0113
16174W        W16374  11.786   0.765   5.945 -0.0126  0.3053 -0.3367
16175W        W16375  13.200   3.699   3.970 -0.0222 -0.1569 -0.0490
16176W        W16376   6.948   1.810  13.929  0.1535 -0.0323 -0.2714
16177W        W16377   4.901   9.425   3.931  0.0060  0.1472 -0.3170
16178W        W16378  12.123  10.356   5.392  0.3361  0.3367  0.0404
16179W        W16379   6.709   6.697   0.972 -0.1915 -0.1316 -0.0850
16180W        W16380   4.468  14.525   0.454  0.1684 -0.0583  0.3561
16181W        W16381  12.552   7.510   7.511  0.1877  0.2374  0.1356
16182W        W16382   9.038   5.206   5.155 -0.2351  0.1002 -0.1065
16183W        W16383   9.121   5.372   7.481  0.1844 -0.2695 -0.0646
16184W        W16384   2.535   7.142   4.606 -0.1927  0.0797  0.3732
16185W        W16385   1.004   4.899  12.147 -0.0999  0.4148 -0.1669
16186W        W16386   9.373  11.952   1.835 -0.1279  0.4368 -0.1943
16187W        W16387   9.321   4.172   4.629 -0.0702 -0.3351 -0.3716
16188W        W16388   9.533   7.052  13.108  0.3161 -0.1280  0.0343
16189W        W16389   4.166   5.846   6.934  0.1013  0.2967  0.0042
16190W        W16390  13.943   3.991  13.617 -0.2320 -0.0437 -0.1932
16191W        W16391   9.267   5.444   6.261  0.1548 -0.1300 -0.0702
16192W        W16392   9.900   1.303   9.897 -0.0901 -0.1634  0.1721
16193W        W16393   8.072   7.075   8.056  0.1920 -0.2923 -0.2229
16194W        W16394   3.215  13.234   4.046  0.2488 -0.2066  0.0457
16195W        W16395   6.540  13.601   5.197  0.2277  0.0310  0.3513
16196W        W16396   6.313   2.035   3.726  0.3151  0.0030 -0.1353
16197W        W16397  10.959   3.111   4.524  0.1162 -0.2821 -0.1650
16198W        W16398  12.530   4.039  12.145  0.1704  0.2251  0.2138
16199W        W16399   0.187   2.353   1.974  0.1836  0.1772  0.0930
16200W        W16400   3.663   4.938   8.455 -0.1140 -0.1272  0.0556
16201W        W16401   7.476   8.252   1.773  0.0372 -0.0916 -0.3063
16202W        W16402  11.818  12.893  11.564 -0.3920  0.0626  0.0492
16203W        W16403   5.858   1.118  14.254 -0.1972 -0.1962  0.0098
16204W        W16404  10.956   9.791   1.654  0.0600 -0.1192 -0.0615
16205W        W16405   6.378   8.439   5.222 -0.1669  0.0577 -0.3438
16206W        W16406   6.710   5.940  13.962 -0.1271 -0.2235  0.1907
16207W        W16407  11.571  13.941   6.701  0.2435 -0.1763  0.1538
16208W        W16408  10.691  13.223   4.383  0.1561 -0.1461  0.0371
16209W        W16409   8.475   6.604   1.408  0.0143  0.3872 -0.3730
16210W        W16410  10.590   4.924  13.796 -0.2405  0.1425  0.3222
16211W        W16411   1.026  11.835   5.403  0.0887 -0.0750 -0.2971
16212W        W16412  10.907   0.079  12.084 -0.0291  0.1963 -0.2375
16213W        W16413   6.231   9.782  12.438 -0.2663  0.3149 -0.0231
16214W        W16414   7.735  11.341   2.394 -0.2179  0.1875 -0.2009
16215W        W16415  10.631  13.923   1.229  0.2333 -0.4221 -0.1229
16216W        W16416  10.781   4.723   0.883 -0.0208  0.0021  0.0741
16217W        W16417   7.686  13.210   1.597 -0.3767 -0.1518  0.1663
16218W        W16418   0.724   7.038   1.912 -0.4839  0.1584  0.1578
16219W        W16419  11.177  14.720   9.515 -0.1551 -0.0117  0.1014
16220W        W16420   9.148  13.199  10.679 -0.0959 -0.1125 -0.3086
16221W        W16421   4.180   5.866  13.900 -0.0215  0.0220 -0.0183
16222W        W16422   6.150   9.149   3.602  0.0199  0.2580  0.0831
16223W        W16423  14.751   6.859   5.803  0.2153 -0.1597  0.0181
16224W        W16424   9.488   2.216   9.562 -0.0750 -0.2443 -0.2060
16225W        W16425   2.219  13.726   6.482 -0.1085  0.2602 -0.1665
16226W        W16426   8.360   3.330   9.466 -0.0012 -0.0651 -0.0599
16227W        W16427   9.324   4.212   0.888 -0.1754 -0.0841  0.0859
16228W        W16428   4.475   1.583   3.380  0.1590 -0.0120  0.5806
16229W        W16429  14.674   1.594   3.303  0.3297 -0.1341 -0.3274
16230W        W16430  11.482  14.856   2.451  0.0315 -0.0155 -0.2212
16231W        W16431   9.938   6.600   6.618  0.0290 -0.0043 -0.2874
16232W        W16432   7.543   8.916  15.082  0.0807  0.1732 -0.0417
16233W        W16433  12.205  13.122  11.917  0.4136  0.0926 -0.0229
16234W        W16434   1.964  10.685  13.724  0.1560 -0.0263  0.1124
16235W        W16435  11.361   4.368   6.762  0.0093  0.0624 -0.3639
16236W        W16436   1.126   2.801   4.949 -0.0193 -0.1226  0.0160
16237W        W16437   8.053   7.838   9.034  0.0590 -0.0579  0.0656
16238W        W16438   7.572  12.573   4.479 -0.1100 -0.1642  0.0992
16239W        W16439   9.413   3.764   6.328  0.2010 -0.1249  0.0097
16240W        W16440   2.817   7.297   5.644  0.1063 -0.1287  0.2106
16241W        W16441   6.047  13.963   6.534 -0.0030  0.1807 -0.1478
16242W        W16442  14.103   5.118   7.681 -0.1308 -0.0003  0.1651
16243W        W16443   4.901   4.871  14.950 -0.1289 -0.0266  0.0600
16244W        W16444   6.270   8.373   7.147  0.2678 -0.1123  0.2187
16245W        W16445  10.326   9.297   9.036 -0.2470  0.1425  0.1743
16246W        W16446   1.238   4.133  12.306 -0.1306 -0.0401  0.0674
16247W        W16447  14.777   9.691   0.031  0.1313  0.4027 -0.1697
16248W        W16448  13.728   2.077   1.514  0.2076 -0.0732 -0.1299
16249W        W16449   5.403   6.300   9.697 -0.0664  0.1392  0.1271
16250W        W16450   4.290   2.688   4.883  0.2469 -0.0154 -0.0585
16251W        W16451  13.568  11.261   8.078 -0.0231  0.1747 -0.1410
16252W        W16452   1.070   6.745   0.874 -0.0504  0.3082  0.3555
16253W        W16453  13.321   3.386   3.609  0.0815 -0.1249  0.0402
16254W        W16454   6.781   6.894  13.833  0.1642 -0.0380 -0.3094
16255W        W16455   5.757   5.600   9.236  0.3390  0.1186  0.0814
16256W        W16456  12.797   8.955   8.990  0.1238  0.1506  0.0780
16257W        W16457   2.965  13.594   5.122 -0.0187 -0.1745  0.3161
16258W        W16458   8.499   6.756   4.832 -0.0014 -0.0613 -0.1070
16259W        W16459  13.657  10.097   5.930 -0.0286 -0.1684  0.4575
16260W        W16460  10.059   3.669  11.318  0.0983  0.0302  0.1168
16261W        W16461  10.139   7.157   3.420 -0.1147 -0.0394 -0.1131
16262W        W16462   1.106   2.415   3.288 -0.1326  0.1894 -0.1117
16263W        W16463   7.725   3.741  12.750  0.0131 -0.3036  0.2919
16264W        W16464   0.578   5.800   5.131  0.1159 -0.0179 -0.2266
16265W        W16465  13.060  11.481  13.898 -0.1349  0.1511  0.1534
16266W        W16466  11.794   6.784   4.111  0.0010  0.3426  0.2834
16267W        W16467  10.118  11.452   8.583  0.1335  0.0912 -0.1942
16268W        W16468  11.408  13.617  10.922 -0.0084 -0.0341  0.1749
16269W        W16469   2.392   0.731   4.069 -0.0184  0.2335  0.4095
16270W        W16470  11.267  12.820  12.231 -0.2054 -0.1394 -0.1814
16271W        W16471   3.706   6.350   5.968  0.1188  0.0671 -0.0539
16272W        W16472   3.808   5.404   8.284  0.0148  0.0274 -0.0919
16273W        W16473  12.724   4.855   5.405 -0.1201  0.3630 -0.0989
16274W        W16474   8.034  12.618   5.236 -0.1139  0.2744 -0.1596
16275W        W16475   4.189   4.314   2.259 -0.0145  0.1874  0.0858
16276W        W16476  10.910   4.657   4.210  0.3102  0.1817  0.2241
16277W        W16477   3.841   9.597   9.904 -0.0756  0.2571 -0.1790
16278W        W16478  12.255   9.504  11.947 -0.0517 -0.0506  0.0596
16279W        W16479   0.199   6.263   5.069  0.2854  0.2497 -0.1322
16280W        W16480   7.858  14.553   1.588 -0.0185  0.0776  0.3366
16281W        W16481   9.184   0.045   7.998  0.2106 -0.0027 -0.1933
16282W        W16482   7.840   4.597  14.023  0.1399  0.0617 -0.0857
16283W        W16483  10.328   4.336   6.722  0.1045  0.1195 -0.1288
16284W        W16484   8.832   3.986   4.786  0.5676  0.1328  0.0149
16285W        W16485   5.012   2.195   6.721  0.0228  0.2776  0.0957
16286W        W16486   6.582   6.990  11.393 -0.3073  0.0942 -0.0724
16287W        W16487  12.918   4.695  13.183 -0.0040  0.0230 -0.1448
16288W        W16488   0.474   5.496   1.181 -0.1169  0.2418  0.0986
16289W        W16489  14.217   9.867  13.153 -0.0535  0.2027  0.0617
16290W        W16490  11.104   1.992   5.553  0.0406 -0.0446 -0.0525
16291W        W16491   5.951   0.364  13.523 -0.1115 -0.0980 -0.2081
16292W        W16492   8.753   0.799   1.273 -0.0966 -0.0474  0.5801
16293W        W16493  11.979  13.576   8.385 -0.1710 -0.1243 -0.2024
16294W        W16494  13.814  13.060  10.362  0.0968  0.0724 -0.0161
16295W        W16495   5.296   5.114   6.246  0.1679  0.1619  0.1174
16296W        W16496   5.976  13.349   0.967 -0.1264 -0.0874  0.0710
16297W        W16497   8.939  12.379   4.113 -0.1107  0.0506 -0.2347
16298W        W16498  10.572   1.178  10.032 -0.3198  0.0499 -0.0027
16299W        W16499   4.956   9.486  10.213 -0.1254  0.2253  0.0339
16300W        W16500   5.626   5.506   0.406  0.4275  0.0547  0.0263
16301W        W16501   7.749   5.419   0.167  0.0883 -0.3321 -0.1228
16302W        W16502   6.489   7.233  14.967 -0.0217  0.0638 -0.0096
16303W        W16503  12.911  11.045   3.822  0.2960 -0.1143  0.0886
16304W        W16504   3.841   2.307   4.580 -0.2825  0.5220 -0.1915
16305W        W16505  10.061  14.565  15.005 -0.2376  0.1695 -0.1312
16306W        W16506   9.494  11.609   1.452  0.0658 -0.3976  0.1822
16307W        W16507   6.345   7.057   2.725 -0.0047 -0.3878 -0.1129
16308W        W16508   6.305   0.137   3.466  0.0660  0.2930 -0.3504
16309W        W16509  11.233  12.319   5.734 -0.2839 -0.1104 -0.1713
16310W        W16510  12.716   8.260   6.586 -0.0091  0.1849 -0.3282
16311W        W16511  11.972   2.778  13.585 -0.2997  0.0347  0.0350
16312W        W16512   0.054   4.684   7.405 -0.0818 -0.0542 -0.3179
16313W        W16513   0.591   0.625   0.674  0.0790  0.1298  0.0234
16314W        W16514  10.778   6.446  11.443  0.1359 -0.1265  0.0783
16315W        W16515   8.098   6.096  13.179  0.0218  0.0963 -0.1801
16316W        W16516  12.449   5.060   8.912  0.0234  0.1038  0.2903
16317W        W16517   0.131  13.150   5.401 -0.0392 -0.1310  0.0602
16318W        W16518  11.471   9.785   1.824  0.0605 -0.4263  0.1331
16319W        W16519  14.694   5.082   3.372 -0.0959 -0.0723 -0.0872
16320W        W16520  11.980   7.630  12.949 -0.0528 -0.1550 -0.0323
16321W        W16521  13.725   0.307   7.808  0.2764 -0.1030 -0.0617
16322W        W16522  10.242  14.202   6.924  0.0772  0.0576 -0.0187
16323W        W16523   5.186   7.234   3.120  0.0571 -0.1120 -0.2391
16324W        W16524   6.901  14.435   6.867  0.1255 -0.2569  0.1518
16325W        W16525  12.874  13.984  12.560 -0.0813  0.1774 -0.1278
16326W        W16526  11.460   0.499  10.054  0.1805 -0.3065 -0.4865
16327W        W16527   9.046  12.558   2.893  0.6002  0.1608  0.0761
16328W        W16528   9.040   4.999  10.891  0.1849  0.0098  0.1026
16329W        W16529   3.876   2.859   1.186  0.2212 -0.1902 -0.0294
16330W        W16530   8.314  12.287  13.406  0.0587 -0.0228  0.0465
16331W        W16531   8.405   7.357   8.606  0.2820 -0.1879  0.4408
16332W        W16532   7.415   7.726   9.804  0.2230 -0.2877  0.2475
16333W        W16533  12.070   7.300   7.713  0.1020  0.1491  0.1188
16334W        W16534   5.414   0.539   9.035  0.0280  0.0641  0.0023
16335W        W16535   1.106   9.186   4.484 -0.1199  0.1925  0.0694
16336W        W16536  10.744   4.540  12.447 -0.0305  0.2034 -0.1006
16337W        W16537   5.179  13.541   2.672  0.1379  0.0368  0.0983
16338W        W16538   8.263   3.819  14.433  0.2284  0.2222  0.1725
16339W        W16539   4.404   9.706  14.002 -0.0756 -0.2644  0.2686
16340W        W16540  11.226  13.003   1.589 -0.1590 -0.2939 -0.0942
16341W        W16541   3.112  11.255   3.197 -0.0483 -0.1372 -0.1513
16342W        W16542  11.275   8.572  10.133 -0.0935 -0.0856 -0.0008
16343W        W16543  10.346   8.655  10.259  0.1956  0.0547  0.1198
16344W        W16544  10.284  10.089   9.155 -0.0896  0.0042 -0.0003
16345W        W16545   4.559   9.617   3.598 -0.0211 -0.1709  0.3963
16346W        W16546   3.414   8.831   3.310 -0.0631 -0.1273  0.0660
16347W        W16547   6.686   0.760   7.609  0.0813  0.0541 -0.0608
16348W        W16548   6.445  10.159   4.238 -0.0586  0.1255  0.0198
16349W        W16549  13.054  14.497  14.798  0.1182 -0.0647 -0.1816
16350W        W16550   5.486   0.020   8.281 -0.4050  0.1004  0.1595
16351W        W16551  15.165   3.988   6.475 -0.1644  0.1273  0.3289
16352W        W16552   5.690  13.423   1.936  0.0376 -0.0494 -0.3180
16353W        W16553   7.180   5.353   4.280  0.0247 -0.1731  0.0193
16354W        W16554  12.184  12.148  11.448  0.1124 -0.0410 -0.1711
16355W        W16555   7.057   6.755   8.806  0.2562 -0.0584 -0.5138
16356W        W16556   4.415   6.255  12.935  0.3382 -0.1876  0.0399
16357W        W16557   9.115   4.096   9.384 -0.3357 -0.1326 -0.2027
16358W        W16558  10.179   2.692   4.254  0.2771 -0.4233  0.2240
16359W        W16559  12.575  11.971   8.902  0.3273  0.0052  0.2699
16360W        W16560  13.293   0.781   3.724 -0.0774  0.1136  0.1241
16361W        W16561   5.333   6.262  11.207  0.3248 -0.1313  0.1329
16362W        W16562   9.263   3.333   5.074 -0.1760  0.0373 -0.0566
16363W        W16563   6.088   3.909  15.099  0.0278 -0.1334  0.1770
16364W        W16564  11.077   5.088   5.580  0.2690 -0.0972  0.0375
16365W        W16565   2.477  12.416  15.036  0.1196  0.1186  0.0287
16366W        W16566  14.412   3.408   7.099  0.0176 -0.4016 -0.0673
16367W        W16567   9.709   4.283   8.702  0.0891 -0.0376  0.1801
16368W        W16568  12.631   8.066   8.952  0.1117 -0.2929  0.0132
16369W        W16569   4.280   8.530   0.037  0.2912 -0.2962 -0.4147
16370W        W16570   4.676   5.353  14.797  0.2483  0.1079  0.0294
16371W        W16571   5.150  13.359   3.165 -0.2343  0.3900 -0.0464
16372W        W16572   8.469   3.154   0.863  0.2479  0.0459  0.2004
16373W        W16573  11.518   6.893   4.494 -0.2659 -0.0118  0.0649
16374W        W16574   8.937   9.023   5.566 -0.2050 -0.1552  0.0360
16375W        W16575  10.594   0.193   7.152 -0.0278 -0.0965 -0.1338
16376W        W16576   6.959  14.106  14.784 -0.1438  0.0668 -0.0054
16377W        W16577   2.719   9.465   7.157  0.0558  0.0920 -0.0381
16378W        W16578  13.225  13.216   5.598  0.0203  0.0354  0.0224
16379W        W16579   9.242   4.206   8.569  0.1671  0.1348 -0.0461
16380W        W16580   6.476   7.351   9.270  0.2069  0.2258  0.2457
16381W        W16581  12.919   5.565   4.343 -0.2082 -0.2915  0.0541
16382W        W16582   1.213  14.434   9.806  0.0647 -0.1242  0.0994
16383W        W16583   8.006   6.595  13.543  0.1651 -0.3002 -0.4257
16384W        W16584   1.450  10.262   4.522  0.1717 -0.0111 -0.2646
16385W        W16585   6.762   4.156   3.455 -0.0254 -0.4456 -0.0481
16386W        W16586  15.049   3.762  10.569 -0.0198 -0.1749 -0.4229
16387W        W16587  10.638   3.607  10.708 -0.1618  0.2908  0.1616
16388W        W16588   4.126  14.147   0.455 -0.2216 -0.1494 -0.2133
16389W        W16589  11.638  14.090   6.185 -0.0256  0.2766 -0.0999
16390W        W16590  13.632   7.154  13.746  0.1766  0.0399 -0.1105
16391W        W16591  11.457  11.094   3.888 -0.2947 -0.1080 -0.2479
16392W        W16592   7.227   1.425  14.279  0.2861 -0.1282  0.1746
16393W        W16593   6.459  13.485   1.106 -0.1806 -0.2574  0.1037
16394W        W16594  11.097   2.046  11.018  0.1545 -0.0721  0.2044
16395W        W16595   9.427   8.870   4.699 -0.0715 -0.2133 -0.2766
16396W        W16596   8.969  11.381  10.394 -0.0567 -0.3730 -0.2261
16397W        W16597   0.808   6.992   6.753 -0.5922  0.2286 -0.2347
16398W        W16598   8.929  12.686  11.596 -0.1325  0.1045  0.0411
16399W        W16599   7.488   7.801   4.730 -0.0509  0.0864  0.2133
16400W        W16600   5.746   7.332   1.615 -0.2731  0.2068 -0.2106
16401W        W16601   3.343   8.878  14.331 -0.0805  0.0021  0.0295
16402W        W16602   4.569   8.349   4.366 -0.2317 -0.0055 -0.1792
16403W        W16603  11.865  10.607  12.074 -0.3010 -0.0458  0.1056
16404W        W16604   9.701  11.580  10.781  0.0107 -0.0900  0.3098
16405W        W16605   5.829   2.577   4.353 -0.0635  0.0372 -0.1122
16406W        W16606  14.452   3.862  11.839  0.0714  0.1069 -0.0898
16407W        W16607  11.570   8.017  10.617  0.0591  0.1463  0.0141
16408W        W16608   2.166  13.469   7.884 -0.0948 -0.4220  0.1806
16409W        W16609   2.646   4.840   2.364 -0.1639  0.1411 -0.0168
16410W        W16610   6.469   2.466   8.337  0.0397 -0.5828  0.0455
16411W        W16611   6.001   7.642  10.997 -0.0998 -0.1185 -0.2629
16412W        W16612   2.687   0.304  11.442  0.1410 -0.0885 -0.3272
16413W        W16613   6.815  14.084   8.664  0.0894 -0.0697 -0.0280
16414W        W16614   8.364  15.164   5.576 -0.2120  0.0769 -0.1867
16415W        W16615   5.079  13.208   6.821 -0.1818 -0.1745 -0.1082
16416W        W16616   5.015   3.209   8.741 -0.0940 -0.0066 -0.1159
16417W        W16617   4.329  11.786  11.922  0.3558 -0.1322  0.1560
16418W        W16618   7.862  10.698  10.223 -0.1210  0.0509  0.1112
16419W        W16619   3.373   8.132  11.505 -0.0277 -0.1490  0.0970
16420W        W16620   6.033   6.686   2.326 -0.0093 -0.0087  0.0685
16421W        W16621   1.603   5.671   6.337  0.1895 -0.2464 -0.2320
16422W        W16622  14.163   5.635   1.901  0.1848  0.1673  0.0831
16423W        W16623  12.721   3.844  13.534  0.0380  0.0745  0.0377
16424W        W16624   6.788   5.085   2.164 -0.4398 -0.2150 -0.0251
16425W        W16625  12.088  11.579   8.904 -0.0321  0.1411 -0.0339
16426W        W16626   9.528   2.169   6.685 -0.1786  0.2690  0.0818
16427W        W16627   0.993   0.761   3.071 -0.0340  0.0763  0.0763
16428W        W16628   6.466   0.427   3.847 -0.1447 -0.0294  0.0496
16429W        W16629   7.280   1.712  12.978  0.1612 -0.1207  0.0306
16430W        W16630   0.755   7.518  12.387 -0.0220  0.0048 -0.3051
16431W        W16631   4.318  12.015   4.966 -0.1218  0.1503 -0.1143
16432W        W16632   5.902  11.367  12.173  0.0678 -0.0351 -0.1496
16433W        W16633  11.767   6.400  12.932 -0.1025  0.0969  0.1962
16434W        W16634  11.755   8.829   8.176  0.0203  0.3944  0.1712
16435W        W16635  12.546   2.022   9.624  0.1198  0.0479 -0.0786
16436W        W16636   5.101  13.170  13.049  0.0664 -0.1219 -0.2598
16437W        W16637   9.878   0.750   9.710 -0.0946 -0.2099  0.1993
16438W        W16638   2.533  12.507   7.607 -0.0108  0.1908  0.0242
16439W        W16639   5.172  13.149   6.337  0.0731 -0.1990  0.3453
16440W        W16640   2.192   1.643  12.038 -0.2001 -0.1941 -0.4043
16441W        W16641  10.312   5.631   5.931 -0.1740 -0.3351  0.0614
16442W        W16642   8.613   6.913  15.115  0.1186  0.0870  0.1752
16443W        W16643  11.746   5.753   2.747  0.2013 -0.3052 -0.0351
16444W        W16644  12.795   8.693  12.810 -0.0606  0.1045 -0.0314
16445W        W16645  13.692  14.517  11.812  0.1763  0.0705  0.0936
16446W        W16646   1.854  15.119   2.173  0.0975 -0.1079  0.1625
16447W        W16647   2.404   9.330   0.244 -0.1941  0.1136  0.1093
16448W        W16648   7.166   6.849   6.040  0.2568  0.2203 -0.2206
16449W        W16649   7.945   0.070   5.964 -0.2473  0.0362  0.2056
16450W        W16650   4.900   0.013  11.848 -0.0292  0.0605  0.0746
16451W        W16651   7.298   7.575   8.643  0.0389  0.0771  0.1514
16452W        W16652  10.040   6.780  10.285 -0.0289  0.1097  0.2113
16453W        W16653   7.413   7.636   6.472 -0.1117  0.2928  0.0911
16454W        W16654  12.573  13.884   4.810 -0.0729 -0.2148 -0.1264
16455W        W16655   7.378   8.380   8.703 -0.2293  0.0401 -0.2456
16456W        W16656   6.020   3.684  13.026 -0.1438  0.0019 -0.1197
16457W        W16657  12.947  10.368   9.179  0.0606 -0.1170 -0.3458
16458W        W16658   1.308  11.871   9.097  0.1747 -0.2258 -0.0562
16459W        W16659  12.202   2.919   1.795  0.0889  0.0692 -0.0668
16460W        W16660   4.678   4.388  14.713 -0.0645 -0.1667  0.0550
16461W        W16661   8.977  10.443   4.360 -0.1893  0.2975  0.1208
16462W        W16662   4.592   6.534   0.738 -0.0845  0.0967  0.0768
16463W        W16663   3.134   0.188  14.910 -0.0732  0.3113 -0.2485
16464W        W16664  12.922   7.473  13.917 -0.3695 -0.0602 -0.2199
16465W        W16665   2.102   2.205  11.928 -0.1512  0.1790  0.2032
16466W        W16666  10.195   2.257   3.597 -0.1502 -0.3881  0.0108
16467W        W16667  12.243   6.613   8.955  0.4351 -0.1613 -0.0987
16468W        W16668   7.807  15.177   9.696 -0.3433 -0.1804 -0.1900
16469W        W16669   6.537   4.154   9.594  0.0442  0.2960  0.3524
16470W        W16670   7.481  10.575   7.299 -0.3093  0.2107 -0.0771
16471W        W16671   8.652   9.143   0.582  0.2188 -0.0602 -0.0250
16472W        W16672  11.096   5.717   4.493  0.0015 -0.2335 -0.0392
16473W        W16673   9.579  11.114   9.519 -0.0098 -0.2121  0.3293
16474W        W16674   8.294  10.374   6.232 -0.2266  0.0984  0.0527
16475W        W16675  10.668   7.133   7.157  0.0014  0.1328 -0.3641
16476W        W16676   9.191   6.095  12.951 -0.0270  0.0143  0.3694
16477W        W16677   7.707   6.727  10.846 -0.0453 -0.1472  0.1333
16478W        W16678   0.353  11.718  11.679  0.0669 -0.2351  0.2893
16479W        W16679   9.096  11.661   7.569  0.3143  0.1452 -0.4414
16480W        W16680  12.330   3.558  12.307 -0.2185 -0.1660  0.1856
16481W        W16681  13.214   5.119  11.062  0.0968  0.0723 -0.0005
16482W        W16682  13.715   2.302   3.624 -0.0439  0.1788  0.0884
16483W        W16683  14.161   3.319  12.549  0.0895 -0.0604 -0.3990
16484W        W16684  11.226  11.857   0.324 -0.3075  0.0486 -0.2428
16485W        W16685   7.476   4.552   3.907  0.2916  0.0351  0.0926
16486W        W16686   6.256   5.650   9.625  0.3261  0.1556  0.2325
16487W        W16687   6.761  10.456  11.821  0.2897 -0.0749  0.1821
16488W        W16688   0.875   1.149  13.712 -0.2021  0.0966  0.0030
16489W        W16689  10.131  14.372   4.701 -0.1744  0.1701  0.1953
16490W        W16690   2.575  13.951   9.650  0.1122  0.0023 -0.1401
16491W        W16691   5.151   8.221  11.721 -0.2004  0.2274  0.1759
16492W        W16692   1.523   1.972   7.330  0.0035 -0.0755 -0.0765
16493W        W16693  13.627   2.885  11.939  0.2472 -0.0758 -0.0516
16494W        W16694   8.538   3.021  11.478  0.0359 -0.1691 -0.0629
16495W        W16695   8.269  14.416  12.244  0.1900 -0.0094  0.3482
16496W        W16696   9.642   8.698   7.950 -0.2438 -0.0699  0.0558
16497W        W16697  10.047   8.832   9.102 -0.1361 -0.1106  0.1056
16498W        W16698   0.103   2.359  14.338  0.5173  0.0752  0.1506
16499W        W16699   1.436   1.055   0.264  0.3389  0.2132 -0.0842
16500W        W16700  10.460   4.399  12.915 -0.3317  0.2710  0.3617
16501W        W16701   2.784  11.456  13.891  0.0381  0.0484  0.0445
16502W        W16702  13.170   2.913  10.085  0.0149 -0.0529  0.0081
16503W        W16703   6.340   9.214  11.157  0.2276  0.3098  0.1374
16504W        W16704   9.881  13.143   8.344 -0.1120 -0.2309  0.1997
16505W        W16705   2.373   9.997  10.113 -0.0800 -0.0022 -0.3608
16506W        W16706  13.242   6.550   7.506 -0.1045 -0.3170 -0.0426
16507W        W16707  13.907   1.394   2.281 -0.1130  0.1416 -0.0408
16508W        W16708   3.729   2.157  10.522 -0.3176 -0.1174  0.2834
16509W        W16709  10.134  14.513   9.832 -0.0895  0.0955  0.1243
16510W        W16710  14.547   4.267   9.144  0.0714 -0.2320  0.0899
16511W        W16711   7.073  12.303   7.233  0.3558  0.1677  0.0523
16512W        W16712   8.373  11.175  14.120 -0.3907  0.1382 -0.3385
16513W        W16713  13.531  11.991   6.845  0.0289  0.1240  0.0867
16514W        W16714  10.836   5.846   0.199 -0.0709  0.1209  0.1885
16515W        W16715   7.507   0.291   4.656 -0.0356  0.0278 -0.1668
16516W        W16716  13.840   4.182   9.584  0.1942  0.0165 -0.3440
16517W        W16717   5.276  12.517   6.183  0.0374 -0.2639 -0.0855
16518W        W16718   0.276   2.152  14.765 -0.0793  0.0483  0.0415
16519W        W16719   5.020  14.090   5.248 -0.0167 -0.0892  0.0620
16520W        W16720  11.427   5.195  11.695  0.1272  0.1028  0.2512
16521W        W16721   0.599  11.923   7.933 -0.2126 -0.0802 -0.0135
16522W        W16722   4.557   2.724   1.328  0.0819  0.0460  0.0630
16523W        W16723  14.432   6.850   1.566 -0.0782 -0.0354 -0.3503
16524W        W16724  11.740  15.010  10.700  0.0277  0.3186 -0.1195
16525W        W16725   8.070   5.294  11.488  0.0102  0.0981  0.1453
16526W        W16726   8.044  10.555   8.817  0.0720  0.3094 -0.2540
16527W        W16727  14.559  13.578   4.701  0.1427  0.0722  0.0992
16528W        W16728   7.239   2.896  13.039 -0.3486 -0.1523 -0.0184
16529W        W16729   9.684   4.036   0.132  0.2327  0.0589 -0.3553
16530W        W16730  11.176   3.763   2.165  0.0897  0.4052 -0.0113
16531W        W16731  12.554   4.705   6.311  0.2132  0.1428  0.0164
16532W        W16732   8.224   3.124   2.843 -0.2448  0.3619 -0.1971
16533W        W16733   7.538   6.443   7.654  0.1174  0.0676 -0.0821
16534W        W16734   1.011   9.121   9.323  0.0899 -0.1112  0.0396
16535W        W16735  12.604   7.798   6.706 -0.2294 -0.0628  0.1832
16536W        W16736   6.489   7.486   4.888 -0.2759 -0.1066 -0.0690
16537W        W16737  11.174  10.933  15.087 -0.0665 -0.0363 -0.3799
16538W        W16738   4.644   5.387   0.551  0.0816 -0.1664 -0.0359
16539W        W16739   4.130   1.636   8.478  0.0762 -0.0683 -0.1749
16540W        W16740  12.386  11.527  14.973 -0.1413 -0.1492 -0.0879
16541W        W16741  12.940  10.857   1.550 -0.1567 -0.1109 -0.1262
16542W        W16742   8.065  14.901  11.464 -0.1388  0.1487 -0.3759
16543W        W16743  12.760   4.722   8.758 -0.2787 -0.2170 -0.0285
16544W        W16744   4.488   2.798  13.147  0.0084 -0.1265  0.1832
16545W        W16745   1.106   8.152   5.254  0.2081  0.2967  0.1812
16546W        W16746   9.130  13.585  11.030 -0.2510  0.1299 -0.0034
16547W        W16747   2.949   4.663   9.068 -0.0571  0.2072  0.2107
16548W        W16748   4.348   1.547  10.151  0.0858 -0.0782  0.0913
16549W        W16749  10.497   4.650  10.952 -0.0993  0.1946 -0.1474
16550W        W16750  12.988   9.228   9.385 -0.0083 -0.2402 -0.1083
16551W        W16751   2.120   7.722   5.492 -0.1224 -0.1258 -0.0950
16552W        W16752   4.619  12.346   3.530 -0.2139 -0.0950 -0.4263
16553W        W16753   2.920  12.670   7.866  0.1630 -0.2773  0.0418
16554W        W16754   0.175  11.772   5.144  0.2665  0.2323 -0.1588
16555W        W16755   8.391  13.669   8.308  0.1295 -0.1124 -0.0667
16556W        W16756   9.869   4.544   9.876 -0.1899 -0.0592  0.0538
16557W        W16757  13.208   9.586   8.979  0.1069  0.0008  0.0327
16558W        W16758   4.235  10.840  11.593 -0.0816  0.0575  0.0665
16559W        W16759  12.933   5.036  14.115 -0.1284  0.0617 -0.2076
16560W        W16760   5.448   2.105   7.477  0.4509 -0.2852  0.2851
16561W        W16761   8.584  14.435   4.130 -0.1441 -0.0116  0.1916
16562W        W16762   7.709   4.477  15.112 -0.0323  0.1623 -0.1666
16563W        W16763  13.457   9.026  11.158 -0.5034 -0.3541  0.1038
16564W        W16764   8.289   5.358   6.827 -0.1159  0.3040 -0.2878
16565W        W16765  11.736   8.764   9.427  0.0113  0.1161 -0.0932
16566W        W16766  10.655   5.680   8.123  0.2888 -0.0456 -0.1537
16567W        W16767   5.053   8.631   9.997 -0.0584 -0.0144 -0.0508
16568W        W16768   7.226  10.981   9.116  0.1972 -0.1419 -0.0600
16569W        W16769  12.836  15.095   9.233 -0.2462 -0.0416 -0.3773
16570W        W16770  11.233   2.578  11.044 -0.1130  0.0767  0.0160
16571W        W16771  12.012  14.810   3.897  0.0986 -0.1760  0.0477
16572W        W16772  10.221   4.980   6.747 -0.0853 -0.0411  0.0670
16573W        W16773   7.161   7.752   5.093  0.2455  0.0316 -0.1806
16574W        W16774   1.809   2.484   9.037 -0.0362 -0.0378 -0.0286
16575W        W16775   7.801  13.756  12.041 -0.1693  0.3681  0.0337
16576W        W16776  10.116  13.380   0.530  0.0900 -0.1454 -0.2700
16577W        W16777  13.630   4.594   6.788  0.0214 -0.0038  0.1535
16578W        W16778   5.568   6.543   4.805 -0.0068  0.3101 -0.0523
16579W        W16779  12.060  14.702   8.860 -0.1034 -0.2358 -0.0076
16580W        W16780   6.933  14.514   5.203 -0.2659  0.1006 -0.1457
16581W        W16781  14.428   0.074  10.154  0.1084 -0.3219  0.0881
16582W        W16782  11.837   6.375   8.747 -0.1034 -0.1572 -0.0986
16583W        W16783  10.360   3.808   2.992 -0.1178  0.0542  0.2948
16584W        W16784  10.879   9.973   0.591 -0.2247 -0.0416  0.2808
16585W        W16785   1.363   9.205   2.125  0.1568 -0.2086  0.3113
16586W        W16786   3.742   5.413   0.639 -0.0362  0.1921  0.1317
16587W        W16787  10.248   0.531  14.956 -0.0875  0.0356  0.4739
16588W        W16788   3.801   8.453   8.019  0.0446  0.4411  0.0064
16589W        W16789  13.110   1.006  12.174 -0.0199 -0.5161 -0.0576
16590W        W16790  12.522   5.773   4.049  0.0818  0.2178 -0.0580
16591W        W16791   6.354   0.038   7.012  0.2387  0.0527 -0.1568
16592W        W16792   0.126  13.701   7.143  0.1411  0.1069  0.0876
16593W        W16793   8.227   9.235   2.713 -0.0229 -0.0724 -0.0485
16594W        W16794  10.331   2.458  11.493 -0.2501 -0.0768  0.1745
16595W        W16795  10.650   7.704   1.022 -0.1787  0.0145  0.1960
16596W        W16796  14.289   4.111   4.200 -0.0318  0.2116 -0.2335
16597W        W16797  14.192   2.492  10.620 -0.0324  0.0711 -0.1040
16598W        W16798   2.560  13.702   6.955 -0.1932  0.0670 -0.2083
16599W        W16799   4.643  15.004   0.694  0.1026  0.0051  0.2575
16600W        W16800   5.960  14.068   8.212 -0.2968  0.4541 -0.1918
16601W        W16801   3.223  14.424   5.222 -0.0144 -0.3071  0.0305
16602W        W16802   8.205  12.338  11.050  0.0557 -0.0199  0.1145
16603W        W16803   7.481  11.199  10.732 -0.0091  0.2794 -0.0660
16604W        W16804   4.096   4.976  10.205 -0.0116 -0.2784  0.1133
16605W        W16805   8.148   6.995  10.244 -0.1463 -0.2403 -0.3246
16606W        W16806   4.379   7.153  14.663 -0.3141 -0.0115 -0.0383
16607W        W16807   4.862   9.092   8.375 -0.0736 -0.1749 -0.1492
16608W        W16808   8.968   9.359   5.186  0.1102 -0.1479 -0.0544
16609W        W16809   9.397   0.024   9.183  0.2462  0.4282 -0.1066
16610W        W16810   7.815   1.378   6.426  0.2589 -0.2640  0.0365
16611W        W16811  10.849  12.629   5.692  0.2621  0.1054 -0.1521
16612W        W16812   0.065   1.082   4.084 -0.2019 -0.0708 -0.0903
16613W        W16813   5.210  10.824   2.972  0.2412 -0.0901 -0.3865
16614W        W16814  11.211   8.814  10.592  0.0402  0.0308  0.3371
16615W        W16815  11.341   9.629   3.576  0.0366 -0.0207 -0.0516
16616W        W16816   5.439   7.874   1.731  0.0378 -0.0100  0.0585
16617W        W16817   8.951  12.133  11.629  0.1517  0.1209  0.0341
16618W        W16818  12.154   4.977   6.220 -0.0038  0.1199  0.2223
16619W        W16819   5.081   1.053   2.279  0.0473  0.0832 -0.0276
16620W        W16820  10.924  12.078  12.715 -0.1657  0.1099  0.0410
16621W        W16821   7.809   2.803  10.896 -0.2379 -0.3007  0.2265
16622W        W16822   0.479   0.046  13.013 -0.1316 -0.2712  0.0063
16623W        W16823   9.671   3.557  13.637  0.0354 -0.0561  0.0562
16624W        W16824  13.943   7.878   0.639 -0.1001  0.2186  0.1124
16625W        W16825   6.029  15.119   3.865 -0.1835  0.4355  0.1579
16626W        W16826  10.337   3.568  12.715 -0.1388  0.2167  0.2481
16627W        W16827   3.364   4.276   6.917  0.0556  0.0484  0.1547
16628W        W16828  12.492   0.494   0.618 -0.0700  0.0271  0.1287
16629W        W16829  13.572  11.332   9.877  0.0307 -0.3252  0.2683
16630W        W16830  10.373   2.885   6.704 -0.2135  0.0628  0.3605
16631W        W16831   4.720  10.064  13.472 -0.1933  0.2386  0.1106
16632W        W16832  14.487  13.007   0.933  0.0029  0.0047  0.0950
16633W        W16833   3.677   1.334   8.864  0.3739 -0.1909  0.0448
16634W        W16834  13.390   6.834   1.388  0.2854 -0.2632 -0.1464
16635W        W16835  14.579   0.794   6.908 -0.0407 -0.2054 -0.2905
16636W        W16836   7.105   3.656  13.864 -0.3229  0.2626  0.3128
16637W        W16837   9.520   8.513  10.802 -0.2261 -0.3318 -0.0656
16638W        W16838   1.894   7.444   3.535  0.0870  0.0720 -0.0686
16639W        W16839   8.808   0.958   7.063 -0.1355 -0.0507 -0.1305
16640W        W16840   3.029   6.973   8.391  0.1112  0.1396  0.1766
16641W        W16841  11.454   7.212   9.109  0.1478  0.1367 -0.0065
16642W        W16842  12.634  11.783   6.474  0.2784 -0.1282 -0.3220
16643W        W16843   2.922   1.621  11.491  0.1163 -0.0667 -0.0926
16644W        W16844  12.243  11.551   3.469 -0.0488 -0.1762  0.0229
16645W        W16845   7.284  13.091  13.648  0.1214 -0.2309 -0.0695
16646W        W16846   7.369   2.644   1.083 -0.0780 -0.0132 -0.1146
16647W        W16847  14.085   4.486   9.095  0.0680 -0.0204 -0.3223
16648W        W16848  12.897  10.631   5.908  0.0216 -0.1294 -0.0999
16649W        W16849   0.878  14.318  11.450 -0.2091 -0.0209  0.3062
16650W        W16850   3.845  13.229   5.618 -0.1211  0.0868  0.3504
16651W        W16851   7.236  12.217  14.635  0.0651  0.1436 -0.0044
16652W        W16852  14.652  14.088  13.301  0.0312 -0.1924 -0.2163
16653W        W16853   6.579   2.051   6.822 -0.0267  0.1217 -0.2126
16654W        W16854  14.322  13.522   8.604  0.0889  0.2716  0.2253
16655W        W16855   9.823   8.611   8.411  0.0642 -0.0389 -0.0338
16656W        W16856   6.635   6.883   4.889  0.0366 -0.2241  0.0533
16657W        W16857  12.962   3.244   1.460 -0.2112 -0.0480  0.0963
16658W        W16858   7.746  10.230   8.454 -0.2593  0.1960  0.2679
16659W        W16859   8.242   1.293  13.344  0.3203 -0.4783 -0.3048
16660W        W16860   7.573   0.958   8.691 -0.1179  0.1654 -0.0454
16661W        W16861   8.109  14.839   6.370 -0.1493 -0.1961 -0.1662
16662W        W16862   6.394   1.051   0.562 -0.0094 -0.2154  0.1453
16663W        W16863   7.673  14.210  11.515  0.1864  0.0964  0.2970
16664W        W16864   9.254   7.414  13.890  0.0530 -0.0592  0.0549
16665W        W16865   7.005   3.360   7.534 -0.0988  0.0357 -0.1489
16666W        W16866   1.498   9.628  10.549 -0.0259 -0.0862 -0.1060
16667W        W16867   9.340   0.025   7.506  0.0677  0.1701  0.1512
16668W        W16868  13.059  14.824  11.366 -0.2431 -0.3798  0.0444
16669W        W16869  13.955  10.838   8.976 -0.0848  0.0075  0.2074
16670W        W16870   4.525   5.789  10.159 -0.1382  0.0177  0.3305
16671W        W16871   1.923  11.732  14.410 -0.2194  0.0989 -0.0986
16672W        W16872  10.147   3.758   3.723  0.0600 -0.1013 -0.1321
16673W        W16873   4.851  10.150  11.502 -0.1023 -0.0718  0.1437
16674W        W16874   2.205  13.282   3.274  0.3191  0.2191 -0.0395
16675W        W16875   4.417   5.303  10.089 -0.2038  0.1326 -0.0868
16676W        W16876   8.380   5.613   8.639  0.4479  0.0070  0.3865
16677W        W16877   3.923  11.176  12.443  0.1349 -0.1875 -0.2285
16678W        W16878  11.497  14.837   7.279 -0.2990 -0.2692 -0.2256
16679W        W16879  12.665   0.086   3.360  0.3382  0.2828 -0.0339
16680W        W16880  12.652   0.814  13.581 -0.0301  0.0380 -0.2161
16681W        W16881   5.708   1.435   5.706  0.1430  0.0086  0.0990
16682W        W16882  14.992   7.922   0.941 -0.0745  0.0935  0.1888
16683W        W16883   7.337  14.833   7.672  0.1408 -0.0666  0.0857
16684W        W16884  13.577   1.870   4.603 -0.1336 -0.3718 -0.0966
16685W        W16885  12.658  14.264   6.774  0.1051  0.1439  0.1706
16686W        W16886  12.737   6.602   1.480  0.2075 -0.0409 -0.1426
16687W        W16887  13.117   3.495   6.327  0.0459  0.1964  0.0375
16688W        W16888   7.743  13.208  12.754 -0.2681 -0.2799 -0.1662
16689W        W16889  12.124  14.955   6.360 -0.2691  0.0681  0.0528
16690W        W16890   6.115   4.799   6.356  0.2080 -0.1341 -0.0224
16691W        W16891   5.674  12.605   7.044 -0.1206 -0.1454  0.1518
16692W        W16892   6.832   8.999   4.593 -0.1455 -0.2042  0.2110
16693W        W16893  12.636   1.271   2.876  0.3110  0.2320  0.0345
16694W        W16894   9.365   4.254  12.442  0.2493 -0.4464 -0.0343
16695W        W16895  14.385   4.332  11.637 -0.2610 -0.0206 -0.2080
16696W        W16896  11.245  15.031   1.773  0.2432 -0.1183  0.1540
16697W        W16897   3.398   5.303   2.158 -0.0691  0.4067  0.1266
16698W        W16898   4.721  13.566   9.265 -0.2864  0.2587 -0.0280
16699W        W16899   9.330   2.863  12.718 -0.1536 -0.1817 -0.0103
16700W        W16900  11.364   0.775  13.063  0.4260 -0.1520  0.0728
16701W        W16901  10.966   2.370   5.939  0.0465  0.0005  0.3264
16702W        W16902  12.330   2.359   7.261 -0.1033 -0.1414 -0.1030
16703W        W16903   9.628   2.321  13.556  0.2772  0.1401  0.0473
16704W        W16904   1.051  10.165   4.867 -0.0595 -0.2390 -0.1125
16705W        W16905   4.476   4.356   9.465  0.1457  0.2191  0.0126
16706W        W16906   7.033  11.138  10.968 -0.0831 -0.1344  0.1358
16707W        W16907   8.984   4.413   2.256  0.1583  0.2186 -0.0356
16708W        W16908   8.751  12.555   8.665  0.4284  0.1766 -0.1954
16709W        W16909  13.580   3.981   3.773 -0.0756  0.0368 -0.2312
16710W        W16910   0.130  12.592   9.225  0.2824  0.1537  0.2156
16711W        W16911   0.483   4.453  10.828  0.3964 -0.0439 -0.3648
16712W        W16912   3.400   7.105  14.469  0.1815  0.2067  0.0232
16713W        W16913   9.610   9.801   7.077  0.0998  0.3848 -0.1321
16714W        W16914   2.681   7.026   9.038 -0.1644  0.0629  0.4658
16715W        W16915   5.889   7.380  12.134  0.0448 -0.1485 -0.1096
16716W        W16916   5.031  13.469  12.337 -0.0060 -0.2726  0.1043
16717W        W16917   3.248   2.146   6.199 -0.2687  0.1307 -0.0264
16718W        W16918  10.088   6.188  12.012 -0.1686  0.0194 -0.3389
16719W        W16919   7.393   1.178   2.143  0.0385  0.0061  0.4839
16720W        W16920   6.217  14.381   6.839  0.0649  0.2119  0.0716
16721W        W16921   2.683  10.327   3.836  0.1396  0.0770  0.1061
16722W        W16922   8.497   6.020   9.698 -0.1982 -0.0407  0.2090
16723W        W16923   3.549   0.785   0.704 -0.1366 -0.2905 -0.0678
16724W        W16924   1.177  10.601   2.910 -0.2141 -0.0240  0.4499
16725W        W16925  11.510  11.100  14.344 -0.1243  0.0884 -0.1587
16726W        W16926   1.760   2.641   0.555 -0.1143  0.2087  0.4222
16727W        W16927   1.690   8.040  13.788  0.2583  0.1799  0.1335
16728W        W16928  10.505   3.849   4.359  0.0360 -0.1921  0.0890
16729W        W16929  13.418   8.421   0.461  0.1737 -0.1244 -0.4704
16730W        W16930  15.081   3.207   4.076 -0.0329 -0.0504  0.2518
16731W        W16931  14.350   7.893   3.187 -0.1948  0.1959 -0.1057
16732W        W16932  11.164   3.797  14.378 -0.2741 -0.1810 -0.0796
16733W        W16933  13.896   6.652   2.363  0.2135  0.0474  0.1069
16734W        W16934  14.677   0.847   9.004 -0.0380  0.1642  0.2411
16735W        W16935   0.099  14.114  12.163 -0.0362  0.0293  0.2870
16736W        W16936   6.719   6.621   7.156 -0.4337  0.1162 -0.0306
16737W        W16937   6.422   8.715  10.341  0.0710  0.0428 -0.1443
16738W        W16938   3.419   1.536   5.117  0.1906 -0.0996 -0.1540
16739W        W16939   3.248   6.115   4.232  0.0422 -0.0303  0.1357
16740W        W16940   4.722   3.229   1.512  0.1805 -0.1061  0.1371
16741W        W16941  10.878  10.480   3.451  0.3597 -0.0864 -0.1463
16742W        W16942   6.526  14.534   8.736  0.1719 -0.1856 -0.0077
16743W        W16943   3.072  11.388   6.880  0.0594  0.0424 -0.1642
16744W        W16944  14.152   8.428   8.772  0.0982  0.1724  0.1653
16745W        W16945   3.845  15.177   1.044  0.2186  0.0737 -0.1451
16746W        W16946  12.918   1.875  11.907 -0.2084 -0.1397 -0.0597
16747W        W16947  13.316   4.310  14.514  0.4914  0.0601 -0.2149
16748W        W16948  13.637   6.252   3.253 -0.1815 -0.1705  0.0149
16749W        W16949   1.305   8.625   7.675  0.1304  0.3288 -0.0714
16750W        W16950   8.124  13.643  15.003  0.0522 -0.0798 -0.1320
16751W        W16951   7.927   7.453  11.973 -0.2685  0.2007  0.3048
16752W        W16952   8.474  10.343   7.742  0.0188 -0.2178  0.0403
16753W        W16953   8.723   9.030  10.816 -0.1902 -0.3402 -0.1867
16754W        W16954   9.579   7.298  11.807 -0.1049 -0.0928  0.2141
16755W        W16955   6.059   2.100   8.531  0.2518  0.1683 -0.1269
16756W        W16956   4.399   4.299  11.785 -0.0893  0.1650  0.0567
16757W        W16957   7.762   7.548   3.313  0.1951 -0.1627 -0.2730
16758W        W16958   2.514   4.067  10.307 -0.1799  0.1953 -0.0009
16759W        W16959  14.172   0.385  13.461 -0.0055 -0.1144  0.1725
16760W        W16960   0.809  12.505  12.626 -0.1840 -0.4196  0.0972
16761W        W16961   9.082   4.723  10.464  0.1932 -0.0096 -0.0896
16762W        W16962   7.585   1.961   8.015 -0.0142  0.1363 -0.1305
16763W        W16963   0.462   7.387   2.989 -0.1121 -0.2307 -0.0299
16764W        W16964  11.349   3.381  12.995 -0.3501  0.3049 -0.1567
16765W        W16965  10.313   4.242   8.878 -0.2306  0.1152 -0.0429
16766W        W16966  10.887   5.992   9.392  0.1722 -0.1084  0.0478
16767W        W16967   6.377   5.268   9.213 -0.5928 -0.0865  0.0780
16768W        W16968  13.392   4.886   5.157 -0.2262  0.2546  0.0890
16769W        W16969   2.342   0.951   0.703  0.0118  0.0473  0.0805
16770W        W16970  12.546   8.554  11.453  0.2046  0.1261  0.0839
16771W        W16971  11.112   2.790   4.896  0.0396  0.0424 -0.0718
16772W        W16972  13.411   4.755  13.041 -0.1717  0.1727  0.1221
16773W        W16973  13.037   1.604  13.523 -0.1205  0.0031 -0.0405
16774W        W16974   0.813   8.142   9.825  0.0691  0.2440  0.0932
16775W        W16975   6.310   2.105   1.230 -0.3363 -0.4221 -0.0761
16776W        W16976   7.042   8.703  13.642 -0.4923 -0.1481 -0.2709
16777W        W16977  10.468   9.334  14.973 -0.1503 -0.2903  0.1377
16778W        W16978  10.178   2.103  10.329 -0.2920  0.0105 -0.2099
16779W        W16979   4.950   3.534  14.603  0.0119 -0.1336 -0.0985
16780W        W16980   8.957   2.110  10.933 -0.4528  0.1288 -0.0083
16781W        W16981  11.601   1.575   4.842  0.2733  0.2328 -0.3876
16782W        W16982   6.104   7.975   9.972  0.0340 -0.1676 -0.0166
16783W        W16983  12.415   0.741  11.843 -0.2208 -0.1368  0.1686
16784W        W16984   5.874   0.449  10.592 -0.0414 -0.2340  0.1177
16785W        W16985  13.662   5.859   5.917  0.0789  0.0305 -0.0563
16786W        W16986   8.176   9.303  11.716 -0.0432  0.3118 -0.0603
16787W        W16987   6.272   6.146  11.052 -0.0506  0.0853  0.0369
16788W        W16988   4.615  12.507   5.816  0.1293 -0.0614  0.2296
16789W        W16989  13.108   9.254   2.912  0.0691  0.0061  0.0084
16790W        W16990  10.341   1.218   2.850  0.0621  0.3542  0.1473
16791W        W16991  14.349   0.754   1.821  0.0038  0.2047  0.3474
16792W        W16992   4.248   1.274  12.342 -0.3039  0.1989 -0.0439
16793W        W16993  11.803  13.570  13.820  0.0606 -0.3349  0.1386
16794W        W16994   4.417   6.930   9.419 -0.0056 -0.0445 -0.1933
16795W        W16995   8.215   2.983   9.761 -0.0539 -0.0041  0.0990
16796W        W16996  13.796   3.667   7.932  0.0120 -0.1381 -0.0729
16797W        W16997   8.042   2.884   3.817 -0.0241 -0.0567 -0.0021
16798W        W16998   4.844   9.597  13.360 -0.0378  0.1407  0.1099
16799W        W16999   5.248  14.362   6.448 -0.2377 -0.0548  0.1562
16800W        W17000   5.959  10.335   5.483  0.0708  0.0175  0.1255
16801W        W17001   2.647   1.768  13.510 -0.0589 -0.0289 -0.1595
16802W        W17002  10.680  10.893   2.485  0.0172 -0.3371  0.3603
16803W        W17003   4.562   0.935  10.123 -0.1937  0.0129 -0.0728
16804W        W17004   9.591   3.827  11.118  0.0569 -0.1345 -0.3360
16805W        W17005  13.798   8.343  10.071 -0.2000  0.0915  0.3405
16806W        W17006   8.815   9.379   3.650 -0.0773  0.1466  0.1584
16807W        W17007   1.005   2.533  10.632  0.0209  0.1073 -0.1519
16808W        W17008   6.872  12.519   7.793 -0.3934 -0.3752  0.3467
16809W        W17009   5.298   0.124  14.566  0.0862  0.0471 -0.1044
16810W        W17010   6.221  10.578   0.691 -0.2428  0.2258 -0.2502
16811W        W17011   3.796   5.132   6.302  0.1055 -0.2397  0.1715
16812W        W17012   8.172   8.246  15.139 -0.3727  0.0991  0.2016
16813W        W17013   4.635   2.377   4.137 -0.0969 -0.0849 -0.1057
16814W        W17014  11.972   9.324   7.938 -0.0539  0.1102 -0.1023
16815W        W17015   6.954   3.206  13.689  0.1048  0.2465 -0.2657
16816W        W17016   6.935  10.549   1.851  0.0161  0.1598  0.0546
16817W        W17017   1.512   7.358   2.797 -0.1186 -0.0318  0.1544
16818W        W17018   8.321   4.691   3.713  0.1236 -0.0692  0.0916
16819W        W17019  11.570  10.611   0.732  0.1632  0.1444  0.0426
16820W        W17020  11.910   4.866  10.860 -0.2240 -0.1202  0.1975
16821W        W17021   3.897  14.485   7.758 -0.1283  0.0196  0.0042
16822W        W17022   3.822   6.923   7.122  0.0706  0.4272  0.4251
16823W        W17023   2.813   6.983   3.353 -0.0798 -0.0214  0.0182
16824W        W17024   5.015   5.867  12.012 -0.2165 -0.1452  0.1967
16825W        W17025   8.290  14.179   4.481  0.1860  0.0690 -0.0855
16826W        W17026  11.197   8.092   8.739  0.0316 -0.0944  0.1429
16827W        W17027   9.693   3.124  13.261  0.1530  0.0820  0.0053
16828W        W17028   2.425   5.452   3.137  0.2601  0.1635  0.1244
16829W        W17029   3.521   8.671   0.030  0.1073  0.1523  0.1433
16830W        W17030  10.753   9.660   5.131 -0.1109  0.1430  0.0991
16831W        W17031   6.193   4.712   8.372  0.0781  0.1928 -0.3319
16832W        W17032   9.938   1.645  11.000  0.2512 -0.1401  0.1289
16833W        W17033  13.022  11.724  14.438 -0.0519  0.1171 -0.0734
16834W        W17034  14.771   9.951  12.377  0.1147  0.1062 -0.0638
16835W        W17035   8.506   2.524  10.315 -0.2081  0.0270 -0.0849
16836W        W17036  10.653   4.527  14.752 -0.0627 -0.1289 -0.1892
16837W        W17037   2.409  14.983   0.039  0.2010 -0.1637 -0.0026
16838W        W17038  14.312   7.927  13.492 -0.1571  0.3404 -0.0417
16839W        W17039  10.676   1.551   8.033  0.0899 -0.0763 -0.1763
16840W        W17040   7.081   4.850  10.442 -0.0851 -0.2460  0.0555
16841W        W17041  11.924  12.008   4.835 -0.1542 -0.0030 -0.0543
16842W        W17042   7.472   8.512   2.932 -0.2678  0.2787 -0.0469
16843W        W17043   3.276   0.658  13.010 -0.1885  0.1394 -0.0148
16844W        W17044   8.978   9.470   0.803  0.0639  0.0741 -0.1491
16845W        W17045  10.651  13.386   0.442 -0.1783 -0.0141 -0.0713
16846W        W17046   8.096  13.605   3.012  0.2608  0.2599  0.0020
16847W        W17047   3.246  12.402   0.726 -0.0050  0.1041 -0.2814
16848W        W17048   9.407   1.142   2.424 -0.2601 -0.0737  0.1553
16849W        W17049   2.337   7.547  11.928 -0.2213  0.1952  0.4061
16850W        W17050   9.016   1.889   9.787 -0.0670 -0.0227  0.0015
16851W        W17051   1.680   6.142   9.106 -0.2115 -0.1544 -0.3021
16852W        W17052   5.201  13.875   9.422 -0.0206  0.3329  0.1260
16853W        W17053  10.751  13.475   3.941 -0.2181  0.1368 -0.1422
16854W        W17054   3.532  12.551   8.848 -0.0758  0.1931 -0.0886
16855W        W17055  11.796  14.539   1.218 -0.1713  0.0546  0.2363
16856W        W17056   4.741  14.015   9.505  0.0165 -0.0335 -0.1707
16857W        W17057   0.523   4.439  11.351 -0.2234 -0.0006  0.2069
16858W        W17058   7.096  11.896   5.553  0.0535 -0.1067 -0.0624
16859W        W17059  10.365   6.240  11.590  0.3168  0.0562 -0.1180
16860W        W17060   4.405   2.660   3.794 -0.2240 -0.2239  0.0557
16861W        W17061  11.624   2.809   0.974  0.0126 -0.3700 -0.0319
16862W        W17062   6.848   6.833  12.666 -0.1146 -0.0632 -0.2118
16863W        W17063  12.327   0.078   1.219 -0.1729  0.2822 -0.0479
16864W        W17064   4.566   2.874   8.793 -0.0314  0.1409 -0.0143
16865W        W17065   4.354   3.462  10.059 -0.0181 -0.3179 -0.0658
16866W        W17066  12.231   8.455   0.964  0.0161  0.0852 -0.0479
16867W        W17067   8.478   5.546   4.721 -0.0420  0.0806  0.0505
16868W        W17068   0.777   4.178   9.581 -0.0025  0.0711 -0.2730
16869W        W17069  15.080   2.162  12.652  0.1283 -0.0038 -0.1912
16870W        W17070  14.043   4.096  13.134  0.1470 -0.0116  0.2277
16871W        W17071  11.376   2.707   3.055  0.1452 -0.1882  0.1109
16872W        W17072  14.000   8.581   2.208  0.0562  0.4520  0.1627
16873W        W17073   2.064   1.514   8.631 -0.0570 -0.0556 -0.2438
16874W        W17074   2.022  11.258   9.341  0.2275 -0.0906 -0.1505
16875W        W17075  10.491  12.547  10.532 -0.1291  0.1247  0.4112
16876W        W17076  12.454   3.722  10.197  0.0939 -0.0691 -0.0571
16877W        W17077  10.906   2.456  15.018  0.0160  0.0085  0.2080
16878W        W17078   5.932   1.264  10.496  0.1588  0.1776 -0.5697
16879W        W17079  12.520   3.479   5.316  0.3960  0.0547  0.1704
16880W        W17080   5.206   8.288  14.173  0.2123 -0.2107  0.2819
16881W        W17081  13.652   0.100   3.578 -0.0593 -0.0405  0.1136
16882W        W17082  11.030   4.156  14.768 -0.0463  0.4525 -0.1385
16883W        W17083  12.427   4.518   2.605 -0.0144 -0.0046  0.1531
16884W        W17084   9.976   5.733   0.155 -0.0219 -0.2312  0.1546
16885W        W17085  15.190   3.788   0.513 -0.2565  0.0450  0.1108
16886W        W17086  10.038  11.718  12.883 -0.2129  0.3058  0.0171
16887W        W17087   5.031   1.475   6.177 -0.0576 -0.2079 -0.1398
16888W        W17088   7.853   2.304  14.929 -0.0028 -0.1840  0.1832
16889W        W17089  14.501   9.713   2.457  0.1081  0.0454 -0.1706
16890W        W17090  14.220   5.357   4.016  0.0956  0.2064 -0.0385
16891W        W17091  12.658  12.405  11.698  0.0687 -0.1657  0.2706
16892W        W17092   1.159  10.636   9.447  0.1151  0.0269 -0.0139
16893W        W17093   6.755   2.401  10.105  0.0763 -0.1801  0.0206
16894W        W17094   5.190   9.136   9.961  0.2883  0.2631 -0.2502
16895W        W17095  11.099  14.018  11.799 -0.0941 -0.6109  0.1567
16896W        W17096   9.288   6.413   1.429  0.1260 -0.2426  0.2088
16897W        W17097  13.730   1.361  10.797  0.2347 -0.0650  0.0369
16898W        W17098   8.476   7.851  12.596 -0.0884  0.0199 -0.0093
16899W        W17099   4.594  12.719  14.594 -0.2098  0.2813  0.1897
16900W        W17100  12.365   5.088   7.314  0.4695  0.1728  0.0393
16901W        W17101   9.641  15.077   5.096 -0.1525 -0.0105 -0.1856
16902W        W17102   2.658   0.701   4.500  0.2006  0.0076  0.2092
16903W        W17103   7.317   5.173   2.177  0.0062 -0.0925  0.0402
16904W        W17104  12.301   2.647  13.977  0.1153 -0.4265  0.1510
16905W        W17105   7.899   0.225   1.997 -0.1151  0.1008  0.1437
16906W        W17106  11.306   3.005  10.627  0.3537  0.2744 -0.2497
16907W        W17107  13.150   3.348   0.271  0.2590 -0.4241  0.1190
16908W        W17108   2.211   6.456  11.360 -0.1883 -0.2463  0.0908
16909W        W17109   7.446  14.499   8.803 -0.0908 -0.1874 -0.1555
16910W        W17110   8.539  15.090   8.510 -0.0746  0.1084  0.0828
16911W        W17111   6.839  14.446  10.296  0.0748  0.2450 -0.1994
16912W        W17112   7.416  13.621   2.724 -0.0422  0.0359  0.2191
16913W        W17113   5.729   2.747  13.881 -0.1923 -0.1810  0.1755
16914W        W17114  12.852   9.959   4.000 -0.0966  0.2269  0.1431
16915W        W17115  14.899  14.208   8.532  0.4353  0.2344  0.1707
16916W        W17116   7.556   2.574  14.148  0.0996  0.2868  0.3061
16917W        W17117  14.504   4.238   5.613  0.0184  0.0331  0.3375
16918W        W17118  11.088   4.620  10.312  0.2940 -0.0510  0.2619
16919W        W17119   9.941   7.532  11.468  0.0685  0.0109  0.1240
16920W        W17120   4.786   7.595   6.777 -0.0983 -0.1245 -0.0128
16921W        W17121  11.590   6.802  12.750  0.0797 -0.2528  0.1377
16922W        W17122   6.125   4.354   4.093 -0.0885  0.1249 -0.0505
16923W        W17123  10.648  12.419  11.714  0.2496 -0.0154 -0.0575
16924W        W17124   8.618   3.714   3.369  0.3688  0.2088  0.4212
16925W        W17125   0.039   7.632   2.105  0.1460 -0.1127 -0.0584
16926W        W17126   7.383   6.302   3.547  0.2440 -0.0531 -0.1326
16927W        W17127   7.192   8.879   4.325  0.0253 -0.0092  0.0539
16928W        W17128   8.505   8.819   2.707  0.0883  0.4271  0.0383
16929W        W17129   2.399   7.858  12.304  0.0760 -0.1788 -0.3002
16930W        W17130   8.316  10.024   0.538 -0.1937 -0.0694  0.1901
16931W        W17131  14.635   9.645  11.940 -0.2283  0.1363 -0.1376
16932W        W17132   6.479  12.834  14.286  0.3229 -0.3992 -0.0446
16933W        W17133   1.371   0.603   2.823 -0.2234  0.0752 -0.4825
16934W        W17134   0.854  12.021   4.243 -0.2114  0.2518 -0.2645
16935W        W17135   4.866   9.502   0.669 -0.0557  0.0026  0.1469
16936W        W17136   1.170   3.792   1.287  0.1444  0.1292 -0.3393
16937W        W17137   3.197   4.318  13.111  0.3886  0.0062 -0.2946
16938W        W17138   7.666  12.383   0.919  0.0749  0.0175  0.0193
16939W        W17139   8.381   3.898   4.963 -0.0329  0.1469  0.1774
16940W        W17140   3.705  14.980   0.224 -0.0442  0.0995  0.1875
16941W        W17141   7.306   5.576   0.469  0.1548  0.3375  0.1684
16942W        W17142   8.716   2.382   8.211  0.1766  0.0215  0.2375
16943W        W17143  10.378   4.289  12.159  0.2751 -0.1943 -0.0622
16944W        W17144  13.810   9.938  10.345  0.0797 -0.3954  0.1380
16945W        W17145   6.514  12.885   9.408  0.2002  0.0692 -0.1982
16946W        W17146   8.254   3.845  11.435 -0.2269  0.1838  0.1707
16947W        W17147   9.989  14.735   5.006  0.2696 -0.0518  0.0858
16948W        W17148   5.140  10.969   7.679 -0.0762 -0.0767 -0.0052
16949W        W17149   2.565  11.043  14.443  0.1930  0.1429  0.1937
16950W        W17150   4.315   4.741   8.411  0.3586  0.1694  0.0906
16951W        W17151   0.607  10.293  15.022 -0.1809 -0.0037  0.0937
16952W        W17152  10.965   7.602   6.577  0.2471  0.0456  0.2347
16953W        W17153   9.503   8.426  13.775  0.0422 -0.3169 -0.0180
16954W        W17154   3.257   6.669  11.387  0.2764 -0.2806 -0.1741
16955W        W17155   2.762  13.265  14.070 -0.1259  0.1176 -0.1149
16956W        W17156  15.040   2.546  10.624  0.3390  0.4265 -0.0163
16957W        W17157   1.246   6.124  10.446 -0.2454 -0.0596 -0.1456
16958W        W17158   0.220   9.787   8.297  0.2378 -0.1526  0.1301
16959W        W17159   0.876  15.068   7.506 -0.0460 -0.0783 -0.0812
16960W        W17160   9.887   1.382  11.902  0.1509  0.0016 -0.1285
16961W        W17161   8.477   5.007   2.870  0.0217 -0.0079 -0.3534
16962W        W17162  12.618   6.914   8.811 -0.1378  0.0140  0.3292
16963W        W17163   9.923  10.553   2.896 -0.2505 -0.1524  0.0725
16964W        W17164   9.413   3.336   0.689  0.2132 -0.4089  0.1796
16965W        W17165   4.551   6.446   7.684  0.0689  0.2618 -0.0689
16966W        W17166  10.264   0.947   7.315 -0.5740  0.0643 -0.0174
16967W        W17167   8.761   4.608  14.190  0.1112  0.2926 -0.4546
16968W        W17168   3.049   2.860  10.267  0.1736  0.1937 -0.1786
16969W        W17169   4.019   5.093   3.328 -0.2027 -0.1090 -0.0437
16970W        W17170   9.669  15.053   3.192 -0.0498  0.0481 -0.0702
16971W        W17171   0.456   1.136  14.090  0.0541 -0.2526  0.0024
16972W        W17172   7.201   3.762   3.091 -0.1719  0.2002  0.2670
16973W        W17173   8.180   6.615  10.856 -0.2649  0.2330  0.1874
16974W        W17174   7.705   8.842  14.422 -0.0790  0.1116 -0.1189
16975W        W17175   8.625   4.275   5.198  0.0689 -0.0361 -0.3045
16976W        W17176  11.241  10.341  13.814  0.1746  0.2996 -0.0790
16977W        W17177  14.476  11.136   7.798  0.0105  0.0105 -0.0660
16978W        W17178   3.075   9.602   8.401  0.0312 -0.1629  0.2157
16979W        W17179   9.626   6.840   8.083  0.0063 -0.0387  0.0063
16980W        W17180   9.520   7.141  14.757 -0.1667  0.0589  0.0245
16981W        W17181  10.734  13.809  12.159  0.0207  0.0389  0.0756
16982W        W17182  12.213   6.610   9.509  0.0429 -0.1616  0.0115
16983W        W17183  11.496   7.702   1.113 -0.1077  0.2091 -0.0881
16984W        W17184   9.028   3.467  14.453  0.0261  0.0190 -0.0015
16985W        W17185   8.724  11.712   8.102  0.1065 -0.0492  0.2796
16986W        W17186   6.367   2.668   7.799  0.2093 -0.1156  0.2578
16987W        W17187   1.870   3.809  12.289 -0.0563  0.0962  0.2167
16988W        W17188   9.112  14.950   9.956  0.1949 -0.0558  0.1443
16989W        W17189   3.897   2.959  12.362  0.0532  0.2194 -0.2765
16990W        W17190   8.241   0.795   8.683  0.0715  0.0295 -0.1008
16991W        W17191   5.264   8.239  15.155  0.0094 -0.2376  0.0366
16992W        W17192  11.839  11.292   5.528  0.0504  0.0813 -0.0128
16993W        W17193   6.123   0.059  13.182  0.0848  0.0471 -0.1792
16994W        W17194   0.843   5.355  10.353 -0.0397  0.2735 -0.0194
16995W        W17195  10.763   8.263   0.235 -0.0537 -0.3608 -0.3225
16996W        W17196  10.318   3.351  10.431  0.0123 -0.0938 -0.0386
16997W        W17197   9.498   4.722  13.826 -0.1756 -0.0193 -0.3558
16998W        W17198  13.628   0.908  13.454 -0.0686  0.0776  0.0143
16999W        W17199   4.799   9.458  12.395  0.0960 -0.1374 -0.0968
17000W        W17200   6.779  14.870   1.427 -0.0914 -0.0064  0.0220
17001W        W17201   6.333  11.809  14.421  0.0497  0.0639 -0.1615
17002W        W17202   9.688   7.687   7.819  0.0078  0.3117 -0.0234
17003W        W17203  10.715   3.824   2.620 -0.1050 -0.0776 -0.1719
17004W        W17204  11.676  12.171   0.605  0.2411  0.1177 -0.1449
17005W        W17205  11.023  11.850  10.301  0.1504  0.1165  0.0319
17006W        W17206   7.707   0.792   4.748  0.0173 -0.0428  0.1274
17007W        W17207   7.064  12.595  12.383 -0.3057  0.0435 -0.1195
17008W        W17208  13.780   4.420   4.260  0.2539 -0.2090  0.2371
17009W        W17209   9.885  14.738  13.657  0.1166  0.0276 -0.1638
17010W        W17210   3.954   3.528   1.530 -0.0006 -0.1145  0.2262
17011W        W17211  11.208   3.284  14.461  0.2560 -0.5762  0.1462
17012W        W17212   5.541   1.921  13.549  0.0674 -0.0985 -0.0218
17013W        W17213  13.199   3.399  12.354 -0.1899 -0.0643 -0.1249
17014W        W17214   2.138   2.795   9.939  0.2061  0.1612  0.0909
17015W        W17215   9.532   4.801  12.985 -0.2105 -0.0205  0.2380
17016W        W17216   7.008   7.872   0.377  0.1267  0.0229  0.1354
17017W        W17217  12.333   2.424  15.150  0.0893 -0.2750  0.2420
17018W        W17218   7.562  13.254   8.336  0.0435 -0.1711  0.1479
17019W        W17219   9.333   7.911  12.211  0.2950  0.2770 -0.2096
17020W        W17220  11.179   7.813   4.320 -0.1483 -0.2456 -0.4594
17021W        W17221  14.000   6.849   3.732  0.2279 -0.0575  0.3076
17022W        W17222  10.067   6.363  13.347  0.3233 -0.1102  0.2236
17023W        W17223  13.653   3.357  13.205  0.2181  0.2183 -0.1106
17024W        W17224   3.693   5.271   1.694 -0.0797  0.0648  0.1114
17025W        W17225  11.788   8.708  12.831  0.2083  0.1090  0.2810
17026W        W17226  11.379  11.918  11.714 -0.0906  0.0309 -0.0922
17027W        W17227   5.369  10.807  12.148  0.0928  0.5537 -0.3689
17028W        W17228   8.998   6.202  11.113  0.0425 -0.2388 -0.1549
17029W        W17229   6.434   3.346   3.763  0.0645 -0.1196  0.0241
17030W        W17230   7.541   7.900   0.218  0.0144  0.1259  0.1963
17031W        W17231   2.442   7.592   4.793 -0.1121  0.1629 -0.0382
17032W        W17232   3.675   8.624   9.398  0.0436  0.0689  0.0402
17033W        W17233   4.818   2.973  12.314 -0.0752 -0.0125 -0.2650
17034W        W17234  13.800  14.191  12.287  0.0749 -0.1481  0.0326
17035W        W17235  14.702   0.152   1.081 -0.1490  0.3649 -0.2098
17036W        W17236  14.681   0.793  13.809  0.1090  0.0323 -0.5159
17037W        W17237  12.139   1.905  15.121 -0.0326 -0.0498  0.1271
17038W        W17238   3.589   7.867   6.796 -0.0191  0.0995 -0.1692
17039W        W17239   6.881   5.878  11.174 -0.0798  0.1874  0.0984
17040W        W17240  10.077   8.547   9.810  0.3493 -0.2985 -0.1735
17041W        W17241   5.444   3.452   9.191 -0.1610 -0.1711 -0.0131
17042W        W17242   5.717   2.384   9.524 -0.0970  0.1059 -0.0296
17043W        W17243   6.750  11.975  13.359 -0.0545  0.1615 -0.0985
17044W        W17244   5.966   1.820   7.398 -0.0030  0.0062  0.5003
17045W        W17245  11.589   2.202  14.083  0.2727 -0.2425 -0.3577
17046W        W17246  13.876   6.181  10.623 -0.1617  0.1394 -0.3842
17047W        W17247   1.180  11.894   9.581  0.2371 -0.1568  0.1121
17048W        W17248  10.391   2.757  14.728 -0.1932  0.0456 -0.2173
17049W        W17249  11.087   1.256   2.159  0.2155 -0.2059  0.0050
17050W        W17250   5.095   6.308   3.343  0.2440 -0.1963  0.0798
17051W        W17251   9.628   5.486   1.669  0.0837 -0.5791 -0.1568
17052W        W17252  11.999  12.938   9.570 -0.2560  0.2358  0.2395
17053W        W17253   9.236  10.677   6.450  0.0604  0.1543 -0.2510
17054W        W17254   9.644   1.233   0.866 -0.0085  0.0440 -0.5408
17055W        W17255  10.923   7.490  10.370  0.2786 -0.2393  0.1539
17056W        W17256  10.594  14.880  12.857  0.0085  0.0269  0.0432
17057W        W17257  10.199  13.987   1.581  0.4545 -0.1516 -0.3177
17058W        W17258  10.807   2.583  13.527 -0.2830 -0.2908  0.1429
17059W        W17259  14.877  11.139  13.983  0.0444  0.3382 -0.2313
17060W        W17260  12.811  13.053  10.174 -0.0198  0.1739  0.2070
17061W        W17261  12.078   7.930  10.443 -0.1290 -0.1988 -0.0465
17062W        W17262  10.790   8.171  14.421 -0.2143  0.0453  0.0128
17063W        W17263   4.046   6.563  13.260  0.0604 -0.0333 -0.3080
17064W        W17264  11.545   8.977   5.238 -0.0562  0.0050  0.2501
17065W        W17265   2.394   3.199   7.988 -0.0661 -0.2444  0.0253
17066W        W17266  10.946   1.132   6.169  0.0870 -0.0129 -0.1449
17067W        W17267  14.379   4.770  12.187 -0.0802 -0.1806 -0.0858
17068W        W17268   0.342   0.849  11.272 -0.0357 -0.0133 -0.2127
17069W        W17269   8.096   6.143   6.202  0.0496  0.1834  0.3471
17070W        W17270  12.194   0.116   0.771 -0.1771 -0.2175  0.1009
17071W        W17271  10.596   2.022   9.992  0.0070 -0.0087 -0.1158
17072W        W17272  11.096   8.506   1.170  0.3201  0.2042 -0.1104
17073W        W17273   8.268   9.098  10.719  0.2115  0.2655  0.1081
17074W        W17274   1.428  11.253  14.829  0.1199  0.0487 -0.0893
17075W        W17275   7.076   3.404   6.746 -0.3055 -0.2588  0.1096
17076W        W17276   2.044   4.259  15.080 -0.1108  0.0059  0.2457
17077W        W17277  10.185   3.863   7.338  0.4856 -0.0236 -0.3249
17078W        W17278   8.037  15.189  14.824  0.1804 -0.1854  0.0301
17079W        W17279  14.634   8.114   3.949  0.0774  0.2080  0.2608
17080W        W17280  11.638   5.577   0.549  0.2021  0.3141  0.0993
17081W        W17281   6.192   3.242   1.533 -0.2526  0.0761 -0.0877
17082W        W17282  12.251  14.352   9.459  0.0259 -0.0953 -0.1527
17083W        W17283  11.253   5.857   7.603  0.1047 -0.1314 -0.1480
17084W        W17284   9.545   3.040  10.013  0.1956  0.2601  0.1663
17085W        W17285   4.423  10.256   9.842  0.2333 -0.2604  0.3423
17086W        W17286   0.816  11.074  13.563  0.0816 -0.1967 -0.2490
17087W        W17287  12.847  10.923   0.831  0.0059 -0.1891 -0.0628
17088W        W17288   6.394   9.102  11.692 -0.1953  0.0213  0.2611
17089W        W17289  14.439   0.024   5.457 -0.1444  0.0358  0.0140
17090W        W17290   5.695   5.340   2.547  0.3226  0.1384  0.0935
17091W        W17291   5.063  11.470   7.522 -0.1068 -0.1137  0.5500
17092W        W17292   8.597   0.171  14.545 -0.1637  0.0900  0.2927
17093W        W17293   7.979   3.140  14.684 -0.1116 -0.1700  0.3496
17094W        W17294  11.329   7.823   8.320 -0.0891 -0.2894 -0.2300
17095W        W17295   4.555   0.745  13.706  0.0384  0.0648  0.1027
17096W        W17296   6.441  12.833   1.633  0.0559  0.0369  0.1368
17097W        W17297   6.220  11.680  11.865  0.0334  0.0097 -0.0057
17098W        W17298   9.357   1.403   1.540 -0.1242 -0.0781  0.0573
17099W        W17299   9.974   7.094  11.227  0.0574  0.1637  0.1864
17100W        W17300  12.154   6.472  11.076 -0.0716 -0.0249 -0.0270
17101W        W17301  12.085  13.505   1.874 -0.1347 -0.3110 -0.1554
17102W        W17302   7.597  10.344  14.524  0.1072 -0.2180 -0.1105
17103W        W17303   4.416   6.454  10.418  0.2807  0.0870  0.2762
17104W        W17304   0.322   9.661   5.697 -0.0722  0.3251  0.0565
17105W        W17305   6.408   5.734   4.144 -0.1388 -0.2318 -0.0538
17106W        W17306   9.458  15.116   0.768 -0.3890  0.1253  0.2688
17107W        W17307   9.424  15.031   2.150  0.0290 -0.2671 -0.0425
17108W        W17308   0.451   4.371  14.506  0.1136  0.1851  0.2701
17109W        W17309   7.270  13.806   6.568  0.2004 -0.2356 -0.0294
17110W        W17310   9.272   4.889   7.617 -0.1551 -0.2463  0.1137
17111W        W17311   8.874  10.322   1.126 -0.2233  0.0482  0.2132
17112W        W17312   6.099   9.638   8.906  0.0717 -0.2132 -0.0624
17113W        W17313  11.959  11.283  12.815 -0.0688  0.2115  0.2684
17114W        W17314   6.792   1.509   8.261  0.0267 -0.0520 -0.0101
17115W        W17315  13.939   9.379  14.874 -0.4293 -0.1993  0.2771
17116W        W17316   4.251   3.964   9.700 -0.3046 -0.1862  0.0456
17117W        W17317  11.501   7.681  11.292  0.0062 -0.0148  0.1262
17118W        W17318  14.943   6.826  13.792  0.1755 -0.2211  0.3146
17119W        W17319  11.727   5.912   4.618  0.1088 -0.1148  0.1727
17120W        W17320   4.637   9.049  10.108 -0.1395  0.0932 -0.0896
17121W        W17321   1.929  12.294   0.632  0.2650 -0.1699 -0.0851
17122W        W17322  10.952   2.616   0.310 -0.1105 -0.0052 -0.3866
17123W        W17323   0.213   5.958   2.726 -0.2885 -0.2753  0.0358
17124W        W17324   1.705   2.955   9.041 -0.0001 -0.4546 -0.0034
17125W        W17325   7.569   3.246  12.139 -0.1371 -0.0531  0.1438
17126W        W17326   6.891   3.313  12.801 -0.0447 -0.2553 -0.0013
17127W        W17327   2.747   3.581  10.487  0.1990 -0.0469  0.2910
17128W        W17328  13.578  13.095   0.616 -0.1294  0.0486  0.2876
17129W        W17329  13.061   2.589   1.887  0.1105  0.1066  0.1469
17130W        W17330   0.231   6.977   7.499  0.0918 -0.1935  0.1135
17131W        W17331  11.110   2.119   1.004  0.0685  0.1151 -0.3119
17132W        W17332  11.523   8.391   2.171  0.1282  0.0656  0.1414
17133W        W17333   2.807   2.100   1.792 -0.0749  0.2606 -0.0459
17134W        W17334   0.528   6.017  10.867 -0.0617 -0.1056  0.0162
17135W        W17335   6.197   3.290   5.550  0.2810 -0.1557 -0.1561
17136W        W17336   6.103  10.937  12.027  0.1001 -0.2854 -0.0594
17137W        W17337   3.408  13.485  13.056 -0.0475 -0.0678  0.2112
17138W        W17338   9.005   4.583   6.198  0.0503 -0.0549  0.0516
17139W        W17339  14.323   4.944   0.640 -0.0901 -0.1113  0.0050
17140W        W17340   8.839   2.800   6.436  0.0256 -0.2564 -0.0111
17141W        W17341   3.813   4.889   4.456 -0.0001 -0.2365 -0.1739
17142W        W17342  11.656   9.722   0.495  0.2126 -0.2274 -0.1943
17143W        W17343  14.858  13.498   7.404  0.2060  0.0823  0.0247
17144W        W17344  12.590   3.033  10.758 -0.3849  0.0322 -0.1438
17145W        W17345   3.225   6.924  14.895  0.0916  0.0936  0.1210
17146W        W17346   7.916  14.212   1.060 -0.0704  0.1464  0.0153
17147W        W17347   8.249   6.498   8.765  0.3175 -0.1366 -0.0085
17148W        W17348   9.072   9.781  11.459 -0.3028 -0.2632 -0.0536
17149W        W17349  13.482   8.989  12.324 -0.0597  0.0224  0.2896
17150W        W17350  12.965   9.007  11.001  0.3597  0.2556  0.0286
17151W        W17351   5.626  13.842   5.167  0.3141 -0.0203 -0.1761
17152W        W17352   8.044   6.717   8.417  0.1899  0.1619  0.0195
17153W        W17353   3.619   1.794   5.654 -0.2352 -0.0719  0.0648
17154W        W17354   6.278   2.588   1.397  0.1187 -0.1182 -0.0743
17155W        W17355   9.681   8.179  10.378 -0.2722 -0.1777  0.0458
17156W        W17356   8.100   2.401  14.013 -0.1119 -0.0507 -0.1088
17157W        W17357   4.128   9.375  13.026  0.0936  0.0927 -0.3480
17158W        W17358   3.167   8.667  13.386 -0.0514 -0.0323 -0.0784
17159W        W17359   4.740   8.655   5.265  0.0490 -0.0602 -0.0109
17160W        W17360   3.133   7.036  11.050 -0.1161  0.2202  0.0611
17161W        W17361   8.760   5.051   5.563 -0.0339  0.0120 -0.1706
17162W        W17362  14.592  15.098   0.168  0.0660 -0.1315 -0.0951
17163W        W17363   8.861   6.463  12.918 -0.0318  0.0613  0.2340
17164W        W17364  13.609   4.725  13.897  0.0997 -0.3433 -0.0169
17165W        W17365  11.662   5.060   1.776 -0.0147 -0.2547 -0.0835
17166W        W17366  12.768   1.357   8.787 -0.2014  0.3476  0.0721
17167W        W17367   7.736   5.115  14.568  0.2752  0.3370  0.1400
17168W        W17368   7.757   0.253   5.548 -0.0801 -0.1948 -0.1858
17169W        W17369   8.940  13.173  13.074  0.2662 -0.2015  0.2594
17170W        W17370   7.778   0.232   8.130  0.1292 -0.0621  0.2218
17171W        W17371  13.472   0.871  12.970 -0.0832  0.0075  0.0094
17172W        W17372  13.059   0.038  12.443  0.0849 -0.0430 -0.2722
17173W        W17373   6.819   2.604   9.024 -0.0718  0.1650 -0.0535
17174W        W17374   6.983   4.132   0.055 -0.0924  0.0988 -0.1444
17175W        W17375   6.012   5.678   2.348  0.3388  0.0180 -0.0792
17176W        W17376   1.169   9.439  10.874 -0.2040 -0.0580  0.2725
17177W        W17377   4.282   4.196   2.767  0.0181 -0.1250 -0.1508
17178W        W17378   2.401   0.370  10.998  0.3038  0.0229 -0.2587
17179W        W17379   6.060   3.756  10.876  0.0288 -0.2414 -0.0993
17180W        W17380   6.375  13.392   0.613 -0.0074  0.0314  0.2777
17181W        W17381  11.010  14.505   4.028 -0.1075 -0.1858 -0.1686
17182W        W17382  12.606  10.684  13.944 -0.1127  0.1076 -0.1709
17183W        W17383  11.484  11.602  14.532  0.2591  0.2007  0.4977
17184W        W17384   5.146   6.729  11.034  0.0499  0.0201  0.0558
17185W        W17385   6.082   6.491  12.507 -0.0781 -0.2065 -0.0075
17186W        W17386   8.324   3.834   9.706 -0.1160  0.0821  0.0685
17187W        W17387   9.126   6.351  14.488  0.0707 -0.2768 -0.0733
17188W        W17388   2.016   7.334  10.898  0.0204  0.2479  0.0350
17189W        W17389  11.179  15.106   9.854  0.0132  0.3587 -0.0279
17190W        W17390   3.732   7.812  12.376  0.0329  0.2771  0.0952
17191W        W17391   7.388   1.835   0.869 -0.0769  0.3783  0.0332
17192W        W17392   5.478   0.800   2.477 -0.1033  0.0781  0.0208
17193W        W17393   8.930   5.908   6.304  0.1198  0.2696  0.1065
17194W        W17394  13.646   2.163   0.613  0.0291 -0.3362  0.0316
17195W        W17395   7.332   0.511   1.866 -0.0148 -0.1840 -0.1423
17196W        W17396   6.437   0.427  12.624  0.1513 -0.1536 -0.0434
17197W        W17397  14.079   7.701   8.016  0.1852 -0.1327  0.0168
17198W        W17398  13.880   8.237   5.084  0.3100  0.2250  0.0885
17199W        W17399  10.527  11.314   8.377 -0.0609  0.3423  0.0317
17200W        W17400   0.135   8.980   0.254  0.2411  0.2136 -0.0654
17201W        W17401   6.711  11.564   9.095 -0.4018  0.2548 -0.0698
17202W        W17402   2.864   3.538   6.634  0.3082  0.1596  0.2671
17203W        W17403  12.704   2.656   4.837 -0.2520  0.0602  0.0823
17204W        W17404   8.581  11.436   7.547 -0.1270 -0.0062  0.1431
17205W        W17405  13.772   1.191   5.256 -0.3960 -0.2297 -0.2818
17206W        W17406   0.656   1.147   0.211 -0.1750  0.0328 -0.3765
17207W        W17407   5.684   6.488   1.513 -0.1348  0.0509  0.1880
17208W        W17408  13.111  12.479   0.031 -0.0421 -0.1260 -0.2578
17209W        W17409   5.441   2.633  11.833 -0.0285  0.2481 -0.0521
17210W        W17410   1.574   2.631   6.173  0.1360 -0.0773 -0.2383
17211W        W17411   5.872   3.773  14.286 -0.2574  0.1888 -0.2273
17212W        W17412   6.491  14.730   7.013 -0.2244 -0.1005  0.0206
17213W        W17413  14.311  13.448   1.104 -0.1783 -0.0154  0.0275
17214W        W17414   8.183   7.827   2.468 -0.3496  0.1143 -0.0775
17215W        W17415  12.727  11.236  10.031 -0.2054 -0.1789 -0.2160
17216W        W17416   3.897  13.716   3.985 -0.0566 -0.1338 -0.2988
17217W        W17417   9.712  10.591  10.729 -0.2271  0.0311  0.1378
17218W        W17418   1.379   2.314   8.760 -0.2201 -0.0783 -0.1054
17219W        W17419   9.827   0.130  14.156 -0.0615 -0.1670 -0.1268
17220W        W17420  12.544  10.176   1.023 -0.0221  0.0288  0.0186
17221W        W17421   6.748   6.077   1.822  0.3518  0.0903 -0.1850
17222W        W17422  11.019  14.588   4.567 -0.0138  0.2453 -0.0742
17223W        W17423  11.102  13.752  13.389  0.0336 -0.0840 -0.2374
17224W        W17424  10.682  12.160  13.161  0.0169 -0.3435  0.1702
17225W        W17425   3.281   8.002  10.698 -0.0441 -0.3995 -0.3855
17226W        W17426  12.466   2.542   3.557  0.1344  0.1201 -0.1516
17227W        W17427  11.041   8.807   6.165 -0.0730  0.1815 -0.1357
17228W        W17428   6.295   8.881   3.150  0.0958 -0.2480 -0.0264
17229W        W17429   5.299   6.877   1.396  0.1262 -0.0450  0.2903
17230W        W17430   9.823  13.514  10.356  0.2038  0.1520 -0.1247
17231W        W17431  10.978   5.575   6.535 -0.1660  0.1071 -0.3729
17232W        W17432   0.119   5.334   4.532 -0.0481  0.0510  0.1323
17233W        W17433   9.534   9.527   3.633 -0.0267 -0.1833  0.0797
17234W        W17434   6.105   8.498  12.243 -0.0199 -0.3002  0.0825
17235W        W17435   0.418   1.929   0.001 -0.2544  0.0285 -0.0525
17236W        W17436  11.883   7.974   2.218  0.1851 -0.2765 -0.0144
17237W        W17437   9.489  10.841   8.572 -0.1006 -0.0973  0.0433
17238W        W17438  10.827   7.789   0.588 -0.0122 -0.1443 -0.2518
17239W        W17439  11.876   2.918  13.125 -0.2004  0.2103 -0.0908
17240W        W17440  11.050   6.951  13.531  0.0213  0.1877  0.0763
17241W        W17441   6.942  10.741  11.389  0.1681 -0.0323  0.0887
17242W        W17442   3.849   4.238  13.613 -0.1297 -0.0896  0.1958
17243W        W17443   7.073   6.941  15.192 -0.0273  0.1329 -0.0613
17244W        W17444  10.146   3.412   3.217 -0.0617 -0.0440  0.3733
17245W        W17445  10.547   2.472   5.608  0.1581 -0.1200  0.1463
17246W        W17446   3.499   9.870  14.673 -0.0701 -0.4899  0.0091
17247W        W17447   2.127   6.601   2.825 -0.3618 -0.2170 -0.0675
17248W        W17448   6.640   7.919   6.504  0.1903 -0.0080  0.1267
17249W        W17449   8.450   5.540   8.133 -0.1363  0.0818  0.0496
17250W        W17450   4.859  14.618   3.323 -0.0160 -0.2886  0.2035
17251W        W17451   9.640   1.100  12.687  0.0131 -0.0619 -0.0045
17252W        W17452   7.981   0.712   5.480 -0.1899  0.0504 -0.3243
17253W        W17453  13.328   6.847  13.461  0.0558 -0.1591 -0.1176
17254W        W17454   5.497  12.427   4.242 -0.0440 -0.1580 -0.4034
17255W        W17455   0.445   2.254   4.091  0.1490 -0.1853  0.3530
17256W        W17456   4.452   7.294  11.142  0.2327 -0.0273 -0.1914
17257W        W17457   6.409   8.031   1.039  0.2428  0.2598 -0.0394
17258W        W17458   1.649   2.699   6.712 -0.0240  0.0561  0.0005
17259W        W17459  14.278   5.308  12.935  0.1902  0.3963 -0.1337
17260W        W17460   2.169  14.278   4.929  0.0700 -0.2202 -0.3378
17261W        W17461   3.642  11.309  14.752 -0.3083  0.0496  0.0977
17262W        W17462  12.451   3.768   8.962 -0.2414  0.0938 -0.0176
17263W        W17463  10.952   4.771   3.698  0.0698  0.3380 -0.0306
17264W        W17464  12.367   0.130  14.944  0.1516  0.0828 -0.1202
17265W        W17465   4.607   4.013   0.789  0.0269  0.2597  0.1586
17266W        W17466   3.499   7.306  15.032 -0.1403 -0.0591 -0.0959
17267W        W17467  10.846   9.034   4.537  0.0377  0.0445 -0.1559
17268W        W17468   5.147   3.723   3.366  0.1841 -0.0603 -0.2986
17269W        W17469  10.043   1.994   2.531  0.1170  0.3223  0.0222
17270W        W17470   6.921   5.992   3.177 -0.0617 -0.2434 -0.0798
17271W        W17471  10.979  14.523  10.457  0.0293  0.3351 -0.3882
17272W        W17472  10.676  10.676   7.749 -0.1156 -0.1965 -0.0512
17273W        W17473  11.802  14.212   5.751 -0.0585 -0.0127 -0.0012
17274W        W17474   9.367  10.428   3.996 -0.2398  0.2553  0.1996
17275W        W17475   8.598   6.417   8.374  0.2638 -0.0170 -0.0857
17276W        W17476  15.120   7.494   1.114  0.3667  0.0127  0.0333
17277W        W17477   9.787   5.457   6.210  0.2715 -0.3078 -0.1276
17278W        W17478  13.400   8.378   2.483  0.3100  0.0142 -0.1947
17279W        W17479  13.083   8.197   1.361  0.1891 -0.1419  0.2493
17280W        W17480   8.114   4.746   1.605 -0.0860  0.1788  0.0080
17281W        W17481  12.602  15.092   1.611  0.2883  0.0786  0.1108
17282W        W17482  14.969   6.151   4.836  0.0488  0.0926 -0.3508
17283W        W17483   5.258   8.749  12.267  0.1429  0.2499  0.1629
17284W        W17484  14.618   5.638   2.611 -0.1272 -0.0087  0.1894
17285W        W17485   9.604   7.060   0.373 -0.0467 -0.0956  0.1688
17286W        W17486   5.678  13.787   2.669  0.1140  0.2491  0.0314
17287W        W17487  13.834   5.042  10.264  0.1694 -0.1827 -0.1365
17288W        W17488  13.093   1.380   7.046  0.0430 -0.1582 -0.0694
17289W        W17489   6.854   7.742   2.949 -0.2462 -0.1343  0.0326
17290W        W17490   7.214   1.710   5.378  0.0507 -0.0801  0.2906
17291W        W17491  10.316  10.432   8.765 -0.0166  0.0719  0.1326
17292W        W17492   7.806   3.977   5.585  0.0743 -0.0332  0.0400
17293W        W17493   5.192   7.459   7.982  0.0399  0.0281 -0.2028
17294W        W17494  13.442   9.499   1.099 -0.0311 -0.2391 -0.0809
17295W        W17495   9.609   9.155  10.125  0.0237  0.2063  0.0988
17296W        W17496   3.895   9.753   2.056 -0.0178  0.4243 -0.0275
17297W        W17497  11.974   8.411  12.189 -0.2079 -0.1108  0.2786
17298W        W17498   7.971   3.776   0.109  0.1287 -0.2347  0.0375
17299W        W17499  10.481  10.285  13.263  0.0230 -0.0362  0.0511
17300W        W17500   8.339   1.362   5.100  0.0798 -0.1291  0.1029
17301W        W17501  11.438   0.192   5.242  0.1661 -0.1479 -0.1448
17302W        W17502  13.922   5.406  14.288 -0.0015 -0.0301 -0.1238
17303W        W17503   4.717   7.899  11.769  0.0997  0.2254 -0.0513
17304W        W17504  10.818   3.748   5.228  0.1338  0.1766  0.2484
17305W        W17505   4.955   4.216   8.715 -0.0322  0.1392 -0.1655
17306W        W17506  14.171  11.023   6.471  0.0218  0.1632  0.3595
17307W        W17507   6.258   4.840   1.065 -0.2738 -0.2510 -0.0172
17308W        W17508   1.646   8.478   4.586 -0.2662 -0.1849 -0.0476
17309W        W17509   0.228  12.648  12.568 -0.0099 -0.1576  0.0911
17310W        W17510   5.166   2.122   5.037 -0.4003 -0.1413 -0.0027
17311W        W17511   5.136  11.227  12.244  0.0804 -0.0548  0.1821
17312W        W17512  13.200  12.645   3.848  0.3380 -0.2973 -0.1127
17313W        W17513  14.749   8.164  12.293  0.0058  0.1682 -0.1180
17314W        W17514   8.680  14.486  15.037 -0.2144  0.0648  0.0410
17315W        W17515   9.372   6.614   4.969  0.2056  0.0173  0.0369
17316W        W17516  14.353   7.338  13.577 -0.0791  0.1432 -0.0866
17317W        W17517  14.680   5.479   1.781  0.1664 -0.1186  0.2270
17318W        W17518   9.193   4.975   5.976 -0.1178 -0.2500  0.0345
17319W        W17519   0.121  11.077   2.901  0.0041  0.0251 -0.2989
17320W        W17520   0.579   2.390   0.067 -0.0899 -0.1368  0.3566
17321W        W17521   7.160   8.507  14.887  0.3542  0.1332 -0.0319
17322W        W17522   6.392  13.680   0.169 -0.0348  0.2246 -0.3520
17323W        W17523  12.092  10.919   1.309 -0.0280  0.1162  0.3117
17324W        W17524   4.535  13.734  14.367  0.0846 -0.0465 -0.1854
17325W        W17525   8.839   0.044  10.642  0.1840 -0.0188  0.4084
17326W        W17526   8.577   3.892   6.912  0.0156 -0.1268  0.3194
17327W        W17527  14.002   7.080   2.055 -0.0888  0.0093 -0.2528
17328W        W17528   7.106  11.738   7.774  0.1208 -0.0054 -0.0959
17329W        W17529   4.478   7.531   5.447 -0.1861 -0.0263  0.0777
17330W        W17530  11.997  13.132   0.572 -0.1629  0.0512 -0.3060
17331W        W17531   0.616   7.488  13.680 -0.3379 -0.0562 -0.1577
17332W        W17532  14.957   3.453  11.958 -0.1865  0.0005 -0.2070
17333W        W17533  11.208   2.753   6.178 -0.1056 -0.4816 -0.0668
17334W        W17534   2.261   9.004   1.964  0.0969  0.3444  0.0376
17335W        W17535  10.700   5.270   2.476  0.1124  0.2412  0.1168
17336W        W17536   6.473   2.292  11.971 -0.1277  0.1423 -0.1839
17337W        W17537   9.219  14.169  14.717 -0.1378  0.1629  0.2896
17338W        W17538   8.518  13.075   1.660 -0.0316 -0.0424  0.1848
17339W        W17539  14.348   6.851  11.945  0.1096  0.0286  0.0570
17340W        W17540   9.232  13.376   4.810 -0.0262 -0.0694  0.1805
17341W        W17541   4.608  11.321   5.967  0.0545 -0.2774 -0.0370
17342W        W17542   8.437   9.599   0.858 -0.0321 -0.1274  0.0602
17343W        W17543  11.264  11.958   5.429 -0.2453  0.0291  0.0950
17344W        W17544   2.677   3.947  12.558 -0.2281 -0.2016  0.0864
17345W        W17545  12.495   9.239   0.167  0.5857  0.0380  0.1826
17346W        W17546  10.495   6.221  13.138  0.1409 -0.0689 -0.1367
17347W        W17547  11.086  12.432   5.266 -0.1645  0.3656 -0.0786
17348W        W17548  10.706  11.354   7.916 -0.1162 -0.2591 -0.0168
17349W        W17549   2.870   4.766   6.250 -0.1645 -0.1455  0.1303
17350W        W17550  14.738   6.962   6.642  0.0764  0.0488 -0.1329
17351W        W17551  12.010   2.581   7.604  0.0159 -0.0306 -0.0023
17352W        W17552  11.518   3.587  12.169  0.0162 -0.0267  0.1008
17353W        W17553   8.366   4.425   2.698 -0.0441  0.1181  0.0340
17354W        W17554  10.136   6.706   2.575 -0.1258 -0.0025  0.1123
17355W        W17555  10.709   9.055  13.457 -0.0794  0.0430  0.1872
17356W        W17556  10.816  13.915   0.529  0.0875 -0.0115  0.0558
17357W        W17557  11.189  10.361   3.955  0.2457 -0.4812  0.1145
17358W        W17558  10.822   4.598   6.678 -0.0841  0.3468 -0.1241
17359W        W17559  10.402   4.863   4.466  0.3008  0.0398  0.0413
17360W        W17560   9.182   7.427   6.660  0.4854 -0.0346 -0.0478
17361W        W17561   6.808  13.683   0.518 -0.0626  0.1833  0.0329
17362W        W17562   7.122   2.137  10.706  0.0378 -0.2623  0.1465
17363W        W17563   4.607   6.331   5.108  0.0697  0.1509  0.3038
17364W        W17564  14.013  13.968  10.200  0.1037 -0.0360  0.0728
17365W        W17565   3.692   2.489  14.139 -0.0792 -0.2431 -0.0749
17366W        W17566  10.536  12.733   9.248 -0.2457  0.0760 -0.4682
17367W        W17567  10.988   8.480  14.039 -0.2693  0.1616  0.0851
17368W        W17568   8.305  13.763   9.112  0.1015  0.0265  0.3024
17369W        W17569   6.552   9.970   4.680  0.1319  0.2697  0.1454
17370W        W17570  10.461  10.005  12.576  0.0055 -0.1357 -0.0294
17371W        W17571   9.298  12.071  15.025 -0.0738  0.1179 -0.0106
17372W        W17572  13.861   5.921  15.051 -0.0839 -0.1875 -0.0244
17373W        W17573   8.672  10.660  12.674 -0.0287  0.1725  0.2182
17374W        W17574  12.198   5.216   0.262  0.0164 -0.0468  0.2272
17375W        W17575   5.347   7.499   3.971  0.5405  0.0191 -0.2320
17376W        W17576   9.593   2.795   3.586  0.1377  0.1918  0.1195
17377W        W17577  11.679   2.442   1.308  0.1619 -0.0437 -0.1297
17378W        W17578   4.932  10.930  12.586 -0.2951 -0.0886 -0.1010
17379W        W17579   8.761  11.320   0.969  0.2929  0.3348  0.2682
17380W        W17580   4.370   1.240  11.236 -0.0134  0.0351 -0.1331
17381W        W17581   0.176   6.071   1.966 -0.3515 -0.0045 -0.1913
17382W        W17582   5.576   5.683   7.142 -0.1413  0.0855  0.0618
17383W        W17583   7.214   6.551  13.854  0.3922  0.0547 -0.1421
17384W        W17584   3.223  12.546   9.966 -0.1479  0.1165  0.0701
17385W        W17585  12.768   9.492  11.106 -0.0314  0.0286 -0.2280
17386W        W17586   3.606   6.969   2.887 -0.2952 -0.1999  0.2553
17387W        W17587   7.784   3.974   1.106 -0.1083 -0.1064 -0.1855
17388W        W17588  11.428   1.291   9.416 -0.1948  0.1983  0.0375
17389W        W17589  10.527  13.005   3.265  0.1902  0.2066  0.0571
17390W        W17590   6.265  11.033   8.729  0.0206 -0.0258 -0.1935
17391W        W17591   6.892   1.735   0.964  0.1186  0.1127  0.0359
17392W        W17592   5.521   5.590   5.420  0.0011 -0.0668 -0.3461
17393W        W17593   2.761   4.299  14.726 -0.3315 -0.2932 -0.1130
17394W        W17594   9.299   7.433   6.145 -0.0036 -0.3895  0.0251
17395W        W17595   1.264   7.034   6.328 -0.2114 -0.2502  0.2256
17396W        W17596   4.155  13.008   1.417 -0.1208 -0.0962 -0.0053
17397W        W17597   1.644  10.608   8.685 -0.1602  0.0487  0.2938
17398W        W17598   0.397   8.980   4.989  0.0694  0.1301 -0.0935
17399W        W17599  14.472   9.442   3.647  0.1273  0.0023 -0.3128
17400W        W17600  12.156   0.600   8.451 -0.1432 -0.5294  0.1323
17401W        W17601   9.310  12.612  12.157  0.0494  0.0669  0.0959
17402W        W17602   9.654   7.867   3.842 -0.1939  0.0689  0.0937
17403W        W17603   5.189   3.936   4.457 -0.0627  0.0866  0.0000
17404W        W17604   5.592  10.512  13.290 -0.0665  0.1765  0.0297
17405W        W17605   9.535  10.439   7.725  0.3017 -0.0454  0.3040
17406W        W17606   7.809  12.181   7.599  0.0991 -0.0718 -0.3753
17407W        W17607   2.022   7.204   4.717  0.1323 -0.1060 -0.1596
17408W        W17608   9.913  11.293   1.501  0.2776  0.4240  0.3767
17409W        W17609   6.400  11.049   7.495 -0.0707  0.1054 -0.0239
17410W        W17610   5.673  14.008   9.659  0.1533  0.2190 -0.2266
17411W        W17611   7.283   8.390   7.149 -0.0694  0.0716 -0.1230
17412W        W17612  13.858   8.985   3.368 -0.1783  0.1390 -0.1583
17413W        W17613   8.948   7.711  14.150  0.0288 -0.0129  0.1134
17414W        W17614  10.247   4.961   2.585 -0.2109 -0.3563 -0.0483
17415W        W17615   4.994   4.299   0.032 -0.0997  0.1517  0.0281
17416W        W17616  14.446   8.915  10.252  0.1186 -0.3165  0.2123
17417W        W17617   5.992  11.270   7.963  0.1751 -0.0049 -0.1453
17418W        W17618   7.978   7.866   1.330  0.0094 -0.0615  0.2913
17419W        W17619   0.092  11.159   8.997 -0.1071 -0.1749  0.2842
17420W        W17620  10.795   8.461  10.082 -0.0551  0.2856 -0.1661
17421W        W17621   9.720  11.149   9.065 -0.3524 -0.1287 -0.1772
17422W        W17622   7.561  15.164   3.702 -0.4250  0.2961 -0.1382
17423W        W17623  13.473   6.543   4.343  0.3438  0.2509 -0.0337
17424W        W17624   9.574   7.932   9.396  0.1984 -0.2368  0.1976
17425W        W17625   2.915   7.005  11.519  0.1370  0.1148  0.1782
17426W        W17626   9.959   8.958   2.859 -0.1170  0.2460  0.1712
17427W        W17627  11.053  10.115  14.870 -0.2397  0.1244 -0.2399
17428W        W17628   5.801   9.853  11.458  0.3557 -0.4348 -0.1684
17429W        W17629   3.938   9.187   5.192  0.3932 -0.3463  0.0898
17430W        W17630   5.526  11.481   9.312 -0.0017 -0.3634 -0.0979
17431W        W17631   7.350   3.763   7.453 -0.0411 -0.1202  0.1348
17432W        W17632  11.263   9.744   3.033 -0.0216 -0.0946  0.2311
17433W        W17633  12.100   3.725   2.691 -0.0921 -0.1341 -0.1516
17434W        W17634   6.658   6.171  11.552  0.1704  0.0803  0.0305
17435W        W17635  14.647  12.775   4.472 -0.2191  0.1715  0.4746
17436W        W17636   7.622   6.302   1.884  0.1559 -0.2407  0.0383
17437W        W17637  13.482   2.255  14.791 -0.3378 -0.0695 -0.0835
17438W        W17638   2.270   6.879   7.734 -0.0497 -0.1963  0.0656
17439W        W17639   3.371   9.107   1.968 -0.2405 -0.1053 -0.0526
17440W        W17640   7.497   1.729   3.805  0.2599 -0.1443  0.0922
17441W        W17641   6.288  10.536  13.944  0.0861  0.0003 -0.2028
17442W        W17642   5.313   7.202  14.841  0.2879 -0.0346 -0.0396
17443W        W17643  14.204   4.182   7.466 -0.1226  0.1891 -0.1964
17444W        W17644   4.826  11.975  14.150 -0.1542 -0.3433 -0.0250
17445W        W17645  12.203   8.371   3.471 -0.0789 -0.0186 -0.0903
17446W        W17646  11.783  12.832  12.073 -0.0360  0.1834 -0.2074
17447W        W17647   1.670  12.193   2.688  0.0949 -0.1905  0.1040
17448W        W17648   4.437   4.921  13.237  0.1423  0.0088  0.3022
17449W        W17649   9.480   4.921  15.152 -0.0480  0.4531  0.1921
17450W        W17650  11.650  10.744  13.112 -0.0898  0.0946 -0.0279
17451W        W17651   7.767  13.873   8.966  0.3739 -0.3040 -0.2164
17452W        W17652  12.133  12.261  14.038  0.2123  0.0717 -0.1599
17453W        W17653  10.250  11.575   6.505  0.0528  0.3936 -0.2050
17454W        W17654   3.359  10.681  14.246 -0.1788 -0.2192  0.0669
17455W        W17655   9.042  10.515   8.848 -0.2097  0.3473 -0.1234
17456W        W17656   7.070   3.651   6.262 -0.2202 -0.0129 -0.1428
17457W        W17657   6.099   9.212   0.196 -0.0724  0.3124 -0.0459
17458W        W17658  10.650   1.283  10.834  0.2097 -0.5211  0.1077
17459W        W17659  12.115   5.943   1.907  0.0454 -0.1458  0.1208
17460W        W17660   3.293   4.397   6.195 -0.0062  0.3694 -0.1846
17461W        W17661   6.511   9.165   9.983 -0.2414  0.3019 -0.0568
17462W        W17662  14.557  10.906   5.630  0.1863 -0.0995 -0.1076
17463W        W17663  10.344   8.057   0.915 -0.0241  0.1931 -0.1213
17464W        W17664  15.125   9.459   0.665  0.1920 -0.2067 -0.2222
17465W        W17665  11.419   9.151  12.670 -0.0365  0.2211  0.0468
17466W        W17666   6.345   8.525  13.356  0.1806  0.1978  0.0242
17467W        W17667  10.908   3.895   3.601 -0.1187  0.1376 -0.0644
17468W        W17668  14.471   4.305   4.592 -0.0982 -0.0476 -0.0618
17469W        W17669  11.561  10.520   2.074  0.0791 -0.3660  0.0616
17470W        W17670   4.589  14.338   3.573  0.0946 -0.0615  0.1577
17471W        W17671  15.160  12.796  12.172  0.1383 -0.1439 -0.0821
17472W        W17672   6.197   3.020   6.785 -0.0459  0.0549 -0.0891
17473W        W17673   2.516  10.012  14.073 -0.2928 -0.0803 -0.2205
17474W        W17674   8.344   8.186   1.317  0.1228  0.0269 -0.0300
17475W        W17675   3.558   3.637   2.547 -0.0896  0.1399  0.0460
17476W        W17676   3.740  13.702   1.326  0.1004 -0.1996 -0.0824
17477W        W17677   3.470   3.794   1.366 -0.0260 -0.0528 -0.0021
17478W        W17678   9.983  11.615   7.829  0.0240  0.1043  0.3670
17479W        W17679   8.588  13.781  14.223  0.2219  0.1735 -0.0423
17480W        W17680   7.413  12.776  11.145 -0.0941 -0.0060  0.0011
17481W        W17681  13.237   8.061  12.831 -0.0831  0.2163  0.1905
17482W        W17682  10.887  14.505  10.963 -0.1740 -0.0433 -0.0220
17483W        W17683  12.626   8.190   3.073 -0.1191  0.2001  0.1874
17484W        W17684   0.880  13.983   9.976  0.0864  0.2123 -0.1216
17485W        W17685   8.697  13.345   0.872 -0.2293  0.0774 -0.0801
17486W        W17686  10.725   7.211   2.031  0.2195  0.0561 -0.0731
17487W        W17687   8.276  13.037   3.052 -0.1841 -0.3122 -0.0867
17488W        W17688  11.676   4.201  12.534 -0.1623 -0.0008 -0.2338
17489W        W17689   9.731  13.985   2.259  0.0663 -0.4909  0.0096
17490W        W17690  12.663   8.572   4.976 -0.0587  0.1118  0.0333
17491W        W17691   6.951   3.615   4.641  0.0662  0.4249  0.3698
17492W        W17692  14.896   5.155   7.565 -0.1468 -0.0058  0.2858
17493W        W17693   7.744  14.146   8.501  0.0255 -0.2519 -0.0404
17494W        W17694   1.585   5.409   5.027  0.0792  0.0255 -0.0688
17495W        W17695  11.403   6.313   8.443  0.1042 -0.3407  0.2795
17496W        W17696  10.263  13.915   0.585  0.2386 -0.1275 -0.2958
17497W        W17697  10.801   4.952  12.161 -0.0963  0.2645 -0.0154
17498W        W17698   3.444   6.917   9.079 -0.1294  0.4290 -0.4546
17499W        W17699   8.560   9.731  11.559  0.4321  0.0946 -0.0800
17500W        W17700  12.877  11.907   1.795 -0.0884 -0.1868  0.1845
17501W        W17701   1.679  10.516  12.629 -0.2537 -0.2065 -0.0038
17502W        W17702  12.937   2.821   5.810 -0.1738  0.2243  0.0070
17503W        W17703   3.038  10.378   3.294  0.3381 -0.0293  0.2312
17504W        W17704   0.842   2.157   9.264 -0.0454 -0.0865 -0.1777
17505W        W17705   4.382  14.145   1.939  0.0992 -0.3378 -0.1030
17506W        W17706  12.673   1.335   5.892  0.2202 -0.0750  0.0344
17507W        W17707   9.771   5.920  12.298  0.1816  0.1382 -0.1887
17508W        W17708   8.534  12.597   5.438 -0.0507 -0.1238  0.1663
17509W        W17709   7.797  11.836   0.894  0.0675  0.0158 -0.2038
17510W        W17710  13.720   5.110   8.775  0.1496 -0.0257  0.1388
17511W        W17711  12.462   1.340   6.429  0.0915 -0.2071  0.1928
17512W        W17712  14.430  13.813  14.658 -0.1153 -0.1799  0.4491
17513W        W17713   8.505   4.598  14.671 -0.0512 -0.2400  0.1276
17514W        W17714   1.456  13.565   3.157  0.0847 -0.0467  0.0618
17515W        W17715   7.162   7.429   0.544 -0.2607  0.3462  0.0355
17516W        W17716   5.914  12.713  11.265 -0.2160 -0.2282 -0.0920
17517W        W17717   0.871   9.354   0.409 -0.0841 -0.0617  0.1456
17518W        W17718  11.039  11.084   7.071 -0.2200 -0.0827  0.1823
17519W        W17719  10.207  10.117   3.945  0.2091  0.0551 -0.0028
17520W        W17720  13.827  11.114   4.705  0.0815  0.1859 -0.1748
17521W        W17721  13.220   7.140  14.050  0.0877  0.1189  0.1594
17522W        W17722  14.447  12.638   1.547  0.0277 -0.1261  0.2306
17523W        W17723   2.793   2.583  14.964 -0.0014  0.1479  0.0133
17524W        W17724   9.572   1.711  12.904 -0.1242  0.0469  0.0391
17525W        W17725   8.230   6.658   7.366  0.0839  0.0559 -0.0076
17526W        W17726   3.657  10.539   4.166 -0.2138  0.2029 -0.1443
17527W        W17727   8.337   9.827   5.862  0.1278 -0.2677  0.0052
17528W        W17728   8.823   9.474   7.475  0.1204  0.0944 -0.1133
17529W        W17729   2.561   0.169   4.177  0.0602  0.1515  0.1588
17530W        W17730  11.495  14.591   3.879 -0.0037 -0.0599  0.1322
17531W        W17731  13.639   9.296  13.208  0.1863 -0.0487 -0.0273
17532W        W17732   5.700  11.511   1.198 -0.1182 -0.2463  0.2537
17533W        W17733   8.488  11.799   8.519  0.3044  0.1630  0.2598
17534W        W17734   6.261   8.834   1.467 -0.0356  0.2156 -0.0305
17535W        W17735  11.796  13.330   4.734  0.3409  0.0444  0.4179
17536W        W17736   7.626  10.876   1.259  0.3439 -0.1912  0.1147
17537W        W17737   6.447   0.830   1.950  0.1125 -0.1250  0.0911
17538W        W17738  15.099  12.305  14.424  0.0985  0.1884  0.0167
17539W        W17739  10.725   7.125   3.271 -0.0547 -0.1873 -0.0080
17540W        W17740   5.530   2.045   2.580 -0.0670  0.2085  0.1022
17541W        W17741  11.966   3.957   6.338 -0.0935  0.0832  0.1629
17542W        W17742   5.395   2.418   0.275  0.1547  0.1805  0.1574
17543W        W17743   6.156   0.278  14.262  0.0050  0.0032 -0.2654
17544W        W17744  14.607   6.326  13.326 -0.0438 -0.3307  0.0015
17545W        W17745   6.235   6.125  13.856 -0.1062  0.0917 -0.0439
17546W        W17746   4.422   1.760   2.249 -0.0977  0.1507  0.0928
17547W        W17747   0.966  12.169   0.915 -0.0602 -0.0034  0.2169
17548W        W17748   6.736  11.021   8.973  0.0176 -0.0568 -0.1406
17549W        W17749   8.567   7.977  10.648 -0.2194  0.1246  0.1153
17550W        W17750   8.901   8.286   0.632 -0.4818 -0.1104 -0.3645
17551W        W17751  12.346   6.307   5.867 -0.1436  0.0118 -0.5010
17552W        W17752  10.138   7.173   9.923  0.2197  0.0385 -0.2306
17553W        W17753  11.538  10.389  12.734  0.3161  0.0022 -0.1288
17554W        W17754   3.173   0.701  10.665 -0.1588  0.0556 -0.2160
17555W        W17755   4.895  11.228  11.622  0.0534  0.0781 -0.3632
17556W        W17756  14.553  10.769   8.194 -0.5116 -0.0116  0.0493
17557W        W17757  11.091   7.983   0.975 -0.0515  0.0793 -0.0296
17558W        W17758   0.887  11.036   0.133  0.0211 -0.3185  0.2399
17559W        W17759   9.826   7.573  12.474 -0.1057 -0.0212  0.0337
17560W        W17760  11.773   5.131   0.866 -0.2144 -0.2254  0.1007
17561W        W17761   7.987   9.471  14.209 -0.3182  0.2760 -0.1160
17562W        W17762  11.493   9.359   2.854 -0.2304  0.1917  0.0121
17563W        W17763   6.975   2.715  12.116  0.0238  0.3204  0.1370
17564W        W17764   6.980   7.781  12.631 -0.1263  0.2382  0.1077
17565W        W17765   6.702   9.416  10.727 -0.1601  0.1410  0.0034
17566W        W17766  11.549   6.414   5.519 -0.2829  0.0046  0.0266
17567W        W17767  12.035   9.349   0.675  0.0493 -0.0541 -0.1035
17568W        W17768   6.261  12.061  12.160  0.1108  0.0632  0.3085
17569W        W17769   5.272   0.703   0.882 -0.1154 -0.1450  0.1569
17570W        W17770   6.931   9.897   8.369 -0.1460 -0.0341  0.2766
17571W        W17771   4.185   5.259   0.433  0.0653 -0.4154 -0.1130
17572W        W17772   9.363   3.907  13.519 -0.0774 -0.0612  0.0081
17573W        W17773   7.222  10.064   5.202 -0.0008  0.0819  0.2996
17574W        W17774   1.219   8.248   8.947  0.1598 -0.1980 -0.0803
17575W        W17775  13.290  12.915  13.158  0.0985 -0.0978 -0.1193
17576W        W17776  15.035   4.886  13.527 -0.0316  0.2913 -0.0379
17577W        W17777   8.138  13.254  13.666 -0.1258  0.0590 -0.1680
17578W        W17778   3.081  10.441  12.741  0.2278 -0.0738 -0.0504
17579W        W17779   2.713   8.673   3.631 -0.0415 -0.0782  0.0658
17580W        W17780   6.597   2.922   1.747  0.2451 -0.0160 -0.1116
17581W        W17781  13.205   6.141   2.381  0.2002 -0.1681  0.0465
17582W        W17782   8.265  11.586   1.664 -0.1345 -0.3349 -0.0335
17583W        W17783   6.215   9.655   3.616  0.0178  0.0763 -0.0465
17584W        W17784  10.952   6.161  13.885 -0.1991  0.2928  0.1811
17585W        W17785   8.489   9.339  12.729  0.0357 -0.2268  0.0137
17586W        W17786   9.697   3.433   4.180 -0.0747 -0.1496 -0.1349
17587W        W17787   6.915   8.898   1.096 -0.0336  0.2884 -0.4666
17588W        W17788  11.028   0.156  15.191 -0.0040 -0.2714  0.3593
17589W        W17789  11.532   0.798   0.680 -0.1587 -0.0130 -0.1970
17590W        W17790   9.216   9.319   1.641 -0.0000 -0.0887  0.1873
17591W        W17791  11.270  12.088   3.067 -0.2848  0.1001 -0.1567
17592W        W17792  11.303   6.540  11.294  0.0740  0.1746  0.0057
17593W        W17793   5.446   8.842   1.047  0.1211 -0.1577 -0.1034
17594W        W17794   3.278   3.534   6.246  0.3084  0.3148 -0.0931
17595W        W17795  14.593  10.955  13.185  0.0143 -0.1703 -0.1620
17596W        W17796  10.229   6.975   6.408 -0.0849  0.1226  0.1350
17597W        W17797   3.686   9.429  11.583  0.0588 -0.1499 -0.0234
17598W        W17798   3.513   5.919   5.884  0.1945  0.0459  0.3165
17599W        W17799   6.794   6.955   5.683 -0.2363  0.4526 -0.0240
17600W        W17800   7.546   8.230  10.617 -0.3583 -0.0476  0.0680
17601W        W17801  11.416  11.379   0.054 -0.3184 -0.0109  0.0517
17602W        W17802   6.433   2.855  10.964 -0.2935  0.2410  0.0796
17603W        W17803   5.699  13.070   9.215 -0.1248  0.3215  0.2449
17604W        W17804   7.624   6.270   0.704 -0.0323  0.0336 -0.2905
17605W        W17805   6.091  14.727   3.578 -0.0412 -0.0183  0.1803
17606W        W17806  12.705   3.296  12.106  0.1156 -0.1089  0.1197
17607W        W17807  13.380  12.996   2.700 -0.0862  0.0415  0.1782
17608W        W17808   1.187   5.131   4.803 -0.2547 -0.2602 -0.0437
17609W        W17809  12.619  11.418  13.751 -0.1545 -0.0979 -0.5161
17610W        W17810   5.395  13.483   4.045 -0.2456  0.3707  0.0568
17611W        W17811  10.727  10.901   1.051 -0.2066 -0.1832 -0.4083
17612W        W17812   6.837   1.207  13.165 -0.0482  0.2737 -0.0483
17613W        W17813  10.003   8.984   8.171 -0.2662  0.0118  0.1974
17614W        W17814   8.448   2.327  12.446  0.0488  0.2767  0.0823
17615W        W17815   8.713   7.809   4.312 -0.2077  0.0773 -0.1044
17616W        W17816   7.024   6.275   2.331 -0.1982 -0.1012  0.0022
17617W        W17817   6.749  13.250   1.840  0.1314  0.0501 -0.0376
17618W        W17818   7.904   5.067  13.806 -0.1180  0.0546  0.0858
17619W        W17819   0.672   9.486   0.824 -0.0270 -0.1898 -0.0397
17620W        W17820   5.696   9.924   7.288 -0.2098 -0.2487  0.3664
17621W        W17821  12.933  11.988  10.855 -0.0686  0.4520 -0.3748
17622W        W17822   2.276   9.798   3.462 -0.0828 -0.0844  0.0136
17623W        W17823  11.392  10.081   0.809  0.3429  0.2888 -0.1148
17624W        W17824   8.662  12.462   1.051 -0.0779 -0.1037  0.0806
17625W        W17825  14.301  11.897  10.945 -0.0406  0.1730 -0.1208
17626W        W17826   1.035   7.109  10.029  0.5320 -0.1707  0.1002
17627W        W17827   2.162   9.508   9.971  0.1301 -0.1722  0.0038
17628W        W17828   8.193  11.400   7.144  0.0605  0.1079  0.3840
17629W        W17829   6.963  13.911   2.548  0.0197  0.0634  0.1930
17630W        W17830  10.323   4.431   1.375  0.1007 -0.0106  0.1343
17631W        W17831   4.066   6.189   1.643  0.0305  0.2067  0.1332
17632W        W17832   6.969  11.668   1.444  0.1054 -0.0456  0.2797
17633W        W17833   6.483   7.922  10.356 -0.0120  0.0323  0.2792
17634W        W17834   7.064   2.463   4.870 -0.2410  0.2125  0.1333
17635W        W17835  12.127  11.759   2.484 -0.1547  0.2017  0.1328
17636W        W17836  13.249   3.549  10.550  0.2661  0.2552 -0.1886
17637W        W17837   5.720   3.062  14.870  0.1828 -0.0180  0.2685
17638W        W17838  14.187  14.453  11.698 -0.0388  0.0981 -0.3003
17639W        W17839  12.466   0.272   4.889 -0.2236 -0.1391  0.0798
17640W        W17840  10.763   7.557   3.626  0.2085 -0.1083  0.1411
17641W        W17841   9.235   7.471  14.467  0.1370  0.2675 -0.0231
17642W        W17842  10.002  10.530   0.553 -0.1039  0.1892 -0.0174
17643W        W17843  10.514   1.254  11.331  0.1286  0.2449  0.3158
17644W        W17844  11.874   0.049   4.101 -0.1882  0.0486 -0.0885
17645W        W17845   9.469   7.402   3.927 -0.2995 -0.2452  0.0379
17646W        W17846   3.425   2.397   4.281 -0.2863  0.0875  0.0258
17647W        W17847  13.319  10.083   8.921  0.1547 -0.3614  0.0222
17648W        W17848   6.967   4.742  10.908 -0.0788 -0.3063 -0.1570
17649W        W17849   6.140   0.583   5.089 -0.0480  0.1037 -0.0091
17650W        W17850   3.131   4.212   1.311  0.3025 -0.0336 -0.0785
17651W        W17851   6.494  11.603   9.530  0.0098  0.1059 -0.1999
17652W        W17852   5.311  12.297   6.880 -0.2252  0.0175 -0.3059
17653W        W17853   1.637   1.529  15.177  0.0890 -0.0232  0.0781
17654W        W17854   1.546   3.720   9.694  0.0929  0.0749 -0.1666
17655W        W17855   6.542   4.411  11.185  0.0121 -0.1057  0.0533
17656W        W17856  14.942  12.151   7.580  0.2428  0.2511 -0.2540
17657W        W17857   0.088   8.996   1.410  0.0681  0.0630 -0.2808
17658W        W17858   5.460  10.929  10.222 -0.1404  0.1593  0.0021
17659W        W17859  11.025   4.443   9.741 -0.0759  0.4157  0.1742
17660W        W17860  12.352   2.775   7.894 -0.2970 -0.1023  0.1165
17661W        W17861  11.966   0.872   8.929 -0.0099  0.1991  0.0891
17662W        W17862   7.862   7.583   2.783  0.1672 -0.0829 -0.2027
17663W        W17863   2.495  10.404  15.101  0.0782 -0.3845 -0.2725
17664W        W17864   7.064   2.958   6.489  0.0555  0.0374 -0.0800
17665W        W17865  11.251   2.406   5.272  0.0008  0.4165 -0.2206
17666W        W17866  10.856   1.987  14.547 -0.0256 -0.0117 -0.0003
17667W        W17867   5.008   8.208   5.065 -0.1189 -0.1034 -0.1941
17668W        W17868  14.577   5.940   7.473 -0.0263  0.0422  0.1730
17669W        W17869  14.734  12.189  13.985 -0.2850  0.0479 -0.0070
17670W        W17870   5.834   4.710   0.945 -0.1623 -0.1795 -0.0210
17671W        W17871   7.789   4.902   3.551 -0.1833 -0.0376  0.0566
17672W        W17872  12.402   4.169   1.688 -0.0648  0.0509  0.0683
17673W        W17873   7.117   7.118  11.363  0.5946  0.1583 -0.0170
17674W        W17874  11.633   4.681   4.943 -0.0954  0.1029  0.0819
17675W        W17875   6.651   8.101   1.519 -0.1835 -0.1097  0.2699
17676W        W17876   3.589   7.309   7.314 -0.0008 -0.0963  0.1057
17677W        W17877  14.010   3.279   7.505  0.0345 -0.1262  0.4161
17678W        W17878   2.098   3.532   4.851 -0.0624 -0.0069  0.0657
17679W        W17879   7.059  15.138  12.007  0.1031 -0.0613  0.1612
17680W        W17880   7.911  11.135  12.697  0.0382 -0.0441 -0.1304
17681W        W17881  10.075   1.734   7.077  0.1081  0.0540  0.0879
17682W        W17882   0.171   8.852  11.114 -0.2183 -0.0750 -0.0711
17683W        W17883   6.399  14.635   6.500 -0.0204  0.2085  0.2208
17684W        W17884  10.135  13.119   7.885 -0.0361  0.0707  0.0048
17685W        W17885   7.150  11.103   1.624 -0.2473 -0.4338 -0.1696
17686W        W17886   9.147   7.237   7.410  0.1419  0.1222 -0.1296
17687W        W17887  10.335   9.296   4.304  0.1214 -0.3492  0.1309
17688W        W17888   6.100  10.334   9.924 -0.1824 -0.1639  0.1241
17689W        W17889  12.253   9.647  11.306 -0.0448 -0.1862 -0.0143
17690W        W17890  10.938   9.768   3.821 -0.1268  0.0305  0.0424
17691W        W17891   2.626  11.965  14.697  0.3310  0.1150 -0.1555
17692W        W17892   7.445   7.560   1.394 -0.1613 -0.1599  0.0605
17693W        W17893   3.665   8.906   0.685  0.1913 -0.2190 -0.3347
17694W        W17894  13.090  10.770   5.491  0.0521  0.1965 -0.0379
17695W        W17895   0.946   3.481   0.567  0.2928  0.3606 -0.0962
17696W        W17896   3.640  11.533  13.721 -0.0880 -0.1231 -0.0692
17697W        W17897   3.610   9.925  11.398  0.0556  0.3498 -0.0175
17698W        W17898  10.253   4.983   1.605 -0.3645  0.1229  0.0263
17699W        W17899   7.516   3.135   8.979 -0.3220 -0.2625  0.2142
17700W        W17900  11.855   2.296  11.631 -0.0701  0.5100  0.0186
17701W        W17901   2.221  12.773  14.221 -0.0859 -0.3250  0.0398
17702W        W17902  10.476   4.156  10.777 -0.0066 -0.0811 -0.1130
17703W        W17903   8.931   8.108   7.255 -0.3203 -0.0937  0.0094
17704W        W17904  14.404   2.044  13.790  0.2170 -0.0469  0.2233
17705W        W17905   5.317   1.310  12.505  0.1356 -0.0460 -0.0844
17706W        W17906   6.537   2.943   2.357 -0.0541  0.1683  0.0225
17707W        W17907  13.917   3.371   2.775  0.2337 -0.3888 -0.0789
17708W        W17908   8.366   5.318  10.480 -0.0797 -0.1118  0.2677
17709W        W17909   5.265  12.092   3.379 -0.6174 -0.0788 -0.0852
17710W        W17910   4.763   2.572  12.655 -0.0935 -0.1970  0.4155
17711W        W17911  12.602  11.576   7.651  0.1019 -0.1385 -0.1522
17712W        W17912   1.600  12.814   1.899 -0.0027  0.2839 -0.0773
17713W        W17913   9.870   2.064  13.227 -0.0026 -0.2068  0.3230
17714W        W17914  13.938  10.281  10.026  0.2382 -0.0140  0.0789
17715W        W17915   8.349  11.868   3.592  0.2463  0.0383 -0.0928
17716W        W17916  10.815   5.166  13.107  0.0279  0.0975 -0.0843
17717W        W17917   2.951   3.944  13.424  0.1346 -0.0176 -0.0917
17718W        W17918   1.129  10.184   4.129 -0.1006 -0.0203 -0.1683
17719W        W17919  11.370   9.741  13.689  0.0711  0.0983  0.0547
17720W        W17920   7.807   6.220   3.309 -0.2844  0.2133  0.0469
17721W        W17921   3.078  12.579  13.578 -0.0546 -0.0864 -0.1718
17722W        W17922  10.471  11.805   7.055 -0.2596 -0.0674 -0.1399
17723W        W17923   5.333   0.019   0.305  0.1772  0.1079  0.0851
17724W        W17924  13.932   0.476   4.817 -0.3390  0.1021 -0.0074
17725W        W17925  13.125   8.849   2.612 -0.0029 -0.0831 -0.1664
17726W        W17926   7.380   9.579  13.849 -0.4085  0.2847 -0.0653
17727W        W17927   1.052  13.142  11.514  0.1954 -0.1835  0.1147
17728W        W17928   7.966  12.024   9.772  0.0386 -0.2996 -0.4370
17729W        W17929   2.476  15.035   3.542 -0.0868  0.2457  0.0687
17730W        W17930   8.549   5.425   9.122  0.0009 -0.1757  0.0906
17731W        W17931   0.110   9.777   2.625 -0.2226 -0.1349 -0.1472
17732W        W17932  10.150   6.464  14.614  0.1179  0.1976  0.2724
17733W        W17933   3.163  12.657   9.415 -0.1805  0.1912  0.1713
17734W        W17934   9.692   6.886   9.248 -0.4682  0.1925  0.1049
17735W        W17935  12.744   0.839   4.379  0.0171 -0.0941  0.0712
17736W        W17936   6.523  14.880   2.774  0.2933 -0.2691  0.2960
17737W        W17937  13.777   8.383  10.565  0.1345 -0.1596  0.2345
17738W        W17938  10.832   0.401  11.047 -0.1817 -0.1123  0.1694
17739W        W17939  15.104   8.680   2.804  0.0934  0.3175 -0.2507
17740W        W17940   9.723  13.515   6.204 -0.0557  0.0188 -0.1552
17741W        W17941   1.121   9.642   4.669 -0.0849  0.3774  0.2956
17742W        W17942   9.548   9.451   2.544  0.2270  0.0786  0.2350
17743W        W17943   0.238   6.784   8.482  0.1432  0.0716  0.2420
17744W        W17944   7.059   8.211  14.470  0.3004  0.2373 -0.0738
17745W        W17945   3.847  12.548   5.480  0.4678  0.0475  0.0048
17746W        W17946   6.747  11.250   1.339 -0.1937  0.0789 -0.3055
17747W        W17947   5.937  10.186   0.929 -0.0436  0.0435 -0.1146
17748W        W17948  10.040  12.004   7.503  0.0625 -0.0737  0.0801
17749W        W17949   8.109   9.542   7.788 -0.2687  0.0772  0.0064
17750W        W17950  11.014  11.703   5.871  0.1624 -0.0894  0.1204
17751W        W17951   8.972   3.820  15.154 -0.2937  0.3253 -0.0422
17752W        W17952   9.012   7.063   5.945 -0.0612 -0.4040  0.0635
17753W        W17953   1.885   5.418   3.101  0.2006  0.0341 -0.1874
17754W        W17954  11.244   7.141  11.852  0.0191 -0.2759 -0.0735
17755W        W17955   1.933   0.003   4.100  0.0191  0.4099  0.2576
17756W        W17956  10.106   8.207  10.164  0.1940  0.0049 -0.1150
17757W        W17957   4.663   3.119   2.836 -0.2058  0.0325 -0.2918
17758W        W17958  10.731  10.454   9.021  0.1620 -0.1914  0.0626
17759W        W17959   6.480   8.058  14.326 -0.2499  0.1933 -0.1399
17760W        W17960   4.738   0.984   6.841  0.1199 -0.6504 -0.1961
17761W        W17961   9.736   7.716   9.895  0.4183 -0.0620 -0.0176
17762W        W17962   9.716  11.019  11.608 -0.2769 -0.2999 -0.0207
17763W        W17963  10.502  11.649   5.023 -0.0495 -0.0137 -0.0873
17764W        W17964  13.912  12.983   2.711 -0.0317 -0.0219 -0.3040
17765W        W17965  13.075   7.264   0.219  0.0478 -0.1457  0.0821
17766W        W17966  14.019   8.585   4.693  0.0298 -0.0494 -0.3531
17767W        W17967   3.702   1.717   8.060 -0.1445 -0.0178 -0.2858
17768W        W17968   2.236  12.816   7.364 -0.3212  0.0821 -0.3226
17769W        W17969   9.363  13.034   4.086 -0.5308 -0.4168  0.4741
17770W        W17970   8.449  11.304   4.524  0.1459  0.0780 -0.1905
17771W        W17971  13.131   4.686   7.000  0.2548 -0.0316  0.2699
17772W        W17972   2.823   4.911   7.449  0.0929  0.0418 -0.0162
17773W        W17973  10.504  11.585   2.850  0.1271  0.1399 -0.1572
17774W        W17974   5.336   8.232  12.262 -0.1231 -0.0405  0.3358
17775W        W17975   2.083   7.873  13.393 -0.2955  0.3385  0.2454
17776W        W17976   7.255  11.635   5.114  0.4627 -0.1085 -0.2116
17777W        W17977   2.145  11.242   6.368 -0.0174  0.0975  0.1259
17778W        W17978   5.371  11.315  12.951 -0.3306  0.3774 -0.2397
17779W        W17979  10.078   3.405   9.222  0.0818  0.0492 -0.1887
17780W        W17980   9.017   4.240   6.805  0.0992  0.0521  0.2825
17781W        W17981  14.787   3.921   8.817  0.0906 -0.1399  0.4328
17782W        W17982   8.845   3.458   8.683 -0.1758  0.2550  0.0478
17783W        W17983   6.621  10.731   2.650 -0.0543  0.0032  0.2924
17784W        W17984   7.898   9.284   3.125  0.0967 -0.1318  0.1420
17785W        W17985   0.917   0.351   2.791 -0.0449  0.0182 -0.0188
17786W        W17986  13.036  14.393   6.344 -0.1546 -0.2386 -0.0289
17787W        W17987   7.343  12.073   6.904 -0.3228 -0.0641  0.1817
17788W        W17988  14.246  13.585   9.709  0.0740 -0.1454 -0.0902
17789W        W17989  12.298   9.271   8.813 -0.2319 -0.2351 -0.0651
17790W        W17990  15.074   7.797   9.060  0.3728  0.1310  0.1743
17791W        W17991   4.087  12.906  14.528 -0.3917  0.1980  0.0894
17792W        W17992   3.656   2.867   6.568  0.2109  0.0260  0.0529
17793W        W17993   0.830   0.598   6.390 -0.2137  0.4116  0.0720
17794W        W17994   8.181   8.030   8.337  0.4058 -0.1351 -0.2537
17795W        W17995   7.519   9.674   5.176 -0.2580 -0.1008  0.0270
17796W        W17996   9.138  14.730   7.342  0.0849  0.5212  0.0801
17797W        W17997   2.402   9.616   7.553  0.0862 -0.1176 -0.2568
17798W        W17998   3.413   8.198   0.285 -0.1104 -0.0108  0.1286
17799W        W17999   9.530   8.051  10.923  0.1237 -0.0628  0.0456
17800W        W18000  11.339   4.121   7.939 -0.0473  0.3003  0.0895
17801W        W18001   2.716   9.509   2.730 -0.0822  0.1780 -0.0607
17802W        W18002   6.509   7.770   4.430 -0.2634 -0.1779  0.0915
17803W        W18003   1.366   2.489   2.868  0.0025 -0.1111  0.2507
17804W        W18004   9.651  14.072   5.609  0.1801  0.1348 -0.2309
17805W        W18005   3.354   9.914   4.620 -0.1037  0.0298 -0.3025
17806W        W18006   6.217  11.579   6.027  0.0074 -0.1368 -0.0069
17807W        W18007   0.210  14.972   9.633  0.2118 -0.2304 -0.2737
17808W        W18008   7.047   4.893   4.160  0.2382  0.1336 -0.2264
17809W        W18009   9.505   1.845  11.596  0.2973  0.0823 -0.0357
17810W        W18010  13.411   1.305   2.122  0.0673  0.3626 -0.1689
17811W        W18011   8.074  10.608   9.663  0.0276 -0.0382  0.1110
17812W        W18012   7.730   6.109   5.782 -0.0200  0.1116 -0.0450
17813W        W18013  11.452   7.255   5.016  0.2679  0.3182 -0.1208
17814W        W18014   9.624   2.960   1.039  0.1009  0.0002  0.1270
17815W        W18015   5.173   6.368  11.968 -0.2749  0.0673 -0.0700
17816W        W18016   5.874   5.853   1.896  0.3232  0.0257  0.0400
17817W        W18017   6.119  13.227  13.402  0.0104  0.1528 -0.0872
17818W        W18018   5.946   3.120   0.146  0.2464 -0.1048 -0.0208
17819W        W18019   5.329   4.662  12.218 -0.2725  0.2932 -0.0509
17820W        W18020   7.748  14.444   2.404  0.0404 -0.1949 -0.0785
17821W        W18021  14.441  12.453   0.946 -0.1953 -0.1192 -0.0338
17822W        W18022   5.028   0.947   9.916 -0.1539  0.0235  0.5048
17823W        W18023   8.609  10.743  14.017  0.2058  0.3115 -0.1498
17824W        W18024  10.040   4.962   4.861 -0.1339  0.0774  0.1607
17825W        W18025  13.567   3.342  12.730 -0.0121 -0.0962 -0.0543
17826W        W18026   9.798  12.366   3.702  0.0250 -0.3035 -0.0152
17827W        W18027  10.053   4.283   0.396 -0.0056 -0.2990  0.0379
17828W        W18028   8.942  11.899   6.322  0.3384 -0.2959 -0.0920
17829W        W18029  12.596  14.280   4.388  0.2546 -0.3691 -0.3879
17830W        W18030   6.821   8.023   6.085 -0.5415  0.0524  0.0254
17831W        W18031   5.737  11.315   6.947  0.0612  0.0905  0.4320
17832W        W18032   5.939  10.885   7.167  0.0552  0.0353 -0.0906
17833W        W18033   9.799  12.406   7.607 -0.2013 -0.2781  0.0002
17834W        W18034   0.894  10.638  11.973  0.0235  0.4325 -0.2526
17835W        W18035  11.778   2.851   1.547  0.1474 -0.1932 -0.1705
17836W        W18036   6.026   1.074   7.766 -0.2185  0.2010  0.3308
17837W        W18037  11.688   7.699   9.997  0.1117 -0.0969  0.1469
17838W        W18038  13.941  11.031   0.317  0.2924 -0.0355  0.0870
17839W        W18039   1.488   8.662   8.250  0.3038 -0.4101  0.0862
17840W        W18040   1.154  10.521  14.339  0.4171  0.1688 -0.0171
17841W        W18041   4.681   5.307   2.877  0.2152 -0.0033 -0.0384
17842W        W18042   9.624   5.759   8.791  0.0211  0.1832 -0.1175
17843W        W18043   8.273   6.926   5.287  0.0414  0.0396  0.0341
17844W        W18044   9.246   5.710   8.435 -0.0486 -0.1965 -0.0727
17845W        W18045   2.951   4.738  12.472 -0.0937  0.0551  0.1103
17846W        W18046  11.946   7.368   4.773  0.0275  0.1826  0.0095
17847W        W18047   6.005  13.116   7.238 -0.2157  0.4647  0.0462
17848W        W18048   5.286   9.779   3.867 -0.3520 -0.0177  0.4696
17849W        W18049  14.165   3.686   1.467 -0.1768 -0.1526  0.0792
17850W        W18050   8.779   9.988   7.536 -0.2013  0.2298 -0.3146
17851W        W18051   6.585   4.434  12.217  0.1984  0.0942  0.1607
17852W        W18052  12.721   5.274   9.872  0.3885  0.1470 -0.1636
17853W        W18053   6.874  13.584   4.161 -0.1861  0.1569 -0.2529
17854W        W18054  12.097  12.687   2.900 -0.2983  0.1993 -0.1650
17855W        W18055   3.602   3.340   4.117 -0.0186  0.1679 -0.1519
17856W        W18056   5.416   3.245   6.248 -0.1148 -0.1945 -0.0153
17857W        W18057  14.286  14.478   1.196 -0.1822  0.3223  0.2853
17858W        W18058  13.065   7.649   2.290 -0.0062 -0.0441  0.1364
17859W        W18059   7.088   2.412   1.856 -0.2218 -0.4298  0.1963
17860W        W18060   3.792   8.653   6.171  0.1460 -0.1093 -0.0002
17861W        W18061  10.113   9.119   6.078  0.2237  0.2313  0.0494
17862W        W18062   0.650   6.491   6.872  0.1947  0.2201  0.0530
17863W        W18063   9.878   7.990   2.821 -0.7936  0.1290  0.1467
17864W        W18064   0.138   4.218   2.323  0.0888 -0.0390 -0.0657
17865W        W18065   2.743   0.917   4.975 -0.0108  0.0473  0.0949
17866W        W18066   6.398  12.595   7.643  0.0703  0.1265 -0.1249
17867W        W18067   1.803   6.161   7.523 -0.0510  0.1070  0.2117
17868W        W18068  11.118  11.428   4.128 -0.0499  0.0094 -0.0075
17869W        W18069  10.156   9.466   8.411 -0.4130 -0.0136  0.0939
17870W        W18070  10.909   6.183   6.180  0.0831  0.2249 -0.2206
17871W        W18071  14.577   1.698   0.530 -0.1477 -0.0600 -0.0194
17872W        W18072   9.138   0.676   2.312 -0.0184 -0.0297 -0.2197
17873W        W18073   9.335   7.201   9.047 -0.0511 -0.0676  0.0693
17874W        W18074  13.048   7.862  14.241  0.1457  0.0929  0.0604
17875W        W18075   9.419   6.491   7.709 -0.0315  0.1232 -0.4449
17876W        W18076   7.547  14.674   9.237 -0.0059 -0.2717  0.2138
17877W        W18077   1.810   4.281  10.338  0.0563 -0.2858  0.1527
17878W        W18078   8.763   8.017   1.524 -0.1665  0.2085  0.0502
17879W        W18079   7.155   7.486   2.049  0.0685  0.0198 -0.1102
17880W        W18080   9.003   5.748  15.163 -0.1540 -0.0560  0.0140
17881W        W18081   3.965   8.015  10.625 -0.2148 -0.0297 -0.0997
17882W        W18082   1.603   5.612   7.885  0.2378 -0.0318  0.0564
17883W        W18083  10.541   7.066   0.831  0.0295 -0.0382  0.2660
17884W        W18084   1.630   6.631   6.340  0.0267 -0.0792  0.2098
17885W        W18085   9.985  12.579   6.170  0.1128 -0.2728 -0.0251
17886W        W18086   6.559   5.035   8.413  0.0961 -0.3890 -0.0245
17887W        W18087   6.718   7.461   0.787 -0.4846 -0.0924 -0.4422
17888W        W18088   5.237   4.748   9.200  0.0790 -0.0870  0.2763
17889W        W18089  10.389  12.374   7.397 -0.0202 -0.3364 -0.0228
17890W        W18090   9.820  13.193   2.734  0.0762 -0.0322 -0.1645
17891W        W18091   3.230  11.655   6.486  0.2039 -0.0015 -0.1440
17892W        W18092   0.705  10.536   3.916  0.2538  0.1291 -0.0336
17893W        W18093   4.195   8.810   9.254 -0.1669  0.2859 -0.1000
17894W        W18094   8.659   1.161   3.788  0.2260 -0.3372  0.1915
17895W        W18095   1.143   8.469   5.965  0.0427  0.1686 -0.1544
17896W        W18096   7.996   9.619   2.530  0.2868  0.0551 -0.0117
17897W        W18097  11.736   1.542   0.409 -0.1247 -0.1802  0.1535
17898W        W18098  11.357   8.177   4.664  0.3125 -0.0172  0.2575
17899W        W18099   0.410  11.225   9.796  0.1593  0.0964 -0.1402
17900W        W18100  12.228  11.572   7.967 -0.0242  0.1536 -0.0585
17901W        W18101   3.824   8.537   3.391  0.3687 -0.1005  0.4850
17902W        W18102  10.417   0.317  11.820 -0.2627 -0.3669  0.0637
17903W        W18103   7.981  15.077   8.413 -0.0166  0.2250  0.2387
17904W        W18104   8.884   3.666  13.488  0.0887  0.2075 -0.2777
17905W        W18105   1.231  14.266   7.947 -0.1422  0.1492  0.0909
17906W        W18106  12.896   3.772  11.883 -0.0013  0.0587 -0.0208
17907W        W18107   7.618   8.853   3.314 -0.1357  0.3684 -0.0170
17908W        W18108   8.546   7.448   3.952 -0.0538  0.2268 -0.1290
17909W        W18109   9.990  10.129   5.294  0.1327  0.2920 -0.0974
17910W        W18110   5.430  13.067   7.946  0.1231 -0.3896 -0.0419
17911W        W18111   7.889  14.269   4.798 -0.0669 -0.1070  0.0522
17912W        W18112  12.290   0.533   5.839  0.1033 -0.0922 -0.1305
17913W        W18113   7.719   2.332  11.774 -0.1707  0.0215 -0.0306
17914W        W18114   9.003   9.440  14.175 -0.2808  0.0461 -0.0773
17915W        W18115   0.818  15.102  14.550 -0.0177 -0.0194  0.2911
17916W        W18116   0.298   5.801   4.664 -0.2024  0.0591 -0.2728
17917W        W18117  13.719   9.153  12.744 -0.0417  0.0149 -0.3589
17918W        W18118  10.342  13.252  11.714 -0.1984 -0.2028 -0.0740
17919W        W18119   1.117   4.288   6.902 -0.0166 -0.2155 -0.1174
17920W        W18120  10.635   5.184   1.047  0.2477  0.0486 -0.0766
17921W        W18121   7.316   8.143  13.987  0.4504 -0.4085  0.2432
17922W        W18122  10.068   0.954   4.166  0.0690 -0.0590 -0.1510
17923W        W18123  10.814  13.767   8.067 -0.1162 -0.1790  0.0145
17924W        W18124   4.645   5.320  13.086  0.1533  0.1196 -0.3603
17925W        W18125  10.884   5.527   7.454  0.3893 -0.0620 -0.1516
17926W        W18126   4.451  14.928  14.278 -0.0995 -0.3589  0.0673
17927W        W18127   7.676  10.659   0.763 -0.1757  0.1419 -0.2324
17928W        W18128   2.853   1.079  12.726  0.2695  0.0389  0.1527
17929W        W18129  12.752  12.999   8.367  0.0534  0.3481 -0.1902
17930W        W18130  10.617   3.551   7.440  0.0728 -0.1841 -0.2797
17931W        W18131   4.912  13.416  10.335  0.6249  0.1475  0.1785
17932W        W18132   9.884  14.438   5.818  0.3228 -0.0946 -0.0157
17933W        W18133   8.911   0.283   7.652  0.1324 -0.2187 -0.1741
17934W        W18134   7.278  10.303   2.433  0.1058  0.0831 -0.0790
17935W        W18135   4.791   9.328   9.722 -0.3456  0.2126  0.0337
17936W        W18136  11.542  10.884   7.420  0.0085  0.1032 -0.1254
17937W        W18137   8.523  10.202   4.178 -0.1748 -0.1495  0.2628
17938W        W18138  13.154  14.269   1.459  0.1054  0.2097  0.3492
17939W        W18139  12.503  14.375   5.691  0.0560  0.0440  0.0201
17940W        W18140   0.094   7.813   5.426 -0.2398  0.0405  0.0122
17941W        W18141   3.672   6.541   6.482  0.0285  0.0689  0.0538
17942W        W18142   4.965   7.863  14.572  0.3200 -0.0352  0.0697
17943W        W18143   8.921   8.062   5.831 -0.0886  0.1997  0.2854
17944W        W18144  13.129   5.202   3.160 -0.5864 -0.0672 -0.1276
17945W        W18145  11.237   4.401   3.962  0.1961  0.1112 -0.0333
17946W        W18146   7.704   7.801   5.172  0.0735  0.1537 -0.2122
17947W        W18147  10.169   2.625  11.043 -0.0313 -0.0559  0.2075
17948W        W18148   4.341   7.648   2.766  0.0083  0.0101  0.0751
17949W        W18149  11.912   5.942   6.530 -0.0318  0.1766  0.1936
17950W        W18150   1.738   1.719  14.701  0.0558 -0.0961 -0.0642
17951W        W18151   0.377   7.253  14.048  0.2490 -0.0402 -0.2724
17952W        W18152   4.837   4.996   1.035  0.1218  0.0286  0.1152
17953W        W18153   8.216   9.024   8.058  0.2638  0.1519  0.3363
17954W        W18154   9.287  12.775   2.300 -0.2698 -0.0062 -0.3342
17955W        W18155   9.662   7.734   6.454  0.1122 -0.0824  0.0217
17956W        W18156   0.186   4.343   7.013 -0.2432 -0.0240 -0.0886
17957W        W18157   3.349   5.638  12.784 -0.1806 -0.1554 -0.0035
17958W        W18158  10.914   5.854  11.386 -0.1043  0.1096 -0.1436
17959W        W18159  15.156  11.633   8.902  0.0146 -0.0766  0.3937
17960W        W18160  13.782   2.780   6.083  0.2347  0.0140 -0.3354
17961W        W18161   1.164   2.075   5.614  0.2278  0.0125  0.0841
17962W        W18162  12.086   4.106   2.373  0.4547 -0.0558  0.0444
17963W        W18163  12.268   0.017   5.524 -0.3243  0.4438  0.2125
17964W        W18164   8.671  11.943   4.069 -0.2401 -0.5276  0.3943
17965W        W18165  13.106  11.841   2.724  0.0077  0.0046 -0.0209
17966W        W18166   6.737   0.766   8.369  0.0590 -0.0150 -0.1502
17967W        W18167  12.214  13.402   9.424 -0.0408 -0.0960  0.4223
17968W        W18168  11.984  14.072   4.788  0.4381 -0.2154  0.2536
17969W        W18169  11.692  11.272   0.941  0.0356 -0.0269 -0.0540
17970W        W18170   0.820   7.198  11.532  0.1346  0.1115  0.1016
17971W        W18171  12.724  13.251   4.337 -0.0008  0.0030  0.0661
17972W        W18172  11.075   1.170   7.889  0.1538  0.3280  0.0977
17973W        W18173   3.141  13.223   2.522 -0.0413 -0.0785  0.0944
17974W        W18174  11.768   5.140   2.757 -0.3634 -0.0950  0.2521
17975W        W18175   8.593   3.505  11.301  0.1397  0.1865  0.1115
17976W        W18176  11.785  11.518   9.761 -0.5364  0.0657 -0.0561
17977W        W18177   7.718  14.674  10.606 -0.1681 -0.0907  0.1632
17978W        W18178  11.918  13.710  11.640  0.1162 -0.1426 -0.0492
17979W        W18179   7.166   9.577   0.753  0.0711  0.0480  0.0045
17980W        W18180  10.323  14.289   9.275  0.1367 -0.2430 -0.3460
17981W        W18181  10.417   8.470   0.629 -0.0527 -0.1023 -0.1192
17982W        W18182   0.652  12.939   6.787 -0.1790 -0.0602  0.0700
17983W        W18183  13.347  14.929  12.113  0.0803 -0.0522 -0.1032
17984W        W18184   9.778   7.049   5.186  0.1393 -0.1693 -0.2199
17985W        W18185  11.316   3.259   4.912 -0.1057 -0.0604 -0.1855
17986W        W18186   7.125   4.637   6.369 -0.0723 -0.1825 -0.2041
17987W        W18187   2.227   9.374   2.825 -0.1293 -0.0792  0.0175
17988W        W18188   7.002   3.595  10.834  0.2331 -0.3031  0.4606
17989W        W18189   9.328   5.995   3.269 -0.0678  0.1480 -0.1011
17990W        W18190   5.825  10.164   1.850 -0.2495  0.3567 -0.2262
17991W        W18191   3.054   3.956   2.196  0.1171  0.3499  0.0489
17992W        W18192   9.068   5.361   9.302 -0.2506 -0.0853 -0.2858
17993W        W18193  12.077   7.265   7.195 -0.0113 -0.0721  0.1708
17994W        W18194   0.443  13.924   0.929 -0.1216 -0.3936  0.1844
17995W        W18195   2.245  10.361   7.456 -0.2412 -0.2051 -0.0752
17996W        W18196  12.489   1.021   8.519  0.0599 -0.0502 -0.2776
17997W        W18197   5.936   2.423   9.979 -0.1501  0.3813 -0.2286
17998W        W18198   9.376   1.712   7.519  0.0427  0.2261  0.3528
17999W        W18199   3.729   7.343  13.508  0.2519  0.1461  0.0811
18000W        W18200   4.681   2.367   8.785 -0.0593 -0.0969 -0.1445
18001W        W18201   9.133   6.203  10.131  0.1351 -0.0965 -0.0953
18002W        W18202   1.888   5.521   4.350 -0.1434  0.1422 -0.3598
18003W        W18203   1.760   6.974   3.115 -0.1925 -0.0668  0.2019
18004W        W18204   8.430   7.517  14.116 -0.0674 -0.0863 -0.0242
18005W        W18205  13.643   0.819   9.565 -0.0787 -0.0218 -0.0843
18006W        W18206  10.489  14.403  10.274  0.1391  0.1519 -0.3012
18007W        W18207  11.835   5.567  13.298  0.0227  0.3836 -0.1669
18008W        W18208   2.069   4.973   6.285 -0.4364  0.2971  0.0419
18009W        W18209  14.654   1.650   1.411  0.0367  0.0505  0.2821
18010W        W18210  14.223   6.389   1.337  0.1905  0.1213  0.1013
18011W        W18211   9.000   7.022   6.941 -0.2187 -0.0559  0.0052
18012W        W18212   9.210   5.317   4.534 -0.1785  0.0618  0.2162
18013W        W18213   8.005   5.633   8.352  0.2184  0.0959  0.0318
18014W        W18214   5.499  11.943   5.513 -0.0662 -0.2686 -0.4010
18015W        W18215   2.760   8.978  12.700 -0.0248 -0.1493  0.1702
18016W        W18216   3.928   1.946   1.060  0.3302 -0.1626  0.0891
18017W        W18217   0.610  12.933   1.216  0.1145 -0.2091  0.0498
18018W        W18218   9.496   4.572   9.492 -0.1190 -0.0760  0.1465
18019W        W18219   4.137   1.117   8.615 -0.0321  0.0939 -0.1335
18020W        W18220   9.704  14.735  12.624  0.2174  0.3598 -0.2386
18021W        W18221  14.873   7.170   4.804  0.0743  0.1993  0.1263
18022W        W18222   6.669   8.181   0.574 -0.0535 -0.0117 -0.0057
18023W        W18223  11.172   9.442   4.555  0.0362 -0.1867  0.1267
18024W        W18224  14.134   6.763   1.010 -0.0455  0.0572  0.0039
18025W        W18225  11.988  10.844  14.377  0.1171 -0.4891 -0.0352
18026W        W18226  11.272   3.419   8.488 -0.1167  0.3525  0.2539
18027W        W18227  13.679  11.748  15.034  0.2766 -0.0394  0.1506
18028W        W18228   4.119   5.765  10.768  0.2684 -0.1185 -0.0396
18029W        W18229   0.078   2.517  11.889 -0.4835  0.0342 -0.1677
18030W        W18230   9.533  10.001  12.528 -0.0774 -0.0778  0.2539
18031W        W18231   0.900   7.890  10.324  0.2787 -0.1347 -0.2587
18032W        W18232  13.258   0.558  13.314 -0.2057 -0.0115 -0.0349
18033W        W18233  10.431  11.904  14.638 -0.4193  0.0054  0.1316
18034W        W18234   9.853   1.116  13.494 -0.0948 -0.0569 -0.2359
18035W        W18235   6.034  12.078   1.707  0.0908 -0.0443  0.0655
18036W        W18236  11.239  11.431   8.043  0.0849 -0.0555 -0.6061
18037W        W18237  11.886   1.641  11.521 -0.0376 -0.0927 -0.2387
18038W        W18238   7.645   4.049   3.139  0.0767  0.1363 -0.3172
18039W        W18239   8.021  10.307   3.946  0.2690 -0.0845 -0.0657
18040W        W18240   9.731   1.899   8.830 -0.1121  0.0903  0.2684
18041W        W18241  11.579   4.081   2.262  0.3414  0.2693  0.1039
18042W        W18242   8.256   9.461   7.028 -0.2306  0.5429 -0.0462
18043W        W18243   0.471   9.988   5.984 -0.2574  0.0194  0.0949
18044W        W18244   4.026   9.389   3.667  0.2464  0.0772  0.4345
18045W        W18245  13.759  11.883  11.825  0.2190 -0.1173  0.1541
18046W        W18246   4.540  13.240   4.387  0.1580  0.2285 -0.0874
18047W        W18247   4.410   0.066   2.899  0.0993  0.5657 -0.0521
18048W        W18248  13.574   8.760   9.924 -0.3361 -0.0426  0.0099
18049W        W18249   7.278   1.255  10.024 -0.1072  0.0497  0.2258
18050W        W18250   9.402   6.167   8.181  0.0542 -0.4909 -0.2644
18051W        W18251   6.761   1.614   6.514 -0.1482  0.3078 -0.0608
18052W        W18252   8.590  10.002  10.853  0.0941 -0.4128 -0.1447
18053W        W18253  14.861  10.655   4.878 -0.0063 -0.1662 -0.3003
18054W        W18254  14.094   0.171   3.953 -0.1053 -0.3423  0.0608
18055W        W18255   2.690   9.962  11.788 -0.0975  0.1428 -0.0458
18056W        W18256   2.063  13.518  10.758  0.3798 -0.3733 -0.0853
18057W        W18257   8.956  10.082  13.284 -0.1040  0.3385  0.2753
18058W        W18258   4.669   4.060   1.409 -0.1094 -0.0615  0.4378
18059W        W18259  10.270  12.871   4.407 -0.1169 -0.1194  0.0745
18060W        W18260   6.359   3.940   7.364 -0.2796 -0.0950 -0.1535
18061W        W18261   9.627   9.641  10.058  0.0896  0.1288  0.1846
18062W        W18262   5.571   4.377  10.902 -0.0002  0.2316  0.1092
18063W        W18263   4.150   6.010   3.152  0.0833  0.0334 -0.0334
18064W        W18264   0.649  11.267  11.683 -0.0011 -0.0297 -0.3818
18065W        W18265   4.298  10.921   8.877 -0.0106 -0.1838  0.4408
18066W        W18266  12.920   8.264  12.194  0.0312 -0.0973  0.0282
18067W        W18267  13.304  10.049   8.455 -0.1252  0.0044  0.1084
18068W        W18268  12.794  10.194   9.643 -0.0998  0.1581  0.0450
18069W        W18269   8.889   4.159  13.345  0.1686  0.0066  0.1044
18070W        W18270  10.547   9.185  12.130  0.0182 -0.0703  0.1147
18071W        W18271   9.411   4.996   0.487  0.0533  0.1311  0.1759
18072W        W18272  13.656   9.785   6.825  0.1201  0.1108 -0.2078
18073W        W18273   7.370   8.596  11.171  0.0798 -0.1586  0.3158
18074W        W18274  10.737   2.440   9.601 -0.0760 -0.1177 -0.2592
18075W        W18275   7.610  10.011   7.227 -0.3900  0.0018 -0.1016
18076W        W18276   6.656   9.721   4.234  0.2176  0.1960 -0.3036
18077W        W18277   0.951  13.519   8.694 -0.0342 -0.1871  0.2097
18078W        W18278  10.914   6.473  13.352 -0.5230  0.0394 -0.1636
18079W        W18279   3.177   4.755   2.131 -0.0459 -0.0992  0.1476
18080W        W18280   8.963   7.952   0.262 -0.0994  0.0120 -0.1951
18081W        W18281   8.247   9.669   3.016  0.2751 -0.0883 -0.0095
18082W        W18282   2.947   1.223   7.204  0.1533 -0.0594  0.0695
18083W        W18283   9.506   7.448   7.088  0.0915  0.0281 -0.1983
18084W        W18284   5.711  10.370   9.471  0.0813 -0.1330  0.2377
18085W        W18285  10.005   5.948  13.132 -0.1473  0.1279  0.0137
18086W        W18286  10.390   5.269  12.355 -0.0356  0.2526 -0.0879
18087W        W18287  14.749   7.842   5.083  0.1431  0.1300  0.0830
18088W        W18288   6.914   8.299   9.764 -0.0976  0.1988  0.1996
18089W        W18289   6.221   7.177   5.925 -0.0422  0.0552 -0.0493
18090W        W18290   4.173   6.684   7.832  0.2054  0.3948 -0.1350
18091W        W18291   3.951   9.955  12.229 -0.0815  0.0821  0.2083
18092W        W18292   8.986  13.406   7.089  0.0261  0.0380 -0.1104
18093W        W18293  11.787   8.533  13.321  0.0731 -0.0508 -0.1096
18094W        W18294   5.027  10.566   2.001 -0.0030  0.2971  0.0088
18095W        W18295   9.662   7.935  12.859  0.1620 -0.3973  0.0098
18096W        W18296   5.630   3.040  10.386 -0.0040  0.0769  0.0658
18097W        W18297  11.003   3.837   0.367 -0.0388  0.2065  0.1542
18098W        W18298   3.579  15.181  12.352 -0.1953  0.1809 -0.1289
18099W        W18299  10.909   2.614  11.449  0.1829  0.0882  0.1135
18100W        W18300   6.301  12.289  14.196 -0.0269  0.0992 -0.0514
18101W        W18301   9.062   6.340   9.177 -0.3626 -0.3052  0.0586
18102W        W18302   4.469   8.510   8.123 -0.2688  0.1561  0.3109
18103W        W18303   5.721   3.955  11.229  0.0306 -0.0286  0.1829
18104W        W18304   7.797   4.723  12.299 -0.2949  0.2761  0.0642
18105W        W18305  10.197  14.530  11.650 -0.0173 -0.4402  0.2237
18106W        W18306  11.421   8.465   3.431 -0.2355  0.1134  0.3101
18107W        W18307  10.035   5.364  11.528  0.0689  0.1229 -0.0869
18108W        W18308  11.458   6.612   3.690 -0.0048  0.2257  0.2690
18109W        W18309   6.010   5.812  14.686 -0.0857  0.0107 -0.2833
18110W        W18310   6.483  10.609   3.674  0.3133  0.0212 -0.0438
18111W        W18311   1.059   7.930  11.395 -0.2294  0.0024  0.1095
18112W        W18312  12.255   2.267   8.054  0.2120 -0.2121 -0.2226
18113W        W18313   1.762  11.015  11.674 -0.2698 -0.0049 -0.1590
18114W        W18314  14.799  12.165  11.334 -0.0201 -0.0361 -0.0826
18115W        W18315  12.546  10.900  14.372  0.0212 -0.2338 -0.0121
18116W        W18316  13.832  12.032   4.277 -0.0062  0.0490  0.0597
18117W        W18317   0.853  11.931  13.837  0.0547 -0.2717  0.0888
18118W        W18318   1.635  11.866  10.004  0.0359  0.3359  0.0358
18119W        W18319   5.746   2.468   7.641 -0.0457 -0.0220  0.1166
18120W        W18320   6.019   0.624   1.201  0.1780 -0.1990  0.2595
18121W        W18321   6.728   0.677   7.097 -0.0570 -0.0410  0.0916
18122W        W18322   3.832   1.064  11.167 -0.1614  0.1349 -0.1354
18123W        W18323   9.193   8.002   6.363 -0.3408 -0.3242 -0.3004
18124W        W18324   7.122  10.741   4.724 -0.0585 -0.3696  0.1214
18125W        W18325   8.673   2.585  13.510 -0.1679  0.4435  0.2175
18126W        W18326   1.885  10.301   9.285  0.0167 -0.1466 -0.2587
18127W        W18327   5.441   3.698   7.645 -0.2189  0.0389  0.4084
18128W        W18328   3.689   1.150   2.087  0.1991  0.0779  0.2127
18129W        W18329   0.986   2.080   0.044 -0.0207  0.1812  0.0566
18130W        W18330  10.882   0.414  11.690 -0.1242 -0.0503  0.0259
18131W        W18331   6.186   5.045   5.342  0.1020 -0.0757  0.1445
18132W        W18332   9.268   1.239   4.807  0.2402  0.0304  0.0080
18133W        W18333  12.412   6.682   7.039  0.0954  0.2034 -0.1882
18134W        W18334   6.567   7.230   9.815 -0.2021 -0.2267 -0.1212
18135W        W18335  11.913   5.987  13.864 -0.0502 -0.0441  0.1031
18136W        W18336   6.007  10.808  14.365  0.1134  0.3725 -0.4247
18137W        W18337   7.664   5.291   0.786 -0.2000 -0.0672  0.0281
18138W        W18338   3.095   3.428   8.757  0.1607  0.1659 -0.1387
18139W        W18339   8.312  11.939   7.153  0.3404 -0.2376 -0.0158
18140W        W18340  10.213   3.152  12.954 -0.0475  0.0678 -0.2540
18141W        W18341  12.200   6.336  14.149  0.0727  0.0809 -0.1900
18142W        W18342  11.394   1.443  13.677  0.0248 -0.2856  0.0425
18143W        W18343   9.960   3.318  14.563 -0.1226 -0.2308 -0.3560
18144W        W18344   1.152   0.679   9.390 -0.0451 -0.2307 -0.1677
18145W        W18345   1.287   6.013   4.282  0.0530  0.2210 -0.1221
18146W        W18346  10.239   4.830  11.393  0.1448 -0.1009  0.1146
18147W        W18347  10.427  13.049   6.575  0.2605  0.0187 -0.1672
18148W        W18348  10.971  14.856  11.259 -0.1742  0.0765  0.0720
18149W        W18349   1.603   6.080   7.990  0.0441 -0.0769  0.2166
18150W        W18350  10.326   9.923  11.691  0.4200 -0.0048 -0.0150
18151W        W18351  10.865   2.354   2.606 -0.0171 -0.2944 -0.0845
18152W        W18352   4.329   8.153   2.720  0.1987  0.0790  0.0569
18153W        W18353   9.414   9.799   9.580  0.0130  0.0373 -0.1326
18154W        W18354  11.770   2.542  12.393  0.0243  0.0741  0.0023
18155W        W18355  12.634  12.899   3.068 -0.1388 -0.1147 -0.2047
18156W        W18356  11.306   5.573  10.928 -0.2090  0.2380  0.1086
18157W        W18357   7.437  11.541  10.431 -0.0977 -0.0096  0.2252
18158W        W18358   6.481   0.614   1.408 -0.2599 -0.1081 -0.1302
18159W        W18359  14.731   4.496  13.508 -0.2346  0.1882 -0.0832
18160W        W18360   8.923  12.863   5.706 -0.0030 -0.1223  0.2692
18161W        W18361   9.347   0.674   9.623 -0.0889  0.0843 -0.2022
18162W        W18362   5.976   8.768   4.465 -0.0171 -0.2921 -0.0052
18163W        W18363   5.980  12.164   7.651 -0.4667  0.0511 -0.0422
18164W        W18364   7.137  10.663   9.987  0.1656  0.0515  0.4359
18165W        W18365   3.327   4.276   1.864 -0.1227  0.1609  0.0812
18166W        W18366   1.935   3.928   6.680 -0.0887 -0.2129 -0.1843
18167W        W18367   4.994  11.658   5.068  0.0018 -0.1001 -0.2827
18168W        W18368   3.304  10.558   0.403 -0.0294 -0.1121  0.1310
18169W        W18369   7.623   1.183  14.446 -0.7591  0.2175  0.2904
18170W        W18370   2.056  10.690  14.193  0.1542 -0.0807  0.1565
18171W        W18371  13.982  11.307  14.252 -0.0257 -0.0751  0.1522
18172W        W18372  11.543   8.819   2.349  0.0648  0.1035 -0.0661
18173W        W18373  10.845   8.501  10.876  0.5903 -0.2700  0.1480
18174W        W18374   8.196  11.867   2.091 -0.0826  0.2717  0.1793
18175W        W18375   0.648   0.711   7.976  0.2347 -0.3052  0.0715
18176W        W18376   8.793   0.698  13.049 -0.0492 -0.1002 -0.2278
18177W        W18377   5.712  11.069   1.530  0.0668 -0.0138  0.1597
18178W        W18378   7.614  12.116  14.335  0.0764 -0.0485  0.3336
18179W        W18379   2.714   9.641  10.247  0.0214  0.0679 -0.2080
18180W        W18380   9.992   6.985  14.411  0.0104  0.1656  0.1831
18181W        W18381  14.512   6.687  10.882 -0.0514 -0.2437 -0.0655
18182W        W18382   1.025  10.899   3.331 -0.0458 -0.1202 -0.1858
18183W        W18383   8.536   6.233  14.372  0.0136  0.0079  0.1343
18184W        W18384   4.955   2.778   9.055  0.2640  0.0335  0.0067
18185W        W18385  13.847   1.825   8.621  0.4159 -0.1793  0.1357
18186W        W18386   1.498  12.659   7.626  0.0689 -0.1352  0.0068
18187W        W18387   9.498   0.156   1.746 -0.0049  0.1829 -0.0214
18188W        W18388   2.979  14.719   4.832  0.1373  0.0085  0.3899
18189W        W18389  14.389  13.063   7.286 -0.2905  0.1408 -0.3081
18190W        W18390   2.310  12.603   6.010 -0.0812  0.0567  0.0623
18191W        W18391   6.152  10.865   2.253 -0.0038 -0.2412  0.0423
18192W        W18392  10.372   1.127   9.501  0.1860 -0.3342  0.1872
18193W        W18393   9.968  10.083   6.876 -0.1502  0.0028 -0.4946
18194W        W18394   7.352  14.305   6.640 -0.3786  0.2020  0.0947
18195W        W18395  13.578   8.826   5.840  0.3699 -0.3157  0.3641
18196W        W18396   6.579  14.938   8.311 -0.0156  0.0501 -0.2752
18197W        W18397   4.318   8.021   0.031 -0.1878 -0.0029 -0.2216
18198W        W18398  11.237  11.326   6.606 -0.1451  0.0544 -0.0895
18199W        W18399   8.725  13.222  10.955 -0.1852 -0.0983 -0.0110
18200W        W18400  12.545  13.746   0.679 -0.2768  0.0961 -0.0535
18201W        W18401   7.623   8.784  10.555 -0.1784  0.2333 -0.1156
18202W        W18402   5.770  11.294   8.415 -0.2783  0.3171 -0.0116
18203W        W18403   1.574   9.808   4.635 -0.2626 -0.0493 -0.0352
18204W        W18404   8.688   5.298  14.207  0.0919  0.1794 -0.0865
18205W        W18405   8.517   2.529   8.894 -0.1195  0.0226 -0.0676
18206W        W18406   8.694  15.107  11.576 -0.2164 -0.0303  0.3127
18207W        W18407  10.932   5.394   3.357 -0.1455  0.3184  0.2938
18208W        W18408   7.995   7.833   7.320 -0.3092  0.0409 -0.3162
18209W        W18409   3.701  14.098  10.819  0.1839 -0.1137 -0.0676
18210W        W18410   9.545  12.760   8.223 -0.1324 -0.1266 -0.1280
18211W        W18411   7.065   2.411   3.016 -0.1055 -0.0828  0.1827
18212W        W18412   0.878  11.623   7.678 -0.2216  0.0360 -0.3171
18213W        W18413   8.513   7.814   8.792 -0.3008 -0.0773 -0.1206
18214W        W18414   0.025  13.714   8.256 -0.2038 -0.0593 -0.0099
18215W        W18415   7.380  11.654  13.395 -0.1833  0.1086 -0.0554
18216W        W18416   3.587  10.189   6.096  0.0579  0.1819 -0.2957
18217W        W18417  11.882   9.188   6.621 -0.0789 -0.3116  0.1855
18218W        W18418  10.973   4.284   0.584  0.1464 -0.1125  0.0088
18219W        W18419   9.357   0.276  14.115 -0.4023 -0.3300 -0.2126
18220W        W18420   7.457   8.935  12.623 -0.0176 -0.0839  0.0999
18221W        W18421   5.736   4.393  11.839  0.0946  0.3055  0.0072
18222W        W18422  11.509  12.773  13.805 -0.0548  0.1272  0.0239
18223W        W18423  13.312   9.905  15.170 -0.0451 -0.0950  0.2576
18224W        W18424   1.293   7.564   1.354 -0.2967 -0.1004 -0.0753
18225W        W18425  12.311  12.202   5.216 -0.1633 -0.0873  0.2172
18226W        W18426   6.056  12.058  14.717  0.0941  0.1840  0.3841
18227W        W18427  12.190  13.082   4.171  0.2845  0.0398  0.0716
18228W        W18428   4.584  12.172   8.001 -0.1045 -0.1079  0.1400
18229W        W18429   5.183  15.116   2.599  0.1531  0.0529  0.1229
18230W        W18430   2.675   7.290   8.566  0.2115 -0.0273  0.1635
18231W        W18431   5.980   3.198  13.119 -0.1377 -0.0533 -0.0065
18232W        W18432  12.038   8.065   9.937 -0.0502  0.0348  0.1148
18233W        W18433  14.534   9.133  13.697  0.2132 -0.0628  0.0772
18234W        W18434   6.616   6.783  10.068 -0.1704 -0.1842 -0.0016
18235W        W18435  10.728   9.178   6.125 -0.3947  0.0577  0.0171
18236W        W18436   3.180   1.814   2.974 -0.1357 -0.0630 -0.1357
18237W        W18437  11.448   7.158   1.507  0.0039 -0.1046 -0.0514
18238W        W18438   0.674  12.325   2.918 -0.2620  0.1631  0.1189
18239W        W18439   7.042   1.641  12.518  0.0663  0.2305  0.0224
18240W        W18440   8.615   8.797   2.150  0.0431 -0.2649  0.0481
18241W        W18441  10.139   8.971   8.646 -0.1961 -0.0883 -0.0302
18242W        W18442   6.475  12.969   7.315  0.0490  0.0656  0.1767
18243W        W18443  15.060  13.784   4.098 -0.0735  0.1065 -0.0514
18244W        W18444   2.644   8.165  14.446 -0.0956 -0.1040 -0.1450
18245W        W18445   5.727   9.935   3.631 -0.2867  0.1467  0.2096
18246W        W18446  10.753   0.728   9.519 -0.0112 -0.3814 -0.1452
18247W        W18447  12.304  12.922  12.766 -0.0739 -0.3856  0.0100
18248W        W18448   2.421  14.858   5.967 -0.4818 -0.1369 -0.0818
18249W        W18449   8.400   9.717   7.452  0.0835 -0.3921 -0.2687
18250W        W18450  13.808   1.490   4.045  0.2309  0.6263  0.0339
18251W        W18451  10.379   9.117  11.241  0.0346 -0.1379  0.6047
18252W        W18452   6.096   0.553  13.011  0.0170  0.2405 -0.1038
18253W        W18453   9.516  12.164  14.072  0.0127  0.0658  0.2432
18254W        W18454  13.379   6.035   9.063  0.0808 -0.0257 -0.2394
18255W        W18455   5.993  15.138   1.012 -0.1068 -0.0787 -0.3117
18256W        W18456   5.236  10.964   5.236 -0.0573 -0.2195  0.1864
18257W        W18457   6.395  12.273   6.647  0.1613 -0.1803 -0.2532
18258W        W18458   4.756   5.850  14.841 -0.0505 -0.0280 -0.0744
18259W        W18459   8.752  12.340  11.158 -0.1223  0.0502 -0.0528
18260W        W18460   6.862   6.003   5.212  0.0516  0.1525  0.1811
18261W        W18461   9.951   0.194  13.309 -0.1693  0.0510  0.0103
18262W        W18462   8.753   5.983  11.804 -0.0802  0.1880 -0.0147
18263W        W18463   1.481   8.735   1.949 -0.0260 -0.3229 -0.1665
18264W        W18464  10.656   6.890  10.991 -0.1719  0.0773  0.0590
18265W        W18465   4.493  14.965   2.435 -0.3131 -0.1431  0.0024
18266W        W18466  12.714   1.179  11.675 -0.3255  0.0866  0.0030
18267W        W18467   6.300   6.080  12.934 -0.1090  0.5125 -0.1091
18268W        W18468   7.788   2.845   8.613  0.1935  0.0168  0.0601
18269W        W18469  10.073   9.789  10.782 -0.0768  0.0104  0.0119
18270W        W18470   7.618   8.576  13.955  0.1046  0.0718  0.2622
18271W        W18471   4.549   9.618  12.932  0.0515 -0.1098  0.0906
18272W        W18472   2.836  10.082   5.287 -0.0380 -0.0982 -0.0634
18273W        W18473  14.759   8.145   1.379  0.2316 -0.1782 -0.0226
18274W        W18474  12.022   1.599  12.070  0.2689  0.1600  0.1878
18275W        W18475   9.878   2.938   9.064  0.4137  0.2777 -0.1799
18276W        W18476  11.506  12.607  11.239 -0.0994  0.3931  0.2629
18277W        W18477   7.667  12.227   6.510 -0.1428  0.1338 -0.0999
18278W        W18478   8.336   5.916   4.450 -0.0363  0.3290 -0.1725
18279W        W18479   7.924   7.434  10.001 -0.1246  0.0217  0.1323
18280W        W18480  13.465   8.250  13.825 -0.0338  0.0494 -0.2640
18281W        W18481   5.922  15.142  12.187 -0.0810 -0.0628 -0.0744
18282W        W18482   2.143  12.457  11.811  0.2708  0.3018 -0.0836
18283W        W18483   8.553  14.598   7.690  0.2187 -0.0269 -0.3292
18284W        W18484  13.334   4.118   1.336  0.0750 -0.0620 -0.0471
18285W        W18485  10.093   5.488  13.973 -0.0946  0.1224  0.0869
18286W        W18486   2.390  14.635   9.156 -0.2330  0.2223 -0.0390
18287W        W18487   1.775   7.967  10.310 -0.1237  0.1972  0.0507
18288W        W18488   4.033   0.788   3.306  0.1212  0.1076 -0.0260
18289W        W18489   7.363   8.475  12.812 -0.0255  0.2009 -0.0848
18290W        W18490  10.176   4.001  12.910 -0.0996  0.2139 -0.1187
18291W        W18491   6.672  10.890   2.118 -0.1627 -0.0008 -0.1222
18292W        W18492   5.515   8.616   4.309  0.1761 -0.0351  0.2733
18293W        W18493   7.829  14.327  14.328 -0.0800 -0.1095 -0.1082
18294W        W18494  13.203   6.776   6.248 -0.1947  0.2856 -0.1754
18295W        W18495   5.332  10.176   3.509  0.3006 -0.3675 -0.0968
18296W        W18496   6.494  13.017  13.096 -0.1111 -0.2967  0.0857
18297W        W18497  12.637  14.868  10.196 -0.2197 -0.3291  0.0967
18298W        W18498   9.669   0.351  11.955 -0.1807 -0.0912  0.0452
18299W        W18499   9.791  10.629   9.011  0.1544 -0.0772  0.1766
18300W        W18500   3.378   5.503   2.672  0.0359 -0.3155 -0.0209
18301W        W18501   6.555   9.825  13.935  0.0367  0.1544 -0.0092
18302W        W18502   9.513   4.204  14.529 -0.0622  0.5230 -0.1671
18303W        W18503   9.006  10.613   3.428  0.5544  0.2273 -0.5279
18304W        W18504   8.821   8.639  12.058 -0.0467  0.0259  0.0491
18305W        W18505  11.718  11.140   7.854  0.0169  0.0921  0.2264
18306W        W18506  11.642  13.611  13.334  0.0729  0.0857 -0.0391
18307W        W18507  12.603   7.871  13.728 -0.1563 -0.0531 -0.0852
18308W        W18508   5.949   7.501  12.663  0.1920 -0.0029  0.1719
18309W        W18509   8.035   9.825   4.861  0.0524 -0.1402  0.0426
18310W        W18510   5.307   4.629  10.062 -0.1454  0.3650 -0.3223
18311W        W18511   5.490  12.600  10.015 -0.1070 -0.2454  0.0155
18312W        W18512   5.369  14.468   9.364  0.2444  0.0552 -0.1009
18313W        W18513   5.046   2.317  11.620 -0.1538 -0.3142 -0.2669
18314W        W18514   6.106   8.926  14.112  0.1093  0.0720  0.1801
18315W        W18515   8.051   7.116  10.752  0.0093 -0.3843  0.1709
18316W        W18516   2.930  11.953   4.896  0.1115 -0.0916 -0.0484
18317W        W18517  11.711   8.073   3.538 -0.1426 -0.3145  0.1179
18318W        W18518   1.310  11.121  11.915  0.0351 -0.0070 -0.0248
18319W        W18519   6.929   8.615  10.184 -0.1011  0.1120 -0.3851
18320W        W18520  12.537   7.081   3.754  0.0966 -0.0373  0.0954
18321W        W18521   1.318   1.552   9.979 -0.0081  0.1483  0.1065
18322W        W18522  13.476  11.007  12.386  0.0881 -0.1575  0.0961
18323W        W18523   4.718   2.480  13.465  0.1452  0.1582  0.0941
18324W        W18524  14.044   4.542  14.560 -0.0610 -0.0574 -0.0797
18325W        W18525   7.308   4.665   0.116  0.1416 -0.0284  0.0203
18326W        W18526   1.000   6.684   1.396  0.0800 -0.0033 -0.1044
18327W        W18527   7.445  11.749   3.988 -0.2142 -0.0905 -0.0590
18328W        W18528  11.275  11.496   1.051 -0.0360 -0.2107  0.3427
18329W        W18529   8.797   1.825   8.226 -0.0925  0.3250  0.3761
18330W        W18530  14.403  12.293   6.899 -0.2042  0.1012 -0.0706
18331W        W18531  10.655   9.358   8.643 -0.0472 -0.0651 -0.1388
18332W        W18532   8.100  14.796   4.968  0.2085  0.0063  0.0262
18333W        W18533   9.942   8.538  12.044 -0.0356  0.2465 -0.1554
18334W        W18534   0.963  12.060   6.942 -0.2087 -0.3014 -0.0931
18335W        W18535   3.292   9.785   2.013  0.1703  0.2650 -0.4512
18336W        W18536   9.895  10.440   1.156  0.0754  0.1445 -0.1042
18337W        W18537   4.575   6.080  10.706 -0.0805  0.0231  0.1435
18338W        W18538  12.304   5.051   6.709 -0.0829  0.4595 -0.1297
18339W        W18539   3.743  14.293   5.911  0.3197  0.0720 -0.2444
18340W        W18540  12.373  14.651   2.442  0.0129  0.1488  0.1741
18341W        W18541   7.792  10.497  12.475 -0.1313  0.0813  0.0846
18342W        W18542  12.205   9.857  10.155 -0.5037  0.0952 -0.0424
18343W        W18543   9.782   8.519   9.353  0.1606 -0.1250 -0.2095
18344W        W18544   9.150  10.178   7.895 -0.0270 -0.2623  0.0891
18345W        W18545  10.824   3.082  14.785 -0.0326 -0.1335 -0.2432
18346W        W18546   7.946   7.565   5.895  0.1213 -0.0195  0.1962
18347W        W18547   0.954   7.770   8.963  0.0249 -0.0940  0.1051
18348W        W18548   2.455  11.212   3.364 -0.0418 -0.0535  0.1160
18349W        W18549  11.057  12.118   8.802  0.0334  0.0931  0.3380
18350W        W18550   1.224  13.141   3.185  0.1376 -0.2210 -0.0536
18351W        W18551   1.065   9.623  11.785  0.0209  0.4711  0.1232
18352W        W18552  12.104  12.165  12.895  0.0134  0.1089 -0.1845
18353W        W18553   5.798  10.860  13.758  0.1520  0.1593  0.1273
18354W        W18554  12.001   7.121  11.508 -0.0060  0.1111  0.6107
18355W        W18555  13.846   1.401   6.577  0.1264  0.0202  0.2032
18356W        W18556  14.427  11.457   0.400 -0.0330 -0.1814 -0.2842
18357W        W18557   7.951   0.585  11.871  0.2707  0.1339  0.0208
18358W        W18558  10.022   9.508  13.318 -0.3210  0.0529 -0.1755
18359W        W18559   8.027  10.695  13.312  0.0089  0.1931  0.2342
18360W        W18560   7.509  14.610   8.320 -0.3261  0.1880  0.2179
18361W        W18561   2.941  11.417   9.329 -0.1882 -0.1308  0.1443
18362W        W18562  14.803   6.395  14.894  0.2926  0.0834 -0.0596
18363W        W18563  14.819  10.126  14.673 -0.1187  0.1739 -0.0463
18364W        W18564  10.062   4.198  11.094 -0.2678  0.2039 -0.1088
18365W        W18565   8.374   1.568   8.152  0.2678  0.1410 -0.2279
18366W        W18566  13.047   2.340  15.083 -0.0557  0.0408  0.2446
18367W        W18567   9.583  14.133  10.066  0.0226  0.0306 -0.0984
18368W        W18568  14.273   1.652  10.566 -0.0235 -0.2141  0.0158
18369W        W18569  13.859  13.249   5.894 -0.1169 -0.2820  0.1903
18370W        W18570  10.793   1.680  13.708 -0.0163 -0.3157 -0.4865
18371W        W18571   1.208   7.088  13.076 -0.0418 -0.1041  0.2654
18372W        W18572  14.103   1.373   8.589  0.2064 -0.2708 -0.0603
18373W        W18573   5.045   2.768  11.003 -0.0796 -0.0813 -0.1009
18374W        W18574   4.335   0.988   1.067  0.0493 -0.4156 -0.0523
18375W        W18575   2.170   8.332  13.683  0.2233 -0.2735 -0.1045
18376W        W18576   2.433   1.129  10.114 -0.1298 -0.0265  0.2087
18377W        W18577  10.046   3.339   0.749  0.1086  0.0574 -0.0225
18378W        W18578   5.203  14.320  14.486  0.2470 -0.0412  0.1880
18379W        W18579  14.823   6.039   4.000 -0.2492 -0.0526  0.0769
18380W        W18580   2.572   1.056  14.077 -0.4462 -0.2918  0.0601
18381W        W18581   7.925   4.325   8.753  0.1819  0.0791  0.1946
18382W        W18582   3.483   7.239  11.268 -0.0497 -0.1573 -0.2569
18383W        W18583  14.663  10.709  13.847  0.2340  0.3137 -0.0741
18384W        W18584  13.968  12.683   9.188 -0.1563  0.2099 -0.0957
18385W        W18585   8.489  12.719   8.013  0.0274 -0.1542  0.1078
18386W        W18586  10.294   4.807  12.369 -0.0091 -0.1036  0.0890
18387W        W18587   7.083   3.035   2.648 -0.0481  0.2990  0.0300
18388W        W18588  12.936  13.212   6.495 -0.1650  0.1472 -0.0434
18389W        W18589   2.983  11.122   3.873  0.2199 -0.1378 -0.3822
18390W        W18590  14.553  10.862  12.365  0.0714  0.1916 -0.0407
18391W        W18591   6.038  15.023   2.484 -0.0098 -0.2224 -0.0364
18392W        W18592   9.061  14.428   2.548 -0.0258  0.0911  0.1574
18393W        W18593   6.879   8.352   3.714 -0.1747  0.0509 -0.0388
18394W        W18594   6.753   3.274   8.386 -0.4313 -0.1884  0.0497
18395W        W18595  10.816  10.561  13.710  0.2461 -0.1517  0.1579
18396W        W18596   3.270   8.064   9.862  0.2947 -0.0478 -0.0556
18397W        W18597   9.157   7.960   1.221  0.0895 -0.2966 -0.2557
18398W        W18598  14.427  11.988   7.309  0.1186 -0.3051  0.1165
18399W        W18599   2.952   5.761  11.623  0.0759 -0.1916  0.4351
18400W        W18600  11.969  10.588   4.365 -0.0253  0.3080  0.2536
18401W        W18601   2.124  10.748   5.047  0.0626 -0.0435 -0.0132
18402W        W18602  11.485   9.734   5.868  0.2426 -0.0937 -0.0047
18403W        W18603  13.681  10.270   4.813 -0.2635  0.1043 -0.1463
18404W        W18604   9.150   0.165   9.608 -0.5801  0.1444  0.1117
18405W        W18605   8.964   1.927   7.734 -0.1292 -0.0105 -0.0738
18406W        W18606   1.132   3.803   7.724 -0.1263  0.1426  0.0057
18407W        W18607   7.768  14.254   7.435 -0.0844 -0.2085  0.0114
18408W        W18608   2.457   7.756   2.241 -0.0603  0.0817  0.1605
18409W        W18609   7.269  10.435   1.106 -0.2155  0.3803  0.2094
18410W        W18610   6.395   3.601   8.181 -0.3443  0.0402  0.0129
18411W        W18611  10.237  10.777  12.474  0.1565 -0.0581 -0.3901
18412W        W18612   1.411   7.319   9.033 -0.1576  0.1896 -0.0435
18413W        W18613   7.664   7.070  10.366 -0.3855 -0.2417 -0.0180
18414W        W18614   1.870   0.725   7.890 -0.2625  0.1289 -0.4554
18415W        W18615   6.171   3.669   1.938  0.0414 -0.0105 -0.3391
18416W        W18616  14.203  12.780  14.279  0.0234 -0.0879 -0.0734
18417W        W18617   2.122   0.269  11.606 -0.0902  0.1323  0.0924
18418W        W18618   8.076  13.086   5.523  0.0167  0.0416 -0.1570
18419W        W18619   7.592   2.896   7.248 -0.0942 -0.2174  0.1828
18420W        W18620  10.637   6.663   6.183 -0.3501 -0.0776 -0.0770
18421W        W18621  10.164   8.547   1.923 -0.3962  0.0834 -0.0736
18422W        W18622   8.772  14.080   9.274  0.1547  0.1559  0.0941
18423W        W18623  10.289  11.312   9.693  0.0841 -0.1356 -0.1048
18424W        W18624   8.225   7.822  13.020  0.0875 -0.1381 -0.1326
18425W        W18625   5.854  14.677   9.486 -0.1475 -0.1781 -0.2989
18426W        W18626   9.446   0.257   2.997  0.0976  0.0772 -0.0217
18427W        W18627   4.761  13.935   2.935  0.3629 -0.0697  0.0906
18428W        W18628   6.077   9.221   2.810  0.1467 -0.0738 -0.1403
18429W        W18629   5.228   3.061   9.345 -0.3437  0.1801 -0.2378
18430W        W18630   6.567  14.836   3.373 -0.2388 -0.0607  0.2009
18431W        W18631   8.652   1.726   6.046  0.3072  0.0316  0.1009
18432W        W18632   3.847  12.558   7.061  0.0420 -0.0557  0.2013
18433W        W18633   8.535   3.404   8.262 -0.0660  0.1212  0.0092
18434W        W18634   4.161  10.963  13.507  0.0811 -0.0690  0.4582
18435W        W18635   7.254  13.962  13.821  0.2900  0.0000 -0.2784
18436W        W18636  11.039  12.424   0.177  0.0623 -0.0120  0.0901
18437W        W18637   7.024  10.084   4.348 -0.0783  0.1584  0.0604
18438W        W18638  10.740   4.149  13.243 -0.0343  0.0669  0.0611
18439W        W18639   8.507   7.415   8.014  0.0460  0.1059  0.1187
18440W        W18640   5.114   7.247   8.579 -0.2663  0.2818  0.1942
18441W        W18641   4.277   0.685  11.876  0.0626  0.3429  0.1577
18442W        W18642   4.741  10.482   9.162  0.0779  0.0649 -0.3013
18443W        W18643  14.384  11.662  10.492  0.2413  0.0899 -0.0196
18444W        W18644  10.925   7.516  12.237 -0.1793  0.2857 -0.4292
18445W        W18645  11.721   9.929   3.243  0.0403 -0.0906 -0.0760
18446W        W18646   7.023   9.917   0.356 -0.1482  0.0905 -0.0559
18447W        W18647  10.879  14.681   3.330  0.2397 -0.0829  0.0599
18448W        W18648  11.907   9.222  12.831 -0.1373  0.2709  0.3033
18449W        W18649   2.524   7.056  11.981 -0.0906  0.0165  0.3289
18450W        W18650  10.310   9.122   0.813 -0.4038 -0.0024 -0.3287
18451W        W18651   6.698   8.071  12.259  0.0657 -0.2202 -0.0961
18452W        W18652   8.266   4.212  10.553 -0.1425  0.0436  0.1315
18453W        W18653   6.422  13.988   1.180 -0.1336 -0.0633 -0.1273
18454W        W18654  12.433   8.007   9.401 -0.1037  0.1005  0.1347
18455W        W18655   5.107   1.409   3.965 -0.1335  0.0347  0.1464
18456W        W18656   4.384   9.744   9.627  0.0813  0.1589 -0.1421
18457W        W18657   4.449   9.902   7.157 -0.1516 -0.0616 -0.0466
18458W        W18658   8.278   9.346   2.156 -0.2085  0.0613 -0.0692
18459W        W18659   6.013  13.447   3.462  0.0788  0.1268 -0.1147
18460W        W18660   7.488   7.230  14.339 -0.1761 -0.0050  0.1022
18461W        W18661   9.338   3.997   3.099 -0.0163 -0.3388  0.2361
18462W        W18662  10.042   0.771   2.732 -0.0782  0.2013  0.0968
18463W        W18663   0.258   1.018  15.023 -0.0342 -0.2471  0.2213
18464W        W18664  12.511   1.984   3.701  0.0099  0.4688  0.0099
18465W        W18665   6.136   0.579   0.738  0.1687  0.0160  0.0035
18466W        W18666   7.575  11.771   2.911 -0.2931  0.0055 -0.0100
18467W        W18667   6.148   6.905  15.014  0.0914  0.0349 -0.2983
18468W        W18668   8.923   0.873   9.432  0.2285  0.0930  0.0547
18469W        W18669   1.444  10.081   8.368  0.3529 -0.0053 -0.0638
18470W        W18670  11.898   1.461   7.337  0.3239  0.1590 -0.1886
18471W        W18671   2.750  11.029  11.105 -0.0964  0.2096 -0.0802
18472W        W18672  12.599   5.466   2.481 -0.0867  0.0739  0.0286
18473W        W18673  10.581   7.556  14.621 -0.0608 -0.0120  0.1675
18474W        W18674   3.624   7.739  14.742 -0.3144 -0.2662  0.0697
18475W        W18675  10.510   7.176  11.956 -0.0272 -0.1252 -0.0231
18476W        W18676   3.577   9.664   5.101  0.4103  0.0253 -0.0112
18477W        W18677   3.251  13.188  11.911 -0.4040  0.0503 -0.2079
18478W        W18678  14.201   8.067  12.575 -0.0455 -0.1319 -0.0623
18479W        W18679   6.793   6.441  13.004  0.0450  0.1942  0.0885
18480W        W18680  13.495   4.991  11.598 -0.4830 -0.0213  0.3113
18481W        W18681  13.103   9.369  11.443  0.0039 -0.2081 -0.2108
18482W        W18682  12.694  14.960   3.000 -0.1224 -0.0607  0.0422
18483W        W18683  13.381  11.460  13.539  0.1193 -0.0658 -0.1497
18484W        W18684  14.728  12.855   6.116  0.1990  0.1993  0.1515
18485W        W18685   8.391   8.504   4.788 -0.1436  0.3935  0.1585
18486W        W18686  10.795   4.335   1.145  0.3372 -0.2102 -0.0489
18487W        W18687  12.299  14.416  12.432  0.1684 -0.1406  0.2692
18488W        W18688  14.375  10.000   7.748 -0.3582  0.2341  0.0368
18489W        W18689  14.106   8.616   1.236 -0.2767  0.2336 -0.2568
18490W        W18690   7.966   1.168   8.989 -0.0007 -0.1351 -0.1010
18491W        W18691   5.818  14.702  13.859 -0.0919  0.0254  0.3469
18492W        W18692   2.321   2.708   2.811 -0.0289 -0.0898 -0.1069
18493W        W18693   9.210   6.893  14.344 -0.1540  0.4976  0.0960
18494W        W18694  14.882   4.625  13.989 -0.2486  0.0341  0.4054
18495W        W18695   5.559   0.217  12.444  0.1375 -0.0162 -0.0733
18496W        W18696   0.387   6.396   8.901  0.0922  0.1387 -0.3847
18497W        W18697  10.241   0.130  14.570 -0.1481  0.0888  0.0081
18498W        W18698  10.996   1.964  10.319  0.1474 -0.0362 -0.1047
18499W        W18699   1.458   3.629  12.601 -0.2151 -0.0476  0.0441
18500W        W18700   7.965   9.945  13.981 -0.1790  0.1786  0.0687
18501W        W18701  12.666  12.276   7.275  0.1252  0.0229  0.2867
18502W        W18702   4.497   2.401  11.077 -0.0226  0.4037  0.4310
18503W        W18703  14.179  11.877   0.173 -0.0871 -0.1398 -0.2495
18504W        W18704  10.215  13.553   8.350 -0.0287  0.1564 -0.1484
18505W        W18705   5.993   7.657   3.360 -0.1626  0.2951  0.0113
18506W        W18706  11.050   5.376   1.253 -0.2015  0.2421  0.1612
18507W        W18707   8.114   1.898   7.225  0.0332  0.2681 -0.0162
18508W        W18708   2.988  10.034   6.826 -0.1922 -0.2474  0.3084
18509W        W18709   1.039   0.445   0.759  0.0199  0.0981 -0.3736
18510W        W18710   4.391  10.731  12.123  0.1051  0.0711  0.0287
18511W        W18711   7.624   9.973   1.886 -0.2225 -0.0802  0.1387
18512W        W18712   7.184  10.639   4.192 -0.0871  0.0006 -0.0145
18513W        W18713   7.579   3.951   2.474  0.0907 -0.0111 -0.1119
18514W        W18714   3.432   4.125   0.336  0.2761  0.2077 -0.0459
18515W        W18715   3.810  10.051   1.662  0.0539  0.0472  0.1959
18516W        W18716   0.315  13.009  13.331 -0.1211  0.1815  0.3061
18517W        W18717   2.554   5.488   1.473 -0.0786  0.3488  0.1743
18518W        W18718   0.712   9.497   1.336  0.0890 -0.0074  0.0673
18519W        W18719   5.276  10.340   3.027  0.1830  0.2801  0.0389
18520W        W18720   6.928   5.661  13.496  0.2053  0.2741  0.1333
18521W        W18721  10.695   5.903   8.924  0.1382 -0.1292 -0.1128
18522W        W18722   5.212   9.775   4.813  0.1556  0.2931 -0.0609
18523W        W18723   9.892   4.501   1.161  0.5095  0.0123 -0.1447
18524W        W18724   0.602  11.915  12.120  0.1576 -0.1369  0.0165
18525W        W18725   0.998  13.278  12.955  0.0279 -0.3808 -0.0447
18526W        W18726   8.268   7.499  10.466 -0.1095 -0.0641  0.0868
18527W        W18727   4.816  11.177   5.228  0.0477 -0.1995 -0.3473
18528W        W18728   6.246   1.320  11.547 -0.0194  0.2050 -0.2624
18529W        W18729   8.025   0.351  10.629  0.0913 -0.0103  0.1618
18530W        W18730   8.485   2.615   1.466  0.0698  0.4551 -0.0421
18531W        W18731  12.340   5.403  13.474 -0.3527  0.0487 -0.0562
18532W        W18732  14.736  14.829   9.964  0.1108 -0.0365 -0.1841
18533W        W18733   8.630  14.088   3.470 -0.1824 -0.1317 -0.1557
18534W        W18734   6.833   2.719  15.085 -0.0175 -0.1145 -0.0813
18535W        W18735   4.745   7.713   5.092 -0.0057  0.2397  0.1351
18536W        W18736   2.042  11.518  11.624  0.1353  0.3572 -0.0843
18537W        W18737   9.142   7.231   0.590  0.2094 -0.1948 -0.3001
18538W        W18738  14.200  10.279   4.880 -0.0470 -0.0189 -0.4081
18539W        W18739  13.063   3.083   1.922  0.1320 -0.1744  0.0670
18540W        W18740   1.462  12.197  10.326 -0.2422  0.1822 -0.1435
18541W        W18741   7.059  14.065   3.020  0.2365  0.1248 -0.0030
18542W        W18742   8.066  10.139  14.454 -0.1203 -0.0028  0.1130
18543W        W18743   8.366   4.107  13.473 -0.2258 -0.0961 -0.1701
18544W        W18744   9.730   4.794  12.509 -0.2818  0.0726  0.1722
18545W        W18745   8.195   4.468   7.415  0.1292 -0.0642 -0.0682
18546W        W18746   4.085  14.413   0.944 -0.1281 -0.3692  0.0902
18547W        W18747   6.842   4.084   1.605 -0.3074 -0.0797  0.0331
18548W        W18748   8.349   9.222   7.503 -0.0191 -0.3938  0.0767
18549W        W18749   8.393   3.167  11.025 -0.0007 -0.0877 -0.2624
18550W        W18750   9.844   4.298   2.769 -0.2099 -0.0961 -0.0818
18551W        W18751   7.841   8.823   4.081  0.0728  0.0212  0.0532
18552W        W18752   8.294   1.087   7.131  0.3547 -0.0696  0.0465
18553W        W18753   0.221  11.242   2.412 -0.1643  0.4382 -0.0782
18554W        W18754  11.836  10.492  14.687  0.1944  0.3349 -0.1689
18555W        W18755   8.193   3.411   3.638 -0.3209 -0.2599  0.1297
18556W        W18756  14.343   8.377   1.579 -0.1973  0.4358  0.0095
18557W        W18757  13.698  10.849   9.870 -0.1093  0.2339  0.1156
18558W        W18758  13.098  11.888   5.550  0.2357  0.0086 -0.0210
18559W        W18759  10.481  14.147   0.132 -0.2148 -0.0473  0.2415
18560W        W18760   9.164  11.643   1.043 -0.4095  0.3173  0.1002
18561W        W18761   6.343  10.997  14.784 -0.0003  0.2371  0.0554
18562W        W18762   8.484   5.836   6.962  0.4235  0.0712  0.3542
18563W        W18763   8.253   4.128   5.483  0.1811  0.1743  0.2185
18564W        W18764  12.789   6.360  14.521 -0.2106  0.1906  0.1574
18565W        W18765   8.361   6.736  11.700 -0.2819  0.1718 -0.0043
18566W        W18766   6.954   7.362  14.122 -0.1174  0.2981  0.2097
18567W        W18767   3.211   5.607   6.787 -0.3062  0.0316 -0.2847
18568W        W18768   3.304  10.643   0.898  0.0549  0.0563 -0.0014
18569W        W18769  13.141   1.019   0.868 -0.0303 -0.1525 -0.1097
18570W        W18770   7.080   4.497  14.479 -0.1165 -0.1898  0.1431
18571W        W18771  12.478   9.378   7.771  0.0734  0.1342 -0.1048
18572W        W18772   9.379  12.800  14.401 -0.1718  0.1907  0.2289
18573W        W18773   3.365   5.830   7.446  0.3291  0.0547 -0.2998
18574W        W18774   9.790  10.113   3.218  0.4122 -0.0229  0.0151
18575W        W18775  14.232   3.888  14.454  0.0510 -0.1828 -0.0935
18576W        W18776  13.517  13.521  11.838 -0.0656  0.0517 -0.1493
18577W        W18777  12.321   2.610   5.180 -0.2211  0.0267 -0.2216
18578W        W18778   0.248  11.134   8.528  0.2380 -0.0153  0.2697
18579W        W18779   8.105   0.549   6.842 -0.0715  0.1700 -0.3955
18580W        W18780  15.134   7.038   8.016  0.1514 -0.1485  0.3686
18581W        W18781   5.115  12.444  14.814  0.1181  0.5298 -0.1306
18582W        W18782   7.020   5.860   4.280  0.0417  0.2215  0.0587
18583W        W18783   4.843   4.824  10.129  0.2151  0.0389 -0.0910
18584W        W18784   3.590   4.404  10.845  0.2384  0.1540 -0.2926
18585W        W18785   2.149  12.192  13.607  0.1965  0.1039  0.0472
18586W        W18786   9.110   9.250   7.864 -0.2457  0.2758  0.1137
18587W        W18787   6.297  12.772  13.499 -0.0253 -0.1168 -0.0188
18588W        W18788  10.938   9.622   1.062 -0.0427 -0.1811 -0.0730
18589W        W18789  12.419   8.885  11.791 -0.3036 -0.3128 -0.1790
18590W        W18790   9.169  12.267   9.884  0.1211  0.1155 -0.1354
18591W        W18791   6.737   7.666   1.324  0.0667 -0.2067 -0.2851
18592W        W18792   3.665   4.647  14.371  0.3521  0.0674 -0.1320
18593W        W18793  11.495   6.264   7.911 -0.1192 -0.2294  0.2336
18594W        W18794   9.248   0.205   2.488  0.0546 -0.2049  0.2595
18595W        W18795  13.397  10.798   4.687 -0.2283  0.1431  0.4067
18596W        W18796   0.145   6.708   1.303  0.0613 -0.2316  0.0823
18597W        W18797   1.241  13.662   7.865  0.0445  0.2826  0.1386
18598W        W18798   5.364   8.466   8.248  0.2246 -0.1773  0.2039
18599W        W18799  11.676   2.419  13.031  0.0630 -0.1674  0.0326
18600W        W18800  10.107  10.376   6.445  0.0921 -0.1739  0.2339
18601W        W18801  14.022   7.534  14.203 -0.2917 -0.2454  0.0612
18602W        W18802  12.668   8.950   2.862 -0.2408 -0.6925 -0.2558
18603W        W18803  13.533  10.534  10.180  0.2660  0.0502 -0.1148
18604W        W18804  11.681   7.911  12.653 -0.1358  0.2686  0.1584
18605W        W18805   1.141   5.273  12.448  0.3707  0.1287 -0.2523
18606W        W18806   2.387   8.172  10.978 -0.1111  0.0676  0.0985
18607W        W18807   9.247  12.358  11.233 -0.1001 -0.1147  0.0635
18608W        W18808   9.709   6.224  13.740  0.0434  0.0508  0.1500
18609W        W18809   2.577   3.919   3.354  0.1532  0.0641 -0.0099
18610W        W18810   9.219  11.169   0.233  0.2186 -0.1717  0.0479
18611W        W18811  13.051   7.628   4.197 -0.0835  0.0608 -0.1406
18612W        W18812   8.397   9.442   8.477  0.1530  0.1113  0.1974
18613W        W18813   5.884   8.061   6.183  0.0123  0.1466 -0.2525
18614W        W18814   9.925  10.625  13.406 -0.0420 -0.2955 -0.0171
18615W        W18815   8.697   6.649  12.523  0.2278  0.1002 -0.1264
18616W        W18816  10.357  12.476   8.344  0.2682  0.1229  0.1039
18617W        W18817  10.824   7.780   3.115  0.1771 -0.3341  0.0422
18618W        W18818   7.404   8.509  10.177 -0.1159 -0.0763 -0.0817
18619W        W18819  14.818   7.335  11.471 -0.1930  0.0560  0.0117
18620W        W18820   0.803   6.788   2.816 -0.1822  0.2837  0.5136
18621W        W18821   8.059   1.221   1.261  0.3574 -0.0220 -0.1927
18622W        W18822   9.285   8.925   4.205  0.2819 -0.1371  0.0389
18623W        W18823   5.442   9.796   0.577  0.1499 -0.0004 -0.1349
18624W        W18824  12.713   7.000   6.073 -0.1702 -0.1529 -0.1481
18625W        W18825   9.475  13.247  11.111  0.0628 -0.0692 -0.0191
18626W        W18826   5.997   3.464  14.675 -0.1619 -0.0606  0.0618
18627W        W18827   3.769  14.852   6.835  0.1102  0.0782 -0.0781
18628W        W18828   1.978   5.156   4.013  0.0112  0.1494  0.0190
18629W        W18829  12.255   4.855  12.793 -0.2976  0.0854  0.0491
18630W        W18830   0.205   6.753  13.938 -0.0753  0.0764 -0.3459
18631W        W18831  14.060   5.209   9.142  0.1963 -0.2001  0.3575
18632W        W18832  13.153   0.535   2.811  0.1878  0.0520 -0.1196
18633W        W18833   5.739  14.655   3.181 -0.2983  0.2559  0.1381
18634W        W18834  13.741  12.383  13.028  0.1257  0.0562 -0.1022
18635W        W18835  12.888   9.843  11.438  0.0787 -0.3067  0.1899
18636W        W18836   1.034   7.377   2.994  0.3097  0.2403  0.2294
18637W        W18837  11.845   7.287  14.816 -0.1425  0.0711 -0.0116
18638W        W18838   7.452   9.300   8.511  0.2518 -0.2115 -0.3126
18639W        W18839   1.378   3.285   3.256 -0.0958  0.0130 -0.0806
18640W        W18840   0.579   9.044   1.124 -0.0272  0.1710  0.1548
18641W        W18841   1.299   6.871   8.666  0.0297 -0.4705  0.1126
18642W        W18842  11.358   8.506  11.946 -0.1048  0.0754 -0.1258
18643W        W18843   6.859  14.052   0.870 -0.1223 -0.0844  0.1000
18644W        W18844   8.256   7.160   7.607  0.3553 -0.0977 -0.2972
18645W        W18845  14.520   8.974   9.616  0.1506  0.0881  0.4334
18646W        W18846  11.025   5.577   9.029  0.0315 -0.0887 -0.0929
18647W        W18847   7.014   7.611  10.145  0.3585  0.3276  0.1374
18648W        W18848  11.710   6.007   7.470 -0.0658 -0.0721 -0.0705
18649W        W18849  11.947  13.456   7.776 -0.0102 -0.2609  0.3587
18650W        W18850   6.033   8.719   0.334  0.0611  0.0646  0.1990
18651W        W18851   8.408   8.069  12.158 -0.2860  0.1531 -0.0375
18652W        W18852  15.099   6.227   7.363 -0.0138  0.1240 -0.0922
18653W        W18853   7.323   5.770   3.421 -0.3457  0.1754  0.1537
18654W        W18854   3.122   4.428  13.652  0.2245  0.1491 -0.1275
18655W        W18855  13.698   7.224   1.598  0.3111  0.0565  0.0298
18656W        W18856   9.150  10.357   2.484  0.1822 -0.2038 -0.0474
18657W        W18857   8.752   6.629  12.029  0.3271  0.1392 -0.1561
18658W        W18858  10.673   5.601   4.218  0.3515  0.0201 -0.0061
18659W        W18859  11.677   4.667   7.018  0.1534  0.0972 -0.1874
18660W        W18860  14.804   9.102   5.331  0.0992 -0.1488  0.0281
18661W        W18861  11.174   0.935   5.771  0.0275  0.2411  0.1211
18662W        W18862   5.684   0.053   5.876  0.2587 -0.1709 -0.3099
18663W        W18863   9.441   8.552  12.197 -0.0741 -0.0253  0.1810
18664W        W18864  14.101   8.053   7.288  0.1392  0.3915 -0.1455
18665W        W18865   7.668  10.574  11.542 -0.0629  0.0785  0.0680
18666W        W18866  13.548   7.689  13.293  0.1524 -0.0404 -0.2020
18667W        W18867   3.202  12.986  10.284 -0.2174 -0.0941  0.2917
18668W        W18868  10.838   1.783   0.746  0.0481 -0.1271  0.1599
18669W        W18869   1.920   5.287   9.535 -0.0787  0.0654  0.0105
18670W        W18870  12.845  14.979  14.580 -0.3775 -0.2656 -0.2104
18671W        W18871   8.474   7.879  11.222 -0.1645  0.1052  0.0843
18672W        W18872   1.088  10.317   8.063 -0.0974 -0.0332  0.0465
18673W        W18873  14.553   9.928  10.000 -0.0705  0.1028  0.1251
18674W        W18874   9.830   7.104   6.123  0.0026  0.0581  0.0183
18675W        W18875  10.157   6.326   8.444 -0.0524  0.0021  0.0875
18676W        W18876   6.681   4.406  11.692 -0.0758  0.1152  0.2991
18677W        W18877  14.388  14.357   7.581  0.0933  0.0409 -0.0297
18678W        W18878   0.720   9.616   8.452  0.1651 -0.4178  0.0156
18679W        W18879   6.833  11.417  13.333  0.1107  0.0511 -0.0794
18680W        W18880   6.499  10.555  11.379  0.0525  0.0636  0.0477
18681W        W18881  11.398  11.357   6.102  0.0160  0.1452  0.4191
18682W        W18882   6.928   4.047  14.574 -0.1249  0.5166 -0.0388
18683W        W18883  12.404   1.114   9.006  0.0512  0.2054  0.1259
18684W        W18884   1.364   9.231   0.396 -0.2533 -0.4499 -0.2958
18685W        W18885   8.820   4.804   9.984  0.1460  0.0267  0.0564
18686W        W18886   4.451   7.586  12.020 -0.1206 -0.0535  0.1187
18687W        W18887   6.782   9.777   1.512 -0.1690 -0.1390  0.1058
18688W        W18888   3.745   0.800   9.915  0.2518  0.2633 -0.0604
18689W        W18889   7.536   8.335   9.676 -0.0164  0.1080 -0.2386
18690W        W18890  12.203  13.020  13.230  0.0342  0.3350 -0.1614
18691W        W18891   5.049   9.273  11.030 -0.0469 -0.0275  0.0018
18692W        W18892  10.717   7.316  13.354  0.1084 -0.0228  0.0045
18693W        W18893  10.098   7.720   8.868 -0.2423 -0.0480 -0.0043
18694W        W18894   8.137   5.443   0.491  0.0004 -0.0432  0.1524
18695W        W18895   6.580   7.983   8.661 -0.0580 -0.1702  0.1728
18696W        W18896   4.518   4.473   7.443  0.2074  0.1103 -0.2049
18697W        W18897   7.577   2.744   3.964 -0.0509  0.0894  0.3268
18698W        W18898   7.273   8.927  14.626  0.0332  0.4032  0.1278
18699W        W18899   9.820   6.655  13.028 -0.1457  0.0428 -0.0320
18700W        W18900   6.058   6.874  13.284  0.3582  0.0405 -0.0730
18701W        W18901   9.446  13.572   5.368 -0.3328  0.0689  0.1117
18702W        W18902   8.649  11.337  13.198  0.0308  0.0962 -0.3084
18703W        W18903   5.288   6.562  10.303  0.1663  0.0103 -0.0433
18704W        W18904   0.294   9.554  11.680  0.1992  0.1106 -0.0296
18705W        W18905  12.835   3.771   9.917 -0.0231 -0.0353  0.0993
18706W        W18906   2.486   7.351  14.849  0.0815  0.0321  0.0075
18707W        W18907  14.733   4.820  13.069 -0.1619 -0.0502  0.1015
18708W        W18908  11.411  14.001   2.205  0.1141  0.0434  0.0972
18709W        W18909  11.262   2.786   1.317 -0.0589 -0.1678  0.1593
18710W        W18910   8.307  15.039   1.046  0.0088  0.0293  0.2569
18711W        W18911   6.596  14.605  14.247 -0.0875 -0.1039 -0.2648
18712W        W18912  14.490  11.278  12.000 -0.3581 -0.0911 -0.2310
18713W        W18913   6.672   9.088   2.875 -0.3726 -0.3824  0.1389
18714W        W18914   4.935   7.713  13.494 -0.0450 -0.2985  0.1640
18715W        W18915   9.652  10.386  14.497 -0.1917 -0.0756 -0.0891
18716W        W18916  14.911   3.829  11.139 -0.0890 -0.0610  0.1519
18717W        W18917  13.383  10.053  10.015  0.1842 -0.0780  0.1532
18718W        W18918  11.970  13.731   8.932  0.0046 -0.1670  0.1539
18719W        W18919  12.953   6.128  12.932 -0.0506 -0.0102  0.1686
18720W        W18920   5.667   9.592  12.269  0.2426  0.0263 -0.0310
18721W        W18921   3.754  13.378  14.330 -0.3017  0.0406 -0.0154
18722W        W18922   7.160   0.317  14.245 -0.2512 -0.2084 -0.1193
18723W        W18923  15.034   2.047   9.384 -0.1179 -0.3125  0.0821
18724W        W18924  14.252   0.325  14.394 -0.2255 -0.0859 -0.1199
18725W        W18925   3.031   3.929   4.419 -0.4489  0.2052  0.0921
18726W        W18926   7.704   7.645   9.333  0.1963 -0.0105 -0.0651
18727W        W18927  11.020   5.579   8.426  0.0727 -0.1021 -0.1218
18728W        W18928  12.894   3.907   5.977  0.1869  0.2685  0.3647
18729W        W18929  15.188  11.600  13.489 -0.0844 -0.2278  0.1633
18730W        W18930  14.937  11.079   4.077  0.0805  0.0794 -0.3015
18731W        W18931   1.421   8.191   8.501 -0.1197  0.0551  0.2395
18732W        W18932  13.505   5.529  12.396 -0.0530 -0.0857 -0.1262
18733W        W18933   3.206  11.374  10.903 -0.0729 -0.2719  0.0532
18734W        W18934   2.414   6.564   7.160 -0.0721  0.0183  0.1489
18735W        W18935   9.424  13.699   5.897 -0.0603 -0.1942 -0.3617
18736W        W18936   8.818   4.279  10.495 -0.0243 -0.0927 -0.0627
18737W        W18937   5.545   4.249   5.310  0.2106 -0.0076 -0.1308
18738W        W18938  12.414   6.792  11.294  0.0243 -0.2877  0.1859
18739W        W18939  12.339   4.732  12.220 -0.1815  0.0571 -0.1901
18740W        W18940  10.744   7.767   5.383 -0.1972 -0.2347 -0.0391
18741W        W18941   7.480   6.756  11.346 -0.3535 -0.2033  0.1029
18742W        W18942  12.109   4.647  10.431  0.0301 -0.0922  0.4364
18743W        W18943   2.062   9.597   0.483  0.1861 -0.5354 -0.0651
18744W        W18944   3.953   7.030  11.917 -0.4134 -0.1457 -0.0211
18745W        W18945  13.038   9.504   2.083  0.3282 -0.4492 -0.0231
18746W        W18946  10.206   0.258   9.011  0.3624  0.2258 -0.1442
18747W        W18947  13.708   8.482   7.481 -0.0859 -0.0089 -0.2171
18748W        W18948  11.475   3.258  13.506 -0.0047  0.1421  0.0751
18749W        W18949   5.261  13.410   9.378 -0.0132  0.2020 -0.3067
18750W        W18950  14.332   4.917  13.263 -0.3459 -0.2546 -0.2281
18751W        W18951  11.674  15.006   8.160  0.1032  0.1805  0.0623
18752W        W18952  11.931   4.781   8.112  0.3123  0.0222 -0.0241
18753W        W18953   0.629  14.383   9.865 -0.1144  0.0735 -0.2604
18754W        W18954   6.456  11.848  10.192 -0.0398  0.0612 -0.0380
18755W        W18955  11.313   5.791   4.919 -0.0489  0.4864  0.1606
18756W        W18956   1.991   6.417  11.816  0.0639 -0.2036 -0.0833
18757W        W18957  13.724   0.453  14.929 -0.0098  0.0813 -0.0274
18758W        W18958   9.949   7.728   1.350  0.3990  0.1465 -0.0223
18759W        W18959  12.845   8.142   0.930 -0.0110 -0.0943 -0.1451
18760W        W18960  13.820  11.278  13.782  0.3727 -0.6035  0.2378
18761W        W18961   6.232  10.304  12.574  0.1086  0.1286 -0.2311
18762W        W18962   9.225   2.235   9.095 -0.0413  0.4332 -0.0797
18763W        W18963   7.418   9.122  11.090 -0.1541 -0.5369  0.1359
18764W        W18964   8.137   8.198   6.960  0.0222  0.0527  0.1238
18765W        W18965   7.413  14.003  15.121 -0.3789 -0.0127  0.0857
18766W        W18966  12.676   9.429   3.195 -0.0113  0.0965  0.0964
18767W        W18967   8.989  13.397  10.214  0.0227  0.0223  0.1621
18768W        W18968   7.874   5.280   2.146 -0.0356  0.2070  0.0659
18769W        W18969  12.100  12.625   1.366  0.2374 -0.1128  0.0351
18770W        W18970   6.243   2.928   5.208 -0.1475  0.2008  0.3376
18771W        W18971   6.522   6.485  10.616  0.0683 -0.1074 -0.1302
18772W        W18972  10.972   5.207   1.679 -0.4606 -0.1822 -0.1462
18773W        W18973   9.216  14.131   1.974 -0.1113  0.0021  0.0831
18774W        W18974   6.646   9.402   6.207  0.0909  0.0508 -0.0191
18775W        W18975  11.696  12.284  12.208 -0.2261 -0.1498  0.1799
18776W        W18976   8.944   3.973   1.203  0.3265  0.0650 -0.0424
18777W        W18977   7.148   9.123   8.096 -0.0820 -0.0718 -0.0160
18778W        W18978  10.635   7.620   4.542 -0.0464  0.0260 -0.0824
18779W        W18979   0.576   0.522   4.931 -0.1686 -0.2673 -0.2905
18780W        W18980   1.136  13.381   0.311  0.1312  0.0782  0.0557
18781W        W18981  10.675  11.150   7.444  0.0872  0.0483 -0.0990
18782W        W18982   5.541  10.518   5.294  0.3879  0.0367 -0.0392
18783W        W18983   5.948  13.008   6.687  0.0331  0.1809 -0.1119
18784W        W18984   6.538  13.127   5.496 -0.1816 -0.1324 -0.2813
18785W        W18985   8.964   6.749   1.447  0.0903  0.2514  0.1913
18786W        W18986   1.063   5.150   6.774 -0.0658  0.0159  0.2589
18787W        W18987   7.247  12.353   1.655  0.0806 -0.0184 -0.2078
18788W        W18988   6.345  10.592   1.830  0.2638  0.0570  0.0558
18789W        W18989   3.015   2.052   9.749 -0.0172  0.1765  0.1060
18790W        W18990  10.212   6.072   3.455  0.1667 -0.0789 -0.0050
18791W        W18991   1.344   3.050  12.373 -0.1503  0.0143 -0.3935
18792W        W18992  10.341   5.714  14.309  0.0379 -0.1074 -0.2179
18793W        W18993   3.071   8.745  14.725 -0.1237  0.0077 -0.0088
18794W        W18994   0.248  13.417   3.540 -0.0140 -0.0660 -0.0777
18795W        W18995   4.694   6.444   5.990 -0.2305 -0.1398 -0.2977
18796W        W18996   8.773   6.539   8.831  0.0256 -0.2943 -0.1272
18797W        W18997  13.642  12.704   3.018 -0.1956 -0.1270 -0.2224
18798W        W18998  11.858  13.114   2.072  0.1753  0.0006  0.3594
18799W        W18999   7.779   4.598  13.188 -0.0086  0.0024 -0.0401
18800W        W19000   7.186   8.632  14.239 -0.0598  0.1692  0.0888
18801W        W19001  10.004   1.133   3.746  0.0532 -0.0104  0.0558
18802W        W19002   9.963  15.025   6.082  0.1059 -0.1545  0.3094
18803W        W19003   1.087   6.832   3.666  0.2561 -0.0407 -0.4556
18804W        W19004   2.060   6.586   9.658  0.0066  0.2249 -0.2169
18805W        W19005  11.239   5.530   0.191 -0.0771  0.1329  0.0418
18806W        W19006   6.007  13.510   5.222 -0.2011  0.1903 -0.0412
18807W        W19007   7.838   8.774  11.975 -0.3420 -0.1176  0.3591
18808W        W19008  11.497   4.337  14.997 -0.0334  0.2587  0.1535
18809W        W19009   7.199   8.605  12.357  0.0555 -0.2878  0.0407
18810W        W19010  13.904   7.681  11.202  0.1845 -0.0577  0.3558
18811W        W19011  10.073   0.963  13.977 -0.0327 -0.0029 -0.0830
18812W        W19012   5.577  12.640  14.521  0.1181 -0.1175  0.3131
18813W        W19013  13.431  13.580   4.916  0.0669  0.0277 -0.1951
18814W        W19014   9.156   8.698   7.865 -0.1420  0.1771  0.2376
18815W        W19015   6.537   4.394   0.174  0.1669  0.0202 -0.1090
18816W        W19016  12.187   2.569   1.404 -0.1366  0.0751 -0.1261
18817W        W19017  10.570  12.856   2.422  0.4138  0.1465  0.1134
18818W        W19018   8.668   6.804   1.878 -0.0201 -0.0287  0.1000
18819W        W19019   0.427   8.325  13.192  0.0407 -0.0969 -0.0177
18820W        W19020  13.408   9.039   1.009 -0.2797 -0.0790  0.3427
18821W        W19021  10.900   7.608  12.995 -0.0219 -0.2086 -0.3897
18822W        W19022  13.995  12.963   3.388 -0.0640  0.1810  0.1520
18823W        W19023   4.809  12.275   0.847  0.2730  0.0008  0.1102
18824W        W19024   6.006   6.404  14.280 -0.0158 -0.0430  0.0018
18825W        W19025   6.554   7.994   7.549  0.0156  0.2029  0.1114
18826W        W19026  15.115  14.732  14.112  0.2186  0.0295 -0.1013
18827W        W19027   9.984   6.433   9.312  0.1428 -0.3610  0.2291
18828W        W19028   3.921   4.073  11.783 -0.0065  0.0566 -0.2523
18829W        W19029  12.540   9.205   3.695 -0.0094 -0.0925  0.2336
18830W        W19030   8.981   8.727   2.903  0.2593  0.2284 -0.0240
18831W        W19031   3.705   7.095   2.124 -0.2608  0.0859  0.1182
18832W        W19032  10.165  12.829   9.620 -0.2493 -0.2074 -0.1260
18833W        W19033   9.692   9.191   3.984  0.1438  0.1908 -0.2817
18834W        W19034  14.067   6.413  12.184  0.1951  0.1894 -0.3259
18835W        W19035   8.086   3.669   8.089 -0.0734 -0.0631 -0.1948
18836W        W19036   8.218  13.706  13.881  0.0228 -0.1460 -0.1651
18837W        W19037  12.124  11.719   3.023  0.0907 -0.1612 -0.2790
18838W        W19038  12.444   6.100   0.139  0.2710  0.2880  0.1297
18839W        W19039  10.112  10.229  10.669  0.0420 -0.2916  0.1693
18840W        W19040   7.131  14.539  14.917 -0.0556  0.1042 -0.0786
18841W        W19041  11.277  14.506   1.505  0.1138  0.0166  0.1241
18842W        W19042   6.495  14.180  10.614  0.3031 -0.1748 -0.0078
18843W        W19043  11.518   5.464   7.664 -0.1164  0.0128 -0.0346
18844W        W19044  14.870  12.411   1.741  0.0398 -0.1404  0.1957
18845W        W19045  12.342  13.934  12.640  0.2380  0.2821 -0.1699
18846W        W19046  11.923   9.667   5.518 -0.0439 -0.1291 -0.2560
18847W        W19047   6.579  14.902   5.939 -0.0926 -0.0714 -0.2276
18848W        W19048   6.226  11.374  10.447 -0.1334  0.0010  0.1570
18849W        W19049   9.625   7.907   2.086  0.0260 -0.0057  0.0521
18850W        W19050   5.703   3.592  12.176  0.0714 -0.3033  0.1512
18851W        W19051   6.998   5.102   6.261  0.0295  0.3455  0.3768
18852W        W19052  10.506  11.029  15.045 -0.1097 -0.1069 -0.0040
18853W        W19053   9.963  12.043   2.229 -0.2898 -0.1096  0.0215
18854W        W19054   9.069  12.726   3.738 -0.1927  0.0376 -0.2497
18855W        W19055   4.001   6.606  12.172  0.1208  0.2068 -0.2572
18856W        W19056   8.319   6.939   2.246  0.0194  0.0528  0.2133
18857W        W19057  11.164   8.758  12.533 -0.1009  0.0025 -0.0551
18858W        W19058   2.325   9.340  12.004  0.3184  0.2253 -0.1145
18859W        W19059  10.583   0.521   4.878  0.3684 -0.0325  0.2652
18860W        W19060  12.218   9.155   4.271 -0.0009 -0.0597  0.0354
18861W        W19061  10.597  14.069   7.663  0.2748  0.1413  0.0820
18862W        W19062  13.574   3.036   1.850 -0.2073  0.0813 -0.0812
18863W        W19063   4.373   3.252  13.315  0.0967 -0.0441 -0.2188
18864W        W19064   7.640  13.988   3.005  0.0847 -0.0568 -0.1196
18865W        W19065   6.686   0.251  11.900  0.1544 -0.1415 -0.1990
18866W        W19066   8.012   4.312   2.361  0.0281  0.1182  0.2508
18867W        W19067  11.653   8.034   2.659  0.1435  0.1905  0.1019
18868W        W19068   4.144   8.092   1.879  0.0205  0.1662 -0.1178
18869W        W19069  13.604  10.372   1.393 -0.3554  0.5094  0.0690
18870W        W19070  13.264  11.331   0.771 -0.0349 -0.1755  0.0963
18871W        W19071  12.772   0.248   2.819 -0.1851  0.1286 -0.1837
18872W        W19072   2.078   4.061   4.706 -0.2250  0.0106 -0.1682
18873W        W19073   8.544  10.116   0.122  0.2630 -0.2509 -0.1711
18874W        W19074   3.040  11.150  14.554 -0.1713  0.1204  0.1049
18875W        W19075  11.195  11.344  10.969 -0.1380  0.0068 -0.1405
18876W        W19076   8.900   9.836   6.542 -0.1933 -0.4247 -0.0049
18877W        W19077  12.357  10.832  11.887  0.2187  0.3142  0.0489
18878W        W19078   6.071   5.721  10.110 -0.0270  0.1197 -0.1151
18879W        W19079   4.532  11.100   4.805 -0.2329  0.1415 -0.0279
18880W        W19080   7.204  12.184   6.329 -0.3638  0.0792 -0.1041
18881W        W19081  10.021   7.658  14.200  0.0374  0.0191  0.2703
18882W        W19082   3.946   3.611  13.181 -0.3327  0.1320 -0.0293
18883W        W19083   5.689   1.308   2.237 -0.1486 -0.4293 -0.1615
18884W        W19084   7.843   1.111   6.012 -0.0519 -0.3167  0.4596
18885W        W19085   0.614   0.577   4.037 -0.1457 -0.1853 -0.1617
18886W        W19086   3.753  11.024   2.553  0.1854  0.0790  0.0296
18887W        W19087  12.199  13.677   5.066  0.0564 -0.0411 -0.3959
18888W        W19088   3.540   0.707   3.038 -0.0071  0.0212 -0.0076
18889W        W19089   9.881   6.490  11.695  0.1515 -0.1058 -0.0716
18890W        W19090   8.434   8.884   6.996  0.0319  0.0043  0.0260
18891W        W19091   2.068   6.844  12.057  0.2532 -0.0593 -0.3487
18892W        W19092  14.356   0.723   3.827 -0.2334 -0.3965 -0.2292
18893W        W19093   5.280   9.362   1.849 -0.0303  0.1696  0.1339
18894W        W19094   8.100   7.379  12.710  0.0123 -0.2745  0.0058
18895W        W19095   0.278  10.142   1.752  0.2135  0.0002  0.0982
18896W        W19096   7.055  11.262   0.293 -0.0522 -0.0523  0.0781
18897W        W19097  11.200  14.152   5.844  0.0379  0.0717 -0.1410
18898W        W19098  12.676   9.414  11.607  0.1357  0.3265 -0.2289
18899W        W19099   0.742   7.745   2.827  0.3549 -0.1212  0.0703
18900W        W19100  14.509   9.474   7.691  0.0546 -0.3108  0.0365
18901W        W19101  13.440   8.635   8.801 -0.1961 -0.2923  0.0086
18902W        W19102  10.374  13.519   1.447  0.2110  0.1063  0.0822
18903W        W19103  13.869   8.647  11.031  0.0287  0.0650  0.3872
18904W        W19104   5.732   0.870   4.951  0.3715 -0.0978 -0.0947
18905W        W19105  14.056  12.097  12.690  0.0372 -0.1509 -0.2089
18906W        W19106   9.722   8.509   1.721  0.1243 -0.1628  0.1468
18907W        W19107  10.766  12.168  14.955  0.3058 -0.0030  0.0748
18908W        W19108   8.644   5.689  10.683  0.1074  0.0932  0.0657
18909W        W19109   3.283   6.192   3.707 -0.0525 -0.2017  0.1520
18910W        W19110  12.999   9.603   3.570  0.2954  0.0339  0.2253
18911W        W19111   1.729   3.890   5.065 -0.0923  0.0147  0.0440
18912W        W19112  12.851   9.764   9.385  0.0974  0.0211  0.1140
18913W        W19113   2.052   9.616   0.007 -0.2758 -0.0199 -0.0413
18914W        W19114  11.685   5.630  14.177  0.2031  0.1896 -0.0199
18915W        W19115  14.139   7.466   0.927 -0.1222  0.0663 -0.2439
18916W        W19116  14.608   5.213   9.047  0.4098  0.2029 -0.0787
18917W        W19117  12.515   5.614   0.149 -0.0523 -0.1121  0.2057
18918W        W19118   7.204   0.162  10.676  0.1293  0.0525 -0.0002
18919W        W19119   1.609   7.970   0.709  0.1193 -0.3224 -0.0133
18920W        W19120   6.804   7.385  13.570  0.1905 -0.0963  0.0671
18921W        W19121  12.016   6.936  10.983  0.1188  0.0349  0.0513
18922W        W19122   1.113   0.258   5.895 -0.1789  0.3838  0.0281
18923W        W19123   6.918   5.022   4.649  0.0984 -0.0777  0.1732
18924W        W19124  12.062   9.274   3.753  0.0951 -0.1103 -0.0707
18925W        W19125   7.793   3.903   5.113 -0.0148  0.1584 -0.1807
18926W        W19126   9.923   5.769   1.311 -0.0358 -0.0607 -0.0847
18927W        W19127   4.966  11.360  14.667  0.1568 -0.0281 -0.2482
18928W        W19128   8.455   0.051  13.312  0.2542  0.0390  0.0143
18929W        W19129  14.707  12.673   3.621 -0.4218 -0.2421 -0.1287
18930W        W19130   9.356   4.506   3.081 -0.1701  0.2468  0.0945
18931W        W19131   0.591  14.045   5.803  0.1511  0.1137 -0.1103
18932W        W19132  10.946  11.313   2.604 -0.4204  0.1050 -0.1341
18933W        W19133  11.481   1.385   5.969 -0.1257 -0.1216 -0.1046
18934W        W19134  11.175  13.960   8.852 -0.0891  0.1002  0.1198
18935W        W19135   1.058   2.442   0.435 -0.4674 -0.3027  0.0376
18936W        W19136   9.300  13.237   1.154  0.1078  0.3125  0.1422
18937W        W19137  14.255  11.211   4.542 -0.0393  0.0385  0.4405
18938W        W19138   7.669  14.774  11.166  0.1895 -0.1144 -0.1114
18939W        W19139   9.533   3.729  12.204  0.0157  0.0279  0.0569
18940W        W19140   2.575   8.808  13.983 -0.0201 -0.2434 -0.1256
18941W        W19141  11.829  10.366   8.591 -0.0101  0.0511  0.0206
18942W        W19142  11.523   9.840  14.197  0.0206  0.2354 -0.1125
18943W        W19143   3.152   4.349   0.747 -0.0386 -0.1705  0.3434
18944W        W19144  14.762   3.489  13.709 -0.1294  0.4232  0.0906
18945W        W19145  13.817   7.821  10.739 -0.1861 -0.1789  0.0565
18946W        W19146   3.878  14.424  11.319  0.0949 -0.2693  0.2364
18947W        W19147   3.671   0.507  10.722 -0.0844  0.1128 -0.1685
18948W        W19148   7.832   7.510   4.514  0.1361 -0.0609  0.0531
18949W        W19149   9.514   2.493  12.451  0.1502  0.1796 -0.0607
18950W        W19150  10.604   8.052   8.596 -0.1695  0.0161  0.4158
18951W        W19151  10.819  13.897   4.974 -0.0489  0.2284  0.2782
18952W        W19152  15.148  12.051   4.407  0.1388 -0.0947 -0.0716
18953W        W19153   5.840   6.910   1.328  0.0610  0.0399 -0.0489
18954W        W19154   3.525   8.231  15.008  0.1586 -0.1562  0.0349
18955W        W19155  14.860   9.790   1.849  0.1107  0.1192  0.1433
18956W        W19156   5.201   4.126   2.404  0.0528 -0.1130 -0.0062
18957W        W19157   9.424   1.631   3.991 -0.1382  0.2834  0.1372
18958W        W19158  15.087   3.122  11.581 -0.3103  0.1450 -0.0590
18959W        W19159  14.405   1.433   2.165 -0.0941  0.1015  0.0265
18960W        W19160   0.346   2.104   8.653  0.0382  0.0803 -0.1908
18961W        W19161  12.035  11.125   3.220  0.1060  0.1639  0.0627
18962W        W19162   8.300   1.767   4.704  0.2189  0.2255 -0.3395
18963W        W19163   6.624  12.300   4.853 -0.2007  0.3395 -0.3565
18964W        W19164   5.542  15.110   9.727 -0.1874 -0.1880 -0.2034
18965W        W19165   8.187   5.533  11.028 -0.1830 -0.0089 -0.1701
18966W        W19166   0.758   3.833   1.056 -0.0466  0.0143 -0.0015
18967W        W19167  10.507  11.306   5.416  0.0000  0.0042 -0.0214
18968W        W19168  14.888   5.777   4.522 -0.0860  0.0191 -0.0044
18969W        W19169   3.502   9.710  13.704 -0.1145 -0.1751  0.0222
18970W        W19170   5.089  15.024   1.625  0.3433 -0.1326  0.4006
18971W        W19171   6.628   7.389  11.091 -0.1823 -0.2575  0.0194
18972W        W19172   5.202  14.799   4.076  0.1092  0.0605 -0.0947
18973W        W19173  11.326  13.115   7.224  0.0376 -0.0436  0.1883
18974W        W19174   3.746  12.941  13.793 -0.0259 -0.1517 -0.0697
18975W        W19175   5.735   9.191   2.480  0.3187 -0.1008  0.0494
18976W        W19176   5.076   6.479   5.634  0.0288  0.3825  0.0128
18977W        W19177  14.933   2.741   3.001  0.3173 -0.2941  0.0235
18978W        W19178  11.275  11.391  10.473 -0.0047  0.1667  0.3194
18979W        W19179   2.799   5.642   9.888  0.0060 -0.0125  0.0194
18980W        W19180   4.813   9.515   0.121  0.2075 -0.1780 -0.1334
18981W        W19181   6.671  13.807  13.732 -0.1249  0.2342 -0.1035
18982W        W19182  14.944   2.913   3.702 -0.3059  0.5283 -0.1914
18983W        W19183   0.716   0.005  15.026  0.0574  0.0942  0.1346
18984W        W19184   9.755   2.400   3.333 -0.0638 -0.1431 -0.0237
18985W        W19185   1.279  10.826   0.981  0.2192 -0.0557  0.0989
18986W        W19186  10.766  10.217   2.872 -0.2611 -0.0673  0.0508
18987W        W19187  14.442  13.259   4.286  0.0554 -0.2409  0.0254
18988W        W19188  10.632  14.672   9.630  0.0257 -0.2223 -0.1849
18989W        W19189  15.151  13.253  11.939  0.1061 -0.0524 -0.0738
18990W        W19190  11.500   6.289   2.563  0.0104 -0.1400 -0.2822
18991W        W19191  10.553  13.932   6.613  0.2138  0.2086  0.0476
18992W        W19192  14.283  12.376   4.388 -0.1613  0.0730  0.0815
18993W        W19193   9.142  11.178   3.390  0.1418  0.0803 -0.0971
18994W        W19194   8.523   4.917   8.145 -0.0465  0.1346  0.2190
18995W        W19195   5.170  12.976   0.764 -0.1715 -0.3435  0.0430
18996W        W19196   7.734  13.639   6.114 -0.1340  0.1218 -0.0896
18997W        W19197  12.574  11.138   4.915 -0.0152 -0.0182 -0.0069
18998W        W19198  14.792   7.297  14.679  0.1956 -0.1639 -0.1128
18999W        W19199  10.736   9.053  13.992  0.1094 -0.0893  0.0048
19000W        W19200  13.300  13.666  14.974  0.3404  0.0596 -0.1925
19001W        W19201   6.324   9.208   5.740 -0.3010 -0.1464  0.1064
19002W        W19202   5.850  14.207   5.828 -0.0076  0.1742  0.1616
19003W        W19203  11.121   1.843  11.813 -0.0534  0.1318  0.2220
19004W        W19204   9.873  14.130  14.925  0.1085  0.1582  0.0844
19005W        W19205   8.801  13.408   0.408 -0.1274 -0.1246  0.2383
19006W        W19206   8.736   8.871  12.983  0.4221  0.0383  0.1890
19007W        W19207   9.140  12.688  13.190 -0.3264 -0.1161  0.1047
19008W        W19208   8.498   8.010   6.052  0.2062  0.1805 -0.0213
19009W        W19209   5.798  12.467   2.977 -0.0937 -0.2281 -0.0218
19010W        W19210   0.457   9.115   5.762 -0.0170  0.1313  0.1136
19011W        W19211   9.091   5.253   9.851 -0.1489  0.0926 -0.1707
19012W        W19212   6.594   6.020  15.036  0.4643  0.2036 -0.3467
19013W        W19213  14.732  14.656   0.422 -0.2186  0.2713 -0.2938
19014W        W19214   9.838   4.141   0.816 -0.1007 -0.4109  0.1273
19015W        W19215  11.369   9.025   4.717  0.0007  0.3300 -0.2837
19016W        W19216   8.911   1.271   5.219  0.4243 -0.0449  0.1097
19017W        W19217   7.253   2.189  10.147 -0.0115 -0.1407 -0.0206
19018W        W19218   7.648   5.044  15.083 -0.1432 -0.0116  0.2177
19019W        W19219   7.660   7.494   8.260 -0.2220 -0.2666 -0.0958
19020W        W19220   3.706   4.643   3.431 -0.1504  0.2782 -0.2229
19021W        W19221   7.328  10.209  13.185 -0.0049 -0.0083 -0.1405
19022W        W19222   2.906  10.654   1.483  0.1079  0.1514 -0.1337
19023W        W19223   3.595   4.979   3.025 -0.1996  0.2638 -0.0134
19024W        W19224  13.445  11.074   4.282  0.1835 -0.2756  0.1203
19025W        W19225  15.178  11.013   5.637  0.0579 -0.0931  0.0539
19026W        W19226   7.118  14.839  11.412 -0.0828  0.1637 -0.1171
19027W        W19227   7.922   3.237  13.578 -0.2022  0.2358  0.1100
19028W        W19228   5.004   7.704   1.437 -0.0093  0.0413  0.0752
19029W        W19229   1.897  14.445  12.806 -0.3262  0.0291  0.2047
19030W        W19230  11.573   7.199   7.207  0.0152  0.1136  0.0352
19031W        W19231   0.471  12.212   0.797 -0.0064  0.2509 -0.0342
19032W        W19232  10.503   4.077   2.212  0.2789 -0.2236  0.1222
19033W        W19233   6.662  11.823   5.802  0.2071 -0.1062  0.1945
19034W        W19234   9.884   9.236  13.704  0.1484  0.3028 -0.2348
19035W        W19235   8.368  10.579   2.833 -0.1567  0.1026 -0.1894
19036W        W19236   3.542  14.500  11.835 -0.0683 -0.1305  0.2173
19037W        W19237   3.645   0.999   4.418  0.2711 -0.0873  0.2221
19038W        W19238   4.877  14.374  13.706 -0.1004 -0.2375 -0.1445
19039W        W19239  14.072   6.794   8.487  0.2639  0.0194 -0.1087
19040W        W19240   5.855   7.833  14.775  0.1072  0.2502  0.1314
19041W        W19241   5.677   1.538   1.722 -0.1323  0.1112 -0.0958
19042W        W19242   2.287   5.983  13.772 -0.0007  0.1598 -0.0898
19043W        W19243   7.095   8.852   1.523 -0.3189  0.0633 -0.1374
19044W        W19244  13.799  14.000   0.621 -0.0362 -0.1112 -0.0038
19045W        W19245   7.982   4.109   1.523 -0.1702 -0.1860  0.2224
19046W        W19246   0.882   7.951   1.665  0.1602  0.2275 -0.1696
19047W        W19247   8.601   9.260   0.092  0.1893 -0.0887 -0.3691
19048W        W19248   7.348   6.702   3.848 -0.0354 -0.0965  0.0330
19049W        W19249   0.043   2.886  14.611 -0.3825  0.0281 -0.0613
19050W        W19250   9.258   5.459  14.434 -0.4071  0.1699  0.1770
19051W        W19251   8.369   1.068  11.285 -0.3535  0.0127 -0.1935
19052W        W19252  12.788  14.950   1.161  0.1502 -0.0000 -0.2580
19053W        W19253  10.597   3.860   7.013  0.0339  0.3737 -0.1589
19054W        W19254   8.647   3.291   6.478 -0.1097  0.1872  0.0193
19055W        W19255   9.646  12.018   3.329  0.0050 -0.3035  0.0904
19056W        W19256  11.725   7.254  13.260 -0.1148  0.0229 -0.0802
19057W        W19257   8.651  13.405  13.548 -0.0909  0.1939 -0.1481
19058W        W19258  13.585   4.435   5.281  0.0645 -0.0257 -0.2820
19059W        W19259  12.800  12.129  13.593  0.3191  0.1994 -0.0191
19060W        W19260   2.632   4.748   8.597 -0.3072 -0.1853 -0.1227
19061W        W19261   3.786   6.157   3.889 -0.2147  0.0673 -0.0578
19062W        W19262   8.521   0.503   7.144  0.1088 -0.1576 -0.1885
19063W        W19263   8.310   2.603  11.518 -0.2783  0.0772 -0.0780
19064W        W19264  14.209   9.599   0.137 -0.0750  0.2233  0.3725
19065W        W19265   9.225   5.228   1.754 -0.1509 -0.0282  0.2389
19066W        W19266   6.202  12.673   6.960 -0.0927  0.0414  0.1264
19067W        W19267   6.187  10.012   2.207  0.0964  0.1977  0.2907
19068W        W19268   4.424  12.261  13.907 -0.2218 -0.0239 -0.1729
19069W        W19269   7.800   1.562   9.234 -0.0977  0.1497  0.3421
19070W        W19270   9.251  11.180  14.410  0.1303  0.0782 -0.2126
19071W        W19271   1.623   0.335   5.306 -0.0648 -0.4066 -0.0688
19072W        W19272   9.081   9.187   0.270 -0.3505 -0.1180 -0.1249
19073W        W19273   6.740  11.431   3.974 -0.0668  0.1003  0.0247
19074W        W19274   6.879  10.158   3.319 -0.0268 -0.0090 -0.2213
19075W        W19275   7.326  11.692   8.326  0.3786  0.2672 -0.1483
19076W        W19276  10.782  12.101   5.632  0.1685 -0.1683 -0.0538
19077W        W19277   1.333   3.950  11.608 -0.0988  0.0605 -0.0185
19078W        W19278   3.602  15.178  11.168  0.2513  0.0511  0.0478
19079W        W19279   7.650   7.231   1.985  0.0198  0.3910  0.3536
19080W        W19280  11.342  13.686  15.095 -0.0405 -0.0081  0.0749
19081W        W19281   4.059  10.335   3.319 -0.2803  0.0854 -0.2360
19082W        W19282   5.149   2.412   2.447 -0.0157  0.1213  0.0837
19083W        W19283  12.011   8.606  13.919  0.2365  0.2026 -0.1985
19084W        W19284   3.788  12.987  11.738  0.1910 -0.0447  0.2315
19085W        W19285  12.152  15.037   4.481  0.0097 -0.1052 -0.0419
19086W        W19286   6.346  12.884  12.607  0.3050 -0.0211  0.3460
19087W        W19287   9.000  11.788  11.998 -0.0736 -0.1578  0.0729
19088W        W19288   7.259  14.820  10.853  0.0568  0.0347 -0.2006
19089W        W19289   8.599   9.767   1.306  0.1855 -0.1720  0.1587
19090W        W19290  12.381  12.371   1.023 -0.3664  0.1592 -0.2384
19091W        W19291  10.226   6.806   1.177  0.0870  0.0995  0.0848
19092W        W19292  14.480   1.301   4.697 -0.0997 -0.1060  0.2029
19093W        W19293  13.887   2.561   4.059  0.1225  0.1560  0.4446
19094W        W19294   7.717   5.162   4.078  0.1065  0.3916  0.1757
19095W        W19295   6.203  11.866   4.392 -0.1263 -0.0458  0.1825
19096W        W19296   7.318   2.057   8.558 -0.1593  0.0180  0.0310
19097W        W19297   0.985  10.884  13.994  0.2575  0.0278 -0.0344
19098W        W19298   6.189   0.043   5.155  0.0988  0.2569 -0.0877
19099W        W19299  12.144   1.168   5.127  0.2819 -0.1217  0.4045
19100W        W19300  11.410   9.792   1.263 -0.1603 -0.0085  0.1047
19101W        W19301  12.114   3.610  10.694 -0.2744  0.2643 -0.0439
19102W        W19302   4.068   6.166   1.151 -0.0078 -0.0759  0.0473
19103W        W19303  10.978  14.233   3.566 -0.0882  0.1185  0.0328
19104W        W19304   7.502   9.974   0.902 -0.2436  0.2056  0.1836
19105W        W19305   8.612  12.067  12.497  0.1277  0.1528 -0.0155
19106W        W19306  12.263   5.689   5.675 -0.0855 -0.2713 -0.2817
19107W        W19307  11.447  10.897   2.835 -0.3613 -0.0509  0.3607
19108W        W19308   8.126   8.260  12.730  0.0566 -0.0188 -0.0012
19109W        W19309  12.558   7.094   5.483  0.0036  0.0164 -0.2695
19110W        W19310   9.207   9.674   0.386 -0.3535  0.0848  0.1701
19111W        W19311   1.904   7.297  11.822 -0.3404  0.1438 -0.2871
19112W        W19312   2.094  13.782   2.472  0.1718 -0.2128  0.0673
19113W        W19313   4.903   0.160   3.004  0.0329 -0.0594 -0.1356
19114W        W19314  13.438  13.334  10.513  0.1190 -0.1382  0.0607
19115W        W19315   0.902  11.190   4.799  0.2250  0.1316 -0.0709
19116W        W19316   5.330  12.532   3.653  0.0214 -0.0217 -0.3016
19117W        W19317   3.668  12.524   4.407 -0.0829 -0.1216  0.0106
19118W        W19318  13.892   4.105   2.601 -0.0920 -0.0921 -0.1426
19119W        W19319  10.809  11.881   1.168  0.0802 -0.0315 -0.0451
19120W        W19320   9.103   6.219  15.024  0.1396 -0.1462  0.1793
19121W        W19321   9.078  13.901   2.489 -0.0272  0.0649 -0.0235
19122W        W19322   6.882   0.727  11.731  0.2467 -0.0958  0.1877
19123W        W19323  10.345  13.088   3.988 -0.1762  0.0214  0.1783
19124W        W19324  15.156  15.081   1.271  0.0520  0.1233  0.3949
19125W        W19325  11.793  11.924  14.277  0.1422 -0.1215  0.3323
19126W        W19326   6.864   1.501  10.863  0.2488  0.0409 -0.4639
19127W        W19327  14.666  12.232   4.686 -0.1677  0.0578 -0.0511
19128W        W19328  10.125   4.460  14.730  0.0492 -0.2251  0.3620
19129W        W19329   1.282   8.390   0.541  0.1813  0.1095 -0.1772
19130W        W19330  10.368  12.479   4.775  0.0111 -0.1043 -0.0452
19131W        W19331   1.882   1.484   6.567  0.0765 -0.2837  0.1643
19132W        W19332   9.769  12.388   0.574  0.1879  0.0080 -0.0213
19133W        W19333   4.081  10.144   5.859 -0.1156 -0.3643  0.1409
19134W        W19334   0.065   0.051  12.750 -0.3094 -0.0938 -0.0992
19135W        W19335   2.738   9.821  11.257  0.1121  0.2105  0.0920
19136W        W19336  10.768  10.479   5.779 -0.0656  0.0969  0.1247
19137W        W19337   8.845   1.514  10.060  0.1447  0.0143  0.4374
19138W        W19338   9.642  14.495   3.247  0.0353  0.4489 -0.0758
19139W        W19339   1.103   9.896  10.626  0.1135 -0.0241  0.1194
19140W        W19340   0.407   5.626   2.276  0.2122 -0.0855 -0.1367
19141W        W19341   1.553   7.692   5.343 -0.0559 -0.2200  0.1947
19142W        W19342  13.980   1.084   0.365 -0.1015  0.1456  0.1028
19143W        W19343   2.877   8.477   6.354 -0.0749  0.0002  0.2834
19144W        W19344   9.839  11.523  12.490  0.0503  0.0654 -0.2362
19145W        W19345  11.148   6.843  10.945 -0.3939  0.1832 -0.0944
19146W        W19346   5.001   4.824   3.413 -0.0385  0.0592  0.0798
19147W        W19347  13.417  12.038   8.879  0.0366 -0.1374  0.0127
19148W        W19348   6.350  14.665   9.710  0.1894 -0.1055  0.2875
19149W        W19349   9.519   4.629   2.054  0.0669 -0.0813  0.1441
19150W        W19350  12.814   4.697   3.878  0.2068 -0.1906 -0.1265
19151W        W19351  14.411   3.057   5.193  0.0494 -0.1338 -0.1204
19152W        W19352   5.155  14.121   2.586  0.1794  0.0289 -0.4019
19153W        W19353   5.495   8.277   6.624 -0.0248 -0.2265 -0.1677
19154W        W19354   7.173   0.733  10.123  0.1406 -0.1369 -0.1475
19155W        W19355  12.520   7.629   4.668  0.1989 -0.0640 -0.3168
19156W        W19356  12.709   1.845  14.404  0.0999  0.2245 -0.0202
19157W        W19357   3.346   6.277   7.596  0.2830  0.0240  0.0194
19158W        W19358   4.274  13.294   3.040  0.2923 -0.1340 -0.1421
19159W        W19359   8.937   6.470   2.089  0.0882 -0.2095  0.1866
19160W        W19360   3.255  14.187  14.487 -0.0165  0.2682  0.0144
19161W        W19361   0.145   8.209   5.171 -0.0121 -0.2843  0.2923
19162W        W19362  11.606   3.297  14.000  0.0309 -0.1344 -0.0678
19163W        W19363  13.677   3.637  11.304 -0.0551 -0.3186  0.0940
19164W        W19364   3.372   1.885   0.951  0.2022 -0.2108 -0.1909
19165W        W19365  10.723  10.745  13.156 -0.3677 -0.1333  0.2629
19166W        W19366   4.433  11.791  13.115  0.1803  0.0705  0.0774
19167W        W19367  13.176   4.338   4.637 -0.2700  0.0600  0.1765
19168W        W19368   5.399   0.743  10.675 -0.0328  0.0354  0.2342
19169W        W19369   4.998   6.964   6.596 -0.0111 -0.0511  0.3916
19170W        W19370   8.368   5.178   2.356  0.0800  0.0697 -0.0606
19171W        W19371  12.041  11.696  10.453 -0.0905 -0.0573 -0.2104
19172W        W19372  13.472   2.342  13.757  0.2917  0.2862  0.0025
19173W        W19373  12.782   3.281  10.178  0.0504  0.1024  0.1476
19174W        W19374  14.257   9.163   7.311  0.2434  0.0718  0.1296
19175W        W19375  15.093  12.023   8.574 -0.2080 -0.0630  0.1160
19176W        W19376   4.086  14.485   7.150  0.0211  0.0871  0.3123
19177W        W19377   7.188   3.477   8.454 -0.3682  0.2303 -0.0954
19178W        W19378  14.346  13.456  14.981  0.1119 -0.1290 -0.1293
19179W        W19379   6.721   5.160  10.583 -0.0156 -0.0828 -0.1870
19180W        W19380   4.377  14.919  11.756 -0.2255 -0.1547 -0.0761
19181W        W19381  10.913  14.800   6.460  0.1647  0.3130 -0.0586
19182W        W19382  14.023  11.500   1.057  0.3251 -0.2156  0.1393
19183W        W19383   8.722   6.681   9.384 -0.3755 -0.0821 -0.1789
19184W        W19384   9.420   4.566   8.263  0.1634 -0.3727 -0.1752
19185W        W19385  10.641  13.706   4.382  0.0658  0.2379 -0.1343
19186W        W19386   7.828  13.060   3.160 -0.2354 -0.0337  0.3017
19187W        W19387   1.631  14.773  13.069  0.0632 -0.2497 -0.0876
19188W        W19388  13.159  13.946   4.635 -0.0248 -0.2343  0.0793
19189W        W19389  12.137  11.708   5.578  0.2661  0.2129 -0.3354
19190W        W19390  13.172   8.280   5.364 -0.1880  0.0968 -0.0475
19191W        W19391   5.780  12.911   1.099 -0.3927  0.2449 -0.0816
19192W        W19392  10.857  12.585   8.416 -0.1420 -0.3825 -0.3023
19193W        W19393   9.987  13.440  11.197 -0.2257 -0.1944  0.0275
19194W        W19394   7.171  13.073   6.601  0.0925 -0.2534 -0.1487
19195W        W19395   6.872  13.488   6.641 -0.0009  0.1361  0.0542
19196W        W19396   8.098  14.707  14.010  0.0379 -0.1531 -0.1644
19197W        W19397  11.388   0.856   3.195 -0.0972 -0.1346 -0.0097
19198W        W19398   0.675   0.205   3.230  0.1151  0.2197 -0.0260
19199W        W19399   1.795   5.084   8.050 -0.2049 -0.1117  0.1471
19200W        W19400   7.001   1.910  14.746  0.3030  0.3704 -0.0890
19201W        W19401  12.303  11.710  11.329 -0.4222 -0.0439 -0.0834
19202W        W19402  14.920   5.928   0.851  0.0853  0.1745 -0.0446
19203W        W19403   8.773  10.163  11.347 -0.2432  0.2387  0.0367
19204W        W19404  14.619   1.910   7.981  0.3481  0.0287 -0.1632
19205W        W19405  12.451   4.535  14.879  0.0117  0.0521 -0.2143
19206W        W19406  12.166   9.634   0.236  0.2436  0.0742 -0.0162
19207W        W19407  14.558  10.666   6.506 -0.0081  0.1278 -0.0280
19208W        W19408   9.462   6.404   0.050  0.1214 -0.2248  0.3279
19209W        W19409   2.150   8.556   8.946 -0.0800  0.1196  0.0404
19210W        W19410  12.747   1.366   1.213 -0.0120 -0.1019 -0.0555
19211W        W19411   7.638   2.630   5.421 -0.4165  0.1220  0.1825
19212W        W19412  14.863  11.687   7.358 -0.0802 -0.1640 -0.0209
19213W        W19413  10.562   8.819   8.987  0.1063  0.2686  0.0716
19214W        W19414   5.559   8.739   4.795  0.1047 -0.1962 -0.2534
19215W        W19415   0.812  11.724  10.495 -0.0690 -0.0029  0.1482
19216W        W19416  10.764   6.152  11.960  0.1114  0.1421  0.1817
19217W        W19417   0.062   2.742   0.661 -0.2668 -0.3871  0.0729
19218W        W19418  12.881  10.347   1.384 -0.0553  0.2267 -0.0177
19219W        W19419  14.145  12.591  12.303  0.2613  0.2779  0.0590
19220W        W19420   3.449   6.182   1.941  0.1581 -0.0903  0.1183
19221W        W19421   6.539  13.196   2.901 -0.1899 -0.1669 -0.2138
19222W        W19422  13.882   7.773   0.039  0.0477  0.1143  0.2421
19223W        W19423   5.886   9.472  10.537  0.0117 -0.1818 -0.1876
19224W        W19424   2.716   6.361   0.583 -0.0221 -0.4505 -0.1894
19225W        W19425  14.344  11.781  12.243 -0.1794  0.2369 -0.1942
19226W        W19426   8.610   6.866   6.638 -0.1309 -0.1697 -0.1876
19227W        W19427   5.517   0.770   1.355  0.2143  0.1625 -0.0780
19228W        W19428   5.106   7.958  12.611  0.0257  0.0578  0.3284
19229W        W19429  11.632   5.521   3.865 -0.0575  0.1990 -0.1894
19230W        W19430  12.235  11.364  10.069  0.1862 -0.0202  0.0398
19231W        W19431   5.136  13.846  13.607 -0.3817 -0.3514 -0.2160
19232W        W19432   0.671  11.790  14.758 -0.1364  0.1814  0.0236
19233W        W19433  13.545  11.063   3.134 -0.2036  0.1214  0.1053
19234W        W19434   8.119  12.661   1.079  0.0656 -0.2021 -0.2153
19235W        W19435  11.398   3.671   3.740  0.1761  0.4785  0.1339
19236W        W19436  13.501  13.011  11.651 -0.0251  0.1024 -0.2592
19237W        W19437  11.405  10.681  11.730  0.1751 -0.3077 -0.0219
19238W        W19438  11.295   6.172  13.420  0.0492 -0.0536  0.4585
19239W        W19439  13.265   6.508   5.493  0.0953  0.0106  0.2748
19240W        W19440   0.143   1.608  10.651 -0.1253  0.1463  0.1600
19241W        W19441  10.388  13.559   6.250 -0.3492  0.3118 -0.1603
19242W        W19442  13.005  13.747   1.387 -0.1054  0.1016  0.2379
19243W        W19443  12.952   8.517  10.175  0.1025 -0.0641  0.0381
19244W        W19444  14.217   3.026   0.125  0.1071 -0.0368 -0.1058
19245W        W19445  11.711  11.037   4.409 -0.2118 -0.0966 -0.0517
19246W        W19446   2.217   4.914   2.557  0.1795  0.2161 -0.2273
19247W        W19447   8.508  12.833  12.281  0.0725  0.0789 -0.1636
19248W        W19448  11.857   3.951  11.011  0.0799 -0.0141 -0.3700
19249W        W19449   0.173   5.145   5.694 -0.0312 -0.0920  0.0081
19250W        W19450   4.380   3.678   4.800 -0.0066  0.2238 -0.0214
19251W        W19451   9.497  13.428   8.304 -0.4225 -0.1082 -0.2156
19252W        W19452   5.108  13.853  15.060 -0.0430  0.1527  0.1704
19253W        W19453   7.907   7.733   8.581  0.0465 -0.0945  0.2337
19254W        W19454   9.393   7.542   2.974 -0.0236  0.0131  0.1453
19255W        W19455  10.272   2.096   4.105  0.1976 -0.0415 -0.3717
19256W        W19456  13.753   5.172   8.049 -0.0917 -0.0297  0.1135
19257W        W19457   7.150   1.775   9.959  0.0339 -0.0671 -0.0523
19258W        W19458   4.311   6.817   0.988 -0.0903  0.1053 -0.1982
19259W        W19459   0.542   8.631  14.509 -0.0672 -0.2071 -0.1476
19260W        W19460  10.843  12.430   2.446 -0.5697 -0.1021 -0.2434
19261W        W19461   0.933   5.573   3.881  0.2237  0.2699 -0.1110
19262W        W19462  15.070   9.823   9.735 -0.0531  0.3402 -0.1677
19263W        W19463   2.132   3.899   8.965 -0.0469 -0.2266 -0.1412
19264W        W19464  10.116   3.115   1.736 -0.0360  0.0797  0.1674
19265W        W19465   0.116   4.631   5.260  0.0319  0.3298 -0.0730
19266W        W19466   0.242  12.248   0.132 -0.1225  0.2338 -0.3475
19267W        W19467  13.948   9.782  10.886 -0.0284  0.0775  0.2156
19268W        W19468  12.872   7.822  12.624 -0.0815 -0.0541  0.3433
19269W        W19469  11.383   8.470   7.698 -0.1731  0.3519 -0.1868
19270W        W19470  10.960   8.936   1.571 -0.2745 -0.1613  0.1007
19271W        W19471  14.715   2.738   4.796 -0.2197  0.0657 -0.1673
19272W        W19472  12.213   1.983  13.925 -0.0203 -0.1737 -0.1603
19273W        W19473  14.154   0.631   2.808  0.0278  0.2085 -0.0580
19274W        W19474  13.097   1.404  10.655 -0.2275 -0.1954  0.2532
19275W        W19475   2.561   0.805   2.461 -0.2524 -0.1419 -0.0397
19276W        W19476  13.803  11.182  12.732 -0.0171 -0.1760 -0.0249
19277W        W19477   4.375   5.164   5.460  0.0306  0.1075 -0.1118
19278W        W19478  13.971   7.211   2.667 -0.2335 -0.1391  0.0817
19279W        W19479  12.564  12.829   7.320 -0.1699  0.0942  0.0763
19280W        W19480  11.732  15.136  10.030 -0.1188 -0.0004 -0.3740
19281W        W19481   6.763   0.750   6.266  0.1342 -0.0116  0.0917
19282W        W19482   5.582   3.610   0.928 -0.3515 -0.2103  0.2501
19283W        W19483  10.836   4.342  11.121  0.1619  0.3961  0.0991
19284W        W19484   8.590   0.759   2.244  0.0321  0.0881 -0.1542
19285W        W19485  13.238   9.561  12.376  0.1220  0.0649 -0.3528
19286W        W19486   2.776   4.508   3.566 -0.2562  0.0084 -0.0372
19287W        W19487  10.243  10.068  14.269 -0.2111  0.1570 -0.0418
19288W        W19488  14.118   3.173   3.249  0.2155  0.0984 -0.0536
19289W        W19489   4.390  13.164   6.482  0.1383 -0.1258  0.0839
19290W        W19490  11.504  10.716   4.773 -0.1795 -0.0368 -0.4100
19291W        W19491  12.724   6.081   3.068 -0.2916 -0.0474  0.2465
19292W        W19492  12.872  14.604   7.467  0.2187  0.1167  0.1599
19293W        W19493  11.248   2.806  14.176 -0.2048  0.2685 -0.1029
19294W        W19494  14.654  12.698  10.682 -0.1907 -0.0637  0.0639
19295W        W19495   7.350   3.550  13.022  0.1233 -0.1497  0.0831
19296W        W19496   6.986  11.574   6.072 -0.0628  0.0171  0.1953
19297W        W19497  11.356  14.580   2.049 -0.3478  0.0020 -0.1088
19298W        W19498   3.598   1.555  13.895  0.0620 -0.3462 -0.1454
19299W        W19499  14.187  11.810   0.635 -0.1024 -0.1140 -0.1149
19300W        W19500  13.473  13.426   7.101  0.2006 -0.0695 -0.0236
19301W        W19501   4.454   9.897  14.480 -0.3001  0.0572 -0.2384
19302W        W19502  12.883   8.220   0.410 -0.1506  0.1034  0.2688
19303W        W19503  12.936  12.360   5.355 -0.1922  0.2124  0.0641
19304W        W19504   9.001  12.977   0.775 -0.1092  0.0262  0.0929
19305W        W19505  14.413   0.098   1.930 -0.0411 -0.0927 -0.0855
19306W        W19506   1.734  13.050  13.312  0.0589  0.2069 -0.1541
19307W        W19507   0.633   2.910   5.032  0.1677  0.0339  0.0282
19308W        W19508   9.902  11.531   9.417  0.1453  0.1449  0.3335
19309W        W19509   7.707   8.983   6.478 -0.0896 -0.1492  0.0553
19310W        W19510   9.517  13.372   1.603 -0.2542  0.0587 -0.2051
19311W        W19511   3.578   9.020   1.481  0.0856  0.3011  0.2438
19312W        W19512   5.778  13.781   3.878  0.0116  0.0362  0.0496
19313W        W19513  13.093   5.122   5.585  0.4222 -0.1614  0.0444
19314W        W19514   5.033   1.993   4.102  0.0062  0.1651  0.1835
19315W        W19515   9.795   8.692   2.245 -0.0340 -0.1742 -0.1381
19316W        W19516   0.762   1.180   1.462  0.1224 -0.1504  0.0811
19317W        W19517  11.269  13.210  13.383  0.3930 -0.0923 -0.2262
19318W        W19518   9.188   0.863   8.511 -0.0193 -0.2706 -0.3519
19319W        W19519   6.579  13.170  10.741  0.0146  0.0704  0.1715
19320W        W19520   1.739   1.864   8.671 -0.0213 -0.3614 -0.1673
19321W        W19521   5.742   5.097   4.641 -0.0493  0.2003 -0.0249
19322W        W19522   2.906   9.011  13.680  0.0295 -0.0384  0.1355
19323W        W19523   3.799   7.311   4.769 -0.0960 -0.3855 -0.0797
19324W        W19524   9.476  15.138   6.007  0.0392 -0.0100  0.3247
19325W        W19525  12.964  10.626   0.444  0.1249  0.2035 -0.2631
19326W        W19526  10.321  12.440  12.472  0.0313  0.0601  0.2169
19327W        W19527  12.395   3.112   0.726  0.1685 -0.0177  0.1488
19328W        W19528  12.678   9.241   8.530  0.1744 -0.1572 -0.2333
19329W        W19529   8.283  14.911   8.903 -0.0111  0.1870 -0.2411
19330W        W19530   3.279  12.893   8.157 -0.0299  0.0222 -0.0288
19331W        W19531   0.676  13.086   8.624 -0.1672 -0.0448  0.1686
19332W        W19532   5.992  13.478  12.346 -0.3577 -0.0181 -0.0135
19333W        W19533   7.096  13.556  13.477  0.1658  0.0264  0.0310
19334W        W19534  14.252   7.797   5.959  0.0754  0.0367 -0.1650
19335W        W19535  13.618   9.295   4.271  0.1181  0.0611  0.1464
19336W        W19536   8.217  12.353   8.752 -0.0397  0.1346  0.0715
19337W        W19537   4.105   9.503   5.605  0.2184 -0.1641  0.0357
19338W        W19538   0.652   0.947   1.893  0.2004  0.0010  0.0489
19339W        W19539  10.660   9.028   5.059 -0.0405  0.1728  0.1197
19340W        W19540   8.477   8.552  12.378 -0.1825  0.1211  0.0270
19341W        W19541   3.329  14.374  14.030  0.2888  0.1039  0.2863
19342W        W19542  11.747  11.765   5.254  0.1643  0.1524 -0.2608
19343W        W19543   8.388  12.200   3.172  0.1508 -0.2066 -0.2139
19344W        W19544  10.503  14.182  12.757 -0.0545 -0.1049  0.2918
19345W        W19545   6.441  10.496  13.367  0.0874  0.0504 -0.0299
19346W        W19546   9.263   7.594   2.186 -0.1500 -0.3465 -0.2728
19347W        W19547   4.293   7.056   8.131  0.1583  0.0290 -0.1169
19348W        W19548   6.469  12.312   8.104 -0.1463 -0.2733  0.1694
19349W        W19549   8.836   2.794   1.129  0.0145  0.1325 -0.1514
19350W        W19550   7.295  12.991  10.212  0.0139 -0.4802  0.0616
19351W        W19551   5.455   1.793  14.884  0.1817 -0.0678  0.1713
19352W        W19552   1.305   5.574  10.274  0.0529 -0.3358  0.0142
19353W        W19553   5.464  10.017  11.100  0.1781 -0.0258 -0.0341
19354W        W19554   3.984   6.934   4.942  0.0853  0.0089  0.1561
19355W        W19555  12.809   0.176  13.297  0.0390 -0.2559  0.0756
19356W        W19556  11.609  14.701   9.765  0.2463 -0.0437  0.1501
19357W        W19557  11.985   5.739   4.222  0.2424 -0.0626 -0.0369
19358W        W19558  11.235  11.993   2.024  0.0757  0.3258  0.2393
19359W        W19559   8.596  14.170  11.913 -0.2359 -0.0791 -0.0273
19360W        W19560   8.757   0.633   8.874 -0.1808 -0.1083  0.3210
19361W        W19561   2.383  14.085  10.992  0.1114 -0.1703  0.2910
19362W        W19562   8.784   5.153   6.263  0.0160  0.0850  0.0465
19363W        W19563   5.474   0.930  11.237 -0.0444 -0.2110  0.2530
19364W        W19564   4.528  13.436   5.850  0.1181 -0.1015 -0.1336
19365W        W19565  10.504  10.129   4.471  0.1296  0.0604  0.0935
19366W        W19566   7.437   4.153   1.448  0.0542 -0.0154 -0.1707
19367W        W19567   7.273  14.349   7.874 -0.3379  0.0070  0.3420
19368W        W19568   8.877  12.767  14.521  0.3418 -0.0940 -0.0186
19369W        W19569   5.981   6.093   5.740 -0.0051 -0.4428 -0.0879
19370W        W19570   1.907  10.459   6.297  0.1084  0.0305 -0.1976
19371W        W19571  13.865   0.853   2.334 -0.5052  0.0732  0.1510
19372W        W19572  14.154   1.083   3.244  0.0770  0.1668 -0.0979
19373W        W19573   9.803  13.379   1.230  0.3243  0.0497  0.2115
19374W        W19574   8.358   2.051   8.412 -0.1528  0.1919 -0.0751
19375W        W19575   0.358  13.463   8.717 -0.0889 -0.4602 -0.4641
19376W        W19576   6.622   9.749   6.912  0.0953 -0.1062 -0.1859
19377W        W19577  11.171  13.438   2.956 -0.1694 -0.0213 -0.0584
19378W        W19578  13.078  14.477   2.069 -0.0667  0.0253  0.1940
19379W        W19579  10.586   5.541   1.458 -0.2061  0.0190 -0.2149
19380W        W19580   7.728   7.968  14.243 -0.1126 -0.1698 -0.0116
19381W        W19581   8.852  15.160   7.131 -0.1228  0.1855 -0.1161
19382W        W19582   9.484  14.752   8.320  0.1698 -0.0050 -0.1713
19383W        W19583   1.047  13.010   5.289 -0.0251 -0.1294  0.0552
19384W        W19584   8.529   5.011  14.983 -0.1051  0.0209 -0.0087
19385W        W19585   0.558  14.298   9.001 -0.2312  0.1247  0.1010
19386W        W19586   5.143   7.452   7.123  0.0664 -0.2607  0.0312
19387W        W19587   7.624   1.216   0.045  0.1138  0.0609 -0.2049
19388W        W19588   8.336   0.677   4.551  0.1465  0.1730 -0.0789
19389W        W19589   9.616   2.628   2.286 -0.0022 -0.1504 -0.0518
19390W        W19590  11.977   2.611   5.603  0.2088  0.1315 -0.3600
19391W        W19591  14.017   9.564   5.421 -0.2363  0.2373  0.2302
19392W        W19592  11.025   8.553   4.783  0.0400  0.2574  0.0319
19393W        W19593  12.525   0.338   4.364 -0.0943  0.2251 -0.1334
19394W        W19594   0.060   1.759   3.114  0.1102 -0.0934 -0.1998
19395W        W19595   4.347  12.189   6.963  0.1005  0.3255  0.1012
19396W        W19596   1.400  12.628   4.344 -0.0580  0.1062  0.1725
19397W        W19597   4.171   4.826   7.578 -0.0086  0.0009 -0.1915
19398W        W19598   0.603   1.002   6.211 -0.0227 -0.2682 -0.2567
19399W        W19599   3.496   7.247   5.744  0.0421  0.3185  0.0929
19400W        W19600   0.673  10.012   5.293 -0.1745  0.1596 -0.0307
19401W        W19601   1.043  11.155   8.083  0.2318 -0.0299  0.2317
19402W        W19602   1.366  14.058   0.292 -0.2210  0.0673  0.3597
19403W        W19603  11.849   7.687   8.467  0.1102  0.2679 -0.3160
19404W        W19604   8.252   8.718   7.639  0.0076  0.0504 -0.1170
19405W        W19605   8.860   3.586   0.455  0.2780  0.0922 -0.3903
19406W        W19606  12.830   9.085   5.026  0.0394  0.0384 -0.0193
19407W        W19607   1.787  11.824   7.037  0.0031 -0.1120  0.3538
19408W        W19608  12.805  12.750   8.790 -0.3294 -0.0551  0.4025
19409W        W19609  13.403   6.898  12.705 -0.1108 -0.0376  0.0612
19410W        W19610  10.980   9.549   9.531 -0.1816  0.3682 -0.2668
19411W        W19611   3.005  12.888   0.546 -0.2075  0.0615 -0.0236
19412W        W19612   4.220  13.022   3.541  0.2792  0.0530  0.1473
19413W        W19613   1.896   8.737   4.907 -0.2472  0.1617 -0.1576
19414W        W19614  13.877   6.064   9.165 -0.1188 -0.0367  0.0721
19415W        W19615   8.816   9.743   4.033  0.1853 -0.0872  0.0200
19416W        W19616  15.052   8.598   8.185 -0.2220  0.4898 -0.0438
19417W        W19617   8.760  14.661   0.374  0.2692 -0.2842  0.0447
19418W        W19618   7.314   7.672   3.525 -0.0054 -0.0122 -0.0882
19419W        W19619  14.711   2.243   5.090 -0.3999 -0.0854 -0.2052
19420W        W19620   8.443  12.774   0.711  0.1027  0.1163 -0.1978
19421W        W19621   4.230  14.094  12.562  0.2623 -0.0524 -0.1293
19422W        W19622  10.401  14.979  10.526 -0.2167 -0.0021  0.1355
19423W        W19623  14.347  12.305   9.154 -0.4857  0.0777  0.0736
19424W        W19624  13.889  13.453   1.423  0.0565  0.0197 -0.0816
19425W        W19625  11.716  15.169   4.788  0.1117 -0.0077 -0.0368
19426W        W19626   8.991   9.166  13.335 -0.0173  0.0409  0.0998
19427W        W19627  13.593   2.385   4.513 -0.0781 -0.4894 -0.2638
19428W        W19628   0.586   5.641   4.211 -0.0658 -0.2137  0.5165
19429W        W19629   7.156   4.232   3.025 -0.0055 -0.2797 -0.0790
19430W        W19630   1.159   2.323   4.587  0.0774 -0.1701 -0.2401
19431W        W19631  10.070  14.565   3.713 -0.0035  0.0682 -0.0058
19432W        W19632   9.341  14.797   7.804 -0.1569  0.1373  0.1895
19433W        W19633   8.922   8.573   5.801  0.2641  0.1370 -0.1248
19434W        W19634  10.256   0.934   1.548 -0.1699 -0.1022 -0.3114
19435W        W19635  11.263   7.850  10.274  0.4106 -0.3524 -0.2490
19436W        W19636  12.663   1.520   5.189 -0.1308  0.0859 -0.3175
19437W        W19637   8.057  14.792   6.900 -0.2375 -0.1723 -0.3046
19438W        W19638  14.911   4.181   6.911  0.4675  0.2237 -0.2441
19439W        W19639   0.010  14.817   9.038  0.0569  0.2724 -0.0854
19440W        W19640   4.676  12.875   6.154 -0.0966 -0.1233 -0.1043
19441W        W19641   3.549   3.208   8.806 -0.0807  0.0901 -0.0312
19442W        W19642   0.417  14.426   0.872 -0.1951 -0.1628 -0.1207
19443W        W19643  10.920   0.610   1.798  0.0128 -0.1709  0.0076
19444W        W19644   8.208  11.555  14.962  0.0318  0.1389  0.3145
19445W        W19645   5.890  11.111   4.348 -0.0965  0.1000 -0.0549
19446W        W19646  11.384   9.049   6.519  0.0770 -0.0332 -0.0675
19447W        W19647   6.725   9.447   4.682  0.1448 -0.0672 -0.2095
19448W        W19648   7.642   8.341   4.054  0.2148 -0.0037 -0.1535
19449W        W19649  11.027   9.749  11.387 -0.1300 -0.0507  0.1895
19450W        W19650   7.155  14.627   5.903  0.2286  0.1039 -0.1170
19451W        W19651   6.033   3.050   3.923  0.0075  0.1481 -0.1940
19452W        W19652   6.131   1.162   5.882  0.0660  0.0654  0.1269
19453W        W19653   7.585   9.954   6.582 -0.0439  0.1875  0.1425
19454W        W19654  12.364   5.851   8.244 -0.4486  0.1195  0.1102
19455W        W19655   1.906   1.761   3.306  0.1872  0.3249 -0.1068
19456W        W19656  13.395  12.202   8.393 -0.0522  0.2319 -0.2507
19457W        W19657   5.978   3.426   5.102  0.1591 -0.3555 -0.3067
19458W        W19658  13.423   7.019   6.674 -0.1789  0.0175 -0.1852
19459W        W19659   7.969   2.421   6.340 -0.0474  0.2054 -0.4529
19460W        W19660   7.875  10.915   3.038 -0.0292  0.1771 -0.0821
19461W        W19661  10.585   5.781   7.184  0.2497 -0.1662  0.2836
19462W        W19662   1.777  14.669   2.008  0.0691  0.1563  0.1557
19463W        W19663   7.646  12.692   3.479 -0.1154 -0.2058 -0.2277
19464W        W19664   8.890  11.194  14.045  0.3175  0.1229  0.0558
19465W        W19665   6.462  12.724   2.671 -0.2419  0.2366 -0.0841
19466W        W19666   5.806  15.073   1.941 -0.1093 -0.0253 -0.1391
19467W        W19667   9.097   4.220   5.210 -0.0517 -0.0976  0.3566
19468W        W19668   5.126  14.197   1.660  0.1100  0.2176 -0.2347
19469W        W19669  13.899  11.512   2.507 -0.0933 -0.1636 -0.1570
19470W        W19670   3.478  13.210   1.389 -0.1275 -0.1678 -0.0158
19471W        W19671  14.416  12.537  11.591 -0.1411 -0.1527  0.3053
19472W        W19672   0.586  14.661  13.017 -0.4148  0.0478  0.1017
19473W        W19673   6.294  11.538   3.421 -0.3490  0.0945 -0.3854
19474W        W19674   3.141  10.103   8.526 -0.0995  0.0330 -0.1090
19475W        W19675   5.627   9.179  14.726  0.0449  0.1689  0.1486
19476W        W19676   7.453   0.952   0.511 -0.0240  0.0816  0.2696
19477W        W19677   9.206   4.469   9.034 -0.1299 -0.0576 -0.0834
19478W        W19678   5.229  10.061   6.945  0.1055  0.3124  0.2801
19479W        W19679   3.545  14.608  14.431 -0.0382 -0.1842  0.1687
19480W        W19680   9.316  12.591   7.809 -0.4305 -0.1527 -0.0103
19481W        W19681   8.651   3.802  14.711 -0.0504  0.1169  0.1040
19482W        W19682  11.880   8.525   2.551  0.1983  0.2653  0.2275
19483W        W19683   3.776   0.344  10.199 -0.0804 -0.1804 -0.1013
19484W        W19684   8.966  11.665   8.983 -0.2017 -0.0174 -0.0264
19485W        W19685   5.265   9.157   4.848  0.0619  0.1955  0.0633
19486W        W19686  12.386   9.507   2.634 -0.0817  0.0491  0.1148
19487W        W19687   5.256   5.240   8.600  0.1867  0.1855  0.1887
19488W        W19688   5.370  10.962   4.429  0.0528  0.2740  0.0295
19489W        W19689   3.520   0.631   7.603  0.0556  0.2274  0.1354
19490W        W19690   4.638  13.905  13.860  0.1590  0.4420 -0.1009
19491W        W19691   7.549  12.508   6.112 -0.1452 -0.2054 -0.3522
19492W        W19692   7.252   9.943  10.415 -0.1078 -0.0932  0.0780
19493W        W19693   7.560   5.410   7.126  0.0552  0.0860  0.1612
19494W        W19694   9.915  13.543   9.769  0.3207  0.1147  0.1917
19495W        W19695  13.297   8.815   4.223  0.0247  0.1977 -0.2506
19496W        W19696  13.421   1.370   7.507  0.3114 -0.0883 -0.0741
19497W        W19697   7.699  13.389   0.389  0.0245 -0.4777  0.1508
19498W        W19698   7.483   5.551   8.521 -0.1565 -0.2613 -0.1595
19499W        W19699  10.797   4.874   5.227  0.1344  0.2523 -0.1723
19500W        W19700   7.366  12.330  11.377  0.0192  0.0600  0.3968
19501W        W19701   8.799   3.072   5.954 -0.0713 -0.2428  0.3646
19502W        W19702  15.004   0.799   8.189 -0.3050 -0.1970 -0.3194
19503W        W19703   5.044  11.856   8.473 -0.1072 -0.2488  0.0191
19504W        W19704   9.753  14.131   7.094 -0.0485 -0.4278 -0.0389
19505W        W19705  11.815  10.058   9.752  0.1053  0.0546 -0.0437
19506W        W19706  11.872  14.437   7.830 -0.2693  0.0563  0.2756
19507W        W19707   7.249   6.440  11.999  0.1127  0.1605 -0.0163
19508W        W19708   7.815  10.047   8.910  0.0148 -0.0141 -0.1406
19509W        W19709  13.334  14.343  11.532  0.0441 -0.4628  0.0046
19510W        W19710   8.069   0.672  11.358  0.2557 -0.0509  0.0781
19511W        W19711  11.873  13.151   5.733 -0.1414  0.1529 -0.1538
19512W        W19712  13.097  11.812   0.637  0.3384 -0.2702 -0.1299
19513W        W19713   8.727   7.008   7.860  0.0205 -0.0628  0.3737
19514W        W19714  11.811  12.591   5.006 -0.1243  0.4150  0.1225
19515W        W19715   1.468   0.631   8.888  0.2713  0.1107  0.2822
19516W        W19716   6.511   4.121  14.929  0.1819  0.1300 -0.2189
19517W        W19717  14.050   7.495  13.143 -0.0753  0.1746  0.1566
19518W        W19718   3.112   1.685   5.543  0.3311 -0.0993 -0.0073
19519W        W19719   0.317  13.049  14.731 -0.3012 -0.0767  0.1160
19520W        W19720   2.934  13.602   4.243 -0.1985  0.1917 -0.1694
19521W        W19721  15.108  10.250  13.580  0.1303 -0.0409 -0.0803
19522W        W19722   8.803   5.450  14.688 -0.1813  0.1349  0.0582
19523W        W19723  13.832   7.491  10.418  0.1400 -0.0740 -0.0266
19524W        W19724   9.611   1.837   6.263  0.1113 -0.0139 -0.1657
19525W        W19725   9.054  12.388   5.417 -0.1437 -0.0841  0.1295
19526W        W19726  14.104   9.569   8.008  0.1141  0.1372 -0.0368
19527W        W19727  15.140   5.655  14.829 -0.0161 -0.2246 -0.3452
19528W        W19728   7.973   9.624  12.039  0.1284 -0.0481 -0.0715
19529W        W19729  12.408  11.150   6.262 -0.3162 -0.1068  0.2491
19530W        W19730  11.052  10.750   7.468 -0.0628  0.1876 -0.0934
19531W        W19731   3.376   3.035   5.347  0.2154 -0.1311  0.2228
19532W        W19732   1.536  10.061   5.075  0.0643 -0.0158 -0.0330
19533W        W19733   7.280   2.969   1.851 -0.1030  0.1093  0.1800
19534W        W19734  10.394   0.357   3.444  0.0784 -0.1020 -0.2160
19535W        W19735   4.300   3.173  12.163 -0.1413  0.3575 -0.1614
19536W        W19736   3.543   4.200   3.540 -0.2299  0.2512 -0.1014
19537W        W19737   2.383   4.119   0.277  0.4703 -0.0211  0.3409
19538W        W19738   7.125  14.473  13.724 -0.0627  0.1573  0.2188
19539W        W19739  14.481   4.144   3.666 -0.0153 -0.1378 -0.0922
19540W        W19740   5.453   1.212  10.809  0.2278  0.0991  0.2954
19541W        W19741   7.815   7.598  15.068  0.1109 -0.0488 -0.0171
19542W        W19742   6.976  13.712  12.472  0.0432 -0.1631  0.1371
19543W        W19743   7.430  14.143   4.464 -0.1369 -0.0912  0.1143
19544W        W19744  10.508  11.081   2.928  0.3065  0.2080  0.1143
19545W        W19745  14.032   0.495   3.416 -0.0560  0.2131  0.2770
19546W        W19746   3.196  14.211  13.271 -0.0824 -0.2429  0.6113
19547W        W19747   4.172   8.821   3.594 -0.3911  0.1657  0.0705
19548W        W19748   4.113   5.148  11.349  0.2327  0.1361  0.2211
19549W        W19749  12.786   2.241  10.275  0.1352 -0.1269 -0.0986
19550W        W19750  12.729   1.763  10.112 -0.0452  0.2267  0.1643
19551W        W19751   2.622   6.503   7.901 -0.0269  0.0893 -0.0375
19552W        W19752   8.904  10.438   8.381  0.1399  0.1196  0.0956
19553W        W19753   5.950  11.557   4.731 -0.0180 -0.3044  0.1272
19554W        W19754  12.921   3.157   5.438  0.3123 -0.2612  0.1707
19555W        W19755   1.887   6.629   7.399 -0.0287  0.0898 -0.1859
19556W        W19756   9.608   6.402   7.133 -0.1463 -0.0588 -0.0475
19557W        W19757  12.718   9.730  10.602 -0.2437  0.0254  0.0500
19558W        W19758  12.091   1.900   3.032 -0.0529 -0.1394  0.3643
19559W        W19759  14.239   5.036   6.241 -0.1045  0.0664  0.2279
19560W        W19760   3.204  13.444   6.450  0.1373  0.3160 -0.1693
19561W        W19761  15.056  10.599   3.893  0.1222 -0.2585 -0.0283
19562W        W19762  10.639  12.637  13.953 -0.2383 -0.1397 -0.0517
19563W        W19763  11.797   9.240  13.724 -0.3244  0.0814  0.0715
19564W        W19764  12.243  10.073  12.715 -0.0789 -0.1247 -0.4974
19565W        W19765  10.280  14.067   2.632  0.2645  0.2489 -0.0713
19566W        W19766   3.168   9.685  13.305  0.0319 -0.1900  0.2513
19567W        W19767  13.656  11.217  10.904 -0.1267 -0.0263  0.1198
19568W        W19768  12.610   7.492   9.939 -0.0724 -0.3988  0.2742
19569W        W19769   8.377  10.247  14.035 -0.0169  0.1087  0.3487
19570W        W19770   8.216  10.521   2.353 -0.0779 -0.0281 -0.0530
19571W        W19771   5.993   5.189  14.902  0.0371 -0.0786  0.1932
19572W        W19772   7.115   8.953   6.179 -0.2127  0.0791 -0.0327
19573W        W19773   2.154   5.646  12.912  0.0300  0.2234  0.1129
19574W        W19774   4.688  12.817   8.777  0.0262 -0.4271  0.0683
19575W        W19775   8.367  10.975   2.482 -0.2474  0.0234  0.3142
19576W        W19776   8.976  14.350   4.389  0.0069 -0.2435  0.1754
19577W        W19777  11.714   7.665   3.924 -0.1330 -0.0609  0.0409
19578W        W19778  14.320  13.066   5.685  0.0015 -0.1417 -0.1914
19579W        W19779   6.916   9.232   5.839  0.2158  0.1055 -0.2844
19580W        W19780  14.075  12.516   7.473 -0.1548  0.2449 -0.1642
19581W        W19781   9.590   4.294  10.876 -0.2775 -0.2019  0.2170
19582W        W19782   8.993  11.889  11.137  0.0495 -0.2250  0.0163
19583W        W19783   2.781   0.483   1.364 -0.4994 -0.1904  0.1040
19584W        W19784   6.681  10.777  10.956 -0.2445  0.2207 -0.0515
19585W        W19785   4.342  11.898   3.706  0.1339 -0.2589  0.0884
19586W        W19786   9.131   9.197   2.808  0.1008 -0.0693 -0.0930
19587W        W19787  11.588  15.149  14.705  0.0868 -0.1503 -0.0803
19588W        W19788   9.075   6.557   9.736  0.1415 -0.0134 -0.0974
19589W        W19789   6.237   2.426   3.415 -0.0545  0.1191  0.0133
19590W        W19790   6.494  10.225   2.903 -0.2034 -0.1374 -0.0265
19591W        W19791  12.943   5.859  14.564 -0.0646  0.0990  0.1776
19592W        W19792  12.720  13.386  11.106  0.0783  0.0955 -0.0593
19593W        W19793   4.244   0.002   4.279 -0.0568  0.1171  0.2417
19594W        W19794   5.170  11.803   4.527 -0.2272 -0.1209 -0.1899
19595W        W19795  11.555  12.138   7.905  0.0829 -0.3579  0.0573
19596W        W19796   5.456   0.219  10.869 -0.2671 -0.0679 -0.0618
19597W        W19797  13.089  12.283  14.404 -0.2831  0.0366 -0.0338
19598W        W19798  11.402   6.126   5.930 -0.0491  0.0554  0.1031
19599W        W19799  10.383   1.156   8.152 -0.3129  0.1934 -0.1574
19600W        W19800   8.475   1.790   6.550  0.0297  0.2826  0.3688
19601W        W19801  10.128  12.105   4.525 -0.2641  0.1125  0.1958
19602W        W19802  10.295   4.160  10.227  0.1169  0.0457 -0.2132
19603W        W19803   9.024  13.424   8.662 -0.1256 -0.0338  0.2564
19604W        W19804  14.297  12.901  11.158  0.2320  0.1472  0.1800
19605W        W19805  12.035   3.016   5.220  0.2670  0.3303  0.1700
19606W        W19806   5.885   9.557   3.156 -0.0089 -0.2526  0.3606
19607W        W19807   8.388   9.900   6.478  0.0763  0.0513 -0.1849
19608W        W19808   8.789   6.143   5.329 -0.1428 -0.0238 -0.1719
19609W        W19809  11.707   6.158   9.768  0.0757 -0.0842  0.2275
19610W        W19810  10.796  12.622   3.359  0.1744 -0.1002 -0.2919
19611W        W19811   8.669  12.950   3.384  0.1169  0.0028  0.1991
19612W        W19812  13.971  13.082   1.000 -0.1022 -0.4164  0.2193
19613W        W19813   6.027   1.345   7.277  0.1171 -0.0806  0.1455
19614W        W19814  13.547  14.066  13.152 -0.0186 -0.0288 -0.1567
19615W        W19815   7.717   1.825   6.977 -0.1204  0.0153  0.0996
19616W        W19816   9.814   6.416   9.876  0.1962 -0.1705  0.0476
19617W        W19817   6.190   8.741   9.933  0.1238 -0.1566 -0.3406
19618W        W19818   9.196  14.175   0.972 -0.0283 -0.0677 -0.0361
19619W        W19819   8.500   3.664   2.140 -0.1246  0.0869 -0.0037
19620W        W19820  10.646   2.245  10.491 -0.0829 -0.2717  0.2277
19621W        W19821   6.099  11.929   3.133  0.0893 -0.1970 -0.1370
19622W        W19822   2.814   3.534   3.617 -0.2394  0.1488 -0.0719
19623W        W19823   1.339   0.054   7.727 -0.1311  0.0334 -0.1614
19624W        W19824  13.877   3.005   0.533  0.0148 -0.0147 -0.1213
19625W        W19825   9.265   3.606  10.428  0.1665 -0.1591  0.1112
19626W        W19826   4.049   3.240   2.737 -0.0962  0.1210 -0.1015
19627W        W19827   3.055   8.824   1.682  0.2083  0.0626 -0.1737
19628W        W19828  11.508   4.254   0.657 -0.0890  0.1811 -0.1269
19629W        W19829   7.536  14.235   1.389 -0.1308  0.1051  0.2338
19630W        W19830   6.426   3.703  11.276  0.0702 -0.0065 -0.0798
19631W        W19831   7.243   7.491   9.138 -0.0012 -0.2120  0.1376
19632W        W19832   6.908   1.048   3.049 -0.0420 -0.0681  0.1114
19633W        W19833  10.786   8.716   9.426 -0.0409 -0.0231 -0.2243
19634W        W19834  10.665  10.235   3.965  0.6995  0.2961  0.5497
19635W        W19835   6.217   6.584   1.232 -0.1061  0.2173  0.1176
19636W        W19836   0.440   8.338   7.612 -0.2800 -0.0251  0.1407
19637W        W19837  14.850   4.177   6.023 -0.0062 -0.0482 -0.0263
19638W        W19838   9.185  11.927   5.510 -0.1301 -0.5388  0.0742
19639W        W19839   1.494  11.571   5.622  0.0179  0.2188 -0.2485
19640W        W19840   5.033  10.977  11.066  0.0783 -0.0914 -0.0210
19641W        W19841   9.313   8.449  10.183  0.1314  0.1821 -0.0395
19642W        W19842   9.088  14.408   8.448 -0.0663  0.1055  0.2753
19643W        W19843   4.069   8.742   6.567  0.2951  0.1536  0.1876
19644W        W19844   7.500  11.542   0.541 -0.2877  0.0456 -0.1053
19645W        W19845   0.777   0.974   9.627  0.1459 -0.1827 -0.0063
19646W        W19846   4.984  14.803   8.992 -0.0267 -0.0046  0.0050
19647W        W19847   8.903   7.726   3.786 -0.1017  0.1728 -0.0976
19648W        W19848  12.151   4.348   3.850 -0.3357 -0.0903  0.1679
19649W        W19849   3.667  11.433   3.485 -0.0837  0.3038  0.0242
19650W        W19850  11.046   1.095   3.505  0.0499  0.1178  0.0390
19651W        W19851  12.512   0.960   1.551  0.2682  0.2732  0.5457
19652W        W19852   6.649   1.172   7.868  0.2229  0.0905 -0.0223
19653W        W19853   5.504   3.643  13.787  0.0141 -0.1385 -0.0538
19654W        W19854  11.478   7.217   7.826 -0.2379  0.1148 -0.0190
19655W        W19855   7.871   3.037   6.420 -0.0084 -0.0031  0.1407
19656W        W19856   8.357   6.181   1.164 -0.1660 -0.1496 -0.0323
19657W        W19857   9.896  14.449   1.501  0.0952 -0.3107 -0.1413
19658W        W19858   0.898  13.099   2.220 -0.1882  0.0510 -0.3109
19659W        W19859   5.721  12.887  11.935  0.0649 -0.2573 -0.0101
19660W        W19860   4.649   2.317   9.866  0.1634  0.0345 -0.1840
19661W        W19861  12.959   4.911  12.729  0.2000 -0.1879 -0.1055
19662W        W19862  13.491   5.430   5.824 -0.0326 -0.1289 -0.0815
19663W        W19863  11.112   6.190   3.428 -0.0605  0.0975  0.3025
19664W        W19864   2.616  14.090  12.646  0.1952 -0.1730 -0.1063
19665W        W19865   8.472   2.805   0.044  0.1593 -0.1359  0.0046
19666W        W19866  14.974   4.185   9.392  0.0332  0.0166 -0.0025
19667W        W19867   1.826   4.023   9.399 -0.0597  0.0411  0.1193
19668W        W19868   6.992   9.691   7.759  0.2049 -0.0364 -0.0992
19669W        W19869  12.778   5.860   6.406  0.0722  0.1654  0.2175
19670W        W19870  10.699  12.899   6.137  0.1754 -0.0133 -0.2028
19671W        W19871   7.638   0.131  14.157  0.0883  0.2841 -0.2798
19672W        W19872   9.088  10.034  12.308  0.2065  0.0237 -0.0218
19673W        W19873   5.530  14.671   4.834  0.0898 -0.2821  0.0839
19674W        W19874  12.917  14.680   4.522  0.1015  0.1179 -0.0074
19675W        W19875   3.616  13.035   4.248  0.0263 -0.1461  0.0735
19676W        W19876   8.416   8.270  10.261 -0.3787 -0.0112  0.1179
19677W        W19877   6.903   5.241   7.229  0.0951 -0.0659 -0.2740
19678W        W19878   8.840   3.578   1.468 -0.0042 -0.2028 -0.0777
19679W        W19879  13.225  13.114  12.135  0.4585 -0.1461 -0.1827
19680W        W19880  11.773   2.728   6.066 -0.1774  0.3011 -0.0835
19681W        W19881  13.272   6.339   8.452  0.3097  0.3423 -0.0792
19682W        W19882   6.608  13.641   3.099  0.0536 -0.2935  0.1199
19683W        W19883   2.665   9.348   6.246 -0.1434 -0.1342 -0.1055
19684W        W19884   8.906  12.587  15.155 -0.0852 -0.2451 -0.2172
19685W        W19885  12.329   9.163   6.798  0.2861 -0.0683 -0.0810
19686W        W19886   5.791  13.988  14.330 -0.0101  0.1576  0.0650
19687W        W19887   4.953  11.531  13.278 -0.0761 -0.2639 -0.0926
19688W        W19888  13.097  12.445   5.927  0.1077  0.0220 -0.2227
19689W        W19889   4.973  12.169   6.082  0.1887  0.0163 -0.0677
19690W        W19890   9.530  11.777  14.498  0.1238  0.1864  0.2272
19691W        W19891   7.269   4.993   3.699  0.1712 -0.2318  0.1019
19692W        W19892   7.831   1.602   4.544 -0.1829  0.2019  0.1307
19693W        W19893  14.138   5.789  12.869 -0.0259  0.2319  0.2381
19694W        W19894  11.127   0.001   6.066 -0.0469  0.0106  0.3047
19695W        W19895  13.630   2.562   8.079 -0.3016 -0.0349  0.0992
19696W        W19896   9.306  13.158   9.323  0.0558  0.0885  0.0389
19697W        W19897   8.568   2.180  13.747  0.1775 -0.2589  0.1672
19698W        W19898   7.146   8.018   5.579 -0.0369  0.1043  0.0292
19699W        W19899   1.739   8.247   0.313 -0.4226 -0.2046  0.0280
19700W        W19900   0.039   3.975   0.040  0.0398  0.1988 -0.1024
19701W        W19901  10.992  13.714  10.691  0.2527  0.0756  0.0195
19702W        W19902  11.837   6.332   6.166 -0.0315  0.2274 -0.1080
19703W        W19903  14.313   9.819  10.481 -0.1760  0.1740 -0.0941
19704W        W19904  11.415   4.768   8.483  0.2418 -0.1286 -0.0575
19705W        W19905   9.400  10.486   8.222 -0.2058 -0.3514  0.0198
19706W        W19906   4.798  10.850   8.668 -0.2026  0.0698 -0.3078
19707W        W19907   6.985   2.242  15.167  0.0300  0.3234 -0.1640
19708W        W19908   6.112   1.827   4.299  0.0632 -0.0605  0.0958
19709W        W19909   8.562   9.375  14.801 -0.0512 -0.0951 -0.0545
19710W        W19910  10.401  10.365   7.063  0.1677 -0.1454  0.1661
19711W        W19911  10.165  14.132   7.427  0.0727  0.1417 -0.1479
19712W        W19912  10.949  13.678   9.782 -0.0095 -0.0697  0.3223
19713W        W19913   7.300  15.043   9.888 -0.1498  0.2370  0.1093
19714W        W19914  13.094   2.292  11.683 -0.1423 -0.0942 -0.0026
19715W        W19915   8.288   9.402   3.515  0.0405 -0.2069  0.0633
19716W        W19916  10.761   8.747   2.766 -0.0690  0.1430  0.0434
19717W        W19917   8.629   5.086   9.558 -0.1473 -0.2292 -0.0113
19718W        W19918  15.098   0.532   3.234 -0.0032  0.1704 -0.0377
19719W        W19919  13.969   8.403   9.588  0.1299 -0.2799  0.0999
19720W        W19920   3.353  14.439  12.847  0.1013  0.1582  0.1823
19721W        W19921   8.942   1.402   7.863 -0.0393  0.2600 -0.0140
19722W        W19922   8.468   8.038   3.880 -0.1477  0.0708 -0.0829
19723W        W19923  14.454   2.020   8.452  0.0253  0.1793 -0.1792
19724W        W19924  10.714  15.166   6.750  0.2214  0.0948  0.1115
19725W        W19925  13.486   9.509  11.115  0.0507 -0.0894  0.0364
19726W        W19926   8.067   9.076   1.738 -0.0025 -0.0373 -0.2226
19727W        W19927  10.349   2.346   6.621  0.0142  0.4166 -0.0549
19728W        W19928  10.463  11.172  10.719 -0.0327  0.0897  0.0563
19729W        W19929   0.080  13.961   6.683 -0.1075  0.1641 -0.2031
19730W        W19930  13.664  13.075   9.373  0.2410 -0.0908 -0.1858
19731W        W19931   7.299   3.457  12.521 -0.0994 -0.2390 -0.1582
19732W        W19932  11.166  14.242   3.090  0.1122 -0.0533 -0.3101
19733W        W19933   1.303   5.255   8.653  0.1163 -0.3069 -0.2670
19734W        W19934  13.096   7.904   1.831 -0.0436 -0.2166  0.1576
19735W        W19935  11.186   2.341  10.585  0.1536 -0.2405  0.2050
19736W        W19936  13.394   1.686   2.478  0.0750 -0.0187 -0.0266
19737W        W19937  11.881   9.755   3.696  0.0956  0.0111 -0.0866
19738W        W19938   2.765   5.575   6.979  0.1544 -0.0741  0.0990
19739W        W19939   4.090  13.647   0.059 -0.1785 -0.1234 -0.4347
19740W        W19940   2.266   6.823  10.931  0.1539  0.1654  0.2489
19741W        W19941   5.150  10.371   5.017  0.0286 -0.0552 -0.1239
19742W        W19942   6.404   7.589  11.962  0.2090  0.3119  0.2169
19743W        W19943  11.337   0.497   4.822 -0.0618 -0.1548 -0.1160
19744W        W19944   6.218  14.639   4.140  0.1599 -0.6094 -0.0587
19745W        W19945   7.426   6.200   6.892  0.0773  0.2214  0.1817
19746W        W19946   8.762   0.149   8.910 -0.0022  0.0389  0.0994
19747W        W19947  11.197   5.566  10.112  0.0837  0.0428  0.0759
19748W        W19948   0.339   9.351   8.669  0.1637 -0.2422 -0.1651
19749W        W19949   8.624  13.225   7.938 -0.1914 -0.0943  0.0535
19750W        W19950   3.204  14.165   5.770 -0.1572  0.1786 -0.1191
19751W        W19951   5.955  10.837   4.994  0.0332 -0.2359 -0.1117
19752W        W19952   3.205   4.361  15.007 -0.1310 -0.1672  0.0734
19753W        W19953   8.799  11.212   2.496  0.4162  0.0958  0.0637
19754W        W19954   8.165  12.448   5.755  0.1087 -0.1391  0.2343
19755W        W19955  14.046   0.065  11.453 -0.0108 -0.0797  0.1440
19756W        W19956   6.135   7.514   5.217  0.3023 -0.1800  0.0123
19757W        W19957   0.285  10.205  13.939  0.0582  0.1012  0.2214
19758W        W19958   5.225   1.578  13.761  0.1485 -0.0518  0.0800
19759W        W19959   8.594   2.651  14.212  0.1752 -0.1175 -0.0751
19760W        W19960  12.582  14.663   9.191 -0.2208  0.2423 -0.1838
19761W        W19961  14.539   7.150   3.882  0.0968  0.0230  0.0033
19762W        W19962   2.261   0.910   7.038 -0.0120  0.2328 -0.2807
19763W        W19963  11.450  12.622   7.733  0.1408 -0.1923  0.1989
19764W        W19964  10.025  13.002   4.835 -0.3918  0.2326 -0.1411
19765W        W19965   7.907   1.817  13.269  0.1911  0.0816  0.4133
19766W        W19966   2.315   5.923   9.616 -0.0312  0.1846 -0.0584
19767W        W19967  13.601  13.418   2.567 -0.2544 -0.1425  0.1502
19768W        W19968  11.705  10.048   8.928 -0.0444  0.1480  0.1392
19769W        W19969   8.873  14.468  13.687  0.6703 -0.1231 -0.1038
19770W        W19970   0.838  12.731   7.208 -0.2066 -0.0148  0.0784
19771W        W19971  12.960   0.393  10.526 -0.2392 -0.0756  0.1911
19772W        W19972  14.141   6.253   7.633  0.0101 -0.2224  0.2263
19773W        W19973   6.573  12.794   8.121  0.1942  0.3797 -0.0072
19774W        W19974   7.689  14.241  12.058  0.1758 -0.1761  0.2444
19775W        W19975  10.581   1.717   8.966 -0.0126 -0.0042 -0.2213
19776W        W19976  12.538  11.712  10.363  0.0460 -0.1635 -0.1495
19777W        W19977  10.302   3.107   0.320  0.2385  0.0092 -0.1111
19778W        W19978  11.977   9.650   4.140 -0.0412  0.0844 -0.2181
19779W        W19979   8.779  14.670  11.950  0.0347 -0.2084 -0.0694
19780W        W19980   5.970   9.272   4.095  0.0581  0.1539  0.3724
19781W        W19981  11.346   9.871   9.823  0.2320  0.0342  0.1608
19782W        W19982  13.840  13.119  14.591  0.3165  0.0653  0.4673
19783W        W19983  12.079  13.161   1.434 -0.5479  0.1671 -0.0039
19784W        W19984   6.519   1.624   8.620  0.1990  0.0041  0.0123
19785W        W19985   2.885   5.626   9.249  0.0956  0.0304  0.0719
19786W        W19986   6.723   6.267   4.136 -0.2248 -0.0050 -0.3670
19787W        W19987  13.766   5.675   5.393  0.1933 -0.1320 -0.0335
19788W        W19988   5.301  12.152  14.222  0.3060  0.0389  0.0656
19789W        W19989  10.005   1.235   1.205  0.4006 -0.1128  0.1357
19790W        W19990   6.934   0.950   0.595  0.0106 -0.2339  0.0884
19791W        W19991   6.590  10.218  10.888 -0.1368  0.2846  0.1065
19792W        W19992   0.671  14.929  10.855  0.0737  0.1835 -0.0227
19793W        W19993  11.642  11.786  12.123  0.0023 -0.0777  0.3231
19794W        W19994   1.850   1.168   4.926 -0.0031 -0.1072  0.0875
19795W        W19995   7.431   7.258   6.165  0.0762  0.0005  0.0772
19796W        W19996   7.976   6.600  11.328  0.0399 -0.0966 -0.0012
19797W        W19997  14.558  11.340   1.017 -0.1685 -0.0009  0.2409
19798W        W19998   9.503  15.185   1.276 -0.1107 -0.3696 -0.1861
19799W        W19999   8.427   8.364   8.565 -0.0867  0.0603  0.2668
19800W        W20000   0.933   7.117   9.550 -0.0425 -0.4199  0.0408
19801W        W20001   1.005   1.394   9.611 -0.0350  0.1887  0.0183
19802W        W20002   2.113   1.942   9.979 -0.1386 -0.1768  0.1332
19803W        W20003   1.094   0.159   6.996  0.3953  0.0857  0.2061
19804W        W20004   1.930   8.166   8.602 -0.0056  0.1817  0.1196
19805W        W20005   7.784   3.461  11.344  0.0334  0.1674  0.0977
19806W        W20006   6.011   4.677  13.334  0.0805 -0.2898 -0.2269
19807W        W20007   0.744  12.060   9.810  0.2278 -0.0821  0.0232
19808W        W20008   3.166   1.685  11.048  0.2196 -0.2198 -0.1345
19809W        W20009   7.864   0.936   9.392 -0.0085  0.2881  0.1374
19810W        W20010  11.849   7.330  13.978 -0.0992 -0.3140  0.2000
19811W        W20011  10.023   1.232   3.223  0.2081  0.0841 -0.0983
19812W        W20012   0.461  11.773   2.318  0.0729  0.1847 -0.2846
19813W        W20013   8.685   7.399   7.566  0.0731  0.0389 -0.0678
19814W        W20014   9.876   3.448   9.939  0.2203 -0.0892 -0.2726
19815W        W20015  13.933  14.545   6.249 -0.2155  0.3219 -0.0856
19816W        W20016   0.373   1.928   4.400  0.0787 -0.0444 -0.2114
19817W        W20017   9.125  14.365   5.451  0.2287  0.2200  0.1441
19818W        W20018  14.925   2.402   1.607  0.0983  0.0612 -0.3641
19819W        W20019  13.994  11.691   7.177  0.1164  0.0299 -0.2024
19820W        W20020   5.403  12.624  12.504  0.0070  0.1794  0.1039
19821W        W20021  12.438  11.214  10.516  0.1011 -0.1476 -0.3358
19822W        W20022   8.375   4.608   8.660  0.0270  0.3485 -0.3138
19823W        W20023  14.617   6.310   0.762 -0.3901  0.2271 -0.0133
19824W        W20024   2.517  15.086   1.646  0.1555 -0.1722 -0.2234
19825W        W20025   7.991   8.533   4.423  0.2118 -0.2064  0.1306
19826W        W20026  10.376   0.321  11.291 -0.0751  0.3124  0.1143
19827W        W20027   0.517  14.126  10.836 -0.0405 -0.0342 -0.0632
19828W        W20028  15.042   0.385   5.298  0.0300 -0.2362  0.0510
19829W        W20029  13.878  10.283  12.324 -0.1916 -0.0114 -0.3435
19830W        W20030  13.891   5.633  13.351  0.0215  0.0579  0.2330
19831W        W20031  11.318  12.729   6.929  0.1739 -0.1535  0.1264
19832W        W20032   8.963   8.799   2.419 -0.1005  0.2057  0.1293
19833W        W20033  11.593  11.712   0.709  0.2534 -0.0127  0.0828
19834W        W20034  14.055   6.524  13.306 -0.0373  0.3156 -0.0504
19835W        W20035   8.601   4.553   1.904  0.0512  0.0679  0.1493
19836W        W20036   9.872   0.415   7.593  0.0054  0.0425 -0.1949
19837W        W20037   9.586  14.589   5.338  0.1762  0.1714 -0.2494
19838W        W20038  14.562   5.498   3.564  0.2873  0.3703  0.1090
19839W        W20039   2.439   7.387   3.367  0.3350 -0.1153  0.0996
19840W        W20040   6.520   3.992  11.963 -0.1329 -0.0502 -0.0497
19841W        W20041   0.412  13.046   2.584 -0.0463 -0.0564  0.2664
19842W        W20042  10.975  14.180   9.616 -0.0207  0.0452  0.3479
19843W        W20043   4.060   5.448   7.847  0.0329  0.0478  0.1748
19844W        W20044   8.615   4.004   2.613 -0.2043 -0.1564 -0.2308
19845W        W20045   3.964   0.751   6.138  0.4166 -0.2990  0.2158
19846W        W20046   7.038  10.029   6.911  0.1001 -0.0433 -0.0837
19847W        W20047  12.687   6.572  12.827  0.1193 -0.0105 -0.0398
19848W        W20048  14.890  10.676   9.612 -0.2787  0.0287 -0.0036
19849W        W20049   9.386  11.939   6.635  0.0397 -0.4414 -0.1757
19850W        W20050  14.138   1.909   6.328  0.3312  0.1372 -0.1513
19851W        W20051   8.541  12.641   2.931 -0.1729 -0.2928 -0.3478
19852W        W20052   6.380  10.874   4.162  0.3059 -0.0565 -0.0058
19853W        W20053   5.862   4.040   3.851  0.1844 -0.2412 -0.0044
19854W        W20054   2.263   1.405   7.025  0.2950  0.2341 -0.0759
19855W        W20055   1.650  12.456  11.738  0.0612  0.0578  0.0354
19856W        W20056  11.009  12.124  11.475 -0.2038 -0.0546 -0.1726
19857W        W20057  10.124  12.146  13.169 -0.0883 -0.1271 -0.4306
19858W        W20058   8.795   0.373  13.498 -0.1539  0.0370  0.2094
19859W        W20059  10.082   0.186   6.372  0.0031  0.4524 -0.0452
19860W        W20060   4.133   8.761   7.210 -0.1899  0.3636  0.0746
19861W        W20061   1.124   1.293  12.776 -0.0638  0.0825 -0.0194
19862W        W20062   7.383  13.775   9.695 -0.0675 -0.0704  0.2257
19863W        W20063  13.031   9.642   8.527 -0.1139  0.0284  0.1562
19864W        W20064   5.728   2.867   8.394 -0.2091 -0.1857 -0.1313
19865W        W20065  13.961  15.130  12.572 -0.0161  0.3047 -0.4023
19866W        W20066   8.265  13.300  12.005 -0.0058  0.1972  0.2096
19867W        W20067   5.134  14.610   1.335  0.0690 -0.0192  0.0112
19868W        W20068   9.538  13.746  14.768 -0.2443 -0.0202 -0.0861
19869W        W20069   7.082  14.108   4.860 -0.1211  0.1116  0.2033
19870W        W20070   3.144   1.130   2.050 -0.1162 -0.0284 -0.1806
19871W        W20071  12.302  14.786  12.933  0.4160  0.0494 -0.0464
19872W        W20072   8.205   5.594   5.238 -0.3996  0.2919 -0.0585
19873W        W20073  12.014   6.414   5.212  0.2579 -0.1420  0.1766
19874W        W20074  12.026   1.017   3.608 -0.1696  0.0334  0.3591
19875W        W20075   9.758  11.168   7.047  0.0601 -0.3372  0.1583
19876W        W20076   7.218  13.222  12.547 -0.1693  0.2277  0.1974
19877W        W20077   8.821  12.320  13.417 -0.1648 -0.0195 -0.1032
19878W        W20078  12.238  14.915   7.919  0.1140 -0.0199  0.2038
19879W        W20079   1.033  10.937   8.605 -0.0574  0.1519 -0.1383
19880W        W20080   8.752   1.445   4.720  0.2012  0.1987  0.0877
19881W        W20081  13.320   8.632   7.112 -0.0367 -0.1427 -0.1116
19882W        W20082   9.647   7.553   2.561  0.4639 -0.0477  0.0070
19883W        W20083  12.315   9.091   8.233 -0.1174 -0.1064  0.3777
19884W        W20084   7.622   1.315   6.928 -0.1741 -0.1256  0.1478
19885W        W20085   9.816   3.643   8.385 -0.1316  0.0335 -0.4427
19886W        W20086   9.078  12.773   6.266  0.1813 -0.2463 -0.1236
19887W        W20087   5.081  13.804  12.747  0.0891 -0.0189  0.1609
19888W        W20088   9.963  11.685  13.397  0.1434 -0.1427  0.1878
19889W        W20089   7.813   9.930   8.049  0.2657  0.0728 -0.1953
19890W        W20090   9.560   6.249   8.908 -0.1487  0.1803 -0.0278
19891W        W20091   9.444   6.751   6.775 -0.0011 -0.0987  0.0246
19892W        W20092  10.801   2.494  14.567  0.1067 -0.2611  0.0234
19893W        W20093   7.792   1.996   1.180  0.0481  0.1010 -0.1923
19894W        W20094   6.648   5.130   4.212 -0.1854  0.1246 -0.2714
19895W        W20095   9.625   1.474  10.295  0.0875 -0.4889  0.1240
19896W        W20096  13.493  13.941  14.262  0.1311 -0.0760 -0.1350
19897W        W20097  12.689   7.874   1.528  0.5692  0.4007 -0.1563
19898W        W20098  10.092  12.802   3.469  0.0882 -0.0280  0.1022
19899W        W20099   7.464  11.827   2.350  0.2133 -0.0504 -0.1138
19900W        W20100   5.294  11.106   8.538 -0.0624 -0.0466 -0.1168
19901W        W20101  14.928   3.273   7.070  0.2661 -0.1671 -0.0245
19902W        W20102   7.527  13.874  10.634 -0.0508 -0.0594  0.2897
19903W        W20103   0.146  13.919  14.566  0.2430 -0.0850 -0.0073
19904W        W20104   9.135   0.467   9.212  0.0742 -0.1059 -0.2153
19905W        W20105   2.962   4.471   4.071 -0.0057  0.1228 -0.2703
19906W        W20106   2.501   0.984  11.034 -0.1978  0.2531 -0.1907
19907W        W20107  12.907   1.363   3.315  0.3941 -0.0220  0.0730
19908W        W20108   8.176   4.679  13.601 -0.1301  0.0502 -0.1580
19909W        W20109  11.148   1.230   6.953  0.0831 -0.0230  0.2071
19910W        W20110   9.188   0.894  12.876  0.1070  0.2531  0.0378
19911W        W20111   3.433   6.657  14.005  0.2321  0.0655  0.2863
19912W        W20112  12.802   3.758  13.045 -0.0242 -0.0520 -0.2388
19913W        W20113  14.917   9.603   5.064  0.2754  0.2526 -0.1253
19914W        W20114   0.753   8.707  11.018 -0.3995  0.1060  0.0907
19915W        W20115   1.602   9.640  12.419  0.1269 -0.0700  0.0314
19916W        W20116  12.158   0.070  11.680 -0.1906  0.1595  0.1145
19917W        W20117   8.040   4.762  11.806  0.1920  0.5021 -0.2187
19918W        W20118  15.008   5.625   7.205  0.2705  0.0129  0.0265
19919W        W20119   5.627   0.982  14.745 -0.1886  0.1275  0.0459
19920W        W20120   8.603   6.915   4.127 -0.1282  0.0442 -0.0171
19921W        W20121   8.507   3.821  10.255  0.0657 -0.0556  0.0574
19922W        W20122   5.717  13.587   6.799 -0.0687 -0.0569 -0.1429
19923W        W20123   2.881   2.590   3.033  0.2180  0.0883 -0.1985
19924W        W20124   8.214   7.723   0.200 -0.1420  0.0006 -0.0018
19925W        W20125   3.315   2.496   5.237  0.4064  0.0953  0.0397
19926W        W20126   9.020  13.638  13.351 -0.1610 -0.3660 -0.1927
19927W        W20127   7.421  11.486   5.536  0.2163 -0.3630 -0.2086
19928W        W20128   8.216  11.555   9.976  0.1329  0.0151  0.0083
19929W        W20129   2.434   2.956   8.725 -0.2391 -0.1472 -0.1934
19930W        W20130   2.607   0.504   8.102 -0.0020 -0.2213  0.2139
19931W        W20131  10.918  12.706   6.564 -0.0056 -0.1301 -0.1557
19932W        W20132   2.082   0.097   6.280  0.2309  0.2403  0.0596
19933W        W20133   3.363   4.781   8.849  0.0592  0.0918 -0.0714
19934W        W20134   2.832  14.560   5.729 -0.1208 -0.3416 -0.1171
19935W        W20135  12.456   8.408  10.460  0.2861 -0.0185  0.0800
19936W        W20136   4.174  14.702   1.724  0.0076  0.0701  0.0697
19937W        W20137  12.112  11.974  12.085  0.3475 -0.0015 -0.1174
19938W        W20138  10.221   5.092   2.074  0.3337  0.0730 -0.1072
19939W        W20139   7.089  12.737   6.224  0.2196 -0.0774 -0.2364
19940W        W20140   5.702  14.616  13.383  0.0700  0.1970  0.2016
19941W        W20141  10.918   0.902   4.679 -0.2986  0.0543 -0.0398
19942W        W20142   8.329   5.563  12.271 -0.1533  0.0177  0.3354
19943W        W20143  12.475  14.697  11.178 -0.0241 -0.0054  0.2496
19944W        W20144  14.912  10.001   7.656 -0.0636  0.0283  0.0694
19945W        W20145   9.078  12.221   0.867  0.1172 -0.1418 -0.0430
19946W        W20146   9.973   2.577   9.513  0.0295 -0.0398 -0.0889
19947W        W20147   2.564  10.894   6.416  0.0165 -0.2898 -0.1369
19948W        W20148  10.207   1.669   9.281  0.0399 -0.1717  0.0997
19949W        W20149  14.555   8.145   0.905  0.0901 -0.1013  0.1717
19950W        W20150   8.915  10.989   7.577  0.0672  0.2755  0.1282
19951W        W20151  13.630   2.869   7.650  0.1285  0.1321 -0.2553
19952W        W20152   2.621  14.251   8.346  0.0150 -0.2663  0.2042
19953W        W20153   9.941   8.289  11.238 -0.3273  0.2202 -0.0263
19954W        W20154   5.662   9.680   1.000  0.0402  0.0821 -0.1732
19955W        W20155   4.581  13.681   3.371  0.1026  0.1262  0.4267
19956W        W20156   9.494  11.911   4.688 -0.0856  0.0113  0.1569
19957W        W20157  11.269   1.721   2.175  0.0531 -0.0657 -0.0407
19958W        W20158   9.377   9.313  13.589  0.2585  0.0816 -0.1653
19959W        W20159  13.961  12.735   7.043  0.1546  0.0832 -0.1546
19960W        W20160   6.544  14.826   9.178 -0.1758  0.2549 -0.1269
19961W        W20161  11.336   0.831   7.126 -0.1740  0.0297  0.0757
19962W        W20162   6.475  13.160   3.579  0.1159  0.0034  0.0493
19963W        W20163  15.181   3.614   8.889  0.1021 -0.0344 -0.0380
19964W        W20164   1.658   5.522   1.465 -0.1110 -0.1619 -0.1246
19965W        W20165   6.678   1.580  11.311  0.2519  0.0841 -0.1873
19966W        W20166   8.796   5.804  13.697  0.2648  0.1385  0.1690
19967W        W20167   8.524   6.215  10.804  0.1026  0.1277  0.2688
19968W        W20168  11.706  14.598   0.167 -0.0009  0.2530  0.1034
19969W        W20169   9.871   2.887  14.727 -0.2802 -0.1092 -0.0039
19970W        W20170   9.029   7.037   9.817  0.0013 -0.2058  0.0767
19971W        W20171  10.764  11.167   9.706 -0.1497  0.1880  0.0505
19972W        W20172   8.028  13.504  13.175  0.1272 -0.3342 -0.0265
19973W        W20173   2.663  11.316   5.924  0.1968 -0.0322  0.1051
19974W        W20174   6.015  11.595   0.445 -0.1391 -0.0251  0.2797
19975W        W20175   8.448   0.458   5.341 -0.2403  0.1709 -0.0266
19976W        W20176  11.062   0.789   0.980 -0.2601  0.1019  0.0644
19977W        W20177   6.981  13.835   1.852  0.0723  0.0682  0.0523
19978W        W20178   4.560   3.908   6.137 -0.2182 -0.0659 -0.0630
19979W        W20179   2.529  10.597   5.339  0.0482  0.0934  0.3645
19980W        W20180   4.205  13.154   9.643 -0.0162 -0.2694  0.0569
19981W        W20181   8.843   7.635   7.147 -0.3719  0.2120 -0.1486
19982W        W20182   8.049  11.801  11.109 -0.2062  0.2176 -0.1179
19983W        W20183   4.545   9.439   5.352  0.3353 -0.0606  0.0045
19984W        W20184   3.850  12.172   8.210 -0.0047  0.3954 -0.0022
19985W        W20185   4.621   8.742   9.543 -0.2118 -0.0641  0.2054
19986W        W20186  13.633   7.225  14.731 -0.2330  0.1004  0.1409
19987W        W20187   7.428   6.985   7.347  0.1357  0.3843 -0.3260
19988W        W20188  13.915   7.172   6.692 -0.1271 -0.0362 -0.0226
19989W        W20189   9.728  12.245  12.162  0.0261  0.0405 -0.0582
19990W        W20190  12.196  11.105   5.799 -0.2774 -0.0211 -0.0054
19991W        W20191   8.703  14.047   4.738  0.5032  0.1108  0.0655
19992W        W20192   6.887  14.677   7.330  0.0378 -0.0241 -0.0145
19993W        W20193  12.340  11.041   3.601 -0.0924  0.2251 -0.1261
19994W        W20194   9.378   9.948  15.164 -0.1565 -0.1474 -0.1696
19995W        W20195   1.315   8.793   4.754  0.1400  0.0659 -0.0899
19996W        W20196  11.105  14.933   5.272  0.3443  0.1555 -0.2442
19997W        W20197   9.722   1.363   4.822  0.3015 -0.2646 -0.0220
19998W        W20198   3.797  11.525   5.373 -0.1883 -0.0205 -0.2198
19999W        W20199   1.674  10.267   2.074 -0.2043  0.1680  0.1605
20000W        W20200  10.142   9.702   4.498  0.4579 -0.1043 -0.3499
20001W        W20201   7.275   0.916   5.944  0.3379 -0.0762 -0.0139
20002W        W20202  12.300  12.729   0.508  0.2501  0.3663 -0.2192
20003W        W20203   9.100   9.759   3.634 -0.3284  0.1861 -0.1415
20004W        W20204   7.234  14.377  11.211  0.0609 -0.2656 -0.0286
20005W        W20205   6.945   6.136   7.096 -0.1587  0.0564  0.0123
20006W        W20206  11.603  10.579   9.033 -0.1646  0.0275 -0.1569
20007W        W20207  12.975   3.816   8.338  0.0521  0.1203 -0.4931
20008W        W20208   6.988  11.108   5.318 -0.1043  0.2470  0.0407
20009W        W20209   6.795  11.433   4.839  0.0913  0.2404  0.2064
20010W        W20210  14.575   9.710  14.510 -0.0015  0.0482 -0.1650
20011W        W20211  11.401  10.751  14.657 -0.0924 -0.2686  0.3313
20012W        W20212   3.628   1.911   1.782  0.1223  0.1038  0.0586
20013W        W20213   7.586   2.152   6.598  0.1097 -0.0145 -0.0078
20014W        W20214  14.672   8.242  13.666 -0.0917 -0.1146  0.0103
20015W        W20215  11.828   6.796  14.768  0.0667  0.0129  0.1762
20016W        W20216   5.433   1.414  11.437  0.1447 -0.0255 -0.0154
20017W        W20217   9.238   5.611   0.526  0.0060 -0.1405 -0.0945
20018W        W20218   6.197   6.341  11.649 -0.0141 -0.0210  0.1533
20019W        W20219  10.031  10.021  13.387 -0.3526  0.0037 -0.0943
20020W        W20220   1.886   9.332  10.411  0.0431 -0.1429  0.1109
20021W        W20221  14.038   6.759  14.953  0.1087  0.2556 -0.2365
20022W        W20222   1.767   9.234   7.014  0.0455  0.0920 -0.0558
20023W        W20223   9.003   0.266   5.528  0.0772 -0.2314 -0.0289
20024W        W20224  13.325   3.654   8.689  0.3619  0.0450  0.0424
20025W        W20225  11.461   9.362   0.918 -0.2576 -0.0378  0.2768
20026W        W20226  11.457   2.439  10.192  0.1147 -0.1018  0.3508
20027W        W20227   5.922  12.093   0.498 -0.1462 -0.2089  0.1356
20028W        W20228   3.973  12.148   8.805  0.0947  0.3529 -0.0854
20029W        W20229  12.906  12.815  14.873  0.1020 -0.0715 -0.0881
20030W        W20230  13.386   8.843   7.582  0.0023  0.1343  0.3522
20031W        W20231   5.442   2.952   8.851 -0.0589  0.1175 -0.0411
20032W        W20232   3.130   3.182   3.652 -0.0107  0.1375 -0.0733
20033W        W20233  13.225  11.893   3.264  0.1937  0.3699  0.0477
20034W        W20234   8.203  13.450   7.229 -0.0785  0.0110  0.1748
20035W        W20235  11.316  15.045   9.038  0.2596 -0.1283  0.0571
20036W        W20236   8.091  13.002  12.422 -0.2030  0.0575  0.3248
20037W        W20237  10.809  13.249   7.460  0.2747 -0.0692 -0.1098
20038W        W20238   8.131   9.924   3.450  0.1696  0.0203 -0.4647
20039W        W20239  10.036  14.629   2.346  0.0474 -0.0294 -0.2374
20040W        W20240   8.116   0.752   6.303 -0.1279  0.0867 -0.2166
20041W        W20241   9.784   0.788   7.953  0.1152 -0.3528 -0.0176
20042W        W20242   6.270  12.994  12.103  0.0680 -0.1224  0.0145
20043W        W20243   5.737   9.340  13.192 -0.2135  0.0235 -0.1637
20044W        W20244   8.091  13.579   6.502 -0.1091 -0.0253 -0.0428
20045W        W20245   0.635   1.528   3.372 -0.0332  0.2946  0.0238
20046W        W20246   6.065   2.563   8.607 -0.2060  0.1893  0.0719
20047W        W20247   9.026  12.155   8.290 -0.1142 -0.0608  0.0823
20048W        W20248   4.139  10.804   2.305  0.0022 -0.1408  0.0550
20049W        W20249  13.923   4.636  13.004 -0.4595  0.0311  0.1361
20050W        W20250   8.854  10.767  14.417 -0.2860  0.0293  0.1592
20051W        W20251  13.833  12.447   5.634 -0.1212  0.1737  0.4420
20052W        W20252   7.777   1.232   0.816  0.1123  0.0472 -0.1430
20053W        W20253  10.540   9.636  14.180  0.1567 -0.1600 -0.1190
20054W        W20254  13.084   3.555   6.899  0.2528  0.0885  0.0985
20055W        W20255   9.872   1.466  14.637 -0.1884 -0.1467 -0.2100
20056W        W20256   4.785  12.134   9.246  0.0235  0.0800  0.1885
20057W        W20257   1.830  10.748   8.251 -0.1647  0.0213  0.3455
20058W        W20258   2.310  12.746  14.719 -0.0368 -0.0411 -0.0545
20059W        W20259  13.897   1.266   1.774 -0.0177 -0.3088  0.1908
20060W        W20260  11.313   4.958   4.046 -0.1367  0.2645 -0.3194
20061W        W20261   4.517  12.857   3.945 -0.1248 -0.0047  0.0236
20062W        W20262  12.975   2.931  12.427  0.4388  0.1479  0.2059
20063W        W20263   6.938   5.409   2.512 -0.3905  0.3432 -0.0593
20064W        W20264   3.537  14.283   8.665 -0.1967  0.1091 -0.0139
20065W        W20265   3.142   8.827   3.903 -0.4198  0.0944  0.0221
20066W        W20266  12.855   4.835   9.669  0.1725 -0.0119 -0.1061
20067W        W20267  13.165  13.767   5.601 -0.0421 -0.0039  0.3334
20068W        W20268  10.741   8.018  11.026 -0.1672  0.2522  0.2968
20069W        W20269   5.721   1.587  12.682 -0.1402  0.1079 -0.1415
20070W        W20270   2.988   1.818   9.280 -0.3559 -0.1216 -0.0746
20071W        W20271  14.053  11.942   2.811 -0.1315  0.0969  0.0883
20072W        W20272  10.361  13.935   4.790 -0.1055  0.1224 -0.0633
20073W        W20273   4.626  13.169  14.368  0.1451 -0.0680 -0.1729
20074W        W20274   8.409  14.180  11.382 -0.1904  0.0300 -0.1925
20075W        W20275  12.674  12.939   7.840 -0.3395 -0.0608  0.0312
20076W        W20276   7.856  14.612  11.804 -0.2569  0.1826  0.1634
20077W        W20277   9.761   5.538  10.505  0.1744  0.2177  0.0918
20078W        W20278   7.211  13.616   3.167  0.2295  0.3376 -0.1258
20079W        W20279  13.878  12.303   8.848 -0.0018  0.0130  0.1126
20080W        W20280   4.398   0.583   7.970  0.0045 -0.1714  0.3299
20081W        W20281  12.291   3.223  10.434 -0.1137 -0.0206 -0.0676
20082W        W20282  10.563   5.457   8.801 -0.1017 -0.0560  0.0540
20083W        W20283   9.753   0.430  15.174 -0.3554 -0.2996 -0.1634
20084W        W20284  10.490   7.208   8.657  0.0926 -0.0191  0.2387
20085W        W20285   6.366   3.880   9.150  0.0704 -0.0553 -0.1161
20086W        W20286   0.162   4.844   7.883 -0.1991 -0.1977 -0.0899
20087W        W20287   3.090   8.981   4.509  0.0735  0.1195 -0.2084
20088W        W20288   2.847   7.702  10.624  0.3247 -0.1217 -0.0088
20089W        W20289  14.180   6.427   2.678  0.0758  0.3016  0.2268
20090W        W20290  11.975   7.619  11.440 -0.0678 -0.2789  0.2354
20091W        W20291  11.923   7.090  12.251  0.3111 -0.2468  0.1358
20092W        W20292   6.453  15.057  10.113  0.0531  0.1461  0.4630
20093W        W20293  10.461   8.281   8.185  0.0007 -0.0122 -0.1081
20094W        W20294  10.751   1.758  10.748  0.1202 -0.0360 -0.1822
20095W        W20295  12.722  12.873   0.850 -0.0673 -0.0179  0.3199
20096W        W20296   9.030   8.656  14.047  0.0533  0.0558  0.1641
20097W        W20297  13.065   0.934   5.938  0.0149 -0.0318 -0.2972
20098W        W20298   0.841  13.421   1.786 -0.2972  0.0809 -0.1839
20099W        W20299   6.642  10.860   4.871 -0.0006  0.1115 -0.4260
20100W        W20300   8.717   4.216  15.018 -0.3834  0.1305  0.2635
20101W        W20301   8.176   6.982   4.467  0.2017  0.3310  0.0280
20102W        W20302  10.418   8.406   5.747  0.0974  0.0500 -0.0641
20103W        W20303   1.321   4.783   6.593 -0.2151  0.2068  0.1375
20104W        W20304   6.026   1.171   8.718 -0.0923 -0.0938 -0.2696
20105W        W20305   7.591  12.593   0.330  0.2408 -0.3751  0.2383
20106W        W20306  10.570   5.021   3.433  0.1472 -0.1188 -0.0158
20107W        W20307   5.976  10.813   9.127  0.0659 -0.0379 -0.2479
20108W        W20308   3.513   1.538   3.380 -0.1577  0.1429 -0.2926
20109W        W20309   5.778   9.241   6.553 -0.1574 -0.2600 -0.0395
20110W        W20310  13.873  15.096   5.517  0.0261  0.1882  0.0171
20111W        W20311  13.948  13.659  14.282  0.0956  0.1671  0.3716
20112W        W20312   4.488  13.632  14.894 -0.1603 -0.2890  0.0277
20113W        W20313  14.041  14.656   7.426  0.0001 -0.0651 -0.0696
20114W        W20314   3.797   0.409   5.361  0.2971 -0.1750 -0.0163
20115W        W20315   1.492   8.972  10.334 -0.3001 -0.0986 -0.0764
20116W        W20316   9.495  13.805   6.589 -0.0553 -0.0672  0.0675
20117W        W20317   6.212  12.261  10.066 -0.0107  0.1174 -0.0338
20118W        W20318  11.842   3.736   4.823 -0.1028 -0.2760 -0.2522
20119W        W20319  15.081   7.784   5.928  0.0378 -0.1925 -0.1906
20120W        W20320  12.101  14.885   8.413  0.2652  0.2887  0.0436
20121W        W20321   2.973  12.548   6.886  0.1556  0.1494  0.0216
20122W        W20322   4.892   7.225   1.344 -0.0383  0.0800 -0.0342
20123W        W20323   7.224  13.736   0.714  0.3061 -0.5630 -0.1161
20124W        W20324  13.662  10.781   8.058  0.0757 -0.1920 -0.0861
20125W        W20325   1.649   7.518  10.628  0.0152  0.1923 -0.1547
20126W        W20326  15.066  12.838  13.448 -0.0486 -0.0972  0.1155
20127W        W20327  12.157   4.387   0.578  0.1184  0.0448  0.1284
20128W        W20328   6.068  11.790   9.874 -0.1214  0.0187  0.2461
20129W        W20329   4.708   4.890  14.452  0.0942 -0.1038 -0.0733
20130W        W20330   7.074   0.865   1.249  0.2601  0.1358 -0.2083
20131W        W20331  14.031   5.970   3.311 -0.2491  0.0415 -0.0339
20132W        W20332   3.150  10.964   4.956  0.4098 -0.0153  0.2611
20133W        W20333   5.622   7.408  11.175 -0.0489 -0.0886 -0.0115
20134W        W20334  12.998  11.344   8.801  0.0721  0.0146  0.3388
20135W        W20335  10.701  13.917   2.370  0.0955 -0.1964  0.0107
20136W        W20336   9.732  13.767   0.727  0.1948  0.2118  0.1001
20137W        W20337  10.490   9.685   9.524  0.1055 -0.0859  0.0074
20138W        W20338   9.426  14.016  11.033  0.1023 -0.1287  0.0229
20139W        W20339   7.191  10.370  11.679 -0.0467  0.1836  0.2060
20140W        W20340  14.702   2.506  10.958  0.3122 -0.0799  0.3385
20141W        W20341   0.363   0.110   9.206 -0.0516  0.0765 -0.0176
20142W        W20342   7.046  14.793   1.858  0.0451 -0.5148 -0.1364
20143W        W20343   0.028  13.176  11.081  0.2064  0.2238 -0.1615
20144W        W20344   6.020  12.718  14.331  0.0795 -0.0555 -0.1035
20145W        W20345   5.325   7.938   7.202  0.0540 -0.0076 -0.1756
20146W        W20346  14.405   6.869   6.981  0.1921  0.0021 -0.1936
20147W        W20347   9.867  12.551  14.943  0.2849  0.0469 -0.0913
20148W        W20348  11.721   5.344   2.273  0.0585  0.1246  0.0843
20149W        W20349  14.415   2.577   5.281 -0.3251 -0.3002 -0.3464
20150W        W20350  11.854   1.985   4.931  0.0827 -0.0278  0.1168
20151W        W20351  13.567   5.251   9.362 -0.1270 -0.0334  0.3764
20152W        W20352   5.824   8.940   2.009  0.1709 -0.2662  0.1598
20153W        W20353   4.556  12.657  14.146 -0.2947 -0.0771 -0.0813
20154W        W20354   6.570   0.482   6.674  0.1491 -0.0990  0.2021
20155W        W20355   3.589   1.062  13.954  0.1015 -0.1381 -0.0600
20156W        W20356  14.570  13.620  12.362  0.0014  0.0625  0.0146
20157W        W20357   5.077   3.532   9.592 -0.1394 -0.5407 -0.4729
20158W        W20358  11.682  13.623   2.189  0.1888 -0.0059 -0.2006
20159W        W20359   5.992  13.357  11.850 -0.0332  0.0522  0.0838
20160W        W20360   9.623   7.273   3.399 -0.3703  0.3376  0.1549
20161W        W20361   7.777   9.936   9.731 -0.2373 -0.0045  0.0388
20162W        W20362   8.491  10.098  13.557  0.4098 -0.1139  0.0635
20163W        W20363   2.304   6.066  13.252 -0.1637 -0.2219 -0.2393
20164W        W20364  12.382   3.697  13.844 -0.2944 -0.0819 -0.1707
20165W        W20365   0.189  13.530   4.485 -0.2027 -0.1053  0.3985
20166W        W20366   3.967  13.702   7.290  0.0002 -0.1009 -0.0659
20167W        W20367   2.517  11.172   9.342  0.0984 -0.2523  0.2267
20168W        W20368   0.181   7.555  11.122  0.3458 -0.1260  0.2566
20169W        W20369   5.585  14.368   8.356  0.1043  0.2983  0.0381
20170W        W20370   1.982  13.384  13.539  0.2374  0.1543  0.1960
20171W        W20371  10.704  10.808   1.596 -0.0942 -0.0225  0.0737
20172W        W20372   8.043  15.127   7.256 -0.1654 -0.2507  0.3298
20173W        W20373   8.509  14.519  13.179 -0.1030  0.1574 -0.5474
20174W        W20374   6.306   3.619   2.900  0.1250 -0.3167  0.1512
20175W        W20375   3.007  12.090  10.682 -0.0678  0.2571  0.2401
20176W        W20376  11.734  14.375   8.342 -0.0915 -0.0934 -0.0442
20177W        W20377  12.630   7.403   6.354 -0.0556 -0.0642 -0.0347
20178W        W20378   0.910   0.824  14.189 -0.1585 -0.5222 -0.0579
20179W        W20379   5.388   9.667  13.453  0.5989  0.1509 -0.0284
20180W        W20380   9.651   6.631  14.639  0.0133  0.1799  0.0639
20181W        W20381   9.562  10.795   7.318  0.0962  0.2446 -0.2413
20182W        W20382   3.120   8.852  11.939  0.2329 -0.2012 -0.0537
20183W        W20383  10.873   9.231  11.383  0.0928  0.0451 -0.1732
20184W        W20384   5.050   5.657   1.902 -0.4048  0.2414  0.0118
20185W        W20385   8.953   0.237   2.954  0.1517 -0.0959 -0.0868
20186W        W20386   0.557   9.269  14.174 -0.2512  0.0739 -0.2523
20187W        W20387   9.047  14.259  14.163 -0.1162  0.1865  0.3595
20188W        W20388  15.119  14.341   3.721 -0.2952 -0.2286  0.1000
20189W        W20389  14.656   8.703  10.662  0.0771 -0.0160 -0.0675
20190W        W20390   6.044   6.823   8.675 -0.1253  0.0473 -0.0033
20191W        W20391   1.947   7.513  13.935 -0.0640 -0.2060  0.0015
20192W        W20392   1.949  11.757  13.885  0.0995  0.1495 -0.2114
20193W        W20393   6.023   3.145  10.615 -0.1009 -0.0858 -0.2575
20194W        W20394   4.780   1.335   5.073 -0.0426 -0.4577 -0.1010
20195W        W20395  11.729   7.276  12.702  0.2477 -0.1339 -0.1752
20196W        W20396   8.943  11.083  12.402 -0.0518 -0.1691 -0.1478
20197W        W20397   9.283  13.916  12.463  0.0874 -0.0584  0.0095
20198W        W20398   9.421   8.819   6.897 -0.0054  0.1897 -0.0247
20199W        W20399  14.699  11.434  12.997 -0.0422 -0.1692 -0.1001
20200W        W20400  10.348   2.568   0.383 -0.1819  0.1189  0.0148
20201W        W20401   0.485   0.711   0.137  0.0635  0.1398  0.0090
20202W        W20402   5.072   8.893   7.302  0.0755 -0.2963 -0.3829
20203W        W20403  13.799  10.957   6.092 -0.2309 -0.1066 -0.1400
20204W        W20404   8.943  11.540   5.958  0.3459 -0.0574  0.1186
20205W        W20405   7.968  11.236  10.387  0.1752 -0.0461  0.1939
20206W        W20406   4.163  11.357   7.924 -0.5709 -0.0618  0.2216
20207W        W20407  10.228   6.728  12.063 -0.2894 -0.0686 -0.1905
20208W        W20408   2.312   8.588  10.526 -0.0839 -0.3141 -0.1248
20209W        W20409  11.420  10.403  14.997 -0.1395  0.0289  0.0794
20210W        W20410   3.235  13.009  13.465 -0.0938 -0.0353 -0.1050
20211W        W20411  10.186   7.932  12.612  0.0896  0.3655 -0.0066
20212W        W20412  14.903   9.104  11.055 -0.0908 -0.1607  0.1496
20213W        W20413   2.977  13.501  13.656 -0.2348  0.0464 -0.1969
20214W        W20414   5.241  10.198   7.433  0.2510 -0.0284  0.1555
20215W        W20415   0.465   8.448   3.615  0.1770  0.2423  0.1504
20216W        W20416   7.282  11.400   3.708  0.1499 -0.2322  0.1340
20217W        W20417   8.860   6.851   2.403 -0.2163  0.1444 -0.1290
20218W        W20418  10.535  12.864   7.560 -0.1304 -0.0585  0.0897
20219W        W20419   7.388  10.474  10.458 -0.1176 -0.2040 -0.1213
20220W        W20420  10.938   6.047  12.462  0.1457  0.1306  0.0139
20221W        W20421  13.358  14.755   7.268  0.0782 -0.2740 -0.2829
20222W        W20422   2.034  12.958  15.058 -0.1116  0.1236 -0.4759
20223W        W20423   2.087  13.340  13.024 -0.0188 -0.2460 -0.2012
20224W        W20424   6.456   3.615  12.722  0.1077  0.0466 -0.1559
20225W        W20425   4.212   9.671  10.697 -0.1882 -0.3598  0.1436
20226W        W20426   4.504   2.551   1.847  0.2143 -0.1703 -0.0179
20227W        W20427  14.892  14.245   1.423 -0.2251 -0.1790 -0.1666
20228W        W20428   2.840   7.881  10.049 -0.1601 -0.3687 -0.0071
20229W        W20429   0.153   9.971  10.722  0.0798 -0.0032  0.0838
20230W        W20430  11.327  13.198   2.046  0.0188 -0.2098  0.0378
20231W        W20431  11.624   1.705   4.163  0.1610  0.1350 -0.1210
20232W        W20432  12.688   9.534   8.152  0.0520  0.0549 -0.3213
20233W        W20433   1.898   4.671   3.598  0.1843 -0.1827 -0.0889
20234W        W20434   6.821  13.742  11.290 -0.1182 -0.1047  0.2894
20235W        W20435  13.231   4.516  15.013 -0.1804  0.0649  0.0203
20236W        W20436   9.715   9.901  13.043  0.1925  0.0208 -0.1892
20237W        W20437   4.815   3.628   5.724  0.0080  0.0010 -0.2664
20238W        W20438  11.168  10.704  10.233 -0.2015 -0.2299  0.0836
20239W        W20439   7.825  14.310  13.135 -0.1446 -0.2181 -0.1725
20240W        W20440   6.601   4.208   3.899  0.0259  0.1966 -0.2637
20241W        W20441   7.347   1.870   9.519  0.0113 -0.1478 -0.0158
20242W        W20442   9.613   3.476   4.758  0.2328  0.0069  0.2775
20243W        W20443   3.698  11.397   0.209  0.1663  0.1987 -0.0464
20244W        W20444  10.056  11.097   2.750 -0.3915 -0.2122 -0.4181
20245W        W20445   7.575  12.763  12.341 -0.1267 -0.5391  0.2511
20246W        W20446  10.020  10.276  12.916  0.1446  0.0439 -0.0316
20247W        W20447   2.401  13.102  13.370  0.0731  0.2663  0.2590
20248W        W20448   6.220   8.959  13.128 -0.3426 -0.0951 -0.0839
20249W        W20449   6.056   6.936  12.211 -0.3441 -0.0578 -0.2091
20250W        W20450   7.225  11.572   8.852  0.3471  0.0236 -0.2573
20251W        W20451   7.796   1.056  12.629  0.3407 -0.1106 -0.2040
20252W        W20452  14.369   7.955  14.997  0.2810  0.0125  0.1996
20253W        W20453  10.259  12.608  10.934  0.0526  0.1574 -0.0241
20254W        W20454   8.425  12.945   5.087  0.2401  0.0681 -0.2301
20255W        W20455  12.205   2.024   2.032  0.1048  0.2559 -0.0004
20256W        W20456   8.973  13.556  13.891  0.0658  0.0131  0.0761
20257W        W20457  12.676   5.669  12.736  0.2094  0.0648 -0.1827
20258W        W20458   6.883  12.255   6.733 -0.2269  0.1068 -0.0994
20259W        W20459   2.387  11.334   1.591 -0.1007 -0.0240  0.1157
20260W        W20460   6.651  12.617   0.061  0.3187  0.1128  0.1175
20261W        W20461  12.758  10.081  12.704 -0.0637  0.0836  0.0834
20262W        W20462  12.592   8.324  12.558  0.0446 -0.0355 -0.2502
20263W        W20463   2.543  12.415   8.591 -0.0976 -0.1380 -0.1729
20264W        W20464   8.805   0.225   4.331  0.0286 -0.0209 -0.0217
20265W        W20465   4.273  14.128  13.122 -0.0946 -0.0830  0.4617
20266W        W20466  13.474   8.312  14.811  0.0287  0.0470  0.0300
20267W        W20467   7.208  10.010  14.510  0.1614  0.1537  0.0061
20268W        W20468   8.891   7.681  12.259 -0.1321  0.2112 -0.1261
20269W        W20469   6.476  13.456  12.023  0.1853  0.2528 -0.1524
20270W        W20470   2.425   7.764  12.999  0.0401  0.0783 -0.0217
20271W        W20471  14.588  11.639   2.979  0.0022  0.2106  0.0350
20272W        W20472  11.280   0.108  14.015 -0.0890 -0.0015 -0.0345
20273W        W20473   7.868   8.157   2.703 -0.0226  0.2076  0.1972
20274W        W20474  13.690   1.777  14.937  0.1921 -0.0549  0.0868
20275W        W20475  10.031   9.584   3.857  0.1765 -0.1815 -0.0359
20276W        W20476   1.777   1.020   3.005 -0.0796 -0.1449 -0.2941
20277W        W20477   8.695   7.406   0.958 -0.0274  0.4195 -0.2493
20278W        W20478  14.661   0.704  12.186 -0.2612  0.0823 -0.0397
20279W        W20479  10.776   0.840   1.381  0.1158  0.0097 -0.2415
20280W        W20480   7.099  10.059   7.441 -0.1431 -0.2634 -0.3419
20281W        W20481   7.337   9.936   6.061 -0.1802  0.2312  0.0753
20282W        W20482  12.792   7.166   0.892 -0.3513 -0.0887 -0.1081
20283W        W20483  13.035   8.373   6.226  0.2178 -0.1030  0.1867
20284W        W20484   0.665  11.625  13.462  0.0491 -0.2943  0.1189
20285W        W20485   2.448   3.532   1.019 -0.1564 -0.1588  0.0280
20286W        W20486   7.309  14.765   3.579 -0.3306 -0.4294 -0.0083
20287W        W20487  13.558   7.548   9.037 -0.2612 -0.2443  0.0962
20288W        W20488   0.722   0.286  10.633 -0.1610 -0.2522  0.2395
20289W        W20489   3.318   9.165  13.370  0.2752  0.0670 -0.1565
20290W        W20490   6.077  15.019   9.239 -0.1608 -0.2605  0.1245
20291W        W20491   0.385   0.910   9.971 -0.0039  0.0185  0.1002
20292W        W20492   4.788  10.713   2.772  0.0108  0.1143 -0.0281
20293W        W20493  13.511  10.715   2.356 -0.0117  0.1666 -0.1881
20294W        W20494  10.385  13.009   1.557  0.5321 -0.0861  0.2164
20295W        W20495   6.848  13.609   3.597  0.0318 -0.0909 -0.2277
20296W        W20496  13.599  11.155  15.182  0.1704  0.0406  0.3269
20297W        W20497   2.761   8.547   7.397 -0.1889  0.0443 -0.2676
20298W        W20498   3.091   6.259  12.835 -0.0135  0.1970 -0.2208
20299W        W20499   0.816   7.781  14.029  0.0737  0.0023 -0.0154
20300W        W20500  12.879  13.667   0.269  0.2644  0.2148  0.0237
20301W        W20501   0.551  11.378   7.992  0.1298 -0.2338  0.0318
20302W        W20502   9.312  10.878   7.824  0.0091  0.0329 -0.0244
20303W        W20503   6.136  11.586   6.707  0.1676  0.0846  0.1779
20304W        W20504   1.998   9.817  10.351  0.1991 -0.0186 -0.2169
20305W        W20505  12.036  11.051   6.853  0.1211  0.1523 -0.0194
20306W        W20506   4.077  13.032  10.130  0.1487 -0.1317 -0.3121
20307W        W20507   7.119   9.443   0.239  0.0547 -0.1857 -0.1241
20308W        W20508  11.164   6.097  14.620 -0.0183  0.0457 -0.1213
20309W        W20509   5.150  12.644  11.847  0.0375  0.0406  0.1522
20310W        W20510   8.167  12.121   3.989  0.1994  0.1113  0.2656
20311W        W20511   0.067  12.085  10.023  0.0775  0.0031  0.0686
20312W        W20512  12.733   9.782  14.194 -0.3705  0.0010 -0.2279
20313W        W20513   4.634   8.650   7.332 -0.0109  0.0106 -0.0234
20314W        W20514   4.769   8.321   0.184  0.0426  0.0439 -0.1417
20315W        W20515   9.215  10.792   4.749 -0.0303 -0.1223 -0.0841
20316W        W20516   9.363   3.378  10.917  0.0450 -0.4082  0.1692
20317W        W20517  11.672  10.582   3.177  0.0759 -0.0753 -0.0003
20318W        W20518  10.544  11.777  12.317 -0.0906  0.2095 -0.0904
20319W        W20519  10.256  13.100   1.083 -0.1320 -0.1847 -0.3195
20320W        W20520   6.361   6.149   9.315 -0.0220  0.1223 -0.0054
20321W        W20521  11.892   0.698   3.191  0.1636 -0.2901 -0.0146
20322W        W20522   2.107   1.057   8.326  0.0119 -0.2181 -0.1410
20323W        W20523  12.937  13.803   3.357 -0.3541 -0.3003 -0.2057
20324W        W20524   1.597  11.337  14.380 -0.0317  0.0811  0.1561
20325W        W20525   1.388   0.134  13.228 -0.2768 -0.1000 -0.0155
20326W        W20526   4.860   7.015  10.724 -0.0265  0.0804  0.0060
20327W        W20527  10.931  12.262  13.560 -0.0947 -0.0269 -0.0376
20328W        W20528  10.646   3.277   6.255  0.3113  0.5053 -0.1208
20329W        W20529   0.164   8.045   7.250  0.1451  0.0904  0.1726
20330W        W20530   6.410   6.550   1.721 -0.0134 -0.1025 -0.0471
20331W        W20531   5.466  11.638  12.359 -0.2226 -0.2083 -0.1804
20332W        W20532  11.298   3.684  15.024 -0.0088 -0.0595  0.0225
20333W        W20533   8.340  11.070   8.683  0.2418  0.3253  0.3521
20334W        W20534  12.798  11.492  11.829  0.2289 -0.2206 -0.1542
20335W        W20535  11.173   2.063   7.383  0.1232  0.0086  0.0254
20336W        W20536   7.396  12.240  12.203  0.1199  0.0654 -0.1030
20337W        W20537  10.785  12.197  10.672 -0.1969 -0.2526  0.1429
20338W        W20538   4.958   6.017   5.993 -0.1729  0.0433 -0.2415
20339W        W20539  13.441  13.719  13.674 -0.2391  0.1411 -0.3546
20340W        W20540   0.119   6.496   2.370 -0.1184 -0.1475  0.0142
20341W        W20541  11.840  13.320  14.466  0.1217  0.2938  0.1163
20342W        W20542  13.139  12.737   8.163 -0.2816  0.2578  0.0697
20343W        W20543  11.684   2.274  11.053  0.1902  0.1346  0.2080
20344W        W20544  13.389  10.044  12.369 -0.3040  0.1695  0.0026
20345W        W20545   3.868  11.640   9.299 -0.0384 -0.0056  0.0984
20346W        W20546  14.860   2.970   1.639  0.1161  0.2493  0.3226
20347W        W20547   6.647   4.684   6.340  0.0273 -0.2391 -0.1274
20348W        W20548   3.692   5.092   7.187 -0.1398  0.1983 -0.0766
20349W        W20549   7.050   5.836   8.642 -0.2053  0.2672 -0.1225
20350W        W20550  12.232  15.008   5.024  0.4409 -0.2039 -0.1506
20351W        W20551   8.846   0.612  14.528  0.0247  0.2635 -0.0990
20352W        W20552   4.841  10.166  14.513  0.0176  0.2621  0.2306
20353W        W20553   7.296   8.974   0.665  0.2165 -0.0653 -0.1661
20354W        W20554   9.868   9.332  10.928 -0.6240 -0.1372 -0.3804
20355W        W20555   9.761   1.845   0.449  0.0763  0.0075  0.1748
20356W        W20556  12.067  13.565  10.463  0.1829 -0.2872 -0.0893
20357W        W20557   8.003   8.087   2.086 -0.1695 -0.0551  0.1218
20358W        W20558   3.172   2.284  13.449  0.2112 -0.0573 -0.3662
20359W        W20559  12.524   8.710  10.922  0.0112  0.0828 -0.0924
20360W        W20560  10.162  10.266   3.467  0.1850  0.0724 -0.2495
20361W        W20561   4.017  10.718   3.844 -0.1952  0.1912  0.0520
20362W        W20562   3.028  14.703  12.070  0.1561 -0.1048  0.1840
20363W        W20563  12.046  13.847   0.022  0.0834 -0.2699  0.1978
20364W        W20564  14.100  14.178   6.565  0.0361  0.1888 -0.0602
20365W        W20565   0.415  10.179   3.727  0.0411 -0.3160  0.1764
20366W        W20566   4.895   9.581   9.311  0.1653  0.2361 -0.2149
20367W        W20567  12.476  12.446  14.377 -0.1415  0.2657 -0.2201
20368W        W20568  13.747  13.953   3.966  0.2387 -0.2604 -0.1287
20369W        W20569  14.064   5.222  10.687  0.0489 -0.0760  0.1348
20370W        W20570   0.928   1.017   5.457  0.0270 -0.1152 -0.1871
20371W        W20571   8.713   6.109  12.540  0.0422 -0.1398 -0.0590
20372W        W20572  13.624   6.490  13.547  0.0026 -0.1488 -0.2755
20373W        W20573  12.953   8.816   4.632 -0.1246  0.1228 -0.1822
20374W        W20574   9.172   0.868  11.323 -0.0418 -0.0225  0.0469
20375W        W20575   5.069   4.155   7.087  0.0284  0.0133  0.1626
20376W        W20576   3.229   9.298   6.336  0.2068 -0.4255  0.0206
20377W        W20577   6.033  12.105   2.687 -0.1100 -0.2876 -0.0474
20378W        W20578  13.735  13.892   3.434  0.4270  0.2018  0.2684
20379W        W20579   6.257   2.031  13.471 -0.1621 -0.1837  0.0676
20380W        W20580   1.880   0.848   2.111 -0.0666  0.0956  0.1351
20381W        W20581   3.350   6.131  12.445 -0.1227 -0.2354 -0.3266
20382W        W20582   0.387   9.245  12.816  0.1851 -0.0227  0.5492
20383W        W20583  14.866   7.643   9.586  0.1336  0.1375 -0.0130
20384W        W20584   7.688  12.475   5.570  0.0877  0.2764  0.2330
20385W        W20585  12.856  10.288  14.341  0.2021 -0.2119 -0.2451
20386W        W20586   9.481  11.926  11.308 -0.0338 -0.3003 -0.0538
20387W        W20587   7.503   4.665   1.947 -0.2290 -0.2036  0.1314
20388W        W20588  12.069  13.574   5.537  0.0346  0.1028  0.2448
20389W        W20589   5.259   3.436   5.787  0.1300  0.1046 -0.1763
20390W        W20590   7.755  13.864  14.039 -0.0039 -0.1310 -0.0003
20391W        W20591  14.003  13.984   1.331 -0.0798 -0.0686 -0.2928
20392W        W20592   8.942  12.621   6.855  0.1207 -0.2948  0.1630
20393W        W20593   4.263   5.449  13.517 -0.0349 -0.0786 -0.0150
20394W        W20594   4.117   2.758   6.619 -0.0801 -0.0396  0.0499
20395W        W20595   9.116   2.279  13.662 -0.0606 -0.0359  0.1085
20396W        W20596   7.456   5.077   4.750 -0.0019  0.3535  0.2630
20397W        W20597   3.747  12.386   7.687 -0.1548 -0.2294 -0.1214
20398W        W20598  13.176   9.143  13.977 -0.3290  0.1650  0.2118
20399W        W20599   3.124  12.097   6.359  0.4600  0.0469 -0.0312
20400W        W20600   6.606  14.291   2.733  0.1265 -0.0954 -0.2601
20401W        W20601  14.173   8.025  14.409  0.0849  0.3309 -0.2177
20402W        W20602   4.307   5.516   3.172 -0.4572 -0.0542 -0.2463
20403W        W20603   0.572   4.869  14.661  0.3690 -0.2636 -0.0745
20404W        W20604   6.401   3.235   9.748  0.1602 -0.0191  0.1119
20405W        W20605   9.263   5.883   9.154 -0.4756 -0.0324 -0.0055
20406W        W20606   7.173   0.185   0.113  0.2153  0.1714  0.2836
20407W        W20607  10.948   2.705   1.712 -0.1095  0.2690  0.1890
20408W        W20608  14.181   5.641   9.938  0.0340 -0.1300 -0.0214
20409W        W20609  11.347   6.481   9.514 -0.0978 -0.1348  0.0637
20410W        W20610   9.246  13.095   5.316  0.1637 -0.0866  0.0629
20411W        W20611  13.931   4.686   3.410 -0.0489 -0.2267  0.2647
20412W        W20612   7.358  14.417  13.275 -0.2231 -0.0964  0.2827
20413W        W20613   6.927   2.038  11.574 -0.1453  0.0567  0.0786
20414W        W20614   0.602   8.598   9.978 -0.1351 -0.0697  0.0733
20415W        W20615  14.839   0.534  14.368 -0.1211 -0.0678 -0.3287
20416W        W20616  14.531   2.081  12.627  0.4025  0.0470  0.1439
20417W        W20617   5.041   2.078   2.800  0.0065  0.0629 -0.1854
20418W        W20618  12.938  11.613  12.419  0.4266 -0.3260  0.2813
20419W        W20619   9.613   6.396  12.150  0.3037  0.1638 -0.1378
20420W        W20620  13.416  14.248   2.328 -0.2087  0.0361 -0.0974
20421W        W20621   1.102  11.949  12.823  0.3768 -0.1569  0.0336
20422W        W20622   3.294  12.150  11.708  0.2594 -0.1415 -0.1310
20423W        W20623   9.400  13.927   3.044 -0.1407  0.0282  0.0468
20424W        W20624   4.693   3.382   4.350 -0.2383  0.2110  0.3381
20425W        W20625   0.907   5.700  13.637 -0.3504  0.3455 -0.2856
20426W        W20626   9.061  12.222  12.967 -0.1339 -0.0185  0.1919
20427W        W20627   9.739   0.613  14.163  0.0287  0.1693  0.0651
20428W        W20628  12.331   0.907  11.332 -0.2850 -0.1391  0.3400
20429W        W20629   8.022  10.759   1.060 -0.0576 -0.3588 -0.3531
20430W        W20630  10.244  12.848  13.637  0.0046 -0.3029  0.1484
20431W        W20631   5.607   9.901   8.845  0.0606 -0.2411 -0.2752
20432W        W20632  10.260   0.464   1.265 -0.3296  0.3386  0.1296
20433W        W20633   9.514   2.616  13.931  0.0857 -0.4762 -0.2606
20434W        W20634  14.430   0.817  14.293 -0.1662 -0.4519 -0.2416
20435W        W20635   8.717   5.661   5.403 -0.1091  0.2069  0.0229
20436W        W20636  14.233   1.210  10.798  0.0799  0.0022  0.1851
20437W        W20637  10.766   4.061  10.374  0.1802 -0.2268 -0.0697
20438W        W20638   8.299   2.179   5.083 -0.1464 -0.1291  0.1231
20439W        W20639   9.204   1.692   0.677  0.0878  0.0744 -0.0063
20440W        W20640  14.692   5.604  13.884 -0.2142  0.2577 -0.0839
20441W        W20641   9.671  14.267   9.570 -0.1303 -0.1084  0.0395
20442W        W20642   5.905   1.815   7.899  0.0346 -0.3365 -0.1154
20443W        W20643   0.888  14.368   9.418  0.0658  0.1486  0.3292
20444W        W20644  14.269  11.072   2.299  0.2748  0.0658  0.0951
20445W        W20645   6.696   2.555   1.141 -0.1696  0.2695 -0.2713
20446W        W20646   1.429   3.161   9.376 -0.1765 -0.0687  0.2440
20447W        W20647  14.450   9.380   6.833 -0.2948  0.1935  0.3764
20448W        W20648   5.716  14.826   8.163  0.2874 -0.0868 -0.0982
20449W        W20649   4.591   1.468  10.807  0.0996  0.0893  0.1594
20450W        W20650   3.929  12.140   4.582  0.0119 -0.0660  0.0234
20451W        W20651   3.972  11.754   0.723 -0.3800  0.0187 -0.1838
20452W        W20652   8.041   1.033  10.425 -0.1255  0.0460 -0.0396
20453W        W20653  12.376   4.406   9.601  0.0905 -0.0319  0.3293
20454W        W20654   0.193   9.706   3.742  0.3191  0.1273  0.0956
20455W        W20655   2.732   8.612  10.760 -0.1989 -0.0909  0.3449
20456W        W20656  10.735   8.779   1.096 -0.0654 -0.1055  0.2717
20457W        W20657   2.757   9.107  12.193  0.1139  0.2860  0.1722
20458W        W20658   2.027   0.304  12.463 -0.0334  0.3810  0.1296
20459W        W20659  11.760  14.276   9.532  0.2879 -0.0451  0.0241
20460W        W20660   7.762   2.201   2.901  0.0146  0.2148  0.1260
20461W        W20661   6.747   9.201   1.516 -0.1667  0.0784 -0.0971
20462W        W20662  13.558   7.840  10.185 -0.1599 -0.0605  0.3022
20463W        W20663   6.597   2.327  13.855  0.1030  0.0875 -0.0183
20464W        W20664  13.397  11.594   5.206 -0.0426 -0.1264 -0.2360
20465W        W20665   2.199  11.022  12.515  0.2904 -0.0421  0.0553
20466W        W20666   2.622  12.439   2.511 -0.0184  0.0541 -0.0187
20467W        W20667   9.581   2.355  11.011  0.0392 -0.1028  0.3148
20468W        W20668   9.482  11.008   1.721 -0.0109 -0.0367  0.4047
20469W        W20669   4.102  12.535   4.226 -0.0265 -0.1597 -0.1191
20470W        W20670   5.244   3.260  12.208 -0.0481 -0.1319 -0.1832
20471W        W20671  11.311  14.849   6.766 -0.0377  0.0898  0.0667
20472W        W20672  12.122   9.367  14.996  0.2958  0.0735 -0.1290
20473W        W20673   8.007  13.920  12.881 -0.3618  0.1941 -0.0795
20474W        W20674  10.943   0.899   2.994  0.0832  0.0673 -0.0869
20475W        W20675  11.413  11.827   6.756  0.2983  0.2111  0.0177
20476W        W20676  13.165   2.965   3.210 -0.0595  0.2949 -0.0743
20477W        W20677   0.663   0.012  11.282  0.1566  0.0119  0.2842
20478W        W20678  10.517  13.141  10.117  0.0519 -0.0124 -0.0199
20479W        W20679   4.631  11.279   0.607 -0.2072 -0.1878  0.0455
20480W        W20680  14.384   7.441   2.946  0.1904  0.1321  0.1304
20481W        W20681   9.476  14.408  12.239  0.1514  0.2375 -0.0105
20482W        W20682  10.366  10.295  10.252 -0.0410 -0.0769  0.0462
20483W        W20683  14.313   7.900  10.860 -0.2076  0.2043 -0.2682
20484W        W20684  10.023  12.835   7.446 -0.0562  0.5735 -0.0366
20485W        W20685   0.329   3.083  11.875 -0.0126 -0.2413  0.1361
20486W        W20686   7.178   6.214  11.567 -0.0948 -0.0095  0.0311
20487W        W20687  11.980  14.224  14.682  0.3712  0.2438  0.2113
20488W        W20688  10.559   9.650   2.955  0.0674 -0.0946 -0.1252
20489W        W20689   8.205   1.083  11.728  0.1022  0.1167  0.0707
20490W        W20690   4.369  12.058   0.662 -0.0250 -0.0171 -0.1363
20491W        W20691  14.833  13.130   7.034  0.0656 -0.0642  0.0076
20492W        W20692  14.413  14.347   5.430 -0.1829 -0.0493 -0.1036
20493W        W20693  10.749   9.396   9.953  0.4047  0.0056 -0.0927
20494W        W20694  10.775  11.759   2.406  0.0588  0.1092 -0.0941
20495W        W20695   4.840  10.093   4.690 -0.1789  0.1092  0.2088
20496W        W20696   9.284   5.800  14.768  0.1168  0.1527  0.2526
20497W        W20697   4.878   2.238   9.323 -0.0497 -0.2046 -0.0123
20498W        W20698   2.110   9.538   5.247  0.2140  0.1004 -0.3015
20499W        W20699   6.102   2.658  12.953 -0.1903  0.3595 -0.3282
20500W        W20700   6.991  10.535  13.362 -0.2253 -0.0246  0.0620
20501W        W20701  11.101   1.961  15.150  0.0187 -0.1797  0.0631
20502W        W20702   5.772  14.243   1.839  0.0549 -0.2548  0.0033
20503W        W20703   2.678   1.789   7.861 -0.0680 -0.0624 -0.0734
20504W        W20704   6.353   2.837   0.239  0.1167 -0.4093  0.1291
20505W        W20705   2.803  13.293  10.567  0.0778  0.0744  0.2545
20506W        W20706  10.631   3.498   3.371 -0.2393  0.1890 -0.2333
20507W        W20707   8.838  13.319  11.916  0.1009 -0.0528 -0.0534
20508W        W20708   6.060  14.366  14.149  0.0081 -0.1158  0.1538
20509W        W20709   6.813  14.935   2.392  0.0207  0.0679 -0.3154
20510W        W20710  12.711  10.030   2.648 -0.1693 -0.0569  0.1794
20511W        W20711   5.099   4.850  13.948 -0.1725  0.2587  0.0846
20512W        W20712   4.517  11.941   5.806  0.0012 -0.0076 -0.3318
20513W        W20713  11.586   9.401   3.926 -0.1991 -0.2017 -0.2505
20514W        W20714  10.893   6.166   8.561  0.0883  0.2025 -0.3032
20515W        W20715  10.260  14.624   3.263  0.2706  0.2456  0.0494
20516W        W20716  12.311  10.452  14.414 -0.1931  0.0734 -0.2368
20517W        W20717   4.531   5.480   7.137  0.1543 -0.4307 -0.1540
20518W        W20718   7.238   9.593   1.795  0.0014  0.6096  0.1548
20519W        W20719   8.986  13.438  12.659  0.1075  0.1640 -0.0549
20520W        W20720   8.101   2.612   9.550  0.3390 -0.0040  0.0411
20521W        W20721   7.474  10.880  12.534  0.1587 -0.0675 -0.1019
20522W        W20722  14.155   5.596   5.001  0.1168  0.1992  0.1390
20523W        W20723  13.275  11.521  14.923 -0.0518  0.2672  0.2110
20524W        W20724   9.135  11.645  14.777  0.0168 -0.2169 -0.2126
20525W        W20725  12.241   4.248   0.082 -0.2304  0.1432 -0.1524
20526W        W20726  10.581   0.628   4.221 -0.0316 -0.0221  0.2397
20527W        W20727  11.431   0.991   3.839  0.2027  0.2843 -0.1651
20528W        W20728   1.233   9.565  12.746  0.0398 -0.2686  0.3722
20529W        W20729   2.819  14.213   3.239 -0.0517 -0.1258 -0.2062
20530W        W20730   8.189   2.258  14.540 -0.0491 -0.1069  0.2212
20531W        W20731  12.356   5.339   4.343 -0.0007  0.2404  0.2435
20532W        W20732   9.638  10.437  15.085  0.0265  0.1358  0.1732
20533W        W20733  10.380   0.778   2.143  0.0500 -0.4320  0.2037
20534W        W20734   8.298   4.647  12.216 -0.1975  0.0285 -0.0682
20535W        W20735   3.943  13.615  13.271  0.1902 -0.1777  0.1014
20536W        W20736   1.128   3.776  10.132 -0.3069  0.1427  0.0549
20537W        W20737  10.214  15.180   0.620  0.0502  0.1156 -0.0430
20538W        W20738   0.091   4.597  11.136 -0.0120 -0.0391 -0.1985
20539W        W20739  12.803   5.716   5.281 -0.0617  0.1843  0.0346
20540W        W20740  11.547   5.775  15.004  0.2291  0.2179 -0.2626
20541W        W20741   2.433   0.327   3.679 -0.1171  0.1393 -0.0664
20542W        W20742  12.863   2.314   6.568  0.1981 -0.1113  0.0772
20543W        W20743   3.471   1.792   2.525  0.1689  0.0344  0.0677
20544W        W20744  14.715   4.635   7.541  0.0064  0.1043  0.1490
20545W        W20745  13.944  13.726  14.840 -0.3209  0.1870  0.3907
20546W        W20746   5.239   1.151   1.443  0.2779  0.2501 -0.1754
20547W        W20747   7.617  10.351   9.417 -0.2053  0.1410 -0.1839
20548W        W20748  10.496   6.323  12.334  0.2150  0.0395  0.2210
20549W        W20749   2.758   2.424  10.515 -0.0745  0.0377  0.1067
20550W        W20750  12.951   0.813   1.267 -0.0170  0.0475  0.1822
20551W        W20751  11.373   7.439   6.244  0.3519 -0.1305 -0.1274
20552W        W20752   9.510  11.621   9.101 -0.0702 -0.3049  0.2999
20553W        W20753   3.616   8.387   0.654  0.1219 -0.2365 -0.0340
20554W        W20754  12.421   3.687   4.015  0.2064  0.3263 -0.2146
20555W        W20755   7.639   4.629   1.452 -0.2679 -0.0788 -0.0681
20556W        W20756  10.522   6.725   8.430 -0.0944 -0.0537 -0.0576
20557W        W20757   4.950  14.119   1.068 -0.1274 -0.2187 -0.0651
20558W        W20758  10.282  13.746   3.224  0.1815  0.0442  0.3493
20559W        W20759   8.082   2.858   0.454  0.0504 -0.3123 -0.0383
20560W        W20760  13.136   0.106   3.172 -0.0090 -0.1619  0.1122
20561W        W20761  12.269   0.167   8.704  0.1400 -0.1243 -0.1623
20562W        W20762   9.775   5.393   0.434  0.0823  0.3264 -0.0032
20563W        W20763   9.213   4.047   0.371 -0.0706 -0.0768  0.0873
20564W        W20764  14.791   4.229   0.186  0.2473 -0.0722  0.1197
20565W        W20765  10.044   1.110   6.200  0.3548 -0.1250  0.1767
20566W        W20766   6.099   7.668   6.744  0.1620  0.3933  0.0798
20567W        W20767   7.414  14.839   1.463  0.1277  0.0072 -0.0397
20568W        W20768   3.931  11.344  13.253 -0.2425  0.2209 -0.1350
20569W        W20769   6.651   6.424  13.846 -0.2372  0.2747  0.0268
20570W        W20770   7.118   1.610   8.642  0.0684 -0.1253  0.0499
20571W        W20771  14.284   7.612   2.488  0.2113  0.1386  0.0235
20572W        W20772   7.341   7.987   0.668  0.1133  0.1032  0.0257
20573W        W20773   1.375  12.013  11.607 -0.0278  0.1275  0.0912
20574W        W20774   7.598   2.929   2.560  0.3004  0.0276 -0.0450
20575W        W20775   7.215  10.730  12.989  0.0808 -0.1607 -0.2314
20576W        W20776  13.137   5.340   9.618  0.1217  0.1362 -0.1117
20577W        W20777   8.151  11.852  11.669  0.0960 -0.1924 -0.1443
20578W        W20778   9.324  11.161  13.745 -0.1199  0.0703  0.0514
20579W        W20779   3.083   8.208   4.708  0.0902 -0.2203 -0.0065
20580W        W20780  14.067   4.626   2.525  0.1505  0.1736 -0.0870
20581W        W20781   3.814   7.860   0.026 -0.0280 -0.4090  0.0484
20582W        W20782   8.255  14.200   9.404 -0.1044  0.1228 -0.1487
20583W        W20783   9.501  12.085   7.279 -0.2946 -0.0642 -0.1806
20584W        W20784   4.508   1.828   1.081 -0.1504 -0.1474  0.0002
20585W        W20785   5.458   3.471  14.738  0.1534 -0.2885 -0.1541
20586W        W20786   8.283  11.736  13.189  0.3373 -0.0163  0.0420
20587W        W20787   0.644  14.241  10.339 -0.0985 -0.2649  0.2836
20588W        W20788  10.013  15.178  15.050 -0.0944  0.1418 -0.0069
20589W        W20789   0.538  13.274  11.741  0.1035  0.1316 -0.2266
20590W        W20790   0.225   0.728   6.542 -0.2765 -0.2097  0.1484
20591W        W20791  11.562  11.030   6.896 -0.2165 -0.1088 -0.0315
20592W        W20792  13.404  11.456  12.607  0.0729  0.1797  0.1411
20593W        W20793  11.804   5.132   7.267 -0.1005 -0.1819  0.1788
20594W        W20794   1.600  11.893  12.889 -0.1744 -0.2767  0.3562
20595W        W20795  15.034  15.066  11.546  0.1241 -0.1206  0.0462
20596W        W20796   8.569   4.741   2.387  0.0928  0.0417 -0.2442
20597W        W20797  10.166   0.825   5.112  0.1496 -0.0693  0.2552
20598W        W20798   7.657  10.335  11.105  0.2552 -0.0649  0.2543
20599W        W20799   2.578   4.171   2.491 -0.0148 -0.1096 -0.1166
20600W        W20800  10.414   8.739   0.029  0.2108  0.0770  0.4177
20601W        W20801   1.632  15.068  10.537  0.1274  0.1216 -0.0554
20602W        W20802  10.270   4.785   3.079 -0.1536  0.0864  0.2262
20603W        W20803   1.370   6.955   0.297 -0.0839 -0.0791 -0.3401
20604W        W20804   9.689   2.019   3.809  0.1824  0.1164  0.1308
20605W        W20805   8.628  12.956   1.183 -0.3189 -0.1503 -0.0625
20606W        W20806   4.639   4.896   0.481  0.1599  0.0787 -0.1204
20607W        W20807   6.961  13.912   7.052 -0.0710 -0.1555 -0.2139
20608W        W20808   4.640   8.211  14.379  0.0213 -0.0307 -0.2306
20609W        W20809  11.057   2.317   4.791 -0.3196 -0.2414 -0.0564
20610W        W20810   9.096   8.812  10.498  0.0726  0.0652  0.1383
20611W        W20811   2.066  13.867   6.929  0.2086  0.1539 -0.4051
20612W        W20812   5.648  14.167   4.271 -0.0739 -0.0229  0.0092
20613W        W20813  11.607   1.158   4.263 -0.3313 -0.0926 -0.1074
20614W        W20814   9.617   9.641   5.545 -0.3211 -0.0544  0.1450
20615W        W20815  12.490   8.385   2.220  0.1550  0.0661 -0.1277
20616W        W20816   8.230   1.544   0.193  0.0323 -0.2196 -0.0289
20617W        W20817   9.930  14.246   0.882  0.0696 -0.2039 -0.2818
20618W        W20818  11.348  14.800  10.210  0.0148 -0.1356  0.1231
20619W        W20819   6.855  15.005   7.793 -0.1801 -0.1762 -0.2365
20620W        W20820  10.315   3.804  13.357 -0.1846 -0.2723 -0.0521
20621W        W20821   1.663   2.838   8.060 -0.2426 -0.2682  0.1205
20622W        W20822   4.263   1.881  11.127 -0.0981 -0.2827 -0.0584
20623W        W20823   3.534  11.326  10.237 -0.0966 -0.0436  0.1761
20624W        W20824   4.090   5.396   5.072 -0.2479 -0.1295  0.0546
20625W        W20825   0.565  13.281  13.834  0.0650  0.1605  0.2978
20626W        W20826   6.719  14.027   5.435 -0.0328 -0.0005 -0.2368
20627W        W20827  15.182   1.401   2.167 -0.0779 -0.0871  0.3097
20628W        W20828   3.459  10.964   7.052  0.3248 -0.3461  0.1161
20629W        W20829   7.802  11.936   4.324  0.3103 -0.0760 -0.3855
20630W        W20830   1.739   6.080   4.664 -0.0521  0.2867  0.1945
20631W        W20831  12.220   1.844   9.949 -0.1633  0.0433  0.1004
20632W        W20832   1.513  11.160   8.373 -0.0209 -0.0599 -0.2214
20633W        W20833   0.598   5.075   6.508  0.0786  0.1601 -0.0402
20634W        W20834  11.539   0.400   4.079 -0.1165  0.2809  0.0600
20635W        W20835   1.789   1.855   0.754 -0.1987  0.0960 -0.5463
20636W        W20836   9.430   5.125  12.148  0.1120 -0.2848  0.0395
20637W        W20837  12.382   4.303   1.169 -0.0659 -0.2193 -0.0800
20638W        W20838   2.496   1.535   1.289  0.0377 -0.0456 -0.4982
20639W        W20839  12.270  10.180   4.479  0.2730 -0.4667 -0.1965
20640W        W20840   9.413  10.881  14.961 -0.0067  0.0139  0.1739
20641W        W20841  14.430   5.748   6.687 -0.2919  0.1201  0.0569
20642W        W20842  14.470   1.175   0.693 -0.2270 -0.1048  0.1483
20643W        W20843  10.335   1.637   3.138  0.1562  0.1573  0.2241
20644W        W20844  11.801   0.764  14.572 -0.0112 -0.0467  0.1345
20645W        W20845   5.798   9.203   0.983 -0.0800  0.0324 -0.2718
20646W        W20846   0.328   1.910   0.818 -0.0019  0.0104 -0.1935
20647W        W20847   0.096  13.138  14.129 -0.0543 -0.0233  0.0043
20648W        W20848  11.263   9.807   9.048  0.1493  0.0160  0.1488
20649W        W20849   3.635   7.038  10.376 -0.0374  0.2946 -0.0482
20650W        W20850  13.530   3.432  14.224 -0.1746 -0.1152  0.0251
20651W        W20851  13.534  14.225   6.110  0.2351  0.1462  0.0378
20652W        W20852   7.548   2.038  13.968 -0.1501  0.0030  0.2661
20653W        W20853  13.195   6.703   2.214 -0.1307  0.3372 -0.1307
20654W        W20854  10.367   3.244   9.823 -0.1355  0.0396  0.2800
20655W        W20855  10.479   8.131   9.834 -0.1054 -0.1776  0.1691
20656W        W20856   4.868  10.893  11.945 -0.1004 -0.0038  0.0747
20657W        W20857   8.608  14.267   5.482 -0.0783  0.2185  0.3231
20658W        W20858   5.865  13.654   7.378 -0.0689 -0.3518  0.3648
20659W        W20859   2.637  13.660   1.809 -0.3207 -0.0801 -0.0852
20660W        W20860   1.330  12.049  13.696 -0.1810 -0.3225 -0.2519
20661W        W20861   6.519   3.043   1.169  0.0378 -0.3147  0.2271
20662W        W20862  13.878   3.677   7.228  0.0075  0.0611  0.1297
20663W        W20863  15.119   3.641   4.890 -0.0022  0.0830  0.0205
20664W        W20864   7.194  11.738  10.795 -0.0856  0.2115  0.1055
20665W        W20865   8.831   4.976   4.210  0.0111 -0.2100 -0.1305
20666W        W20866   8.796  13.846   4.236  0.1350  0.2585 -0.0535
20667W        W20867  14.740   1.110  10.794 -0.0555 -0.0214 -0.0982
20668W        W20868   4.872   7.386  11.618  0.3168  0.0032 -0.0312
20669W        W20869   7.352   4.177   5.114  0.2019  0.1655 -0.3667
20670W        W20870   5.118  10.801  10.624  0.0111 -0.0095  0.0363
20671W        W20871  13.968   3.210  11.140 -0.3630 -0.0003 -0.1301
20672W        W20872   8.855   4.936   8.838 -0.0528 -0.0567 -0.2939
20673W        W20873  10.865   4.703   5.987 -0.1619  0.0356 -0.1917
20674W        W20874   8.184   9.902   8.414 -0.2293 -0.3845  0.0603
20675W        W20875   7.383  14.788   2.343 -0.1423 -0.0339 -0.0758
20676W        W20876   4.288   0.252   9.198  0.0852 -0.1791  0.1321
20677W        W20877   6.952   2.719   3.837 -0.1211  0.0858  0.0989
20678W        W20878   4.785   7.046   3.818  0.1333  0.2871 -0.0213
20679W        W20879   7.716  14.706   9.707  0.2151  0.1820  0.0211
20680W        W20880   3.432   2.577  10.034 -0.2380 -0.1306  0.1957
20681W        W20881   7.303   9.659   8.820 -0.1959 -0.0432  0.4147
20682W        W20882   3.261   2.604   0.653  0.1822 -0.1106  0.2627
20683W        W20883   3.248  11.398  14.115  0.3358  0.0885  0.1267
20684W        W20884   6.039   5.585   1.499 -0.3116  0.3420  0.2003
20685W        W20885   3.867  10.615   5.865  0.1644 -0.0349  0.0906
20686W        W20886   1.358   0.229   0.155 -0.0488 -0.1688 -0.0207
20687W        W20887   5.599  11.923   7.809 -0.1428 -0.0486 -0.0251
20688W        W20888   8.246  10.842  11.672 -0.3350 -0.0672  0.0663
20689W        W20889  11.012   7.174   8.402 -0.2092 -0.1459 -0.0100
20690W        W20890   4.391   8.640   2.579 -0.2618  0.1292 -0.2097
20691W        W20891  14.466   4.592   4.022  0.0770 -0.0243 -0.0828
20692W        W20892  10.758  14.418  14.584  0.1642  0.0459 -0.3357
20693W        W20893   6.243   1.563   5.627  0.1952  0.0614 -0.0043
20694W        W20894  12.482   1.694  12.003 -0.2972 -0.0426 -0.0482
20695W        W20895  12.887  14.327   2.546  0.1976 -0.0644 -0.1658
20696W        W20896  12.880   6.062   4.479 -0.0354  0.1435  0.0732
20697W        W20897   3.256   4.885   7.742 -0.0530 -0.0936  0.2379
20698W        W20898   0.245  13.260   4.068  0.1080 -0.2214  0.0857
20699W        W20899   8.990  10.977  12.972 -0.0603  0.1904 -0.1349
20700W        W20900   7.591  15.084   5.158  0.2867  0.1735  0.0655
20701W        W20901   4.524  14.776  10.911 -0.0053 -0.0534  0.2503
20702W        W20902   7.957   2.136   5.868 -0.0625 -0.3641 -0.2891
20703W        W20903  10.755   2.066   8.213 -0.0006  0.2635  0.1273
20704W        W20904   4.866   5.293   5.304 -0.1092 -0.0763 -0.2207
20705W        W20905   7.605   8.897   8.870  0.1531 -0.1801 -0.1397
20706W        W20906   7.206  13.555  10.811  0.3385  0.0677 -0.1057
20707W        W20907   0.648   8.394   4.468 -0.0060  0.1088  0.0126
20708W        W20908   6.888   3.427   4.176 -0.0011  0.1038  0.2306
20709W        W20909  14.478  13.094   2.596 -0.0272 -0.0147 -0.1068
20710W        W20910   7.612   2.588   4.918 -0.1829  0.3991  0.2342
20711W        W20911   1.853   8.050   4.816 -0.0457  0.2163  0.1730
20712W        W20912  11.295   0.585  12.550  0.2802 -0.1848  0.1371
20713W        W20913  15.169  12.972  12.876 -0.3394 -0.2768 -0.0032
20714W        W20914   2.026  13.655   5.295 -0.0110 -0.0093  0.2175
20715W        W20915   3.376  11.124   6.514  0.0700 -0.2341 -0.2362
20716W        W20916   0.038   2.330   0.963  0.0210 -0.1369  0.0575
20717W        W20917   4.595   4.691   2.775  0.0311  0.1163  0.1858
20718W        W20918  11.717   2.802   2.750 -0.3570 -0.0928 -0.3039
20719W        W20919   5.273   9.296   0.324  0.3256  0.0845  0.0477
20720W        W20920   3.907   2.569  10.110 -0.2369 -0.0332  0.6364
20721W        W20921   5.995   5.322   3.206 -0.0105  0.0671  0.3367
20722W        W20922  12.979   5.555   5.862 -0.0859 -0.1921 -0.0175
20723W        W20923  12.039  14.389  12.821 -0.0970 -0.1423  0.0689
20724W        W20924  12.776  10.992  11.643  0.2244 -0.1861  0.3381
20725W        W20925  12.848   1.502  15.100  0.0487  0.4405  0.2654
20726W        W20926   4.452  14.493   7.456 -0.2517  0.4586  0.1120
20727W        W20927   5.855   2.283  10.719  0.0770 -0.1100  0.1966
20728W        W20928   1.707   3.300   9.933  0.0855  0.1057 -0.2689
20729W        W20929   9.016   3.130   1.601 -0.1855  0.2268  0.3940
20730W        W20930   1.687  14.469   4.998  0.2027 -0.1596  0.0892
20731W        W20931  10.046   9.271  12.248 -0.1322  0.3150  0.1324
20732W        W20932   6.059   3.330  12.622  0.2999 -0.0927  0.1381
20733W        W20933   3.638   3.188  14.635  0.1054  0.0773 -0.1287
20734W        W20934   9.523   4.227   6.464  0.2987 -0.0906  0.0505
20735W        W20935  12.987  14.382   8.962  0.4978  0.0747 -0.2244
20736W        W20936   8.169  13.372  14.565  0.2091  0.4040 -0.0164
20737W        W20937   8.761   0.940   4.338 -0.0083  0.0761  0.1618
20738W        W20938  13.060  14.738   1.540  0.4403  0.0043 -0.0548
20739W        W20939  11.714   9.493   0.031  0.0023 -0.1241  0.2097
20740W        W20940   9.917   0.605   3.721  0.0621  0.0379  0.3179
20741W        W20941   4.501   8.613  11.913 -0.2523  0.0434 -0.0189
20742W        W20942   9.907   0.746   1.052 -0.1615  0.0540 -0.0005
20743W        W20943   9.013   1.016   3.388  0.1158 -0.0295 -0.0918
20744W        W20944  14.308  12.844   6.755  0.0724  0.2873 -0.2492
20745W        W20945   1.070  14.552  11.891  0.1486 -0.0329 -0.1184
20746W        W20946   0.317   5.608  11.080 -0.0743 -0.2086  0.0151
20747W        W20947  11.248  10.626   6.086 -0.0130  0.0137 -0.0749
20748W        W20948   1.204   0.858   8.120  0.1065  0.1517 -0.0188
20749W        W20949   6.412   8.332   3.907  0.1294 -0.0093  0.0021
20750W        W20950   8.558  12.192   8.159 -0.1182  0.1247  0.3035
20751W        W20951  14.048  11.079   8.028  0.0397  0.0968  0.1467
20752W        W20952   2.215   9.321   8.929  0.1483  0.0450  0.2690
20753W        W20953   5.967  10.403   6.260 -0.1214  0.0124  0.0689
20754W        W20954   1.758  13.397  14.831 -0.0519 -0.0442 -0.1775
20755W        W20955   5.953   1.639   1.190 -0.0125 -0.0500  0.1143
20756W        W20956   1.069   0.126   9.922 -0.1363 -0.0652  0.1445
20757W        W20957   6.050  11.376  14.558  0.5130  0.1362  0.0100
20758W        W20958   9.012   0.525  12.606  0.2781 -0.0447  0.1212
20759W        W20959  13.538  13.843  11.460 -0.0958 -0.1028  0.1025
20760W        W20960   7.133  11.431   0.974 -0.1245 -0.0665  0.1159
20761W        W20961   8.769   4.194   7.790 -0.2086 -0.0464 -0.2537
20762W        W20962   8.759   2.186   1.311  0.4854  0.0403 -0.1101
20763W        W20963   6.561  12.018   2.691  0.0145  0.2255 -0.1956
20764W        W20964   3.948   9.612   0.117  0.2961  0.2823  0.0318
20765W        W20965  13.755  13.420  11.356  0.2103 -0.0414 -0.0160
20766W        W20966   3.013  13.896  10.001 -0.1357 -0.0500  0.0618
20767W        W20967   9.005  12.351  14.736 -0.0129  0.0345 -0.4502
20768W        W20968  10.461   0.181  12.291  0.2935 -0.3188 -0.1503
20769W        W20969   7.615  14.541  14.857  0.1757  0.1473 -0.0815
20770W        W20970   3.062  13.216   3.024 -0.3667  0.1696  0.0335
20771W        W20971  11.507   5.193  14.363  0.2311  0.1573  0.2431
20772W        W20972  13.556   4.253   0.118 -0.1670  0.0572 -0.1801
20773W        W20973   6.202   5.109  10.466 -0.2054 -0.1463  0.1096
20774W        W20974  10.084  13.195  13.155  0.0916  0.1744 -0.0016
20775W        W20975  13.799   6.062  13.133 -0.2621 -0.3442 -0.0293
20776W        W20976   1.939   4.430  10.784  0.1358  0.3126  0.2490
20777W        W20977   3.575  10.877   7.533 -0.0610 -0.1378  0.0243
20778W        W20978  14.016  10.764  10.959 -0.2342 -0.0218  0.0062
20779W        W20979   1.321  12.424   0.624 -0.2214  0.0137  0.4094
20780W        W20980   9.979  11.899   8.903 -0.2049  0.0060  0.0438
20781W        W20981   1.103   0.643   6.776  0.0231  0.0767 -0.1988
20782W        W20982  10.877  10.165   4.872  0.1625  0.0809  0.0667
20783W        W20983  11.733   1.515  12.798  0.0829 -0.0435 -0.0841
20784W        W20984   3.122   1.058  11.893  0.0243 -0.0844  0.0030
20785W        W20985   0.551   1.675   1.406  0.2300 -0.1078 -0.1202
20786W        W20986   4.247  11.173   0.960  0.0407  0.3502  0.0341
20787W        W20987   4.960   1.755   3.627  0.1202  0.0298  0.1472
20788W        W20988   8.057  11.655   6.437  0.0062 -0.1071  0.0318
20789W        W20989  12.904  13.537   4.755  0.2063  0.0715  0.0141
20790W        W20990   2.888   2.057   0.841 -0.1889 -0.0201  0.4061
20791W        W20991   8.067   3.048   6.998  0.3978  0.1158 -0.0230
20792W        W20992  14.554   3.157  13.373  0.1676 -0.1104 -0.0293
20793W        W20993   7.458   5.266  10.287  0.2054 -0.1733  0.1197
20794W        W20994  10.345  15.003   8.705 -0.0566  0.2024 -0.0007
20795W        W20995  10.093   1.702  10.113  0.0102  0.3650  0.0490
20796W        W20996   8.345  10.445   8.407 -0.0327 -0.2643  0.0694
20797W        W20997  11.325   7.524  10.785 -0.0943 -0.2305 -0.2348
20798W        W20998   5.518   2.855   7.442 -0.0982  0.0953  0.0077
20799W        W20999   8.576  10.628   8.831 -0.0376 -0.1381  0.2192
20800W        W21000   6.117   1.153   2.521 -0.1662  0.1920 -0.1397
20801W        W21001   2.957   2.996  14.060 -0.1322 -0.1480  0.2948
20802W        W21002   8.920  14.046  15.161  0.1236  0.0033 -0.2226
20803W        W21003  13.654   0.753   6.007  0.2821 -0.0186  0.0325
20804W        W21004   8.133  11.202   9.365 -0.0893  0.1309 -0.3432
20805W        W21005  14.185   6.585  11.290 -0.2668 -0.1909 -0.0634
20806W        W21006   9.992   9.196   5.198 -0.1348 -0.0400  0.2808
20807W        W21007   0.942   4.366  10.982 -0.1670 -0.1146 -0.0826
20808W        W21008   5.878   8.838  11.308 -0.4049  0.0751 -0.4754
20809W        W21009   2.698   2.135   4.248  0.1649 -0.2155 -0.0108
20810W        W21010   1.704   8.731  11.066  0.0505  0.0701 -0.1191
20811W        W21011  14.030  11.771   3.319  0.0933 -0.0287  0.3186
20812W        W21012  13.906   2.662   0.914  0.0452  0.1078 -0.0171
20813W        W21013   0.055  10.681  11.938 -0.2501  0.1182  0.1044
20814W        W21014   7.571  13.143  14.050 -0.1119 -0.3275 -0.3165
20815W        W21015   2.441   2.783  10.702 -0.0233 -0.1027  0.0636
20816W        W21016   0.415   8.137   1.576  0.1765  0.0012  0.2699
20817W        W21017  14.825  12.877  11.675 -0.2760  0.1477 -0.0336
20818W        W21018  10.682  13.812  13.905 -0.1969  0.0956  0.2506
20819W        W21019   2.353  12.406  12.888  0.1447 -0.1516 -0.1879
20820W        W21020  12.696   0.835   7.668 -0.1038 -0.2250  0.1815
20821W        W21021  13.947   5.082  13.729  0.1741 -0.4028 -0.4708
20822W        W21022   2.070  11.877   4.887  0.1045  0.1976  0.1058
20823W        W21023  13.469  14.089   1.853  0.2179 -0.1703 -0.4209
20824W        W21024  11.993  10.895   4.810  0.1194  0.0766  0.2243
20825W        W21025   8.305   5.724   1.477  0.1126 -0.3563 -0.1029
20826W        W21026   0.107   8.143  10.542 -0.1929 -0.1735 -0.0487
20827W        W21027  10.283   8.132  13.588  0.0887  0.0354  0.0702
20828W        W21028   8.336  13.902  10.390  0.3094  0.0112 -0.1106
20829W        W21029   9.312   2.337  11.545  0.1727 -0.0736  0.0656
20830W        W21030   4.271   1.404   2.822 -0.2851  0.0725 -0.1363
20831W        W21031   0.945  12.706   8.439 -0.0265  0.2537  0.3509
20832W        W21032   9.473  15.023  13.423 -0.1376  0.0597 -0.0832
20833W        W21033   2.769   9.418  11.713  0.0691 -0.1725 -0.0697
20834W        W21034   8.794  10.296  10.454 -0.0238  0.0403 -0.1528
20835W        W21035   4.854   5.392  12.606  0.0817 -0.1438 -0.0771
20836W        W21036  13.209  14.328   7.846 -0.2163 -0.0159 -0.1719
20837W        W21037   6.124  13.591   3.001  0.2512  0.2987 -0.0696
20838W        W21038  13.277  11.293  14.373  0.1017  0.1704 -0.1284
20839W        W21039   7.408   0.936   3.911  0.2921  0.0432  0.0178
20840W        W21040   3.075  12.526  11.214  0.0210  0.0639 -0.0198
20841W        W21041  10.777   6.816   5.460 -0.0758 -0.2236 -0.3989
20842W        W21042  13.615   8.566   0.014 -0.2429  0.0316  0.1508
20843W        W21043  10.639  12.606  13.409 -0.1234 -0.0079  0.3208
20844W        W21044  11.657   8.034   8.730 -0.1198 -0.1909  0.1787
20845W        W21045  11.190   7.078   6.899  0.1653  0.0531  0.1007
20846W        W21046   4.382  10.118   3.657  0.0684  0.1813  0.0035
20847W        W21047  10.629   6.723   7.714  0.0729 -0.1630 -0.1441
20848W        W21048   6.205   0.438  12.173 -0.1521  0.1805  0.5340
20849W        W21049   8.760   5.835   1.312 -0.0589 -0.0164  0.0114
20850W        W21050  15.053  14.895   0.030  0.0136 -0.0066  0.1348
20851W        W21051  11.451   9.045   8.900 -0.0856  0.0927 -0.0835
20852W        W21052   5.015  10.891   8.196 -0.1158  0.0017  0.0871
20853W        W21053  10.377   0.623  13.199  0.1554 -0.2029  0.0221
20854W        W21054  11.455  10.686   1.625  0.2402  0.0048 -0.3657
20855W        W21055  14.928   6.967  14.333 -0.0827 -0.0952 -0.1915
20856W        W21056   1.140   3.262   1.558 -0.1313 -0.0878  0.1221
20857W        W21057   8.552   8.953  13.442  0.1942 -0.0063 -0.1426
20858W        W21058  11.051  13.202  15.184 -0.0322  0.2423  0.1441
20859W        W21059   9.865   7.859   5.570  0.2387  0.0961  0.0219
20860W        W21060  13.081  14.278  12.902  0.1169  0.1962  0.0415
20861W        W21061  13.844   6.343  14.699 -0.0084  0.1450 -0.1391
20862W        W21062   2.661  12.808   8.896  0.0845  0.2560  0.2484
20863W        W21063  11.693   4.626  12.282 -0.0056  0.3595  0.2174
20864W        W21064  12.820   6.874   0.040 -0.1489 -0.2938  0.0719
20865W        W21065  14.679  14.285   0.904 -0.0407 -0.2394 -0.0212
20866W        W21066  11.946  12.588  14.349 -0.0196  0.2417  0.0784
20867W        W21067   1.788   8.581  13.951  0.0310  0.2949  0.1098
20868W        W21068   0.858  12.570   1.657 -0.1739 -0.0079  0.0544
20869W        W21069   0.276  14.878   0.726  0.1770 -0.1330  0.1171
20870W        W21070  10.077  13.327   3.120  0.2215  0.0134  0.1935
20871W        W21071  12.761  13.410   5.662 -0.3433 -0.3547 -0.3549
20872W        W21072   9.891   3.499   2.825 -0.2032 -0.0653 -0.2363
20873W        W21073   6.927   0.909   9.661 -0.0809  0.0940 -0.3245
20874W        W21074   6.321  13.670   8.787  0.3751  0.3283 -0.1244
20875W        W21075   2.567   9.393   5.213 -0.2176  0.0923  0.0048
20876W        W21076  11.824   3.183   2.452 -0.0426 -0.1356 -0.0405
20877W        W21077   0.169   6.034  12.840  0.1735 -0.1217 -0.1279
20878W        W21078   8.568   3.569   0.041 -0.2009  0.1371 -0.0302
20879W        W21079   9.095  15.033   1.689 -0.3437 -0.0577  0.2073
20880W        W21080   9.571   6.851   5.704  0.2049 -0.2554  0.0303
20881W        W21081   0.041   2.084   7.348 -0.0766 -0.0250  0.3148
20882W        W21082   8.067  13.527  12.434 -0.1820 -0.2207 -0.0812
20883W        W21083  12.232   0.078  13.058 -0.2306 -0.1081 -0.2911
20884W        W21084  11.939   8.497  11.573  0.2894  0.0885 -0.2338
20885W        W21085  13.324   1.718  10.946  0.2734 -0.0464 -0.1904
20886W        W21086   3.553  14.256  14.850  0.1408 -0.0118 -0.0091
20887W        W21087  12.480   7.939   5.821 -0.1047 -0.1967 -0.0483
20888W        W21088   6.675  14.046   3.355 -0.0406 -0.2707 -0.1967
20889W        W21089   1.441   1.923  11.385  0.1273  0.0908  0.1775
20890W        W21090   7.699   1.803  10.128 -0.0370 -0.0626  0.0895
20891W        W21091  10.651  13.849   3.571 -0.0405  0.1352  0.1100
20892W        W21092  13.336   7.175   0.711 -0.1651 -0.3711  0.0066
20893W        W21093   5.021   3.154   6.478  0.2420  0.1458 -0.2645
20894W        W21094  12.668  11.501   3.711 -0.0815  0.0754  0.1013
20895W        W21095  14.507   4.049   1.803  0.0406  0.0556  0.1611
20896W        W21096   7.991   5.462  10.101  0.0766 -0.4923  0.0812
20897W        W21097  12.380   0.184   6.324  0.0316 -0.1935 -0.1244
20898W        W21098  13.706   0.306  13.539  0.0007  0.0268  0.2333
20899W        W21099   9.396  12.123   1.346 -0.2947 -0.2115  0.2141
20900W        W21100  14.520   2.582   3.487 -0.0063  0.2347 -0.1270
20901W        W21101  10.337   4.023   4.895  0.0256 -0.0970 -0.2312
20902W        W21102   9.812   8.137   5.098  0.0478  0.1978  0.2934
20903W        W21103   2.590   0.181   0.511 -0.1577  0.0878  0.0996
20904W        W21104  14.517  13.873   6.424  0.0130 -0.1961  0.3852
20905W        W21105  12.802   3.318   4.032  0.0448 -0.1023  0.0952
20906W        W21106   0.142   4.857  12.893  0.1066  0.0251 -0.1128
20907W        W21107   2.773   4.948   0.339  0.0493  0.0459 -0.4111
20908W        W21108   0.253  11.547   1.196  0.0530 -0.3243  0.1136
20909W        W21109   8.072  13.982   7.112 -0.1094 -0.0951 -0.0305
20910W        W21110  12.490  11.722  12.226 -0.0396  0.1064 -0.2389
20911W        W21111  15.153   1.834   1.960  0.1839 -0.2085 -0.1097
20912W        W21112   1.962   0.104   6.764 -0.0689 -0.0692  0.0331
20913W        W21113   2.927   1.262   5.772 -0.0831 -0.1450  0.2840
20914W        W21114  10.918  14.841   2.280  0.0811  0.1417 -0.0404
20915W        W21115   1.050   8.185  13.176 -0.1135  0.0088  0.0099
20916W        W21116   9.210   6.976   1.049 -0.0521 -0.2280 -0.0729
20917W        W21117  11.748   8.849   5.736 -0.0134  0.1422 -0.4014
20918W        W21118   7.235   3.821   0.912 -0.1650  0.0341  0.1347
20919W        W21119   8.815   3.279   3.730  0.0287 -0.2665  0.0420
20920W        W21120  14.646   1.918   6.957 -0.1842 -0.1289  0.2771
20921W        W21121   2.417  14.520  12.784  0.1071  0.1521  0.0972
20922W        W21122  14.539  14.359   8.040 -0.0689 -0.0492 -0.2945
20923W        W21123   2.151   4.064   2.330  0.3287 -0.1503 -0.0076
20924W        W21124   8.418   8.317  11.612  0.2708  0.1673 -0.1918
20925W        W21125  14.525   3.017  12.319 -0.3146  0.2361  0.1345
20926W        W21126  11.412  12.734  13.212  0.1520 -0.1942  0.1544
20927W        W21127  10.186  14.608  12.920  0.0690 -0.3301 -0.2713
20928W        W21128   4.406   3.327   7.879  0.1238 -0.0341  0.0137
20929W        W21129   8.071   9.596  12.583 -0.0167  0.0779 -0.0209
20930W        W21130   8.757  13.211   6.037  0.1249  0.0098  0.1803
20931W        W21131   6.958   0.461  11.034  0.0935  0.0843 -0.2816
20932W        W21132   2.352   9.563   1.875  0.0784  0.0007 -0.4212
20933W        W21133   5.493   0.325   3.290  0.0676  0.3164 -0.0734
20934W        W21134   3.901   3.252  10.232  0.0517 -0.2566  0.4064
20935W        W21135  10.194   5.251  10.968 -0.1562 -0.0059 -0.0371
20936W        W21136   4.584  13.129  10.068  0.2732  0.3528 -0.2765
20937W        W21137  10.146   1.529   4.059  0.0627 -0.0652 -0.2129
20938W        W21138   5.449  14.654   1.704 -0.3294 -0.2583 -0.1586
20939W        W21139  12.286   5.367   2.864 -0.1911 -0.3093  0.3918
20940W        W21140   8.236   6.171  14.880 -0.0053 -0.1342  0.0019
20941W        W21141   0.346   1.456   8.875 -0.0133  0.1160  0.0502
20942W        W21142  13.450   8.122   1.074  0.2690  0.0145  0.0494
20943W        W21143   1.361   5.651   0.486  0.3358  0.0291  0.2008
20944W        W21144   4.708   0.667   2.194 -0.2048 -0.3177 -0.0983
20945W        W21145  10.015  14.085   5.279 -0.1964  0.1076  0.1775
20946W        W21146  11.023   8.307   6.169  0.1561 -0.1985  0.0992
20947W        W21147  13.491   1.481   1.642  0.1486  0.1497 -0.2868
20948W        W21148   7.854  12.671  12.751 -0.0960  0.0895 -0.1531
20949W        W21149   3.095   1.128   3.498 -0.0369 -0.2140  0.0729
20950W        W21150   7.261   6.198   5.802  0.0056  0.1579 -0.2022
20951W        W21151  11.992   1.097   4.654  0.0633  0.0701 -0.1004
20952W        W21152   9.759   7.764   0.307 -0.1412  0.0536 -0.1027
20953W        W21153  14.945  15.083  11.082  0.2775 -0.1968  0.0151
20954W        W21154  14.948   9.938   6.764 -0.2723  0.0922 -0.0237
20955W        W21155  14.453   2.383   8.076  0.2034 -0.2228 -0.0813
20956W        W21156   3.904   0.313  12.033 -0.0590 -0.0430  0.0875
20957W        W21157   1.716   5.437   3.554 -0.0686  0.0882 -0.0725
20958W        W21158   5.836   4.883   1.745  0.1515 -0.2691  0.0156
20959W        W21159   8.213   9.275  13.692 -0.0445 -0.0502 -0.0284
20960W        W21160   0.062  10.705   8.783  0.0405 -0.0835  0.1471
20961W        W21161  14.641   2.455  13.539 -0.0730  0.0039  0.2355
20962W        W21162   8.644  14.753  10.591 -0.2720  0.3252  0.2845
20963W        W21163  13.142   1.122  12.691  0.0721  0.0833  0.3011
20964W        W21164   9.121   7.064   0.117 -0.0036  0.2458 -0.1372
20965W        W21165   0.109   6.189   0.583  0.2859  0.2002  0.0472
20966W        W21166   1.316  12.642   1.482 -0.1979  0.3197  0.2239
20967W        W21167   2.658   6.048  11.252 -0.4522 -0.2528  0.2624
20968W        W21168  11.255  12.071   0.920 -0.2417  0.0538 -0.0023
20969W        W21169   4.513   7.052   0.387 -0.1104 -0.0620 -0.0748
20970W        W21170   3.172   5.057  10.498  0.0543  0.1878  0.3721
20971W        W21171   1.779   2.093   3.885 -0.1736 -0.2548  0.1058
20972W        W21172   7.778  13.204   3.693  0.2912  0.0795 -0.0590
20973W        W21173  14.813   4.041  12.811 -0.0376  0.1710  0.3979
20974W        W21174   2.613  14.461  15.146 -0.3360  0.0428 -0.0871
20975W        W21175   0.542   2.433   4.588 -0.0545  0.1739  0.5157
20976W        W21176  13.144  10.998   9.652 -0.0979  0.4244 -0.0290
20977W        W21177   2.326   8.005   2.675  0.0270  0.0088 -0.0581
20978W        W21178   2.364   3.105   4.786  0.1164  0.0958 -0.3145
20979W        W21179   4.366   2.203   4.575  0.1449  0.0459  0.0532
20980W        W21180   7.722   7.468   0.415 -0.2322  0.1424  0.1178
20981W        W21181  12.588  11.839   6.931  0.0507  0.2953  0.0626
20982W        W21182  11.738   3.248   4.555  0.1914 -0.3655 -0.0358
20983W        W21183   9.487   9.080  14.868 -0.1552  0.1302 -0.0374
20984W        W21184   7.787   8.708  13.012  0.0593 -0.0028  0.0550
20985W        W21185   0.524  10.620   8.569  0.0800  0.0976 -0.1172
20986W        W21186  15.057   8.908  13.983  0.0868 -0.2868 -0.0383
20987W        W21187   4.824   5.452   2.306 -0.0276 -0.0407  0.0925
20988W        W21188   6.879  14.480  10.858 -0.0902  0.0411  0.1511
20989W        W21189  14.848   3.839   3.474 -0.1201  0.0832 -0.1570
20990W        W21190   3.402   4.303  14.052 -0.0020  0.2431  0.2481
20991W        W21191   5.126   2.593  14.271 -0.3964 -0.3064 -0.1973
20992W        W21192   3.475  11.186   9.458  0.2242  0.2310  0.0662
20993W        W21193  14.065   3.295   5.981  0.3608  0.2925 -0.1194
20994W        W21194  10.233   2.953   2.256 -0.1917  0.3523 -0.1567
20995W        W21195  14.590  11.924  11.816  0.2484 -0.3001  0.1975
20996W        W21196   2.618   6.250  14.405  0.1887 -0.1816  0.0753
20997W        W21197   3.298   3.373   5.657 -0.0667  0.0910 -0.1372
20998W        W21198   8.805   0.690   1.790  0.2732 -0.1160 -0.0903
20999W        W21199  11.607   4.005  10.529 -0.4156 -0.0276 -0.0688
21000W        W21200  14.161   6.172  14.331 -0.0112  0.0124  0.0038
21001W        W21201  13.512   2.656   1.556 -0.2052  0.0768 -0.0788
21002W        W21202  11.512   3.301   9.848  0.0186 -0.1177  0.1064
21003W        W21203  12.695   0.571   8.501  0.0738 -0.1181 -0.1212
21004W        W21204  14.082   4.324   6.889  0.0848  0.3130  0.1850
21005W        W21205   2.883   5.396   0.681  0.0778 -0.0634 -0.1668
21006W        W21206  11.855  13.835  14.317  0.3641 -0.3366 -0.0264
21007W        W21207  14.387   0.319   9.378 -0.0918 -0.2652  0.3807
21008W        W21208  11.835  13.043  12.560  0.0469  0.1161  0.0252
21009W        W21209   5.692  10.984   0.144 -0.1769 -0.1544  0.0753
21010W        W21210  12.655   3.102  13.065 -0.1426  0.0763 -0.0460
21011W        W21211   9.526  10.266   0.445  0.2499 -0.0015 -0.1783
21012W        W21212   7.682  13.958   3.793 -0.1463 -0.3887  0.0398
21013W        W21213   1.725  10.439  14.607 -0.0085 -0.0313  0.2452
21014W        W21214   7.523   4.717  11.105 -0.0317  0.0527  0.2978
21015W        W21215  10.374   6.343   6.526  0.0101 -0.1809  0.0653
21016W        W21216  11.145  14.272   8.497 -0.1309  0.0214 -0.0827
21017W        W21217  12.940   3.151   2.795  0.3188  0.2952  0.0076
21018W        W21218  14.212   6.672   5.762  0.3887 -0.0159 -0.0069
21019W        W21219  14.398   4.223   2.626  0.0519  0.1405  0.0733
21020W        W21220   1.880  12.171  12.160 -0.0155 -0.0070  0.1892
21021W        W21221   3.586   3.583   0.708  0.0800  0.0839  0.0726
21022W        W21222  14.227  12.662   4.882  0.1301 -0.1664  0.0881
21023W        W21223  14.150   7.835   3.915 -0.0393 -0.2256 -0.2319
21024W        W21224  11.248   2.603   9.656 -0.2073  0.0338  0.3584
21025W        W21225   8.820   0.338  14.095  0.0613  0.3604  0.2414
21026W        W21226  10.212  13.634   3.988  0.2288  0.1890 -0.4526
21027W        W21227   7.515   6.484   5.452 -0.0406  0.0490 -0.1758
21028W        W21228   2.072   6.723   5.341 -0.1198 -0.0751  0.1520
21029W        W21229   7.972   4.755   2.716  0.0555 -0.0737 -0.1944
21030W        W21230  13.122   0.537   4.160  0.0326  0.1144  0.1952
21031W        W21231  11.485   1.140  14.126 -0.0636 -0.1217  0.2063
21032W        W21232   1.736   7.665   5.846  0.1004  0.0853 -0.1327
21033W        W21233  12.554   3.295  14.259 -0.0960  0.0345 -0.4231
21034W        W21234   0.091  10.391   5.091  0.4472 -0.1207  0.0364
21035W        W21235   1.529   7.964   6.587 -0.1623  0.0552 -0.1207
21036W        W21236  13.669   5.377   1.709  0.2040 -0.2723  0.1080
21037W        W21237   8.011   9.869   0.915  0.0991 -0.2678 -0.0030
21038W        W21238  10.126   5.891  13.703  0.0514  0.0845  0.1813
21039W        W21239   9.315   2.608   1.229 -0.3356 -0.2177  0.0184
21040W        W21240   6.012   1.597   8.550  0.2745 -0.2395  0.0033
21041W        W21241   4.129  10.456   1.982  0.0975  0.2383 -0.1007
21042W        W21242  13.506   8.120  11.038  0.0533  0.3026 -0.3774
21043W        W21243  14.353   2.946   1.049 -0.0155 -0.3344 -0.1333
21044W        W21244  11.116   5.634   7.020  0.1133 -0.0920  0.1549
21045W        W21245   2.546  12.004   2.339  0.1678  0.0591  0.3548
21046W        W21246  10.867  14.878  14.792 -0.0957 -0.0756 -0.1847
21047W        W21247  12.698   7.395   5.056  0.0922  0.1275 -0.1160
21048W        W21248   8.506  13.744  14.727 -0.0538  0.0023  0.1436
21049W        W21249  14.395  14.471   4.907  0.1692  0.2033 -0.0025
21050W        W21250  14.129   0.201   0.203 -0.0486 -0.1825  0.1112
21051W        W21251  10.505   5.233   2.985 -0.2125 -0.0328  0.0790
21052W        W21252  10.123   3.476   5.531  0.0122 -0.1580 -0.0465
21053W        W21253  11.839  12.600   0.392  0.2890  0.0808 -0.0898
21054W        W21254  13.279   3.954  12.328 -0.2539  0.1439 -0.0598
21055W        W21255  11.860   4.159   6.848 -0.1129 -0.0424 -0.2958
21056W        W21256  13.760   8.388  14.450  0.0123 -0.2509  0.1822
21057W        W21257  11.109   1.885   7.926  0.1675 -0.0477  0.1762
21058W        W21258  11.892   8.837   4.632 -0.2824 -0.0633  0.1003
21059W        W21259  11.919   6.830   4.854  0.1086 -0.0570 -0.1775
21060W        W21260   4.712   0.246   2.482 -0.1114 -0.1118  0.2994
21061W        W21261  12.334   6.623   5.491 -0.0259 -0.0672  0.0799
21062W        W21262   9.326   1.026   4.331  0.0465  0.1325 -0.0902
21063W        W21263   9.768   8.112  13.374 -0.1658 -0.0132  0.1042
21064W        W21264  14.294   7.946   4.881 -0.2794  0.0209 -0.0744
21065W        W21265  12.779   0.661   4.908 -0.1920  0.0588 -0.0028
21066W        W21266  14.129  12.678  12.920  0.1732 -0.1946  0.1773
21067W        W21267  13.440   3.342   4.526 -0.1036  0.1819  0.0885
21068W        W21268   9.944  10.080   8.747 -0.2275  0.0041 -0.1629
21069W        W21269  12.219   3.362   1.504  0.5115 -0.0313  0.0280
21070W        W21270   5.423  14.994  14.189  0.0218 -0.1009 -0.3877
21071W        W21271   8.277  12.622   3.415  0.3124  0.1419 -0.0433
21072W        W21272  10.532   6.789  12.475 -0.1542 -0.1799 -0.1189
21073W        W21273  13.243   9.088   1.445  0.0065 -0.1396  0.0923
21074W        W21274   1.635   1.177   1.271 -0.1378  0.0807 -0.2634
21075W        W21275   0.575   4.222   6.003  0.0827 -0.3327  0.3449
21076W        W21276  13.765  10.463   3.351 -0.0020  0.4233  0.0924
21077W        W21277   6.785   3.617  14.293  0.1471  0.0107 -0.0363
21078W        W21278  10.616   1.618   5.028  0.0709 -0.0156  0.1907
21079W        W21279   0.276   4.237   9.666  0.2135  0.1187 -0.0972
21080W        W21280   6.547   7.914   0.144  0.0139 -0.0943 -0.0954
21081W        W21281   7.368   3.672   8.962  0.0735  0.1362 -0.3668
21082W        W21282  13.951  10.039   6.346  0.0142 -0.2922  0.0590
21083W        W21283  14.955   0.890  11.229  0.3167 -0.0553  0.1190
21084W        W21284   0.265   2.027  10.250 -0.0268  0.1662 -0.1196
21085W        W21285   7.519   5.538   4.616  0.1667 -0.0636 -0.0009
21086W        W21286   0.429   3.784  10.525  0.1121  0.0043 -0.1415
21087W        W21287   5.167   3.542  10.448 -0.0095 -0.2591  0.0933
21088W        W21288   7.076   3.247  10.330 -0.2064  0.0789 -0.0996
21089W        W21289   6.020   9.959   8.446  0.0077 -0.5236 -0.0310
21090W        W21290  14.454   9.419  10.177  0.0993 -0.1413  0.1800
21091W        W21291   8.675   1.067  14.396  0.2735 -0.1343 -0.0289
21092W        W21292  13.403  14.792   4.070  0.2955 -0.1287 -0.0423
21093W        W21293   6.025   4.001  12.039 -0.0816 -0.0833  0.4645
21094W        W21294  12.317   6.370  11.612 -0.3993  0.0454  0.4520
21095W        W21295   0.719   1.751   8.254  0.1934  0.2804  0.0761
21096W        W21296  12.034  12.718  10.636  0.1254  0.1246 -0.0820
21097W        W21297   5.224   7.169   9.888 -0.0346 -0.1341 -0.1371
21098W        W21298   0.535   1.737  13.968 -0.0315 -0.1286  0.1595
21099W        W21299  12.938   6.100  15.008 -0.1016 -0.0704  0.0126
21100W        W21300   1.237   2.027   2.978 -0.2714 -0.2259 -0.0905
21101W        W21301   5.166   6.457   8.583 -0.0741 -0.0933 -0.0218
21102W        W21302  13.583  14.904   4.614 -0.3125  0.1190 -0.0205
21103W        W21303   1.476   3.392   6.959  0.1349 -0.0265  0.1809
21104W        W21304  12.856   4.987   7.279  0.1342 -0.1697 -0.1379
21105W        W21305   1.022  14.926   2.759  0.1815  0.2780  0.0265
21106W        W21306   0.999   5.012   3.136 -0.0429  0.1067  0.0357
21107W        W21307   8.642  14.747   9.896  0.1066  0.1606  0.2078
21108W        W21308  12.070   5.330   9.475 -0.0297  0.1691 -0.2098
21109W        W21309   0.596   5.717   5.939  0.1581  0.3067  0.1194
21110W        W21310   4.200   2.393   2.906 -0.2132  0.3083  0.2799
21111W        W21311  12.656   0.678   9.306 -0.0258 -0.0365 -0.0268
21112W        W21312   3.384   5.883  15.139  0.3027  0.2631  0.1244
21113W        W21313  14.693   2.356   9.529  0.3525 -0.0068 -0.1627
21114W        W21314   8.079  11.434  12.258 -0.0368  0.2496  0.0401
21115W        W21315   5.351   3.209   7.727 -0.0021 -0.1206 -0.2385
21116W        W21316   7.364   2.333  14.704 -0.2764  0.0174  0.1040
21117W        W21317   8.529   2.767   7.425 -0.0260  0.1814  0.0491
21118W        W21318  11.027  13.845   6.728  0.0577 -0.1921 -0.2577
21119W        W21319  15.015   3.475   5.856  0.1797 -0.2878 -0.0192
21120W        W21320  13.941  11.622  10.178 -0.3020 -0.1051 -0.2510
21121W        W21321   0.196  13.119   1.442 -0.0309 -0.1269  0.3816
21122W        W21322  14.978  14.215   6.322  0.2165 -0.1584 -0.0240
21123W        W21323   2.815   5.980   5.489 -0.2068  0.1678 -0.3934
21124W        W21324   1.676   4.048   2.638  0.4008  0.0028 -0.1262
21125W        W21325  11.789   6.963   0.542 -0.1989  0.0966 -0.1237
21126W        W21326   5.454   4.108  15.155  0.0160  0.1038  0.1213
21127W        W21327   7.035   7.392   5.616  0.1371  0.2232 -0.1663
21128W        W21328   3.719   4.209   9.910  0.0873 -0.0525 -0.1582
21129W        W21329  12.938   0.577   3.285 -0.2609 -0.2137  0.2528
21130W        W21330   9.627  13.108   7.889  0.1067  0.1076 -0.0272
21131W        W21331   5.992   3.324   3.069 -0.0547 -0.1097 -0.3222
21132W        W21332   9.945   2.309   0.441  0.3364 -0.0525 -0.3995
21133W        W21333  11.264   1.955   1.759 -0.2375  0.5609 -0.3081
21134W        W21334   1.923   4.082   1.898  0.0858 -0.0800 -0.1333
21135W        W21335   5.532  14.116   7.297  0.1652  0.0508  0.1890
21136W        W21336   1.444   3.724  13.555  0.2300  0.1495 -0.1818
21137W        W21337  11.618   6.072  10.740  0.0784  0.2802  0.2425
21138W        W21338   9.020   8.309  11.771  0.1270  0.0413  0.1129
21139W        W21339   0.299  14.879   6.395 -0.2134 -0.0084  0.0505
21140W        W21340  11.521   4.004   4.119  0.1219  0.0865 -0.1303
21141W        W21341   5.400  11.652   8.769  0.2248 -0.0054 -0.1615
21142W        W21342   4.873   3.302  10.838 -0.0359 -0.1674 -0.0886
21143W        W21343   3.873   4.720  11.205  0.0319 -0.1514  0.0687
21144W        W21344  12.115   7.865   7.696  0.4883  0.0781  0.2426
21145W        W21345  12.169   3.150   7.543 -0.0563  0.0429  0.0042
21146W        W21346  14.482  12.960  13.886 -0.1471  0.0799 -0.0027
21147W        W21347  12.785   3.134   6.169 -0.0778 -0.1629 -0.0991
21148W        W21348  13.239  10.205   2.673  0.3166 -0.1774 -0.0294
21149W        W21349   2.694   1.665   2.866  0.1872 -0.0085  0.0583
21150W        W21350  12.775   1.965  13.284  0.0760 -0.3931 -0.0160
21151W        W21351   8.213  10.528   5.089  0.0434 -0.1308  0.1962
21152W        W21352   6.951  13.618   8.920 -0.2872 -0.1817 -0.1233
21153W        W21353   0.893  14.797   3.277  0.0077 -0.1883 -0.0352
21154W        W21354   9.060  14.757   6.185  0.0005 -0.0225 -0.1220
21155W        W21355   0.182  14.929   3.823  0.2607  0.3213  0.1014
21156W        W21356  13.210   0.778  13.762  0.1996 -0.1224  0.1721
21157W        W21357  13.860   2.797  13.025 -0.2844  0.1244 -0.0314
21158W        W21358   9.060   3.352  14.925  0.1833 -0.0769 -0.1501
21159W        W21359   4.955   1.612  15.137  0.2363  0.1484  0.1299
21160W        W21360  13.714   3.775   3.051 -0.0296  0.1526  0.1145
21161W        W21361  10.595   9.728   0.146 -0.2372  0.0005 -0.3483
21162W        W21362   1.780   4.756  11.705 -0.0320 -0.0867 -0.1833
21163W        W21363   8.330   2.000   4.167 -0.2173  0.2714  0.0840
21164W        W21364  12.844   6.373   5.736  0.1139 -0.1158 -0.2097
21165W        W21365   9.386  10.599  11.703  0.3135  0.1050 -0.1909
21166W        W21366   4.908  14.051   4.302 -0.2229 -0.2105 -0.0191
21167W        W21367   8.364   4.628  10.251 -0.1097  0.1271 -0.1570
21168W        W21368   9.481   5.642   6.686  0.4159  0.0568 -0.0523
21169W        W21369   4.678  14.104  14.818 -0.1662  0.0657  0.0815
21170W        W21370   1.490   7.632   3.202 -0.1644 -0.3073  0.0425
21171W        W21371   5.247  13.876   3.080 -0.2579 -0.0119  0.3204
21172W        W21372  11.206  10.562   1.109  0.0525  0.1154  0.0120
21173W        W21373   7.522   0.176   0.953 -0.0624 -0.0658 -0.2696
21174W        W21374   9.696  14.595  13.123  0.1560 -0.1145  0.3392
21175W        W21375  13.687   5.216   6.790  0.2243 -0.1463  0.1432
21176W        W21376   9.714  11.235  13.288  0.0730  0.0811 -0.0500
21177W        W21377   8.137   3.562   3.115 -0.1022 -0.0829 -0.0607
21178W        W21378  12.946  14.094  13.974 -0.0410  0.1443 -0.1475
21179W        W21379   0.333   7.050   7.020 -0.1818  0.2737  0.2368
21180W        W21380  12.426   5.119  15.004  0.1732 -0.1484  0.3214
21181W        W21381   4.535   6.649   2.479  0.0397 -0.0112  0.0895
21182W        W21382  13.181   8.555   0.908  0.0288 -0.2949 -0.1502
21183W        W21383   0.178   6.841   3.637 -0.1690  0.1626  0.2754
21184W        W21384   0.114  11.048   1.433 -0.0771 -0.1911  0.2017
21185W        W21385   7.788   3.979  11.299 -0.0534 -0.0749  0.1205
21186W        W21386  13.941   3.435   0.328 -0.0091 -0.2723 -0.0834
21187W        W21387  11.102   2.298   9.290  0.2413  0.0255 -0.0104
21188W        W21388   1.376  14.996  12.593  0.2431 -0.2035  0.3620
21189W        W21389   5.335   0.567  14.747  0.0245 -0.1841 -0.2324
21190W        W21390   8.878   1.377   6.348  0.0814 -0.2134  0.0389
21191W        W21391   0.670  14.114   6.514  0.1850 -0.0270  0.1902
21192W        W21392   7.914  11.168   5.689 -0.0161 -0.0033 -0.3310
21193W        W21393   7.758   7.203   2.526 -0.0876 -0.1485  0.0553
21194W        W21394   5.696   3.144   0.608 -0.1718  0.1039 -0.2750
21195W        W21395   5.217   0.411  12.085 -0.1356 -0.0772  0.0100
21196W        W21396  14.907   4.828   0.057 -0.1258  0.0735  0.1082
21197W        W21397  11.378   7.901   7.708 -0.1153 -0.1436  0.1312
21198W        W21398   0.239  13.476   4.958 -0.0827  0.0100  0.0710
21199W        W21399  12.989  12.672   4.402 -0.3219  0.0999 -0.1280
21200W        W21400   2.129   7.492   2.580 -0.0136 -0.0062 -0.1435
21201W        W21401   0.887   1.022  14.946  0.1421  0.0379  0.2614
21202W        W21402   9.773  10.580   3.352  0.0525  0.2978  0.0143
21203W        W21403   4.620   0.281  13.385 -0.1453  0.0549 -0.2061
21204W        W21404   1.805  14.075   8.953 -0.1782 -0.0936  0.0291
21205W        W21405  12.138   1.583   4.826 -0.1420 -0.0112 -0.0198
21206W        W21406   8.336   0.635  10.335 -0.1089  0.1627  0.0676
21207W        W21407  11.473   7.537  14.577 -0.2505 -0.3417 -0.2675
21208W        W21408   0.780   1.958  14.728 -0.0683  0.2496  0.4229
21209W        W21409   4.639   5.657  13.755 -0.0325  0.3399  0.2227
21210W        W21410   2.963   2.526  11.590  0.4221 -0.0925 -0.1056
21211W        W21411   8.439   1.423  14.994  0.4892 -0.0309  0.1018
21212W        W21412   8.207   3.336   1.868 -0.1323  0.0150 -0.0656
21213W        W21413  13.355  10.260   0.342 -0.1090 -0.0360  0.0002
21214W        W21414   1.781   8.441  15.029 -0.1043 -0.0847  0.0556
21215W        W21415   9.310   8.370   6.019  0.2374 -0.0678  0.0758
21216W        W21416   0.430   3.539   7.160 -0.1950  0.0551 -0.0500
21217W        W21417  11.752   2.446   7.096  0.1444  0.0342 -0.0520
21218W        W21418   0.908   8.681   3.784  0.1256  0.0308 -0.1466
21219W        W21419   2.372  10.121   1.812  0.1044  0.2885 -0.1002
21220W        W21420  13.109   9.853   5.369 -0.2727  0.0233  0.2515
21221W        W21421   8.904   2.895   4.021  0.0147 -0.0330  0.2934
21222W        W21422   1.224   9.366   1.173  0.2706 -0.0796 -0.2856
21223W        W21423  13.584   3.036   5.755  0.0943  0.2158  0.0094
21224W        W21424   0.729   4.869   5.519  0.1043  0.0171 -0.1871
21225W        W21425   0.042   7.487  14.499 -0.0376  0.0569  0.2793
21226W        W21426  10.526   0.899  14.903 -0.0805  0.2138  0.2910
21227W        W21427   0.361   4.087   0.468  0.2655 -0.0812  0.0262
21228W        W21428   8.903  14.833   3.175 -0.1308  0.2733  0.0416
21229W        W21429  12.835  13.325   9.241 -0.1014  0.0054  0.1848
21230W        W21430  13.616   4.530   7.715 -0.2223 -0.0153  0.2834
21231W        W21431  14.558   0.727   3.298  0.0324 -0.0524 -0.2801
21232W        W21432  10.391  10.162   6.056 -0.0038 -0.2435  0.0638
21233W        W21433   1.373   1.395   8.843 -0.0765 -0.2475  0.2076
21234W        W21434   5.940   9.947   1.415  0.4326 -0.2619 -0.2853
21235W        W21435  12.743   0.572  14.966  0.0321  0.2272  0.4379
21236W        W21436  11.186   4.931   1.163 -0.2316  0.0850 -0.1685
21237W        W21437   2.308  10.553   2.066  0.1061 -0.1021  0.3342
21238W        W21438  12.834   3.578   3.559  0.3798  0.3274 -0.1743
21239W        W21439   1.394  10.966   0.058  0.1209  0.0996 -0.2359
21240W        W21440   7.687  13.230  12.212 -0.1847 -0.1291  0.0695
21241W        W21441   2.056   4.713  14.313  0.0244 -0.1303  0.0185
21242W        W21442  13.712   0.465   2.597 -0.1353  0.1874  0.1459
21243W        W21443   1.978   4.817   9.308 -0.3526 -0.2921 -0.1218
21244W        W21444   6.569   4.721  10.555 -0.1434  0.1829  0.1445
21245W        W21445   0.522   4.831  12.413 -0.1272 -0.0430  0.0611
21246W        W21446   3.120   4.552  14.483  0.1429  0.1542  0.0400
21247W        W21447  14.450   4.001  13.403  0.0408  0.2186  0.2226
21248W        W21448  14.868   5.122   2.379  0.1029 -0.0420 -0.2370
21249W        W21449   8.364   6.972  13.969  0.1313  0.0598 -0.1673
21250W        W21450  14.036  13.170   3.959 -0.0456 -0.0450 -0.1131
21251W        W21451   4.070   8.138   1.315 -0.2510  0.1555  0.2961
21252W        W21452   1.763   2.525   9.620 -0.0801 -0.3009  0.0378
21253W        W21453   6.977   3.081  10.846  0.2026  0.0361 -0.0849
21254W        W21454   0.934   4.770   5.060  0.0800 -0.2433 -0.0600
21255W        W21455  11.648  13.611   5.860 -0.0710 -0.2991  0.0276
21256W        W21456   2.768   3.499   2.004  0.0835 -0.1405 -0.0094
21257W        W21457  10.547  10.745   0.491 -0.0645 -0.1165 -0.2275
21258W        W21458   4.899   1.497  14.186 -0.2969 -0.2145  0.3516
21259W        W21459   0.898   9.996  12.696 -0.3830  0.0369 -0.2420
21260W        W21460   1.125   0.060   3.134 -0.2271  0.0666  0.1183
21261W        W21461  12.508   3.006  14.830  0.0675 -0.0372  0.2453
21262W        W21462  13.956  13.947   1.866  0.1129  0.0060  0.0263
21263W        W21463  14.675   8.908  12.299 -0.1715  0.1233 -0.0896
21264W        W21464   6.735   7.487  11.579  0.0291 -0.3250  0.0922
21265W        W21465  10.143   8.515   6.357  0.0162 -0.2325 -0.1706
21266W        W21466  12.442  13.547   0.113  0.2794  0.2111 -0.1063
21267W        W21467  11.890   9.662  13.240  0.0513 -0.1313  0.2188
21268W        W21468   9.627   0.859   0.347 -0.0621  0.0981  0.1083
21269W        W21469  10.076   4.904   7.219 -0.1325  0.0735  0.0934
21270W        W21470  12.947   8.701   3.806 -0.1077  0.0959  0.1328
21271W        W21471  13.186   2.666   8.675 -0.0602 -0.1285 -0.2791
21272W        W21472  12.680   5.240   9.367 -0.1856  0.2100 -0.0508
21273W        W21473   3.667   0.392  15.112 -0.2299 -0.2321 -0.0026
21274W        W21474   0.048   5.182   1.951 -0.2194 -0.1571 -0.2707
21275W        W21475   0.200  14.397   7.930 -0.0104 -0.0739  0.1794
21276W        W21476   0.860   6.085   7.822 -0.0153  0.2433  0.2125
21277W        W21477   1.699  13.497   7.886  0.1452 -0.3856  0.2744
21278W        W21478   9.885  14.054   7.868  0.2620  0.0471  0.3722
21279W        W21479   1.851   0.670   6.888 -0.1511  0.0822  0.4132
21280W        W21480  10.662  13.886   7.169  0.1964 -0.1152  0.0335
21281W        W21481   3.111   3.850   7.905  0.2039 -0.0648  0.2396
21282W        W21482   8.560   5.426   1.073  0.1227 -0.1817 -0.1030
21283W        W21483   9.319   4.663   2.539  0.0986  0.2037 -0.2142
21284W        W21484  15.165  11.156   7.151  0.0542  0.0537  0.2844
21285W        W21485   8.455   1.934   1.607  0.1995  0.3065 -0.4308
21286W        W21486   4.853   6.403   7.305 -0.0732 -0.2439  0.2101
21287W        W21487   5.888  14.587   8.816  0.0197 -0.0968  0.0718
21288W        W21488  14.570  13.295   8.214  0.1960 -0.4407 -0.0761
21289W        W21489   0.046   0.362  12.164 -0.2492 -0.3163 -0.0533
21290W        W21490  14.556   5.211   5.196  0.1234  0.0526  0.0296
21291W        W21491  10.440  14.635   2.747  0.1489  0.1136  0.0396
21292W        W21492   7.583  11.476   7.737 -0.0821 -0.2356  0.1229
21293W        W21493  13.631  11.882   1.455 -0.2021 -0.2909 -0.1063
21294W        W21494   9.003  13.424   2.870  0.2630 -0.1882  0.0384
21295W        W21495   9.325   5.811   7.617 -0.0324 -0.0881  0.0357
21296W        W21496  13.328   1.934   9.401 -0.2940 -0.0538 -0.1228
21297W        W21497  11.238   6.248   4.578 -0.4841 -0.2666 -0.2580
21298W        W21498   2.467   0.330  10.302 -0.0220  0.1963 -0.1046
21299W        W21499   2.349   0.824   2.023 -0.1530  0.1957 -0.2539
21300W        W21500  14.365   3.086   4.643  0.0087 -0.2081  0.0475
21301W        W21501   7.076   7.120  13.239  0.2095  0.3686  0.0229
21302W        W21502  14.377   6.874   2.488 -0.1083  0.0298  0.1142
21303W        W21503   5.205   1.482   5.670  0.4654  0.1918  0.0083
21304W        W21504  11.933   0.171  13.464  0.1841 -0.2923  0.1370
21305W        W21505   8.121   6.035  12.189  0.1802 -0.2176  0.1836
21306W        W21506   2.682  13.307   6.592 -0.2569  0.0883  0.1475
21307W        W21507   2.554   5.390   1.961  0.0600  0.1158 -0.0157
21308W        W21508  14.139  14.603   3.430  0.0447 -0.1560 -0.0229
21309W        W21509   4.660   9.106   6.953  0.1154 -0.0993  0.0888
21310W        W21510   2.797  12.897   2.709 -0.1216  0.2619 -0.2501
21311W        W21511  12.507   2.284   3.092 -0.1028 -0.0279 -0.0699
21312W        W21512  12.725   3.558  10.621  0.1672 -0.0542 -0.0905
21313W        W21513  13.592   3.661   6.808 -0.1582  0.2603  0.0188
21314W        W21514  10.034   0.186   8.552 -0.1635  0.0170 -0.1885
21315W        W21515  12.581   0.183   3.904  0.1531  0.0460  0.0843
21316W        W21516   2.075  13.953   3.565  0.0581 -0.0702 -0.0684
21317W        W21517  10.487   9.871   3.586  0.1279  0.1899 -0.2154
21318W        W21518   2.922   0.507  13.517 -0.2320 -0.0995  0.1793
21319W        W21519  12.287  13.781  14.804 -0.2104  0.0433 -0.0749
21320W        W21520   0.106  10.930   5.091 -0.1648  0.0197  0.2567
21321W        W21521  14.528   4.129   6.545  0.1879  0.1526 -0.0113
21322W        W21522   3.725   3.090   5.713  0.2288  0.0147 -0.1378
21323W        W21523   4.862  13.552   7.647 -0.1467  0.0825  0.2988
21324W        W21524   9.267   2.439   3.035  0.0248  0.0331 -0.3078
21325W        W21525  13.816   0.262   3.032  0.0847 -0.4483  0.0597
21326W        W21526  12.408  10.686   4.620 -0.1761  0.0903  0.2241
21327W        W21527   0.348   0.613   3.372 -0.4099 -0.2549 -0.2599
21328W        W21528   7.998   4.955   6.199  0.1213 -0.0477  0.0002
21329W        W21529   0.379   0.118  14.679 -0.1867  0.1075 -0.0007
21330W        W21530  13.431   3.110   1.343  0.2683 -0.0703  0.1174
21331W        W21531   0.622   3.962  10.974  0.2451 -0.2690 -0.0526
21332W        W21532   1.621   5.146   9.947 -0.0556 -0.1205 -0.1330
21333W        W21533   9.871   2.844  12.770 -0.2106 -0.1654  0.0777
21334W        W21534   9.209  11.977   4.169 -0.3391 -0.1991  0.2507
21335W        W21535  12.121   8.885   9.880 -0.1345  0.2053  0.0921
21336W        W21536   8.117  13.832   5.963 -0.0018  0.1967  0.1715
21337W        W21537   7.528   4.747  13.615  0.0267 -0.1591 -0.2621
21338W        W21538   3.339   4.718   7.237 -0.2817 -0.0807 -0.0345
21339W        W21539  11.106   0.862   0.182  0.0534 -0.1442 -0.2977
21340W        W21540   2.125   2.130   9.177 -0.2763 -0.2066 -0.0223
21341W        W21541  14.873  13.555   3.335  0.3251 -0.0503  0.1189
21342W        W21542  11.398  11.222   4.739  0.0237 -0.2017  0.3245
21343W        W21543   9.416   2.982  15.047  0.0233  0.1868  0.0095
21344W        W21544   8.449   4.771   9.136 -0.0474 -0.2780 -0.0288
21345W        W21545   0.374   1.409   9.703 -0.1224 -0.3166 -0.0479
21346W        W21546   1.947   3.524  12.720 -0.1151  0.0046 -0.0875
21347W        W21547  13.194   3.013   4.768  0.1951 -0.1159 -0.3589
21348W        W21548  11.492   0.834  10.913  0.2800  0.2084  0.1574
21349W        W21549  12.913   1.222  13.878 -0.0047  0.2480 -0.0936
21350W        W21550   5.599   4.303   4.700  0.0461  0.0120 -0.0171
21351W        W21551   0.825  14.714  14.942 -0.0163  0.0383 -0.0454
21352W        W21552   3.008   2.069  10.795 -0.2460  0.1299  0.3310
21353W        W21553   3.651   5.903   7.820  0.1426 -0.1154 -0.0510
21354W        W21554  14.322   5.181  14.590  0.3135  0.2750 -0.1527
21355W        W21555   6.130  11.079   0.544 -0.0518  0.2012 -0.3707
21356W        W21556   2.796   0.338  10.688 -0.1932 -0.1333  0.3601
21357W        W21557   4.223   4.824   2.411 -0.1339  0.2582 -0.0864
21358W        W21558   0.885  12.338   0.433 -0.0070  0.1737  0.1601
21359W        W21559  14.788   3.666   7.277 -0.0517 -0.0355  0.0044
21360W        W21560  14.141   4.212  12.618 -0.1943 -0.1090 -0.0654
21361W        W21561   0.098   0.698   4.982 -0.1501  0.1176  0.0547
21362W        W21562  13.662  12.655   5.058 -0.1138  0.3704 -0.0833
21363W        W21563   0.405   3.416   1.212  0.2839  0.0403  0.1829
21364W        W21564   6.196   7.408   8.092 -0.1647  0.1433 -0.0812
21365W        W21565   3.911   6.799  12.707  0.0094  0.0337  0.1877
21366W        W21566   7.336  13.508  12.038 -0.1096 -0.1458 -0.1043
21367W        W21567   6.500  10.123   8.216 -0.0944 -0.0548 -0.0777
21368W        W21568   2.655   7.442  11.554 -0.3522 -0.2253  0.2772
21369W        W21569   4.831  12.198   6.563 -0.1842  0.1430  0.2732
21370W        W21570  13.104   9.284   4.506  0.0035  0.1985 -0.0407
21371W        W21571   1.342   4.158  13.328 -0.0502  0.0292 -0.2219
21372W        W21572   3.720   4.632   5.737  0.1630 -0.3350 -0.1066
21373W        W21573   9.453   1.453  10.789  0.3242  0.0077  0.0184
21374W        W21574   4.043   3.405   3.785  0.2952  0.0548  0.1321
21375W        W21575  11.942   3.738   8.966 -0.0117 -0.1878 -0.1113
21376W        W21576   9.792  13.308   7.423  0.2024 -0.1623  0.1643
21377W        W21577  13.729   3.710   9.483  0.0269  0.0661 -0.1589
21378W        W21578  12.244   6.502   3.340 -0.1482 -0.0597  0.0616
21379W        W21579   3.927  14.870   4.882  0.1190  0.0390  0.0911
21380W        W21580  10.873  11.231   5.047  0.2375  0.1295 -0.0527
21381W        W21581   5.633  11.225   0.606  0.0519 -0.1060 -0.1462
21382W        W21582  10.067  12.862   0.644  0.0789 -0.1668 -0.1947
21383W        W21583   0.734   7.889   3.812 -0.3750  0.1032  0.2740
21384W        W21584  13.139   6.111   8.024  0.1236 -0.0585 -0.0691
21385W        W21585   6.077   2.587  11.930 -0.0061  0.0402  0.0181
21386W        W21586   1.398   4.612   4.579 -0.1900 -0.0837 -0.0069
21387W        W21587   0.650  13.538   4.679  0.1465 -0.0966 -0.0896
21388W        W21588  12.339   9.956   5.626 -0.1377 -0.1107 -0.0190
21389W        W21589   8.540   4.426   8.160  0.1116  0.0708 -0.0289
21390W        W21590   2.302   0.364   7.627  0.0563 -0.1187 -0.1568
21391W        W21591   2.416  11.747   5.730 -0.0485  0.0309  0.1674
21392W        W21592  12.102   1.618   1.673  0.4178 -0.0509  0.1116
21393W        W21593  13.443   7.653   0.349 -0.3751 -0.1866 -0.0916
21394W        W21594   4.763   5.020  13.599  0.1028  0.1717  0.3262
21395W        W21595  12.196   5.779   5.086 -0.1029  0.1529 -0.1505
21396W        W21596   1.696  12.939   4.077  0.1002 -0.1477 -0.0503
21397W        W21597   6.642   0.416   4.302 -0.0519 -0.3141  0.0064
21398W        W21598   9.631  12.444   1.007 -0.2162 -0.0307  0.1448
21399W        W21599  13.370  12.424   3.340  0.4208  0.0885 -0.2252
21400W        W21600   3.305   5.293   4.052 -0.0171  0.1570  0.1847
21401W        W21601  14.947  13.660   1.079 -0.2278  0.3087 -0.0421
21402W        W21602   2.242   3.269  14.804 -0.1025 -0.1105 -0.1185
21403W        W21603   6.490   8.374  10.757  0.2436 -0.2509  0.0399
21404W        W21604   0.134  11.602   7.982 -0.1775  0.0484 -0.1029
21405W        W21605  13.347   1.101   8.073 -0.3507 -0.0291 -0.2952
21406W        W21606   0.154  11.709   2.750 -0.1857 -0.0280  0.1306
21407W        W21607   4.900   7.324   7.605  0.3738  0.1068  0.2950
21408W        W21608   8.767   0.877  10.444 -0.2073  0.0251  0.0748
21409W        W21609   9.342   0.559   6.744 -0.0444 -0.1416 -0.1809
21410W        W21610   1.136   2.534   6.495  0.1862  0.0132  0.0892
21411W        W21611  13.768   3.421   4.134  0.1206  0.0072 -0.0026
21412W        W21612  12.556   2.913   3.142 -0.1329  0.1967  0.2174
21413W        W21613   4.977  10.907  10.057 -0.0152  0.2719  0.3782
21414W        W21614  12.750   3.003  11.256  0.1006 -0.0193  0.1124
21415W        W21615  12.109  12.193  14.615  0.1414  0.1201 -0.2841
21416W        W21616   2.769  14.391  13.724 -0.1636 -0.1572 -0.1238
21417W        W21617   7.349   0.391  12.585 -0.0180 -0.1405  0.0475
21418W        W21618  12.375   5.946   8.846  0.0074  0.3270  0.0234
21419W        W21619   0.189   2.841  14.037  0.2103 -0.1478  0.0044
21420W        W21620  14.641   2.933  15.030 -0.1552  0.2008 -0.1513
21421W        W21621  13.939   6.999   5.969  0.3243 -0.1862 -0.0804
21422W        W21622   2.360  12.670   2.187  0.2562 -0.0213 -0.0477
21423W        W21623   3.020  12.071   7.328 -0.2476 -0.1419  0.0239
21424W        W21624  12.721   3.065   4.535 -0.1235  0.0976  0.0805
21425W        W21625   1.564  13.942   7.594 -0.1022 -0.0040  0.0475
21426W        W21626  14.556   3.243   4.135 -0.2294 -0.2133  0.1917
21427W        W21627  15.007   4.599   5.736  0.1937  0.0899 -0.3508
21428W        W21628   1.399   3.632   0.793  0.0961 -0.0623  0.1647
21429W        W21629  13.580   2.579   2.097 -0.1072  0.1924 -0.4742
21430W        W21630  12.011  13.038   3.313  0.0156  0.4290  0.2046
21431W        W21631  14.678   3.718  10.111 -0.3356  0.0350 -0.5292
21432W        W21632  11.305   0.916  10.392  0.1577  0.1618 -0.1611
21433W        W21633  10.992   5.084   8.294  0.3740 -0.0367 -0.2476
21434W        W21634   8.941   3.321  10.143 -0.1725  0.1612 -0.2409
21435W        W21635  10.649  12.771   9.814  0.1699 -0.0568 -0.2002
21436W        W21636  13.109  14.925   8.289 -0.3086  0.0982  0.3511
21437W        W21637   2.861  13.969   1.131  0.0337 -0.2754 -0.1028
21438W        W21638   0.137   0.415   6.940  0.2079 -0.0979  0.1506
21439W        W21639   4.678  13.763   5.463 -0.0271 -0.0255  0.0585
21440W        W21640  12.071   0.357   2.164  0.0765  0.1058 -0.0465
21441W        W21641   2.918  13.952  14.773  0.0049  0.1049  0.0939
21442W        W21642  12.355   3.247   8.056  0.1483  0.0473 -0.0020
21443W        W21643   6.477   2.257  13.013  0.0338 -0.0874 -0.6766
21444W        W21644   5.459   0.211  13.570 -0.0624  0.2247 -0.1106
21445W        W21645   5.530  14.225   3.623 -0.1281 -0.0540 -0.2096
21446W        W21646   7.077   3.382   9.375 -0.1750 -0.0477  0.2222
21447W        W21647   9.377   4.592   6.769 -0.3944 -0.1187  0.0656
21448W        W21648   8.144  11.769   9.451 -0.3062 -0.1584  0.1231
21449W        W21649  12.085   5.364   1.256 -0.0380  0.1941 -0.0178
21450W        W21650   8.970   2.491   0.151  0.2203 -0.2074  0.0170
21451W        W21651  12.739   2.618   7.422 -0.2185  0.3574  0.0907
21452W        W21652   0.562   2.578  14.481 -0.0910  0.2267  0.1556
21453W        W21653  12.513   3.984   2.894 -0.2575  0.2006 -0.1046
21454W        W21654  12.573  10.990   4.197 -0.2837  0.2469 -0.0733
21455W        W21655  13.558  13.829   9.327 -0.0452 -0.5507 -0.0844
21456W        W21656   1.927  11.338   6.818 -0.2203 -0.2214 -0.0326
21457W        W21657  10.765  10.314   1.670 -0.0731  0.2930  0.2081
21458W        W21658  14.115  14.936  11.822 -0.0970  0.3331  0.0980
21459W        W21659   9.928  14.246  12.019  0.1179  0.1631 -0.2564
21460W        W21660  10.014   8.704   3.332 -0.1320  0.0967  0.0976
21461W        W21661   5.779  13.134  11.489 -0.0550 -0.1154  0.1796
21462W        W21662  14.220  14.698   6.749  0.4449  0.2415 -0.1429
21463W        W21663  12.945   1.720   3.720 -0.3345  0.1602 -0.1780
21464W        W21664   4.277   8.122   9.712  0.1681 -0.1016  0.0647
21465W        W21665  13.871   0.010  12.108  0.2308  0.3211  0.2062
21466W        W21666  10.575  10.305  14.610 -0.0800  0.2895  0.0193
21467W        W21667  12.586  14.770   1.978  0.2190 -0.0426 -0.0936
21468W        W21668   7.061   5.043  13.656  0.0427  0.2533 -0.1239
21469W        W21669   9.328   6.178   2.338  0.1308 -0.0251  0.0575
21470W        W21670  12.692   5.126   0.221 -0.1910 -0.2696  0.1649
21471W        W21671   5.005   4.571  10.518  0.3702 -0.0080  0.3001
21472W        W21672  14.486  12.326   3.249 -0.0277  0.2538 -0.1343
21473W        W21673  14.627   3.180   2.039 -0.1362  0.1891  0.1079
21474W        W21674  12.247  13.989   8.438 -0.2463  0.1953  0.1192
21475W        W21675   0.907   2.559   8.831  0.0705  0.2883  0.0074
21476W        W21676   3.929   2.543   8.332 -0.0437  0.0780 -0.0570
21477W        W21677  14.799   2.103  14.415  0.1525  0.3211 -0.0009
21478W        W21678   7.028   5.598  14.134 -0.2363  0.1212  0.1360
21479W        W21679  12.292  11.191  14.045  0.2089  0.0004  0.1153
21480W        W21680  10.050   1.479  13.097 -0.1183 -0.5950  0.1649
21481W        W21681   9.741   8.976   5.706  0.0454 -0.0623  0.2554
21482W        W21682  12.213  12.896   5.962  0.4201 -0.2161  0.0265
21483W        W21683  14.203   3.275   3.815  0.0303 -0.2166 -0.1890
21484W        W21684  10.431   8.793   6.707 -0.0269 -0.0830 -0.2914
21485W        W21685  10.512   5.348  11.451  0.0695 -0.0288  0.1394
21486W        W21686   1.612   3.409   4.085  0.3540 -0.2890  0.0794
21487W        W21687   5.750   1.945  11.197 -0.3847 -0.1194  0.0292
21488W        W21688   5.011   2.898   7.359  0.2886 -0.0977 -0.0732
21489W        W21689   0.527   5.549   8.477  0.2600 -0.1208 -0.0819
21490W        W21690   5.030  10.140   1.530 -0.1703 -0.5568  0.0635
21491W        W21691   9.342   4.420  13.377 -0.0658  0.1017  0.0638
21492W        W21692  11.044  12.657   8.899  0.0381 -0.0449 -0.0696
21493W        W21693   0.126   6.957   5.697  0.1191 -0.0717  0.0582
21494W        W21694   9.777   4.693   3.894 -0.3703  0.3931 -0.0035
21495W        W21695   3.000   6.936   6.534  0.3496 -0.1673 -0.2303
21496W        W21696   8.875   9.206   2.036 -0.0645 -0.2705 -0.3575
21497W        W21697  12.027   2.325   8.862  0.2613  0.1391 -0.1634
21498W        W21698   7.570   1.861   6.148 -0.1872 -0.1145 -0.3352
21499W        W21699  14.930   2.118   2.770  0.2389  0.2079 -0.0628
21500W        W21700  10.691  13.305   8.415 -0.1563 -0.0307 -0.0801
21501W        W21701   1.865  11.776   3.387  0.0259 -0.0614 -0.2258
21502W        W21702   0.271   5.946   9.684  0.0696  0.0066  0.0772
21503W        W21703  14.178   6.029   7.123 -0.1838 -0.0763 -0.2726
21504W        W21704  10.116   3.285  11.647 -0.1482  0.1047  0.3208
21505W        W21705   0.795  10.245  13.997  0.0182 -0.1102  0.0928
21506W        W21706  14.430  14.470   6.265  0.0311 -0.4941 -0.0893
21507W        W21707  14.395   2.563   8.555 -0.1101 -0.3014 -0.1798
21508W        W21708   3.684   2.032   3.353  0.1398  0.1513 -0.3026
21509W        W21709   1.360   1.605   2.620  0.2266 -0.0875 -0.1650
21510W        W21710   6.433  11.569  13.917  0.0100  0.1798 -0.1047
21511W        W21711  12.383   1.671   7.570 -0.2092 -0.0696 -0.0557
21512W        W21712  14.691   3.558  11.482  0.0681 -0.0894 -0.0349
21513W        W21713  12.585  12.589   2.105  0.2157 -0.0179  0.1058
21514W        W21714   9.217  11.674   8.458 -0.0689 -0.3598  0.2305
21515W        W21715   5.037  12.198   8.854  0.0453  0.0057  0.3332
21516W        W21716  11.100  14.394  14.159  0.0641  0.0400 -0.2373
21517W        W21717   4.794   9.607   7.004  0.1375 -0.0747 -0.0289
21518W        W21718  12.166  13.417  10.926  0.2254 -0.1303 -0.2051
21519W        W21719   6.277   1.797   2.131  0.0348  0.2121 -0.1205
21520W        W21720  12.060   5.589   7.519 -0.0541 -0.0008 -0.0991
21521W        W21721  13.598   6.607   5.109  0.0257 -0.4346 -0.2642
21522W        W21722  11.224   1.650  10.660 -0.2327  0.0587 -0.0428
21523W        W21723   7.581   8.026   8.403 -0.2504  0.1047 -0.1370
21524W        W21724   1.373  14.814  13.493 -0.0800  0.0189 -0.0625
21525W        W21725   2.792   5.245   8.883  0.0206 -0.2831  0.0474
21526W        W21726   0.504   1.582   2.818 -0.0343 -0.1965  0.2271
21527W        W21727   1.072  14.154   5.998  0.1096 -0.1637  0.1591
21528W        W21728   6.458  11.203   5.178 -0.1957 -0.1492  0.2476
21529W        W21729   0.527   0.274   8.352 -0.0870 -0.2473 -0.3515
21530W        W21730  15.038  11.544   4.316  0.0593  0.1950  0.1183
21531W        W21731  15.062   0.460   4.214 -0.2208  0.0574  0.0422
21532W        W21732   8.354   0.812   9.550  0.1482  0.1932 -0.1002
21533W        W21733   5.394   3.544   3.750 -0.1640 -0.1139 -0.0110
21534W        W21734  14.395  15.022  13.532 -0.5608 -0.3077  0.1009
21535W        W21735   4.196   2.460   9.690  0.3778 -0.3554 -0.1147
21536W        W21736   9.454   0.636   1.895 -0.0402 -0.1661  0.1517
21537W        W21737  12.900  14.473  10.318 -0.2039  0.2202 -0.0427
21538W        W21738  14.127   0.831   8.628  0.3335  0.0760  0.2578
21539W        W21739   1.537   2.837  14.140  0.1021 -0.0029  0.0261
21540W        W21740   7.865   5.441  10.546 -0.1743  0.2433 -0.2560
21541W        W21741  10.888   4.072   6.642  0.2862 -0.0605 -0.0554
21542W        W21742  13.760   4.417   1.534 -0.0096 -0.2672 -0.2267
21543W        W21743  12.984   4.914  10.178 -0.0337  0.0421 -0.0906
21544W        W21744   7.605  12.479   7.279  0.1661  0.1933  0.0847
21545W        W21745  10.344   4.691   6.301  0.2234 -0.3366  0.2509
21546W        W21746  11.165   4.805   3.223  0.0186  0.1527  0.1409
21547W        W21747   9.040  13.908   5.639 -0.1324 -0.0637  0.2350
21548W        W21748   6.717   9.791   0.013 -0.2244  0.3337 -0.0952
21549W        W21749   9.608  14.684  11.696 -0.0085 -0.0500  0.1000
21550W        W21750   8.314   0.007   2.473  0.2491 -0.0100  0.0025
21551W        W21751  13.583  14.566   7.647  0.0747 -0.0325 -0.0508
21552W        W21752   5.810   4.021   0.342 -0.0461 -0.1518  0.1381
21553W        W21753   7.829   5.140   7.689 -0.1860  0.2389 -0.0317
21554W        W21754   0.045   1.374   2.621 -0.1987 -0.0802 -0.0707
21555W        W21755  14.854   4.412   3.428  0.0293  0.1260  0.1623
21556W        W21756  12.239   1.498   4.335  0.1336 -0.2491 -0.0919
21557W        W21757  13.973   6.475   9.512 -0.3952  0.3341  0.0905
21558W        W21758   1.111   5.667   6.078  0.4692  0.1924  0.0509
21559W        W21759  10.982   8.521   3.734 -0.0831 -0.0229 -0.0829
21560W        W21760  11.765  13.446   1.128  0.0458  0.0256  0.0166
21561W        W21761  12.553   8.715   6.131 -0.1215 -0.2058  0.0034
21562W        W21762  11.532   5.345   4.377 -0.1178  0.0118 -0.1226
21563W        W21763  12.967   6.164   0.809  0.1836  0.0250  0.0836
21564W        W21764   8.997  12.784  11.087 -0.1642  0.1005  0.2346
21565W        W21765   0.222  10.491   6.018 -0.1132 -0.1048 -0.4118
21566W        W21766   5.228  14.354   6.995 -0.0119  0.1628  0.3760
21567W        W21767  13.025   4.239   7.961 -0.3215  0.1052 -0.0824
21568W        W21768  10.086   5.331   1.218  0.4251 -0.0306  0.4582
21569W        W21769   1.956   2.129   5.605 -0.0370 -0.1057 -0.3188
21570W        W21770   5.232   4.767  12.674  0.1283 -0.1437  0.0253
21571W        W21771  12.261   1.427  13.871  0.1535 -0.2915 -0.1215
21572W        W21772   0.483   5.214  11.470  0.1219  0.3465 -0.1178
21573W        W21773   2.875  14.798   5.317  0.1947 -0.2364  0.0881
21574W        W21774  11.071   0.432   7.804 -0.1443 -0.1547 -0.0190
21575W        W21775  11.564   8.708   7.199  0.0462 -0.2515  0.0860
21576W        W21776   5.305  10.810   5.745 -0.0183  0.2630  0.1378
21577W        W21777  14.757  13.267  14.217 -0.0431 -0.0256  0.2345
21578W        W21778  10.100   2.745   3.650 -0.0941 -0.1158  0.4163
21579W        W21779   9.092  10.556   9.517 -0.1391  0.0900 -0.0833
21580W        W21780   5.550  10.339   5.795  0.0971 -0.1225  0.2593
21581W        W21781   9.135   0.082  13.739  0.1148  0.0378  0.1358
21582W        W21782  12.104   2.956  14.331 -0.0293  0.3696 -0.2210
21583W        W21783   4.750  14.617   9.429  0.0538 -0.2326 -0.2091
21584W        W21784  13.250   2.216   8.023  0.1573 -0.2008 -0.1815
21585W        W21785  14.524   1.628  12.351 -0.0993 -0.0658  0.2084
21586W        W21786   1.466   7.072  12.586  0.2420  0.2685  0.3809
21587W        W21787   0.622  14.732  11.984  0.0845  0.0934 -0.0549
21588W        W21788   8.019   2.841   7.524 -0.3305 -0.0835  0.2236
21589W        W21789  14.366  13.632  14.019  0.1715 -0.1191  0.1773
21590W        W21790  13.669   4.774  12.054 -0.0019 -0.0464  0.2393
21591W        W21791  10.616   3.582   3.919 -0.0790 -0.3270  0.1867
21592W        W21792  14.230   4.028   8.788  0.0117 -0.0955 -0.0235
21593W        W21793  12.825   1.854   8.747 -0.0328 -0.0674  0.0147
21594W        W21794  12.076   9.682   4.631  0.1199  0.2142  0.1590
21595W        W21795  11.861   0.818   4.040 -0.0467 -0.0443 -0.0303
21596W        W21796  13.931   3.384   4.599 -0.2083 -0.0630 -0.0186
21597W        W21797  11.961  14.866  13.240 -0.2253  0.0802 -0.0053
21598W        W21798  12.605   5.711  12.226 -0.0798 -0.2507  0.1713
21599W        W21799  11.377   2.806   8.306 -0.0644  0.0818  0.1391
21600W        W21800  15.189  14.768   5.808  0.0066  0.1981 -0.0269
21601W        W21801  12.426  12.414  13.650 -0.2743 -0.1485 -0.2175
21602W        W21802   7.250   3.588   3.619  0.3572  0.0936 -0.0688
21603W        W21803  11.604  14.675   9.249 -0.0227  0.0492 -0.2491
21604W        W21804   7.840   2.261  13.169 -0.0141 -0.2095  0.2669
21605W        W21805   1.823   8.130   1.338  0.1198  0.1311  0.3971
21606W        W21806  12.306   4.899   9.473  0.0971  0.1247  0.3625
21607W        W21807  10.547  11.447  11.446  0.1775 -0.0214 -0.0492
21608W        W21808  10.303   8.477   8.751 -0.1909  0.0331  0.2951
21609W        W21809   5.267   8.607   2.809  0.3118 -0.0603  0.1661
21610W        W21810   1.791   3.280  10.460  0.2992  0.3010  0.5964
21611W        W21811  13.249   7.426  10.042  0.2441  0.0402 -0.0213
21612W        W21812  13.706  14.460   7.037 -0.0263 -0.2294  0.5128
21613W        W21813   0.785  15.091   2.032  0.3035  0.0247  0.2954
21614W        W21814  10.059   1.567   8.657 -0.2244 -0.0949  0.0229
21615W        W21815   0.802   6.075   3.890  0.1580  0.0176 -0.1241
21616W        W21816  14.080   5.257   2.599  0.1558  0.4568 -0.1901
21617W        W21817   0.704  14.229   8.038  0.1240  0.2085  0.2262
21618W        W21818   6.874   2.535  13.298  0.0126 -0.1150 -0.0072
21619W        W21819   4.872   2.385   5.483 -0.0857  0.2157  0.4573
21620W        W21820  13.414   4.378   2.584 -0.0356  0.2904 -0.3598
21621W        W21821   2.767  11.971  14.157 -0.2438 -0.0745 -0.1505
21622W        W21822   4.912  11.501   3.708 -0.2385 -0.3811  0.1897
21623W        W21823  12.050   0.395   0.236  0.0217 -0.0461 -0.1363
21624W        W21824  10.386  11.221   7.040  0.3747  0.1523  0.1495
21625W        W21825   0.386   5.600   7.359 -0.0691  0.1435  0.2461
21626W        W21826  11.245   7.454   9.948  0.0283  0.1993 -0.3162
21627W        W21827  11.384  10.009   7.748  0.2597  0.2973  0.2000
21628W        W21828   4.821  13.111   7.865 -0.2257 -0.1971 -0.0861
21629W        W21829   7.171   4.075   3.723 -0.0653  0.3384  0.2888
21630W        W21830   7.139  10.263   0.647  0.2866  0.0085 -0.1970
21631W        W21831  10.910   9.889  12.338 -0.2472  0.3032  0.0628
21632W        W21832   4.312   8.733   6.128  0.0411  0.1568 -0.4551
21633W        W21833  14.297   1.555   5.139 -0.2382 -0.1710  0.0725
21634W        W21834  12.059   4.019  10.349  0.0316 -0.5423  0.1399
21635W        W21835   1.946  11.174   2.688  0.1418 -0.1587 -0.1933
21636W        W21836  10.191   2.801   8.662  0.2454  0.1409 -0.0685
21637W        W21837   7.401   2.584   0.018 -0.0842  0.2747  0.0780
21638W        W21838   0.165   0.102  10.033  0.0838  0.3346  0.1068
21639W        W21839  12.125   7.758   0.470  0.1262 -0.2349 -0.1294
21640W        W21840   0.232   3.861   1.407  0.0419  0.2666  0.0225
21641W        W21841   0.944   4.177   3.003  0.1870  0.2030 -0.1474
21642W        W21842   1.432   0.671   7.139 -0.0676 -0.1145 -0.1244
21643W        W21843  14.491   0.492   5.096 -0.1018 -0.0360  0.4596
21644W        W21844  14.347   0.825  13.291  0.0291 -0.1149  0.0868
21645W        W21845  12.369   4.075   7.180  0.1291 -0.2504  0.1291
21646W        W21846   2.938   5.354   2.371 -0.0382 -0.1706  0.1053
21647W        W21847   5.870   0.555  14.930  0.2922  0.0123  0.1440
21648W        W21848   5.539  10.823   6.774 -0.0061 -0.1228  0.1141
21649W        W21849   1.282   5.830  14.496 -0.1381  0.0694  0.1602
21650W        W21850   5.517  12.811   6.562  0.1662  0.2080  0.3067
21651W        W21851   0.123   5.705  11.678  0.2215 -0.2836 -0.3058
21652W        W21852  12.043   6.020  10.282  0.1149  0.1375  0.1311
21653W        W21853  10.217   2.046   8.852  0.1398 -0.0047 -0.1369
21654W        W21854   6.862   5.482   3.462 -0.0345  0.1150 -0.0146
21655W        W21855   9.752  14.014  10.522 -0.4392  0.1025  0.1980
21656W        W21856   1.425   4.654   5.094  0.1781 -0.0436  0.2056
21657W        W21857   7.598   0.609   6.800 -0.1089 -0.1388 -0.2150
21658W        W21858   5.571   3.528   3.266  0.4257 -0.0035 -0.3449
21659W        W21859   8.988   5.659   6.782  0.0379 -0.1187  0.2431
21660W        W21860   3.278  14.449  10.869 -0.0853  0.2935  0.2318
21661W        W21861   7.697   7.460   8.890 -0.1141 -0.1222  0.1658
21662W        W21862   1.341   2.471   7.790  0.3810 -0.0797  0.2785
21663W        W21863   2.460  13.264  14.998 -0.0451 -0.1606 -0.0945
21664W        W21864  10.028  13.285  12.605 -0.4948  0.0686  0.0635
21665W        W21865   9.717   6.908  12.154 -0.1286 -0.0900  0.2967
21666W        W21866   5.831  15.074  13.524  0.1411 -0.0063 -0.1525
21667W        W21867   4.496  10.455   6.436  0.0771 -0.1335 -0.1248
21668W        W21868  12.261   0.713   7.979 -0.1852  0.1205  0.0086
21669W        W21869   7.080   4.920   9.709  0.2552  0.2344 -0.0835
21670W        W21870   6.375   4.879   4.522  0.1092  0.2708  0.1051
21671W        W21871   7.165   1.065   8.364 -0.1697  0.0124  0.0364
21672W        W21872   6.929  14.523   3.342  0.1517 -0.0215  0.0944
21673W        W21873   2.808   2.094   7.090 -0.1228  0.0970 -0.1153
21674W        W21874  12.240  11.342   9.425  0.0398 -0.0047  0.0102
21675W        W21875  13.359   5.717   9.441  0.0697 -0.3654 -0.2427
21676W        W21876   5.745   7.660   7.955 -0.1287 -0.0741  0.1394
21677W        W21877   4.531  14.601   2.116  0.2642  0.3123  0.1260
21678W        W21878   3.467   2.693  13.356  0.2427 -0.1952 -0.0339
21679W        W21879   8.619  11.852   2.353  0.1030  0.1700  0.0345
21680W        W21880   2.374   5.873   5.594 -0.0575 -0.2785  0.3326
21681W        W21881   2.588   2.331   9.334 -0.3625  0.3551  0.3054
21682W        W21882  10.438   5.902   8.513  0.0345  0.0803  0.0929
21683W        W21883   1.900   1.329   9.080  0.3742  0.1988  0.3195
21684W        W21884   2.411   9.908   0.988 -0.0945  0.1333  0.2064
21685W        W21885  14.783   1.563   7.592  0.1201  0.2950  0.4827
21686W        W21886   8.866   3.301  10.671 -0.0808 -0.0987 -0.1045
21687W        W21887  10.517   1.192   4.021 -0.1543 -0.0691 -0.0736
21688W        W21888   1.179   5.271  10.788 -0.0279  0.0481  0.0546
21689W        W21889   8.907  14.050  11.046 -0.1497  0.0848 -0.0379
21690W        W21890  12.296  14.354   8.106  0.1349 -0.1973 -0.0669
21691W        W21891   9.815   3.960  13.286 -0.0589 -0.0411 -0.5662
21692W        W21892  12.574   3.444   5.847 -0.0140 -0.2183  0.1231
21693W        W21893  14.499   6.811   8.279  0.2805 -0.0461 -0.2813
21694W        W21894   1.195  10.703   9.932  0.0334 -0.0591  0.2029
21695W        W21895  11.716  15.183  14.202  0.0618  0.2000  0.0343
21696W        W21896   5.932  11.791   9.189  0.0675  0.0908 -0.1857
21697W        W21897  11.419  11.146   3.355 -0.0174  0.2608 -0.0486
21698W        W21898   2.358   5.394   4.278 -0.0489 -0.1492 -0.0081
21699W        W21899   0.934  14.691   5.796  0.2174  0.0423  0.4747
21700W        W21900   8.331   6.467  10.364 -0.1161  0.0644  0.0140
21701W        W21901  11.676   2.885   4.886 -0.3938  0.2905 -0.3337
21702W        W21902  14.295  14.811   5.240 -0.1861  0.0864 -0.2563
21703W        W21903   4.891   2.775   3.767  0.0082 -0.1855  0.0128
21704W        W21904   5.836   1.021   0.454  0.1557 -0.0192  0.2450
21705W        W21905  13.408   9.241   6.141  0.1538 -0.1828 -0.2431
21706W        W21906   5.073   0.082   6.045  0.0773 -0.2572 -0.1687
21707W        W21907  14.634   4.493   8.052  0.3531 -0.2073 -0.1575
21708W        W21908  14.141   2.112   7.794  0.0693 -0.1692 -0.0170
21709W        W21909   3.143   6.687  13.064 -0.0910 -0.2576 -0.0715
21710W        W21910   1.384   9.675  13.668 -0.5779 -0.2879  0.1308
21711W        W21911   1.531  14.622   3.768 -0.0996  0.0218 -0.2099
21712W        W21912  14.982   6.344   4.394  0.2569  0.1163  0.3683
21713W        W21913   5.528   8.892   9.200  0.1412  0.0395 -0.2872
21714W        W21914   8.004   5.972   9.531  0.1621 -0.2008 -0.1634
21715W        W21915  12.251   8.650   0.490  0.0081  0.1775  0.1815
21716W        W21916  10.317   9.470   7.457  0.0882 -0.2328 -0.0500
21717W        W21917   5.112   2.039   7.844  0.1090  0.0214  0.1247
21718W        W21918  12.720   0.437  12.315  0.0814  0.1062  0.1076
21719W        W21919  10.656   6.644  11.908 -0.0018  0.0839 -0.2750
21720W        W21920  12.340   3.884   4.533 -0.2210 -0.0004 -0.0441
21721W        W21921   3.465   2.067   7.789  0.0358 -0.1216 -0.0133
21722W        W21922   8.690  12.306   1.985  0.2102 -0.0854 -0.1274
21723W        W21923  11.644  12.033  12.636  0.2244 -0.0765 -0.0446
21724W        W21924  12.161  14.489   6.185  0.2226  0.0101  0.0815
21725W        W21925   5.910   2.178   3.985  0.0053  0.0394 -0.2506
21726W        W21926   7.629  14.850   7.272  0.0694 -0.5538 -0.5476
21727W        W21927   8.563   0.615   4.021 -0.4544  0.1206 -0.0753
21728W        W21928   9.401  12.703   0.632  0.0076  0.1647  0.0815
21729W        W21929   0.315   3.611  11.926 -0.2518  0.1450  0.0316
21730W        W21930  11.967   6.380   7.728  0.3180  0.1057  0.0666
21731W        W21931   0.392   1.532   7.928 -0.0000 -0.2454 -0.1142
21732W        W21932  14.377  14.792  10.761  0.0945 -0.2656 -0.0350
21733W        W21933   0.920   6.600  12.069  0.0514 -0.0554  0.0707
21734W        W21934   4.069  15.100  13.971 -0.1850 -0.1828 -0.2368
21735W        W21935  13.632  15.031  11.702 -0.0597  0.0712 -0.0764
21736W        W21936  10.629   0.864  11.594 -0.3434  0.1898 -0.0789
21737W        W21937  11.452   6.858   8.162  0.2044  0.1747  0.0180
21738W        W21938   9.753   0.924   5.822 -0.2396 -0.0529  0.0132
21739W        W21939   6.435   6.542  11.231 -0.0407 -0.2015  0.3813
21740W        W21940   4.272  10.278   1.507  0.3849 -0.1032  0.0068
21741W        W21941   7.511   2.377   5.933  0.0611 -0.2577 -0.0346
21742W        W21942   2.402   1.434  10.786  0.0693  0.0838 -0.1751
21743W        W21943  14.815   1.326   5.424 -0.3676  0.0493 -0.4651
21744W        W21944   0.904   7.087   0.337  0.1784  0.1112 -0.1258
21745W        W21945   6.197   1.445  12.545  0.4658 -0.0341  0.1109
21746W        W21946  10.474  13.828   5.338  0.1161 -0.0783  0.0036
21747W        W21947   7.411   1.825   9.009 -0.3701 -0.0241 -0.1882
21748W        W21948   0.864   2.019  12.521  0.1373  0.2512 -0.1492
21749W        W21949   1.174  13.826  12.936  0.0340 -0.1434 -0.3200
21750W        W21950  14.344   8.913   0.755 -0.2019  0.1758  0.2025
21751W        W21951   6.262   7.500   1.099 -0.0711  0.0363  0.1088
21752W        W21952   3.096   4.976  12.100  0.0485  0.0312  0.2870
21753W        W21953  14.606  15.140   4.958 -0.2015 -0.0175 -0.0165
21754W        W21954   8.263   7.404   3.158 -0.0465  0.2146 -0.3480
21755W        W21955   0.143  13.450   7.740 -0.0885  0.0740 -0.0569
21756W        W21956   8.135   0.775   4.995 -0.1023 -0.1344  0.1160
21757W        W21957   1.210   6.343  14.297 -0.0591  0.1078 -0.2361
21758W        W21958  12.690   0.277  12.760 -0.0672 -0.0478 -0.2883
21759W        W21959   0.113  10.867  10.586  0.2729 -0.0528 -0.1057
21760W        W21960  14.754  15.188  14.321 -0.2462  0.0073  0.1683
21761W        W21961  14.596   0.601   7.518 -0.1436  0.1189 -0.0929
21762W        W21962   3.747   5.673  14.221  0.0903  0.0277  0.0435
21763W        W21963   0.052   3.246  13.705 -0.1650  0.0364  0.2037
21764W        W21964  10.390  14.547  10.778  0.0562 -0.1384 -0.2350
21765W        W21965   2.276  15.072  13.568  0.1534 -0.2139  0.0114
21766W        W21966  14.574   2.424  14.079 -0.3428  0.0261 -0.0037
21767W        W21967  13.505   0.725   0.876 -0.1644  0.2936 -0.0183
21768W        W21968  10.227   4.875   8.109  0.1086 -0.0230 -0.0700
21769W        W21969   2.188  11.318   4.973  0.1253 -0.0949 -0.2548
21770W        W21970   5.027  14.285   9.083  0.1326 -0.2251 -0.2329
21771W        W21971   8.116   4.501   6.908  0.1580  0.3190 -0.1559
21772W        W21972   6.692   0.821  10.657 -0.1604 -0.2824 -0.1338
21773W        W21973  13.695   6.698   5.612 -0.0216 -0.3599  0.2522
21774W        W21974   8.638   1.973  14.788 -0.1834 -0.0410  0.2246
21775W        W21975  11.921   7.848   1.416 -0.0863 -0.0439  0.2485
21776W        W21976   1.642   4.698   8.391 -0.1161  0.0569  0.0007
21777W        W21977  13.751   4.401  10.917  0.1086  0.2743  0.2202
21778W        W21978  13.764  13.493   9.645 -0.1612 -0.1361  0.1840
21779W        W21979  13.985   1.227  10.349 -0.2288  0.1973 -0.0472
21780W        W21980  14.273   9.864  12.301  0.1223  0.1272  0.0025
21781W        W21981   1.594   1.456  12.972  0.1038 -0.2554 -0.0691
21782W        W21982   7.630   5.973  12.883  0.1436  0.1642  0.1133
21783W        W21983  15.180   5.002   4.878  0.1879  0.2377  0.0604
21784W        W21984  13.631   7.564   7.939  0.2601  0.0734 -0.0505
21785W        W21985  14.562   2.071  10.468 -0.1953 -0.0458 -0.1566
21786W        W21986   5.404   5.235   5.783 -0.1575  0.0813 -0.2106
21787W        W21987  13.040  11.310   7.339 -0.4218  0.2543 -0.2277
21788W        W21988   4.430   6.709  14.882 -0.0057  0.1446 -0.0860
21789W        W21989  14.906  13.724  10.845  0.0789  0.2355  0.1423
21790W        W21990   7.626   0.745  10.307 -0.3113  0.0125 -0.0845
21791W        W21991   8.984   6.346  11.574 -0.0259  0.0244 -0.0783
21792W        W21992   1.621   0.308   4.750  0.0468 -0.1035  0.2367
21793W        W21993  13.473   4.673   0.508  0.1322  0.3285  0.1737
21794W        W21994  10.361   3.654   8.496 -0.1182  0.1911  0.4080
21795W        W21995  13.663   0.300  12.778 -0.5063 -0.1137 -0.0223
21796W        W21996  10.538   3.597  11.751 -0.0439  0.0274  0.5131
21797W        W21997   1.087   5.664   1.455  0.2418 -0.0450 -0.1401
21798W        W21998  10.796  14.237   6.883  0.2280 -0.3169  0.1039
21799W        W21999  11.706  11.040   9.519 -0.2128 -0.0915 -0.1607
21800W        W22000   7.735  12.167   2.595  0.1977  0.1403 -0.0136
21801W        W22001   2.008   1.278   9.818  0.1637  0.0876  0.2690
21802W        W22002  13.199   2.210   3.707  0.0753  0.0540 -0.1990
21803W        W22003  10.818  11.504   6.851 -0.1041 -0.1032 -0.0784
21804W        W22004   8.043   2.940   1.527  0.0952 -0.1894  0.0298
21805W        W22005   4.851  10.449  12.254 -0.2844  0.0823 -0.1071
21806W        W22006  12.133   6.676  11.975  0.0325  0.1991  0.3193
21807W        W22007  11.960   6.393  10.600  0.0410 -0.0945 -0.3847
21808W        W22008   0.566   6.514  11.002  0.3882  0.1328  0.1241
21809W        W22009   6.522  14.467  12.312  0.1210  0.0504  0.0121
21810W        W22010  15.003   9.963   0.492 -0.2612 -0.0752 -0.0412
21811W        W22011  14.062   5.721   2.410 -0.0168  0.2958  0.0207
21812W        W22012  15.154   2.847   9.813 -0.4310  0.0595 -0.1213
21813W        W22013  12.328   4.747   5.759  0.1899 -0.0104  0.1390
21814W        W22014   1.579   7.534  13.655 -0.3561 -0.1812  0.1397
21815W        W22015  14.317   4.852   2.162 -0.0882  0.3684 -0.0326
21816W        W22016  11.446  11.152   1.929  0.0772 -0.0356 -0.1313
21817W        W22017  10.942  14.524   9.980  0.2300  0.1193  0.0477
21818W        W22018   1.634   0.129   3.020 -0.1185 -0.4887  0.2764
21819W        W22019  12.624  13.930   1.127 -0.0643  0.1874 -0.0810
21820W        W22020  12.651  13.626  12.777  0.2127 -0.1663  0.1703
21821W        W22021   3.256  13.914   3.321  0.0581 -0.0521  0.1734
21822W        W22022   4.699   1.030   9.421  0.2278  0.1366 -0.4029
21823W        W22023   9.469   2.872  11.715  0.1718  0.1857 -0.0816
21824W        W22024  13.545   2.246   0.062 -0.0525 -0.3225 -0.0458
21825W        W22025   7.929   2.787   5.996 -0.1244  0.1946 -0.1900
21826W        W22026  10.364   0.184   3.874 -0.0953  0.1544  0.3216
21827W        W22027   1.414  13.161   7.634  0.1198  0.2764 -0.0267
21828W        W22028   4.327   0.355   5.340  0.0896 -0.0075 -0.1350
21829W        W22029  13.191   4.826   2.783 -0.2682 -0.0566 -0.3524
21830W        W22030   1.422  12.373  12.178  0.0123  0.3655 -0.0475
21831W        W22031  11.386   0.730   1.448  0.0085  0.2777  0.0991
21832W        W22032  14.580   1.513   8.718  0.1872 -0.2114 -0.1683
21833W        W22033  13.655   9.888  13.284  0.2749  0.0136 -0.0642
21834W        W22034  12.371   5.605   9.232  0.0611 -0.5122 -0.0833
21835W        W22035   7.035   1.163  10.452  0.1419 -0.1090  0.0431
21836W        W22036  13.116   8.331   4.858 -0.1868 -0.0378  0.1446
21837W        W22037  13.491   4.447   6.324  0.0100  0.0159  0.0516
21838W        W22038   9.602   1.151   8.715  0.0918 -0.1809  0.1686
21839W        W22039   8.225   8.730  10.301 -0.0973 -0.0847 -0.1961
21840W        W22040  12.345  13.040   0.115  0.1098 -0.1078 -0.0986
21841W        W22041   9.855   2.600  11.451  0.3721  0.1374 -0.0436
21842W        W22042   2.597   4.273   4.365 -0.2362  0.0065 -0.0651
21843W        W22043   4.310  13.315   4.867 -0.1584 -0.0237 -0.0290
21844W        W22044   3.642   0.170  13.906  0.0809 -0.0551  0.0134
21845W        W22045   6.094   8.667  10.909  0.1800 -0.2396 -0.0566
21846W        W22046  11.029  14.039  10.173  0.1029  0.0598 -0.1238
21847W        W22047  11.938   2.103  12.139 -0.3029  0.0032  0.2434
21848W        W22048   6.808   0.230   2.633  0.2061 -0.0397 -0.3284
21849W        W22049  14.144   1.856   5.793  0.1790  0.1838 -0.2614
21850W        W22050  12.697  12.799   4.009  0.0586 -0.0494  0.1360
21851W        W22051   0.689   2.353   5.113 -0.1049  0.1342 -0.2068
21852W        W22052  12.194   5.746  12.441  0.2099  0.0945 -0.2261
21853W        W22053   8.666   2.787   0.534 -0.1702  0.0608 -0.0293
21854W        W22054   9.413   1.672   6.944  0.1058  0.1818  0.2179
21855W        W22055   9.762   4.164  10.182  0.1524  0.0688 -0.2191
21856W        W22056   5.970   0.533  11.600 -0.1182  0.0253 -0.1653
21857W        W22057  13.297   7.750   5.752 -0.1331  0.1372 -0.0327
21858W        W22058   3.773   5.621  13.134  0.0397 -0.0728 -0.2244
21859W        W22059   1.454   2.434  10.634 -0.1873 -0.0744  0.1754
21860W        W22060   3.205   9.565   7.207 -0.1738 -0.1267  0.1295
21861W        W22061  11.787   1.730  13.499  0.1796 -0.2056 -0.2723
21862W        W22062   1.078   1.525  10.887 -0.2203 -0.0041 -0.0319
21863W        W22063   2.496  12.170   4.803  0.1770  0.1266  0.0648
21864W        W22064  11.817   3.505  15.093 -0.0050 -0.3786 -0.1435
21865W        W22065   8.851  12.884   4.153 -0.1378  0.3306  0.0669
21866W        W22066  15.021  12.069  13.569  0.1687  0.0633 -0.1143
21867W        W22067   6.737   4.125  13.496 -0.0626  0.1794 -0.0979
21868W        W22068  13.020   0.364   4.615  0.0953 -0.2440 -0.0792
21869W        W22069   1.562  11.868   5.200  0.0998 -0.0643 -0.4357
21870W        W22070  12.283   3.320   6.972 -0.0334 -0.0816  0.0232
21871W        W22071  12.018  15.139  11.151 -0.1497  0.3956 -0.1407
21872W        W22072   1.495   4.061   3.070 -0.2234 -0.2951 -0.2635
21873W        W22073  11.523   0.197   6.878 -0.3082 -0.4931  0.1872
21874W        W22074  10.849   3.968   1.857 -0.0785  0.0365  0.1818
21875W        W22075   2.061   6.329  10.523  0.0589 -0.0922 -0.0047
21876W        W22076   0.230   3.573  10.162 -0.4271  0.0853 -0.2209
21877W        W22077   8.451  13.531   3.791 -0.0526  0.1365  0.2228
21878W        W22078   6.526   7.043   8.363  0.0085  0.0291 -0.1626
21879W        W22079  14.512  14.819   7.603  0.3185  0.3197 -0.0776
21880W        W22080   9.482   1.099   3.809 -0.4005 -0.0613  0.1732
21881W        W22081   4.353   0.639   9.669  0.2152 -0.1516  0.2235
21882W        W22082  13.709   7.039   8.149  0.5527 -0.0396 -0.1682
21883W        W22083   5.236   6.279   0.507 -0.0595 -0.0052 -0.1208
21884W        W22084  10.024   2.492  12.371  0.0999  0.3147 -0.0774
21885W        W22085   7.930   3.493   9.668 -0.0923 -0.0506 -0.2018
21886W        W22086  13.815  14.390   5.232  0.2700 -0.0775 -0.0113
21887W        W22087   0.192   2.598   4.971  0.2826 -0.3402  0.0027
21888W        W22088   2.228   7.074   7.159 -0.1413  0.0523 -0.1461
21889W        W22089   4.162   5.741   9.855  0.1670 -0.0255 -0.0187
21890W        W22090   6.038  13.858   9.952  0.0686  0.2564 -0.0152
21891W        W22091   9.089  12.122   2.256 -0.1054 -0.1037  0.1006
21892W        W22092   2.215   2.988  11.630 -0.1120  0.0421  0.0542
21893W        W22093   4.039  12.713  10.748  0.0724  0.0828  0.0159
21894W        W22094  15.017   5.552   2.164  0.1448  0.1421  0.3378
21895W        W22095  10.902   1.288  12.807 -0.4578 -0.3044  0.1650
21896W        W22096  14.885   8.144  12.814 -0.0368  0.1283 -0.0495
21897W        W22097  13.399  10.748   0.173  0.0236 -0.3656  0.0486
21898W        W22098   2.251   2.387  14.019 -0.1526  0.1286 -0.0883
21899W        W22099   1.722   6.322  11.412 -0.0449 -0.0726 -0.0977
21900W        W22100   1.864   0.547   2.647 -0.2044  0.1781 -0.1260
21901W        W22101  14.408   7.729  14.006 -0.0674  0.1523  0.1075
21902W        W22102  11.555   3.401   9.027 -0.2699  0.1464 -0.2288
21903W        W22103  13.518   2.516   2.592  0.1469 -0.1055  0.1633
21904W        W22104  11.811   3.137   6.963 -0.1195  0.3408  0.1678
21905W        W22105   3.586   4.078  12.803 -0.4241 -0.2069 -0.1221
21906W        W22106   9.553  14.645   4.765 -0.2529 -0.2107  0.0843
21907W        W22107   9.735   8.845   7.359 -0.0345  0.1981  0.1313
21908W        W22108  10.101  11.005   5.199  0.2205 -0.0130 -0.1640
21909W        W22109  10.372   9.760   8.800 -0.0883 -0.1308  0.0710
21910W        W22110   9.760   5.056  11.230 -0.3942  0.1784  0.0076
21911W        W22111  11.277  12.350  12.471  0.1047  0.1720 -0.0406
21912W        W22112  11.391   1.542   8.198  0.0543  0.0942 -0.2441
21913W        W22113  10.742   0.850   7.982  0.1661 -0.1793 -0.3128
21914W        W22114   0.682  10.344  14.468  0.1371 -0.1624 -0.1632
21915W        W22115   0.948   6.281   0.833 -0.3041  0.1966  0.0784
21916W        W22116   9.013  14.932   4.723 -0.3598  0.0463 -0.0475
21917W        W22117  12.719  12.851  11.263  0.2218 -0.0198 -0.1891
21918W        W22118   0.425   8.575   0.408 -0.0097 -0.0207  0.3090
21919W        W22119   6.269   0.777   8.442 -0.1377 -0.0507  0.3155
21920W        W22120   6.842   8.933  12.140 -0.0690 -0.0858  0.1752
21921W        W22121   5.633   8.366   0.408  0.4197 -0.1631 -0.3385
21922W        W22122   4.187   5.490   6.158  0.2773 -0.0455  0.1911
21923W        W22123   3.206   1.289   4.359 -0.1621 -0.2537 -0.0962
21924W        W22124   2.453   8.932   9.228  0.2148  0.0997 -0.2809
21925W        W22125   5.264   1.145  10.260  0.0257  0.0624  0.1367
21926W        W22126  12.909   4.115   1.650 -0.1284 -0.0352 -0.1965
21927W        W22127   2.626   2.182   2.880 -0.1838 -0.2533  0.2099
21928W        W22128   5.752   2.227  15.181  0.0970 -0.2196 -0.1351
21929W        W22129  11.548   7.419   4.336 -0.0890 -0.0498  0.0429
21930W        W22130   8.892   7.248  10.366 -0.2344  0.1633  0.1449
21931W        W22131  11.067   6.063   8.112 -0.0620 -0.0124 -0.0263
21932W        W22132   8.370  12.550  12.668  0.1310 -0.1691 -0.2713
21933W        W22133   9.724   3.139   9.543  0.1345  0.2607 -0.0076
21934W        W22134  13.374   8.236   3.375  0.3969  0.3773 -0.0273
21935W        W22135  15.011  10.302  10.046  0.2036 -0.1896 -0.0139
21936W        W22136  12.655  11.546  10.863 -0.0350  0.1849 -0.2719
21937W        W22137   3.546   9.409  13.006 -0.1146 -0.0425 -0.0001
21938W        W22138   0.741  12.119   8.383 -0.0169 -0.0956  0.2969
21939W        W22139   9.962   7.330   0.526  0.2515 -0.1989  0.0991
21940W        W22140   1.362   0.599   5.666 -0.0183  0.0847  0.1634
21941W        W22141   7.851  14.065  14.863 -0.2953 -0.1187 -0.3012
21942W        W22142   3.144  10.864  13.012 -0.1130 -0.0604  0.0643
21943W        W22143   7.488  13.252  13.208 -0.0119 -0.0537 -0.4282
21944W        W22144   1.875   6.297  10.058 -0.0741  0.1318  0.4533
21945W        W22145   0.110  12.566  14.934 -0.0110 -0.2251  0.1069
21946W        W22146   9.192  13.903   5.091  0.0238 -0.2259 -0.4773
21947W        W22147  14.491   7.981  10.046 -0.0701 -0.1945 -0.0052
21948W        W22148   8.768  12.847   2.043  0.1093  0.2056  0.0122
21949W        W22149  14.079   2.615   9.135 -0.0593 -0.2399  0.1243
21950W        W22150  11.812   9.211   7.165  0.1262  0.0737 -0.1760
21951W        W22151  13.197   8.951   6.684  0.3597 -0.0809 -0.5652
21952W        W22152   9.251  12.101   9.220 -0.3287  0.0160 -0.0025
21953W        W22153  14.860  13.415  14.938  0.0662 -0.2815 -0.0659
21954W        W22154   2.751   1.191   4.559 -0.0312  0.0292 -0.0308
21955W        W22155  12.635   3.561   4.773 -0.3057  0.1937  0.4947
21956W        W22156   8.305   1.981   0.675 -0.1071  0.0442  0.0397
21957W        W22157  13.659   4.895   2.453  0.1112 -0.0621 -0.0920
21958W        W22158   9.693   8.674  11.578  0.0769 -0.0152 -0.2316
21959W        W22159   1.361   6.575  15.059  0.0225  0.1838  0.1577
21960W        W22160   6.959   8.302   2.937 -0.0866  0.0671 -0.2237
21961W        W22161   1.383   7.247  11.745 -0.0129 -0.1011 -0.3232
21962W        W22162  13.943  11.981   7.552 -0.5255 -0.0368 -0.0825
21963W        W22163  13.458   2.054  10.518 -0.0463 -0.2246 -0.1506
21964W        W22164   4.267   7.659   6.071  0.0002  0.0546 -0.2696
21965W        W22165  13.205   2.820  11.610  0.1254 -0.0787  0.1874
21966W        W22166   7.026   7.687   4.195  0.1399  0.0798  0.0585
21967W        W22167  10.323   0.015   5.845 -0.0192  0.2928 -0.2071
21968W        W22168  11.328  13.909   5.351 -0.0602 -0.1274  0.0220
21969W        W22169   7.197   2.593   7.380  0.0805  0.0037  0.0682
21970W        W22170  15.192   7.209  11.829 -0.1019 -0.0509 -0.2878
21971W        W22171  15.003   7.929  13.803  0.0172 -0.0615  0.0312
21972W        W22172   6.614  12.052  13.878 -0.1006  0.1727  0.1715
21973W        W22173   0.812   8.834   0.242 -0.3228  0.2278 -0.1729
21974W        W22174  12.083   0.700   6.356 -0.1274 -0.3242 -0.0750
21975W        W22175  10.126  14.005   9.650  0.0773  0.1000 -0.2430
21976W        W22176   3.812  13.856   3.216  0.0116  0.0434 -0.0300
21977W        W22177   3.734   0.759   8.588  0.1336 -0.2291  0.3226
21978W        W22178  14.052  12.783   4.439  0.0556 -0.0815  0.0884
21979W        W22179   9.768   4.851   2.874  0.0424  0.2143 -0.2885
21980W        W22180   7.507  10.393   6.895  0.0030  0.2337 -0.1554
21981W        W22181  13.483  10.687   5.166  0.1424 -0.3357  0.2261
21982W        W22182   7.386   5.701  15.149  0.0650  0.1111 -0.3652
21983W        W22183   8.863   2.459  14.724  0.1901  0.0317 -0.0837
21984W        W22184   8.811   9.751   2.982  0.1168 -0.2150  0.0843
21985W        W22185   5.833   0.640   7.575 -0.0067 -0.2365  0.0945
21986W        W22186  11.212  11.150  13.822  0.2414  0.0092  0.0407
21987W        W22187   6.134   9.777  10.206 -0.2465 -0.0203  0.0310
21988W        W22188  13.472  13.012  14.256  0.0419  0.2042  0.2544
21989W        W22189   4.515  13.063   7.477 -0.1060 -0.2463  0.1059
21990W        W22190   7.262   5.556   6.295 -0.0641  0.1503 -0.1678
21991W        W22191   9.436   8.413   7.188 -0.1262 -0.1862 -0.1078
21992W        W22192  13.368   4.122   6.898  0.0614 -0.1578 -0.0138
21993W        W22193   9.537   2.645   6.802  0.2046  0.0865 -0.0880
21994W        W22194   1.699  10.279   1.325  0.1017  0.1162  0.0314
21995W        W22195  14.357   1.811   1.023  0.0113 -0.0488 -0.0131
21996W        W22196   0.527   3.256   8.253 -0.2433 -0.1588 -0.3621
21997W        W22197  12.735   9.061   7.125 -0.1617 -0.2905 -0.0921
21998W        W22198  11.059   4.564   5.542  0.1957 -0.3418 -0.1812
21999W        W22199   3.587   5.150  11.333 -0.1297  0.0730 -0.1829
22000W        W22200   3.411   2.591   4.729 -0.0787 -0.0851  0.1346
22001W        W22201   1.275   3.206   5.207  0.0266  0.1957 -0.1327
22002W        W22202   7.823   1.785   9.655  0.0664 -0.1434 -0.1762
22003W        W22203   3.805  13.870   8.658  0.1125  0.0036  0.4726
22004W        W22204  14.575   7.763   9.159  0.2445 -0.1535  0.0998
22005W        W22205   4.919  14.485  11.118  0.0627  0.2245  0.0098
22006W        W22206   3.775  13.287  12.638  0.3006  0.1632 -0.1336
22007W        W22207   0.019   0.895  14.085 -0.0595  0.1517  0.1373
22008W        W22208  13.550   2.360   8.560  0.1751  0.0614  0.0549
22009W        W22209   8.515   8.640   0.604 -0.0114  0.2467 -0.2638
22010W        W22210   8.981   1.441  11.686  0.2388 -0.2021 -0.0841
22011W        W22211  13.066  12.699  11.813 -0.2819 -0.0494 -0.4959
22012W        W22212   7.198   3.517   2.640 -0.0163 -0.2716  0.1135
22013W        W22213   0.303   5.624   5.558 -0.2940 -0.1723 -0.3246
22014W        W22214  13.435   7.684  11.871  0.0642  0.1831  0.1094
22015W        W22215   2.968   2.604   9.484  0.3376 -0.2834  0.1445
22016W        W22216   4.025   3.681   6.392  0.1516  0.0207  0.1294
22017W        W22217   3.530   9.719   7.560 -0.2084 -0.1352 -0.0505
22018W        W22218   2.287  11.269   7.590 -0.0545 -0.1274 -0.1933
22019W        W22219   7.511  13.102  11.673  0.1636 -0.1642  0.4133
22020W        W22220   5.404  14.080   5.535 -0.0451  0.2390 -0.1117
22021W        W22221  13.816   5.120  13.138 -0.1421 -0.0712  0.2303
22022W        W22222   9.262  13.239  14.537 -0.1833  0.0970 -0.2033
22023W        W22223   6.241   1.796  14.323  0.0690 -0.2573 -0.1535
22024W        W22224  12.514  10.554   0.612  0.2172  0.0189 -0.0249
22025W        W22225   2.695   8.642   8.901  0.1607 -0.1787  0.2903
22026W        W22226   8.253  11.628  14.407  0.0653  0.0187  0.0313
22027W        W22227  12.959   2.904   0.484  0.1278  0.2607  0.0409
22028W        W22228   7.052  14.830  12.888  0.1791 -0.0829  0.0508
22029W        W22229   3.017  14.549  14.751 -0.2034  0.1022  0.0825
22030W        W22230   9.972  10.604  14.139 -0.0410  0.0865 -0.1907
22031W        W22231   3.555   4.578   0.622 -0.2131  0.1632 -0.2103
22032W        W22232   1.371  11.888   6.072 -0.0565 -0.0087  0.3570
22033W        W22233   6.814   6.046   9.528 -0.4837 -0.2509  0.1208
22034W        W22234  10.512   5.728   0.976 -0.1189 -0.0544 -0.0407
22035W        W22235   2.849  12.691   2.033  0.1986 -0.0559  0.0785
22036W        W22236  10.125   7.417   4.687 -0.1987 -0.0866 -0.1803
22037W        W22237   8.655   0.644  11.255 -0.3978  0.1202  0.1647
22038W        W22238   3.966  12.850   3.069  0.1510  0.1579  0.3083
22039W        W22239  12.893   5.998  13.667 -0.1703 -0.1021 -0.0921
22040W        W22240   1.271  13.329  10.476  0.1354 -0.4126 -0.2376
22041W        W22241  11.274  14.576  14.614 -0.0705  0.0462 -0.1726
22042W        W22242   5.069   6.692   9.810  0.0959  0.2370 -0.1958
22043W        W22243  13.425   8.826  12.916 -0.0672 -0.0441 -0.1299
22044W        W22244  14.296   6.223   8.976 -0.1420 -0.1880 -0.0498
22045W        W22245   2.272   3.401   0.558 -0.2946 -0.0038  0.0375
22046W        W22246   6.150   7.204   8.969  0.0763 -0.2537  0.2816
22047W        W22247   2.314   3.834  11.490  0.0921  0.0473  0.0950
22048W        W22248  14.852   3.234   0.216 -0.0190 -0.3023 -0.0196
22049W        W22249   8.467  11.118   4.033  0.3491 -0.0556 -0.0141
22050W        W22250   8.547  12.382   3.766  0.1253  0.3849 -0.0823
22051W        W22251   2.881   2.559   7.298 -0.1682  0.2361  0.1330
22052W        W22252   3.420   0.587  14.229  0.2590  0.3832 -0.0243
22053W        W22253   6.286   5.499  12.783  0.1397 -0.1499 -0.3698
22054W        W22254  14.353  10.979   8.565  0.0295  0.0047 -0.1132
22055W        W22255   9.347   4.843   8.704 -0.1771 -0.0124  0.0281
22056W        W22256   2.555   1.841   9.617 -0.2261  0.0128  0.0272
22057W        W22257   3.696  12.902   4.753 -0.1053  0.1593  0.1824
22058W        W22258   6.312   3.854   3.616 -0.1204  0.0019 -0.2722
22059W        W22259   9.180   5.552  12.865 -0.1526  0.0626 -0.0076
22060W        W22260   7.186   2.900   9.304 -0.0668 -0.0756 -0.0078
22061W        W22261   3.429   2.694   9.512  0.0800  0.3390 -0.0530
22062W        W22262  15.096   8.698   8.834 -0.3016 -0.0354  0.4015
22063W        W22263  14.063  14.668  13.701  0.0299  0.2053  0.0785
22064W        W22264  14.438  14.819   2.085  0.0634 -0.0092 -0.1772
22065W        W22265  11.655   3.348   5.235  0.1480 -0.2946 -0.1586
22066W        W22266   9.792  10.143   9.296  0.2205 -0.0053  0.3513
22067W        W22267  13.921   4.473  10.089  0.1615 -0.1397  0.0253
22068W        W22268  11.441   5.280  14.969  0.0560  0.4652 -0.1854
22069W        W22269   9.680   1.144  14.196 -0.2926 -0.0226  0.2023
22070W        W22270   1.462  15.082   3.546 -0.2941  0.1405 -0.2877
22071W        W22271   9.542  11.658  13.086 -0.0806  0.1767  0.2723
22072W        W22272   1.304   8.040   1.107  0.1365 -0.4147  0.2523
22073W        W22273  14.878  10.924  12.747 -0.0213 -0.0901  0.0248
22074W        W22274  13.547   6.716  10.815  0.0932  0.0905  0.1753
22075W        W22275  11.784  11.748  11.322  0.1972  0.0049  0.2397
22076W        W22276   3.513  10.694   8.397  0.4269 -0.1595 -0.1362
22077W        W22277  10.042   3.758  10.298 -0.2066  0.0869  0.0347
22078W        W22278   6.654  13.407   8.074 -0.0313  0.0734 -0.0277
22079W        W22279  14.012   7.084   5.473  0.0608  0.0072  0.1186
22080W        W22280  10.902   1.268  13.429  0.3919 -0.1960  0.1160
22081W        W22281  15.011   2.741   2.073 -0.0843  0.0513 -0.2867
22082W        W22282   6.561   8.005   7.036  0.0422 -0.1044 -0.0137
22083W        W22283  10.120   2.845   1.212  0.0903 -0.0875  0.0868
22084W        W22284   7.159  10.917   1.116  0.0302 -0.0870 -0.2011
22085W        W22285   9.036   3.222   5.506  0.0730 -0.0151  0.0410
22086W        W22286   2.786  13.537  11.820 -0.0740  0.1392  0.3496
22087W        W22287   2.291   0.674   1.175 -0.1551  0.2486  0.2332
22088W        W22288   5.064   4.589   2.015 -0.0051 -0.2762  0.1113
22089W        W22289   5.287   1.552   2.452  0.0142 -0.1945 -0.1311
22090W        W22290   4.976   0.154  11.226  0.0505 -0.1807 -0.1501
22091W        W22291   7.179   1.746   5.895 -0.1260 -0.2031 -0.0771
22092W        W22292  12.549   9.796   2.240  0.0509 -0.1895  0.1690
22093W        W22293  12.693   8.353  14.466 -0.4061  0.0480  0.1457
22094W        W22294   0.226  10.716  13.407  0.0748 -0.1452  0.1335
22095W        W22295  11.251  14.586   6.117  0.1610  0.2441 -0.2487
22096W        W22296  11.521   5.035  12.510 -0.0397  0.0860  0.0160
22097W        W22297   4.457   5.577   6.637 -0.1474 -0.3698  0.0239
22098W        W22298   8.236   8.818  12.858  0.1035 -0.2608 -0.0958
22099W        W22299   2.329  10.373  10.550 -0.3201 -0.0130 -0.1013
22100W        W22300   8.576   6.823   5.686 -0.1345 -0.0261  0.0904
22101W        W22301  12.179  13.262  11.425  0.1601  0.0124  0.0913
22102W        W22302  12.412   3.492   6.360 -0.0012  0.0690  0.2623
22103W        W22303  13.055   6.049  14.142 -0.2026  0.1852 -0.0739
22104W        W22304  13.377   0.200   5.457 -0.0772 -0.0978  0.1937
22105W        W22305   0.395   9.814  13.652  0.3059  0.2871  0.2215
22106W        W22306  12.467   5.228  13.919  0.0924 -0.1579  0.3723
22107W        W22307  10.155  10.299  12.383  0.2527 -0.1505  0.2007
22108W        W22308   4.600   3.903   8.584  0.0905 -0.3244  0.3754
22109W        W22309   3.894   8.237   5.352  0.0300  0.2383  0.0187
22110W        W22310   0.842   3.580  14.685  0.1246  0.2260 -0.0882
22111W        W22311   5.006   8.512   1.156 -0.0370  0.1526 -0.0025
22112W        W22312   8.439   8.097   5.153 -0.2348  0.3053  0.1997
22113W        W22313   0.564  12.672  10.486  0.1271  0.0226  0.1727
22114W        W22314   9.988  14.173  13.083  0.0433 -0.4472  0.1558
22115W        W22315   9.850   0.315   4.983  0.0340  0.0540 -0.1178
22116W        W22316   6.417   7.452   2.304  0.1338  0.0230  0.1178
22117W        W22317   1.919   4.288  12.451  0.0274 -0.0986  0.0365
22118W        W22318   0.515   4.034   3.288  0.0847 -0.4151 -0.0767
22119W        W22319  11.155   0.093   8.128 -0.0286 -0.4548  0.0712
22120W        W22320  15.148   7.415  12.434  0.0214  0.0202  0.1441
22121W        W22321   0.511   8.474  13.715  0.2718 -0.1179  0.1419
22122W        W22322  13.690   9.319  11.529  0.1830 -0.2429 -0.3118
22123W        W22323  11.603   4.563  10.346 -0.1684 -0.2385 -0.1280
22124W        W22324  10.503  10.148  12.098 -0.1487 -0.0312 -0.1420
22125W        W22325  14.409   8.517  11.451 -0.1748  0.1188  0.1526
22126W        W22326  10.651  14.598   5.444 -0.2072  0.1126  0.0659
22127W        W22327   5.667  13.445   4.848 -0.1231 -0.1142 -0.0942
22128W        W22328   2.562  11.613  10.206 -0.1589 -0.2212 -0.1177
22129W        W22329   6.129   3.135   2.615  0.2690 -0.2636 -0.1377
22130W        W22330   6.506  11.794   2.219 -0.1070 -0.0407  0.1171
22131W        W22331   9.367   8.469   2.111  0.0356  0.1446 -0.0724
22132W        W22332   8.962   7.518  10.826 -0.0385  0.0785 -0.0654
22133W        W22333  14.996  11.263  14.492  0.1227 -0.1810 -0.0983
22134W        W22334  11.253   1.492   4.407 -0.0558  0.4767 -0.1541
22135W        W22335   8.879   2.988  12.093 -0.0745 -0.0519 -0.2156
22136W        W22336   1.633   0.754   3.584  0.1823  0.1163  0.4107
22137W        W22337  13.456   2.159   5.430 -0.0597  0.0717 -0.0895
22138W        W22338   7.840   0.091   6.782  0.5587  0.0117 -0.0532
22139W        W22339  14.232   0.693   0.523 -0.0679 -0.3568 -0.1092
22140W        W22340   3.154   8.150  12.191  0.2868 -0.5993 -0.0171
22141W        W22341   8.946   4.632   7.993 -0.0367  0.0203 -0.1539
22142W        W22342  13.297   2.421   9.609 -0.0581  0.0051 -0.4257
22143W        W22343   9.606   4.017   8.180  0.0485 -0.0524 -0.2470
22144W        W22344  13.187   5.429   9.095  0.0461 -0.1942  0.2709
22145W        W22345   7.522   4.715   4.377  0.0456  0.2737 -0.3255
22146W        W22346   3.376   6.863   1.201 -0.0881 -0.0106  0.1933
22147W        W22347   4.267   3.454   5.192  0.0810  0.1739  0.1257
22148W        W22348  11.559   2.084   3.828 -0.0218  0.0395 -0.0735
22149W        W22349   9.324   0.763   3.052  0.0506  0.0006  0.3097
22150W        W22350  11.303   4.636   8.023  0.1000 -0.1717 -0.0254
22151W        W22351  13.906  15.041  14.445  0.0549  0.2605 -0.1282
22152W        W22352   0.481  13.539  14.303  0.1103 -0.0266 -0.0540
22153W        W22353   0.678   9.816   7.400 -0.2392  0.3792  0.1324
22154W        W22354  12.870   9.440   4.058  0.0248 -0.1197  0.0353
22155W        W22355  13.190   2.152   8.909 -0.0728  0.0399 -0.2677
22156W        W22356   1.804   3.293   3.033 -0.0020  0.1860  0.1806
22157W        W22357   3.665   5.999   0.334 -0.1571 -0.1336  0.0468
22158W        W22358   6.716   8.957   5.118  0.1276  0.0340 -0.2552
22159W        W22359   6.744   3.660   3.263  0.0544  0.1710 -0.1766
22160W        W22360  12.578   3.987   0.353 -0.1699 -0.0003  0.0538
22161W        W22361   2.648  12.740   1.582 -0.3357  0.3578 -0.2410
22162W        W22362   5.711   7.938   5.535  0.3311 -0.1673 -0.3179
22163W        W22363  14.101   0.833  12.190  0.1070 -0.1099  0.0062
22164W        W22364   2.152   5.105  14.701  0.0382 -0.1257  0.1516
22165W        W22365   1.116   5.601   5.051 -0.2672  0.2630 -0.0053
22166W        W22366   0.751   5.216  13.737  0.0206 -0.0993 -0.0523
22167W        W22367   5.048   4.557   5.071 -0.0608  0.0200 -0.0580
22168W        W22368  10.380   4.287   2.644 -0.0055 -0.2631  0.1987
22169W        W22369   8.101   4.756   2.111  0.0523 -0.0549  0.1907
22170W        W22370   9.169   1.259  10.385  0.2967  0.2359  0.1608
22171W        W22371   2.422   1.324   9.562 -0.1207  0.1199 -0.0834
22172W        W22372  13.585  11.575   2.885  0.0533 -0.0133  0.0934
22173W        W22373  15.007   0.133   0.273 -0.1319  0.0264  0.0473
22174W        W22374  12.558   5.180   1.391 -0.3930  0.3256  0.1692
22175W        W22375  12.273   3.075  12.032 -0.1473  0.1339  0.1131
22176W        W22376  13.894   0.820  14.309 -0.1389  0.0755  0.0920
22177W        W22377  14.622  14.127   0.434  0.1056 -0.3021  0.0051
22178W        W22378   5.279   6.957  14.291 -0.0049  0.1412 -0.0776
22179W        W22379   1.377  12.785   9.042 -0.2697 -0.0443 -0.1754
22180W        W22380  10.209  14.839  14.172 -0.1487  0.0164  0.1046
22181W        W22381   4.321   2.414   5.359  0.0336 -0.2640 -0.2225
22182W        W22382  13.238  11.896   0.035  0.4383 -0.0012 -0.0746
22183W        W22383  11.919   6.105   5.636  0.2028  0.2395 -0.0731
22184W        W22384   5.622   1.851   4.982  0.1441  0.2405 -0.0013
22185W        W22385  10.628   1.076   5.090 -0.1643  0.0976  0.2307
22186W        W22386  15.019   7.064  10.976  0.1184 -0.0144  0.0762
22187W        W22387   0.040  11.539   6.689  0.2159  0.1548  0.0364
22188W        W22388   3.635   7.622  14.243 -0.3643 -0.0030 -0.0925
22189W        W22389  11.716  14.331   1.787  0.0990  0.1394 -0.1215
22190W        W22390   6.387  14.998  14.542  0.3245 -0.1794 -0.1836
22191W        W22391  11.650   1.316   3.388 -0.0163 -0.1870 -0.1179
22192W        W22392   9.470  12.365   6.829  0.2747  0.1996  0.2602
22193W        W22393   4.936   8.328  14.749  0.1825  0.0352  0.2237
22194W        W22394   1.938   9.786   1.118  0.1899  0.0336  0.3377
22195W        W22395   7.132  15.044   1.074  0.0431 -0.0671  0.0161
22196W        W22396  11.134   5.661   5.750 -0.1241  0.0412 -0.0139
22197W        W22397   7.314  12.593   9.342 -0.3989  0.1961  0.2243
22198W        W22398  11.521  13.749   0.833 -0.2490 -0.1219  0.0848
22199W        W22399  12.103   4.369   5.016  0.5621  0.1975 -0.1981
22200W        W22400  10.131   8.222   4.317 -0.2265 -0.0000 -0.1751
22201W        W22401   0.208   5.756   8.143  0.0537 -0.0341  0.1523
22202W        W22402   2.079   6.079   7.078  0.0792  0.2722  0.0874
22203W        W22403  11.307   8.059  11.024  0.1438 -0.1765 -0.0130
22204W        W22404  13.554   5.716   3.197 -0.0650 -0.0089  0.2290
22205W        W22405   3.753   5.678   9.545 -0.0605  0.1646  0.0466
22206W        W22406  13.199   3.997   6.375  0.0250 -0.1151  0.1537
22207W        W22407  13.364   5.636  13.432 -0.2346  0.1503  0.2463
22208W        W22408   6.105  10.280  14.389  0.2045 -0.1246  0.4115
22209W        W22409   9.011  11.771  10.098 -0.2911 -0.1023  0.0393
22210W        W22410   0.539   0.116   2.427 -0.0800  0.0675 -0.1567
22211W        W22411   5.132  14.463  14.997  0.0751  0.0097  0.1376
22212W        W22412   7.938  10.515   8.124 -0.3047  0.2358 -0.1044
22213W        W22413  12.890   8.460   4.267 -0.2500 -0.1593 -0.0465
22214W        W22414   9.615   5.426   9.287 -0.0679  0.3241 -0.1843
22215W        W22415   8.796  14.189  10.590 -0.0533  0.0637 -0.3021
22216W        W22416   0.347   9.282  13.307 -0.1279 -0.1054 -0.2331
22217W        W22417   5.160   9.129   8.838 -0.1121 -0.0779 -0.5176
22218W        W22418   7.811  11.477  14.096  0.0323  0.0596  0.1935
22219W        W22419   3.493   5.366  15.042 -0.0621 -0.2490 -0.1073
22220W        W22420  10.811  12.706  12.535  0.0351 -0.0181  0.0465
22221W        W22421   8.382   5.933  13.940 -0.0425  0.0656 -0.2592
22222W        W22422  14.712  14.766  14.937 -0.1629  0.0077 -0.0422
22223W        W22423  11.371   7.049   0.288  0.2565 -0.1449  0.1501
22224W        W22424  14.041   3.698   2.278 -0.0125  0.5569 -0.2325
22225W        W22425  12.086  11.251   0.048  0.0287  0.1547 -0.1989
22226W        W22426  13.052   6.141  10.454  0.3592 -0.1608  0.1809
22227W        W22427  12.251  10.838  10.203  0.0760  0.2410  0.2620
22228W        W22428  11.399  12.704   2.210 -0.0966 -0.2271 -0.0768
22229W        W22429  10.865  13.294  13.720  0.1231 -0.1200  0.2272
22230W        W22430  11.905   5.806   8.497 -0.3495 -0.1912 -0.0547
22231W        W22431  11.659   4.919   5.425  0.1653 -0.1879  0.0357
22232W        W22432   3.150  13.699   7.799  0.0338  0.1650 -0.0810
22233W        W22433   8.191  11.193   6.131  0.0905 -0.1234  0.0032
22234W        W22434  11.467  13.943  12.982 -0.0790  0.0136  0.1468
22235W        W22435  12.266   5.448   3.360  0.1802 -0.1323  0.0104
22236W        W22436   8.181   1.973  11.452 -0.0250  0.1172 -0.3017
22237W        W22437  15.151   6.308  13.735 -0.1261 -0.1475 -0.1749
22238W        W22438   6.484   0.761   8.938  0.2289 -0.4152 -0.2818
22239W        W22439   5.892   0.363   3.714 -0.0212 -0.0146 -0.1088
22240W        W22440   2.418   4.273   1.820 -0.0633  0.0124 -0.1011
22241W        W22441   3.502  13.035  10.798  0.0056 -0.3215 -0.0353
22242W        W22442   1.860   7.934   3.386 -0.0784 -0.1019  0.0770
22243W        W22443   8.292  14.588   0.389 -0.1008 -0.3038  0.1263
22244W        W22444  14.038   0.583   4.323 -0.0239  0.0651  0.1391
22245W        W22445   7.354  13.738   7.463  0.2788  0.1629 -0.1147
22246W        W22446   4.901  13.566   4.208 -0.3436  0.1984 -0.2586
22247W        W22447   2.411   5.351   2.428  0.0097 -0.0836  0.1147
22248W        W22448   6.307   1.525   7.715  0.0283  0.1958 -0.2044
22249W        W22449   7.268   1.132   4.609  0.1347 -0.3644  0.1470
22250W        W22450  12.276   2.545  12.117 -0.1160 -0.0276 -0.0660
22251W        W22451  13.827   9.408  13.858 -0.0200 -0.0498  0.0578
22252W        W22452  13.786   1.441   3.304  0.0939 -0.1028 -0.1508
22253W        W22453   1.998  12.821   0.355  0.0281  0.0165  0.1182
22254W        W22454  12.220   4.846   0.692 -0.2334  0.1879  0.1066
22255W        W22455   5.273  12.954  11.048 -0.0736  0.0302 -0.4626
22256W        W22456   7.696   5.918  14.757  0.1292 -0.4332  0.1115
22257W        W22457  14.590   6.373  12.082 -0.2643 -0.2432 -0.0669
22258W        W22458   5.705   7.808   1.258  0.0496  0.1106 -0.0829
22259W        W22459   5.804  14.869  11.739  0.2828  0.0586  0.1088
22260W        W22460   9.846   4.151  12.085 -0.0022 -0.0570  0.0028
22261W        W22461   1.686   2.441   7.398 -0.1326  0.3500 -0.4070
22262W        W22462  11.056   0.526   0.596 -0.1881  0.0178 -0.0032
22263W        W22463   5.122   5.905   2.289  0.1104  0.0767  0.1800
22264W        W22464  13.154  13.680   4.177  0.1312  0.1154  0.0009
22265W        W22465  13.285   4.569   8.180  0.4422  0.1310  0.0078
22266W        W22466  13.472  13.424  12.471 -0.1318  0.0979 -0.3923
22267W        W22467   7.984   1.582   5.844 -0.0092  0.1382  0.1787
22268W        W22468  14.299  12.493  13.861 -0.2150  0.1420  0.2519
22269W        W22469  13.841   1.452   4.860  0.1918  0.0201  0.0030
22270W        W22470   7.830   8.970   2.208  0.0944 -0.3652 -0.1719
22271W        W22471  13.362   6.111   4.009  0.0466  0.3455  0.0099
22272W        W22472   3.717  12.647  14.801  0.3250  0.2045 -0.0670
22273W        W22473   3.225   6.753   0.163  0.3723  0.0990 -0.1672
22274W        W22474   3.286  11.810   5.855 -0.0455  0.1005  0.0096
22275W        W22475  13.980   4.068  11.306 -0.1797  0.0980  0.1570
22276W        W22476   6.381   9.996   9.810  0.1094 -0.1922 -0.1128
22277W        W22477   9.257   4.578  14.274  0.0979  0.1488  0.1028
22278W        W22478   7.302   0.420   9.108 -0.1276 -0.1025  0.3342
22279W        W22479  11.746  12.935   2.611  0.0298 -0.0652  0.0069
22280W        W22480  13.378   8.818   3.480  0.0137  0.3146 -0.4345
22281W        W22481  14.464  14.171  14.286  0.0387 -0.2380  0.1440
22282W        W22482   1.374   6.654   2.157 -0.0209  0.1296  0.2015
22283W        W22483   0.889   7.166   0.976 -0.4664  0.0046  0.0324
22284W        W22484   0.248  15.012  13.856  0.2588  0.0591  0.0750
22285W        W22485   5.548  14.175  14.823 -0.0602  0.2175 -0.0763
22286W        W22486   8.671  10.691   1.878 -0.1264 -0.2692 -0.1759
22287W        W22487   6.199   1.656   1.618 -0.1282  0.2034  0.0898
22288W        W22488  13.118  10.537  13.505  0.0271  0.0320  0.2051
22289W        W22489   0.121   8.241   2.689  0.0706  0.0110 -0.2943
22290W        W22490  13.993  15.070  10.438 -0.0139  0.1518 -0.1125
22291W        W22491  12.827   3.988  14.676  0.0526  0.1401  0.1342
22292W        W22492   9.159   9.315  10.785  0.0807  0.0271  0.0929
22293W        W22493   3.226  14.058   0.483 -0.1606 -0.0682 -0.2541
22294W        W22494  10.271  12.415   5.630  0.0343 -0.1584  0.0756
22295W        W22495  11.128   0.531   3.837 -0.1234 -0.0151 -0.0751
22296W        W22496  11.198   2.539  12.451 -0.0921  0.0315 -0.0175
22297W        W22497   9.607   2.810   1.629  0.2097  0.0634 -0.4110
22298W        W22498   5.456   7.629  12.887  0.1149  0.2944  0.0514
22299W        W22499   3.222  13.271   4.572  0.4021 -0.2778  0.1070
22300W        W22500  14.684   1.032   2.068  0.1206 -0.0018 -0.3701
22301W        W22501  12.548   5.238   5.789  0.2268  0.1953 -0.1181
22302W        W22502  12.814   7.005  12.580 -0.2088 -0.1788 -0.0279
22303W        W22503  14.501  12.326  12.573 -0.3036 -0.1363  0.1702
22304W        W22504  14.946   6.382   5.906 -0.2999 -0.0683  0.3137
22305W        W22505   2.181   7.540  11.457 -0.0828 -0.0063  0.1086
22306W        W22506  10.930   8.715   0.130 -0.0216 -0.2542 -0.3267
22307W        W22507   1.593   2.596   5.232 -0.3285  0.3000 -0.3410
22308W        W22508   0.376   6.271   6.245 -0.1703 -0.0514 -0.1578
22309W        W22509   9.555   2.820   2.831 -0.4229  0.0130  0.0948
22310W        W22510  13.716   6.669   6.453  0.1467 -0.2863  0.2894
22311W        W22511  12.502   0.449   2.468 -0.1105  0.1836  0.0617
22312W        W22512  11.397  14.480   7.950  0.2309  0.2373  0.1086
22313W        W22513  12.189   2.398   4.002  0.0853 -0.0748 -0.0629
22314W        W22514  10.856   2.046  14.033  0.2391 -0.1670  0.0951
22315W        W22515   0.663   1.018   4.658  0.2846 -0.0012  0.3599
22316W        W22516  10.928   4.248   7.130  0.1204 -0.3821 -0.2331
22317W        W22517  14.740  12.209   2.247  0.0543 -0.0147 -0.0208
22318W        W22518  11.003  10.843  12.053 -0.2449 -0.0429  0.0193
22319W        W22519  11.121   1.866   5.079 -0.0783 -0.2561  0.0330
22320W        W22520   4.006   4.019   4.503  0.1493  0.3338 -0.2141
22321W        W22521   0.111   2.836   8.906  0.0193  0.0985  0.0928
22322W        W22522   8.352   5.476   3.037  0.1228  0.1347 -0.1004
22323W        W22523   7.500   8.070   1.315 -0.3275  0.0762  0.2663
22324W        W22524  12.649   2.330   2.431  0.2057 -0.0214 -0.0221
22325W        W22525  14.827   2.151  11.649 -0.0812  0.0798  0.0850
22326W        W22526  12.361   1.802   5.621 -0.1293  0.0170  0.0609
22327W        W22527  12.413  11.200   7.380 -0.2308 -0.0629 -0.1425
22328W        W22528  11.613   1.830  11.847  0.0955 -0.1566 -0.1811
22329W        W22529   7.093   4.156  11.658 -0.0642 -0.0207  0.1530
22330W        W22530   6.460  14.852   5.363  0.2204  0.0052 -0.3660
22331W        W22531  11.461   6.569  14.549 -0.1940 -0.0388  0.4214
22332W        W22532   4.974   0.075   6.906 -0.1047 -0.0946  0.1919
22333W        W22533   0.725   1.985   6.600  0.2092 -0.1237  0.0751
22334W        W22534   7.007   9.255   9.901  0.2415  0.3127 -0.1011
22335W        W22535  11.347  14.276  12.576 -0.4186 -0.2766 -0.1787
22336W        W22536   7.542   2.378  10.867 -0.1665 -0.0838 -0.1261
22337W        W22537  10.219   4.142  15.094 -0.4144 -0.2112 -0.0945
22338W        W22538   1.120  14.627  12.961 -0.1754 -0.0490  0.2442
22339W        W22539   0.156   2.344   3.077 -0.0350 -0.0411 -0.0121
22340W        W22540  12.765   4.358  13.576  0.0770 -0.0419 -0.3096
22341W        W22541  11.297  10.366   6.496  0.2785  0.2323  0.0589
22342W        W22542  11.478  14.790   8.606 -0.3627  0.0446  0.0926
22343W        W22543  12.780   3.224   6.697  0.1987 -0.1524  0.0370
22344W        W22544   2.022  10.753   0.663  0.0404 -0.0408  0.3250
22345W        W22545   2.984   5.233  13.151  0.1781 -0.1014 -0.0578
22346W        W22546   8.154   4.372   4.976 -0.0082  0.4279  0.1822
22347W        W22547   1.939   4.764   7.298  0.1351  0.1239 -0.1413
22348W        W22548   7.874  12.161  11.434  0.2335 -0.3545 -0.2413
22349W        W22549  14.917   2.640  11.561  0.0893  0.3060  0.0782
22350W        W22550   0.578   3.443   7.661 -0.0706  0.1723  0.2830
22351W        W22551   8.216   7.594   0.908  0.0054 -0.2241  0.0187
22352W        W22552   7.877  11.904  13.349 -0.4323  0.0873 -0.4123
22353W        W22553   5.514   1.349   8.539  0.0154  0.0376 -0.1914
22354W        W22554   9.864  14.787   8.654 -0.0727 -0.2637 -0.0377
22355W        W22555  12.905   3.693  15.148 -0.0857  0.1441 -0.0582
22356W        W22556  14.621   4.919   8.575  0.1506  0.0333 -0.0539
22357W        W22557  13.248   1.722  10.166 -0.1424  0.0509 -0.2367
22358W        W22558  13.197   1.355   0.296  0.2355 -0.1145  0.0970
22359W        W22559  13.468   0.704  12.005 -0.0293  0.2284 -0.1335
22360W        W22560  11.058   4.677  15.049  0.1467  0.2848 -0.1747
22361W        W22561   2.215  13.699  13.921  0.0607  0.4226 -0.1777
22362W        W22562  14.832  10.729   0.155  0.3463  0.1869  0.0259
22363W        W22563  13.831   4.654  12.537 -0.0218  0.1233 -0.2614
22364W        W22564  10.474  12.826  11.426 -0.6917  0.0666  0.0419
22365W        W22565  13.609   4.632   9.191 -0.0200 -0.1705  0.1721
22366W        W22566  11.029  14.762  13.812  0.1109  0.0587  0.0052
22367W        W22567  12.587   9.979  11.002 -0.1872 -0.1376 -0.2317
22368W        W22568   8.378   4.902   6.772 -0.2714  0.1601 -0.5420
22369W        W22569   0.547   4.430  10.071  0.0729  0.0054  0.1144
22370W        W22570   0.449   5.398   0.490  0.0742  0.1603  0.0486
22371W        W22571  13.917   2.016  12.726  0.0884  0.3426  0.1304
22372W        W22572   4.280   1.470   6.385  0.1752  0.0526 -0.1177
22373W        W22573  14.559  13.824   8.293  0.0617 -0.3503 -0.3323
22374W        W22574   5.137   3.541   8.023  0.1680  0.1347 -0.4121
22375W        W22575  13.546   1.681   9.801 -0.4493  0.1614  0.0136
22376W        W22576  14.955   5.930   1.737 -0.1181 -0.0136  0.2506
22377W        W22577   7.524  10.284   9.975  0.3656  0.1055 -0.3217
22378W        W22578  10.029  11.512   3.628  0.0135 -0.1814 -0.1334
22379W        W22579   9.987   4.146  14.306  0.0628 -0.0899 -0.1713
22380W        W22580  10.362   7.907   2.869 -0.0574 -0.0344  0.3168
22381W        W22581  11.220   9.122   2.517  0.1844 -0.1578 -0.2274
22382W        W22582   2.097   5.870  10.104 -0.2329  0.0249  0.1155
22383W        W22583  10.387  12.524   3.195  0.1188 -0.1196  0.2026
22384W        W22584   6.785   4.780   7.174  0.0494  0.0699  0.0726
22385W        W22585   9.910  15.074   2.497 -0.1278 -0.1539 -0.0685
22386W        W22586   5.449  12.783  10.553 -0.1558 -0.0377  0.2698
22387W        W22587   4.684  10.002  12.473 -0.2430  0.1153 -0.1640
22388W        W22588   5.289   6.542   1.954  0.5975  0.1114  0.0297
22389W        W22589   1.769   7.705   8.544  0.1520  0.1328 -0.0016
22390W        W22590   3.426   8.217  13.210 -0.2454 -0.2728 -0.0497
22391W        W22591  11.165   5.007   7.744 -0.0391 -0.1009  0.0828
22392W        W22592   2.466   4.739   0.956  0.0787  0.0181  0.3283
22393W        W22593   4.023   7.380   5.651  0.1897  0.0765  0.1796
22394W        W22594   9.489  13.635  10.703  0.2125  0.0338 -0.1928
22395W        W22595   0.404  14.494   9.412  0.1032  0.2544 -0.1369
22396W        W22596   9.622   3.347   7.601 -0.0572 -0.0356  0.1113
22397W        W22597   8.865   5.355   2.215 -0.1036  0.4547  0.0777
22398W        W22598  12.089   0.736  10.893  0.1040 -0.0928  0.1736
22399W        W22599   8.506   6.374   2.495 -0.0784 -0.1932  0.0796
22400W        W22600  11.297  14.235  11.413  0.0407 -0.2071  0.0693
22401W        W22601   3.558  13.096  14.854 -0.0312 -0.1539  0.0399
22402W        W22602   0.114   4.390   6.172 -0.2553 -0.1160 -0.0989
22403W        W22603   3.031   1.403   2.450 -0.0709 -0.2927 -0.0443
22404W        W22604   6.589   5.539   2.882 -0.0357  0.0495 -0.0959
22405W        W22605  11.204   5.072   2.606 -0.2605 -0.1211 -0.4130
22406W        W22606   1.116  12.882   0.237  0.0584 -0.1479 -0.1175
22407W        W22607   5.777  15.106   3.448 -0.1012 -0.2879 -0.0848
22408W        W22608   6.394   8.788   4.711  0.2561  0.1509 -0.0929
22409W        W22609  13.371  11.854   9.558 -0.0255 -0.0044 -0.4021
22410W        W22610   0.267  10.185   5.542 -0.1771  0.2406 -0.3217
22411W        W22611  10.884   6.893  14.641  0.1553 -0.0763 -0.0416
22412W        W22612   8.153   7.070   5.842 -0.0899  0.0550  0.1985
22413W        W22613   3.225  12.079  13.399  0.0849  0.1536  0.0147
22414W        W22614  12.662  13.783   4.326 -0.0763  0.1217 -0.4076
22415W        W22615   1.361   3.542  14.995  0.0041 -0.1159  0.2420
22416W        W22616   4.778  14.851  15.113 -0.3345 -0.2318 -0.0495
22417W        W22617  10.894   2.099   8.697 -0.2413 -0.0261  0.2173
22418W        W22618   7.879   0.768  13.276  0.3175 -0.0332 -0.0772
22419W        W22619  11.569   2.122   8.949 -0.3704  0.3283 -0.2203
22420W        W22620   0.029   4.138  14.725 -0.0405  0.0599  0.2765
22421W        W22621   2.864   7.651  12.760 -0.1242 -0.2902  0.0432
22422W        W22622   2.194   6.198   4.919 -0.0226  0.0131 -0.1389
22423W        W22623  13.778   6.460   8.351  0.0603  0.1931 -0.0446
22424W        W22624   9.195  14.608   2.035 -0.2025  0.1689  0.0264
22425W        W22625   4.656   1.625  11.333 -0.0001 -0.1654 -0.1930
22426W        W22626   5.692  14.967  10.697  0.0127 -0.0792 -0.1695
22427W        W22627   8.429   4.195  12.391  0.2842  0.0700  0.0147
22428W        W22628   3.768   1.607   2.894  0.1391  0.1171  0.0722
22429W        W22629  11.847   9.521   1.220 -0.1005 -0.0744  0.0863
22430W        W22630   4.272   1.684   7.958 -0.1337 -0.0754 -0.1547
22431W        W22631  14.067   9.830  14.554  0.0031  0.0216  0.2573
22432W        W22632   9.163   2.252   8.105 -0.0870  0.1933 -0.1244
22433W        W22633  11.727  10.903   2.360  0.0396 -0.1064  0.2270
22434W        W22634   2.418   0.852  15.029 -0.4315 -0.0119 -0.1598
22435W        W22635   5.264   5.646   8.153 -0.1461 -0.3032 -0.0966
22436W        W22636   3.078   1.730   6.807 -0.0110 -0.0856  0.0165
22437W        W22637   2.495  12.052  10.483 -0.1999  0.1542 -0.0997
22438W        W22638   6.846  10.846   9.485  0.1435  0.0178 -0.0913
22439W        W22639   1.889   2.103  10.541 -0.1646  0.0808 -0.1843
22440W        W22640   6.160   5.405   8.364  0.0630  0.3210  0.0497
22441W        W22641  13.896   8.856  13.094 -0.0579 -0.2232  0.1208
22442W        W22642   0.861   3.918  14.324  0.0600 -0.0950  0.0506
22443W        W22643   9.823   4.007   4.811 -0.0330  0.1083 -0.0073
22444W        W22644  13.143   5.677   3.916  0.2804  0.3159 -0.0697
22445W        W22645   8.019  14.590   8.475 -0.0633  0.0278  0.1078
22446W        W22646   0.776   6.035  14.446  0.2238 -0.0009 -0.0480
22447W        W22647  11.634   5.286  10.665 -0.5919  0.2266 -0.1278
22448W        W22648   8.790   4.934  11.362 -0.1005 -0.4560 -0.2186
22449W        W22649   8.095  13.851  14.444 -0.0053 -0.1103  0.1010
22450W        W22650   5.843  11.887  13.443  0.0682 -0.0035 -0.1126
22451W        W22651  14.052  10.302  14.807 -0.2659 -0.0380 -0.0276
22452W        W22652   7.767   3.140   2.986  0.2659 -0.0769  0.1394
22453W        W22653  13.060   6.529   9.964  0.3960  0.2249  0.0430
22454W        W22654   3.005   3.853  14.991 -0.0572 -0.0443 -0.1436
22455W        W22655  12.288   3.193  13.845 -0.1314 -0.0286 -0.1216
22456W        W22656  10.478   3.537  13.787  0.0355  0.3409 -0.3923
22457W        W22657  13.979   9.276  10.231  0.0763 -0.0307  0.1702
22458W        W22658   0.112   7.871  11.597  0.2352 -0.4060  0.0318
22459W        W22659  10.454   1.773   8.465 -0.1229  0.0488  0.3330
22460W        W22660  11.390   3.865  12.771  0.1279 -0.1496  0.0705
22461W        W22661   2.005  13.932   7.849 -0.0710  0.2319 -0.1413
22462W        W22662  14.766   1.162  14.193  0.1763 -0.0869  0.0069
22463W        W22663  10.391  10.214   0.410 -0.0807  0.0791 -0.1156
22464W        W22664   9.972   6.151  11.273  0.1628  0.1539  0.1239
22465W        W22665  13.207   7.372  13.485 -0.0218 -0.2171  0.1734
22466W        W22666   2.276  11.712   9.400 -0.2453 -0.0702 -0.0070
22467W        W22667   7.868   2.365   2.444  0.3354 -0.0712 -0.1040
22468W        W22668   8.055   5.828  15.184 -0.0461  0.0246  0.1804
22469W        W22669   9.052   1.039  13.425 -0.2255  0.0574 -0.1378
22470W        W22670   4.744   7.128  14.227 -0.0168 -0.0153  0.0007
22471W        W22671   9.485  12.962   1.827 -0.0775  0.0105  0.1194
22472W        W22672  14.006   7.631   3.384 -0.0999  0.1389 -0.1799
22473W        W22673  13.186   6.419  13.747 -0.1761 -0.1788  0.2494
22474W        W22674  10.809   2.759  12.739  0.1607 -0.1167 -0.1659
22475W        W22675   1.643  11.661  10.792 -0.0837 -0.2145 -0.1742
22476W        W22676  12.575   7.780   0.299  0.4294 -0.0723 -0.0994
22477W        W22677   3.354   4.753   4.839 -0.2514  0.1563  0.1227
22478W        W22678   1.677  13.080   8.610 -0.1016 -0.2580  0.0710
22479W        W22679  14.425   9.624   4.149 -0.1309  0.0748 -0.0675
22480W        W22680   3.899  13.010   0.897 -0.0211 -0.0524 -0.1579
22481W        W22681  11.426   1.550   0.865  0.0603  0.1512 -0.0365
22482W        W22682   2.088   3.598  11.902  0.2686 -0.2284 -0.0970
22483W        W22683  11.449   0.838   7.741 -0.1563  0.2121  0.1971
22484W        W22684  12.944   7.567   0.631 -0.2554  0.0794 -0.0457
22485W        W22685  11.376  13.113  10.225  0.2390 -0.0782  0.1814
22486W        W22686   2.653   9.289  14.546  0.2011  0.1416 -0.1222
22487W        W22687   4.208   7.580  14.938 -0.0702  0.3444 -0.2643
22488W        W22688  14.425   1.260   1.659 -0.2815  0.1232 -0.0973
22489W        W22689  14.294   3.761  13.830 -0.0933 -0.1438 -0.0482
22490W        W22690   4.630  13.374  12.636  0.3156  0.0027 -0.0077
22491W        W22691  12.696   2.690   6.879 -0.0589 -0.1359 -0.2353
22492W        W22692  10.781  13.370   5.945  0.1181 -0.1179 -0.0485
22493W        W22693   9.633   0.130   3.737  0.3920 -0.0507 -0.2567
22494W        W22694  10.796   0.130   3.633  0.1927  0.4188 -0.3675
22495W        W22695  14.589  14.641  13.820  0.0166 -0.1793 -0.4833
22496W        W22696  11.853   6.941   0.041 -0.0356 -0.0521 -0.0929
22497W        W22697   3.177   2.597   1.868  0.3525  0.0242 -0.1747
22498W        W22698   8.145   5.856   7.900 -0.0508  0.1828  0.0969
22499W        W22699   4.985   4.132   3.504 -0.0963 -0.2443 -0.1353
22500W        W22700   2.429  15.132  10.730 -0.0352  0.0068  0.1574
22501W        W22701   4.909  10.373   0.372 -0.1260  0.1659  0.0683
22502W        W22702   7.184   5.691   7.420 -0.0911  0.2720  0.3267
22503W        W22703   8.466  10.293   3.649  0.1401 -0.0125 -0.1575
22504W        W22704  12.238   1.482  10.687  0.1100 -0.1915  0.0802
22505W        W22705  14.138   6.591   1.928  0.2927 -0.0346 -0.0803
22506W        W22706   4.556   5.965   3.919  0.1051  0.0899  0.3906
22507W        W22707   1.934  13.269   5.001  0.1655 -0.1990  0.2196
22508W        W22708   5.384  14.414  13.669 -0.0963 -0.0106 -0.3878
22509W        W22709   1.296   1.761  12.637  0.0494 -0.1060 -0.0008
22510W        W22710  13.035   4.667   0.214  0.0483 -0.1150 -0.1954
22511W        W22711   1.200   5.909  13.001  0.2139  0.0866  0.0331
22512W        W22712  14.756   7.237   2.497 -0.0200 -0.0833 -0.0102
22513W        W22713  11.688   7.917   0.170 -0.0244 -0.0424  0.0833
22514W        W22714  12.597   3.842  11.297  0.1846  0.1156  0.0842
22515W        W22715  14.148  11.379  15.164  0.0577  0.0450 -0.0740
22516W        W22716   6.949   9.399  12.843 -0.1215  0.1508 -0.0099
22517W        W22717   5.985   7.849  12.989 -0.1550  0.1917  0.0362
22518W        W22718   9.971   1.227   2.492  0.5099 -0.0646  0.1368
22519W        W22719   1.848   5.321   2.571 -0.0635  0.0627  0.0118
22520W        W22720   4.148   2.562  13.969  0.1056 -0.1333  0.0290
22521W        W22721   1.593   5.163   6.498 -0.0142 -0.1556  0.0524
22522W        W22722   6.168   2.195   1.805 -0.0748  0.1814  0.0355
22523W        W22723   8.173   3.821   9.256  0.4323  0.1383  0.1339
22524W        W22724   1.822   7.853   2.727 -0.0785  0.1451  0.0773
22525W        W22725   4.699   3.931  15.001 -0.2138  0.0492 -0.1620
22526W        W22726  12.629   0.045  10.512  0.2115 -0.0789  0.2021
22527W        W22727  12.153   7.802  13.893  0.0508  0.0456 -0.5572
22528W        W22728   0.535  10.384   1.212  0.1050  0.0732  0.0275
22529W        W22729  14.204  14.309   9.777  0.0962  0.0235  0.0407
22530W        W22730  12.127  13.033   6.412  0.0539  0.0804  0.0643
22531W        W22731   7.417  10.743   6.576  0.0578 -0.0089 -0.2693
22532W        W22732  13.099   5.839   3.422  0.0858  0.0984  0.2429
22533W        W22733  12.823   3.729  12.407  0.2411  0.1990 -0.2280
22534W        W22734   0.646   8.548   6.612  0.1631  0.1586 -0.2107
22535W        W22735  11.787   0.194   1.446  0.1264  0.1127 -0.1215
22536W        W22736   4.901  10.517   1.293  0.1364 -0.1316 -0.0404
22537W        W22737   5.210   8.717   6.231  0.1447 -0.3793  0.0602
22538W        W22738   2.283  12.657   1.278 -0.2878 -0.2032  0.0576
22539W        W22739   7.522   9.230   1.613 -0.1257  0.4003 -0.4865
22540W        W22740   5.471   9.185  10.355 -0.0575 -0.2159 -0.0313
22541W        W22741   5.958   5.876   8.476 -0.2282  0.1294 -0.1049
22542W        W22742   8.398   2.201   6.090  0.2022 -0.0861 -0.0613
22543W        W22743   0.083  10.870   7.566  0.0346 -0.0190  0.1524
22544W        W22744  11.497   0.368  14.413 -0.0273  0.1077 -0.2083
22545W        W22745   4.196  15.194  13.508 -0.1188 -0.0560  0.1579
22546W        W22746  11.052   0.449   7.100  0.2281  0.1524 -0.2213
22547W        W22747  10.422   1.135  13.098 -0.2333 -0.2611  0.0084
22548W        W22748   2.506   2.815  10.241 -0.0541  0.0939  0.2293
22549W        W22749  11.242   7.638   3.839  0.1127  0.1931  0.1158
22550W        W22750  13.243   0.457   5.884 -0.2566  0.1794  0.0881
22551W        W22751   6.079  14.247   1.450 -0.2128  0.2438 -0.1916
22552W        W22752  12.912   0.808   2.388 -0.1222  0.1685 -0.0427
22553W        W22753   0.060   4.142  14.083 -0.1488  0.1597  0.1131
22554W        W22754  10.650   9.862   7.196 -0.2824 -0.1446 -0.0475
22555W        W22755  13.730   1.677   6.117 -0.1104  0.2604  0.2926
22556W        W22756   7.048   6.835  14.254  0.1325  0.3785 -0.0422
22557W        W22757   5.876   7.383  15.126 -0.2117 -0.0482  0.0028
22558W        W22758   1.459   2.151   8.305  0.1812  0.1270  0.3513
22559W        W22759  13.094   3.558  14.535  0.1751 -0.2459  0.1413
22560W        W22760   5.016   5.496  13.384  0.0519 -0.0547 -0.6092
22561W        W22761   2.375   2.273   6.712  0.5133  0.1299 -0.3117
22562W        W22762   7.895   7.396   6.356  0.1034  0.3718  0.0909
22563W        W22763  10.087   5.571   8.543 -0.1572 -0.3861  0.0594
22564W        W22764   1.892   2.867  14.753 -0.3510 -0.1499 -0.1473
22565W        W22765   5.571  10.349   6.672  0.1899 -0.2982  0.1565
22566W        W22766  11.837   8.656  14.551  0.1503 -0.2669  0.2435
22567W        W22767   0.926   8.127   7.647  0.0948  0.0981  0.0432
22568W        W22768   3.924   9.590   1.035  0.0213 -0.0240  0.0579
22569W        W22769   9.672   8.545  12.636  0.2027  0.1823  0.0666
22570W        W22770  11.405   2.474   5.762 -0.1152 -0.2025  0.0323
22571W        W22771   2.289   0.924   4.783 -0.0436 -0.1869 -0.1820
22572W        W22772   0.181   6.700  12.492  0.4079  0.0367  0.2236
22573W        W22773  11.373   8.040  12.144 -0.2490 -0.1735  0.0831
22574W        W22774   5.602  14.068  13.355 -0.1395  0.0297 -0.0017
22575W        W22775   0.279  12.479   5.046 -0.1571 -0.0992  0.1332
22576W        W22776  14.577   7.548   8.640 -0.1170  0.0134 -0.1012
22577W        W22777   2.197  10.068   3.924  0.1988 -0.1609 -0.1042
22578W        W22778  10.950   2.651   4.415  0.2852  0.1418  0.0337
22579W        W22779   3.716   8.635   4.076 -0.1570  0.2316 -0.0497
22580W        W22780   8.750   5.918   8.266  0.0735 -0.0040 -0.0346
22581W        W22781  13.370   8.075  10.586  0.0737  0.0233  0.2422
22582W        W22782   1.904   0.631   5.042 -0.1717 -0.2042 -0.2336
22583W        W22783  13.891   5.872  14.010 -0.4553 -0.1505  0.2193
22584W        W22784  11.947   6.811   3.033 -0.0677 -0.1037  0.0757
22585W        W22785   2.268   1.459   3.165 -0.2005 -0.0053  0.2581
22586W        W22786   7.980   4.414   1.141 -0.1117  0.0361  0.3007
22587W        W22787   1.949   0.822   1.490  0.3666  0.0075  0.0821
22588W        W22788  10.248   7.065   2.065 -0.2104 -0.0732 -0.1687
22589W        W22789  12.478  10.662   9.390 -0.1295  0.0379  0.0430
22590W        W22790  10.899   9.185   0.265 -0.2138  0.0043 -0.0339
22591W        W22791   7.103   9.633   9.264  0.0140  0.1200 -0.1201
22592W        W22792   8.087  10.464   3.208 -0.2131  0.0615 -0.0427
22593W        W22793   4.653  12.255  14.902  0.2335  0.1478 -0.0042
22594W        W22794  10.606  11.380   3.926  0.1050 -0.3449  0.0607
22595W        W22795   4.042   7.769   5.154 -0.3261  0.1450  0.0781
22596W        W22796  11.572   8.562   4.927  0.3642 -0.1224  0.0813
22597W        W22797   6.922   6.475   3.723 -0.6466  0.1893 -0.2365
22598W        W22798   6.948   6.690  12.244 -0.0332 -0.1264 -0.0946
22599W        W22799   0.312   1.328   1.746  0.0499 -0.0023 -0.1637
22600W        W22800   6.264   0.135   0.433  0.0735 -0.0060  0.0033
22601W        W22801   9.706  10.116   6.214  0.1679  0.0701 -0.1767
22602W        W22802   9.970   4.371   6.248  0.0332 -0.4120  0.0321
22603W        W22803  11.072   7.285  12.654  0.4549  0.0442 -0.0100
22604W        W22804   9.519  12.784   4.891 -0.2338 -0.0106  0.1524
22605W        W22805  14.855   7.274  13.386  0.0630 -0.1815 -0.1611
22606W        W22806   0.987   6.131   5.273  0.1196 -0.0291 -0.1500
22607W        W22807   0.655  12.208   5.265  0.4305 -0.1492  0.1080
22608W        W22808   3.852   8.111  13.905 -0.0396  0.0814 -0.1181
22609W        W22809  11.298   6.597   6.152  0.0533 -0.0115  0.0317
22610W        W22810  13.287   6.904   2.688  0.0198 -0.1083  0.1259
22611W        W22811   6.654   1.242  11.836  0.1568 -0.2758 -0.0981
22612W        W22812   1.007   5.714   5.511 -0.0361 -0.1150  0.2207
22613W        W22813  11.271   4.795   0.637 -0.1501  0.0213 -0.1888
22614W        W22814   5.879   7.271   2.894 -0.0734 -0.1429 -0.1455
22615W        W22815   6.836  10.484   2.286 -0.1895  0.0384 -0.0772
22616W        W22816  12.870   4.979   1.706 -0.1121 -0.1402  0.0195
22617W        W22817   6.126   8.317  10.427  0.0485  0.0941 -0.0010
22618W        W22818  14.024   3.555  14.974  0.1037  0.0617  0.2407
22619W        W22819  11.059   3.216   5.953  0.0381  0.0514 -0.1158
22620W        W22820   0.099   1.776  13.616  0.2268  0.2089  0.4403
22621W        W22821   1.724   9.303   1.285  0.3281 -0.0332 -0.2886
22622W        W22822  13.144   6.461   0.112  0.0850  0.0025  0.0135
22623W        W22823  15.095  15.125   4.979  0.1666  0.0920  0.0940
22624W        W22824   3.537  14.369   6.814 -0.1359  0.3767  0.1203
22625W        W22825   5.463   8.971  11.026 -0.4251  0.1155 -0.0338
22626W        W22826   2.709   2.035   4.827 -0.0747 -0.3286  0.0153
22627W        W22827   9.100   2.736   8.326 -0.0344 -0.0771  0.5645
22628W        W22828  13.118   6.539   4.906  0.0716  0.0875  0.1114
22629W        W22829  13.694   1.737  12.365  0.1187  0.1309 -0.0705
22630W        W22830   6.870   4.834  14.087  0.2077 -0.0056 -0.1119
22631W        W22831   2.402  10.669  11.350 -0.2515  0.1658 -0.1262
22632W        W22832   6.710   1.091   5.869  0.0973  0.1072 -0.0964
22633W        W22833   3.645  12.473   4.977  0.0131 -0.0391  0.0289
22634W        W22834  13.077   7.121  13.103  0.4046 -0.4055 -0.1295
22635W        W22835  10.685   5.343  10.957  0.0659  0.1649 -0.1360
22636W        W22836  14.035  12.711   6.002  0.1497  0.0777 -0.2523
22637W        W22837  13.797  12.039   8.020 -0.2171  0.0095  0.1063
22638W        W22838  14.276   1.914   2.175 -0.1335  0.0843  0.0135
22639W        W22839  10.212   1.325   4.535  0.0896 -0.0868 -0.3203
22640W        W22840  14.434   2.770  10.323  0.0412  0.0759  0.0158
22641W        W22841   2.717  10.011   2.639 -0.1622  0.2662 -0.2256
22642W        W22842   3.436   8.935   5.412 -0.1097 -0.0644 -0.2121
22643W        W22843  12.070   4.403  10.013  0.1918  0.0634  0.0650
22644W        W22844  13.272  12.258   0.459 -0.2635 -0.4425 -0.1059
22645W        W22845  10.577   3.135  11.844 -0.0973 -0.3910  0.3457
22646W        W22846  14.833  11.747   6.326  0.1867  0.0147 -0.0709
22647W        W22847   1.079  12.750  12.096  0.1711  0.2274  0.0383
22648W        W22848   4.566   3.995   4.510 -0.3920 -0.5090  0.0772
22649W        W22849  11.668  13.622   3.294  0.4412 -0.0467  0.4016
22650W        W22850   9.952   9.966  10.285  0.1421 -0.1007 -0.1429
22651W        W22851  14.837  11.661   2.567  0.0082 -0.0053  0.4656
22652W        W22852   5.458   5.202   5.043 -0.0064  0.2165  0.1315
22653W        W22853   0.374  11.848   4.180 -0.2790 -0.1747  0.0835
22654W        W22854  13.045   7.007   4.425 -0.0936  0.0765  0.1271
22655W        W22855   2.601   3.490  12.717 -0.0699  0.0276 -0.2125
22656W        W22856   4.571  11.524   9.510 -0.2985  0.3673 -0.0031
22657W        W22857   2.538   4.824  12.976 -0.1484 -0.1523  0.0213
22658W        W22858  11.239   6.957   4.032 -0.3739  0.0707 -0.1995
22659W        W22859   3.338   4.844   6.729  0.4957 -0.0556  0.2649
22660W        W22860  10.581   8.033   3.510 -0.1034  0.0333  0.0207
22661W        W22861  11.803   4.565   8.867 -0.0266 -0.0304  0.2169
22662W        W22862   7.926  10.285  10.564 -0.0699  0.3382 -0.1499
22663W        W22863   6.571   9.611  10.230 -0.2497 -0.0161  0.1816
22664W        W22864  12.620  10.500  11.181  0.2082  0.0519  0.0417
22665W        W22865   8.375   2.332  15.029 -0.0584 -0.1360 -0.1217
22666W        W22866   8.700   3.799  12.517 -0.0445  0.3974  0.4423
22667W        W22867  14.324   4.216  10.244  0.0527  0.0967 -0.2438
22668W        W22868  11.690   7.296   2.996  0.1295  0.0677 -0.2191
22669W        W22869   1.494   7.248   5.567 -0.0993  0.1419 -0.0028
22670W        W22870  12.596  14.175   6.236  0.0383 -0.2420  0.2293
22671W        W22871   3.072   0.690   3.159 -0.0984  0.1270  0.0099
22672W        W22872  14.194   2.961  11.493  0.2912 -0.0778 -0.0517
22673W        W22873   3.318   8.345  12.645  0.0027  0.0063  0.0899
22674W        W22874   0.514  12.506   5.762  0.1304 -0.0570 -0.1682
22675W        W22875   7.596   1.963   3.324  0.2154 -0.2554 -0.1041
22676W        W22876  13.195  10.651   4.266  0.1053 -0.0269  0.2483
22677W        W22877  11.924   1.860   2.523 -0.1963  0.0057 -0.0580
22678W        W22878  14.924   5.410  11.739  0.2777  0.1901 -0.0296
22679W        W22879   2.600  10.021   6.542  0.2526 -0.1040  0.2094
22680W        W22880  14.527   9.475   0.485  0.2280  0.2426 -0.3178
22681W        W22881   0.962  10.685   4.784 -0.0183 -0.1970  0.1040
22682W        W22882   4.122   2.225   6.726  0.1153 -0.3005 -0.2209
22683W        W22883   2.417   7.686   8.634  0.1954 -0.0720  0.1471
22684W        W22884  15.170  11.106   6.253  0.2149 -0.2049  0.0508
22685W        W22885   7.678   3.895   0.600  0.0983  0.3488 -0.0264
22686W        W22886   2.928  10.154   4.778  0.0776  0.3242 -0.2236
22687W        W22887   0.462   3.616  13.941 -0.0784  0.0921 -0.2003
22688W        W22888   4.987  13.348  14.999 -0.0147 -0.1611 -0.0378
22689W        W22889   0.696   9.756   0.080 -0.0998  0.0772  0.1479
22690W        W22890   2.333   4.472   8.264  0.1398 -0.0368  0.0105
22691W        W22891  13.075   2.721   9.118  0.0682 -0.0148 -0.0624
22692W        W22892   3.988   6.439  14.761 -0.0339  0.0629 -0.2373
22693W        W22893   2.617  11.735   1.353 -0.1099 -0.0154 -0.1130
22694W        W22894   7.228   4.099   7.090  0.0426  0.3754  0.0144
22695W        W22895   1.477   0.420   2.165  0.1381  0.2684  0.2431
22696W        W22896   1.997   1.361   1.583  0.0946  0.0327 -0.1472
22697W        W22897  11.979   7.235   6.308  0.2703  0.1204 -0.0273
22698W        W22898  14.243  12.220   2.466 -0.2162  0.0341 -0.0549
22699W        W22899  10.790   4.722   7.983  0.0113 -0.1868 -0.0864
22700W        W22900   5.673   4.296   6.213  0.2409  0.1486  0.1185
22701W        W22901   6.916   4.947   7.637 -0.0964 -0.0787 -0.2094
22702W        W22902   8.436   7.544  13.623  0.1151  0.1265  0.0218
22703W        W22903   8.118  11.488   0.659  0.2937  0.0476  0.2000
22704W        W22904  11.573   4.768  14.035  0.0240 -0.0736 -0.0956
22705W        W22905  12.705   2.091   7.481 -0.0319 -0.1495  0.0020
22706W        W22906   8.858  13.418   1.374 -0.0140 -0.0795 -0.3634
22707W        W22907   9.085  14.391   3.265 -0.3693 -0.1454  0.0430
22708W        W22908   1.815   7.734   4.035  0.2144 -0.0746  0.0635
22709W        W22909  13.089  14.965   3.701 -0.0823  0.0673 -0.0065
22710W        W22910   0.523  13.873  13.476 -0.0569  0.2189  0.1291
22711W        W22911   1.369  13.223   4.867  0.1008 -0.0436 -0.1266
22712W        W22912  12.912  11.478  11.317 -0.1745 -0.0758 -0.0713
22713W        W22913  14.564   0.549  10.012  0.1954  0.0432  0.2940
22714W        W22914   2.303   7.807  10.166  0.2571  0.0574  0.0961
22715W        W22915  14.206  11.577  12.900 -0.0559 -0.3372 -0.0193
22716W        W22916  14.308  12.887  10.228 -0.1330 -0.2153  0.1906
22717W        W22917   8.018   2.438   8.957  0.0273 -0.0649 -0.1954
22718W        W22918  13.665   1.584   0.276 -0.0938  0.0962 -0.1868
22719W        W22919  15.178   4.595   2.581  0.3228 -0.1033  0.1384
22720W        W22920   3.177   6.560   1.600  0.0808 -0.2934  0.1448
22721W        W22921  10.913   1.520  14.223 -0.0791 -0.0029 -0.0441
22722W        W22922  12.346   3.686  13.276  0.2342 -0.0491 -0.0436
22723W        W22923   8.343   0.398  13.767  0.2437 -0.0637  0.0622
22724W        W22924  11.072   7.325   1.732 -0.1960 -0.2416  0.0012
22725W        W22925   6.597   7.593   5.837  0.1883 -0.4509  0.0603
22726W        W22926  14.041   8.589   7.091 -0.3688 -0.0773  0.1120
22727W        W22927   9.990   9.019   6.626 -0.1905  0.0318 -0.1282
22728W        W22928   0.091   7.796   7.684 -0.1786 -0.1421 -0.1288
22729W        W22929  11.327   2.151   8.423 -0.1141  0.1049 -0.1074
22730W        W22930  12.356   8.690   8.751  0.0483 -0.1175  0.0745
22731W        W22931  11.035   5.450   3.838 -0.0433  0.0440 -0.2150
22732W        W22932   5.666   2.333   5.196  0.2865 -0.0531  0.3062
22733W        W22933  11.472   2.775  13.542 -0.0701  0.0307 -0.0178
22734W        W22934   5.765  14.450   6.927 -0.0130 -0.1836  0.0238
22735W        W22935   7.464   7.028   0.454  0.0373 -0.0296  0.1157
22736W        W22936  11.862  11.178   6.362 -0.1778  0.1604  0.2174
22737W        W22937   6.814   2.039   1.331  0.0365  0.0996  0.1561
22738W        W22938   9.564   4.285   7.142 -0.0924  0.2591 -0.0293
22739W        W22939  14.817   1.485   0.956  0.1575 -0.1552  0.2503
22740W        W22940   8.769  13.862   7.783 -0.2350  0.0754  0.0814
22741W        W22941   4.220   8.892  13.871 -0.1501 -0.1259 -0.0637
22742W        W22942  10.533  10.860   5.264 -0.0121  0.1337 -0.2125
22743W        W22943  11.989   3.233   6.522 -0.4548 -0.2599  0.1064
22744W        W22944   2.503  12.771   0.194  0.1874 -0.1011  0.3086
22745W        W22945  11.335   3.623  11.534  0.0961 -0.0508  0.0840
22746W        W22946  12.195   2.686  10.584  0.0613 -0.3259  0.1281
22747W        W22947  12.442   7.933   3.539  0.1942 -0.1551 -0.1750
22748W        W22948  13.110   5.396  10.642 -0.1052  0.2157  0.1702
22749W        W22949   3.763   4.407   4.324  0.1911  0.0512 -0.0072
22750W        W22950  10.910   4.928  10.750  0.1927  0.0183 -0.0098
22751W        W22951  13.201   4.470   1.882 -0.1791 -0.1170 -0.0697
22752W        W22952  10.834  14.932   0.134  0.1017  0.1590  0.0962
22753W        W22953   9.358   8.061   3.267  0.0643  0.1026  0.0236
22754W        W22954   3.920   3.979   7.392  0.0809  0.0886  0.0784
22755W        W22955   2.288   8.134  12.715  0.1862  0.4481 -0.0394
22756W        W22956  11.022  10.038   6.031 -0.4131 -0.2051 -0.0805
22757W        W22957  11.115   8.725  13.612 -0.1557 -0.0991  0.2954
22758W        W22958   1.835  12.584   7.227  0.3791  0.0512  0.2647
22759W        W22959   0.091   5.357   0.117  0.0898  0.1274 -0.0392
22760W        W22960  10.029   7.096   8.477  0.2937 -0.0091 -0.1229
22761W        W22961   6.749   5.286  11.161 -0.0595  0.1031  0.3058
22762W        W22962   8.797   1.505   0.359  0.0916 -0.1977 -0.3096
22763W        W22963   2.143   1.447  14.924  0.0685  0.0649 -0.0430
22764W        W22964   9.825   4.298  13.731  0.2001 -0.0158 -0.2107
22765W        W22965   5.486   8.543  13.836 -0.5093 -0.2761  0.0273
22766W        W22966  12.567  13.241   6.155 -0.2521 -0.3869  0.1233
22767W        W22967   1.779   8.575  14.467  0.1151  0.3186  0.1740
22768W        W22968   3.892  10.179  10.541  0.2705  0.1710  0.0941
22769W        W22969   2.118   9.080   6.586  0.1107  0.1229 -0.0854
22770W        W22970   9.531   8.322   4.095  0.0895  0.2721  0.2839
22771W        W22971   3.757   7.781   5.960 -0.0665  0.0122  0.2301
22772W        W22972   1.396   5.315   3.004  0.0641  0.1098  0.1196
22773W        W22973   9.549  14.489   3.903  0.2310 -0.0129  0.2279
22774W        W22974  12.762   4.196  15.102 -0.0606 -0.1182 -0.2792
22775W        W22975  11.572   6.352   2.027 -0.1807  0.0497 -0.1435
22776W        W22976  12.937  12.916   5.892  0.3220 -0.0939  0.1168
22777W        W22977   4.068  13.505   3.475  0.0679 -0.0559 -0.2878
22778W        W22978  10.122   8.006   3.744 -0.0993  0.1537 -0.2301
22779W        W22979  13.748   4.697   8.244  0.0626  0.0402 -0.1830
22780W        W22980  13.480   1.329   0.742 -0.0664  0.3071 -0.2513
22781W        W22981   7.399   0.615   5.557  0.0646 -0.0676  0.1928
22782W        W22982   9.490   5.304  10.879  0.3125 -0.2749  0.1774
22783W        W22983  10.483  11.619   1.519 -0.1459 -0.1695 -0.1918
22784W        W22984   8.236   7.580   5.312 -0.3054  0.2427 -0.3247
22785W        W22985   8.605  12.666  13.118 -0.0065 -0.0914 -0.0985
22786W        W22986  13.420   0.077  10.833  0.0589  0.2566  0.2465
22787W        W22987   1.917   9.726   2.732  0.1129 -0.3166 -0.0205
22788W        W22988  14.888  12.335   1.166 -0.0555  0.1174  0.1403
22789W        W22989   3.291   5.511   6.225  0.1007  0.0434 -0.1130
22790W        W22990   6.706  11.966   7.713 -0.0908 -0.0570 -0.1013
22791W        W22991   8.818   8.696   8.296  0.0611 -0.2907 -0.0170
22792W        W22992  14.493   8.256  11.909  0.1558 -0.0498 -0.1301
22793W        W22993  12.983   5.100  11.558  0.0258 -0.0016 -0.0257
22794W        W22994  14.489   8.362   4.695  0.1127 -0.1050  0.0969
22795W        W22995  12.108  10.380   0.785 -0.2200 -0.0838 -0.0117
22796W        W22996   9.820   5.309   8.883  0.2045  0.1035  0.1358
22797W        W22997  14.085   5.647  12.398 -0.1593  0.2412  0.1917
22798W        W22998   2.523   7.959   0.529  0.0349  0.1592  0.0205
22799W        W22999  12.323   5.573  14.764 -0.0534 -0.1597  0.1327
22800W        W23000   6.540   5.367   7.968  0.4171  0.0305 -0.3057
22801W        W23001   3.874   5.300   4.144  0.0840 -0.0064 -0.0933
22802W        W23002   0.517   1.078   7.618 -0.0248  0.2163  0.0033
22803W        W23003  12.298   8.562   2.841  0.1043  0.0357  0.0817
22804W        W23004   5.309  11.675  14.866  0.1029  0.0579  0.0932
22805W        W23005  13.323   0.089   6.390 -0.0220  0.0089  0.0239
22806W        W23006  12.674   6.109  10.096  0.0703 -0.0822  0.1102
22807W        W23007  14.782   8.857   8.482 -0.2132  0.0355 -0.0298
22808W        W23008   0.189   9.572   6.203  0.1323  0.1881 -0.2446
22809W        W23009   5.168   5.214   3.707 -0.0877 -0.4660 -0.1376
22810W        W23010  10.446   4.390   8.040 -0.3301  0.0851 -0.1811
22811W        W23011  14.489   3.444   5.579  0.2172 -0.1913 -0.1843
22812W        W23012  11.920   6.848   7.416 -0.2333  0.0784 -0.2158
22813W        W23013   8.561   6.619   3.685 -0.1633  0.1379 -0.0526
22814W        W23014   8.715   0.352   4.845  0.1884 -0.3047  0.2191
22815W        W23015   1.032   2.698   3.782 -0.1704  0.0647  0.0797
22816W        W23016   0.078   7.123   3.129 -0.2108 -0.1982 -0.0651
22817W        W23017   9.808  10.116  13.963  0.0950 -0.0757  0.0173
22818W        W23018  12.635   8.277   8.432 -0.2440  0.0075  0.0661
22819W        W23019   9.743   5.494  14.336 -0.3695 -0.1712  0.1019
22820W        W23020   2.035  12.196   3.138  0.1414  0.3459 -0.0948
22821W        W23021   8.917   9.164   7.070  0.3181 -0.0630 -0.1496
22822W        W23022  12.171   8.202   0.117  0.0618 -0.0467 -0.0507
22823W        W23023   9.870   4.635   7.588  0.1281  0.0702 -0.3654
22824W        W23024   5.449   5.170   1.704 -0.2195 -0.1042 -0.0139
22825W        W23025   7.720  13.309   7.879  0.1954 -0.0754 -0.1026
22826W        W23026   7.577  10.435  15.060  0.4597  0.1639  0.0430
22827W        W23027   8.350   1.450   0.682 -0.2862  0.1286  0.1413
22828W        W23028   2.996  12.293  12.138  0.2002 -0.0271 -0.2051
22829W        W23029  12.911   0.760   1.771  0.2305 -0.1277  0.0014
22830W        W23030  13.872  13.603   4.817 -0.1594 -0.2823 -0.1580
22831W        W23031   9.318   3.236   8.588 -0.1542 -0.1085 -0.1147
22832W        W23032  14.146   5.584   6.157  0.0059  0.5134  0.0841
22833W        W23033  12.104   7.224   5.258 -0.3787  0.0399  0.0394
22834W        W23034  13.071   8.599   3.079  0.1621  0.1322 -0.0617
22835W        W23035   7.078  14.834   0.133  0.0943 -0.3319 -0.0864
22836W        W23036   1.340   5.980   7.486 -0.4102  0.1760  0.1849
22837W        W23037   8.206   1.227  12.427  0.0805  0.0600  0.1392
22838W        W23038   9.741  10.127   4.179 -0.1295  0.3989  0.1642
22839W        W23039   4.441   4.313  13.459  0.1566  0.1062 -0.0936
22840W        W23040   0.934   8.903   1.476  0.0974 -0.0269  0.0093
22841W        W23041  13.665   3.679   5.006  0.0739 -0.1408 -0.1871
22842W        W23042  11.965  14.146  13.797 -0.2531  0.0437 -0.1903
22843W        W23043   1.791   6.026   9.575  0.2501  0.1611  0.1091
22844W        W23044  13.938   1.677  13.155  0.0103 -0.0057 -0.3778
22845W        W23045  10.436  11.262   0.771 -0.2285  0.1333 -0.0920
22846W        W23046   2.569   5.810  10.828  0.1113  0.2806  0.0108
22847W        W23047   8.028  13.180  15.020  0.2247 -0.0954  0.0585
22848W        W23048  11.744   8.114   7.466  0.2180  0.0392 -0.2537
22849W        W23049  14.419   5.965   1.609 -0.2814  0.0801 -0.0020
22850W        W23050   4.956  10.660   3.964 -0.0586  0.2673 -0.1470
22851W        W23051   5.236  14.400   2.982  0.0855  0.1803  0.3802
22852W        W23052   9.308  10.549   5.328 -0.1293  0.1432 -0.0462
22853W        W23053   3.080   3.731   7.306 -0.2012  0.1008  0.1525
22854W        W23054  12.055   5.925  14.967 -0.0591  0.0264  0.0305
22855W        W23055  10.088   4.900  13.694 -0.0545  0.0468 -0.0305
22856W        W23056  11.418   3.912   3.219  0.3640 -0.0963  0.0364
22857W        W23057   6.552   5.283  14.247 -0.1490 -0.3412  0.0694
22858W        W23058  14.942   5.755   8.262  0.1587  0.0301  0.0069
22859W        W23059   4.817  12.298   8.445 -0.0064  0.1516  0.0716
22860W        W23060   5.095   4.538   8.017 -0.5705  0.1770 -0.0100
22861W        W23061   6.735   1.641  14.360  0.1719  0.1207  0.0792
22862W        W23062  11.957  14.667   2.761  0.1262 -0.0381 -0.1587
22863W        W23063   2.688  12.258   5.212  0.1424  0.1250 -0.1803
22864W        W23064  14.381   4.955   4.358 -0.2335  0.1460  0.0545
22865W        W23065  13.998   6.519   4.177 -0.1954  0.3303  0.3505
22866W        W23066   2.051   5.283   7.189  0.3709  0.1440 -0.1934
22867W        W23067  11.725   4.090   2.756 -0.0785 -0.1783 -0.0874
22868W        W23068  11.325  14.125  10.737 -0.0896 -0.1846  0.3028
22869W        W23069   6.997   2.981   4.418  0.3336  0.0424  0.0049
22870W        W23070   9.603   6.859  10.604  0.1215  0.0599  0.1973
22871W        W23071   8.851   2.401   4.351  0.2193  0.2775 -0.0198
22872W        W23072   9.934   4.833   0.233 -0.0861 -0.1800  0.2135
22873W        W23073   3.888   3.412   9.188 -0.3069  0.0845 -0.2017
22874W        W23074   0.376   6.279   4.544  0.1656 -0.0153  0.1498
22875W        W23075  14.555   5.232  13.563  0.3161 -0.2550 -0.0174
22876W        W23076   0.079   3.254   7.460  0.2452 -0.0977  0.1991
22877W        W23077   7.685   3.736  13.386 -0.4327  0.1019  0.3039
22878W        W23078   1.996   2.651   3.716 -0.1013 -0.4582  0.0821
22879W        W23079  11.619   0.402   2.402 -0.3801 -0.1438 -0.0231
22880W        W23080   4.763   8.743  12.400  0.0790 -0.0465  0.0370
22881W        W23081  10.235   4.161   9.775 -0.3181 -0.0307  0.0793
22882W        W23082  14.168   9.667   8.556 -0.7268 -0.3260  0.0087
22883W        W23083   0.252   5.315  11.967  0.1097  0.3091 -0.2336
22884W        W23084  12.595   5.080   3.112  0.0735 -0.0035 -0.1179
22885W        W23085   9.244   3.823  14.717  0.0405  0.3136 -0.0408
22886W        W23086  14.868   4.496   6.453 -0.0986 -0.0727  0.2455
22887W        W23087   5.209   3.856   5.478  0.1346 -0.0510 -0.3103
22888W        W23088  11.104   6.445   2.198  0.0379  0.1218  0.2708
22889W        W23089   1.922   8.874   1.044  0.0898  0.2105  0.0711
22890W        W23090   7.993  10.209   5.610  0.0217  0.0012 -0.2115
22891W        W23091  11.153   1.412  12.311 -0.1268  0.2202 -0.2213
22892W        W23092   8.572  13.222  10.477 -0.1223  0.3825  0.2213
22893W        W23093   9.328   9.833   8.867 -0.0285 -0.2398 -0.0232
22894W        W23094   3.012  14.332  12.464 -0.1003  0.1699 -0.0673
22895W        W23095  12.707   8.832   2.303  0.2397 -0.1951 -0.0328
22896W        W23096   6.388   8.277   4.444 -0.2414 -0.1202  0.0116
22897W        W23097  14.897   2.272   2.234 -0.2555  0.1569  0.1151
22898W        W23098   0.771   6.652  10.142 -0.1532 -0.0228 -0.0163
22899W        W23099   2.024  14.656   4.385 -0.2700  0.1233  0.1402
22900W        W23100   0.291   2.066   4.899  0.0766 -0.0817 -0.1947
22901W        W23101   6.728   3.194   0.156  0.0269 -0.2811  0.3244
22902W        W23102  12.378   6.167   6.362 -0.0059  0.1214  0.2790
22903W        W23103   8.985  11.684   3.247 -0.0360  0.0538 -0.1661
22904W        W23104   6.532   1.127   7.335 -0.1056 -0.2270 -0.0463
22905W        W23105   2.194   4.470   4.198 -0.1011 -0.0568  0.1135
22906W        W23106  13.273  12.199   6.501 -0.1871  0.0733 -0.0200
22907W        W23107   1.641  13.595   4.681  0.1600  0.2645  0.2010
22908W        W23108   9.641   9.641   4.160  0.0122 -0.2902  0.2007
22909W        W23109  14.395   3.630   3.435 -0.0168 -0.0792 -0.1336
22910W        W23110   2.347   3.018   9.206 -0.0193 -0.3605 -0.3640
22911W        W23111   2.932   3.352   5.292 -0.0162 -0.1182 -0.1145
22912W        W23112  10.892   8.333   7.515 -0.1990 -0.3377  0.0485
22913W        W23113  14.920  13.366   4.378  0.1760 -0.4128  0.1129
22914W        W23114  11.036  12.903   2.541 -0.2527 -0.3440 -0.2155
22915W        W23115   2.261   0.932  13.482  0.3592 -0.1657  0.2958
22916W        W23116  10.552  11.986   3.769  0.1750 -0.1334  0.1072
22917W        W23117  11.430   9.772  11.062  0.0194  0.1746 -0.0065
22918W        W23118  12.390   6.234  13.694  0.2890  0.1679  0.0064
22919W        W23119  12.673  14.275  12.113  0.1537 -0.0761 -0.3047
22920W        W23120   9.603   6.830  15.120  0.2388 -0.0684 -0.1640
22921W        W23121   4.862   3.607   3.838  0.0303  0.1201  0.1339
22922W        W23122  13.636   7.912   5.361 -0.1393 -0.1184  0.0377
22923W        W23123   0.799   8.454   1.628  0.0971 -0.0201  0.0703
22924W        W23124  14.008   1.092  13.083 -0.4316 -0.0334  0.0423
22925W        W23125   2.741   1.992   2.310 -0.1700  0.1148 -0.1883
22926W        W23126  10.572   5.914   2.614 -0.3084 -0.1248 -0.2400
22927W        W23127   9.857   5.719   3.007  0.0746  0.2282 -0.2172
22928W        W23128  13.310   8.231  10.004 -0.1433 -0.0516  0.4174
22929W        W23129  14.611  14.234   6.757  0.0815 -0.0240 -0.2458
22930W        W23130   5.453   5.604  11.887 -0.0529  0.0517  0.1293
22931W        W23131   3.733   2.216   5.360 -0.2524  0.0090  0.3063
22932W        W23132   3.479   9.832   8.827 -0.1247 -0.0419  0.1972
22933W        W23133  11.989   6.403   7.221 -0.2027 -0.1188  0.2447
22934W        W23134  15.179   7.917  12.419  0.2732  0.1829 -0.0741
22935W        W23135  10.363   7.623   3.369  0.0108 -0.0737 -0.2754
22936W        W23136  13.683   5.402   7.624 -0.1305 -0.1012 -0.0075
22937W        W23137   6.593   7.435   4.128 -0.0956  0.3412 -0.2338
22938W        W23138  12.476   8.219   4.450  0.2353  0.0306  0.0524
22939W        W23139  14.272   1.616  13.566  0.0954 -0.0797  0.0593
22940W        W23140   7.457   7.791   7.599 -0.1183 -0.2994  0.2471
22941W        W23141   2.679   8.811   5.178 -0.1522 -0.2411  0.1278
22942W        W23142  13.473   0.502   3.302 -0.1923  0.2288 -0.0299
22943W        W23143   2.875   6.059  12.155  0.0150  0.3071 -0.0180
22944W        W23144   9.532   9.575  10.513 -0.0060  0.0386  0.0412
22945W        W23145   1.499  13.543  13.171 -0.2386  0.1479  0.1621
22946W        W23146  10.823  14.236   9.174 -0.3732 -0.2080 -0.0866
22947W        W23147  12.648  11.514   9.165  0.1343  0.3140 -0.4333
22948W        W23148  12.367   9.308   2.115  0.0258 -0.1219 -0.0811
22949W        W23149   7.879  11.188  11.062  0.1991  0.2361 -0.1754
22950W        W23150  10.096   3.609   4.683 -0.0299  0.1476 -0.1550
22951W        W23151   5.820   8.714  10.461 -0.0313 -0.2120 -0.2114
22952W        W23152   4.357   9.510   4.460 -0.0059  0.0054 -0.2465
22953W        W23153   4.809   3.357   0.129  0.1189 -0.2032  0.2842
22954W        W23154  10.921  13.455  11.116  0.1009  0.1209  0.0115
22955W        W23155   1.651  11.404   4.908  0.2979  0.1006 -0.2636
22956W        W23156   3.256  11.131   2.621 -0.4947 -0.2535  0.2769
22957W        W23157  14.628  11.709   4.545  0.2382  0.3081 -0.2468
22958W        W23158  12.562  10.634   8.906  0.1606  0.1752 -0.0428
22959W        W23159   6.597  15.128   6.549  0.1381 -0.1157  0.0390
22960W        W23160  10.780   7.387   4.079  0.0298 -0.3736 -0.1214
22961W        W23161   7.505   8.387  11.984  0.1719  0.2593 -0.2871
22962W        W23162  12.766   2.926   8.749  0.1013 -0.1306 -0.1027
22963W        W23163   4.936  13.733   1.333 -0.1919  0.2497  0.1680
22964W        W23164  14.623   9.819  13.958 -0.0470  0.2754  0.0208
22965W        W23165   8.724   0.977  12.549  0.0170  0.1295  0.0572
22966W        W23166  12.579   4.514  12.631 -0.1126  0.1337  0.2345
22967W        W23167  11.653  12.305   6.500  0.1199  0.1697  0.4328
22968W        W23168   1.749  10.515   3.453 -0.1005 -0.1954  0.2083
22969W        W23169   8.257  14.658   3.131 -0.0406  0.1162 -0.0438
22970W        W23170   9.180   6.858   9.344  0.0941  0.1323 -0.0959
22971W        W23171  12.131  10.927   5.281 -0.2846 -0.1098  0.0025
22972W        W23172  14.861   4.981  12.137 -0.1230 -0.0249 -0.0236
22973W        W23173   4.139  11.548  14.548 -0.0906  0.1126 -0.1673
22974W        W23174   8.612   2.095  14.311  0.1429 -0.1016  0.2088
22975W        W23175   2.589   2.866   1.419  0.1139 -0.0369 -0.1461
22976W        W23176   1.460   8.433   6.337 -0.1543  0.0383 -0.1533
22977W        W23177   9.612  14.844   7.116  0.1209 -0.2652  0.0201
22978W        W23178   3.207   5.579   5.613  0.2977  0.1112  0.1682
22979W        W23179   8.127   1.588   6.814 -0.0936  0.1030  0.0513
22980W        W23180   0.681   2.518  13.176  0.3020  0.1041 -0.0919
22981W        W23181   6.390   4.217   5.664 -0.0134  0.1613  0.2057
22982W        W23182   8.606   4.553   7.017 -0.2501 -0.2848  0.2909
22983W        W23183  11.887   4.461  14.262 -0.0509  0.0065  0.2063
22984W        W23184  15.082  12.411  10.945 -0.2480  0.1651  0.0036
22985W        W23185  14.703   8.614   3.791 -0.0025  0.1364 -0.1983
22986W        W23186   2.768   6.093  13.587  0.3476  0.0437  0.1518
22987W        W23187   9.123  10.549   0.009 -0.2658  0.1535 -0.0550
22988W        W23188  14.881   8.803   9.348  0.0941 -0.0517  0.0272
22989W        W23189   7.426  11.338  14.504  0.0224 -0.0901  0.0782
22990W        W23190   4.699   1.353   9.814  0.0525 -0.1512  0.1323
22991W        W23191   1.191   7.941   4.336 -0.0559 -0.2070 -0.0357
22992W        W23192  15.048   9.241   9.515  0.2624 -0.0768 -0.3457
22993W        W23193   3.389   8.063   7.732  0.0589  0.1069  0.1046
22994W        W23194   9.443  12.568   3.354 -0.3136 -0.2308 -0.2290
22995W        W23195   4.388   6.827   9.922 -0.1324  0.0739 -0.2635
22996W        W23196   0.183   4.771   6.657  0.0323 -0.1768 -0.3189
22997W        W23197   1.334   6.523   8.286  0.0733  0.2532  0.1445
22998W        W23198  11.065   0.945   9.188  0.0154 -0.1498 -0.1334
22999W        W23199  10.887  12.632   0.828 -0.1226 -0.1784 -0.0146
23000W        W23200  11.457   8.421   8.396  0.1303  0.0297  0.0635
23001W        W23201  13.629  14.542   8.209  0.1895 -0.0708 -0.0586
23002W        W23202  11.654  10.199   8.171 -0.3617  0.0258  0.2096
23003W        W23203   0.321   6.578   7.244  0.1005  0.3073  0.0913
23004W        W23204  14.460   1.387   8.126  0.5051 -0.1924  0.1737
23005W        W23205   9.334   7.823   5.442 -0.0600 -0.1490 -0.0892
23006W        W23206   1.035   7.415   3.675  0.2810 -0.0695 -0.0397
23007W        W23207   7.771  11.245   6.443 -0.2029 -0.0926 -0.1132
23008W        W23208   9.928   4.000   6.910 -0.0351 -0.0097 -0.3356
23009W        W23209   4.986   0.486   7.633 -0.0931  0.2150 -0.1036
23010W        W23210  13.835  13.978  11.803 -0.2078 -0.0627 -0.0265
23011W        W23211   9.005   3.217   8.217 -0.1167  0.0823  0.1274
23012W        W23212  13.785   2.393  12.219 -0.4591  0.0226  0.4102
23013W        W23213   5.605  13.482  10.479 -0.0872 -0.1635  0.2977
23014W        W23214  13.195  15.159   2.691 -0.0731 -0.3209  0.2534
23015W        W23215   2.199   1.128  11.439 -0.1753  0.0797 -0.1208
23016W        W23216  15.004   5.792   6.649 -0.0376  0.0256  0.2033
23017W        W23217   1.043  12.332   8.864 -0.1140  0.2510  0.0788
23018W        W23218   4.302   3.214   6.682 -0.4322 -0.0665  0.0251
23019W        W23219   8.544   1.429   2.456  0.0303 -0.0355 -0.1157
23020W        W23220  14.383   6.211   6.606 -0.1631  0.0366 -0.1786
23021W        W23221   1.665   4.009   8.918 -0.3106 -0.2252  0.1250
23022W        W23222   3.927   6.079   9.262 -0.2272 -0.1557 -0.0900
23023W        W23223  10.500   8.626  12.133  0.0244  0.0688 -0.0084
23024W        W23224   9.236  13.504  12.184  0.1072  0.0513 -0.1085
23025W        W23225   2.320   3.256   1.867  0.1791 -0.0335 -0.0208
23026W        W23226   3.194   1.126   8.828 -0.0078 -0.0730  0.3074
23027W        W23227  11.725   9.322   4.489  0.4074 -0.0401  0.4470
23028W        W23228   3.954   9.262   8.361  0.0128 -0.0970  0.0608
23029W        W23229   9.835   2.416   8.811 -0.2514 -0.0792  0.0515
23030W        W23230   8.912  11.122   6.397  0.2679 -0.1630 -0.0828
23031W        W23231   4.449   5.780   2.367  0.1471  0.0577  0.2720
23032W        W23232   9.018   0.881   6.587  0.2244  0.0434  0.0351
23033W        W23233   7.874   6.414   8.043 -0.0821 -0.2802  0.1011
23034W        W23234  11.856   1.076   9.493  0.2977  0.1060  0.1875
23035W        W23235  14.136   4.617   7.824  0.1779  0.0832 -0.1592
23036W        W23236   0.576   8.088  14.780  0.2122 -0.2203 -0.0003
23037W        W23237  11.414   5.812  13.096 -0.1318  0.1283 -0.0973
23038W        W23238  12.201  10.946  10.888 -0.1232  0.0616 -0.2526
23039W        W23239   1.821   5.988   4.177 -0.2202 -0.0763 -0.1287
23040W        W23240  13.900   8.502   6.036 -0.0860  0.1600  0.0501
23041W        W23241   0.110   5.087  12.393  0.0894  0.0112  0.2715
23042W        W23242  10.733   6.380  10.934  0.0506 -0.0048  0.1013
23043W        W23243  13.669   7.161  14.234 -0.0351  0.3295 -0.0365
23044W        W23244  11.413   5.673   6.176  0.1146 -0.2683 -0.0776
23045W        W23245   9.416   4.658  14.725 -0.1176 -0.1415  0.1808
23046W        W23246   9.892   2.098   0.894 -0.2221 -0.0942  0.0177
23047W        W23247   8.423   5.124   3.442 -0.1461 -0.2310 -0.0521
23048W        W23248   3.860   8.600  10.582  0.2778 -0.5649 -0.1128
23049W        W23249   8.044  10.201  13.110  0.0751 -0.2971 -0.1443
23050W        W23250  12.397   0.974   3.985 -0.0271  0.1239  0.0598
23051W        W23251   1.676  13.153   6.572 -0.0507  0.0267  0.4185
23052W        W23252   6.854   1.344   1.358 -0.2850  0.2771  0.1759
23053W        W23253  13.715  14.865   5.095  0.0068 -0.3862 -0.1310
23054W        W23254   7.846  13.932   2.539 -0.1818  0.1907  0.4416
23055W        W23255  13.525   4.528   3.877 -0.0334 -0.0776  0.0060
23056W        W23256   0.133   9.603   3.099  0.0173 -0.0674  0.0877
23057W        W23257  11.130   2.522   8.843 -0.2251  0.1797  0.0901
23058W        W23258  10.641   4.346   4.569  0.2785  0.1352 -0.2205
23059W        W23259   4.189   4.894  14.252  0.3712 -0.2142 -0.1312
23060W        W23260   3.435   1.168   7.473  0.4585  0.2010 -0.0204
23061W        W23261   5.934  12.195   6.890 -0.1267  0.1394  0.2262
23062W        W23262  14.249   8.423  14.793 -0.0938  0.2731 -0.2800
23063W        W23263   0.350   6.906   0.184 -0.0074  0.3870  0.1642
23064W        W23264   4.517   6.119   8.117  0.1055 -0.0341  0.2370
23065W        W23265   3.641   3.581  10.531 -0.0178  0.0527 -0.2368
23066W        W23266   0.949   8.298   4.095 -0.0678 -0.2115 -0.2961
23067W        W23267   7.025  11.959   3.999  0.0157  0.2508  0.2311
23068W        W23268   2.283   6.104   8.812 -0.0595  0.1743 -0.1296
23069W        W23269   8.413  12.678   4.135  0.0352  0.1664 -0.2281
23070W        W23270   9.622   2.616   4.455 -0.2794 -0.0561  0.5705
23071W        W23271   5.800  10.939   5.418  0.0144 -0.0343  0.0202
23072W        W23272   7.554   1.940   5.644  0.3429 -0.2052  0.0381
23073W        W23273  13.407   0.588  10.506 -0.5892  0.0408  0.1291
23074W        W23274   9.156   5.364   5.631  0.1105 -0.2315 -0.0080
23075W        W23275  15.064   6.747   7.032  0.4476  0.1643  0.2556
23076W        W23276   0.623  12.499  12.137  0.4296  0.2227 -0.3972
23077W        W23277  14.918  12.782   1.428 -0.1185  0.2017 -0.2861
23078W        W23278  13.755   7.384   9.947  0.2051  0.0728  0.2763
23079W        W23279   7.932  14.376   8.988 -0.2446  0.0390 -0.2254
23080W        W23280  10.579   4.102   8.454 -0.1655 -0.0523 -0.0967
23081W        W23281   2.678   5.464  14.381  0.0381  0.0988 -0.0220
23082W        W23282   4.682   9.381   8.833 -0.0870 -0.0655  0.0633
23083W        W23283  10.506   7.622  10.634 -0.0508  0.1105  0.1339
23084W        W23284   2.234   1.897  14.588  0.1701 -0.1651  0.0507
23085W        W23285   3.509   7.144   8.595  0.2163 -0.0591  0.0557
23086W        W23286   0.480   6.572   2.022 -0.0649 -0.0357 -0.4352
23087W        W23287  13.308  12.973   6.786 -0.1051 -0.1181  0.2051
23088W        W23288   0.250   2.483   7.738  0.1180 -0.3024  0.2809
23089W        W23289  10.247   9.718   0.494  0.1448  0.1553  0.0882
23090W        W23290  10.225   0.829   3.284  0.1382  0.2226  0.2134
23091W        W23291  13.056   2.598  14.064 -0.0473  0.1432 -0.0977
23092W        W23292   9.819   1.556   2.929 -0.0498  0.0654  0.4552
23093W        W23293   7.731   0.095   7.603  0.2993 -0.1318  0.2395
23094W        W23294   2.357   4.714   3.782  0.4996 -0.0784  0.1134
23095W        W23295   1.592   5.052  10.766  0.0109  0.1605  0.0537
23096W        W23296  10.233   5.739  10.546 -0.1816  0.1924 -0.0976
23097W        W23297  12.067   8.630  11.083  0.2192 -0.0519 -0.0310
23098W        W23298  13.248   4.495   9.522  0.0145  0.1188  0.0373
23099W        W23299   1.798   1.897   4.367  0.1943  0.1826 -0.0393
23100W        W23300  14.884  14.829   7.256 -0.4207 -0.3324  0.0287
23101W        W23301   6.319  15.028   8.750 -0.1422  0.3236 -0.1728
23102W        W23302  12.009   0.137   7.835  0.4011  0.0866  0.0421
23103W        W23303  12.616   1.315  13.494  0.0631 -0.0348  0.1079
23104W        W23304   7.727  13.297   7.365  0.0459 -0.1131  0.0470
23105W        W23305   0.713   9.345   7.245  0.0427  0.4115 -0.0133
23106W        W23306  14.772   3.533   0.708 -0.0389 -0.0599  0.1579
23107W        W23307   8.768   3.524   9.715 -0.0302  0.1715  0.4149
23108W        W23308  13.336   3.531   2.776  0.3802  0.2690 -0.2742
23109W        W23309  13.444   7.387   4.957  0.0823 -0.0825 -0.1407
23110W        W23310   4.553   8.397   4.876  0.1578  0.3032 -0.3351
23111W        W23311  14.535   4.413   8.649  0.4358  0.1544  0.1040
23112W        W23312   6.819   8.648   3.250  0.1345  0.3577 -0.0970
23113W        W23313   6.929  13.928   6.111 -0.0401  0.1926  0.1815
23114W        W23314   8.470   5.006   1.373  0.0822 -0.1777 -0.1594
23115W        W23315   7.320   5.483   3.796  0.0588 -0.4412 -0.0526
23116W        W23316   7.138   4.314   4.275  0.0214 -0.1102 -0.0784
23117W        W23317   3.826  11.835   2.767  0.2723  0.0608  0.2252
23118W        W23318  10.929   7.352   0.319  0.0118  0.0651 -0.1344
23119W        W23319   6.740   6.581   7.693 -0.0171 -0.3480  0.0429
23120W        W23320   4.789  10.473  10.193 -0.1513  0.1542 -0.1213
23121W        W23321   2.543   7.356   1.394  0.2043  0.0581 -0.1278
23122W        W23322  11.785  13.955  12.607  0.0794  0.0763 -0.1411
23123W        W23323   1.518   6.138   6.281  0.2098 -0.1411 -0.0531
23124W        W23324  10.444   7.061  13.005  0.2111  0.0195  0.0856
23125W        W23325   5.049   0.124   8.013  0.0459 -0.1651 -0.1716
23126W        W23326   0.693   9.888   4.009 -0.2067 -0.0253 -0.0501
23127W        W23327   2.662   8.583   7.926  0.2784 -0.0653 -0.1931
23128W        W23328   8.193   5.832   3.988  0.0438 -0.0667 -0.2114
23129W        W23329  13.345  14.308  13.533  0.2000  0.1813 -0.0762
23130W        W23330  14.105   9.695   7.479  0.1649  0.0060  0.0172
23131W        W23331  12.077   3.613   7.373  0.0561 -0.0133 -0.2625
23132W        W23332  13.563  10.360  11.510 -0.1193  0.2061  0.1599
23133W        W23333  13.146   6.619   6.765 -0.0625  0.0746 -0.0266
23134W        W23334   6.256  13.860  14.018  0.1104 -0.0446 -0.3090
23135W        W23335  12.733   1.589  10.973 -0.0308  0.2082  0.2914
23136W        W23336  14.589   9.548   5.458  0.2407 -0.0903  0.1227
23137W        W23337  12.340   4.835   4.083 -0.2684  0.0625  0.0650
23138W        W23338   9.764  13.324   9.285 -0.3021 -0.1478  0.0391
23139W        W23339   3.344  10.546   1.393 -0.2727 -0.0609 -0.0167
23140W        W23340  12.522  11.235   8.215  0.1308  0.0894  0.2905
23141W        W23341   9.751   3.761   5.870 -0.1192 -0.0801  0.2735
23142W        W23342   7.286   2.009   4.236 -0.2080 -0.3071  0.0852
23143W        W23343   7.924   5.830   2.269  0.0937  0.2015 -0.0486
23144W        W23344  10.039   8.277   1.349  0.0989 -0.1091 -0.2329
23145W        W23345   7.701   3.859   3.754  0.2732  0.1984  0.1332
23146W        W23346   2.150   5.462   5.813 -0.0399  0.1813  0.0426
23147W        W23347   7.686  11.440   5.136  0.2024  0.3081  0.1130
23148W        W23348   4.739  13.613   4.720  0.2840  0.2205 -0.1171
23149W        W23349  12.975   0.333   9.556  0.0258 -0.2426  0.1236
23150W        W23350   6.139   2.649  10.503 -0.1127 -0.1451 -0.0392
23151W        W23351   2.629  10.782   3.537 -0.0603 -0.1755  0.0434
23152W        W23352  10.182   6.781  10.782  0.1262 -0.0466 -0.0179
23153W        W23353   8.579   0.151  12.071 -0.4161 -0.0385 -0.0358
23154W        W23354   3.071   0.086   6.450 -0.1786 -0.1735 -0.2129
23155W        W23355   6.806  15.031  11.053 -0.0021  0.2546  0.0470
23156W        W23356  12.422   7.285  11.219  0.2115  0.0550 -0.1343
23157W        W23357  11.792   1.566   1.221 -0.0732 -0.1303 -0.0466
23158W        W23358   6.140  10.307   7.410 -0.1304 -0.0022  0.2442
23159W        W23359  10.388   7.825   5.731  0.1566 -0.3871 -0.1190
23160W        W23360   8.770   5.598   9.678  0.0822  0.2008 -0.0256
23161W        W23361   2.069   5.278  14.262  0.1110 -0.3849 -0.2641
23162W        W23362   5.619   0.821   3.471 -0.0286 -0.0627 -0.0922
23163W        W23363  12.700   6.532   6.549 -0.0325  0.1132 -0.2104
23164W        W23364   9.612   0.845  11.597 -0.2410  0.1042  0.2301
23165W        W23365   6.925   2.088   5.614  0.2663 -0.0860  0.0065
23166W        W23366  11.346   9.320  11.412  0.0905 -0.0856  0.0868
23167W        W23367   1.924   8.725  12.490  0.2189  0.0152  0.3152
23168W        W23368   2.910   6.595  12.059  0.3002  0.0227 -0.2605
23169W        W23369  11.048   2.747   5.563 -0.1227  0.2476  0.0626
23170W        W23370   5.897  14.430   7.846 -0.2011  0.2686  0.1054
23171W        W23371  11.828   3.992   1.008  0.1163  0.0985  0.1174
23172W        W23372  13.179  11.096   5.097  0.1515 -0.3287 -0.1283
23173W        W23373   3.004  10.212   4.280  0.2747  0.0716 -0.2700
23174W        W23374   5.817   4.018   4.395  0.2996  0.1921 -0.0547
23175W        W23375   8.752   6.917   3.312 -0.0785  0.0889 -0.0747
23176W        W23376   2.370   5.125   0.591  0.0142 -0.1132 -0.2207
23177W        W23377   0.947  11.750   8.662  0.3553  0.0720 -0.2768
23178W        W23378   7.753  13.601  14.660  0.0343 -0.3134 -0.2999
23179W        W23379  12.212   1.058   5.992  0.0072 -0.0935  0.2817
23180W        W23380  12.860   6.119   8.787  0.2467 -0.2259  0.1105
23181W        W23381   9.287   9.058   3.645  0.1466 -0.6069 -0.0210
23182W        W23382   0.302  14.881   5.353 -0.1684  0.3134 -0.1461
23183W        W23383  10.766   5.989   5.689  0.1429  0.1563 -0.1719
23184W        W23384   6.904  12.569   2.470  0.0748  0.3232 -0.2988
23185W        W23385  12.226  14.025   5.462 -0.0538  0.1485 -0.2089
23186W        W23386   5.524   6.449   6.539  0.0046 -0.3062  0.0898
23187W        W23387   1.238  11.857   7.339 -0.0442 -0.1865  0.1408
23188W        W23388  11.621   8.518   4.303 -0.0097  0.1680  0.1145
23189W        W23389   9.049   7.460   4.202  0.0943 -0.2968  0.0945
23190W        W23390   4.644  14.737   1.502  0.0491  0.3340  0.0163
23191W        W23391   6.492   1.635   0.659  0.1912  0.2799 -0.0708
23192W        W23392  12.177  10.329   6.647 -0.0894  0.3538  0.2070
23193W        W23393   8.344   8.500   8.088 -0.2228 -0.2520  0.1587
23194W        W23394   0.852  14.372   1.104 -0.1209  0.1759  0.0108
23195W        W23395  14.469   4.584   0.127 -0.2047 -0.2390 -0.0797
23196W        W23396  15.179  14.498   0.544 -0.2165  0.1517  0.1603
23197W        W23397   9.617   6.323  12.682 -0.0155  0.2630  0.0227
23198W        W23398  13.141   8.487  13.108  0.0341  0.2100 -0.3267
23199W        W23399   4.803   1.471   7.187  0.0007 -0.1340 -0.5695
23200W        W23400  12.284   2.343   6.776 -0.0510 -0.1481 -0.0884
23201W        W23401   2.344   7.992   5.103  0.2381 -0.2662 -0.0612
23202W        W23402   8.968  10.198   3.817  0.3316  0.2341  0.2822
23203W        W23403  10.522   9.590   2.405  0.1519  0.1137 -0.1678
23204W        W23404   7.884  11.790  10.261  0.3395 -0.1746  0.2348
23205W        W23405   1.944   7.610   4.996 -0.1592 -0.0352 -0.4279
23206W        W23406   6.784   6.523   9.142 -0.0747 -0.1919 -0.1333
23207W        W23407   9.817  14.589   7.927 -0.1618 -0.0068 -0.3944
23208W        W23408   9.369   2.496  15.059  0.1507  0.1941 -0.1206
23209W        W23409   2.036   6.854  10.236  0.2831 -0.0210  0.4445
23210W        W23410   6.898   9.321  14.528 -0.2093  0.0438  0.0770
23211W        W23411   5.703  14.658  12.201 -0.0323  0.2527  0.1773
23212W        W23412   4.984   8.046   6.826  0.1674  0.1486 -0.0895
23213W        W23413  12.351   6.824   0.220 -0.0770 -0.1598  0.1326
23214W        W23414   6.886   1.335  13.929 -0.1725  0.0108 -0.1644
23215W        W23415   0.012  15.164   2.482 -0.0550  0.0017 -0.2160
23216W        W23416   8.297   1.319   6.111 -0.0084  0.0842 -0.1106
23217W        W23417   8.849   1.970   9.253  0.1939 -0.0853  0.2014
23218W        W23418   0.832   2.402   7.830 -0.2797  0.3371  0.0862
23219W        W23419   6.435   6.545  13.350  0.2832 -0.0055 -0.0896
23220W        W23420  12.167   9.607   3.348  0.2720 -0.0745 -0.1222
23221W        W23421   4.163  14.371  10.802 -0.2196  0.0629 -0.3566
23222W        W23422   1.112   2.499  13.357  0.0351  0.3258  0.2024
23223W        W23423   5.815  10.742   5.922 -0.1201  0.1526  0.2537
23224W        W23424  10.219   3.358   4.238 -0.1399  0.0946 -0.1357
23225W        W23425  14.541   3.532   8.640 -0.2311 -0.2019 -0.0883
23226W        W23426   1.151  13.777   5.586  0.2438  0.0972  0.0588
23227W        W23427   5.547   5.195   6.966  0.1761 -0.1646  0.1440
23228W        W23428  14.629   7.230   0.928  0.0405  0.2802  0.0884
23229W        W23429  11.260   5.215   7.289 -0.3108 -0.0450  0.3362
23230W        W23430  14.079   8.564   6.561 -0.0870  0.0904 -0.2436
23231W        W23431   2.604   9.591  13.201 -0.1335  0.2220 -0.1087
23232W        W23432  13.860   7.490   5.837 -0.0695 -0.2267 -0.1543
23233W        W23433  10.874  13.943   6.197  0.1334 -0.1350  0.0809
23234W        W23434   7.665   8.321   7.479  0.2931  0.0019 -0.4209
23235W        W23435  11.659  14.295   8.850  0.2789 -0.1701  0.0733
23236W        W23436   7.527  14.382   4.009 -0.2858 -0.1494 -0.2822
23237W        W23437  12.064   3.053   1.137  0.0852 -0.1321  0.0861
23238W        W23438   3.507   1.888   9.075 -0.0914  0.1094  0.1484
23239W        W23439   0.847   8.514  11.903  0.2955 -0.1082  0.0852
23240W        W23440  14.556   6.685  12.915 -0.2234  0.0033 -0.0734
23241W        W23441  11.672   1.102   2.875 -0.2652 -0.0213  0.1244
23242W        W23442  12.518   6.999   7.456  0.0984 -0.3547 -0.0013
23243W        W23443  11.713   9.861   7.296 -0.1819 -0.2627 -0.0880
23244W        W23444   4.857  14.724   6.568  0.1962 -0.0017  0.0666
23245W        W23445   4.051  10.846   4.858  0.1291  0.2042 -0.0136
23246W        W23446   5.196  11.999   1.071 -0.0247  0.1490 -0.1226
23247W        W23447  10.022  10.252   0.073 -0.2275 -0.3329 -0.1057
23248W        W23448   7.652   0.631   7.672  0.1296  0.0543  0.0744
23249W        W23449   7.210  10.421  12.608 -0.1022  0.0832 -0.1231
23250W        W23450   4.187   5.819   4.765 -0.3603  0.2590  0.0619
23251W        W23451  10.989   1.698   6.839  0.1734  0.2176  0.0870
23252W        W23452   4.443   3.804   7.524  0.0743  0.0663 -0.0624
23253W        W23453  11.830  10.777  11.137 -0.0155  0.0122  0.1731
23254W        W23454   7.767  10.968   6.909  0.0409  0.0449 -0.0819
23255W        W23455   9.890   2.145   9.216  0.0910  0.2067 -0.1578
23256W        W23456   7.689  11.500   9.052  0.0493  0.0839  0.0996
23257W        W23457   9.977  11.096   6.619 -0.2909  0.0002  0.1778
23258W        W23458  10.329   0.148   7.555 -0.0385  0.1185 -0.2314
23259W        W23459  12.638   9.875  11.847  0.3375 -0.1021 -0.1631
23260W        W23460   5.000   9.886   0.344 -0.0362 -0.1323  0.1620
23261W        W23461  11.952   3.207   2.977 -0.0552 -0.1833 -0.1805
23262W        W23462  12.023   8.363   4.665  0.0652 -0.0696 -0.1575
23263W        W23463   0.845   0.292   9.405  0.1979  0.0747  0.0997
23264W        W23464   2.667   0.166   8.477  0.1432  0.0872  0.0623
23265W        W23465  12.067   0.347   4.559 -0.0857  0.1577 -0.0703
23266W        W23466   8.420   8.949   8.523 -0.2901  0.0810  0.1224
23267W        W23467   5.068   3.514   4.767 -0.1026  0.0422  0.0386
23268W        W23468   9.721   8.308   3.544 -0.5868 -0.0507 -0.1772
23269W        W23469  11.850   0.973  11.970 -0.1399  0.0873 -0.0241
23270W        W23470  15.054   4.458  12.957  0.2913  0.1685  0.0949
23271W        W23471   7.120  12.741  11.552 -0.2875 -0.1787  0.2162
23272W        W23472   9.613   4.692  10.385 -0.2567 -0.1937  0.0086
23273W        W23473  12.394   3.261   2.786  0.0062 -0.1868  0.3084
23274W        W23474  13.037   4.544   5.158  0.2550  0.1719  0.1355
23275W        W23475   2.858   3.986   1.716 -0.2200  0.0580  0.1688
23276W        W23476  14.560   5.939   7.980 -0.2913 -0.2391 -0.0825
23277W        W23477   4.296   3.894   5.384 -0.0729  0.0890  0.1208
23278W        W23478   6.256   9.727   0.189  0.1012  0.0376  0.0514
23279W        W23479  10.491  11.960   0.763 -0.0195  0.1204 -0.0732
23280W        W23480  10.964   6.595   3.851  0.0340  0.0314  0.2900
23281W        W23481  15.096   2.741  13.472 -0.0492 -0.1261 -0.0642
23282W        W23482   1.433  10.590   6.552  0.2679 -0.0288  0.0777
23283W        W23483   7.081   4.684   8.556  0.3818 -0.0510 -0.4551
23284W        W23484   6.179   0.043  11.750  0.1297 -0.0420  0.2693
23285W        W23485   8.973  14.499   1.621  0.1145  0.3725 -0.4033
23286W        W23486  11.864   7.129   2.461  0.0644 -0.1876  0.3002
23287W        W23487   0.665   6.237   7.290 -0.2439  0.0923 -0.0599
23288W        W23488   5.527   1.058   1.835 -0.1560  0.2546 -0.1532
23289W        W23489   6.257   9.671   5.526 -0.0191  0.0415 -0.1066
23290W        W23490   8.880   3.359   4.199 -0.0082  0.0758 -0.0701
23291W        W23491  12.871   3.604   0.861 -0.0581  0.6888  0.1246
23292W        W23492  10.303  11.138  10.243 -0.1512 -0.1617 -0.0541
23293W        W23493   6.711   2.429  12.439  0.0322 -0.1121 -0.1125
23294W        W23494   1.848   0.991   8.746 -0.0277 -0.4316  0.1621
23295W        W23495  14.701   4.100   7.787 -0.1236 -0.2472  0.1300
23296W        W23496  11.716   6.775   9.549  0.0988 -0.0134  0.1354
23297W        W23497  14.555   9.747   8.187 -0.1213 -0.0585  0.1243
23298W        W23498   2.676   5.159  10.250 -0.0625  0.1945  0.1638
23299W        W23499   5.431   7.477   7.532 -0.2651  0.0796 -0.1330
23300W        W23500   2.850   4.381   6.649  0.0136  0.0060 -0.0577
23301W        W23501   9.555   8.606   0.690 -0.1536  0.2340  0.0080
23302W        W23502   6.609   3.021   4.080  0.1029 -0.1595  0.1710
23303W        W23503  15.098  11.379  12.651 -0.2565 -0.1951  0.1480
23304W        W23504   5.167  13.340   1.640  0.3117 -0.1893 -0.1850
23305W        W23505  11.591   2.160   9.569 -0.1283 -0.2087 -0.0341
23306W        W23506  10.297   4.517   4.118  0.1712  0.1492  0.2063
23307W        W23507   7.325   7.446   2.492  0.1812 -0.0555 -0.0191
23308W        W23508   5.772   6.913  14.597  0.2761  0.0087 -0.2858
23309W        W23509   7.896   1.299   9.966 -0.3233 -0.0244 -0.2154
23310W        W23510   0.107  14.349  10.294 -0.0780  0.0393  0.1301
23311W        W23511  14.287   2.867  10.938  0.2925  0.3569 -0.0832
23312W        W23512   1.543   1.071   7.875  0.1226  0.3949  0.4833
23313W        W23513   0.152  12.411  13.641 -0.2197 -0.0238 -0.1862
23314W        W23514   3.398  12.287   1.302  0.1271 -0.2225  0.2399
23315W        W23515  11.922   8.796   1.742 -0.0468 -0.0458 -0.2129
23316W        W23516   0.113   2.030   1.470  0.0355 -0.1417  0.4156
23317W        W23517  14.184   4.948   8.241  0.1451 -0.0470  0.3785
23318W        W23518  12.192  11.926  10.881  0.1046  0.1656 -0.1068
23319W        W23519   7.817  12.803  10.170 -0.0133 -0.1177  0.0766
23320W        W23520   8.086   4.371  12.666 -0.2431  0.3215  0.0415
23321W        W23521   4.827   8.795  14.572 -0.0396  0.1886  0.0574
23322W        W23522  13.445  10.991   5.714  0.0802  0.1392  0.0579
23323W        W23523   7.099   4.453  13.409 -0.0969 -0.0605  0.0166
23324W        W23524   5.897   8.132   3.630  0.1230 -0.1869  0.2172
23325W        W23525   4.589  13.178   2.474  0.1514  0.1764  0.0246
23326W        W23526   8.645   9.511  10.073 -0.0270 -0.1520  0.3001
23327W        W23527  10.347   3.912   5.532 -0.0390 -0.1762  0.0526
23328W        W23528  13.203   2.550   7.631 -0.2320  0.1578  0.0543
23329W        W23529   8.442   4.560   0.059  0.0330 -0.0243 -0.0495
23330W        W23530   8.271  13.739  11.615 -0.1309 -0.2929 -0.0115
23331W        W23531   0.296  11.875   1.567  0.0267 -0.3123  0.1930
23332W        W23532   9.834   0.356   3.316 -0.1024 -0.0743  0.0044
23333W        W23533   5.214   7.864   5.780 -0.0262  0.0677  0.2122
23334W        W23534   0.210   7.194   4.059 -0.0772  0.0126  0.0461
23335W        W23535   9.594   4.677   5.747 -0.0410  0.2398  0.2241
23336W        W23536  11.436   2.249  13.455 -0.2765 -0.0520 -0.0584
23337W        W23537  13.372   3.249   6.677 -0.0913  0.1969 -0.1520
23338W        W23538  15.006  10.671  11.106 -0.0742  0.3743  0.4865
23339W        W23539  11.093  10.174  11.077  0.2395 -0.0785  0.0472
23340W        W23540   7.508  14.737   0.920  0.0780  0.0079 -0.0078
23341W        W23541   1.635   8.071  14.772 -0.0943 -0.1499  0.0839
23342W        W23542  10.457   1.700  11.151  0.0472 -0.2737  0.0225
23343W        W23543  14.970   5.505  12.261 -0.0372  0.2651  0.1894
23344W        W23544   4.115   0.752  10.866 -0.1899  0.1106  0.1357
23345W        W23545  13.768   6.042  12.490  0.6956 -0.0170  0.0264
23346W        W23546   9.651   3.728  14.479 -0.5722  0.3578 -0.2256
23347W        W23547  13.055   2.172  10.976 -0.1042  0.0223  0.3284
23348W        W23548  13.989  12.072   1.085 -0.0709  0.0901 -0.0945
23349W        W23549  14.962   4.983   5.410  0.0004  0.2470  0.0646
23350W        W23550   9.761   1.280   4.291 -0.0011 -0.2024 -0.1312
23351W        W23551   1.810   6.869   1.908 -0.2103  0.0270  0.0290
23352W        W23552  14.819  11.664   0.670  0.1370  0.0045 -0.2612
23353W        W23553  11.283   7.974  13.240  0.1627  0.2305  0.1995
23354W        W23554  10.237  12.973  10.521  0.0018  0.0037  0.0680
23355W        W23555   0.367   5.814   6.551 -0.0214  0.0021 -0.0118
23356W        W23556   6.139   9.868   5.051 -0.1576 -0.1263 -0.2176
23357W        W23557   4.935   4.346   9.236  0.1154  0.2271  0.1676
23358W        W23558   4.035   0.682   2.322  0.1152  0.1624 -0.1941
23359W        W23559   5.558   3.388  11.393  0.3076 -0.0937 -0.1391
23360W        W23560  14.156   8.834   5.737 -0.0780  0.1745  0.1448
23361W        W23561   9.861   5.515   9.741  0.0049 -0.0561 -0.2316
23362W        W23562  11.854  10.495   9.455 -0.0765 -0.1560  0.1877
23363W        W23563   9.066   8.818   1.890 -0.0765 -0.0131  0.0832
23364W        W23564   1.820   9.199  12.194  0.2205  0.1718  0.1038
23365W        W23565  14.154  11.573  14.640  0.0773  0.1093  0.1603
23366W        W23566  12.015   6.306   8.256 -0.0057  0.2057 -0.2748
23367W        W23567   6.467   5.812   6.628 -0.0367  0.0121  0.2718
23368W        W23568  10.936   3.205   1.955  0.2655 -0.4180 -0.2589
23369W        W23569  11.394  14.028   8.124  0.2930 -0.2178 -0.0845
23370W        W23570   5.174   9.935   8.477  0.2228  0.1011 -0.0198
23371W        W23571   5.636  12.230  13.718 -0.0392  0.0980 -0.1101
23372W        W23572  14.911   4.500  14.887  0.0373  0.0157 -0.1964
23373W        W23573   0.871   7.229   9.032  0.0288 -0.1845 -0.2843
23374W        W23574  14.680   9.491   9.762  0.0251 -0.1812 -0.1799
23375W        W23575   7.982  12.789  11.978 -0.1060  0.0967  0.0541
23376W        W23576  15.011   3.340  11.092 -0.1136  0.0457  0.0513
23377W        W23577   5.768   3.380   6.675 -0.3286 -0.1722  0.2836
23378W        W23578  10.487   1.616   5.502 -0.1383  0.0092  0.1765
23379W        W23579   5.219   4.919   5.454  0.0061  0.4089  0.1324
23380W        W23580   2.781   2.523  12.150  0.0248 -0.1571 -0.0692
23381W        W23581   0.873   4.015  11.352 -0.0695  0.0607 -0.0344
23382W        W23582   5.853   0.770   9.031  0.0500 -0.1594 -0.0931
23383W        W23583  14.187   6.276  12.776  0.0396 -0.2077 -0.1773
23384W        W23584   7.599  13.497   2.270 -0.1141  0.0500  0.2819
23385W        W23585   9.357   2.316   7.644  0.0659  0.2076 -0.4050
23386W        W23586   2.643   9.898   8.551  0.3695 -0.3351 -0.0310
23387W        W23587  11.443   0.966  12.280  0.1595  0.2803  0.0872
23388W        W23588  12.566   8.904   9.619 -0.0429  0.0707  0.1282
23389W        W23589   9.509   8.437  13.077 -0.1213  0.2169 -0.0994
23390W        W23590   7.674   9.553  11.657 -0.0168 -0.1276 -0.1176
23391W        W23591  14.557   7.843   8.242 -0.1312 -0.1356 -0.1374
23392W        W23592   7.429  12.155  15.096 -0.5547  0.0578 -0.3695
23393W        W23593   1.893  14.999   5.845 -0.0654 -0.3633  0.0925
23394W        W23594   5.763   6.835  14.121 -0.1769 -0.1304 -0.1940
23395W        W23595   7.968   1.984  12.043  0.0002  0.1364  0.0415
23396W        W23596   7.796   0.609   5.927 -0.0491  0.1888 -0.1680
23397W        W23597   8.820  11.168   7.109  0.0242 -0.1515 -0.0886
23398W        W23598  12.135   8.563   4.227 -0.2715 -0.1850 -0.3477
23399W        W23599   5.667   2.346  14.276  0.0051 -0.0064  0.0232
23400W        W23600   8.530   6.175   7.957  0.1370  0.1591 -0.1649
23401W        W23601   8.306   5.221  14.584 -0.2736 -0.1055  0.0441
23402W        W23602   0.732  14.784  11.488 -0.3401  0.0023  0.0920
23403W        W23603   9.719  13.866  13.966 -0.1256  0.0306 -0.0320
23404W        W23604   1.089   6.443   7.132 -0.5189 -0.3108  0.1774
23405W        W23605  13.892   6.622   4.700  0.0995  0.0255  0.0145
23406W        W23606  14.745   5.456   0.908  0.0055  0.0049 -0.3034
23407W        W23607  10.947   2.514  10.088  0.3128  0.0033 -0.1781
23408W        W23608   2.171   7.515  12.651 -0.2076  0.1373 -0.0680
23409W        W23609  11.758   3.383   1.696 -0.0512 -0.1416 -0.2726
23410W        W23610  10.562   7.197  11.430  0.0526  0.1780 -0.2110
23411W        W23611   9.973   9.643   9.244  0.1323  0.3735  0.2060
23412W        W23612   9.465   6.246  11.327  0.0227 -0.3834  0.0727
23413W        W23613   9.806   1.419   6.723 -0.2082  0.1930  0.1040
23414W        W23614   7.622   6.839   6.454  0.1659  0.2285  0.0395
23415W        W23615   8.523   7.572   1.413  0.0556 -0.0483 -0.0306
23416W        W23616  10.709   2.093   3.815  0.1608 -0.0845  0.2376
23417W        W23617  10.511   6.240   8.143  0.0434 -0.3852 -0.0914
23418W        W23618   2.339   5.197  12.641 -0.1169 -0.2548 -0.3937
23419W        W23619  13.848   7.923   9.302 -0.2367  0.3847  0.3439
23420W        W23620   2.289  12.065  14.087 -0.1680 -0.0819 -0.2475
23421W        W23621   2.908   2.171   3.337  0.1312  0.0342 -0.2945
23422W        W23622   7.901   5.537   8.881  0.2414 -0.0292 -0.2776
23423W        W23623  13.770   1.980  13.549 -0.0764 -0.1808  0.0760
23424W        W23624   6.851  12.737   5.603 -0.0955  0.0885  0.3205
23425W        W23625  11.536   1.635   7.673 -0.1310 -0.0566 -0.0602
23426W        W23626   4.362   3.785   3.569 -0.2037 -0.1123 -0.1743
23427W        W23627   9.830   4.600   0.684 -0.0569  0.2374 -0.1382
23428W        W23628  10.555   1.447   5.978  0.1843  0.2727  0.2512
23429W        W23629  13.248   1.887   6.952 -0.2061  0.2190 -0.2612
23430W        W23630   9.939   9.338   0.386  0.1863  0.2354  0.1331
23431W        W23631  10.221  11.032   5.681 -0.6835 -0.1445  0.0839
23432W        W23632   7.829   9.190   7.072 -0.1542  0.2479  0.4143
23433W        W23633   0.970   4.611  10.456  0.2652 -0.1758  0.0234
23434W        W23634  11.091   1.727  13.210 -0.1237 -0.3259  0.2023
23435W        W23635  11.390  10.548  12.220  0.1451  0.0207 -0.0067
23436W        W23636  12.296  10.937  13.036 -0.0157  0.0956 -0.1173
23437W        W23637   3.548  13.967   0.069  0.3285 -0.2731 -0.1772
23438W        W23638   7.323   9.039  14.020 -0.3404  0.2565 -0.1372
23439W        W23639  10.840   0.365  10.386  0.1994 -0.1464 -0.0406
23440W        W23640  10.407   2.982   5.098 -0.0752 -0.0417 -0.1684
23441W        W23641   8.127   7.916   3.125  0.0949 -0.2307  0.1670
23442W        W23642  10.351   6.079   9.297 -0.2084  0.0722 -0.0301
23443W        W23643  12.151   0.928   6.765 -0.0393 -0.0555  0.1183
23444W        W23644   4.965   4.496  14.311 -0.3163  0.2516 -0.1268
23445W        W23645   8.696   1.283   9.607 -0.0752  0.1054 -0.1213
23446W        W23646   6.668   4.690   1.866  0.2909 -0.0460  0.1772
23447W        W23647  11.058  13.158  14.591  0.0580  0.4007 -0.2053
23448W        W23648  12.935   1.161  11.173 -0.1359  0.4444 -0.1122
23449W        W23649   5.741   8.778  13.249  0.0473 -0.2411  0.4571
23450W        W23650   9.429   6.539  13.504 -0.0071  0.1635 -0.2388
23451W        W23651   7.730  11.248   0.878  0.1399 -0.0364  0.2653
23452W        W23652   2.520   5.026  12.192 -0.2738 -0.0044  0.1158
23453W        W23653   7.780  12.914  13.582  0.1443  0.0924 -0.1221
23454W        W23654   8.874  14.650   6.968 -0.1616  0.3131 -0.0200
23455W        W23655  13.568   9.389   4.775  0.0324 -0.1220 -0.2489
23456W        W23656  12.730   1.966  11.414 -0.4002 -0.3087  0.1421
23457W        W23657   4.731   7.008  13.583 -0.0232 -0.2773 -0.0213
23458W        W23658   8.106   8.714   8.956  0.2065  0.0908  0.1541
23459W        W23659  10.944  10.104  13.446  0.1374  0.1938 -0.0781
23460W        W23660  10.291   4.891  15.017  0.1551 -0.1553  0.3003
23461W        W23661   7.414   2.639   8.250 -0.0715 -0.0200 -0.0834
23462W        W23662   0.222  10.899  12.849  0.0232 -0.1818  0.2951
23463W        W23663  12.285   9.361  13.263  0.5226  0.0551 -0.2375
23464W        W23664   9.784   1.854  12.021  0.1559  0.0633  0.1649
23465W        W23665   8.797   0.959  11.712  0.1476  0.0918 -0.1363
23466W        W23666  14.944   8.275   9.201 -0.3774  0.2218 -0.3104
23467W        W23667   2.538   9.057  10.880  0.1592 -0.0661 -0.2751
23468W        W23668   0.214   0.219   3.067 -0.1437 -0.4119  0.0567
23469W        W23669   3.925   1.498  11.389  0.3974 -0.2057 -0.2140
23470W        W23670  11.361   3.956  11.089 -0.0242  0.0880  0.0634
23471W        W23671  12.696   2.288   0.226  0.0115  0.2304 -0.2962
23472W        W23672   9.964   4.250   3.757  0.1704  0.0892 -0.0467
23473W        W23673   0.757   7.317  10.408 -0.0364 -0.1363  0.0857
23474W        W23674  11.949  10.687   8.074  0.0706  0.2048 -0.1158
23475W        W23675   5.780   0.049   4.791  0.2544  0.2037 -0.1701
23476W        W23676   2.932   2.465   4.870  0.3885 -0.0741 -0.0936
23477W        W23677  12.673   8.867   6.623 -0.0868 -0.3982 -0.2048
23478W        W23678   7.577  14.528   6.267  0.2073 -0.0573 -0.0437
23479W        W23679   1.910   2.969   8.552  0.0817  0.2689 -0.1500
23480W        W23680   5.018   8.643  13.603 -0.3316  0.0288  0.2082
23481W        W23681   9.721   2.893  10.797 -0.1248  0.4794  0.3880
23482W        W23682   4.492   9.149   2.732 -0.0179  0.1325 -0.1450
23483W        W23683   6.932   0.724  12.872  0.0390  0.0522  0.0164
23484W        W23684   8.485   0.090   7.462 -0.1961 -0.1635  0.0906
23485W        W23685  12.938   7.557   7.117  0.0042  0.0065 -0.3545
23486W        W23686  12.874   8.341  10.717  0.1371 -0.2210 -0.0676
23487W        W23687  12.160  13.112   7.056 -0.0050 -0.1463 -0.0904
23488W        W23688  13.314   4.777   8.675 -0.0003 -0.0580  0.0762
23489W        W23689   4.505   5.215   0.055 -0.0300 -0.0387  0.1104
23490W        W23690   0.068   5.780   5.082 -0.0438  0.0673 -0.2672
23491W        W23691   8.801  15.019   9.516  0.1477  0.1625  0.2771
23492W        W23692   1.732   3.296   5.895 -0.0033 -0.0044 -0.1074
23493W        W23693   1.599  11.277  12.292  0.0430 -0.0111  0.2718
23494W        W23694  11.386  14.976  15.188  0.1818  0.0183 -0.1615
23495W        W23695  12.531  12.504   9.726  0.1445  0.0162 -0.1482
23496W        W23696   2.571   9.792   9.717  0.2656 -0.0077  0.0797
23497W        W23697  15.054  11.583  12.152  0.0860  0.3287  0.1452
23498W        W23698  13.135  12.874   9.190  0.2406  0.0119  0.0495
23499W        W23699  10.932   0.598   5.422  0.1629 -0.3898  0.2191
23500W        W23700   9.128  10.515  14.687  0.0407  0.0432  0.0996
23501W        W23701   8.969  12.413  10.704 -0.2387  0.1247 -0.0905
23502W        W23702   8.607   5.827   0.325  0.2540  0.1258 -0.2700
23503W        W23703  14.177   4.798   8.704  0.0741  0.1644  0.1957
23504W        W23704  10.089   7.964  10.691 -0.0233  0.4505 -0.0624
23505W        W23705  11.453   5.127   8.126  0.0057  0.0203 -0.3326
23506W        W23706   2.143   3.869   0.722 -0.1370  0.0094 -0.0405
23507W        W23707  12.170   7.183   4.381 -0.1048  0.1187  0.0557
23508W        W23708  13.913   3.710  12.848 -0.1952 -0.1792 -0.0864
23509W        W23709  14.729  13.543  11.376  0.0466  0.1128 -0.0741
23510W        W23710   5.126  14.899   4.623  0.0203 -0.2995  0.0047
23511W        W23711   8.518  14.609   9.383 -0.0951 -0.1054 -0.0677
23512W        W23712   9.681   0.984   1.539  0.1371  0.1232  0.1091
23513W        W23713  13.042   7.338   6.654 -0.0012 -0.3211  0.0917
23514W        W23714   3.703  14.028   4.404  0.1599 -0.1271  0.2451
23515W        W23715  10.294   2.288  13.239 -0.0567  0.1685 -0.1374
23516W        W23716   1.820  14.973   9.028  0.0329 -0.0810 -0.0480
23517W        W23717  11.804  14.207  10.444 -0.1646 -0.0728 -0.2441
23518W        W23718  11.175   2.338  14.351  0.1135  0.3489 -0.2953
23519W        W23719  13.930   9.344   9.582 -0.1616 -0.3508 -0.0883
23520W        W23720   1.608   1.812   5.655  0.0641  0.2860 -0.0347
23521W        W23721   6.431   3.457  13.237 -0.2312 -0.2666  0.0980
23522W        W23722  12.607  11.991   0.745 -0.1273  0.3306 -0.0037
23523W        W23723  12.172   2.438   4.736  0.1602  0.2210 -0.0358
23524W        W23724  11.303   0.654  14.033 -0.4280  0.1484  0.0180
23525W        W23725   4.703   3.239   8.317  0.1097  0.0949 -0.2150
23526W        W23726  13.760  11.419  11.563 -0.0981  0.1852  0.0245
23527W        W23727  11.557   8.547  10.970  0.0110 -0.1831 -0.1225
23528W        W23728   0.452  11.509   8.901 -0.1091 -0.0115  0.1083
23529W        W23729   9.696   3.277  11.908  0.0853 -0.0357 -0.1534
23530W        W23730   8.725  14.417   6.411  0.0307 -0.1265 -0.1229
23531W        W23731   3.110   6.482   6.216  0.1862  0.0808  0.1859
23532W        W23732  13.225   6.344   3.554  0.2817 -0.1980  0.0327
23533W        W23733   3.943   7.542  11.987 -0.1324 -0.1357 -0.2420
23534W        W23734  14.910   2.700   4.203  0.1069  0.0921 -0.1176
23535W        W23735   1.718   1.366   0.821 -0.0266 -0.0449 -0.0279
23536W        W23736   4.477   4.700  10.412  0.3049  0.3869  0.0711
23537W        W23737   6.314  11.395   4.263 -0.3034  0.1929 -0.1319
23538W        W23738  10.514  10.236   7.511  0.1545  0.3599  0.0027
23539W        W23739   4.868   6.485  13.808 -0.0989  0.0668 -0.0188
23540W        W23740  13.277  15.067   9.758  0.1290 -0.0140 -0.0897
23541W        W23741  10.164   3.629  14.270  0.0163 -0.1063 -0.1058
23542W        W23742  14.816  11.854   5.373 -0.0424 -0.1384  0.0607
23543W        W23743   6.576   5.837  12.424 -0.0619  0.1666  0.0195
23544W        W23744   6.291  12.531   0.856  0.1238  0.3382 -0.0181
23545W        W23745   7.931   6.358   5.207  0.2886 -0.0835  0.3730
23546W        W23746   2.923  12.046  10.115 -0.2055 -0.3080 -0.0746
23547W        W23747   3.763   4.200  11.342  0.2988 -0.1668  0.3000
23548W        W23748   0.503   2.025   7.805  0.2463 -0.2330  0.0651
23549W        W23749   9.033   9.174  12.690 -0.0591 -0.1507  0.2547
23550W        W23750  15.082   6.149   7.945  0.0941 -0.1251  0.3950
23551W        W23751   3.977   9.186  10.203 -0.0618 -0.3793  0.1966
23552W        W23752   6.400   1.500   1.173 -0.0511 -0.0601 -0.1928
23553W        W23753   2.358   1.089   8.779  0.0560  0.1333  0.3632
23554W        W23754  12.560   3.439   8.480 -0.2167  0.1353 -0.1322
23555W        W23755   1.935   7.318  15.098 -0.1678  0.1707 -0.2142
23556W        W23756   8.899  15.047   2.195  0.0543  0.0685  0.0721
23557W        W23757  10.969  14.567  12.837  0.0466  0.2565 -0.1670
23558W        W23758  12.527   9.040  11.294  0.0793 -0.2747  0.0805
23559W        W23759   4.308   0.369   1.999  0.0767  0.0010  0.0594
23560W        W23760  13.537   9.170   9.098  0.0505  0.0407  0.1760
23561W        W23761   5.994   6.504   6.129  0.4426 -0.2530  0.2094
23562W        W23762  10.213   5.133   9.291  0.0408 -0.0994  0.0136
23563W        W23763  14.278  13.378  11.102  0.0182  0.0114 -0.0111
23564W        W23764  14.561   3.850  10.767 -0.0620  0.0888 -0.2878
23565W        W23765   6.699   4.562   4.239 -0.1432  0.0339  0.0718
23566W        W23766   9.765   4.475  15.030  0.0044  0.0965  0.1371
23567W        W23767  14.699   6.816  11.363 -0.1300 -0.0228  0.0851
23568W        W23768   7.865   8.500   7.893 -0.0268 -0.1763 -0.0695
23569W        W23769   7.825  10.623   0.251 -0.0209 -0.0276 -0.1243
23570W        W23770  10.950  13.475  10.284 -0.0729 -0.0026 -0.2434
23571W        W23771  14.838  10.585   0.956 -0.2445 -0.0762 -0.1224
23572W        W23772   8.234   4.855  14.274 -0.0390 -0.0091  0.0777
23573W        W23773   8.894  10.615  11.421  0.0116  0.0072  0.1611
23574W        W23774   7.226   7.385  11.909 -0.2097 -0.0597  0.1957
23575W        W23775  13.822   8.754  14.767  0.0160  0.1110  0.0406
23576W        W23776  10.210   3.432   1.273  0.0308  0.1733 -0.1218
23577W        W23777   1.420   5.301   2.383 -0.0307 -0.0114 -0.1478
23578W        W23778  12.645   5.644  10.743  0.0074  0.1885 -0.0924
23579W        W23779   9.784   0.279  11.051 -0.3364  0.0806 -0.0842
23580W        W23780   6.934   5.892  10.437 -0.2122  0.1448 -0.0368
23581W        W23781  12.553   5.774   3.565  0.1742  0.0647  0.0626
23582W        W23782  12.267  11.914   3.838 -0.3897  0.1156 -0.1991
23583W        W23783   9.417  12.109  10.269 -0.1897  0.1837  0.3087
23584W        W23784  13.454  12.512   6.839 -0.0056 -0.1732  0.0847
23585W        W23785  14.625   9.950  13.493 -0.0763  0.0134  0.1798
23586W        W23786   9.395   2.888  11.240 -0.1085  0.0348 -0.2148
23587W        W23787   2.138   5.827  10.639  0.1544 -0.0448 -0.1082
23588W        W23788  13.042  10.466   7.250 -0.1390  0.0178 -0.0689
23589W        W23789   7.860  13.664   9.884 -0.3660  0.1431 -0.2454
23590W        W23790  13.910   9.508   1.124 -0.0643  0.2549  0.1382
23591W        W23791  13.746   7.209  12.474 -0.1803 -0.1768  0.1710
23592W        W23792  10.118   4.380   4.627  0.0616  0.0054  0.2261
23593W        W23793   6.413   9.785   9.313  0.2387  0.0948 -0.0788
23594W        W23794   3.255   3.465   9.301  0.2602 -0.2771  0.0828
23595W        W23795  14.741   1.580  10.734 -0.1104  0.0657 -0.2756
23596W        W23796   5.131   4.107  10.810  0.1425  0.1293 -0.2817
23597W        W23797   6.512  13.354  14.298 -0.3704  0.1679 -0.3195
23598W        W23798  14.426   7.896   9.577 -0.0563  0.0136  0.0411
23599W        W23799   3.841   8.941  14.314 -0.0603 -0.3332  0.3518
23600W        W23800   9.658  11.498   8.688 -0.2318  0.0046 -0.1331
23601W        W23801  15.194   0.753  10.825 -0.5845  0.2812 -0.0631
23602W        W23802  12.850   9.023   1.056 -0.2571 -0.2460 -0.3497
23603W        W23803  12.037  13.957  12.175 -0.2712  0.3857 -0.1394
23604W        W23804   1.312   0.713  12.294 -0.1965 -0.2058 -0.0494
23605W        W23805   0.144   9.883   0.885  0.0559  0.2104 -0.0028
23606W        W23806   5.896  14.239  13.009 -0.1337 -0.0736  0.0869
23607W        W23807   4.716   1.950   5.258 -0.2361 -0.0033  0.1790
23608W        W23808   1.944   3.756  13.520 -0.0734  0.2875 -0.1233
23609W        W23809  11.670   4.214  12.005  0.1531 -0.0543  0.0978
23610W        W23810   5.361   9.524   7.194 -0.0606 -0.0288  0.2365
23611W        W23811  15.127   3.886   9.829 -0.1684 -0.0872  0.1915
23612W        W23812   1.549  10.381   3.979 -0.0542  0.0244 -0.1482
23613W        W23813   5.312   8.731   5.672  0.0066  0.3355 -0.0394
23614W        W23814   5.571   6.545   5.918 -0.1941  0.1871  0.1193
23615W        W23815  10.763   6.005   9.871 -0.0731 -0.2642 -0.1810
23616W        W23816  10.373   5.849  11.196  0.0359  0.1031 -0.4491
23617W        W23817   7.305   2.003   2.675  0.0736 -0.2672 -0.2680
23618W        W23818  14.764   4.602   2.994  0.2716 -0.1133 -0.2430
23619W        W23819   8.319  13.951   2.028 -0.0339  0.0596  0.0256
23620W        W23820  13.395  10.941  13.312  0.0429 -0.2258  0.0872
23621W        W23821  13.071   2.673   8.137 -0.0899 -0.0328  0.0133
23622W        W23822  10.242  11.116  11.884 -0.1091  0.1458  0.1012
23623W        W23823   9.365   3.684  11.744 -0.2483  0.2335 -0.0187
23624W        W23824  12.650   5.907   5.950 -0.2355  0.2307 -0.0354
23625W        W23825   9.634  13.768   4.361  0.0573  0.0444 -0.0275
23626W        W23826   7.083   0.808   8.849 -0.1695  0.2851  0.0061
23627W        W23827   8.723   3.613   0.976 -0.1514 -0.0570  0.1738
23628W        W23828  11.362  13.118  11.161  0.1496  0.1109  0.4351
23629W        W23829  12.857   6.107   3.783 -0.2267 -0.0906  0.1388
23630W        W23830  14.742   5.826   5.826  0.1188 -0.3405 -0.0072
23631W        W23831   0.759   5.308   5.203  0.0635  0.2186 -0.0721
23632W        W23832   4.227  13.885   5.225 -0.1642 -0.0158 -0.2769
23633W        W23833   0.110   4.552   3.993  0.2189  0.2676 -0.1728
23634W        W23834  10.884  14.129  12.476  0.1017  0.0706 -0.0686
23635W        W23835   5.121   8.827   9.558 -0.3014 -0.0867  0.3062
23636W        W23836   8.444   8.891   9.397  0.2131  0.0989 -0.1396
23637W        W23837  11.135  11.863  10.819  0.0080 -0.0471 -0.2016
23638W        W23838  14.617   3.509  14.200 -0.1746 -0.1791  0.3126
23639W        W23839   5.742   4.005   9.168 -0.1653 -0.1883 -0.0827
23640W        W23840  10.255   8.919  14.734  0.1728 -0.1288 -0.1678
23641W        W23841   8.286   9.359   1.317  0.0221 -0.0608  0.0602
23642W        W23842   8.117   6.164  11.156 -0.3883  0.0302 -0.1212
23643W        W23843  12.702  11.100   9.562  0.3453  0.4555  0.1191
23644W        W23844  11.058   6.746   3.396  0.0200  0.1132 -0.1693
23645W        W23845   8.192   9.729   9.948  0.1949  0.0814 -0.0839
23646W        W23846   9.930   2.931  10.371 -0.2719 -0.2407  0.0277
23647W        W23847  14.194   0.693   9.115 -0.0855  0.0332  0.1554
23648W        W23848  14.380  15.027   4.231 -0.0269  0.3755  0.0549
23649W        W23849   4.990   5.619  14.453  0.2425 -0.3647  0.3185
23650W        W23850   9.390  11.424   0.623 -0.2656  0.2259  0.1885
23651W        W23851   8.329   2.249  13.250  0.2628  0.2875  0.0937
23652W        W23852  10.417   6.147   6.065  0.0270 -0.0522 -0.1289
23653W        W23853   6.074   9.159   4.741  0.2495  0.2340  0.0231
23654W        W23854  10.365   9.141   3.235 -0.0067  0.3807  0.3509
23655W        W23855   7.022   5.399  10.070 -0.1654 -0.1914 -0.0265
23656W        W23856  10.015   5.413  13.480 -0.2788  0.0540  0.1731
23657W        W23857   8.526   5.095  12.387  0.2843 -0.4252 -0.0228
23658W        W23858   9.696   8.197   9.809 -0.0132  0.0870  0.2307
23659W        W23859   9.456   6.167   5.740  0.1408 -0.0686  0.0101
23660W        W23860  12.935  14.182   5.789 -0.0504  0.2694 -0.3027
23661W        W23861  10.385   0.033   4.929  0.0150 -0.2872  0.3381
23662W        W23862   9.111   5.001  11.821  0.2353  0.2096 -0.1643
23663W        W23863   2.053   6.348   7.969  0.2797  0.1515  0.1330
23664W        W23864  11.488  10.604   7.917  0.1393 -0.0520  0.2291
23665W        W23865   5.803   3.385   5.871  0.0070 -0.0902 -0.1364
23666W        W23866  11.049   6.309  10.197  0.2603 -0.1832 -0.0488
23667W        W23867   1.814   2.655   0.001 -0.2544  0.0436 -0.2235
23668W        W23868  12.042  14.701   0.621 -0.0710  0.0033  0.2131
23669W        W23869  13.812   8.858   9.355 -0.0444  0.0151  0.3436
23670W        W23870  14.161   3.722  12.282 -0.1657  0.5449  0.0660
23671W        W23871   9.407   5.152  12.734  0.0341 -0.1637  0.0564
23672W        W23872   9.541   2.304  12.900  0.1301  0.0370  0.1400
23673W        W23873  13.539   5.120  14.177  0.2477  0.1056 -0.2271
23674W        W23874  10.055   7.143  13.911  0.3495  0.1240 -0.0746
23675W        W23875  10.124   9.868   7.283 -0.2186  0.2833 -0.0031
23676W        W23876  14.580   3.753   3.945  0.0881 -0.0287 -0.1306
23677W        W23877  12.982   9.472   6.984 -0.1890 -0.0011 -0.0034
23678W        W23878   5.914   4.598   5.484  0.0456  0.3630 -0.4905
23679W        W23879   4.614  13.136  13.814 -0.0064  0.0395  0.1930
23680W        W23880   0.660   5.558   7.824 -0.4849  0.0444 -0.0546
23681W        W23881   7.801  12.880   5.949 -0.2607  0.1496  0.1221
23682W        W23882   5.330  10.429  10.377  0.2206 -0.0779 -0.1884
23683W        W23883   1.462   5.581   9.543  0.2186 -0.1297 -0.0025
23684W        W23884   7.872   9.722  13.095  0.6101  0.1392  0.1878
23685W        W23885   7.463   2.940  10.587  0.0853  0.0309  0.0847
23686W        W23886   7.176   2.955   8.527 -0.1473 -0.1646  0.0647
23687W        W23887   2.088   5.915   6.590 -0.3087  0.0759 -0.1601
23688W        W23888   9.662   1.382   9.150 -0.4360  0.3590 -0.0459
23689W        W23889  14.624   9.344   1.974  0.0665 -0.3086 -0.0320
23690W        W23890   3.133   1.244  12.348  0.1492  0.0212  0.0692
23691W        W23891   6.968   4.531   7.891 -0.0337  0.1109  0.2219
23692W        W23892   8.239  13.257  12.811 -0.2513 -0.0847 -0.3067
23693W        W23893   3.475   3.562  12.971 -0.0188  0.1157 -0.1107
23694W        W23894   2.628   7.514   9.041 -0.0495 -0.2020 -0.2694
23695W        W23895   7.210  12.719  14.989 -0.1138  0.0839  0.3129
23696W        W23896  12.591   7.899   4.089 -0.1275  0.1759  0.2326
23697W        W23897  14.781   4.650   9.543  0.0228  0.1145  0.1237
23698W        W23898   7.628  10.083  12.751  0.2523 -0.0495 -0.0959
23699W        W23899   2.155  14.410  12.373 -0.1965  0.0463 -0.1778
23700W        W23900   0.078   2.560  13.026 -0.0394  0.0432 -0.3483
23701W        W23901   2.568   3.673   8.049  0.2070  0.3609 -0.3103
23702W        W23902   9.784  12.440  11.298 -0.3191 -0.0723 -0.0364
23703W        W23903   6.328  13.039   7.793 -0.0098 -0.1305  0.1405
23704W        W23904  13.260   0.576  11.496  0.0857 -0.2956  0.0555
23705W        W23905  13.007   6.465   2.685 -0.0829 -0.2177 -0.1566
23706W        W23906   2.033  12.113   7.949  0.3483 -0.1998  0.0186
23707W        W23907   9.268  13.032   2.728 -0.1074  0.3146  0.0692
23708W        W23908  13.485   3.293  10.983  0.2716  0.0375  0.2385
23709W        W23909   0.370  14.446  13.376 -0.1078 -0.0507  0.1180
23710W        W23910   1.765   8.760   2.360  0.0760 -0.1611  0.0606
23711W        W23911   6.582  10.148  14.880 -0.0618 -0.3086  0.0955
23712W        W23912  13.812  11.714  11.160 -0.1843  0.1123  0.2861
23713W        W23913   7.428  14.447   3.176  0.2226 -0.1037 -0.0369
23714W        W23914  11.036  14.825   0.931  0.1103 -0.1870 -0.1279
23715W        W23915  10.389   6.038   0.047  0.1277 -0.1040 -0.2937
23716W        W23916  14.673   2.040  12.120 -0.0725 -0.3499  0.0228
23717W        W23917  14.910  13.805   9.615 -0.1758 -0.0454 -0.0194
23718W        W23918   8.581   0.521   7.904 -0.3658 -0.0030 -0.0456
23719W        W23919   1.080   5.573   8.178  0.3271  0.2125 -0.0656
23720W        W23920   7.355   8.267   5.039 -0.2082  0.1771  0.3665
23721W        W23921   5.302   8.656  10.398 -0.0537  0.3425  0.1598
23722W        W23922   1.413   3.345   0.302 -0.2359  0.0781 -0.0466
23723W        W23923   4.051   4.634  13.360  0.1458  0.1237 -0.1055
23724W        W23924   0.810   8.171   9.261 -0.0040 -0.0171  0.0437
23725W        W23925  12.037  13.105   8.597  0.0365  0.1097  0.0440
23726W        W23926   8.418   2.756   6.043  0.1985  0.1749  0.0404
23727W        W23927  11.813   6.150  11.325  0.3393 -0.1441 -0.1504
23728W        W23928  12.784   3.457   8.027 -0.0462 -0.2053  0.0904
23729W        W23929  14.673   6.529   8.680 -0.0133  0.0313 -0.0185
23730W        W23930  11.178  12.640   9.933  0.0064  0.0351 -0.3281
23731W        W23931   6.101   8.218   8.686 -0.1887 -0.1299  0.1812
23732W        W23932  12.581   3.519  14.786  0.2781  0.3364 -0.1041
23733W        W23933   3.638   9.556   1.506 -0.0294 -0.0227  0.2237
23734W        W23934   2.381  10.854   3.054  0.0562 -0.1131  0.3435
23735W        W23935   3.258  14.938   8.106 -0.0141 -0.3231  0.0952
23736W        W23936   0.696  10.356  11.419  0.0467 -0.2735  0.2593
23737W        W23937  11.200   2.583   0.773 -0.0679 -0.2768  0.1147
23738W        W23938  11.603   0.644   8.574  0.1199 -0.2818  0.1225
23739W        W23939   8.463  14.306   0.853  0.4649  0.0322  0.1585
23740W        W23940  11.222   6.975   9.737  0.3333 -0.0841  0.1747
23741W        W23941  14.883  15.048  13.829  0.0404 -0.0549 -0.0182
23742W        W23942  13.669  13.446   8.686 -0.0502 -0.2309 -0.0392
23743W        W23943  12.605  12.087   5.676 -0.0878 -0.1328 -0.0101
23744W        W23944  10.955   1.142   9.656  0.0951  0.1980 -0.5848
23745W        W23945  12.118  11.424   1.195  0.2046  0.1124  0.1383
23746W        W23946  10.971  13.251   0.822  0.3453 -0.1071 -0.2544
23747W        W23947  10.141   0.631   8.294  0.0884 -0.3255 -0.0632
23748W        W23948  15.163  10.723   0.591  0.0984 -0.1434  0.2732
23749W        W23949  10.393   1.702   3.670  0.3020 -0.2038  0.0338
23750W        W23950  11.475   3.239  11.823  0.2700  0.0944 -0.1307
23751W        W23951  13.803   5.545   8.409 -0.2038 -0.0148 -0.2330
23752W        W23952   9.808   4.024  14.875  0.0023  0.4237  0.0725
23753W        W23953   6.218   9.832  10.674  0.0634 -0.1619 -0.0544
23754W        W23954   2.083  12.722  13.179 -0.0250 -0.4359 -0.1267
23755W        W23955   8.264   2.545   8.408 -0.0277  0.1796  0.2613
23756W        W23956  10.143  10.711   2.436  0.1394  0.0908  0.1188
23757W        W23957   4.027   0.838   5.391  0.2757 -0.1184 -0.0150
23758W        W23958  11.784   1.193  13.604 -0.0871 -0.2123  0.1270
23759W        W23959   0.165  10.003  14.519  0.0231  0.1098 -0.0508
23760W        W23960   7.493  11.100  10.208  0.0601 -0.5139 -0.1474
23761W        W23961  14.818  10.105   4.292 -0.0273  0.1656  0.2397
23762W        W23962   6.367   9.030   1.905 -0.1759  0.0418  0.3119
23763W        W23963   4.739   1.395  10.333 -0.1539 -0.0434 -0.1298
23764W        W23964   0.389   5.739  14.613 -0.2381 -0.0327  0.1057
23765W        W23965   8.643  13.945  13.739 -0.1685 -0.3931 -0.2009
23766W        W23966  12.402   8.322  13.888 -0.0158 -0.1013  0.2769
23767W        W23967   2.915   5.965   0.136 -0.0092  0.0143  0.0236
23768W        W23968  10.073   8.090   8.499 -0.0269  0.0728  0.1838
23769W        W23969  13.981   5.241  12.065 -0.2899  0.0029 -0.1546
23770W        W23970  15.150  14.994   7.681 -0.1783 -0.1053 -0.0804
23771W        W23971   4.864   2.925   1.902  0.2055  0.0405 -0.0219
23772W        W23972   3.574   7.446   1.612 -0.1071 -0.0626  0.2562
23773W        W23973   2.574   8.946  10.279 -0.3117  0.2786  0.0486
23774W        W23974  11.833   7.271   5.645 -0.1114 -0.1401  0.0506
23775W        W23975  12.485   3.774  14.350 -0.3496 -0.0271  0.0615
23776W        W23976  10.242  15.139   6.835 -0.0190  0.2688 -0.3845
23777W        W23977   2.383   6.245   2.192 -0.3237 -0.1491  0.0715
23778W        W23978   7.171   8.612  10.680 -0.1637  0.0618 -0.3006
23779W        W23979   0.634  13.955   9.521 -0.0066  0.1474 -0.0069
23780W        W23980  12.456  10.481   4.109 -0.1007 -0.0815 -0.0226
23781W        W23981   0.471   5.200  12.801  0.1458  0.1203 -0.0480
23782W        W23982   9.308   7.836   6.870 -0.0142 -0.2344 -0.2908
23783W        W23983  10.192  15.146  11.004 -0.1957  0.1738 -0.1102
23784W        W23984   0.264   2.166  13.878  0.1340 -0.2366  0.0172
23785W        W23985  12.249   7.622   8.168  0.0617 -0.2742 -0.2434
23786W        W23986   8.362   5.990   4.993 -0.2750  0.2274  0.1786
23787W        W23987  11.364  13.729  12.490  0.2455  0.0096 -0.2281
23788W        W23988   7.289   7.156   3.471  0.0093 -0.1209 -0.0990
23789W        W23989  14.254   5.586   0.016  0.1262  0.0743  0.0642
23790W        W23990   8.501   9.476  12.095  0.3686 -0.0088 -0.1418
23791W        W23991   5.501  13.326   0.503 -0.0355 -0.1415 -0.4640
23792W        W23992  14.497   1.273  13.081 -0.1031  0.1849  0.2075
23793W        W23993   7.446   1.978  15.071  0.0739 -0.1731  0.0811
23794W        W23994  13.025   6.162   5.267 -0.2586 -0.0984 -0.1877
23795W        W23995  10.911   8.465   8.359 -0.0792  0.0086 -0.0570
23796W        W23996  13.207   5.188   7.007 -0.1633 -0.0354  0.0485
23797W        W23997  12.698  14.775   0.609  0.2635 -0.0392  0.1861
23798W        W23998   6.295   1.278   9.968 -0.3111  0.1454  0.2462
23799W        W23999   4.315   6.941  10.624 -0.1628  0.0620 -0.0241
23800W        W24000  12.464  12.825  13.966  0.1663 -0.1069 -0.1683
23801W        W24001   9.645   0.707   8.515  0.1006 -0.0543 -0.0970
23802W        W24002  10.709   4.017   9.813  0.0614  0.3689  0.0525
23803W        W24003   7.307   3.062   9.825  0.2001  0.2259 -0.2696
23804W        W24004  14.872   7.225   1.985 -0.0177  0.1339  0.2500
23805W        W24005   1.725   5.655   7.328  0.2984 -0.1967 -0.0444
23806W        W24006  11.392   3.752   6.138 -0.1844  0.2191 -0.0491
23807W        W24007   8.041   3.811  13.717 -0.0813 -0.0676  0.0054
23808W        W24008  12.957   7.020  10.167 -0.1016  0.2366  0.0787
23809W        W24009   3.163  13.677   1.610 -0.2320 -0.0720 -0.2001
23810W        W24010   8.179   8.893  11.470 -0.1336  0.0615 -0.1241
23811W        W24011  11.039   6.934   0.707 -0.0519 -0.1805 -0.2593
23812W        W24012  12.069   5.240  14.276 -0.2092 -0.2794  0.0135
23813W        W24013   9.548   3.795   2.589  0.1841  0.1186 -0.2591
23814W        W24014  12.513  13.719  12.192  0.0884 -0.2144  0.1619
23815W        W24015   2.790  13.795   8.369  0.0133  0.2390  0.2053
23816W        W24016   1.374   3.255  13.446  0.1191  0.0175 -0.0414
23817W        W24017   2.056   4.938  10.859  0.2687  0.2581 -0.2588
23818W        W24018   5.412  10.447   1.707 -0.0120 -0.0812 -0.1180
23819W        W24019  14.702  12.209   6.089  0.2481 -0.0858  0.1073
23820W        W24020   3.553  13.639   8.250  0.0206  0.0906 -0.1215
23821W        W24021   9.689   4.527  11.365 -0.0395 -0.0609 -0.0045
23822W        W24022  13.622  13.623  10.930 -0.1170  0.1174 -0.1812
23823W        W24023   1.234   5.074   5.310  0.3026 -0.0633 -0.0410
23824W        W24024  12.637  14.441   1.573  0.1462 -0.2061  0.0508
23825W        W24025  14.216   6.063   9.675 -0.0746 -0.1957  0.1830
23826W        W24026   8.131   3.212   7.896  0.0457 -0.0339  0.1102
23827W        W24027   8.549   3.294  14.735  0.2300 -0.3108 -0.0004
23828W        W24028  10.942   0.935  12.466  0.1227  0.1109  0.0387
23829W        W24029  11.192   5.251   4.702  0.0455  0.0688 -0.0983
23830W        W24030  11.265   5.276   0.705 -0.0326  0.0400  0.0011
23831W        W24031   6.368   5.455   1.861 -0.2185 -0.3044  0.1959
23832W        W24032   2.663   5.793   4.363  0.1099 -0.0413 -0.0125
23833W        W24033  13.559   2.121  11.850 -0.2183  0.0102 -0.1984
23834W        W24034   1.316   2.137  12.957 -0.0310 -0.3073 -0.2442
23835W        W24035   4.229  10.733   4.276 -0.2804  0.3301 -0.1571
23836W        W24036   5.635   2.548   6.113  0.0394  0.0725 -0.0397
23837W        W24037   9.218   0.141   5.055  0.1181 -0.1317  0.4577
23838W        W24038   8.597   1.261  13.696 -0.0552  0.2459  0.0474
23839W        W24039   3.548  13.364   6.042 -0.4169 -0.2853 -0.0101
23840W        W24040   5.608   0.611   0.558  0.0504 -0.0195  0.2696
23841W        W24041   3.027   5.172   5.868 -0.0133  0.0012 -0.2329
23842W        W24042  13.812   6.658  10.388  0.0917  0.2287 -0.0233
23843W        W24043   0.849   5.091   8.891  0.2349 -0.0036  0.1319
23844W        W24044   2.490   3.999   6.768 -0.2631  0.1528 -0.0250
23845W        W24045   2.374   8.637  12.872  0.1319  0.0969 -0.1215
23846W        W24046  11.684   9.689  12.732  0.2781 -0.3178  0.2704
23847W        W24047  12.278   1.425   6.932 -0.0518  0.3734 -0.0921
23848W        W24048   5.767   6.733   6.988  0.0730 -0.0719 -0.1063
23849W        W24049   8.558   9.099  10.325 -0.0637 -0.2786  0.0926
23850W        W24050   0.345  12.078   4.748  0.3044 -0.0585 -0.0131
23851W        W24051   9.184   5.609   1.426  0.0257  0.0206  0.1867
23852W        W24052   0.662   6.602   5.288  0.1087 -0.1945  0.0399
23853W        W24053   1.480   9.436   7.812  0.0177 -0.1935  0.1486
23854W        W24054   9.893   7.575   9.294 -0.1313  0.0404  0.0583
23855W        W24055  14.715   7.830  11.682 -0.2966  0.0554 -0.0714
23856W        W24056   0.206   4.125   1.841  0.2377  0.0325  0.2118
23857W        W24057  12.773   6.072  11.622 -0.0947 -0.1902 -0.1983
23858W        W24058   3.636   6.550   0.510 -0.1182  0.3290  0.0657
23859W        W24059  12.998  11.080  12.645  0.0986 -0.0211 -0.2964
23860W        W24060  12.750   6.861   1.961  0.0169  0.0205  0.0788
23861W        W24061   7.294  14.311  10.474  0.0830  0.0305 -0.2481
23862W        W24062   4.347   7.723  11.498 -0.0633  0.0405 -0.0816
23863W        W24063  12.730  10.907   2.073 -0.2041 -0.0383  0.1013
23864W        W24064  14.222   9.691  13.633  0.0826 -0.1341  0.1340
23865W        W24065  15.078   2.953  12.063  0.2868 -0.0490  0.0197
23866W        W24066  14.127   3.791   5.698  0.2308  0.3489  0.2258
23867W        W24067   9.588  14.191   5.054 -0.1290 -0.2646 -0.0652
23868W        W24068   5.087   3.663  11.926  0.1438  0.0587  0.0127
23869W        W24069   3.151   4.795   3.286  0.2921  0.0604 -0.1116
23870W        W24070  10.796   7.718  14.188 -0.0810  0.2134 -0.3054
23871W        W24071   3.631  15.029   9.758  0.2392 -0.0427 -0.3095
23872W        W24072   9.706   5.235  13.161 -0.0116  0.1068 -0.3228
23873W        W24073  14.076  10.668   6.910 -0.2278  0.0030  0.0156
23874W        W24074   9.094  14.499  10.820 -0.0666  0.0409  0.3014
23875W        W24075  11.683   0.717   4.486  0.1601  0.0989 -0.1123
23876W        W24076  14.038   6.649  14.362  0.3764 -0.1914  0.0571
23877W        W24077   4.997   6.701  13.340  0.1152  0.1537 -0.1549
23878W        W24078  10.993   5.951   3.986  0.1021  0.0321  0.1165
23879W        W24079   2.837   4.495  11.125  0.0187 -0.0057 -0.2451
23880W        W24080   4.002   8.755  14.856 -0.0615  0.0017 -0.1663
23881W        W24081   1.144   6.535  13.691  0.0294 -0.1866  0.1763
23882W        W24082   6.859   6.586   4.529 -0.0790 -0.2747  0.2336
23883W        W24083   5.475   1.928  14.026  0.0655 -0.0016 -0.0421
23884W        W24084   3.307   7.754  15.185 -0.2359 -0.3488  0.0387
23885W        W24085  10.497   5.232   9.743 -0.2113 -0.0550 -0.1184
23886W        W24086  14.462   6.014  13.820 -0.1865 -0.0013  0.1135
23887W        W24087  14.404   1.971  11.446  0.0685 -0.0382  0.5172
23888W        W24088   7.764  13.977   6.485 -0.0256  0.1722 -0.2455
23889W        W24089  12.422  10.565  10.629 -0.0059  0.1353 -0.0970
23890W        W24090  11.335   3.465   0.383  0.2206 -0.2953 -0.1304
23891W        W24091  13.068   4.047   2.148  0.2617 -0.2315 -0.0170
23892W        W24092   3.167   5.806   2.223  0.0311 -0.0057 -0.1818
23893W        W24093   1.570   6.809  10.001 -0.0415 -0.1965 -0.1883
23894W        W24094   4.508   6.560  13.422  0.1941 -0.2948  0.0133
23895W        W24095   9.763   5.013   9.506  0.0212  0.1510 -0.1275
23896W        W24096  12.568  11.634   1.458 -0.0668 -0.1885 -0.2147
23897W        W24097  11.241   6.131  11.633 -0.0656  0.0729  0.2650
23898W        W24098  10.941  12.878   0.345  0.2309  0.0330 -0.1047
23899W        W24099   5.716   6.786   9.118 -0.2548  0.3185  0.0444
23900W        W24100  14.367  12.308  10.191 -0.0961 -0.0774 -0.0388
23901W        W24101   0.532   6.400   2.691  0.1021  0.0772  0.0737
23902W        W24102  14.635  12.594   2.535  0.0268  0.2407 -0.2566
23903W        W24103   3.936   1.389   7.265  0.1154  0.3439 -0.0041
23904W        W24104   1.543   7.948  13.299  0.0568 -0.0719  0.0937
23905W        W24105  11.700   9.323   3.379  0.1820 -0.1333 -0.0302
23906W        W24106   4.636   2.284   1.021 -0.0508 -0.4324 -0.0285
23907W        W24107   7.189   7.530   1.016  0.2816  0.0014 -0.1861
23908W        W24108   4.901   6.524   2.941 -0.1083  0.0129  0.0316
23909W        W24109   0.992   1.420  14.699 -0.0134 -0.1073  0.0859
23910W        W24110   8.175   8.949   6.209  0.1812  0.0367  0.3513
23911W        W24111   1.132   2.230  11.675  0.1514 -0.0816 -0.1300
23912W        W24112   9.263   3.550   5.832 -0.0915 -0.0322 -0.2051
23913W        W24113  13.485   8.629   2.020 -0.0329 -0.0195  0.0197
23914W        W24114   7.322  13.228   1.969  0.0221 -0.0118 -0.1527
23915W        W24115   2.471   6.667  10.412 -0.2027 -0.0284  0.0381
23916W        W24116  13.570   6.715  13.985 -0.0441  0.2510  0.1584
23917W        W24117  14.058   7.335   3.899  0.1691 -0.0802  0.2071
23918W        W24118   3.059   6.971   2.591  0.1431 -0.1942 -0.2447
23919W        W24119   8.828  14.770   5.610 -0.1156  0.2295 -0.1197
23920W        W24120   1.087  10.432  12.846  0.0458 -0.1242  0.1381
23921W        W24121  14.353   4.841  10.929 -0.1143 -0.0067 -0.0799
23922W        W24122   6.903   4.218   8.635  0.2994  0.1108  0.2683
23923W        W24123  10.784   0.247   9.864 -0.0188  0.1004 -0.0377
23924W        W24124   2.461   5.558  13.429  0.3754 -0.0745 -0.0157
23925W        W24125   0.118   4.221  10.254  0.1647 -0.1519 -0.2746
23926W        W24126   0.972   7.903  14.472  0.0103  0.0280  0.2600
23927W        W24127   0.168   1.840  14.343 -0.1646 -0.0573  0.1260
23928W        W24128  14.945   1.344   4.924  0.2798  0.0266 -0.1250
23929W        W24129   6.626   6.431   9.693  0.2436  0.1587  0.0043
23930W        W24130  12.382   0.159   8.225  0.0447  0.2146  0.0486
23931W        W24131   5.255  14.230  10.174  0.0364 -0.0252  0.2129
23932W        W24132  12.164   4.875   1.163 -0.6004 -0.2426 -0.0034
23933W        W24133  12.187  10.236   8.111 -0.0535 -0.0733  0.4935
23934W        W24134   8.430   1.466   7.620  0.1780 -0.2412  0.0772
23935W        W24135  11.436  15.029   5.648 -0.2100  0.1122  0.2077
23936W        W24136  14.926   2.630   0.228 -0.0844 -0.2004  0.0559
23937W        W24137   9.729  11.368   0.084 -0.0960  0.0878  0.2979
23938W        W24138   9.165   6.932   4.155 -0.1167  0.2980  0.0107
23939W        W24139   8.774   5.447   4.317  0.2216  0.0245 -0.2394
23940W        W24140   8.025  13.106   9.820  0.1765  0.0386 -0.0130
23941W        W24141   6.799   2.582  11.112 -0.3586  0.3701 -0.2255
23942W        W24142  13.234   4.997   3.827 -0.0465  0.0551 -0.0001
23943W        W24143  11.500  12.441  14.349 -0.0322  0.0539  0.0593
23944W        W24144   1.097  10.127  15.085  0.1074  0.1523 -0.0574
23945W        W24145   8.669  13.459   7.464  0.0547  0.2288  0.0279
23946W        W24146  13.031   4.461   3.056 -0.3423 -0.2482 -0.2028
23947W        W24147   4.406   9.834   0.201 -0.0801 -0.1837 -0.0003
23948W        W24148  14.266   8.161   9.165  0.0843 -0.2200  0.2443
23949W        W24149  10.922   8.185  12.941  0.0349  0.0600  0.1112
23950W        W24150  14.082   5.963   8.115 -0.2348 -0.0827 -0.1992
23951W        W24151   2.762   1.554   4.047  0.0511  0.1351 -0.0277
23952W        W24152  12.523   0.321   7.675  0.3245  0.0873 -0.0108
23953W        W24153   8.639  13.659   6.273  0.0952  0.1885 -0.0160
23954W        W24154   0.010   5.262   8.458 -0.0388  0.3135 -0.0845
23955W        W24155   7.432   6.574   0.100 -0.1895  0.0677 -0.0496
23956W        W24156  10.402   8.315   7.652 -0.1263  0.3436  0.0684
23957W        W24157   1.946   8.186  10.745 -0.0936 -0.0871 -0.3556
23958W        W24158   7.365   3.478   1.779 -0.3470 -0.3752  0.0422
23959W        W24159   0.577   3.049  14.378 -0.0546 -0.0674  0.1690
23960W        W24160  11.247   7.434   3.275 -0.1720 -0.2906  0.0552
23961W        W24161   1.210   7.814   2.623 -0.1867  0.1255  0.2499
23962W        W24162   4.231   4.843   9.306  0.1091  0.0418  0.4042
23963W        W24163  11.114   7.387   9.429 -0.1303 -0.0965 -0.0423
23964W        W24164  10.061   9.522   6.845  0.1649 -0.2266  0.1431
23965W        W24165  12.274   9.030  13.764  0.2150  0.0168 -0.0325
23966W        W24166   6.515   5.423   0.288  0.1067 -0.2192 -0.0859
23967W        W24167   2.153   8.781   8.035  0.1545  0.2430 -0.0724
23968W        W24168   1.190  10.433  13.756 -0.0888 -0.1867 -0.2902
23969W        W24169  12.061   2.817  12.643  0.0879  0.2244 -0.1009
23970W        W24170  13.649   8.228   7.044 -0.1097  0.0520  0.1739
23971W        W24171   0.976   9.012   0.759 -0.1544 -0.1576  0.0593
23972W        W24172  10.453   3.257  14.542  0.0471 -0.0633  0.0947
23973W        W24173   3.469   7.000   0.669 -0.2490 -0.0480  0.0110
23974W        W24174  11.898   9.950   0.945  0.1373  0.2142  0.4100
23975W        W24175  13.198  12.723   1.434  0.1945 -0.0361 -0.0446
23976W        W24176   3.102   2.210   2.590 -0.0984  0.1763 -0.1018
23977W        W24177  10.950   6.611   8.212  0.1087 -0.1968  0.3633
23978W        W24178   2.809   0.719   3.679  0.3049  0.0231 -0.1629
23979W        W24179   8.380   3.462   8.987  0.0404 -0.0163 -0.3279
23980W        W24180   0.156   8.810   0.914 -0.1326  0.1842  0.1693
23981W        W24181   0.410   5.551  13.591  0.0755 -0.1427 -0.1181
23982W        W24182   9.997   1.669   2.124  0.2659  0.0527  0.1356
23983W        W24183  12.440  11.411   2.439 -0.0310  0.1571 -0.1862
23984W        W24184  11.023  14.606   7.160 -0.1077 -0.0188  0.0663
23985W        W24185  10.592  14.465   2.307 -0.2264 -0.2417  0.0273
23986W        W24186   1.768  12.442   8.883  0.1271 -0.0215 -0.1011
23987W        W24187  13.255  13.751  12.838 -0.5244 -0.0213  0.0275
23988W        W24188  12.820   5.310   8.362 -0.3716  0.1649  0.2658
23989W        W24189   1.448   8.686   3.724 -0.1127  0.0431 -0.1065
23990W        W24190  12.214  12.043   6.140  0.1148 -0.0657  0.1021
23991W        W24191   0.417   5.309  14.852 -0.0841  0.2162 -0.2420
23992W        W24192   9.807   7.073   2.527 -0.0399 -0.1346  0.3134
23993W        W24193   9.836   3.399  10.925 -0.2029 -0.2351 -0.2321
23994W        W24194  14.765  12.103   9.797  0.3295 -0.0829  0.2984
23995W        W24195   0.120   5.203  10.369 -0.0404  0.2534  0.0987
23996W        W24196  13.746   8.461   8.463 -0.0601 -0.1052  0.1703
23997W        W24197  12.544  11.497   0.542  0.4014  0.1292 -0.2774
23998W        W24198   6.810   5.135   1.641  0.2131 -0.1235 -0.3717
23999W        W24199   9.744   1.817  10.596 -0.0041 -0.0955 -0.2818
24000W        W24200  14.341   7.300  11.714 -0.2512  0.2704  0.0748
24001W        W24201  12.361   7.304   8.500 -0.0556 -0.3374  0.2982
24002W        W24202   8.635   3.586  14.175  0.1938 -0.2255  0.1990
24003W        W24203   2.276  14.633  13.910 -0.2911 -0.2494  0.2033
24004W        W24204   4.480   7.929   1.503 -0.0159  0.5089  0.1193
24005W        W24205   5.243   4.247  12.563 -0.0234 -0.2590 -0.1150
24006W        W24206  11.928  12.777   7.749  0.0393 -0.3320  0.2488
24007W        W24207  13.159   0.931   7.267 -0.0678  0.0668  0.0677
24008W        W24208  12.700  12.039  11.292  0.0774  0.0358 -0.0433
24009W        W24209   9.628  10.368   1.598 -0.0050 -0.0336 -0.2044
24010W        W24210   7.739  14.208   9.676  0.1728 -0.1901 -0.2267
24011W        W24211   1.819   7.175   8.610 -0.3573 -0.0158 -0.0830
24012W        W24212  13.921   4.765   5.104  0.0790  0.1402  0.1441
24013W        W24213   8.384   8.194   1.818 -0.1207  0.0104  0.3174
24014W        W24214  10.151   2.090   9.728 -0.0644 -0.1827  0.1386
24015W        W24215  11.532   2.280   7.640 -0.0186 -0.1199  0.1990
24016W        W24216   5.423  13.091  10.177  0.1990 -0.1237 -0.1427
24017W        W24217  11.640   3.026  14.473  0.0847  0.2665  0.3062
24018W        W24218   3.101   4.794  12.991 -0.0095  0.0943  0.0169
24019W        W24219   1.985   2.785  13.885  0.0448  0.2392  0.3321
24020W        W24220  14.477  11.618  11.331  0.0201 -0.0768 -0.1080
24021W        W24221  14.210  14.735  12.721 -0.1617 -0.0219  0.2040
24022W        W24222  10.006   8.477  10.686  0.1473  0.0797  0.0593
24023W        W24223   0.565   6.771   9.712 -0.1368 -0.0196  0.1698
24024W        W24224  10.757   6.435   0.108 -0.2316  0.0463 -0.2740
24025W        W24225   4.163  10.465  10.891  0.1053 -0.0779  0.0493
24026W        W24226  10.259  13.282   9.408  0.0751  0.0772 -0.0594
24027W        W24227   9.622   8.064   0.991 -0.2080 -0.0465 -0.0433
24028W        W24228   9.460   7.569   1.727  0.1134  0.2149 -0.2379
24029W        W24229  14.543   3.331   2.922 -0.1984  0.3882  0.1991
24030W        W24230   1.437  14.350  13.286 -0.0759 -0.1469  0.1225
24031W        W24231  11.610   6.546  12.366 -0.0688  0.0136 -0.0390
24032W        W24232   4.216   6.847  11.077  0.1814  0.2901 -0.2759
24033W        W24233  12.030   5.540   4.714  0.0198 -0.0780 -0.0901
24034W        W24234  14.809  12.174   3.645  0.0711  0.0308  0.0044
24035W        W24235   4.087   7.316  11.465 -0.2884  0.2091  0.3692
24036W        W24236  11.913  14.635  14.404 -0.0747  0.1295  0.0502
24037W        W24237   8.668   9.668   0.335  0.1599  0.1650 -0.1221
24038W        W24238   2.994   5.939   6.472 -0.0926 -0.1644  0.2958
24039W        W24239   4.993   2.362   0.574  0.0199  0.0477 -0.2938
24040W        W24240   5.151   5.844  12.486  0.0615  0.1444  0.0739
24041W        W24241   2.287   4.799  10.363 -0.1894  0.2103  0.3357
24042W        W24242   0.037   7.734   2.796  0.5421  0.2531 -0.0925
24043W        W24243  11.737  11.449   6.726 -0.1868  0.2442 -0.1504
24044W        W24244   1.102  11.187   9.571  0.0254 -0.0220 -0.1672
24045W        W24245  11.818   5.860  11.757  0.1241 -0.1353  0.1388
24046W        W24246   6.347   5.441  11.441 -0.1342 -0.0551 -0.0627
24047W        W24247  12.045   6.280   2.843  0.1354  0.1323 -0.0475
24048W        W24248  13.806  10.296   2.576  0.1046  0.1908 -0.2317
24049W        W24249   6.952  12.950   2.797 -0.0292  0.1406 -0.1944
24050W        W24250   8.935   2.851  14.974 -0.1801  0.0469  0.0228
24051W        W24251   6.380  13.429  10.260 -0.2738  0.1833 -0.0129
24052W        W24252   9.783  13.182  10.720  0.0891  0.1399 -0.1626
24053W        W24253  12.931   9.003   0.473 -0.1345  0.2341  0.1607
24054W        W24254   9.243   4.112  12.972 -0.0055 -0.0157 -0.1800
24055W        W24255  15.136   8.703  10.664 -0.0025  0.0625  0.2452
24056W        W24256  11.853  11.722  13.766  0.0233 -0.1917  0.3408
24057W        W24257  11.435  12.057  11.220  0.0349 -0.3635 -0.2066
24058W        W24258   8.872   4.854   1.587  0.4128 -0.0268 -0.0793
24059W        W24259   3.050   8.970   7.243  0.2445 -0.1307  0.1065
24060W        W24260  15.132  11.171   0.967 -0.0918  0.2962  0.0116
24061W        W24261  11.268   3.070  12.352 -0.1878  0.1090 -0.1077
24062W        W24262   2.974   7.270  11.975  0.0214 -0.1992 -0.0054
24063W        W24263   2.227  12.098  10.973  0.2216 -0.2727  0.2171
24064W        W24264  11.521   7.149  13.695 -0.0689 -0.2194  0.1588
24065W        W24265   9.672   7.403   5.562  0.0538 -0.1744  0.2386
24066W        W24266   2.241   3.275  10.040 -0.0081  0.1748 -0.0767
24067W        W24267  12.362   9.340  10.206 -0.0909  0.1830 -0.1147
24068W        W24268   8.890   2.241   8.704  0.0131 -0.0690 -0.0633
24069W        W24269  14.433   7.549   1.981 -0.1525  0.1188  0.1726
24070W        W24270   3.979   4.875  12.923  0.1700 -0.5362 -0.0900
24071W        W24271  12.848   4.208   2.590  0.0040 -0.1888  0.2007
24072W        W24272   8.886   6.506  10.464 -0.1275  0.2636 -0.0314
24073W        W24273  10.272   2.092   2.090 -0.0155  0.0520 -0.1462
24074W        W24274   3.857   9.735  13.186  0.0514 -0.3171  0.2678
24075W        W24275   5.421   1.822   6.040  0.2510  0.0131 -0.0578
24076W        W24276  13.156   6.556   8.937  0.0014  0.2027  0.1522
24077W        W24277   0.769   8.346  11.386 -0.0965  0.2053  0.0337
24078W        W24278   7.854   6.734   2.012  0.3230  0.1853  0.0093
24079W        W24279   2.756  12.883   8.292 -0.2506 -0.0074 -0.0724
24080W        W24280  13.709   2.518  10.374  0.0405  0.0959 -0.1088
24081W        W24281   8.609   3.760  10.821  0.0846 -0.0450  0.1687
24082W        W24282  11.805   4.952  11.927 -0.1882 -0.1774 -0.1184
24083W        W24283   8.333   5.681  11.710 -0.0533 -0.1172 -0.2690
24084W        W24284   8.345   3.426  10.535 -0.0523  0.0437 -0.2761
24085W        W24285   2.222  13.691  11.805 -0.2453  0.2388  0.1818
24086W        W24286   0.469  12.033   8.768 -0.1291 -0.1759 -0.0099
24087W        W24287   7.683   4.726   0.840 -0.2446 -0.1131  0.0166
24088W        W24288  10.130   8.483  13.935 -0.0509 -0.1234  0.0792
24089W        W24289   5.595   6.508   3.346 -0.1604  0.1027 -0.1674
24090W        W24290  11.932   9.716   1.643 -0.3591  0.2111 -0.0172
24091W        W24291   2.397  15.093   2.112  0.1584 -0.3718 -0.1213
24092W        W24292   7.494   4.140  14.341  0.1546 -0.2039  0.4272
24093W        W24293   1.428   7.130  15.050 -0.1902  0.2086  0.1747
24094W        W24294  12.990   3.923   8.963 -0.0462  0.1405 -0.0190
24095W        W24295   7.834  11.833  15.141 -0.2208  0.0258  0.1594
24096W        W24296  14.563   8.071  11.234  0.1155  0.0178 -0.1081
24097W        W24297   0.061   9.295   5.346  0.0061 -0.0431 -0.0753
24098W        W24298   0.821   3.206   9.497  0.1785 -0.2827 -0.0167
24099W        W24299   8.415   2.038   8.928  0.1731 -0.1642 -0.0322
24100W        W24300  10.954   2.096  12.338  0.0349 -0.3093 -0.1449
24101W        W24301   2.944   5.784  12.558 -0.2190 -0.0299 -0.1022
24102W        W24302   6.723   5.043   3.703 -0.0088 -0.0988 -0.0353
24103W        W24303   0.506   2.488  10.988 -0.1128  0.2218  0.0511
24104W        W24304   7.188   9.477   1.263  0.0400  0.1601 -0.0839
24105W        W24305   3.596   9.364   5.587  0.0774 -0.0403 -0.3351
24106W        W24306  11.414   1.202   7.435 -0.2141  0.1449  0.2595
24107W        W24307   9.299   1.944  13.324  0.1256  0.0965  0.0947
24108W        W24308   5.748  10.603   4.409 -0.2928 -0.1685 -0.1363
24109W        W24309   4.254   2.558  11.498 -0.0479 -0.1287  0.0503
24110W        W24310   9.837   2.080  12.607 -0.1405 -0.1053 -0.0791
24111W        W24311  11.509   7.306   2.019  0.0622  0.1154  0.1503
24112W        W24312  14.251  10.272   7.309 -0.3356 -0.3217 -0.1425
24113W        W24313   7.826   6.498  10.281 -0.0735 -0.2794  0.1514
24114W        W24314  12.656   3.566   7.124  0.0204 -0.1821 -0.4450
24115W        W24315   0.727  13.440   1.290  0.0148 -0.1418 -0.4607
24116W        W24316  11.406   5.176   3.567 -0.0528  0.0548 -0.0184
24117W        W24317   3.269   5.099   9.955 -0.2513  0.1532 -0.0387
24118W        W24318  14.648   7.181  13.980 -0.3820 -0.0225  0.0005
24119W        W24319  12.945   2.474   3.375  0.0936  0.2494  0.0152
24120W        W24320   9.434   5.944  10.926  0.0287 -0.2886 -0.2335
24121W        W24321  13.860   6.058   2.866 -0.3037 -0.3513 -0.2186
24122W        W24322   7.330  13.996   2.233  0.2074 -0.2090 -0.1142
24123W        W24323   1.504  12.969   0.537 -0.0733 -0.1867  0.0855
24124W        W24324  14.963   5.537  14.316  0.0769  0.0014  0.0370
24125W        W24325   9.791   9.771  14.403  0.1686 -0.3548  0.0285
24126W        W24326  13.104   4.798   4.745 -0.2932  0.3898 -0.1683
24127W        W24327  11.122   5.077  14.704  0.0815 -0.1375 -0.1002
24128W        W24328  12.479   6.919   3.271 -0.1571 -0.1955  0.0833
24129W        W24329   8.746   0.688   2.780 -0.0867  0.3034 -0.1814
24130W        W24330   9.520   8.684  14.433  0.0643 -0.2010  0.0232
24131W        W24331  14.941   9.487   6.963  0.2451  0.0545 -0.0892
24132W        W24332  12.680  12.427   1.540  0.1148 -0.0487  0.0350
24133W        W24333  15.190  10.440   1.399  0.0831  0.0578  0.1637
24134W        W24334   0.033   8.296  14.721 -0.2198 -0.1245  0.1204
24135W        W24335   4.610  11.696   4.077 -0.1325 -0.1989  0.1602
24136W        W24336   9.004   7.123   5.083  0.1611  0.3528  0.0767
24137W        W24337   8.797   9.845  11.962 -0.2254  0.1225  0.3734
24138W        W24338   2.022   1.395  13.347 -0.4882 -0.1658  0.4590
24139W        W24339  12.978  10.434   3.036 -0.1355  0.1642  0.0043
24140W        W24340   5.164   8.773   0.121 -0.0205  0.3100 -0.1115
24141W        W24341  12.543  11.837  14.529  0.0544 -0.1206  0.1099
24142W        W24342   1.127   9.353   5.442  0.0852  0.0504 -0.1726
24143W        W24343  14.211   5.104   3.510 -0.0478 -0.0850 -0.0775
24144W        W24344   3.118   6.665   0.683 -0.1087 -0.0793 -0.2721
24145W        W24345   9.359   6.515   3.172 -0.0081  0.1004  0.1545
24146W        W24346  11.620  15.114   3.692  0.3294 -0.0163 -0.1098
24147W        W24347   7.375  13.497  14.297 -0.0617 -0.0340 -0.0971
24148W        W24348  13.358   4.919   1.520 -0.2063 -0.0698  0.0633
24149W        W24349   2.503  10.260   4.422  0.0068 -0.0348 -0.1463
24150W        W24350   5.845   6.360  11.298  0.1274 -0.1065 -0.2943
24151W        W24351  10.524   5.061   5.900  0.1856 -0.0882  0.0948
24152W        W24352   1.961  14.164   7.325  0.1708  0.0937  0.1364
24153W        W24353   8.463   9.481   1.739 -0.0962  0.0791 -0.1597
24154W        W24354   0.115   8.644   9.525  0.1826  0.5588  0.0115
24155W        W24355  14.111   9.712   0.699 -0.0398  0.1746  0.1423
24156W        W24356  12.427   3.531  12.812 -0.1071  0.1860 -0.1598
24157W        W24357   5.158  10.507  11.759  0.2883  0.0405 -0.0841
24158W        W24358  10.572   8.059   7.183 -0.1886 -0.1104 -0.0864
24159W        W24359   0.931   5.830   4.626 -0.1214 -0.1199 -0.2745
24160W        W24360   0.096  12.251   6.684 -0.2081 -0.1106  0.0034
24161W        W24361  12.655   2.770   0.050 -0.3025  0.0160  0.0877
24162W        W24362  10.346   4.911   0.530  0.1252 -0.2970  0.0357
24163W        W24363  14.142   4.293  12.096 -0.0682 -0.0261  0.5968
24164W        W24364  11.666   4.410  13.735 -0.0254  0.2228 -0.0306
24165W        W24365  11.273   9.195   1.946 -0.0313 -0.1688 -0.0885
24166W        W24366   4.234   7.073  13.432  0.3372 -0.2674  0.2301
24167W        W24367  13.512  15.043  14.102  0.1514  0.0501 -0.0933
24168W        W24368   1.158   2.828  11.098  0.0240 -0.4269  0.0497
24169W        W24369   9.532   9.702   7.931 -0.1269 -0.1754 -0.3008
24170W        W24370   5.485   5.523  14.582  0.0306  0.0194  0.0685
24171W        W24371   3.891   4.692   2.739  0.2664 -0.1951 -0.1678
24172W        W24372  12.166  10.101   3.446 -0.0989  0.0452  0.3213
24173W        W24373   8.462   2.043  11.946  0.4489  0.0639  0.0993
24174W        W24374   2.095   6.002  11.526  0.0651  0.0777  0.1452
24175W        W24375  10.442  10.504   0.038  0.1996 -0.1582  0.1603
24176W        W24376  10.092   7.583   8.306 -0.2083 -0.1026  0.1429
24177W        W24377  14.823   4.946  10.507 -0.3349  0.0708 -0.0120
24178W        W24378   7.528   6.263  14.449  0.0935 -0.1755  0.0875
24179W        W24379   4.474   4.898   9.828 -0.1218  0.0538  0.3267
24180W        W24380   3.539  14.085   9.909  0.1772  0.2583  0.4892
24181W        W24381  13.843   4.826   1.809  0.1745  0.2168  0.1557
24182W        W24382   0.267   1.625   8.423  0.0733  0.0064 -0.3336
24183W        W24383  14.589  13.045   0.077  0.1227 -0.3670 -0.0991
24184W        W24384  11.709   5.903  12.228  0.0235  0.0691  0.0992
24185W        W24385  12.870   6.848  13.677  0.1273  0.3121  0.0234
24186W        W24386   0.489   4.483   4.733 -0.0794 -0.0039  0.1931
24187W        W24387  11.507   3.225   1.247  0.1112 -0.0318 -0.1024
24188W        W24388   0.575   9.836   3.348  0.3943 -0.1441 -0.1427
24189W        W24389  13.002   4.137  12.733  0.2171  0.0995  0.1848
24190W        W24390  12.177   1.237  11.681 -0.3636 -0.3996 -0.1463
24191W        W24391   9.223   5.993  13.730  0.2256 -0.0476 -0.0702
24192W        W24392   3.387  14.590   0.386  0.0883  0.1381 -0.2670
24193W        W24393  14.795  14.166  14.664 -0.0142  0.2867 -0.3847
24194W        W24394   8.878  10.164   7.061  0.1594 -0.4064 -0.2032
24195W        W24395   0.684   2.766  10.374 -0.1189 -0.1810 -0.1334
24196W        W24396   8.701  10.656   7.235  0.5172 -0.0066  0.1695
24197W        W24397  12.015  14.068   0.951 -0.1486  0.0580  0.0458
24198W        W24398  13.330   0.660   6.381  0.1794  0.0736  0.0664
24199W        W24399  12.222   9.063  12.211 -0.3477  0.1406 -0.2040
24200W        W24400  12.166   4.523   2.059 -0.1115 -0.0519  0.2194
24201W        W24401  13.203  12.330   2.853 -0.1844  0.1147 -0.0000
24202W        W24402  13.766   5.917  11.509  0.0031 -0.1325  0.1618
24203W        W24403   2.560   3.432  11.710 -0.1453 -0.1835  0.0742
24204W        W24404  14.940  11.749   3.374 -0.2641 -0.2537 -0.0824
24205W        W24405   8.798   9.181  13.806 -0.0083 -0.0749  0.1888
24206W        W24406   1.343   7.457   0.901 -0.3770  0.2433  0.0157
24207W        W24407  13.715  10.094   3.845 -0.1636  0.0244 -0.0662
24208W        W24408  11.149  13.798   3.330 -0.1148 -0.2940  0.1135
24209W        W24409  13.055  13.978   0.928  0.1798  0.0089 -0.1003
24210W        W24410  13.305   0.473  14.169  0.0052 -0.0372 -0.0328
24211W        W24411   9.366   0.173  12.733 -0.2525  0.1896 -0.1672
24212W        W24412  14.870   8.839   6.117 -0.1804 -0.0374  0.0756
24213W        W24413  14.633  11.199  14.920  0.0429  0.0143 -0.0341
24214W        W24414  10.111  11.913   3.987  0.4501 -0.0129  0.1247
24215W        W24415   3.149   0.286   5.465  0.3518  0.1328 -0.0672
24216W        W24416  12.495   6.589   2.925 -0.2071 -0.0905 -0.0787
24217W        W24417   8.774   3.570   7.294  0.3885 -0.1805  0.2443
24218W        W24418  11.348   3.048   1.722 -0.2137 -0.0882 -0.2708
24219W        W24419   0.856  11.464  13.019 -0.0966 -0.1950  0.1975
24220W        W24420   5.720   6.932   5.040  0.0217  0.0856 -0.2011
24221W        W24421  13.051  13.134   7.503 -0.3209 -0.1064  0.2546
24222W        W24422   0.169   8.766   7.002 -0.0546  0.0484  0.0127
24223W        W24423   6.768  11.702  14.220 -0.0272  0.3238 -0.3408
24224W        W24424   7.263  12.914   1.562  0.1007  0.3346  0.2103
24225W        W24425  10.793  11.304  10.230 -0.0658  0.0292 -0.1572
24226W        W24426  10.669   8.297   9.017 -0.2569 -0.0273  0.0277
24227W        W24427  14.058   9.800   2.690 -0.1501 -0.0538  0.0461
24228W        W24428  12.933  14.034   3.817 -0.2592 -0.0582  0.1332
24229W        W24429  13.905  10.533  11.785  0.0442 -0.1049 -0.0267
24230W        W24430  12.075  12.260   5.704 -0.0372  0.0567  0.2510
24231W        W24431  10.507   6.749  13.396 -0.0623  0.2723 -0.0511
24232W        W24432   2.886   3.789   1.248  0.1393 -0.0219  0.1015
24233W        W24433   9.387   2.289   6.198  0.2607 -0.1477 -0.1542
24234W        W24434   8.171  14.830   4.408  0.1583 -0.1022  0.1181
24235W        W24435   8.293   9.809   3.906  0.1181 -0.2078  0.2789
24236W        W24436   2.473   4.959   9.173 -0.0594  0.0207  0.0078
24237W        W24437  12.696  10.689   3.444  0.0656  0.0734 -0.2849
24238W        W24438  14.196   8.277   3.631 -0.2352 -0.3137  0.2140
24239W        W24439   4.599  11.462   5.527 -0.1649 -0.3328  0.0144
24240W        W24440   4.472   2.165   5.910  0.0600  0.0395  0.1721
24241W        W24441   6.061   1.363   0.800 -0.2692  0.1834 -0.0972
24242W        W24442   8.530   6.938  10.679 -0.0165  0.2914 -0.0593
24243W        W24443   3.339   6.755  10.112 -0.1868 -0.0196  0.0107
24244W        W24444  10.243   8.951  13.814 -0.0919  0.1357 -0.0381
24245W        W24445   4.349   8.271   0.458  0.0866 -0.0797 -0.0194
24246W        W24446   5.482   3.302   4.967  0.0060 -0.0504 -0.0369
24247W        W24447   6.132  12.961   3.147 -0.2660 -0.1575  0.0768
24248W        W24448   0.362   5.430   2.844  0.3795 -0.2988  0.0940
24249W        W24449   2.021   7.305   2.022 -0.1466 -0.0432  0.2515
24250W        W24450  11.115   0.769   8.709  0.0205 -0.0702  0.1470
24251W        W24451   2.206  13.919   2.008 -0.0229  0.6075 -0.1532
24252W        W24452   0.149   5.876  12.129 -0.1296 -0.0841  0.0943
24253W        W24453   2.180  14.899   9.469  0.2315 -0.0222  0.0919
24254W        W24454   5.929   8.346   4.079 -0.0941 -0.1549  0.0689
24255W        W24455   5.407   9.521   5.283  0.0523 -0.0671  0.0705
24256W        W24456   9.599   5.147  11.663  0.2807 -0.1094  0.0522
24257W        W24457  14.230   7.119   0.621 -0.1098 -0.2404 -0.0067
24258W        W24458  11.172   6.363   0.872 -0.2440  0.1651  0.2244
24259W        W24459   3.536  14.704   2.662 -0.0184 -0.1286  0.0082
24260W        W24460   2.853  10.195   0.258  0.2151 -0.1475  0.0644
24261W        W24461   1.281  15.156   9.554  0.0956  0.3373 -0.1256
24262W        W24462  12.816   3.979   5.093  0.1760  0.1522 -0.0705
24263W        W24463   0.842   9.567   9.563  0.1335 -0.1829 -0.1082
24264W        W24464   2.752   2.814   8.352 -0.2241 -0.1249 -0.0247
24265W        W24465   9.649   5.243   7.370  0.0358  0.1831 -0.2290
24266W        W24466   6.633  13.185   8.988 -0.1932  0.6259 -0.4025
24267W        W24467  12.528   7.357   6.990 -0.3151 -0.2898  0.1778
24268W        W24468   4.206  12.256   3.280 -0.2329  0.0938 -0.2956
24269W        W24469  14.690  11.735   1.960 -0.0690 -0.1958  0.0883
24270W        W24470   1.295  11.299   7.689 -0.3088 -0.0578  0.0570
24271W        W24471   2.524   2.861  14.265  0.0547 -0.0789  0.3187
24272W        W24472  12.648   8.702   0.162  0.2797  0.2895  0.0786
24273W        W24473  13.612   6.125   5.204  0.0233  0.0260 -0.0543
24274W        W24474   4.241  12.528  10.240  0.3757 -0.1770 -0.1164
24275W        W24475  13.767   1.801   1.964 -0.1704  0.1031  0.0434
24276W        W24476   2.311   5.577  14.751 -0.0802  0.3382 -0.1198
24277W        W24477   7.904   9.499   4.459 -0.0839  0.0690  0.0624
24278W        W24478  11.628  11.773   5.759 -0.0510 -0.1319  0.0482
24279W        W24479  14.511   7.427  15.070 -0.0556 -0.0530  0.1512
24280W        W24480   2.387  14.008   0.957 -0.0148 -0.0350 -0.0109
24281W        W24481   9.856   5.961   1.947  0.2772 -0.1513  0.0790
24282W        W24482   8.068   7.292   4.036 -0.0294 -0.0789 -0.2405
24283W        W24483  10.332   4.884   5.428 -0.0855  0.0498  0.0734
24284W        W24484   1.536   0.584   0.456  0.0748  0.1414 -0.0874
24285W        W24485   9.332   7.330  12.313  0.0873 -0.1306  0.2484
24286W        W24486   0.946  12.906  14.965 -0.2816  0.1057 -0.0130
24287W        W24487   4.811   2.531   2.838 -0.0926  0.0866 -0.0958
24288W        W24488  14.940   0.328   2.679  0.1703  0.0240  0.0619
24289W        W24489  13.109   6.628  12.993 -0.3056  0.2443 -0.1966
24290W        W24490  11.943   7.167   8.231 -0.1169 -0.1152  0.1249
24291W        W24491   2.282   3.976   8.396 -0.3230 -0.2453 -0.1584
24292W        W24492   9.368  10.012  14.692  0.2661 -0.0930 -0.0705
24293W        W24493   3.715   2.328   6.418 -0.0296 -0.1408  0.2753
24294W        W24494   5.897   8.076   9.213 -0.0023 -0.2404  0.1338
24295W        W24495   9.398  10.864  12.126  0.1019  0.0293 -0.0409
24296W        W24496  11.415   7.662   4.727 -0.3578  0.0559 -0.0158
24297W        W24497  14.642   8.311   2.959  0.1777  0.6332 -0.1493
24298W        W24498   0.525   2.181   2.336  0.0741  0.1343  0.1204
24299W        W24499  14.021   2.475   7.322 -0.0853 -0.0723  0.0515
24300W        W24500   2.647  12.064   2.849  0.3366  0.1819  0.2172
24301W        W24501  11.049   8.669   2.316 -0.0662 -0.0866 -0.0954
24302W        W24502   8.106   6.029   1.868 -0.3518 -0.3407  0.1292
24303W        W24503   9.331   9.318  11.837  0.0437  0.0241 -0.2131
24304W        W24504   1.502   8.960   5.167 -0.1516  0.3479 -0.0518
24305W        W24505   2.425  13.459   4.259 -0.1547  0.0501  0.0900
24306W        W24506  11.057   6.502  14.909 -0.1353 -0.0961  0.2739
24307W        W24507   6.379   7.420   3.691 -0.0188  0.3331 -0.0916
24308W        W24508  14.370  14.963  14.596  0.0784  0.0663  0.1507
24309W        W24509  14.056   4.652   4.601  0.1900 -0.0787 -0.0700
24310W        W24510   2.746  11.184   7.186 -0.2492 -0.1769  0.1299
24311W        W24511   8.736   6.943   0.420 -0.0631 -0.2013 -0.0061
24312W        W24512   0.122   2.389   3.590  0.1584 -0.2205 -0.3190
24313W        W24513  12.020  11.568   6.052  0.1811  0.0273 -0.0981
24314W        W24514   3.333   6.260  11.970 -0.0348  0.0635 -0.0881
24315W        W24515   3.841  12.654   2.631  0.0355 -0.0360  0.1584
24316W        W24516   3.034   6.013   4.923 -0.0480 -0.0962  0.0493
24317W        W24517   7.939  12.375   3.042  0.1962  0.0152  0.0162
24318W        W24518  10.765  13.047   8.844  0.1451 -0.1077  0.3621
24319W        W24519   3.107   2.871   2.293 -0.2663 -0.0398 -0.0888
24320W        W24520   2.668  11.224   1.169  0.1684 -0.1737 -0.0196
24321W        W24521   2.129   7.357  10.341  0.3664 -0.1425  0.1485
24322W        W24522   5.973   1.683   6.869  0.1307  0.2630  0.3810
24323W        W24523  13.296   3.915  14.174 -0.1499 -0.2618  0.1361
24324W        W24524   2.917  10.832  10.708  0.4620  0.1707  0.0432
24325W        W24525  12.680  12.039   7.776  0.3255  0.2038  0.2533
24326W        W24526  14.348   8.152   2.447 -0.1691  0.2204 -0.1856
24327W        W24527   9.893   9.722   5.003  0.0685  0.1258  0.0657
24328W        W24528   1.645   7.647   2.222 -0.0726 -0.1470 -0.0126
24329W        W24529   1.041  13.028   0.703 -0.0527  0.2234  0.2325
24330W        W24530   9.289   0.636   4.866 -0.1363 -0.0288  0.1227
24331W        W24531   5.210  10.102   1.969  0.1320  0.1835 -0.1857
24332W        W24532   6.782   3.536   1.049 -0.0067 -0.0529  0.2369
24333W        W24533  14.529   8.062   1.991  0.3716  0.0416  0.1095
24334W        W24534  13.903   0.411   0.757  0.0437  0.3591 -0.0519
24335W        W24535  14.162   0.955   1.358  0.3092 -0.0810 -0.2894
24336W        W24536   6.340  10.333   4.993  0.1688  0.1206  0.2814
24337W        W24537   2.957   2.489   4.390  0.0011 -0.2191 -0.0272
24338W        W24538   5.227  14.655  11.953  0.0717  0.2250 -0.1175
24339W        W24539  12.734   0.616  11.289  0.0747  0.1468  0.0293
24340W        W24540  13.801  11.365   9.013  0.3393  0.1006 -0.0580
24341W        W24541   0.606  13.443   5.589 -0.0188  0.2465  0.1035
24342W        W24542  13.348   1.067  14.331 -0.0539 -0.0035 -0.3057
24343W        W24543  13.395  14.703  14.496 -0.2435 -0.1067 -0.1072
24344W        W24544  10.162   1.745   1.277  0.1937 -0.1117  0.1511
24345W        W24545   6.659   1.574  12.241  0.4064 -0.2260  0.0450
24346W        W24546   6.778  10.550   0.432 -0.0251 -0.4455 -0.2213
24347W        W24547   8.049   6.419   0.889 -0.1372  0.2189 -0.1699
24348W        W24548   9.504  10.180   9.879  0.0870 -0.0742  0.0180
24349W        W24549  13.582  12.948   4.028 -0.0229 -0.1574  0.1235
24350W        W24550  14.834   2.357   0.682  0.4063  0.2305  0.0569
24351W        W24551   8.584   1.287   1.084 -0.1214 -0.0718  0.2320
24352W        W24552   4.773  12.475   7.035 -0.1776  0.3315  0.0367
24353W        W24553  10.653   7.853  12.605 -0.0161 -0.1025  0.2531
24354W        W24554   8.821   7.690   6.186 -0.1088  0.0175  0.0094
24355W        W24555  10.831  12.191   7.447  0.1858  0.2056 -0.1369
24356W        W24556  12.033  12.275   2.565  0.0360 -0.1311 -0.2111
24357W        W24557   2.847   2.377  12.660  0.1815  0.0858  0.1842
24358W        W24558   4.228   5.056   2.874  0.2002 -0.2524  0.2259
24359W        W24559   1.502  14.396  14.588 -0.0452  0.0625  0.0438
24360W        W24560   0.920   2.695   1.195 -0.1620  0.0316 -0.1023
24361W        W24561   6.123  11.240   0.091  0.1223  0.0555  0.0974
24362W        W24562  10.407   9.379  10.847 -0.3936  0.4670 -0.0359
24363W        W24563  12.213  10.098   2.519  0.3647 -0.1328  0.1092
24364W        W24564   8.186   4.782   7.804  0.0053 -0.0144  0.3046
24365W        W24565   0.089   2.458  15.097  0.1424 -0.1636 -0.0107
24366W        W24566  10.625  14.262   1.737 -0.0564 -0.1127  0.2411
24367W        W24567   5.757  13.453   9.569  0.0099  0.0385  0.2295
24368W        W24568  10.514   6.728  14.298  0.2851  0.0494  0.0458
24369W        W24569   5.452  14.975  11.121 -0.0736 -0.0144 -0.0572
24370W        W24570  12.553  12.485   2.830  0.4319 -0.2082 -0.0404
24371W        W24571   9.298   7.647   3.549  0.0432  0.0759  0.3394
24372W        W24572  14.564  13.158   3.743  0.0045 -0.0027 -0.0117
24373W        W24573   5.319  11.976  13.160  0.0469  0.2030  0.3114
24374W        W24574   6.635   9.302  13.585  0.0850 -0.0207 -0.0599
24375W        W24575   3.485  14.735   4.708 -0.2086 -0.1964 -0.2762
24376W        W24576   5.157  12.942   2.631  0.0422  0.3341 -0.1116
24377W        W24577   7.282  11.458   9.872  0.3722  0.1106  0.2590
24378W        W24578  13.123   2.172  12.971  0.0801 -0.0685 -0.0018
24379W        W24579   9.694   7.204  10.187  0.2006  0.1030  0.0439
24380W        W24580  14.195  13.352   0.591  0.1075 -0.0351 -0.1076
24381W        W24581  12.506   4.439   3.097 -0.0406 -0.0213  0.2932
24382W        W24582   0.240   5.929  13.351 -0.1570  0.1174 -0.0846
24383W        W24583  11.004   4.240  12.842  0.1979 -0.0253  0.0921
24384W        W24584   9.999   4.102   2.008 -0.0510  0.0300 -0.2689
24385W        W24585  10.960   9.492   5.781  0.2883 -0.0689 -0.0517
24386W        W24586   5.376  10.737  14.904 -0.1520  0.0425 -0.1564
24387W        W24587  10.572   7.037  13.855 -0.2131  0.2549 -0.1003
24388W        W24588   1.681   0.999  11.344 -0.0425 -0.0629  0.1068
24389W        W24589  13.944   9.809   4.931  0.0243  0.2834  0.0529
24390W        W24590  12.109   1.481   9.676  0.2553 -0.1309  0.1024
24391W        W24591   8.663   8.504   3.726  0.0444  0.2259 -0.1981
24392W        W24592   0.041  10.609   8.283  0.3352 -0.3498 -0.1060
24393W        W24593   1.249   3.050   5.833 -0.3436 -0.2812  0.0820
24394W        W24594  14.660   8.343   8.352  0.4967  0.2106 -0.0238
24395W        W24595   8.290   0.899   5.854  0.0771 -0.2211 -0.0991
24396W        W24596  14.745   8.952   2.284  0.0902  0.2709 -0.0240
24397W        W24597   6.055   7.243  14.150  0.1028 -0.3055 -0.1330
24398W        W24598   3.469   0.380   1.048 -0.0020 -0.0179 -0.0231
24399W        W24599   4.366  10.851  13.943  0.2678 -0.0684 -0.3292
24400W        W24600  11.122   9.251   5.042  0.2376  0.1067  0.0877
24401W        W24601   0.445  11.400   6.960 -0.1172  0.0429  0.2775
24402W        W24602   8.820  14.786   8.097  0.0337 -0.0106 -0.2048
24403W        W24603   8.218   6.234  11.656  0.3305 -0.1028  0.1372
24404W        W24604  10.790   5.576   6.090  0.0425 -0.1845 -0.1674
24405W        W24605   9.817   6.035   8.420 -0.0846  0.0673 -0.1079
24406W        W24606  14.989   1.520  14.450  0.0138  0.0982 -0.0717
24407W        W24607   9.623   6.197   4.961 -0.1931 -0.0847 -0.0878
24408W        W24608   4.066   2.534   1.654  0.2677  0.1071  0.2352
24409W        W24609  14.541  14.130   2.599  0.0942 -0.0653  0.1038
24410W        W24610   0.637   6.935  13.768 -0.0864 -0.0933 -0.1805
24411W        W24611   1.569  13.833  14.672  0.1051 -0.0030 -0.2946
24412W        W24612   3.296   4.352   4.556  0.0265  0.0348 -0.1151
24413W        W24613   0.648  12.204  15.067 -0.2774 -0.3648 -0.0334
24414W        W24614  13.194   5.638   0.043  0.3361 -0.0813 -0.0278
24415W        W24615   8.143   8.629   1.481  0.1495 -0.1328  0.2673
24416W        W24616  10.560   8.705   6.157 -0.1128 -0.1008 -0.1589
24417W        W24617  12.565   8.426   9.880  0.1844 -0.0605 -0.1353
24418W        W24618  13.579   3.177  14.773  0.2346  0.0694 -0.0428
24419W        W24619  14.835  10.942   1.305  0.1441  0.1195 -0.2511
24420W        W24620   9.358   6.686   8.860  0.0758  0.2401 -0.0880
24421W        W24621  10.713   5.551   4.725 -0.1671 -0.0411  0.0200
24422W        W24622  11.209  15.043   3.329  0.0198 -0.1364 -0.0854
24423W        W24623   1.327   6.692   3.019  0.0531  0.1741  0.1301
24424W        W24624  10.594  12.310  11.193  0.1363 -0.1224  0.2516
24425W        W24625   0.224   6.732   9.290 -0.1005 -0.4392  0.0201
24426W        W24626   2.591   8.222   2.031 -0.1532  0.1900 -0.0988
24427W        W24627  13.522  12.844   4.563  0.2160  0.2200 -0.1152
24428W        W24628  10.271  10.482  11.732  0.2156 -0.1827 -0.0287
24429W        W24629  14.611   8.662   1.142 -0.1590  0.1793 -0.1466
24430W        W24630  11.570   6.780   2.293 -0.3297 -0.1440 -0.0275
24431W        W24631   7.378  11.836  11.593  0.0070  0.3860  0.1368
24432W        W24632   6.265   0.779   6.126  0.1629 -0.1714 -0.2000
24433W        W24633   2.879  13.805   0.619 -0.1131  0.1619 -0.0660
24434W        W24634  10.229   6.488   3.162  0.2013  0.3092  0.1558
24435W        W24635  13.877  13.701  13.247 -0.0907  0.2605 -0.1456
24436W        W24636   6.091   3.618   9.625 -0.0019  0.2107  0.1494
24437W        W24637   9.260   9.680   4.915 -0.0612 -0.1008 -0.3873
24438W        W24638   9.204   5.525  13.950  0.0995 -0.2521 -0.1491
24439W        W24639  12.070  12.672   9.039 -0.2231  0.1165  0.1075
24440W        W24640   0.881  14.793   1.368  0.0170 -0.2481  0.0705
24441W        W24641   9.946  12.788   8.668  0.1305  0.0886 -0.3270
24442W        W24642  10.561   9.318   5.496  0.2511  0.2610  0.2586
24443W        W24643   9.962   7.537   2.101  0.0438  0.0192 -0.1097
24444W        W24644   6.839  10.964  14.766 -0.0375  0.0925  0.1433
24445W        W24645  13.961   7.278   4.562 -0.2304  0.2716 -0.2561
24446W        W24646  14.544   0.134   0.650  0.1660  0.0631 -0.0061
24447W        W24647  14.770  10.118  11.859 -0.1159  0.3375  0.1095
24448W        W24648  14.991   0.642  11.772  0.0062 -0.0347  0.0575
24449W        W24649   0.833  13.038  13.377 -0.0602  0.0150  0.1376
24450W        W24650   8.692   8.438   1.071 -0.2603 -0.0420 -0.0371
24451W        W24651  12.023  13.928   3.441 -0.1174 -0.1127  0.0751
24452W        W24652   3.178   9.548  15.043  0.0106  0.3680  0.4447
24453W        W24653   2.581   1.014   8.235 -0.1754  0.3039 -0.2176
24454W        W24654   5.412   6.365   0.036 -0.2133 -0.0448  0.1274
24455W        W24655  10.890   7.401  13.824 -0.0790 -0.0765  0.1705
24456W        W24656  12.391  12.525   3.402 -0.1292  0.0577  0.0447
24457W        W24657   7.754   4.490  10.421  0.0184  0.0571 -0.0464
24458W        W24658  10.546   7.599   8.047 -0.2634  0.0198 -0.1518
24459W        W24659  14.993  10.380   5.835  0.1881  0.3214 -0.0184
24460W        W24660  10.825  11.645   0.639  0.0859 -0.2758  0.0860
24461W        W24661   4.248   4.042  12.719 -0.1521 -0.1462  0.2070
24462W        W24662   9.962   6.695   0.242  0.1998  0.2028 -0.0714
24463W        W24663  10.055  15.158   3.535 -0.0798 -0.1109  0.1475
24464W        W24664   5.921  14.651  10.073 -0.1619 -0.0971 -0.1091
24465W        W24665  11.336  13.330   2.513 -0.2545 -0.0937 -0.0329
24466W        W24666   7.254   1.229  12.810 -0.0834 -0.0972  0.0635
24467W        W24667  14.636   8.580  12.727 -0.0992 -0.1231 -0.1022
24468W        W24668   7.531   9.249   3.653  0.0613 -0.1581 -0.1848
24469W        W24669   8.390  10.133   1.011  0.1069 -0.1097  0.0189
24470W        W24670   5.874   7.403  11.630 -0.0655  0.2699 -0.1019
24471W        W24671   5.305   6.317  12.469  0.1977  0.2991  0.2463
24472W        W24672   3.666  12.744  10.393 -0.0821  0.1711  0.2931
24473W        W24673  12.398   7.126   2.231  0.1248  0.0993  0.0197
24474W        W24674   8.295  12.766   6.818  0.2066  0.0201 -0.3232
24475W        W24675  13.404   9.139  10.235  0.1526  0.2108  0.1467
24476W        W24676   4.751  10.848   0.379  0.4327  0.2163 -0.0616
24477W        W24677  12.898  10.571  12.511  0.3866 -0.0272  0.0125
24478W        W24678  11.275  11.372   9.447  0.0492 -0.1147  0.0824
24479W        W24679   3.440   2.868  10.906 -0.1369  0.3496  0.6237
24480W        W24680  12.126   9.647   7.037  0.0456  0.3499 -0.0088
24481W        W24681   5.096   6.626   2.475  0.1780  0.0086  0.3950
24482W        W24682  12.216   3.248   2.220  0.1726  0.2464  0.3678
24483W        W24683   7.359   1.433   0.467 -0.0783  0.1347 -0.0755
24484W        W24684   8.346  12.356  11.577  0.1412 -0.1482 -0.2142
24485W        W24685   8.882   1.203   1.582 -0.2273 -0.2085  0.2000
24486W        W24686   1.354   1.059   3.322  0.0201 -0.0217  0.4233
24487W        W24687  10.958   4.041   4.852  0.0016  0.2973  0.0180
24488W        W24688   3.506   8.205   5.038  0.0127  0.1580 -0.0028
24489W        W24689  13.620  12.016   2.514 -0.0269  0.1119  0.2173
24490W        W24690   6.727   3.703   0.099 -0.0580 -0.0036 -0.0521
24491W        W24691   7.769   7.481  10.591  0.2159 -0.3302  0.1454
24492W        W24692   3.477  13.590   2.941  0.3285 -0.1173  0.2145
24493W        W24693  11.288  10.240   3.026 -0.1104 -0.3158 -0.1331
24494W        W24694  10.271   2.989   5.603  0.1405  0.2173 -0.0430
24495W        W24695  11.909  10.619   6.267 -0.1199  0.0085 -0.1713
24496W        W24696   0.464   1.091   5.156 -0.0314  0.0772  0.0482
24497W        W24697  14.705   0.785   2.740  0.0495  0.1828  0.0111
24498W        W24698   3.308   6.965   7.031 -0.1750 -0.2104  0.1532
24499W        W24699  12.701   9.728   0.393 -0.0568 -0.1602  0.0047
24500W        W24700   5.878  11.621   5.610 -0.1995  0.0666 -0.3260
24501W        W24701   0.845   4.042   5.612 -0.2547  0.2620  0.1772
24502W        W24702  13.706   0.327  11.755 -0.2030  0.0932  0.1130
24503W        W24703   6.611   2.437  10.624 -0.0428  0.1382 -0.1193
24504W        W24704  11.455   9.639   2.356  0.0563 -0.0349  0.0481
24505W        W24705   4.658   6.055   5.558  0.1836  0.2353 -0.1002
24506W        W24706  14.140   0.651   7.887  0.0980 -0.0821 -0.1995
24507W        W24707  10.488   9.753   4.129 -0.0499  0.1272 -0.0322
24508W        W24708   4.274   0.317   6.221  0.1005 -0.6130 -0.2370
24509W        W24709   5.866   8.132   1.685  0.2790  0.1541 -0.1018
24510W        W24710   9.709  10.516  12.533 -0.1621 -0.1621 -0.1557
24511W        W24711   4.895  10.799   4.891 -0.2006 -0.3919  0.2693
24512W        W24712   5.288   7.026   7.433 -0.0076 -0.1813  0.0380
24513W        W24713   9.724   9.198   9.208  0.0460 -0.0681 -0.0340
24514W        W24714   6.474  10.177   6.594  0.1310 -0.0878 -0.0385
24515W        W24715  13.231  14.705  13.184 -0.1338  0.0728  0.2387
24516W        W24716  11.024   8.134   8.026 -0.1023  0.0996  0.0547
24517W        W24717  10.183   6.995   2.961  0.0525  0.1656 -0.0336
24518W        W24718   4.876   1.858   5.734 -0.3938  0.1522 -0.0659
24519W        W24719   8.115  14.920  12.527 -0.0452  0.0986 -0.4677
24520W        W24720  13.631   0.904   4.878  0.1575  0.1798  0.2835
24521W        W24721   3.185  12.300   4.678  0.0558  0.1861 -0.0822
24522W        W24722   9.498  12.008   8.742 -0.1028  0.2683 -0.1122
24523W        W24723  10.383   8.413  14.759  0.1326 -0.1902 -0.0143
24524W        W24724  12.306   7.732   5.211 -0.1493  0.1782  0.1615
24525W        W24725   3.158   9.363   5.800 -0.0820 -0.2379  0.0419
24526W        W24726  13.172  13.046   8.613 -0.0611 -0.3264 -0.0486
24527W        W24727  12.503   1.791   2.693  0.0230 -0.0045 -0.0163
24528W        W24728  10.965   4.161   2.294 -0.1544  0.2816 -0.1532
24529W        W24729  12.491   2.514   4.383 -0.1092 -0.0196 -0.0925
24530W        W24730  13.316   0.010  13.369  0.2526  0.0145  0.1329
24531W        W24731   1.084   6.561  12.859 -0.0794  0.1426 -0.0243
24532W        W24732  11.165   5.897  10.508 -0.1524  0.0283  0.0944
24533W        W24733  13.896   9.218   5.851  0.1567 -0.1799 -0.2953
24534W        W24734   9.741  11.752  14.924  0.1960  0.1471  0.0080
24535W        W24735   9.399  10.828   3.168 -0.2975 -0.2896 -0.3065
24536W        W24736   4.228   2.906   3.042 -0.0979  0.2215  0.2413
24537W        W24737   0.617   5.014   2.792  0.1167  0.1247 -0.0840
24538W        W24738   0.831  14.204   3.100 -0.1227  0.0309 -0.2475
24539W        W24739  12.256  11.862   9.292 -0.1024  0.0226 -0.2636
24540W        W24740   8.515  13.306   2.229  0.0669 -0.1335 -0.0341
24541W        W24741  10.975   6.338   9.043  0.3434  0.0346 -0.1329
24542W        W24742   6.934  14.141  13.343  0.0990 -0.1230 -0.2529
24543W        W24743   1.304   8.417  14.814  0.2085  0.0078 -0.1542
24544W        W24744   9.219   7.974  13.172 -0.0966  0.2854 -0.1013
24545W        W24745   5.991  14.824   4.914 -0.1715  0.4459 -0.1650
24546W        W24746  13.072   7.850   8.364 -0.0620  0.0107  0.0638
24547W        W24747   2.689   0.862  12.118  0.1513  0.2122  0.1025
24548W        W24748   9.102   5.955   2.804  0.0882 -0.0646  0.0896
24549W        W24749   3.957   9.396  13.943 -0.1913  0.4148  0.1657
24550W        W24750   5.964   5.799  12.075  0.0827  0.1242  0.0715
24551W        W24751  14.736   7.258   1.458  0.0082  0.0093  0.2748
24552W        W24752   9.232  10.395  14.225 -0.0810 -0.1116 -0.1732
24553W        W24753   8.999   4.499   1.215  0.2614  0.1036  0.1961
24554W        W24754   1.745  14.828   0.795  0.1774  0.1336 -0.1881
24555W        W24755  10.257   6.897   7.386 -0.0384 -0.2638 -0.2985
24556W        W24756  11.005   1.265   0.993 -0.2458  0.2309 -0.0013
24557W        W24757  10.332  14.641   5.942 -0.1726 -0.2980 -0.1818
24558W        W24758   6.026   6.705  10.894 -0.1052 -0.0320 -0.0621
24559W        W24759   6.734   4.592   2.772 -0.2313  0.2210  0.0589
24560W        W24760  13.646  10.462   4.287  0.2229 -0.0047 -0.0415
24561W        W24761   5.212   2.531   7.654  0.2105 -0.0390  0.1484
24562W        W24762   6.979  13.297  13.989  0.2215  0.1017  0.2219
24563W        W24763   4.527   0.597   6.545 -0.0971  0.1490 -0.1757
24564W        W24764  12.455   5.299  11.528  0.0511 -0.1736 -0.1663
24565W        W24765  12.191   3.387   4.898 -0.0218  0.1887  0.0574
24566W        W24766   7.695  11.256   3.960 -0.1611  0.1356  0.2151
24567W        W24767  12.470   7.149  12.214  0.2060  0.3295  0.2436
24568W        W24768   1.740  10.100   9.998  0.2704 -0.0392  0.0192
24569W        W24769   9.222  12.963  12.754  0.0700  0.1785  0.0455
24570W        W24770  13.427   8.566   1.301 -0.0817 -0.3912  0.1543
24571W        W24771  10.220   3.449   6.005 -0.3066  0.0087 -0.1727
24572W        W24772  14.166  11.225  13.408  0.1264 -0.0206 -0.0233
24573W        W24773   0.775   3.359   5.336  0.0950  0.0302 -0.0273
24574W        W24774  10.269  12.376  13.608  0.2029 -0.3479 -0.2586
24575W        W24775   7.795   3.635  11.796  0.2738 -0.0746 -0.1125
24576W        W24776   5.102   6.762  15.176  0.2970 -0.0349 -0.3232
24577W        W24777   1.280   0.571   6.242 -0.1855  0.0201  0.2001
24578W        W24778   3.208   7.421   5.296 -0.0601  0.3218  0.0187
24579W        W24779   2.851  14.453   7.445  0.1476 -0.0371  0.1488
24580W        W24780   8.878   4.703   6.653 -0.2988  0.0709  0.0437
24581W        W24781   7.686   0.940   3.450 -0.2699 -0.0293  0.1525
24582W        W24782   2.394   8.951   6.137 -0.2203  0.3977 -0.1053
24583W        W24783   1.451  14.432   5.770 -0.2723 -0.0867 -0.2362
24584W        W24784   9.271   2.189   0.794  0.0429 -0.1510  0.1482
24585W        W24785   2.141   6.682   4.807  0.0461 -0.0371  0.0175
24586W        W24786  13.180  11.260  12.077 -0.1428  0.0504 -0.3519
24587W        W24787   7.277   8.077   3.842  0.0110  0.0064  0.2371
24588W        W24788   4.193   4.373  15.054 -0.1691  0.0263  0.1078
24589W        W24789   6.106  10.691   2.738  0.3032  0.0595  0.1397
24590W        W24790  11.095  13.878   2.633  0.1488 -0.2104 -0.0408
24591W        W24791   8.079   4.340  11.532 -0.0593 -0.2133 -0.2608
24592W        W24792  11.786  11.864   3.922  0.1972  0.0064  0.3832
24593W        W24793  11.988   2.741   3.709  0.0782  0.1147  0.1510
24594W        W24794   6.876  10.433  10.477  0.0431 -0.1829 -0.2007
24595W        W24795   9.103   6.110   4.903  0.1105 -0.0500 -0.1389
24596W        W24796   3.969   0.543   8.971  0.0147 -0.3357  0.1878
24597W        W24797  11.755   8.839   0.695  0.0644  0.2821 -0.1784
24598W        W24798   4.112   6.701   4.501 -0.1627 -0.0876 -0.1728
24599W        W24799  11.757  12.681   5.884  0.4537  0.0922 -0.2439
24600W        W24800  13.627   8.681   6.749 -0.1738 -0.1015 -0.0538
24601W        W24801   7.255  13.555   0.239  0.0500 -0.2009  0.1148
24602W        W24802  11.229   8.532   9.615 -0.1353 -0.0422 -0.0300
24603W        W24803   8.757  13.651  10.679 -0.2125  0.0631  0.0468
24604W        W24804  12.664   2.807   1.597 -0.2525 -0.0230  0.0344
24605W        W24805  12.593   7.408   4.187  0.1485 -0.0328 -0.0410
24606W        W24806  10.401  11.760   5.550 -0.0390 -0.0388 -0.1937
24607W        W24807   0.024  11.064  12.328  0.1223  0.1866 -0.1175
24608W        W24808   6.567  10.994  10.509  0.0151 -0.2438 -0.0074
24609W        W24809   9.826   2.399   1.377  0.1599 -0.0936  0.0007
24610W        W24810   8.459   6.732  13.318 -0.3085  0.2034  0.0646
24611W        W24811  12.785   1.031   9.817 -0.0250  0.0468  0.1989
24612W        W24812  11.626   4.780   1.287 -0.0418 -0.1181 -0.4085
24613W        W24813  14.051   8.011  10.375  0.1650 -0.0546 -0.1670
24614W        W24814  14.027   8.176  12.068 -0.0511  0.1815  0.1567
24615W        W24815  12.091  12.745   3.769  0.1759  0.0194  0.0863
24616W        W24816   4.587   5.529   5.713 -0.0114  0.1114  0.1749
24617W        W24817   8.915   5.242  10.319  0.0232 -0.2253 -0.2819
24618W        W24818   7.610   1.765   7.538  0.0212  0.1315 -0.0236
24619W        W24819   9.845  15.100   9.020  0.0144  0.1032  0.0422
24620W        W24820   4.956   9.903   3.545  0.0016 -0.2854  0.0944
24621W        W24821  10.032   8.490   2.652 -0.1934 -0.0122 -0.1483
24622W        W24822   5.355   8.487  13.183  0.3606 -0.0083  0.4699
24623W        W24823  13.398   5.837   0.613 -0.0044  0.0914  0.3874
24624W        W24824   3.288   8.807   2.819 -0.0028  0.0777  0.0833
24625W        W24825  12.294   5.644  11.157  0.1541 -0.2796 -0.2931
24626W        W24826   9.304  11.373   2.450  0.0237 -0.0010  0.0053
24627W        W24827  10.222   4.884   1.047  0.1350  0.0352  0.1161
24628W        W24828  10.298  13.976   8.142 -0.2276 -0.0525  0.2045
24629W        W24829  10.299  12.792   6.992  0.2249 -0.2154 -0.2649
24630W        W24830  11.240  10.946   9.759  0.3427 -0.0093  0.0052
24631W        W24831   9.045   8.262   4.265 -0.0114 -0.0484  0.0141
24632W        W24832  11.074   1.415   4.893  0.0086  0.3784 -0.0100
24633W        W24833   5.904   7.979  12.489 -0.0616  0.0933  0.1863
24634W        W24834  11.659   1.732   9.269 -0.1183  0.1242  0.1247
24635W        W24835   9.231  14.779   6.683 -0.0661 -0.1677  0.1799
24636W        W24836  14.825  10.248   6.335  0.0627  0.0263 -0.0037
24637W        W24837  14.118   8.374   2.810  0.1205 -0.0590 -0.1742
24638W        W24838   5.542  11.780   6.928  0.0842 -0.2077  0.2133
24639W        W24839   0.512   4.963   1.951 -0.0924 -0.2022 -0.3912
24640W        W24840   1.424   7.917   0.112  0.0345  0.1220  0.1938
24641W        W24841  12.901   9.005  15.083 -0.3200  0.1977 -0.1423
24642W        W24842   5.635   7.812  10.133  0.1319 -0.0967  0.3152
24643W        W24843   6.250   3.366   4.204  0.1689 -0.4355 -0.0058
24644W        W24844  12.363   0.568   8.929  0.2188  0.0154 -0.2326
24645W        W24845   2.078  10.429   1.091  0.0978 -0.1069  0.0704
24646W        W24846   8.995   0.826   8.034  0.0763 -0.1026  0.0838
24647W        W24847  10.198   4.786  10.242 -0.0736 -0.0427  0.1472
24648W        W24848   6.190   9.251   7.689 -0.0627  0.0096 -0.0565
24649W        W24849  12.916   4.838   3.416 -0.0715 -0.0010  0.0532
24650W        W24850  12.984   0.459   7.254  0.3603 -0.2113 -0.0663
24651W        W24851   4.547  12.448   4.972 -0.1589 -0.1757  0.3346
24652W        W24852   4.504   1.955   6.534  0.0319  0.2656 -0.1764
24653W        W24853  12.606   9.772   5.264 -0.0681  0.0817 -0.1427
24654W        W24854  10.512  14.716   5.000 -0.0582  0.0837 -0.0302
24655W        W24855  10.317   2.416  15.092  0.0814 -0.0000  0.0799
24656W        W24856  10.786   4.889   7.436 -0.3028 -0.0890  0.2039
24657W        W24857  13.010  10.818  11.256 -0.4444  0.2426  0.1622
24658W        W24858  11.865   7.961   9.499 -0.1421  0.0158 -0.3190
24659W        W24859   7.085   6.297   1.590 -0.1152 -0.1682 -0.0145
24660W        W24860   0.558   1.631   0.477  0.4876  0.0699  0.1811
24661W        W24861  12.741   6.477  11.211  0.1460 -0.2428  0.3230
24662W        W24862  11.657  10.617   4.023  0.1889 -0.2321  0.0050
24663W        W24863  13.296   4.579  11.766  0.0691 -0.3976 -0.1096
24664W        W24864  14.075   7.070  10.446 -0.0842  0.0714 -0.2091
24665W        W24865  12.921   6.964   7.021 -0.2458 -0.1586  0.1569
24666W        W24866   5.604   8.986   6.141 -0.1579  0.0580 -0.1016
24667W        W24867  15.137   8.485   1.322  0.4253 -0.1804 -0.2851
24668W        W24868   8.475   6.195  13.456  0.1281 -0.1788  0.0812
24669W        W24869  12.791   0.373   8.063 -0.0318  0.2714 -0.1830
24670W        W24870   9.431  10.353   2.894 -0.0222  0.0417 -0.4110
24671W        W24871  11.784   0.707  10.495  0.0920  0.0664 -0.3179
24672W        W24872   0.234   5.276   5.194  0.5466  0.3102 -0.2404
24673W        W24873   0.642  12.431   6.827  0.0432  0.0969 -0.1214
24674W        W24874  10.067  10.970   8.694 -0.2758 -0.0839 -0.0731
24675W        W24875   3.458  13.153   8.613 -0.0343 -0.1935 -0.0668
24676W        W24876  10.921  14.956   8.732 -0.0341 -0.0191 -0.1318
24677W        W24877   7.368  15.186   8.329  0.2391 -0.0055  0.2607
24678W        W24878  13.535   7.154   2.290  0.2005  0.0562 -0.0810
24679W        W24879   9.189   8.449   1.552 -0.4798  0.0605 -0.0774
24680W        W24880   3.325   0.971  11.018 -0.2418 -0.2221  0.2977
24681W        W24881  10.018   9.806   1.858  0.1214 -0.1511 -0.0231
24682W        W24882   9.354   9.913  14.206 -0.2754  0.2035 -0.0412
24683W        W24883  11.160  13.566   4.568 -0.1560 -0.1758 -0.1035
24684W        W24884  11.790  10.484   5.771 -0.0146  0.2374  0.1829
24685W        W24885   9.838   4.888  14.759 -0.0649  0.2304 -0.1559
24686W        W24886  13.673  12.953   1.455 -0.2582 -0.1840 -0.4790
24687W        W24887  11.109   7.955   3.465  0.0806 -0.2323  0.0853
24688W        W24888  10.724   2.964  12.285  0.1229  0.0493 -0.1507
24689W        W24889  10.798  10.653  11.608  0.2544  0.1567 -0.0871
24690W        W24890   9.301   0.461   8.251  0.1900 -0.1206 -0.2343
24691W        W24891   0.295   8.518   8.487  0.0153  0.3370  0.0273
24692W        W24892   7.543   1.390  13.315  0.1343  0.1806  0.1919
24693W        W24893  10.326   4.431   0.855 -0.3370  0.2436  0.2248
24694W        W24894   8.692  11.333   1.905 -0.0923 -0.2472  0.0223
24695W        W24895  12.038   1.146  14.220 -0.0084 -0.0819  0.0486
24696W        W24896  13.454  10.556   3.815  0.2888  0.1449  0.1338
24697W        W24897  13.468  11.439  10.345 -0.0131  0.0752 -0.2299
24698W        W24898   8.821   3.021   9.651  0.1065 -0.2499 -0.1399
24699W        W24899   1.806  11.026  13.391 -0.5108 -0.2354 -0.0010
24700W        W24900  10.691  11.411   9.289  0.3034  0.2476  0.0238
24701W        W24901   3.667  12.052   5.361  0.2261  0.0639 -0.0616
24702W        W24902   5.555   1.337   4.786 -0.1337  0.0657 -0.1818
24703W        W24903  15.118   9.306  12.997  0.2726 -0.0125 -0.0976
24704W        W24904  13.259  10.887   8.406 -0.1568 -0.4697 -0.0647
24705W        W24905  14.313   1.640   7.695 -0.0021  0.1819  0.1089
24706W        W24906  14.669   5.014   6.561 -0.0847  0.1795 -0.1168
24707W        W24907  12.585   6.790   9.832  0.1434 -0.2086 -0.2483
24708W        W24908  12.792  11.122   5.939 -0.1158 -0.0691 -0.0141
24709W        W24909   1.976   0.987   6.427 -0.3037 -0.3290 -0.0983
24710W        W24910  10.915   7.985   3.898  0.2081 -0.3499  0.0763
24711W        W24911   8.325   1.380   3.158  0.0311  0.0854  0.0455
24712W        W24912   3.345   7.680   4.902  0.2666 -0.0174 -0.0351
24713W        W24913   9.228  11.550  10.843  0.2239 -0.0697  0.1929
24714W        W24914  13.623  11.775   0.917 -0.0218 -0.0448  0.0811
24715W        W24915   7.648   6.725   1.103  0.1821  0.2955 -0.1546
24716W        W24916  10.065   0.663  12.028 -0.0618  0.0499  0.3354
24717W        W24917   9.171  12.927   8.561 -0.0083 -0.0224 -0.0015
24718W        W24918  12.060   6.515   0.009  0.0921 -0.0238  0.2324
24719W        W24919   1.526   5.135  12.044  0.0270  0.2028 -0.1776
24720W        W24920  10.573  10.844   9.304 -0.2174 -0.4138  0.0177
24721W        W24921   4.167   3.830   3.074 -0.0576 -0.2571 -0.1434
24722W        W24922   8.138   3.238   0.070  0.0645  0.3180  0.0718
24723W        W24923  14.002   5.289   0.530 -0.0703 -0.4332  0.0740
24724W        W24924  12.438   9.470   5.693  0.2695 -0.0446  0.2342
24725W        W24925  14.245   5.930  14.743 -0.3813  0.1784 -0.0629
24726W        W24926   7.909  13.624  10.429  0.1331  0.1843 -0.0254
24727W        W24927  10.548  14.488   3.809  0.1417  0.0364  0.1627
24728W        W24928  11.176  11.490   2.208 -0.0969 -0.1054 -0.1852
24729W        W24929   9.048   4.477   7.245  0.2612 -0.1179  0.0301
24730W        W24930   6.314  12.326  10.689  0.2295  0.0529 -0.1698
24731W        W24931  10.201   3.810   0.731 -0.2817 -0.5475  0.2404
24732W        W24932  10.199  11.905   9.898  0.2082 -0.1798  0.0162
24733W        W24933  12.660  13.849   5.363  0.1614 -0.2207 -0.0140
24734W        W24934  15.093  13.324   9.102  0.1369  0.1458  0.2989
24735W        W24935  11.219   1.355   6.494 -0.0420 -0.1287 -0.0707
24736W        W24936  13.441   5.630   7.147 -0.0946 -0.1780  0.0527
24737W        W24937  13.019   7.623   9.371 -0.0336 -0.1566  0.3133
24738W        W24938  15.099  11.492  14.960 -0.0514  0.1181 -0.1992
24739W        W24939  13.888   8.101   4.519 -0.0294 -0.0489  0.1037
24740W        W24940   4.006   9.886  13.673 -0.0354 -0.1087  0.3554
24741W        W24941   1.762   4.166   7.098  0.0407  0.1034 -0.1355
24742W        W24942  14.751   1.639  12.823  0.0524 -0.0420 -0.1948
24743W        W24943  11.884   4.595   2.554 -0.0784 -0.2398 -0.1506
24744W        W24944  14.470   4.000   7.037 -0.1051  0.2760  0.0354
24745W        W24945   2.511  12.872   6.686  0.2918  0.2350 -0.0180
24746W        W24946   3.315   3.875   9.592 -0.0904 -0.0523  0.0785
24747W        W24947  14.518   8.366   6.756 -0.1825 -0.0018 -0.1491
24748W        W24948  13.092   7.844  13.652  0.0832 -0.0989  0.2333
24749W        W24949  14.263   1.014   9.948  0.0282 -0.0213  0.0001
24750W        W24950   0.631  12.725   0.746 -0.1530  0.0101 -0.0521
24751W        W24951   0.562  11.379   2.877 -0.2073  0.2356  0.0262
24752W        W24952   9.659   9.326   8.377  0.0722  0.3419 -0.2151
24753W        W24953   3.937   8.393   2.493 -0.0896  0.2608  0.0215
24754W        W24954  11.484  13.282  12.235 -0.0618  0.1118 -0.2928
24755W        W24955   7.812  12.016   7.041  0.0534  0.2383  0.0587
24756W        W24956  12.938  14.627   9.768  0.1510  0.0366 -0.2693
24757W        W24957   1.593   5.859   9.996  0.2904 -0.1048  0.2127
24758W        W24958  13.466  12.450   7.386 -0.1087 -0.4109 -0.1105
24759W        W24959  12.479   9.702   4.259  0.1229  0.3966 -0.0518
24760W        W24960  14.906   6.030  14.087  0.1618 -0.0063  0.2723
24761W        W24961  11.192   2.675   6.768 -0.0177 -0.1024 -0.0252
24762W        W24962   4.052   4.642   6.201 -0.3915 -0.0372 -0.1185
24763W        W24963   2.985   8.367   2.788 -0.3580 -0.0653 -0.2196
24764W        W24964  13.537   5.826   2.619  0.1092 -0.1829 -0.1341
24765W        W24965   0.526   6.435   1.547  0.0661 -0.1111  0.1219
24766W        W24966   4.808   3.749   7.221  0.0948 -0.1812 -0.2238
24767W        W24967   3.633   0.260   0.518  0.0866  0.2666  0.3617
24768W        W24968   5.423   2.469   4.692 -0.1241 -0.1609 -0.3977
24769W        W24969   8.895   7.127  11.134  0.2354 -0.1055  0.1498
24770W        W24970  10.491   8.393  12.560  0.0970 -0.1195 -0.2111
24771W        W24971   0.956  12.055   1.936  0.2888 -0.3920 -0.0246
24772W        W24972  11.622  12.580  10.331 -0.1580  0.1199  0.0043
24773W        W24973   0.300  12.987   6.330 -0.1245 -0.1738  0.1532
24774W        W24974  12.712   8.042  11.421  0.0774  0.0574  0.0830
24775W        W24975  14.362   3.244  13.854 -0.0260  0.0893  0.0984
24776W        W24976   9.348   3.870   6.887  0.2860 -0.4158  0.0206
24777W        W24977  10.128   9.310  12.809  0.3042  0.1709  0.1125
24778W        W24978   8.560   9.584   5.265  0.1477  0.0095  0.0036
24779W        W24979  14.259   4.391   5.038  0.1837  0.1563 -0.1683
24780W        W24980  12.972   7.089   7.557  0.0040 -0.0223  0.2027
24781W        W24981   4.339   6.624   9.041 -0.0756 -0.1843  0.2800
24782W        W24982  10.575  12.310   4.244  0.2030 -0.3579 -0.0564
24783W        W24983   8.530   7.683   2.802  0.0080  0.0362  0.1278
24784W        W24984   2.126   8.181  14.723 -0.1463 -0.4269  0.1909
24785W        W24985  10.854   7.938  11.883  0.2158  0.0496 -0.1790
24786W        W24986  10.358  12.250   6.863 -0.0675  0.0789  0.0936
24787W        W24987  13.215   5.805   1.078  0.1005  0.0820 -0.0869
24788W        W24988   9.405   4.775   4.377 -0.0471  0.0789  0.0248
24789W        W24989  13.028  11.875   8.531 -0.0911  0.0990  0.0328
24790W        W24990   7.059  12.820   0.222 -0.0342  0.1726 -0.1393
24791W        W24991  13.692  11.920   6.392 -0.2176 -0.1535 -0.2232
24792W        W24992   5.281   6.928  13.762 -0.3476  0.1729 -0.3680
24793W        W24993   8.992   5.734  12.182  0.2244 -0.0201 -0.0474
24794W        W24994   9.419   1.651   4.489 -0.1082 -0.0112 -0.0431
24795W        W24995  10.776  11.388   1.077 -0.2931  0.1066 -0.3197
24796W        W24996   6.447  13.064   6.759 -0.0944  0.1855 -0.1679
24797W        W24997   9.977   7.162  12.824  0.1127 -0.0442  0.2147
24798W        W24998  13.009   9.983   2.173  0.3975 -0.3051  0.0342
24799W        W24999  11.767  11.572   4.719  0.0415 -0.0592 -0.3466
24800W        W25000   7.946   9.606   6.686 -0.2576 -0.3310  0.0458
24801W        W25001  13.278  12.073   1.051 -0.2912  0.1028 -0.1255
24802W        W25002  14.259   5.556  11.143  0.0560 -0.0916 -0.0430
24803W        W25003  12.538   9.803   4.751  0.2907 -0.1140 -0.3339
24804W        W25004   3.329   7.183   3.334  0.3672 -0.0866 -0.0553
24805W        W25005   8.996   8.953  14.955 -0.2882  0.1244 -0.1801
24806W        W25006   6.479  13.960   9.660 -0.1953 -0.2587  0.0412
24807W        W25007  11.441  14.768  14.133 -0.0821  0.0966  0.2416
24808W        W25008   9.924  10.013   0.815 -0.1187 -0.2388  0.0478
24809W        W25009   6.437   7.193   5.438  0.4240 -0.0296 -0.1244
24810W        W25010   7.142   7.042   6.559  0.1620 -0.4078 -0.4181
24811W        W25011  10.157   2.086  10.811 -0.0922 -0.0111  0.0159
24812W        W25012   9.891   2.459  10.547  0.0894 -0.3877 -0.1582
24813W        W25013  12.608  13.978  13.108  0.1758 -0.1983 -0.4665
24814W        W25014   1.007   0.364  13.937 -0.1831  0.0321 -0.0800
24815W        W25015   6.228   5.118  11.880 -0.0115 -0.2020 -0.1850
24816W        W25016   3.809   6.782   5.652 -0.1076 -0.2266  0.0131
24817W        W25017   1.099  13.319   5.833  0.3344  0.1096 -0.1184
24818W        W25018  12.621  12.592   5.706 -0.2228  0.0466 -0.3017
24819W        W25019   4.498  12.613   1.455 -0.0858 -0.1134 -0.0205
24820W        W25020  13.985  11.123   7.095  0.1347 -0.2789  0.3236
24821W        W25021  12.632  14.188   2.055  0.0045  0.4269 -0.1765
24822W        W25022   4.056  10.187   2.409  0.0606 -0.1040 -0.3675
24823W        W25023   4.357   2.319   8.412  0.1176  0.1437  0.2514
24824W        W25024  12.601   7.003  13.072  0.0776 -0.1969 -0.2479
24825W        W25025   3.715   5.480   3.147  0.0497  0.1501 -0.0991
24826W        W25026   0.800   7.586  14.876  0.0151 -0.0348 -0.0898
24827W        W25027  15.052   8.132   3.199 -0.1991 -0.0609  0.1742
24828W        W25028  13.792   3.572   3.537  0.2416  0.0678 -0.1274
24829W        W25029   6.497   8.072   8.176  0.1002  0.3236 -0.3775
24830W        W25030  14.532  10.808  11.068 -0.2336  0.0712 -0.0556
24831W        W25031  14.128  11.619  11.811 -0.0284  0.0868 -0.0381
24832W        W25032   9.053   4.791  13.617 -0.0429  0.2789 -0.0273
24833W        W25033   9.326   9.005  13.983  0.3064  0.0722 -0.0564
24834W        W25034   1.320  11.050   4.658 -0.3711 -0.1850  0.0534
24835W        W25035   9.143  12.345   6.435 -0.3391  0.2081  0.1408
24836W        W25036  13.624   1.564   7.024  0.0332  0.1895 -0.0086
24837W        W25037   2.999   7.108   4.272  0.2317 -0.1348  0.0009
24838W        W25038  11.229   5.143  10.404  0.2178  0.3668 -0.0237
24839W        W25039   7.876   0.601   9.002  0.0235  0.0222 -0.3296
24840W        W25040  10.496   9.032   1.703 -0.1059  0.3837  0.1563
24841W        W25041  12.580  10.010  14.672  0.3026  0.0901 -0.3021
24842W        W25042  11.238   1.420   0.020 -0.0379 -0.4211  0.0325
24843W        W25043   5.007  12.934  14.808  0.0631  0.0918 -0.2403
24844W        W25044  12.635  13.761  14.391  0.3210  0.1278 -0.3052
24845W        W25045   9.084  10.876   0.591 -0.1085 -0.1760 -0.1200
24846W        W25046  12.992  12.596   7.641  0.1150  0.1409  0.1306
24847W        W25047  13.539  10.118   3.026 -0.1338  0.3045  0.0612
24848W        W25048  14.842  12.961   5.552 -0.3254  0.2370 -0.0089
24849W        W25049  14.688   8.631   5.686  0.1364 -0.1981 -0.1525
24850W        W25050  10.178   0.663   9.337 -0.1894 -0.0716  0.0677
24851W        W25051   9.339  12.248   2.658 -0.2163 -0.0606 -0.0969
24852W        W25052   4.709   8.247  12.736  0.2614  0.2326  0.1653
24853W        W25053   6.034  12.018   6.405  0.0017  0.0066 -0.0673
24854W        W25054  13.437   8.001   4.239 -0.2272 -0.2418 -0.0145
24855W        W25055   4.028   1.661   8.968 -0.0581  0.0862  0.0421
24856W        W25056  10.100  14.681   7.004 -0.0794  0.0514 -0.0334
24857W        W25057  11.456   5.712   8.183  0.0330  0.0303 -0.0863
24858W        W25058   4.479   7.306   8.587  0.0338 -0.0402  0.0380
24859W        W25059   0.170   7.411   7.923 -0.1131  0.0084  0.1626
24860W        W25060  10.299   7.648  10.144 -0.1823 -0.0702 -0.1488
24861W        W25061  11.582  13.469   8.142  0.1872 -0.2139 -0.2201
24862W        W25062  12.917  15.182  10.947  0.2673  0.2513  0.0010
24863W        W25063  12.649   8.409   5.460  0.0318  0.0256 -0.1337
24864W        W25064   4.768   1.164   0.044 -0.1699 -0.3925 -0.0124
24865W        W25065   6.163  10.284   8.822  0.0299 -0.1481 -0.0699
24866W        W25066   7.102  13.074   8.722  0.0108 -0.0419  0.0642
24867W        W25067   7.934   1.387  14.827  0.5836 -0.0025 -0.0759
24868W        W25068   7.016   5.486  11.500 -0.0794  0.0640  0.1945
24869W        W25069  10.277  13.231   7.310  0.1315  0.0297  0.0482
24870W        W25070   1.826  13.513   3.535  0.1067  0.0882 -0.1917
24871W        W25071  13.672   7.974  11.564 -0.1053  0.1149  0.2115
24872W        W25072  14.705   6.071  14.527 -0.4028 -0.1515  0.0022
24873W        W25073  13.297  13.284   4.466  0.0727 -0.0803 -0.0376
24874W        W25074   9.153   1.055  12.344 -0.0646  0.3211 -0.0838
24875W        W25075  11.094   8.810   7.407 -0.0638  0.0739 -0.0720
24876W        W25076   4.147   2.409   1.119  0.2962  0.0628  0.0832
24877W        W25077   5.668  12.709   8.776 -0.3312 -0.2446 -0.0019
24878W        W25078   0.436  11.697  10.036 -0.2080  0.0536 -0.2045
24879W        W25079  11.067  14.800   8.278  0.0884  0.0160  0.0978
24880W        W25080   9.072  11.812   1.501 -0.1964  0.2978 -0.2151
24881W        W25081   0.391   6.160   1.126  0.3003  0.2792  0.0011
24882W        W25082  12.138  10.758  14.916 -0.2789  0.0014 -0.0362
24883W        W25083   5.967  10.182  10.952 -0.0631  0.0804 -0.1119
24884W        W25084  14.226   8.712   8.230  0.0171  0.2441 -0.0965
24885W        W25085  12.075   3.699   8.483  0.2658  0.3515 -0.2142
24886W        W25086   8.075   9.333  10.213  0.1650 -0.2145  0.0108
24887W        W25087   6.486  11.985   9.055  0.1156  0.0797 -0.0632
24888W        W25088   2.390   3.492   3.294 -0.2329 -0.1491 -0.0161
24889W        W25089  14.109   4.832   6.868  0.1549  0.0672 -0.1644
24890W        W25090   9.256   8.931   5.956  0.0420  0.1325  0.0891
24891W        W25091  11.817   3.450   3.514 -0.1065 -0.1609 -0.0493
24892W        W25092   8.644   9.215  11.396  0.3625 -0.1880 -0.0237
24893W        W25093   8.950  11.284   7.974  0.2985 -0.1419  0.1618
24894W        W25094   8.287   3.668   7.573 -0.2829  0.1118  0.0509
24895W        W25095  10.376  11.962   2.530  0.1630 -0.3087 -0.0780
24896W        W25096  14.426   8.966   8.790  0.4069  0.0826  0.0151
24897W        W25097  15.081   7.477  14.029 -0.2834  0.1493 -0.2534
24898W        W25098  14.410   7.918   4.410  0.0504 -0.1502 -0.1524
24899W        W25099  11.487  11.508  13.961 -0.2734  0.2007  0.0149
24900W        W25100   9.773   2.200   5.328  0.2194 -0.0684  0.3148
24901W        W25101   1.165   9.109   9.881 -0.2039 -0.1197  0.0045
24902W        W25102   2.874   8.142   9.606  0.1250 -0.0136  0.2008
24903W        W25103   6.460   1.382   3.770  0.0663 -0.0246 -0.1730
24904W        W25104   8.395   5.115   8.754  0.0343 -0.0688  0.0333
24905W        W25105  13.807  14.506   4.162 -0.2660  0.0183  0.0494
24906W        W25106   4.497   8.046   3.912  0.0079 -0.1637 -0.1496
24907W        W25107  10.820   3.025   3.326  0.0204  0.2337 -0.1275
24908W        W25108  10.045  10.815   1.685 -0.0216  0.0667 -0.2138
24909W        W25109   8.271   1.678  14.507  0.0273 -0.3138  0.1367
24910W        W25110   0.362   0.758   1.073 -0.0504 -0.2419 -0.0803
24911W        W25111  12.274   4.591   4.540  0.2058  0.3648 -0.1011
24912W        W25112   9.357  10.278  10.798 -0.0125 -0.2683  0.3568
24913W        W25113   1.019   0.364   2.266  0.1002  0.2119  0.2009
24914W        W25114   2.894   9.884   7.605 -0.3598 -0.0135 -0.0661
24915W        W25115   9.819   4.096  11.525  0.0663 -0.1696 -0.2859
24916W        W25116   2.539   9.885  15.088 -0.2038  0.0885 -0.1684
24917W        W25117   0.258   6.868   5.104  0.0613  0.0050  0.2190
24918W        W25118  13.914  12.174   9.411 -0.3850  0.1377 -0.0787
24919W        W25119  14.903   8.037   6.717 -0.0103  0.2914  0.2391
24920W        W25120   1.492  13.089   3.644 -0.1642 -0.0079  0.1989
24921W        W25121   1.556   4.583   9.542  0.0249  0.2056  0.2680
24922W        W25122   3.823   5.296   2.540  0.0316 -0.0575  0.1316
24923W        W25123  12.972   7.873  10.314 -0.2750 -0.0196  0.1545
24924W        W25124   9.277   4.829   5.373  0.1494 -0.0204 -0.0347
24925W        W25125  10.853  13.171  11.492  0.1310  0.0245  0.2728
24926W        W25126   8.924  14.400   5.923  0.3285 -0.1027 -0.0836
24927W        W25127  12.641   1.044   0.851 -0.2527 -0.0221 -0.0800
24928W        W25128  10.261  14.834   7.581 -0.1674 -0.4389  0.0876
24929W        W25129   5.114   9.866   4.326 -0.1719  0.0434 -0.1455
24930W        W25130  13.568   6.764  14.561 -0.0109  0.0882  0.0575
24931W        W25131  14.123   6.494  10.007  0.1104  0.0038 -0.2779
24932W        W25132  12.767   7.079  10.905  0.2034 -0.1567  0.1762
24933W        W25133   0.458   3.763   8.826 -0.0508  0.0064  0.2557
24934W        W25134   8.362   6.902   0.745 -0.0572  0.1575 -0.0794
24935W        W25135  14.875   1.652   8.360 -0.2481  0.2941 -0.1303
24936W        W25136  11.001   9.409  14.322 -0.0632  0.1745 -0.1416
24937W        W25137   2.782  12.538   6.421 -0.3472 -0.1615 -0.2680
24938W        W25138   3.547   2.059  11.989 -0.1694 -0.0372  0.2130
24939W        W25139   6.626   6.630  14.307 -0.2030  0.2396 -0.0553
24940W        W25140  14.821   8.425  10.290 -0.1499  0.1817  0.1087
24941W        W25141   2.474   5.027  14.282 -0.0984  0.1225 -0.1765
24942W        W25142   9.028   5.541  11.006  0.0850  0.0275 -0.2581
24943W        W25143   5.225   9.238   3.597 -0.2086 -0.1330  0.2605
24944W        W25144  13.437   6.253  12.788  0.4368  0.0886 -0.1079
24945W        W25145  10.656   9.673   4.595 -0.2840  0.1325 -0.0604
24946W        W25146  14.916   5.947  12.401  0.1305 -0.2214  0.0587
24947W        W25147   5.440  13.498   7.670  0.2010  0.2473 -0.4660
24948W        W25148   7.878   6.753   0.357  0.2352  0.0920 -0.3076
24949W        W25149  10.899   0.299   4.525  0.1538 -0.0418  0.1381
24950W        W25150   1.663  14.139   3.217 -0.1316  0.1106  0.0827
24951W        W25151   3.220   2.060   2.150 -0.3379  0.2915  0.1517
24952W        W25152   0.416   8.697  10.506  0.2267  0.2014  0.1170
24953W        W25153  12.835   9.588  12.715 -0.0892 -0.0385 -0.2443
24954W        W25154  13.401   0.925   2.511  0.1788 -0.2245  0.1949
24955W        W25155   2.440  13.289  12.585  0.0666  0.0417  0.3027
24956W        W25156   4.039   2.046   5.667 -0.2687 -0.0069  0.1954
24957W        W25157  11.003   6.448   5.741 -0.1616 -0.1040  0.1350
24958W        W25158   5.353   1.661   8.087 -0.0926  0.0563  0.1241
24959W        W25159  13.188   9.640   5.847 -0.2450  0.1518  0.3171
24960W        W25160  10.204  10.861   0.874  0.1685 -0.1537 -0.1064
24961W        W25161   3.024  10.620  12.173  0.1944 -0.2834  0.1799
24962W        W25162  10.199   9.025   4.723 -0.1472 -0.0195  0.0208
24963W        W25163   1.074   4.881   4.148  0.0325 -0.1216 -0.1410
24964W        W25164   8.028   8.472   5.948 -0.2165 -0.2314 -0.0541
24965W        W25165   2.788  13.557   5.598  0.0827  0.0204 -0.0572
24966W        W25166   7.548  11.730   6.448  0.0598  0.0231 -0.0444
24967W        W25167  11.899   2.179  10.005  0.1885  0.1549 -0.0576
24968W        W25168   1.479   9.972  10.874  0.1048  0.0446  0.2662
24969W        W25169   0.672  11.710   5.064 -0.0007 -0.1103 -0.2281
24970W        W25170   9.182   7.320  11.464 -0.1562  0.2052  0.0314
24971W        W25171  14.246  13.543   6.075  0.2518 -0.0352  0.1514
24972W        W25172   3.217  11.089   1.046  0.0541  0.0856 -0.0586
24973W        W25173   9.664   6.842  13.890  0.0167 -0.0876 -0.0111
24974W        W25174  11.985   8.823   1.230 -0.0657 -0.1261  0.0106
24975W        W25175   0.993  12.354  10.351  0.1758  0.2147  0.1454
24976W        W25176  12.199  12.362   4.671 -0.1439 -0.0329 -0.1828
24977W        W25177  11.172  13.205  10.670  0.0523 -0.0869  0.2582
24978W        W25178   4.329  12.324   5.387 -0.1996 -0.2723  0.3611
24979W        W25179  11.458   8.623  14.966  0.1948 -0.2696 -0.0434
24980W        W25180   6.186   7.495  10.170  0.0526  0.1632  0.2749
24981W        W25181   8.617   5.757   7.674  0.2882 -0.0825 -0.0739
24982W        W25182  13.130   3.581   1.896  0.0611 -0.0109  0.3033
24983W        W25183  13.219  14.896   0.349  0.3676  0.2298 -0.1210
24984W        W25184  11.036  13.399  12.013 -0.0090  0.2118 -0.0944
24985W        W25185   0.800   5.311   7.376 -0.2522  0.0175  0.1732
24986W        W25186   4.339   6.245   7.300 -0.3775 -0.0455 -0.1724
24987W        W25187  13.951  11.802   5.927 -0.2196 -0.1357 -0.3366
24988W        W25188   5.871  13.141   4.428 -0.0973  0.3754  0.2469
24989W        W25189  11.821   4.611   5.763 -0.1276 -0.0988 -0.0812
24990W        W25190   3.981  10.631   7.563 -0.2111  0.1805 -0.0384
24991W        W25191  11.526   5.144   6.340  0.1569 -0.3492 -0.0848
24992W        W25192   1.016  13.040   4.631 -0.0557  0.1648 -0.2707
24993W        W25193  11.910   5.439   6.310 -0.2185  0.0617 -0.0984
24994W        W25194  10.263  11.674  11.899 -0.2161 -0.1047 -0.4197
24995W        W25195  13.489  12.234   3.853  0.3997 -0.1401 -0.0107
24996W        W25196   6.353  11.380   8.360 -0.0324  0.3590 -0.0272
24997W        W25197  12.837  11.560   0.133 -0.0171  0.1672 -0.1746
24998W        W25198   4.338  11.788   2.824 -0.0641 -0.0330 -0.2584
24999W        W25199  11.214   9.370   1.398 -0.4808 -0.0501 -0.1614
25000W        W25200   8.283   9.119   5.222 -0.0970 -0.0008  0.1720
25001W        W25201   9.483  12.596  12.625 -0.3251  0.0481 -0.2845
25002W        W25202   9.812   6.798   1.779 -0.0960  0.1400  0.1128
25003W        W25203  13.110   5.976  12.480 -0.2345  0.4035 -0.1571
25004W        W25204   7.063   0.763   7.970 -0.0304 -0.0644  0.2871
25005W        W25205   7.511   1.393   5.628  0.3105  0.1635 -0.4027
25006W        W25206  13.294   3.739  12.794 -0.4793  0.2096  0.0594
25007W        W25207  12.579   8.056   4.908 -0.0802  0.2686  0.1764
25008W        W25208  14.050   2.835   5.692 -0.2814 -0.0825  0.1978
25009W        W25209  11.817   0.919  13.148 -0.2445 -0.2070  0.0398
25010W        W25210   8.712   6.469  14.796  0.1379  0.4153  0.1701
25011W        W25211  11.819   8.101   8.121 -0.2236 -0.1415 -0.1285
25012W        W25212   2.075  12.085   8.402  0.0150 -0.2878 -0.1655
25013W        W25213   8.193   1.352  10.783  0.1916  0.0804 -0.0743
25014W        W25214  11.764  10.265   1.645 -0.0044 -0.2411 -0.0857
25015W        W25215  14.063  11.013  11.815  0.4199 -0.1502  0.1995
25016W        W25216   4.401  10.901  11.104  0.0362 -0.0622  0.1150
25017W        W25217   5.085   0.830  15.046 -0.1274  0.0657 -0.1128
25018W        W25218   6.503   6.376   3.312 -0.5474 -0.2042 -0.1908
25019W        W25219   0.304   6.590  11.405 -0.1049  0.3512  0.2627
25020W        W25220   3.664   9.694   8.357  0.0759 -0.1719 -0.0894
25021W        W25221  13.757   0.939   7.458  0.3877 -0.1601 -0.0342
25022W        W25222  11.683   1.626  10.981  0.1899  0.0191 -0.0870
25023W        W25223  13.516  12.659   1.879 -0.3996 -0.0598 -0.1697
25024W        W25224  12.181   2.297  12.672 -0.1845  0.0667 -0.0658
25025W        W25225   7.441  15.041  14.981  0.3602  0.4691  0.0036
25026W        W25226   9.234   8.128   3.754  0.0301  0.0702 -0.3219
25027W        W25227   8.732   1.264  13.029  0.1410  0.0305 -0.1375
25028W        W25228  11.130  12.087   6.213  0.2810  0.0558 -0.0811
25029W        W25229   2.277  10.655  10.059 -0.1559  0.0332  0.3572
25030W        W25230   3.562   0.522  12.533 -0.1450 -0.0506 -0.0804
25031W        W25231  11.760   7.745   5.946 -0.0688  0.3696  0.3209
25032W        W25232   5.013  11.978  14.627 -0.0545 -0.3295 -0.0747
25033W        W25233   0.972   8.812  12.353  0.0758  0.0460  0.0966
25034W        W25234   2.891  11.249   6.442 -0.2565 -0.3088 -0.0847
25035W        W25235   4.539  10.909  12.952 -0.0542  0.0138 -0.0849
25036W        W25236  11.340  11.872   9.269  0.0841  0.0101  0.1332
25037W        W25237   2.709   6.593  11.213  0.2487 -0.1080  0.0761
25038W        W25238  12.566   7.878  10.635 -0.1580 -0.3088  0.0021
25039W        W25239  11.290   8.418  11.343  0.1294 -0.2662 -0.0373
25040W        W25240   0.302   3.763  12.555 -0.0998 -0.2384  0.0072
25041W        W25241  14.221   9.098   7.838  0.0731  0.0374 -0.1004
25042W        W25242   0.217  12.168   2.955  0.0932 -0.3033 -0.0376
25043W        W25243   9.672  11.982   7.807  0.1534 -0.0222  0.1014
25044W        W25244   4.925   6.826   1.751 -0.0196  0.2148 -0.0637
25045W        W25245   9.842  11.806   8.326 -0.0514 -0.0732  0.2040
25046W        W25246  10.225  11.692  10.562 -0.0986 -0.0424  0.1640
25047W        W25247   4.704   7.182   9.839  0.1008  0.0359  0.2348
25048W        W25248  13.931  10.647  14.508  0.1593 -0.0441 -0.2773
25049W        W25249   1.949  11.996  14.849  0.2749 -0.0038  0.0366
25050W        W25250   7.126   5.413   7.842  0.0231  0.0885 -0.1733
25051W        W25251  12.061  12.155   8.887 -0.0031  0.1953 -0.2151
25052W        W25252  11.914   7.320   1.574  0.3642  0.0433 -0.0515
25053W        W25253   6.216   5.167   9.898  0.2988  0.0501  0.0359
25054W        W25254   1.722   9.409   8.738  0.0781 -0.0540 -0.0443
25055W        W25255  13.721   0.281  14.420  0.3632 -0.0623  0.3033
25056W        W25256  10.755   3.410   8.224  0.0971 -0.0905  0.0871
25057W        W25257  13.066   7.850   8.879 -0.2337  0.0874 -0.0056
25058W        W25258   9.118   9.759  10.010 -0.2480 -0.1821 -0.0752
25059W        W25259  12.429  13.444   3.989  0.0297 -0.0187  0.1187
25060W        W25260   4.499   9.645  11.270  0.2405  0.3120  0.0846
25061W        W25261  14.238  12.213  11.981  0.1843  0.1671 -0.1554
25062W        W25262   8.936  11.030  14.849 -0.3543  0.0121 -0.0989
25063W        W25263   9.944   0.071   7.282 -0.3056 -0.1620 -0.1036
25064W        W25264  11.536   5.448   8.734  0.1648 -0.0716  0.0258
25065W        W25265   6.422   2.687  11.431  0.0276 -0.0132 -0.0013
25066W        W25266   6.775   7.405   0.164  0.1521 -0.1268 -0.0246
25067W        W25267   8.651  11.463  11.822  0.0088 -0.3436 -0.4093
25068W        W25268   6.457   9.815   7.758 -0.0391  0.2776  0.1011
25069W        W25269   0.857  14.181   3.689  0.2458 -0.3207 -0.0841
25070W        W25270  10.126  13.236   6.029  0.0519 -0.0266 -0.2014
25071W        W25271  14.690  12.436   8.708  0.1788 -0.2260 -0.2032
25072W        W25272   1.740  11.644   6.451 -0.0264  0.1121 -0.1291
25073W        W25273  14.967  10.169  11.197 -0.1041  0.2907 -0.1291
25074W        W25274  12.475   8.266  11.050  0.0950  0.0110  0.2202
25075W        W25275   6.222   4.358   6.118 -0.3540  0.0407 -0.2167
25076W        W25276   9.165   8.061   2.306  0.1492 -0.1790 -0.2153
25077W        W25277   9.663  11.920   9.538 -0.0488 -0.1101  0.0553
25078W        W25278  14.077  12.551   3.585  0.0030  0.3660 -0.2548
25079W        W25279   5.523  13.511  13.650  0.1573  0.3432 -0.1846
25080W        W25280  10.563   4.499   9.926  0.0311  0.1811 -0.5221
25081W        W25281  10.757   2.439   7.464  0.0498  0.1007  0.0160
25082W        W25282  13.213   4.386   7.399  0.3261 -0.3231 -0.2247
25083W        W25283  12.087   3.981  11.908 -0.0387  0.0261 -0.0559
25084W        W25284  13.521  14.335  12.711  0.0928  0.3858 -0.1646
25085W        W25285  11.407   1.197   0.458  0.3380  0.1684  0.2247
25086W        W25286   2.217   2.132   8.596 -0.2478 -0.2306 -0.2705
25087W        W25287   9.023   7.544   5.723  0.0107 -0.0583 -0.0358
25088W        W25288  14.716  15.015  10.470  0.1242  0.0367 -0.0109
25089W        W25289  10.198  12.046   6.409 -0.0267  0.2443  0.0879
25090W        W25290  12.227  12.183   8.003 -0.2119  0.0947  0.0733
25091W        W25291   8.962   7.598   5.221 -0.0993 -0.0602 -0.1537
25092W        W25292   9.968   7.934   4.715 -0.1947 -0.3403 -0.1729
25093W        W25293   8.363   2.695   7.903 -0.1230 -0.0385 -0.1013
25094W        W25294   9.789   9.062   0.967 -0.2413 -0.1271 -0.2563
25095W        W25295   3.077   9.283   3.070 -0.0257 -0.0691  0.0014
25096W        W25296  14.682  11.888   8.837 -0.0863  0.0500 -0.2422
25097W        W25297   4.103   9.973  11.264 -0.1168 -0.0435  0.3155
25098W        W25298   2.738  11.976   8.583 -0.0972 -0.0179 -0.3378
25099W        W25299  14.915  10.022   5.456 -0.2393 -0.0684  0.1792
25100W        W25300   3.354   0.672  13.760  0.2936 -0.0618 -0.0672
25101W        W25301  11.231  11.518   9.968 -0.3649 -0.2182 -0.1477
25102W        W25302   0.076  11.908   6.347  0.0295  0.0376 -0.1814
25103W        W25303   6.112  10.141   6.913 -0.1262  0.0234  0.0338
25104W        W25304   1.080   6.145  11.973  0.3045 -0.3320 -0.1047
25105W        W25305  11.920   1.422   2.253  0.2878 -0.0185  0.0266
25106W        W25306   9.807  14.116   9.076  0.0683 -0.0684 -0.0183
25107W        W25307   5.302  12.197   8.157  0.2138  0.0893  0.2551
25108W        W25308  10.839  11.426  15.194  0.1206  0.1041  0.0659
25109W        W25309  14.666   7.300  10.640 -0.2288  0.0570 -0.0544
25110W        W25310  12.782  13.663  14.942 -0.0606 -0.0314  0.0012
25111W        W25311   8.589   9.859  12.491  0.2701  0.1534  0.5372
25112W        W25312   1.141   7.456  12.756 -0.1279  0.2019 -0.0952
25113W        W25313  11.482   9.780   4.506  0.0572  0.1525  0.1352
25114W        W25314   0.105  14.607  12.036  0.0962 -0.2010 -0.1854
25115W        W25315   0.479  14.301  11.728  0.3457 -0.2073 -0.1326
25116W        W25316  10.967   9.181   0.889 -0.1036 -0.2943 -0.1257
25117W        W25317   2.396  10.424   6.328  0.2278 -0.0724 -0.1484
25118W        W25318  12.158  10.062   1.934 -0.2560 -0.2885 -0.1446
25119W        W25319   4.206  12.741  13.188 -0.0271  0.3138 -0.3949
25120W        W25320   2.314  12.274  12.338 -0.3717 -0.0688  0.1265
25121W        W25321   9.727   0.384   8.965  0.0612 -0.2243  0.0623
25122W        W25322   9.798  12.735  11.790 -0.2372 -0.4200  0.0042
25123W        W25323  12.982   5.638   4.846  0.1554  0.0073  0.1364
25124W        W25324   9.146   1.832   6.549  0.1172 -0.1806  0.0651
25125W        W25325   1.885  11.246   7.940 -0.0680  0.0107  0.2381
25126W        W25326   5.401  10.661   8.393  0.2685  0.0263  0.1221
25127W        W25327  13.954  12.256   5.177  0.0542 -0.0204 -0.2250
25128W        W25328   3.906   9.031  10.790  0.3993  0.5653 -0.3764
25129W        W25329  10.759  12.983   3.719 -0.0528 -0.3041  0.1533
25130W        W25330   0.267  10.869  11.083  0.2184 -0.0190  0.0113
25131W        W25331   8.100   5.301   1.577  0.3951 -0.2445  0.4359
25132W        W25332  11.316   9.102   7.091 -0.1126 -0.2662 -0.1827
25133W        W25333   2.670   6.974   8.046  0.3028 -0.1063  0.0538
25134W        W25334   8.126   9.171  12.296 -0.0919  0.1601  0.0512
25135W        W25335   6.886   8.181   2.022 -0.3231  0.0844 -0.1697
25136W        W25336   6.919  14.911   5.576 -0.0596 -0.1492  0.0159
25137W        W25337  12.542  11.194  11.257  0.0872  0.3741  0.2840
25138W        W25338   9.555   5.595  11.355  0.4369 -0.1154  0.2028
25139W        W25339   6.805  13.652   9.917 -0.2443 -0.0065 -0.1313
25140W        W25340  13.248   9.024  13.337  0.1248 -0.2856 -0.0300
25141W        W25341   8.222  13.319   0.294  0.0376 -0.1321 -0.0028
25142W        W25342   2.521   9.143   7.958  0.0099  0.0542  0.0108
25143W        W25343  14.123  14.272  12.865  0.0478 -0.0559 -0.1076
25144W        W25344   5.831  10.840   8.659 -0.0380 -0.3512 -0.0941
25145W        W25345  11.503   6.989  11.448  0.1701  0.2025  0.1900
25146W        W25346  13.005   0.254   0.317  0.1241 -0.0350 -0.2414
25147W        W25347  13.492   8.471  11.353 -0.1458  0.3052  0.1217
25148W        W25348   0.505   2.981   3.021 -0.3954  0.0117  0.1369
25149W        W25349  13.410   9.555  14.227 -0.1027 -0.0997 -0.3337
25150W        W25350   7.650  11.939   7.963  0.3850  0.2542  0.1170
25151W        W25351   8.146  14.369   6.373  0.0396 -0.3139  0.2491
25152W        W25352  14.029   8.006  13.084 -0.3902 -0.0621  0.1710
25153W        W25353  11.467   7.052  14.392  0.3162  0.0597 -0.1593
25154W        W25354   1.767   2.038  12.742  0.0320  0.0767  0.1381
25155W        W25355  11.825   9.423  11.159 -0.2357 -0.0276 -0.0873
25156W        W25356   5.234   7.729  11.461 -0.2336 -0.0340 -0.0172
25157W        W25357   5.976   7.825   8.332 -0.0006 -0.0364 -0.1788
25158W        W25358   4.515   5.783  13.250 -0.0652 -0.1715  0.0558
25159W        W25359  11.381   2.333   0.072  0.0837 -0.3133  0.0111
25160W        W25360  13.489   3.400   7.466  0.1463 -0.1410  0.0029
25161W        W25361  12.262   0.199  10.843 -0.3664  0.1827 -0.0667
25162W        W25362  10.340   6.511  15.059  0.0569 -0.2073  0.0500
25163W        W25363   8.639   2.903   2.600  0.0462  0.0821 -0.2875
25164W        W25364  12.839   2.447   9.764  0.5768 -0.1306 -0.1792
25165W        W25365  14.646  11.160   6.381  0.1127 -0.2020  0.3402
25166W        W25366   6.917   9.256   4.168 -0.0317  0.0272  0.0914
25167W        W25367  12.592   2.716   8.306 -0.2260 -0.1748 -0.2603
25168W        W25368  10.046   4.364  12.566  0.1964  0.1076  0.2319
25169W        W25369   4.740   8.290  11.440 -0.0782 -0.1766  0.0858
25170W        W25370   0.422  14.806   1.224  0.2030 -0.2313 -0.0332
25171W        W25371  14.807   5.534   8.764 -0.0699 -0.1033 -0.0264
25172W        W25372  13.087  11.353   8.302 -0.0881 -0.1065 -0.1499
25173W        W25373  13.462   4.144  11.264  0.1639 -0.1691  0.1569
25174W        W25374   7.162  11.780  12.078  0.0022  0.1213 -0.1309
25175W        W25375   3.404   7.772   3.791  0.2153 -0.2455  0.2497
25176W        W25376   8.541  13.752   6.983 -0.0414  0.2111  0.0924
25177W        W25377   4.993  14.589   5.612 -0.0148  0.1000 -0.0039
25178W        W25378   0.486  10.367   2.878 -0.0020 -0.1279 -0.2279
25179W        W25379   2.571  10.452   2.550 -0.0723  0.4040  0.0395
25180W        W25380   3.848   6.606   0.964 -0.0128  0.3740 -0.2400
25181W        W25381  11.614   6.489   3.217  0.1718  0.0566  0.2221
25182W        W25382   8.627   7.807   5.540  0.2693 -0.0696 -0.0896
25183W        W25383  14.315  12.128   5.620 -0.1350  0.0189 -0.2197
25184W        W25384  12.451   1.738   1.068  0.0748 -0.2701  0.0423
25185W        W25385   2.071   6.297  14.105 -0.1323  0.0699 -0.0631
25186W        W25386  13.379   4.901   9.789 -0.1953  0.0793  0.2579
25187W        W25387   7.635   5.893  13.426  0.0255 -0.1321 -0.0264
25188W        W25388   7.151   8.445   5.891 -0.1767  0.3220 -0.0118
25189W        W25389  13.697  12.790  15.013  0.0210 -0.2896 -0.2025
25190W        W25390   8.028  10.954   8.339 -0.0801  0.0883 -0.0328
25191W        W25391   2.848  11.464   8.720  0.1380 -0.0237 -0.2370
25192W        W25392   9.302   8.956   9.315  0.1419  0.1432  0.0107
25193W        W25393  13.169  11.343   3.037 -0.0426 -0.0668  0.1576
25194W        W25394   2.713   4.914  10.748  0.2444 -0.1979  0.0193
25195W        W25395  12.995   7.454   4.650 -0.1455  0.1058  0.0428
25196W        W25396  12.736  14.756  12.342 -0.2755  0.1622 -0.2891
25197W        W25397   7.559   7.492  13.947  0.1249 -0.0010  0.0682
25198W        W25398   8.307  15.156  10.550  0.2452  0.0081  0.2556
25199W        W25399  14.434   9.025   0.268 -0.2181 -0.1552 -0.0441
25200W        W25400   5.374  13.045  14.058  0.0992 -0.1046  0.0224
25201W        W25401  13.383   7.621  11.013  0.0280  0.0046 -0.0331
25202W        W25402  14.309  14.509  14.694  0.2792  0.0595 -0.2834
25203W        W25403  13.888   9.195  12.044 -0.1593  0.0528 -0.3244
25204W        W25404   9.294   2.505   5.161  0.2732 -0.1546  0.1170
25205W        W25405  13.916   8.984   0.936 -0.1209 -0.0826 -0.3526
25206W        W25406   6.043   0.750  12.493  0.2065 -0.1132  0.1100
25207W        W25407   9.884   2.907   3.207  0.1621  0.1469  0.0186
25208W        W25408   0.089   9.066  10.387 -0.0393 -0.4005  0.0806
25209W        W25409   6.884  12.364   4.461 -0.0500 -0.1169  0.1242
25210W        W25410  10.931  11.044   5.684 -0.3041  0.1536 -0.1331
25211W        W25411   9.935  12.040  11.658 -0.2890  0.0083 -0.1042
25212W        W25412   8.654  10.497  14.945 -0.0585 -0.0696  0.0395
25213W        W25413  13.345  11.759   8.145 -0.1161  0.3592  0.2260
25214W        W25414   9.405   7.603  11.100  0.1119  0.0086 -0.0095
25215W        W25415  12.422   8.920   5.316 -0.1606  0.1847 -0.1310
25216W        W25416  15.140   6.431   9.662  0.3112  0.1180 -0.4254
25217W        W25417  10.549   7.146   4.604 -0.1481 -0.3640  0.0797
25218W        W25418   9.333   8.439  11.315 -0.1110  0.1631  0.1467
25219W        W25419   2.902  11.562   4.194 -0.0141  0.1210 -0.1355
25220W        W25420   4.627   3.459  11.682 -0.0230  0.1145  0.0625
25221W        W25421   3.246   7.414   6.764  0.0585 -0.2370 -0.0177
25222W        W25422  12.872   1.733   5.686  0.3573 -0.0295  0.0339
25223W        W25423   8.649   8.305   7.653 -0.0874  0.0938  0.4355
25224W        W25424  12.331   7.898   7.190  0.1388  0.3897  0.0046
25225W        W25425  12.498  10.296   3.093  0.3962 -0.2712 -0.0166
25226W        W25426   5.556   8.527   9.576 -0.2260  0.0100 -0.1985
25227W        W25427   0.520   2.430  12.683 -0.2568 -0.0970  0.0553
25228W        W25428  14.645  12.663  13.078 -0.0826 -0.1308 -0.1040
25229W        W25429  14.361  13.166  10.676 -0.1468  0.1003 -0.2556
25230W        W25430   0.139   8.964   8.382 -0.0374  0.1968 -0.2193
25231W        W25431  11.603   9.634   9.455  0.0977 -0.1882 -0.1100
25232W        W25432   5.190  13.094   8.958 -0.2015 -0.0808 -0.0069
25233W        W25433   8.801   3.903  11.705 -0.3990 -0.1013 -0.3377
25234W        W25434   1.610   0.640  13.261  0.0442  0.1897 -0.1386
25235W        W25435  11.076   8.493   4.248 -0.0654  0.2712  0.0782
25236W        W25436   3.127   7.227   6.114 -0.1696 -0.0501  0.3952
25237W        W25437  12.122   0.665   1.580  0.1742 -0.0461  0.1504
25238W        W25438  10.907   5.880  13.448 -0.3557  0.1117  0.1312
25239W        W25439  10.087   0.146   5.364 -0.0549  0.0572 -0.3117
25240W        W25440  14.831   7.387   8.271  0.0977  0.2293 -0.1727
25241W        W25441   5.328  12.440  13.404  0.0232  0.0726 -0.3199
25242W        W25442   8.919   8.384   8.765 -0.0527  0.3681  0.2573
25243W        W25443   6.915  13.922   7.963  0.1395  0.0713  0.0761
25244W        W25444  15.077  13.274   0.249 -0.0956 -0.0062 -0.0009
25245W        W25445   6.410   8.500   8.381  0.1600 -0.2269 -0.0136
25246W        W25446  14.072  14.087   2.612  0.3535 -0.0561 -0.3745
25247W        W25447  10.938   7.755   9.120 -0.0647  0.1343 -0.0125
25248W        W25448   6.029  13.275  12.821 -0.0032 -0.1163 -0.0642
25249W        W25449  10.487   6.426   5.674  0.0472  0.1824  0.1685
25250W        W25450  14.026  14.114   9.301  0.0644  0.0461  0.1121
25251W        W25451   6.365  14.194  12.679 -0.0112  0.0497 -0.0827
25252W        W25452  14.919   1.959   1.036  0.0704  0.0903  0.0983
25253W        W25453   3.654   4.973  11.815  0.1213  0.2709  0.2076
25254W        W25454  13.269   4.347  10.821  0.1418  0.0624  0.1087
25255W        W25455   2.889   7.777   7.501 -0.1479 -0.0808  0.1098
25256W        W25456   5.841  12.425   0.952  0.0249 -0.0110  0.0763
25257W        W25457  13.314   5.510  11.604  0.0789 -0.3015 -0.0198
25258W        W25458  12.767  15.133  12.033  0.1245  0.2891  0.1421
25259W        W25459  10.864   7.783   7.595  0.0923  0.0241 -0.0684
25260W        W25460   8.587  11.837  14.744 -0.0097  0.1350 -0.2799
25261W        W25461   4.040  13.173   6.037  0.0630  0.2093  0.1964
25262W        W25462   9.636   5.176  13.929  0.2536 -0.1791  0.1236
25263W        W25463   0.168   6.251  11.824  0.0671 -0.1051  0.2455
25264W        W25464  14.443   9.437   0.983  0.1821  0.0216  0.1019
25265W        W25465   0.280  11.800  15.055  0.1174  0.1647 -0.0363
25266W        W25466   2.060  12.606   5.537  0.0202  0.3612 -0.0529
25267W        W25467   3.842   3.658   0.258 -0.0604  0.1128 -0.0352
25268W        W25468  11.882  13.724   6.363  0.0674  0.2998 -0.0657
25269W        W25469   1.564  15.062   6.586  0.4469 -0.1312  0.3931
25270W        W25470  11.738  11.513   9.238 -0.0140  0.0015 -0.1385
25271W        W25471  13.242   3.810   4.483 -0.0144  0.3507 -0.0197
25272W        W25472   5.677   7.119   7.846  0.2391 -0.3194  0.0941
25273W        W25473  10.867   7.506   4.964 -0.0579 -0.0380  0.0642
25274W        W25474   2.798   8.103  12.551  0.1282 -0.0397 -0.1385
25275W        W25475   0.868  11.079   6.248  0.1633  0.4467  0.0833
25276W        W25476  10.189   0.328   2.335 -0.1815  0.3353 -0.0718
25277W        W25477   5.934  13.911  12.606  0.1110  0.1516  0.1036
25278W        W25478  12.749   7.435  10.529 -0.4995 -0.0206 -0.1892
25279W        W25479   2.009  14.866  10.809  0.2416 -0.2642  0.2723
25280W        W25480   4.215   6.188  12.368 -0.1635 -0.2620 -0.2850
25281W        W25481   5.359   0.808   7.728  0.3562  0.2643 -0.2501
25282W        W25482   3.721  12.033  13.622  0.1392 -0.0994  0.1769
25283W        W25483  11.616   7.169  10.105  0.2477  0.3641  0.2829
25284W        W25484   9.008   9.093   6.440 -0.1319 -0.1821  0.1143
25285W        W25485  14.106   7.063  13.908  0.1988  0.1953  0.0637
25286W        W25486   9.509   1.861  11.062  0.2174 -0.0546 -0.0289
25287W        W25487  12.549   6.013  14.203 -0.1173 -0.2268 -0.2077
25288W        W25488  15.112   1.703   6.685 -0.1599  0.1549  0.2565
25289W        W25489   1.266  12.285   9.851 -0.0879  0.0448 -0.0761
25290W        W25490   3.405   0.123   8.442  0.0116 -0.0659 -0.1324
25291W        W25491  10.471   4.050  13.920 -0.2581  0.3895  0.0083
25292W        W25492   4.414   8.221   3.456 -0.0849  0.3406  0.1523
25293W        W25493  10.770  10.648   8.516  0.2431  0.0002 -0.2881
25294W        W25494   8.528   9.671   9.209  0.0676  0.0989  0.4205
25295W        W25495  12.710   9.699   6.121  0.0111  0.1761 -0.1183
25296W        W25496  11.740   8.785  12.370 -0.1105 -0.1193  0.3169
25297W        W25497  12.252   5.215   9.929  0.0639 -0.0250 -0.3522
25298W        W25498   7.734  14.925  10.187 -0.1355 -0.0385  0.1726
25299W        W25499  11.962  12.210   3.132  0.0816 -0.0733  0.0615
25300W        W25500  12.011   6.389   1.742 -0.1189  0.1192  0.3082
25301W        W25501  10.138  10.282   1.652  0.0613 -0.0333  0.1452
25302W        W25502  10.796   4.839   9.558 -0.0679  0.0379  0.0647
25303W        W25503  10.018   6.343   4.573 -0.0111 -0.0650 -0.2359
25304W        W25504  11.300   7.666  11.859 -0.0583 -0.2156  0.2241
25305W        W25505  10.391   6.683   1.685 -0.3238 -0.0514 -0.2666
25306W        W25506  13.822   6.518  11.645  0.1403  0.0248  0.3590
25307W        W25507   1.664   7.302  10.151  0.2403 -0.0336  0.0963
25308W        W25508  12.896   4.519  14.531 -0.2782 -0.1478 -0.1943
25309W        W25509   8.255   0.345   8.288 -0.1208  0.2741  0.2189
25310W        W25510  11.432   8.321  13.606  0.1002 -0.4463 -0.2422
25311W        W25511  13.848  12.089  12.252  0.1379 -0.2587 -0.2917
25312W        W25512  10.551   5.060  14.656  0.2449 -0.1385 -0.0674
25313W        W25513  12.481  13.768  10.692  0.1879  0.0978 -0.3115
25314W        W25514   7.977  10.168   0.110  0.1693 -0.1349 -0.1095
25315W        W25515  10.588  14.531  15.058  0.2468 -0.1444  0.0449
25316W        W25516  11.619   4.427   6.253  0.0704 -0.1532  0.2624
25317W        W25517   0.920  14.112  12.592  0.2659 -0.1074  0.1983
25318W        W25518   3.578  14.812  13.075 -0.0588 -0.0461 -0.1325
25319W        W25519  12.450   0.816   7.185 -0.1819  0.0239 -0.1950
25320W        W25520  13.309  10.078   4.140  0.0198 -0.1146  0.1630
25321W        W25521   1.536  10.960   3.357  0.0732  0.2428 -0.1488
25322W        W25522  11.727   9.464   4.971  0.2969  0.3215 -0.0636
25323W        W25523  13.109  13.114   3.962 -0.0725 -0.2209  0.0109
25324W        W25524  10.681  10.812  10.054  0.3228 -0.1386  0.0430
25325W        W25525  10.239   2.505   9.095  0.0665  0.1635 -0.1466
25326W        W25526   9.729   1.563  12.445 -0.0178 -0.0352 -0.2316
25327W        W25527   8.045   8.352  12.166 -0.0165  0.0064 -0.1007
25328W        W25528   6.029   5.956   6.337  0.2980 -0.0221 -0.3616
25329W        W25529  12.641  10.912   5.429  0.1941 -0.0332 -0.3213
25330W        W25530   3.367   7.525   7.766 -0.0911 -0.2176  0.1744
25331W        W25531   2.554   9.283   9.884  0.3079  0.1140  0.0891
25332W        W25532   6.569   8.593  12.384  0.1893  0.1492 -0.1462
25333W        W25533   1.837  10.163  10.638  0.0165 -0.1981  0.0892
25334W        W25534   6.624  11.169  11.309  0.0180  0.2111 -0.4163
25335W        W25535  11.700  10.522   2.599 -0.2029 -0.2043  0.4161
25336W        W25536   1.297  10.219   9.085  0.0128 -0.2634  0.1959
25337W        W25537   2.353   9.562   1.366 -0.0267 -0.3442  0.1577
25338W        W25538  14.240  11.489   6.335  0.0055 -0.0842  0.1811
25339W        W25539   3.382   4.135   7.416 -0.1773  0.2759 -0.2252
25340W        W25540  11.595   3.134   0.167  0.0354 -0.3273 -0.2007
25341W        W25541  10.056   8.047   7.314  0.1792 -0.3464 -0.1909
25342W        W25542   5.067   3.215   3.469 -0.1515  0.0873  0.2089
25343W        W25543   0.287   0.157   5.206  0.2559 -0.1577  0.1631
25344W        W25544  13.173   4.153  13.212 -0.2598  0.1713  0.2942
25345W        W25545   9.166   6.885  13.757  0.1343  0.1500 -0.1579
25346W        W25546  15.086  15.173   6.143  0.0335 -0.3728 -0.0068
25347W        W25547   2.961   6.438   5.294  0.0738 -0.0127 -0.2229
25348W        W25548  10.046   3.016   7.871 -0.1258 -0.1504 -0.0266
25349W        W25549  12.591   8.516   9.220  0.1366 -0.1174  0.3325
25350W        W25550  11.089   6.468   7.696  0.0079  0.0467 -0.2348
25351W        W25551   8.348   7.750  11.731  0.1203 -0.2079  0.1541
25352W        W25552  13.948   3.332   8.531  0.1504 -0.0393  0.1084
25353W        W25553  13.035   3.690   5.423  0.1845  0.1013  0.2750
25354W        W25554   9.528   6.368   1.891 -0.1082  0.1249  0.1609
25355W        W25555   7.623   7.874  12.020  0.1302  0.1310 -0.2379
25356W        W25556  11.285  11.611   3.304  0.0114  0.0173 -0.1881
25357W        W25557   4.765  13.334   8.762  0.4431  0.0767 -0.1730
25358W        W25558   3.609   4.551   2.268  0.1487  0.0516 -0.1848
25359W        W25559  14.185   8.702   7.553 -0.0421 -0.0609  0.2762
25360W        W25560   9.945  12.659  12.282  0.0075  0.1804  0.2815
25361W        W25561  12.333  13.221   8.092 -0.1493 -0.2156  0.1352
25362W        W25562   5.376   2.500   5.627 -0.0833 -0.1292  0.0645
25363W        W25563  14.165   4.524   6.459 -0.1198  0.1184 -0.2132
25364W        W25564  11.810   9.480  10.627  0.1242  0.1087  0.2381
25365W        W25565  11.440   6.748   5.069 -0.1689  0.1672 -0.0092
25366W        W25566   5.552  12.748   5.652  0.0325  0.0091 -0.1578
25367W        W25567  14.412  10.085  15.090 -0.2569  0.1096  0.1073
25368W        W25568   4.604   0.359   8.824 -0.2591 -0.0572  0.2101
25369W        W25569   7.563   7.093   1.440  0.2749 -0.1344 -0.2652
25370W        W25570   7.404  11.367  11.665 -0.1643 -0.2385 -0.1161
25371W        W25571  14.152  11.264  12.358  0.0607 -0.0443 -0.2650
25372W        W25572   2.255   5.746   7.433  0.1471  0.2283  0.0601
25373W        W25573   1.462  11.455   9.786 -0.4056 -0.0771  0.0174
25374W        W25574   1.554   9.550  14.326  0.1147  0.2152  0.0416
25375W        W25575   1.619   8.160  12.400  0.1666 -0.0687 -0.5614
25376W        W25576  11.053   2.398   7.919 -0.0613  0.2067 -0.2350
25377W        W25577   9.381  13.646   9.996 -0.2335  0.2117  0.0851
25378W        W25578  12.338   9.200   6.264 -0.1450 -0.0993 -0.2074
25379W        W25579  11.109   7.044   2.976  0.0615  0.1190  0.1216
25380W        W25580  14.892   0.237   2.153  0.1286  0.1115  0.0107
25381W        W25581   7.591   3.117  14.372  0.0127 -0.2950  0.0874
25382W        W25582  12.676   6.313   9.681  0.3029  0.1577  0.0579
25383W        W25583   5.869  11.247  10.115  0.0660  0.0945 -0.3327
25384W        W25584  13.717   9.776   8.336  0.0070  0.2282  0.0690
25385W        W25585   2.773   2.157   0.068 -0.4165  0.1629 -0.3362
25386W        W25586   0.575  12.472   3.380  0.2762 -0.1025  0.0098
25387W        W25587   4.758   7.323   8.101  0.0353  0.2344 -0.0860
25388W        W25588  15.152   5.892  10.616  0.2519 -0.2382  0.0737
25389W        W25589   1.373  12.241  13.242 -0.1331  0.2038  0.0338
25390W        W25590  10.746   3.267  12.817 -0.1085 -0.0773 -0.0467
25391W        W25591   7.705  10.194   5.096  0.0616  0.2778 -0.0853
25392W        W25592   1.098  14.495   5.027 -0.1814 -0.0978  0.0420
25393W        W25593   7.162   4.468   7.380  0.1342  0.2029 -0.2970
25394W        W25594  13.508   1.225   9.420 -0.2316  0.0646  0.0643
25395W        W25595   9.165  13.431   0.702 -0.1644 -0.2379 -0.0788
25396W        W25596   0.899  13.664  11.587  0.0682  0.0759 -0.1435
25397W        W25597   9.189  12.084   7.809 -0.2366  0.0355  0.0731
25398W        W25598  12.264   5.344  12.043  0.3069 -0.0904  0.2113
25399W        W25599  11.849  14.013   7.097 -0.0273 -0.0927 -0.1597
25400W        W25600  13.702  12.571  14.451 -0.0922  0.1638 -0.4739
25401W        W25601   3.914   6.182   2.196 -0.1961 -0.1926 -0.0365
25402W        W25602   0.629  12.867  12.925  0.0761 -0.4802  0.0685
25403W        W25603   2.128   7.968   5.943  0.0073  0.1152 -0.1199
25404W        W25604  11.762  10.075   6.688  0.1442  0.1189 -0.1140
25405W        W25605  10.175  10.207  11.205  0.2353  0.1354 -0.0464
25406W        W25606   6.572  11.896  14.850  0.1927 -0.0410  0.3689
25407W        W25607  12.662  14.634   6.096 -0.0624  0.1352  0.1399
25408W        W25608   3.191   3.943  13.823 -0.2721  0.0464  0.1788
25409W        W25609  13.265  10.158  11.879  0.4390 -0.0800 -0.0123
25410W        W25610   0.926   9.483  14.440  0.0194 -0.2079  0.1430
25411W        W25611  14.156   8.505   0.075  0.3735  0.1267 -0.0831
25412W        W25612   0.843   2.628   9.405  0.3442  0.1132  0.1580
25413W        W25613  13.845  10.187   8.662 -0.0964 -0.1334  0.0520
25414W        W25614  14.447   8.612   2.449  0.1115  0.0544  0.0928
25415W        W25615  13.474   7.608  13.907 -0.1749  0.3436  0.0944
25416W        W25616  11.974   4.290   7.336  0.2393  0.0034 -0.0405
25417W        W25617   0.813   8.972  14.725  0.0834  0.0047 -0.0682
25418W        W25618  13.100   3.132  14.269  0.0296  0.2402 -0.1110
25419W        W25619   2.269   8.324   7.825 -0.0762 -0.0426 -0.0322
25420W        W25620   0.393  13.848  12.462 -0.0696 -0.0724  0.0317
25421W        W25621  14.281   4.309  10.866 -0.1705  0.0172  0.1227
25422W        W25622  11.429   1.633   5.412 -0.0215  0.1956 -0.0992
25423W        W25623   2.971   5.043  14.446 -0.1637 -0.0498 -0.0050
25424W        W25624   9.685   9.812  11.543 -0.0477  0.0021  0.0377
25425W        W25625  11.508   6.743   7.663  0.3216  0.0005  0.0443
25426W        W25626  14.034   9.473   3.288 -0.3005 -0.1434 -0.0993
25427W        W25627   2.584   2.468   8.623 -0.0538  0.1608  0.2476
25428W        W25628   9.344   7.739  11.728  0.2774  0.0449 -0.0164
25429W        W25629   0.935   0.560   4.581 -0.0385 -0.2793  0.1731
25430W        W25630   9.967   7.710  13.724  0.1671 -0.3222 -0.3458
25431W        W25631  13.549  12.133  14.326 -0.1013  0.1307 -0.0905
25432W        W25632  10.907   8.011   4.900  0.0744 -0.0119  0.3456
25433W        W25633   6.310   8.970  12.172 -0.1163 -0.1100 -0.0816
25434W        W25634  13.449   3.831   2.412 -0.0420  0.2256  0.0361
25435W        W25635  14.894   0.837  10.432  0.0896 -0.1999 -0.0826
25436W        W25636  14.944   5.245  13.173 -0.1813  0.1913  0.2653
25437W        W25637   3.517  10.222  14.013 -0.1842 -0.1931  0.2528
25438W        W25638   4.480   9.254   9.299  0.0058 -0.0503 -0.0830
25439W        W25639   3.348  11.328   5.417 -0.1846 -0.1375 -0.2552
25440W        W25640   1.174   8.978  11.871  0.0241  0.0268  0.0156
25441W        W25641  10.221   6.354   7.716  0.0255 -0.1136  0.0950
25442W        W25642   1.506  14.127   3.770 -0.1400 -0.1210  0.0802
25443W        W25643  13.832  15.191  13.185 -0.2439 -0.1141 -0.3181
25444W        W25644   5.324   9.061  13.137 -0.1735  0.1595 -0.1323
25445W        W25645   0.264   1.180   3.177  0.1035 -0.2629 -0.0606
25446W        W25646   4.404   4.784  12.174  0.0085  0.2031 -0.0725
25447W        W25647   1.915  10.691  10.594  0.1749  0.3278 -0.1397
25448W        W25648  11.388   0.293  11.841  0.1015  0.1241  0.0557
25449W        W25649  10.036   6.641  12.491 -0.1676  0.1413 -0.3071
25450W        W25650   4.421   3.949  10.196 -0.0206  0.3713  0.0266
25451W        W25651  10.700   6.234   6.899 -0.0694  0.2210  0.2924
25452W        W25652   3.307   3.331   2.869 -0.0641  0.0749 -0.0124
25453W        W25653  15.055  12.830  14.452  0.0322 -0.0596 -0.0108
25454W        W25654  10.647   2.703   8.785 -0.0008 -0.2844 -0.1880
25455W        W25655  13.840  10.834  13.114 -0.0604  0.1775  0.1418
25456W        W25656   9.496  11.800  12.212  0.0357 -0.1867  0.1296
25457W        W25657  10.694  10.755   7.149 -0.1150 -0.0962 -0.2379
25458W        W25658   7.757   8.399   3.560 -0.1570 -0.2969 -0.0801
25459W        W25659   4.280   9.225   7.238  0.2069  0.2734 -0.0781
25460W        W25660   7.198   0.815   3.426  0.2490  0.3917 -0.1686
25461W        W25661   6.878   7.889  14.052 -0.0749 -0.1415 -0.2114
25462W        W25662  11.918   3.100  11.581 -0.0846 -0.1720 -0.0332
25463W        W25663  14.717   7.778   2.354 -0.2017 -0.0602  0.0676
25464W        W25664   9.973   5.465   5.554  0.0178 -0.2722 -0.1281
25465W        W25665  10.985   2.851   9.170  0.1860 -0.0676  0.3032
25466W        W25666  11.161  12.610   6.141 -0.2324 -0.1682  0.1261
25467W        W25667  10.857   3.241   5.067 -0.1099  0.1535  0.1079
25468W        W25668   8.585   6.238   0.033 -0.1246  0.2958 -0.0647
25469W        W25669   9.006   6.051   7.860 -0.1027 -0.0713  0.0696
25470W        W25670   5.378   6.597  14.716 -0.1542 -0.0684 -0.0667
25471W        W25671  10.582   4.215   7.502 -0.0426  0.1024  0.3975
25472W        W25672   5.704  10.428   7.154  0.1361 -0.0265  0.0472
25473W        W25673  11.982  10.883   0.826 -0.0399 -0.0509  0.0203
25474W        W25674  14.349  10.336  10.358  0.1622 -0.3196 -0.0048
25475W        W25675   6.351  12.510  14.665 -0.2336  0.0650 -0.0909
25476W        W25676   7.199  12.194   2.668 -0.1527  0.2824 -0.0032
25477W        W25677  13.683   7.715  12.795  0.0269  0.1036 -0.1114
25478W        W25678   9.236   5.835   5.298 -0.0488  0.1763 -0.2313
25479W        W25679  12.189   8.017   8.607  0.0448 -0.1361  0.0254
25480W        W25680   7.502   7.915  12.726  0.2097  0.1182 -0.1258
25481W        W25681  13.074  13.336   2.913 -0.0179  0.2570 -0.1025
25482W        W25682  11.661   6.855  11.891  0.1943 -0.1087  0.0281
25483W        W25683   9.154   1.998   2.260  0.4024  0.1835 -0.1664
25484W        W25684  13.544   0.453   4.399 -0.0246 -0.1329  0.1414
25485W        W25685   5.627   0.195   7.620 -0.0635  0.1884 -0.2765
25486W        W25686   3.786  11.721  15.033  0.1970 -0.1907  0.1527
25487W        W25687  12.896  10.066   4.961 -0.0113  0.0881  0.2906
25488W        W25688   0.709   3.454  13.089 -0.1761 -0.0252  0.1305
25489W        W25689  13.002  11.355   4.204  0.2447  0.0259 -0.0643
25490W        W25690   4.069   3.678   8.813  0.1732 -0.0777 -0.2161
25491W        W25691   1.189   4.822  11.129 -0.0671  0.1716  0.0198
25492W        W25692   4.106   5.771  12.747  0.1184  0.0763  0.0274
25493W        W25693  14.945   6.838   9.413 -0.2452  0.0469  0.0814
25494W        W25694  13.954  14.322   5.803  0.3262  0.2406  0.2265
25495W        W25695  11.946   6.693   5.877  0.1501 -0.0476 -0.0105
25496W        W25696  14.226  12.519  14.676  0.2393 -0.1197 -0.0416
25497W        W25697   3.234  12.755  14.558 -0.1639  0.0558 -0.3034
25498W        W25698   3.366   1.716  12.422  0.3034 -0.3076  0.4714
25499W        W25699  11.996   0.545   9.977  0.0820  0.1391  0.0705
25500W        W25700   1.182  11.549   5.018  0.2354 -0.4452  0.0547
25501W        W25701  11.747   9.006  10.809  0.1583  0.3791 -0.0920
25502W        W25702   6.032   5.232  14.396  0.2789 -0.1489 -0.1979
25503W        W25703  14.206  12.020  11.510 -0.2275  0.0119 -0.3612
25504W        W25704   8.760  14.412   1.217  0.2084 -0.0656  0.1825
25505W        W25705   9.474  12.682  10.871 -0.1581 -0.2105 -0.0872
25506W        W25706  11.070   5.353  11.333 -0.3325  0.0066  0.2470
25507W        W25707   4.019   4.823  10.697  0.4688  0.0526  0.0054
25508W        W25708   7.415   6.815  14.754  0.0426 -0.1217  0.0242
25509W        W25709  13.278   2.069  13.433  0.0790  0.0375  0.4088
25510W        W25710  13.149   8.626   7.920  0.2437  0.3408 -0.4100
25511W        W25711   3.998  12.152   1.584 -0.4362 -0.2362 -0.2706
25512W        W25712   1.244   4.325   8.998  0.0188  0.1153  0.0573
25513W        W25713   0.070  14.554   9.832  0.2301  0.1296  0.0055
25514W        W25714  14.146   8.156   6.296 -0.0809 -0.0259 -0.0763
25515W        W25715  12.921   7.961  11.003  0.1566  0.0802 -0.0054
25516W        W25716   6.264  13.690  12.912  0.2613  0.1035 -0.0500
25517W        W25717  14.844  11.498  11.624  0.2646  0.5031 -0.0669
25518W        W25718   1.463  11.737  14.039  0.2184  0.1086  0.3673
25519W        W25719  12.504   4.747  10.050 -0.1389 -0.0055  0.3873
25520W        W25720   2.222   6.645   0.270 -0.0169 -0.0508  0.0770
25521W        W25721  11.076  14.056   7.619  0.1050  0.0360 -0.1125
25522W        W25722   0.421  12.001   5.995  0.0092  0.2279 -0.0319
25523W        W25723   8.332   0.508   9.138  0.2226  0.0066 -0.2843
25524W        W25724   1.559   5.718   8.395  0.1696  0.1166  0.1029
25525W        W25725   0.443   7.209   3.534  0.2207  0.0452  0.1394
25526W        W25726   6.485  13.909  10.222 -0.2023  0.2187  0.1623
25527W        W25727   3.219  10.343   7.659  0.0850 -0.1923  0.1515
25528W        W25728  10.122  13.561   5.032  0.1617 -0.1392 -0.1159
25529W        W25729   1.167   0.670   0.075  0.4534 -0.1911  0.0466
25530W        W25730   4.224   6.364   3.695 -0.2987 -0.1774  0.0769
25531W        W25731   3.366   8.157   9.397  0.0796 -0.1241  0.0900
25532W        W25732   9.671   8.256   6.403  0.1600  0.1834 -0.0236
25533W        W25733   2.642   3.364  14.336 -0.2359  0.3418 -0.2734
25534W        W25734  13.970  13.774   5.652  0.0135  0.3148  0.2435
25535W        W25735  11.732  12.785   1.658  0.0723  0.1083 -0.0522
25536W        W25736   2.344  13.186   0.358  0.2200  0.1902 -0.1489
25537W        W25737   1.193  11.167   1.952  0.2204 -0.0603 -0.1005
25538W        W25738  13.013   9.024  12.553  0.2068 -0.2337 -0.1029
25539W        W25739   0.784  13.271   9.114  0.1424 -0.0192  0.1476
25540W        W25740  14.009   1.754  11.835 -0.1259 -0.1686 -0.1814
25541W        W25741  10.401   7.282  10.989 -0.1275  0.0125 -0.2058
25542W        W25742   6.176   9.609   4.561 -0.2128  0.2389  0.4977
25543W        W25743   1.711   7.136   5.156 -0.0962 -0.2563  0.1293
25544W        W25744  13.339   3.053   6.219 -0.1202 -0.1218  0.2179
25545W        W25745   5.872   7.665  13.715 -0.2045 -0.3395 -0.2702
25546W        W25746   2.671  12.034  12.662 -0.0160 -0.2223 -0.2640
25547W        W25747  12.207  14.605   6.788  0.3001 -0.0654  0.2441
25548W        W25748   7.170   0.604   7.471  0.2071 -0.2802  0.1126
25549W        W25749   7.980   1.716   8.332 -0.0840  0.1137  0.5833
25550W        W25750   9.919  11.959   1.314  0.3280  0.1500  0.0153
25551W        W25751  14.040  14.406   7.905 -0.3345  0.2937 -0.4252
25552W        W25752   1.763   0.080   9.375 -0.0607 -0.0406  0.0079
25553W        W25753  14.005  13.966   6.149 -0.0838  0.1733  0.0711
25554W        W25754   0.678   7.558  10.910  0.1583 -0.1414  0.0082
25555W        W25755  14.310  12.717   2.899  0.0407 -0.1463 -0.1224
25556W        W25756   7.174  12.223  10.858 -0.1377  0.1837 -0.2453
25557W        W25757  11.604   6.489   0.452  0.0228 -0.2265 -0.1029
25558W        W25758  11.446   3.363  10.362  0.2895 -0.1477  0.2704
25559W        W25759   6.427   8.750  11.362 -0.4750  0.0682  0.1674
25560W        W25760  11.888  10.215  13.075 -0.1463  0.0314 -0.0448
25561W        W25761   9.957   3.542  13.075  0.0375 -0.3254 -0.0142
25562W        W25762  13.395   9.609   3.943  0.0901  0.1532  0.2672
25563W        W25763   4.060   5.686   1.589 -0.0547 -0.3116 -0.1262
25564W        W25764   6.364   7.509   8.640  0.2296  0.0453  0.3730
25565W        W25765   0.075   0.399   7.488 -0.0821 -0.0052 -0.1792
25566W        W25766   7.463   2.003  13.432 -0.3134  0.0374  0.0236
25567W        W25767  12.383   9.481  14.503 -0.0192 -0.1237 -0.1877
25568W        W25768   1.386   9.446  13.232 -0.1117 -0.0435  0.0786
25569W        W25769   1.561  10.328  14.056  0.0024 -0.1006  0.0783
25570W        W25770  11.185   6.358  10.690 -0.1586 -0.4178  0.0779
25571W        W25771   2.066  12.979   1.713 -0.0763  0.2598  0.0227
25572W        W25772  10.365  14.022   6.144  0.1936 -0.4103 -0.1473
25573W        W25773   8.081   7.530  11.365  0.3435  0.4628 -0.2768
25574W        W25774   1.570  12.155  14.433  0.0770  0.3252  0.1097
25575W        W25775   5.721   8.767   2.770 -0.0378 -0.3492 -0.0015
25576W        W25776  12.242  10.136   0.391 -0.5917  0.4518 -0.1096
25577W        W25777   2.597  10.984   8.551 -0.0228 -0.0726  0.0382
25578W        W25778  11.388   9.324  10.858 -0.0474  0.1852  0.2725
25579W        W25779   4.617  11.802   1.798  0.0912  0.1418 -0.0703
25580W        W25780  14.527   8.409   9.499  0.1614  0.2324  0.0124
25581W        W25781  11.112  11.767  14.990 -0.4133  0.2263 -0.2364
25582W        W25782  12.983   4.225  12.031 -0.1462  0.1638 -0.1043
25583W        W25783   4.325   9.804  13.355 -0.4047  0.0633  0.2234
25584W        W25784  11.336  12.464   8.553 -0.0494  0.0116  0.0141
25585W        W25785  10.931   7.023  10.113 -0.1432 -0.2401  0.1629
25586W        W25786  15.169   6.695   6.250  0.1731  0.1617 -0.1079
25587W        W25787  11.187  14.307  13.293 -0.2654 -0.1779 -0.2009
25588W        W25788   1.437   0.329   8.128 -0.0005  0.1512 -0.0711
25589W        W25789  10.230   5.469  11.951  0.1466  0.2159 -0.1698
25590W        W25790  14.176   8.961  12.684  0.0088  0.3175  0.1528
25591W        W25791   3.625   5.200   9.482  0.3241  0.1177 -0.2287
25592W        W25792   0.344   7.844   8.443 -0.3338  0.3529 -0.0754
25593W        W25793   7.588   5.958  11.686 -0.0502  0.1009 -0.2354
25594W        W25794  10.780   9.624   9.062  0.1367 -0.0036 -0.1593
25595W        W25795   2.924   0.518  11.824  0.3092  0.2218 -0.0524
25596W        W25796  12.972  10.581   2.443  0.1019 -0.0519 -0.0826
25597W        W25797  11.732   5.554  12.565 -0.1617 -0.3207 -0.1395
25598W        W25798   3.885   2.880   7.862 -0.1087  0.2862 -0.2110
25599W        W25799   8.329  15.031   9.768  0.1949  0.0874  0.0728
25600W        W25800  11.447   6.354   9.007  0.2360  0.1336  0.1321
25601W        W25801  10.117   6.207  12.683 -0.5053 -0.0485 -0.0582
25602W        W25802  12.937   5.640  10.214 -0.0689  0.1052 -0.2533
25603W        W25803   6.303   7.785  11.428  0.1314 -0.0575 -0.2030
25604W        W25804   4.995  14.532  10.621 -0.0488 -0.1485  0.1118
25605W        W25805   6.589  10.890  11.776  0.2635  0.1890 -0.1154
25606W        W25806   0.913  10.135  11.796  0.0801 -0.2207  0.1165
25607W        W25807   6.012   1.681   2.537 -0.0113 -0.2202 -0.0048
25608W        W25808   2.045  13.141  11.166 -0.0093  0.2144  0.2105
25609W        W25809  10.399   7.694   4.997  0.1350 -0.1294 -0.0912
25610W        W25810   1.799   3.376  15.088 -0.1075  0.0596  0.2019
25611W        W25811   8.994  12.951  12.167  0.0393  0.2751  0.1321
25612W        W25812   0.072  12.819   3.903  0.0110  0.0403 -0.0369
25613W        W25813   9.951  10.490   5.907 -0.1045  0.3447  0.0298
25614W        W25814   6.814   8.866   2.187  0.1110  0.0465  0.2952
25615W        W25815  13.554   9.794   1.951  0.1123  0.0927 -0.0148
25616W        W25816  11.708   2.772  14.049  0.2328  0.3424 -0.1335
25617W        W25817  10.750  13.362   2.340  0.1753  0.3963  0.1019
25618W        W25818   0.042   2.870   6.205  0.2287 -0.3226 -0.2144
25619W        W25819  12.994   8.526  11.212 -0.2119 -0.0405  0.2644
25620W        W25820  10.221  13.666  11.967 -0.0600  0.0635 -0.3848
25621W        W25821   1.478  10.723  13.115  0.1595 -0.0401 -0.1435
25622W        W25822   8.986  11.919  10.600  0.2079 -0.0928  0.3704
25623W        W25823   6.517   7.218  12.366  0.2206 -0.1614 -0.0379
25624W        W25824   1.176   1.794  12.186 -0.0316  0.0902  0.0044
25625W        W25825  10.318  12.072   1.713  0.0880  0.0441  0.0210
25626W        W25826  13.826   7.114   8.743 -0.0541  0.3836 -0.0225
25627W        W25827   3.398  13.681  14.475  0.2076  0.1526 -0.0811
25628W        W25828  12.171   9.706   7.568 -0.1609  0.1492 -0.2099
25629W        W25829   4.784  10.003   9.457  0.0237 -0.0085 -0.2435
25630W        W25830   5.631   0.709   9.471  0.0800  0.3159 -0.0031
25631W        W25831   0.203   9.359   1.055  0.2322  0.2428 -0.0650
25632W        W25832  14.273   3.478   1.001 -0.3093  0.1616 -0.2105
25633W        W25833   9.299   5.995  12.463 -0.1842  0.3214  0.0391
25634W        W25834  12.171  11.824   4.341  0.2669  0.1343  0.0577
25635W        W25835   9.221   6.925   7.836 -0.2982  0.2361 -0.0243
25636W        W25836  14.493   4.670   9.964 -0.3617  0.0163 -0.0007
25637W        W25837  12.889  10.131  12.208  0.0131  0.1613 -0.2788
25638W        W25838   9.518  14.951  13.970 -0.2531 -0.2999  0.1140
25639W        W25839  11.856   6.614  10.086  0.0355 -0.2485  0.1139
25640W        W25840   4.124  12.096   1.092 -0.0113  0.3322 -0.1980
25641W        W25841  10.931   2.901   7.573 -0.0637  0.1270  0.0255
25642W        W25842  13.081   0.271  13.734 -0.1698 -0.0852  0.2466
25643W        W25843   4.483   4.733  11.445  0.0538  0.0112  0.0159
25644W        W25844   1.738  14.107   0.018  0.1045  0.0800 -0.3910
25645W        W25845   6.722  11.274   5.719  0.2347  0.3453 -0.2356
25646W        W25846   1.499   2.764   2.435  0.2687  0.2235 -0.0084
25647W        W25847  12.490  14.350   2.840 -0.2015 -0.1018 -0.0639
25648W        W25848   2.479   2.636  13.077  0.1481 -0.2822  0.0012
25649W        W25849   7.447   5.474  14.277  0.0152  0.0691 -0.2357
25650W        W25850   3.591   6.299  10.965 -0.0253 -0.0713  0.0983
25651W        W25851   6.966   7.126  14.628  0.1156  0.1085 -0.2276
25652W        W25852  13.621   4.418  13.344  0.2863 -0.2019 -0.3079
25653W        W25853   6.049  15.164   8.315  0.1837  0.3985  0.0055
25654W        W25854   9.005  14.320   7.838  0.0783  0.0104  0.3270
25655W        W25855  13.925   2.572   1.374 -0.1837 -0.0497  0.0302
25656W        W25856   0.395   4.243   8.145  0.1835 -0.0356 -0.2179
25657W        W25857   7.121  14.593   0.624 -0.0666  0.1449 -0.3175
25658W        W25858  11.796  11.236  14.768  0.1098 -0.3263  0.3257
25659W        W25859   4.990   6.306   0.922  0.2621 -0.1054 -0.3692
25660W        W25860   2.118   4.608  11.377 -0.0708 -0.0671 -0.0788
25661W        W25861   4.809   6.938   4.536  0.0986  0.2022 -0.1853
25662W        W25862  14.642  12.356  13.472 -0.0652 -0.0762  0.0537
25663W        W25863  11.033   3.278   3.676 -0.2336 -0.2188  0.0092
25664W        W25864   7.118  10.323  14.162  0.0470 -0.1713  0.0039
25665W        W25865   2.070  10.675   0.007  0.0532  0.0254  0.0987
25666W        W25866   9.386  13.703   1.077  0.1529 -0.1890  0.1305
25667W        W25867  10.145  10.474  14.796  0.0971  0.0876  0.0573
25668W        W25868   5.649   5.551   0.981 -0.2224 -0.0681 -0.0172
25669W        W25869  12.515  11.285   6.766 -0.2556 -0.2890 -0.1970
25670W        W25870  14.023  14.563  14.281  0.1616  0.1795 -0.0211
25671W        W25871   2.873  10.583  10.213 -0.1349 -0.1388  0.0207
25672W        W25872  11.045  10.385   7.841 -0.2728  0.0964 -0.0028
25673W        W25873  14.715  11.383   9.765 -0.0081 -0.1747 -0.0542
25674W        W25874   3.903  13.398   8.737 -0.1368  0.0736  0.3395
25675W        W25875   0.992   1.535   0.075  0.1676  0.1701  0.0346
25676W        W25876  14.146   0.779  13.780  0.1263 -0.1736 -0.0062
25677W        W25877  12.835  10.766   8.058  0.0796 -0.0816  0.3815
25678W        W25878  10.645   9.978   9.914 -0.1775 -0.2738 -0.0629
25679W        W25879  10.395   2.871   9.462  0.2190  0.2047  0.0157
25680W        W25880   1.203  14.978  11.012 -0.1537  0.4034 -0.3443
25681W        W25881  12.824   6.656   5.292  0.0817  0.0555 -0.1913
25682W        W25882  14.308  11.067  12.759  0.0172 -0.2908 -0.1000
25683W        W25883  14.055   5.155   5.415 -0.1153 -0.1093 -0.1060
25684W        W25884  11.918   9.297   9.147  0.0961 -0.0159 -0.0521
25685W        W25885   9.157  11.341   9.338  0.2877 -0.0448  0.1046
25686W        W25886   3.960   5.903   6.101 -0.1004 -0.0476 -0.0855
25687W        W25887   9.108   2.446  14.218 -0.0544  0.0929 -0.2068
25688W        W25888  12.099  12.485   6.317 -0.2274  0.0396  0.2398
25689W        W25889   0.644  10.392  13.560  0.1544 -0.0973 -0.0046
25690W        W25890   8.950   1.520  13.436 -0.1306 -0.1251  0.0982
25691W        W25891  10.803   6.170   0.629 -0.2741  0.1811  0.0600
25692W        W25892   8.921   8.068   5.273  0.2288  0.2311 -0.1318
25693W        W25893  10.630  10.343   5.277 -0.0300 -0.1356 -0.3721
25694W        W25894   3.893  14.807  12.634 -0.0076 -0.0673 -0.0252
25695W        W25895   1.947   3.612   7.074 -0.1913 -0.0985 -0.1455
25696W        W25896  12.848   7.282   8.458  0.2821 -0.0105  0.1459
25697W        W25897   4.606  11.894   8.673  0.3731 -0.0169  0.0682
25698W        W25898   2.394  13.273  12.074  0.2682 -0.2352 -0.3383
25699W        W25899   6.107  10.943   8.263  0.2283  0.6492 -0.1138
25700W        W25900   1.718   9.304   6.221  0.0891 -0.0791  0.2070
25701W        W25901  11.611   5.579   7.173  0.2751  0.3298  0.1149
25702W        W25902  14.236   2.938   7.203  0.0047  0.0543  0.4374
25703W        W25903   6.690  12.855  14.832 -0.1133  0.1413  0.0317
25704W        W25904   2.247   9.539   8.041  0.1375  0.0389  0.1040
25705W        W25905   8.315   6.796  14.701 -0.1942 -0.1015 -0.0457
25706W        W25906  12.175  13.788   2.894 -0.1654  0.0999  0.1534
25707W        W25907   4.302   8.116  11.061 -0.1793 -0.0225  0.2178
25708W        W25908   7.509   6.646  12.675  0.2090 -0.2435 -0.1268
25709W        W25909  10.653  12.930   4.769 -0.1375  0.2234 -0.1982
25710W        W25910  14.583   4.368   0.921  0.0207 -0.0296 -0.0436
25711W        W25911  11.295   8.171   3.078  0.0322 -0.0560 -0.0519
25712W        W25912   0.147   4.415  11.667  0.2265  0.0138  0.1448
25713W        W25913  14.470   6.933   5.360  0.2751  0.0850  0.3077
25714W        W25914  10.764   6.154   3.059 -0.1827  0.3259 -0.0532
25715W        W25915   1.793  13.713   0.446 -0.0881 -0.1233 -0.0257
25716W        W25916   8.879  10.641   7.912 -0.0266  0.4608 -0.1293
25717W        W25917  14.993  11.827  14.341 -0.2312 -0.0708 -0.1095
25718W        W25918   7.585  14.888   1.917  0.2628  0.1122 -0.1099
25719W        W25919  12.257  10.010  13.451 -0.1935  0.1990  0.0825
25720W        W25920   1.724   4.504   0.950  0.0654 -0.0119  0.3216
25721W        W25921   8.483   9.201   8.946  0.1279 -0.1818 -0.3785
25722W        W25922   6.237   7.764   1.497  0.0172  0.1351 -0.1617
25723W        W25923   9.939  11.654   0.594 -0.0140 -0.1294 -0.0016
25724W        W25924   7.977  12.355   0.080  0.0129 -0.0118  0.0729
25725W        W25925   7.600  10.599  12.046 -0.2820 -0.1557 -0.0139
25726W        W25926   8.417  10.610  10.201  0.4160 -0.0036 -0.0950
25727W        W25927  10.519   7.859   6.656  0.0406  0.0268  0.2299
25728W        W25928   4.889   4.420   4.628  0.0523  0.1481 -0.3451
25729W        W25929   9.939   0.391  11.584 -0.0500 -0.0069  0.1984
25730W        W25930   1.051   5.385   4.357 -0.1230 -0.0565 -0.0580
25731W        W25931   0.426   8.604   1.355  0.0977 -0.2843  0.0618
25732W        W25932  10.007   9.589   2.818  0.1007  0.1682  0.1656
25733W        W25933   1.019  11.330   7.188 -0.1552  0.1970 -0.0727
25734W        W25934  13.248   5.927  11.322  0.1277 -0.2599 -0.3582
25735W        W25935   9.721   3.321   1.425 -0.1029 -0.0692  0.0573
25736W        W25936   2.377  10.124  11.431  0.0276  0.2647  0.1033
25737W        W25937  14.774   2.997   0.683 -0.1628 -0.2340 -0.3390
25738W        W25938   9.480  11.762   2.884 -0.2547 -0.1248  0.2025
25739W        W25939   1.319   1.905   4.407  0.1475  0.0599 -0.0614
25740W        W25940  14.427  10.097  10.936 -0.1798 -0.2537  0.1482
25741W        W25941   8.509   7.317  10.064  0.1124 -0.1043 -0.0588
25742W        W25942  11.417   9.539  12.305 -0.1029 -0.0635  0.1123
25743W        W25943   4.102  11.489   7.026 -0.1892  0.1587  0.0216
25744W        W25944  13.315  11.055  13.780  0.0512  0.0006 -0.2480
25745W        W25945   7.307  15.050   8.885 -0.2184  0.0654 -0.0088
25746W        W25946  13.924  13.252  13.531  0.0120  0.1155  0.0938
25747W        W25947   3.572   3.073   0.839  0.3590 -0.0691 -0.1781
25748W        W25948   5.184   9.730   1.128  0.1667 -0.1339  0.0468
25749W        W25949  11.426   7.549  12.949  0.1211  0.1600  0.2441
25750W        W25950   1.258  12.237   2.334  0.2273 -0.2931 -0.0874
25751W        W25951   3.343   5.742  13.914 -0.0812 -0.1708  0.0058
25752W        W25952   3.031  13.318  12.766  0.0011  0.4167  0.1891
25753W        W25953   3.538   5.699   1.811 -0.1054  0.0648 -0.2595
25754W        W25954   2.437   6.333   9.933 -0.4176 -0.0834  0.0705
25755W        W25955  12.696   2.077   5.338 -0.1601 -0.1219 -0.0035
25756W        W25956  11.662   8.230  10.199  0.1011  0.0814  0.1533
25757W        W25957   4.282   6.225   4.197 -0.2032  0.0605 -0.1555
25758W        W25958   9.683  10.756  12.988  0.0365  0.2789  0.2598
25759W        W25959   9.393   0.562   7.734  0.3367 -0.2834  0.1021
25760W        W25960   8.410   4.495  13.183  0.1107 -0.2349  0.3059
25761W        W25961  12.687   6.088   4.934  0.2672  0.1436  0.0298
25762W        W25962   2.301   9.086  12.432  0.0324  0.1589 -0.1179
25763W        W25963   7.019   7.632  13.220  0.0183 -0.0102 -0.2537
25764W        W25964  10.259   8.610   5.131  0.1755 -0.1461 -0.0746
25765W        W25965   1.924   4.654  14.760  0.1759  0.0156 -0.0816
25766W        W25966   5.489   5.172  11.408 -0.1871  0.1622  0.1516
25767W        W25967  10.693  13.753   1.779  0.0227 -0.2987  0.0796
25768W        W25968  11.610  13.874   2.801  0.1665 -0.0579 -0.0828
25769W        W25969  13.963  13.632   7.475  0.2917  0.0315  0.3002
25770W        W25970   9.621   0.548  12.954 -0.0977 -0.3031 -0.1872
25771W        W25971  11.943   2.386   0.208  0.1072  0.2613 -0.0739
25772W        W25972  11.904  10.763   1.762  0.0147  0.1693 -0.1067
25773W        W25973   2.885   6.269   2.312 -0.0202 -0.0032 -0.0475
25774W        W25974   3.870   8.700   5.617  0.0647  0.0096 -0.2876
25775W        W25975   6.658   7.870  13.513 -0.1675  0.2248 -0.0654
25776W        W25976   2.034  10.073   0.753  0.1689 -0.0363  0.0213
25777W        W25977   1.712   0.230   7.203 -0.1546 -0.0791  0.3676
25778W        W25978  11.983   6.553  13.690  0.0384 -0.2145  0.0031
25779W        W25979  12.457  11.899  11.755 -0.2253  0.1057 -0.3700
25780W        W25980   5.912   9.854  14.413 -0.0967 -0.1077  0.1224
25781W        W25981   6.456   0.123   9.132 -0.0579 -0.0363  0.0282
25782W        W25982  14.544   6.361   1.780  0.3935 -0.1803  0.0225
25783W        W25983   8.197  11.489  10.748  0.0473 -0.0656 -0.1401
25784W        W25984   3.084   0.986   8.209 -0.1709 -0.0138  0.0163
25785W        W25985  13.022  12.476   9.514  0.1864  0.2496  0.0816
25786W        W25986   0.392   6.875   2.549 -0.1603 -0.0523 -0.0548
25787W        W25987   0.255   4.005  11.308 -0.1625  0.0555  0.0467
25788W        W25988  12.959   4.840   0.641  0.0043  0.1377  0.0289
25789W        W25989   2.084   9.230   8.445 -0.2752  0.0128 -0.2204
25790W        W25990   2.377   9.496  11.077 -0.1880 -0.0909 -0.0055
25791W        W25991   0.146   9.760   4.271 -0.1794  0.0321  0.2787
25792W        W25992  10.369  11.641  15.069  0.3345  0.1951  0.1766
25793W        W25993  10.801  10.371   6.279  0.1177 -0.0360  0.0465
25794W        W25994  10.897   7.360   2.700 -0.0138  0.0681 -0.1240
25795W        W25995  14.833   9.143  15.174  0.0097 -0.1956 -0.0337
25796W        W25996   1.279  10.556  10.561  0.2472  0.2037  0.2565
25797W        W25997  10.284  10.016   3.083  0.2224 -0.2438  0.2491
25798W        W25998   0.990  11.844   3.729 -0.2706  0.0722 -0.1587
25799W        W25999   0.023   2.127   6.548 -0.3188  0.1522  0.2046
25800W        W26000   9.925   5.462   4.988 -0.1835 -0.1149 -0.1079
25801W        W26001  14.290  13.401  10.190  0.0544  0.1249  0.0218
25802W        W26002  12.099   1.919  12.972  0.0656 -0.2171 -0.2670
25803W        W26003  13.334  14.078   0.413 -0.1355 -0.0245  0.1770
25804W        W26004   7.019  11.795   6.536 -0.0107  0.0868 -0.1862
25805W        W26005  10.310  11.834   9.389 -0.0428 -0.0295  0.4167
25806W        W26006   3.386   9.985   8.046  0.1325  0.0550 -0.1328
25807W        W26007  12.583  10.035   6.465  0.1354  0.0709 -0.0980
25808W        W26008  10.239  11.998   3.028  0.1361  0.1524  0.1879
25809W        W26009  11.787  11.766   3.423 -0.2216 -0.0882 -0.1728
25810W        W26010  11.362   8.889  13.109 -0.5239  0.0518  0.1833
25811W        W26011   2.858  13.540   9.620 -0.0304  0.0492  0.0059
25812W        W26012   4.374  10.445   4.751  0.1325  0.1274  0.0569
25813W        W26013  14.998   9.403   2.372  0.0354  0.0683 -0.1589
25814W        W26014   4.180   3.399   5.710  0.2830 -0.1498 -0.2800
25815W        W26015  15.162   5.300  11.333 -0.0796 -0.0956  0.2378
25816W        W26016  12.786  12.004   1.219  0.1673  0.0587 -0.1040
25817W        W26017  12.945   9.357  14.425 -0.1000  0.1311  0.2364
25818W        W26018  10.467   8.426   2.465 -0.0995 -0.2462  0.0469
25819W        W26019   0.013   6.981  11.420 -0.0937  0.0460 -0.3005
25820W        W26020  13.252   7.322  12.563  0.3664 -0.1828 -0.0281
25821W        W26021   1.257   3.602   9.281  0.4456  0.0166  0.1534
25822W        W26022   5.093   3.626  11.399 -0.1606 -0.1334 -0.1296
25823W        W26023   2.400   9.845   2.965 -0.0032  0.0942  0.1560
25824W        W26024   3.239   8.738   0.448 -0.0436 -0.0089 -0.3720
25825W        W26025   1.289   8.812   2.470 -0.1079 -0.1605  0.2214
25826W        W26026   5.447   5.508   2.136  0.1264 -0.2892 -0.3021
25827W        W26027  12.650  14.759  10.708 -0.1567 -0.1221  0.1040
25828W        W26028   2.956   6.160   1.839  0.1209  0.1152  0.1678
25829W        W26029   5.602  11.218   5.823 -0.0121  0.0476 -0.1833
25830W        W26030  10.265   9.695   5.379  0.0900 -0.0465  0.2018
25831W        W26031   3.111   7.335   7.336 -0.0459 -0.1326 -0.2851
25832W        W26032   3.829  13.969  14.446  0.0232  0.1191  0.0597
25833W        W26033   3.726  11.471   9.750  0.0600 -0.2506  0.1597
25834W        W26034   9.762   9.993   3.699 -0.2287  0.0605  0.2811
25835W        W26035   7.643   8.798   1.820 -0.0589 -0.0853  0.2368
25836W        W26036   5.276   2.152  14.534 -0.2990  0.2573 -0.2134
25837W        W26037  12.474   4.409  11.228 -0.1736  0.1296 -0.1736
25838W        W26038   7.370   6.107   3.043 -0.1656 -0.0246 -0.3798
25839W        W26039   8.866   4.103   3.047  0.0328  0.0455 -0.5811
25840W        W26040   5.520  13.708  12.462  0.0945 -0.2417 -0.0470
25841W        W26041  12.938  12.622  13.422  0.2915  0.2137 -0.2466
25842W        W26042   2.209   5.658   2.767  0.2429  0.1303 -0.0697
25843W        W26043   0.334   7.499  12.116 -0.2086 -0.1615 -0.0051
25844W        W26044   0.932  14.105   8.766 -0.0888 -0.0131 -0.0712
25845W        W26045  11.212   8.240   5.285  0.0258 -0.1505 -0.2892
25846W        W26046  14.425   0.781   4.587 -0.1388 -0.2642 -0.1351
25847W        W26047  10.953   3.046   8.576 -0.0144  0.1726  0.0956
25848W        W26048   9.442  10.319  12.128  0.1514 -0.2097 -0.0050
25849W        W26049   0.057   2.594  12.418  0.0008 -0.0673 -0.2060
25850W        W26050   3.993   7.648   1.236  0.0168 -0.0061 -0.2708
25851W        W26051   3.139  13.664   0.133 -0.2915  0.1283  0.0520
25852W        W26052   3.965  14.366   9.905  0.1248 -0.2802  0.0069
25853W        W26053   1.248  10.302  12.284 -0.0137  0.0529  0.3092
25854W        W26054   3.396   5.626  11.367  0.0003 -0.0119  0.0371
25855W        W26055   3.083   9.955   2.967  0.0454 -0.3776  0.1755
25856W        W26056   0.966  14.801   4.288  0.0087 -0.0636  0.0827
25857W        W26057  13.071  14.440   3.548  0.0373 -0.1966  0.0987
25858W        W26058   9.406  14.320   7.525  0.1955  0.1496  0.2739
25859W        W26059   8.157   6.151   0.386  0.1223 -0.4742 -0.0840
25860W        W26060   4.478   5.776   1.345 -0.1568 -0.0047  0.0967
25861W        W26061   0.751   6.125   9.807 -0.3142 -0.0277 -0.0374
25862W        W26062   9.569   7.654  14.770 -0.0975  0.0933  0.1280
25863W        W26063  13.888   3.176   1.515  0.0765 -0.0574 -0.1914
25864W        W26064  10.381  13.430   3.567  0.0724 -0.2342 -0.1521
25865W        W26065   4.478   1.844  13.091 -0.2088  0.1325 -0.2460
25866W        W26066   2.867   7.617  13.267  0.5769  0.1424 -0.1830
25867W        W26067   7.346   0.036  11.215 -0.0085  0.0988  0.0513
25868W        W26068  14.219   3.847   4.713 -0.2910  0.1400 -0.2561
25869W        W26069  12.595   2.797   1.122 -0.2520 -0.2289  0.0286
25870W        W26070  12.819  12.303  14.857  0.0233  0.1706 -0.2268
25871W        W26071   1.330   9.189   1.642  0.0741  0.1939  0.1476
25872W        W26072   6.443   1.817  13.920 -0.2430  0.1167  0.0355
25873W        W26073  12.948  13.424   1.914  0.1452  0.1138 -0.2479
25874W        W26074  11.481  13.950  13.629 -0.0028  0.0433  0.1460
25875W        W26075  11.092  13.621   7.277  0.4215 -0.1539 -0.2929
25876W        W26076   8.918   4.916  14.572  0.0789 -0.0232  0.2530
25877W        W26077   8.890   5.888   2.362  0.2140 -0.0988 -0.1449
25878W        W26078  11.622  11.508   4.253 -0.1531  0.2523  0.2723
25879W        W26079  14.079  12.718   0.705  0.1951  0.2937 -0.0189
25880W        W26080  11.133   6.510   0.407  0.0398  0.0191  0.0290
25881W        W26081  14.783   1.965  11.095 -0.1431  0.0097  0.4292
25882W        W26082   9.605  12.664   2.777  0.2119  0.3278  0.0324
25883W        W26083  11.394   9.947   8.559 -0.0946  0.2670 -0.1858
25884W        W26084   3.737   7.374   8.185  0.1195 -0.3181 -0.0972
25885W        W26085  12.840  12.917   2.605  0.0238  0.0234 -0.1186
25886W        W26086   7.779   0.417   3.486  0.2254  0.3217  0.0926
25887W        W26087   1.060   9.105   3.394 -0.0750 -0.0672  0.0894
25888W        W26088  14.566   5.129   9.920 -0.4894 -0.1750  0.2195
25889W        W26089  10.939   7.002   5.938 -0.1389 -0.0583 -0.1919
25890W        W26090   0.202   8.877  13.090  0.2061  0.1516  0.0382
25891W        W26091  11.875   0.340   9.130 -0.0008 -0.3157  0.0961
25892W        W26092   1.772  14.109  12.402  0.0374 -0.0840 -0.2384
25893W        W26093   7.675   2.250   1.797 -0.1080 -0.0401  0.2382
25894W        W26094   7.802  13.300   2.730  0.1694 -0.0333  0.1322
25895W        W26095   0.418   0.648   5.390  0.4489 -0.0950 -0.1758
25896W        W26096  11.525   1.462   2.542 -0.3616 -0.0820  0.0189
25897W        W26097   8.303  10.619   4.274  0.1052  0.0153 -0.1643
25898W        W26098   1.770  15.054  11.685  0.1735  0.1871  0.0134
25899W        W26099  13.584  13.517  14.539 -0.1988  0.2684  0.0585
25900W        W26100   9.313   8.430   8.335  0.0108 -0.1062  0.1870
25901W        W26101  10.644   1.954  11.962  0.2458 -0.4273 -0.0003
25902W        W26102  15.045   6.464  14.400 -0.2292  0.1392  0.2144
25903W        W26103  15.190  13.694   2.954  0.0809  0.0111 -0.0155
25904W        W26104   1.392  14.152   5.263  0.1810 -0.0711  0.1265
25905W        W26105  13.329  14.485   4.911  0.0616 -0.2100 -0.1477
25906W        W26106  12.849  11.519   2.159 -0.2775  0.1929  0.3280
25907W        W26107   8.920   8.330   3.283  0.1738 -0.2357  0.0742
25908W        W26108  14.551   9.108   4.209 -0.1680 -0.2601  0.1677
25909W        W26109  14.853  14.031   3.162  0.0109  0.2030 -0.2430
25910W        W26110   2.924  12.653   7.375 -0.3315 -0.3105 -0.1232
25911W        W26111   9.188   3.749   0.809 -0.0914  0.2948 -0.0939
25912W        W26112   2.001  14.109  14.705 -0.0026 -0.1663 -0.2586
25913W        W26113   0.437   4.969   3.259 -0.0070 -0.0987  0.0297
25914W        W26114   8.683  14.953  12.992  0.1241 -0.3139  0.2465
25915W        W26115   4.999   1.447   1.076  0.0015  0.0685  0.0201
25916W        W26116   0.538   0.603   2.937  0.3777  0.0448  0.2107
25917W        W26117   4.301   0.610  14.101 -0.0397 -0.0724  0.1999
25918W        W26118   4.409   0.921   4.345 -0.0663  0.0633 -0.1542
25919W        W26119  11.757   2.463   8.052  0.0169 -0.1120 -0.2634
25920W        W26120  12.694   2.033   6.980 -0.2767  0.0058 -0.1705
25921W        W26121  10.390  11.260   1.827  0.1773 -0.0200  0.2360
25922W        W26122   0.246   0.336   1.250  0.2737  0.0782  0.0811
25923W        W26123   2.373   9.385  10.554  0.1226  0.0052 -0.1509
25924W        W26124  11.260   6.214  12.156 -0.0851  0.0506  0.0373
25925W        W26125   9.570   1.634   2.406  0.2558  0.0468  0.0535
25926W        W26126   4.615  13.559   0.937 -0.0224 -0.0865 -0.0774
25927W        W26127  10.953  10.859   6.635  0.1735  0.2928 -0.2309
25928W        W26128   7.868   1.221   1.811 -0.1348 -0.1053 -0.0582
25929W        W26129   3.562   4.031   5.366 -0.0591  0.4092 -0.2070
25930W        W26130  10.803   7.615   7.066 -0.2486 -0.2488 -0.0323
25931W        W26131  12.472   1.212   4.728 -0.1720 -0.2128  0.1115
25932W        W26132   3.884   1.565  10.430 -0.0359 -0.2643  0.0611
25933W        W26133   1.691   0.221  11.328  0.1240  0.0369 -0.0063
25934W        W26134   2.009   7.664   4.530  0.1106  0.0754 -0.0830
25935W        W26135   5.932  13.504  13.949 -0.2712 -0.2340 -0.1319
25936W        W26136   4.876  14.578  12.951  0.0854 -0.3614 -0.0716
25937W        W26137   2.401   0.511   1.647  0.0541 -0.0072  0.0825
25938W        W26138  13.360  10.061   7.575  0.2514  0.0127 -0.5073
25939W        W26139   1.970   7.323  13.328 -0.0425  0.1029  0.1528
25940W        W26140   5.608   4.079  12.263 -0.0091  0.1472 -0.1207
25941W        W26141  14.793   8.266   2.400 -0.0923 -0.2815  0.1183
25942W        W26142   2.904   9.782   0.840  0.1745 -0.1194  0.0904
25943W        W26143  13.502  12.159   1.911 -0.1248 -0.1630 -0.0078
25944W        W26144   3.112  15.135   2.718  0.0119  0.4802 -0.3310
25945W        W26145  10.660  15.123  13.850  0.2727 -0.0179 -0.0300
25946W        W26146  11.852   8.908   2.881  0.0126 -0.0511 -0.4454
25947W        W26147   4.867  10.007  11.999  0.0154 -0.0917 -0.3518
25948W        W26148  13.434  14.867   2.336 -0.0338  0.0920 -0.2207
25949W        W26149   0.815   8.666   2.481 -0.1286 -0.1139 -0.1576
25950W        W26150   8.938  12.375   1.478 -0.3330 -0.2377  0.1094
25951W        W26151   2.826  14.696  10.728  0.0073  0.0186  0.3023
25952W        W26152   0.834  12.584   9.927  0.0766 -0.0507  0.1097
25953W        W26153   1.022  14.066  11.805  0.4153  0.0918  0.0683
25954W        W26154   1.527   0.333   6.722  0.1310 -0.2385 -0.0579
25955W        W26155   5.601  12.420   0.298  0.2349 -0.2041  0.0882
25956W        W26156   8.995  14.016   6.272 -0.2009 -0.3073 -0.0398
25957W        W26157  11.769   8.994  14.185  0.1340 -0.0255 -0.0381
25958W        W26158  13.772   1.767   2.818 -0.1924 -0.2960 -0.0043
25959W        W26159   3.359   7.934   4.404  0.0458  0.1333 -0.3071
25960W        W26160   7.954  13.585   3.963  0.3124  0.2070  0.0953
25961W        W26161   8.737  11.887   1.094 -0.0897 -0.1838  0.1170
25962W        W26162  11.937  14.615   7.305  0.2472 -0.1787 -0.3508
25963W        W26163   4.872   3.437   7.651  0.2524  0.0242  0.0204
25964W        W26164   1.600   2.209   6.619  0.0097  0.0532 -0.0389
25965W        W26165  14.530   1.547   4.173 -0.0910  0.3928  0.1347
25966W        W26166   0.203   4.894  15.148 -0.0003  0.1454 -0.3282
25967W        W26167   1.516   5.911  11.857 -0.1477  0.0748 -0.0716
25968W        W26168   1.664  13.926   2.300  0.0538 -0.2824  0.4278
25969W        W26169  12.756  13.700   6.436  0.1215 -0.0246 -0.0464
25970W        W26170  14.407   4.663   5.914  0.0563  0.1699  0.2227
25971W        W26171  12.883   2.207   9.291 -0.0635 -0.1699 -0.0428
25972W        W26172  10.483   1.353  14.013  0.0564 -0.2702  0.1816
25973W        W26173   5.390   2.302   1.350 -0.2798 -0.0777  0.0149
25974W        W26174  10.841  12.794   4.160  0.3007 -0.2042 -0.1491
25975W        W26175   0.040   2.324   9.875 -0.3021 -0.0947 -0.1174
25976W        W26176   3.481   9.679   2.859  0.3572 -0.2395  0.0628
25977W        W26177   0.950   3.905  13.847 -0.0511 -0.0948 -0.2460
25978W        W26178  13.423   9.317   2.456 -0.5041  0.4058 -0.1238
25979W        W26179   0.007   2.296  11.068 -0.1465 -0.3698 -0.0461
25980W        W26180  11.754   7.796  14.888 -0.0464  0.2308  0.1547
25981W        W26181  11.829   2.181   4.307  0.2449 -0.3935  0.1277
25982W        W26182  12.527   8.814   1.885  0.0867 -0.0357 -0.1866
25983W        W26183  10.655  10.549  11.122 -0.0243  0.1974 -0.1703
25984W        W26184  10.743   9.758  14.694  0.0369 -0.1154  0.2192
25985W        W26185  14.513   1.664  11.830  0.0863 -0.4995 -0.1112
25986W        W26186  10.048   9.953   5.764 -0.0746  0.3824 -0.2447
25987W        W26187   5.466  14.570   5.294  0.2062  0.2447 -0.0116
25988W        W26188  15.145  12.345   9.635 -0.0640  0.5228 -0.1220
25989W        W26189  12.154   7.326   3.205 -0.0347 -0.3194 -0.1639
25990W        W26190  12.548   5.638   1.077 -0.0975  0.1421  0.0686
25991W        W26191   9.881  12.459   3.190  0.0967  0.0327  0.3178
25992W        W26192  13.673   7.942   8.318 -0.0468 -0.0343 -0.0599
25993W        W26193  14.328  14.514  12.205 -0.0515 -0.1687 -0.3046
25994W        W26194  14.438  10.629  14.764  0.1147 -0.0506 -0.1322
25995W        W26195  12.443  12.787  12.233 -0.0305 -0.0494  0.0264
25996W        W26196   9.951   9.947   1.332 -0.2505 -0.2590 -0.1333
25997W        W26197   6.025   6.210  13.347  0.2053 -0.1328  0.1039
25998W        W26198  11.340   0.054  10.387 -0.1759  0.0784  0.1724
25999W        W26199   5.801  10.695   1.919 -0.3104 -0.3765 -0.0933
26000W        W26200  10.703  10.055  13.910  0.1920  0.0628 -0.2119
26001W        W26201   2.550  14.252  14.691 -0.0032  0.2025  0.1795
26002W        W26202   1.269  11.614   1.581  0.0946  0.1591 -0.0820
26003W        W26203  12.321   0.460   3.485 -0.2807  0.1405 -0.2001
26004W        W26204  13.047   8.343   2.133 -0.1294 -0.2426 -0.1528
26005W        W26205   7.850  12.809   9.465  0.1289  0.2164  0.2358
26006W        W26206   6.818   9.011  14.878 -0.2955 -0.0782 -0.3979
26007W        W26207  13.344   3.301  11.460 -0.2543  0.0780  0.2389
26008W        W26208   5.128  11.948   7.336  0.2055 -0.2196 -0.1671
26009W        W26209  14.869   8.333  11.552 -0.1548  0.2219  0.1439
26010W        W26210  12.550  14.110   0.183  0.1292 -0.0259  0.3858
26011W        W26211   1.315   0.121  14.400  0.3646 -0.2573 -0.1181
26012W        W26212  11.877   0.040   7.332 -0.0634 -0.1990 -0.3356
26013W        W26213  11.401   0.804  11.723  0.0719 -0.0340  0.0473
26014W        W26214   2.169  14.257  10.107 -0.0814 -0.0648  0.0957
26015W        W26215   5.427   3.113  13.131  0.2870  0.2795 -0.1255
26016W        W26216   9.668  11.558   6.716  0.1538  0.0502 -0.0941
26017W        W26217   8.878   0.569   3.328 -0.1374  0.0935  0.1052
26018W        W26218  12.923  13.939  11.302 -0.1212  0.2695 -0.0766
26019W        W26219  13.696   7.437   5.397  0.1711  0.2119 -0.2217
26020W        W26220  13.610   3.144   0.128 -0.1402 -0.1845 -0.1374
26021W        W26221   4.154  13.007  12.462 -0.2968  0.2437 -0.3813
26022W        W26222  12.379   4.354  14.398 -0.1729 -0.2754  0.1607
26023W        W26223   8.377   4.057   3.069  0.1379  0.1558  0.0052
26024W        W26224  10.179  12.061   0.374  0.1102  0.1743  0.1030
26025W        W26225   4.255   2.710  12.566  0.3581  0.1597  0.2698
26026W        W26226  12.707   5.396   1.940 -0.0746 -0.0681  0.3412
26027W        W26227  13.353  11.416   0.292 -0.0363  0.0787  0.0467
26028W        W26228  11.129  14.572  15.088  0.0509  0.2145  0.1592
26029W        W26229   0.745  14.907   0.289 -0.1539 -0.0523  0.0976
26030W        W26230  12.212   9.921  14.310 -0.0693  0.0709 -0.1441
26031W        W26231  13.806   1.215  14.599  0.0016  0.2557 -0.2639
26032W        W26232   1.266   5.098  14.925 -0.0256 -0.0895 -0.0169
26033W        W26233   0.572  13.064  12.328  0.0160  0.1377 -0.2670
26034W        W26234  11.850  14.600   2.218  0.1288  0.0371  0.3316
26035W        W26235   7.559   9.834   4.626 -0.0552  0.0305 -0.2256
26036W        W26236  14.105  12.354   0.359 -0.3124 -0.4208  0.0594
26037W        W26237   9.994   5.545   7.140  0.0512 -0.0717  0.3175
26038W        W26238   1.743   2.119   6.098  0.3729 -0.2893  0.0990
26039W        W26239  15.168  14.032   0.802 -0.1757  0.2276  0.0221
26040W        W26240   8.917   1.107   2.505 -0.0587  0.0981  0.1399
26041W        W26241  13.036  14.053  15.112  0.0128 -0.0694  0.0447
26042W        W26242   1.772   2.239  13.830 -0.1857 -0.0929  0.1384
26043W        W26243   2.099  13.064   9.954  0.0703 -0.1651  0.0382
26044W        W26244   2.452   8.165   8.751 -0.1184 -0.0786  0.1626
26045W        W26245   8.762  11.491  15.094  0.1159  0.1425 -0.2730
26046W        W26246   9.534   0.650   2.615  0.2792  0.0647  0.0641
26047W        W26247   8.227  11.836   7.931 -0.0452  0.1588 -0.2640
26048W        W26248   1.665  10.384   7.882  0.3016  0.0205  0.3351
26049W        W26249   3.924   6.529  14.157 -0.4525  0.0237  0.2026
26050W        W26250  13.630  10.337  15.083  0.1950  0.3586  0.0583
26051W        W26251   2.104  14.299  14.273 -0.2359 -0.0292 -0.0206
26052W        W26252   9.897   3.825   6.353 -0.1351  0.0287  0.2853
26053W        W26253  10.455   9.378  13.707 -0.1299  0.0309  0.0042
26054W        W26254  11.331  12.561   1.257 -0.0073 -0.1816  0.1042
26055W        W26255  13.174   0.277   3.655 -0.1545  0.3459  0.2281
26056W        W26256   4.367  15.166  12.191 -0.3761 -0.4342 -0.1938
26057W        W26257   5.754  13.650   4.346 -0.1398  0.3601 -0.1624
26058W        W26258   2.232   6.868  12.552 -0.1476 -0.0888  0.1511
26059W        W26259   4.734   0.875  13.272 -0.2440 -0.1759  0.0440
26060W        W26260  10.469   9.800   0.964 -0.1486 -0.1242 -0.0679
26061W        W26261  13.397   4.671  10.237  0.0896 -0.0030 -0.3810
26062W        W26262   6.979   5.895   1.330  0.0383 -0.3934 -0.2598
26063W        W26263  15.074   3.629   4.380  0.2442 -0.0421  0.2038
26064W        W26264  12.140  15.147  13.945  0.2715 -0.3140 -0.2080
26065W        W26265   2.160  14.692  11.904 -0.4034  0.1122 -0.1368
26066W        W26266   5.880   4.301  14.366  0.3496  0.4656 -0.0560
26067W        W26267   9.892   3.234   3.711  0.2576  0.0515 -0.0028
26068W        W26268  14.035  12.256   1.634  0.4036  0.2222 -0.5806
26069W        W26269  13.982   6.001   8.679  0.0523 -0.0401  0.0988
26070W        W26270   5.534   6.740  13.322  0.2110  0.0988  0.0712
26071W        W26271   3.622  11.312   8.529  0.1143  0.1716 -0.0571
26072W        W26272   8.674   5.563  12.667 -0.0383 -0.0092 -0.1361
26073W        W26273   9.043   6.128   1.759  0.0002  0.0287  0.0571
26074W        W26274   9.517   0.689  10.919 -0.0614  0.1388  0.0395
26075W        W26275  10.024   1.994   3.172 -0.0063 -0.0390  0.0360
26076W        W26276  14.417   0.628   1.002  0.0195 -0.1885 -0.1363
26077W        W26277  11.108  14.453   5.056 -0.2062  0.1619 -0.0090
26078W        W26278   8.958   8.643   4.582 -0.3225  0.1478 -0.3933
26079W        W26279  14.654  12.115   2.804  0.3271  0.3233 -0.0899
26080W        W26280   6.551  14.327  13.734  0.0584  0.1273 -0.0629
26081W        W26281   5.417   8.234   6.130  0.1198 -0.0325 -0.2464
26082W        W26282  10.204   1.621  10.589 -0.2341  0.0352 -0.2621
26083W        W26283  14.549   9.882   0.804 -0.3017  0.2317  0.4751
26084W        W26284   2.894  12.098   1.034 -0.0881 -0.1948 -0.0888
26085W        W26285   7.065   9.688  10.967  0.0030  0.0730  0.0244
26086W        W26286   5.086  14.402   3.839 -0.1852  0.0083  0.2836
26087W        W26287  10.581  14.933   7.231  0.1700 -0.1052 -0.1144
26088W        W26288   8.428   0.550  14.851 -0.0920  0.0124  0.2233
26089W        W26289  15.110   8.198   1.802 -0.1146 -0.1028  0.3032
26090W        W26290  10.652  14.410  13.242 -0.2713  0.0207 -0.1170
26091W        W26291   0.392  13.961  11.272 -0.3616 -0.0252  0.1304
26092W        W26292   0.146   2.497   8.467  0.2922  0.0215  0.2603
26093W        W26293  10.478  15.051   5.369 -0.1246 -0.2394 -0.2478
26094W        W26294  13.138   1.872  14.798  0.0697  0.3108  0.2597
26095W        W26295  14.067   2.794   3.634  0.2731  0.0843  0.0575
26096W        W26296   2.540   0.722   0.336  0.1088  0.2452  0.0560
26097W        W26297   3.245   8.970   8.222 -0.0049 -0.0152 -0.0546
26098W        W26298   0.433  14.429  14.691 -0.0311 -0.1145 -0.2423
26099W        W26299  12.067   2.649   8.477  0.1825  0.1954  0.3275
26100W        W26300   9.545  13.232   5.698 -0.0537 -0.0810  0.0409
26101W        W26301   2.089   6.862   8.315  0.0554  0.2194  0.0771
26102W        W26302  12.323   8.922  13.096 -0.0461  0.0072  0.1021
26103W        W26303  11.883   5.540   1.695 -0.0432 -0.1946  0.1346
26104W        W26304   2.812   3.835   8.535 -0.0919  0.0712  0.0750
26105W        W26305  13.269   8.115   2.902  0.0969 -0.0867 -0.2463
26106W        W26306   4.415  13.664   8.619 -0.2810 -0.1631 -0.2562
26107W        W26307   7.284  10.732  14.434  0.1211 -0.1668 -0.2465
26108W        W26308   5.777   1.992   1.537 -0.0478  0.2421 -0.1892
26109W        W26309  14.303  14.351   1.687  0.0985 -0.1314  0.0872
26110W        W26310  12.069  12.460   9.887 -0.2167  0.2974 -0.2114
26111W        W26311  13.705  15.106  14.902 -0.0746 -0.1701  0.0315
26112W        W26312   0.451  11.711  10.898 -0.2169  0.1053 -0.1699
26113W        W26313   7.190  10.816   2.184 -0.0069  0.2546  0.0445
26114W        W26314  12.335  14.979   7.385 -0.1180  0.3042 -0.0626
26115W        W26315   5.318  12.495   0.985  0.2620 -0.0440 -0.1104
26116W        W26316   3.062   6.391  14.361  0.0921 -0.3591 -0.0726
26117W        W26317  11.296  10.281   2.556  0.3406  0.0734  0.0126
26118W        W26318   8.393   2.459   2.518  0.0427 -0.1747 -0.0258
26119W        W26319   4.859  12.222  13.309  0.0896  0.1739 -0.0049
26120W        W26320   0.289   4.585   1.559  0.0380 -0.3443  0.1878
26121W        W26321   3.105   6.048   7.114 -0.2281 -0.1727  0.1860
26122W        W26322   6.329  12.150   7.209 -0.0748  0.2283 -0.1638
26123W        W26323  12.567  11.924  12.678 -0.1528 -0.0168  0.3819
26124W        W26324  11.882   6.227   4.173 -0.1688 -0.1734 -0.2554
26125W        W26325   0.830  14.817   4.773  0.0666 -0.1583  0.0124
26126W        W26326  13.105  10.367  15.133  0.0239  0.0817  0.0187
26127W        W26327   8.817   2.383   7.523 -0.0673 -0.0996  0.1589
26128W        W26328   2.516   2.861  13.757 -0.1303 -0.1529  0.1057
26129W        W26329  12.601   1.742   3.263 -0.3957  0.1966  0.3415
26130W        W26330   7.170   8.968   5.503 -0.6449  0.0900 -0.0350
26131W        W26331  13.335   0.337   8.173  0.0831  0.3102  0.2593
26132W        W26332  12.758   7.059  14.799  0.1062 -0.2527  0.2111
26133W        W26333   8.034   5.358   2.681 -0.0900  0.1314 -0.1265
26134W        W26334  13.767   6.330  11.163  0.0017 -0.3990  0.1061
26135W        W26335  12.912   8.724  14.280 -0.0454 -0.1806 -0.0349
26136W        W26336   8.805   1.521  14.641 -0.1827  0.1386  0.0095
26137W        W26337  11.170   3.941   0.889 -0.0066 -0.2477  0.1838
26138W        W26338  12.551  11.665   9.734 -0.0911 -0.0493 -0.1161
26139W        W26339   0.219   3.001   1.713 -0.1244 -0.2365 -0.0348
26140W        W26340  14.759  13.410   2.019 -0.0817  0.0617  0.0530
26141W        W26341   7.906   5.526  13.685  0.3830  0.0954 -0.0619
26142W        W26342  15.000   6.703   3.282  0.1882  0.2286  0.1338
26143W        W26343  11.902  10.173   7.733  0.2375  0.0284  0.2017
26144W        W26344   4.820  12.065   4.823  0.0814 -0.1396  0.0410
26145W        W26345  14.562  12.146   0.401  0.1161 -0.2096 -0.0753
26146W        W26346   4.410   4.338  14.266 -0.3780 -0.2742  0.1278
26147W        W26347   4.070   7.302  13.014 -0.1057  0.1380 -0.0814
26148W        W26348  11.836  12.941  11.049  0.2808 -0.2042 -0.0897
26149W        W26349  14.042   2.069   4.476 -0.0854 -0.2678 -0.0174
26150W        W26350   9.963  10.624   6.989 -0.0427  0.1659  0.1070
26151W        W26351   1.621  11.340   4.356  0.4509  0.1525  0.0991
26152W        W26352   8.367  10.133   3.024 -0.1818 -0.1486 -0.1580
26153W        W26353  12.703   9.212  13.088 -0.0520  0.0434 -0.3516
26154W        W26354  13.971   4.265   5.592  0.0156 -0.3066 -0.0719
26155W        W26355   7.516  11.021   5.435 -0.1794 -0.2419  0.0262
26156W        W26356   3.216  12.684  12.434  0.0832  0.1661  0.1126
26157W        W26357   0.230  13.024   0.073 -0.2496  0.0391  0.0705
26158W        W26358  13.979  12.130   9.897  0.1361 -0.1471 -0.0062
26159W        W26359   4.641   4.060  13.065  0.0329 -0.3347 -0.4440
26160W        W26360   0.367   6.253   3.164 -0.3153  0.3990 -0.1241
26161W        W26361   6.190   0.335  10.167 -0.1205 -0.0703 -0.1233
26162W        W26362  10.012  14.791   1.125 -0.1817 -0.2192 -0.0720
26163W        W26363   0.134  12.242  12.192 -0.0851  0.3310 -0.1036
26164W        W26364  11.017   9.530  13.342 -0.3509  0.1765 -0.2986
26165W        W26365  13.732  11.248  14.724  0.1210  0.1524 -0.2073
26166W        W26366   9.547   4.903   3.452 -0.1648  0.0733 -0.1104
26167W        W26367  13.891   1.430   5.690 -0.1324 -0.1476  0.1629
26168W        W26368  11.264   1.765   9.552  0.2757  0.3237 -0.0083
26169W        W26369   4.160   5.713   4.126 -0.0541  0.0782 -0.0923
26170W        W26370   2.756   6.461   0.068  0.1791  0.0392  0.1541
26171W        W26371  10.503   2.580   4.624 -0.0400 -0.0584  0.0181
26172W        W26372  12.597  10.427   8.338 -0.1906 -0.0834  0.1308
26173W        W26373  11.331  11.561   5.090  0.0810 -0.4713 -0.0546
26174W        W26374  10.635   0.484   6.737 -0.0620  0.1092  0.1050
26175W        W26375   5.962   5.088   9.407  0.1442  0.0485  0.0828
26176W        W26376  11.396  12.022   3.621 -0.1309 -0.1492  0.1295
26177W        W26377   8.240   0.101  12.817  0.0453  0.1745  0.0387
26178W        W26378   2.882  13.479  12.340  0.0637 -0.2512  0.0174
26179W        W26379   2.674   6.909   7.470  0.1980 -0.3449 -0.1673
26180W        W26380   8.692   9.214   2.491 -0.2311  0.1805  0.1169
26181W        W26381   6.470   7.675  13.079 -0.2024 -0.1503  0.2295
26182W        W26382  14.449   8.558   6.116 -0.0660  0.0160  0.3203
26183W        W26383   2.282   1.790   4.123  0.0527 -0.1874  0.6123
26184W        W26384   3.465  11.781   1.380 -0.0923  0.3016  0.0065
26185W        W26385   0.331  10.396   9.030  0.2720 -0.3065 -0.2787
26186W        W26386  11.307   0.341   5.759 -0.0514 -0.0334 -0.0555
26187W        W26387   1.069  11.198   0.674  0.0648  0.3200  0.3080
26188W        W26388   2.570  13.998   4.467 -0.2040 -0.3256 -0.1381
26189W        W26389   5.542   5.137   0.063 -0.1845 -0.0689  0.2273
26190W        W26390   1.329   8.827  14.420  0.3580 -0.0925  0.1608
26191W        W26391   1.988  15.097  14.858 -0.2243 -0.0101  0.1595
26192W        W26392   2.544   4.585   2.814  0.1373  0.1918 -0.0552
26193W        W26393  10.593   0.409   8.111 -0.1935 -0.0903  0.2792
26194W        W26394   4.248   1.149   3.847  0.0165 -0.1096 -0.0624
26195W        W26395   4.080   0.216  10.585 -0.0140 -0.0521  0.0997
26196W        W26396   2.903  13.024  14.860  0.0342 -0.1103 -0.3213
26197W        W26397   8.236  12.178  10.178 -0.1153 -0.0961 -0.2634
26198W        W26398   9.639   0.390   4.542 -0.0191  0.0689 -0.0836
26199W        W26399   6.865  14.147  14.079  0.1046 -0.0446 -0.1077
26200W        W26400   9.522  11.570   5.846  0.0137 -0.2974 -0.0323
26201W        W26401   2.720   8.559   4.649 -0.0007  0.1292 -0.0953
26202W        W26402  11.560  11.677   1.795  0.1654  0.0939  0.3499
26203W        W26403   9.172  10.551   6.912  0.1530 -0.1721  0.0476
26204W        W26404   4.472  11.397   3.110  0.0804 -0.2179  0.0167
26205W        W26405   0.429   3.694   6.716  0.2058 -0.1043 -0.3260
26206W        W26406   5.377  11.350   2.252 -0.1650  0.1048 -0.0196
26207W        W26407   9.702  12.165   4.199 -0.2178 -0.0798  0.0729
26208W        W26408   2.328   9.805  14.539 -0.0235 -0.0395  0.0745
26209W        W26409   9.220   2.957   2.447  0.1725 -0.0177  0.1211
26210W        W26410   9.151   4.465   5.698  0.2376 -0.1135  0.2039
26211W        W26411  13.503  11.924  10.010  0.0694 -0.0142 -0.0429
26212W        W26412  14.212   5.542  13.743 -0.0022 -0.1803 -0.0809
26213W        W26413   0.682   4.908   4.523 -0.0778  0.0545 -0.2376
26214W        W26414  12.323  11.355  11.746  0.1793  0.0774  0.2148
26215W        W26415  11.955   3.486  10.237 -0.0981  0.1084  0.0027
26216W        W26416  11.635   7.582   2.420  0.1922  0.0686  0.0344
26217W        W26417   7.564   0.635  14.334 -0.0716  0.0551 -0.0056
26218W        W26418  11.763   2.802  11.958 -0.1714  0.2377  0.1030
26219W        W26419  10.153   6.414   0.849 -0.1719 -0.0445 -0.3980
26220W        W26420   2.055   6.113   2.549  0.0068  0.1431 -0.0008
26221W        W26421  10.579   0.852  14.073  0.2844 -0.0724 -0.0442
26222W        W26422   5.384   1.868   0.186 -0.0202  0.1193 -0.0452
26223W        W26423   6.552   9.403   3.864 -0.0656  0.1907  0.0027
26224W        W26424   5.604   1.304   3.786 -0.0950 -0.1107 -0.3620
26225W        W26425  11.458  14.375   4.368  0.1415 -0.2197  0.0577
26226W        W26426  10.416  15.121   9.791  0.0727  0.0012 -0.2772
26227W        W26427   4.599  12.658   4.419 -0.3736  0.1029 -0.1377
26228W        W26428  11.856   3.984  15.010  0.0603 -0.3656  0.0274
26229W        W26429   6.259  10.265   0.113 -0.0922  0.1910  0.0117
26230W        W26430   9.125  14.074  13.654 -0.1244  0.3023  0.3224
26231W        W26431  13.844  11.493   0.515 -0.1197  0.0801 -0.1775
26232W        W26432   6.831   7.323  12.811  0.0036 -0.0117  0.0243
26233W        W26433   8.886  13.750   3.782  0.0477 -0.2627  0.1047
26234W        W26434  13.978   9.280   0.514 -0.2324  0.2485 -0.1034
26235W        W26435  11.785  13.336   4.229 -0.2017 -0.1647  0.0336
26236W        W26436   3.507   1.285  13.077  0.1688 -0.1785  0.0574
26237W        W26437  11.100   4.695   2.067  0.1960  0.0827  0.0887
26238W        W26438   3.058   8.516   3.301 -0.2052 -0.1536  0.2372
26239W        W26439  13.315   6.119   4.790  0.0307  0.1425  0.1683
26240W        W26440   8.814  11.479   0.442  0.2204 -0.0958  0.3634
26241W        W26441  10.355   6.337   9.814  0.2031  0.1022  0.2871
26242W        W26442  12.397   0.745   2.055 -0.2819  0.0036  0.0792
26243W        W26443   8.750  13.876   2.890  0.0630 -0.0686 -0.1231
26244W        W26444   3.506   0.459   4.347  0.0063 -0.3704  0.3544
26245W        W26445  14.944   5.804   3.562 -0.6120  0.1173 -0.4587
26246W        W26446   0.520   9.006   3.694 -0.1106 -0.0171  0.2816
26247W        W26447   0.254   6.801  14.456 -0.2143  0.0206  0.1043
26248W        W26448   2.855   6.294   7.506  0.2742  0.4983 -0.3424
26249W        W26449  12.065   7.618  12.452 -0.0731 -0.0128 -0.1096
26250W        W26450  13.335  10.769   0.959  0.1119  0.0358 -0.1849
26251W        W26451   3.448  14.434   4.278 -0.2227 -0.0811  0.1876
26252W        W26452  10.195   8.255   6.886 -0.0760  0.0747 -0.0301
26253W        W26453  12.880   7.852   6.271  0.0906  0.0007  0.2739
26254W        W26454   3.815   1.808  10.938 -0.0894  0.0902 -0.0399
26255W        W26455   6.280  11.152   2.979 -0.0034  0.1917  0.1239
26256W        W26456  11.012   2.904   2.710  0.2555 -0.0226  0.1824
26257W        W26457   0.645   9.438   6.761 -0.2291 -0.0593 -0.1054
26258W        W26458   5.988   9.911   6.452 -0.1454  0.0514  0.0061
26259W        W26459   5.170   9.288  11.610  0.0902  0.3570  0.2827
26260W        W26460   3.534   2.430   2.385  0.2265 -0.0350 -0.0030
26261W        W26461  13.380   0.931   1.533 -0.2721 -0.1353  0.0410
26262W        W26462   4.994   1.301  11.664  0.1711  0.2147 -0.1081
26263W        W26463  14.705  14.913   5.858 -0.0927  0.0404 -0.0356
26264W        W26464   0.725  10.929   4.234  0.2715  0.2520  0.1312
26265W        W26465  11.726   5.821   2.203  0.3593  0.2515  0.1050
26266W        W26466  14.053  11.422   3.705 -0.3231 -0.0074 -0.2690
26267W        W26467  10.319   1.307  13.552 -0.2138 -0.0336  0.0538
26268W        W26468   1.875   3.092   5.119  0.2228 -0.0117 -0.0187
26269W        W26469   1.205   5.206  14.448 -0.0545  0.0927  0.0519
26270W        W26470  12.852  12.685   3.494 -0.0791 -0.1296 -0.1079
26271W        W26471   2.519   3.704   9.990  0.0320  0.1050 -0.2238
26272W        W26472  12.341  10.484   5.827 -0.1561 -0.0368 -0.2311
26273W        W26473   6.654   0.637   5.276 -0.1404  0.0905  0.1599
26274W        W26474   4.207  11.621   9.879 -0.0108  0.1457  0.2298
26275W        W26475   5.147   0.296   1.363 -0.0423 -0.0856 -0.0629
26276W        W26476   5.550   7.665  12.350 -0.2509  0.4060 -0.2604
26277W        W26477  10.194   9.531   9.998 -0.1238 -0.0511 -0.1297
26278W        W26478   9.207   6.690  11.193 -0.0841  0.1005 -0.1355
26279W        W26479  12.448  10.984   0.374 -0.1626  0.1243 -0.0679
26280W        W26480  10.435   9.867   6.767  0.2557 -0.2330 -0.3973
26281W        W26481  10.690   7.271   7.621 -0.2422  0.3163  0.0815
26282W        W26482   9.310  10.845  12.617  0.0576  0.0395 -0.3390
26283W        W26483   2.761  10.766   8.058 -0.1065 -0.0343  0.0261
26284W        W26484   8.781  12.126   2.854  0.0623 -0.2519  0.3201
26285W        W26485  14.911   4.423  11.442  0.2467 -0.1878  0.1564
26286W        W26486   6.323   7.132   7.258  0.2861  0.1224 -0.0397
26287W        W26487   2.224  10.658  11.869  0.1793  0.1844  0.1112
26288W        W26488   4.105   0.062   0.559  0.1637  0.0181 -0.0820
26289W        W26489  12.694   6.460   0.384 -0.1668 -0.0118  0.0966
26290W        W26490  14.736  11.940   4.128  0.0819 -0.1580 -0.2496
26291W        W26491   6.375  11.829   3.878 -0.0416  0.4336  0.0959
26292W        W26492   4.322  12.515   0.861 -0.0197  0.1186 -0.2610
26293W        W26493   0.449  12.036  11.304 -0.1543 -0.0677 -0.1024
26294W        W26494   0.040  14.678   1.614  0.2236  0.4058 -0.1888
26295W        W26495   1.675  15.040   5.246 -0.2792  0.0761  0.2286
26296W        W26496   4.428  12.694   3.248 -0.3191  0.3208 -0.0335
26297W        W26497   8.868  12.905   9.454  0.0016 -0.1246  0.3385
26298W        W26498  11.713  12.299   6.989 -0.2961 -0.1194 -0.2289
26299W        W26499   7.686  10.086  11.667  0.0567  0.2951  0.0716
26300W        W26500  14.262   0.084   2.452 -0.1108 -0.2392 -0.1437
26301W        W26501   3.744   2.744   7.071  0.1067  0.3853  0.0568
26302W        W26502  10.274  11.563   4.447 -0.1426 -0.4602  0.0667
26303W        W26503   7.590   5.480   1.321 -0.1403  0.2074  0.0595
26304W        W26504  13.335   9.150   7.113  0.1869 -0.0672 -0.0056
26305W        W26505   1.918  10.033   3.203 -0.2071 -0.0193  0.1989
26306W        W26506  10.919   8.080   6.851 -0.2519 -0.2236  0.0138
26307W        W26507  14.849   9.078   3.756 -0.1526  0.3692  0.1400
26308W        W26508  13.947   7.001  13.310 -0.0601  0.1336  0.0946
26309W        W26509   8.875   4.486   8.496 -0.2221 -0.2439  0.0807
26310W        W26510   1.332  14.182  11.023 -0.0888  0.2102  0.2206
26311W        W26511   5.101   3.402   2.867 -0.1494 -0.0342 -0.1454
26312W        W26512   0.026   5.087   2.947  0.0462 -0.3129 -0.1602
26313W        W26513  13.975   8.766  10.293  0.0731 -0.0774 -0.2356
26314W        W26514   8.114   8.288  14.015  0.3337 -0.0211 -0.3655
26315W        W26515   4.492  11.157   6.876  0.5982  0.1597  0.0396
26316W        W26516   3.675   9.830   5.659  0.1421  0.2647 -0.1997
26317W        W26517  11.033   9.523   6.931  0.1699  0.0450 -0.1168
26318W        W26518  14.414   7.608  11.265  0.1359  0.1593  0.0404
26319W        W26519  12.122   5.841  14.412 -0.2623 -0.1119  0.0779
26320W        W26520   2.513  11.798   5.250  0.1019  0.0857 -0.0326
26321W        W26521   1.700  11.831   0.061  0.0040  0.0613 -0.1194
26322W        W26522   1.841   4.486   4.925  0.1816 -0.0064 -0.0328
26323W        W26523   8.634  14.712  12.507  0.1636 -0.2290 -0.2242
26324W        W26524  14.038  10.068   3.137 -0.1548 -0.3345 -0.0040
26325W        W26525   1.310   0.168   2.570  0.0257  0.1932 -0.0432
26326W        W26526   2.812   5.042   8.102  0.2447  0.0157 -0.1718
26327W        W26527  10.899  14.642   1.815 -0.0551  0.1523  0.3083
26328W        W26528   7.418  14.054   6.117  0.1527 -0.1493  0.3150
26329W        W26529   8.250   5.211  12.883 -0.3466 -0.3042  0.0022
26330W        W26530   8.725   1.600   3.399  0.0145 -0.1878  0.0698
26331W        W26531   8.328  10.547   0.201 -0.0998  0.3090 -0.1084
26332W        W26532   5.792   6.210  10.077  0.0775  0.3097 -0.1682
26333W        W26533  13.602  11.036   3.693 -0.0755  0.0445 -0.2316
26334W        W26534   6.153   8.756   3.961  0.1997  0.3839  0.0493
26335W        W26535  11.466   3.836  13.608  0.0271 -0.1256 -0.1644
26336W        W26536   9.016   4.022   6.036 -0.1305 -0.4827 -0.1661
26337W        W26537  10.212   3.627   1.966 -0.1589  0.0906 -0.2660
26338W        W26538  13.326  14.248   3.967 -0.0373 -0.2704  0.0602
26339W        W26539   3.918  11.865  10.227  0.0530 -0.1911  0.1452
26340W        W26540  10.668   2.169   9.092 -0.1193 -0.1122 -0.1719
26341W        W26541   4.265   9.634   8.618 -0.2465  0.2975 -0.0447
26342W        W26542   2.176   4.371   6.925  0.0123  0.2168 -0.2834
26343W        W26543  10.902  11.366   3.103  0.2953 -0.1952  0.1253
26344W        W26544   8.451  10.508  11.249 -0.0933  0.0028  0.1188
26345W        W26545   5.524   4.736   6.578  0.1355  0.1917 -0.2655
26346W        W26546   9.185   2.668   0.689  0.0667 -0.1194  0.1552
26347W        W26547  12.980  11.077   0.309  0.0945  0.0458  0.1237
26348W        W26548  12.632   4.281   4.753 -0.1245 -0.1056 -0.0428
26349W        W26549  11.355   1.532   3.754 -0.2523  0.3404  0.0187
26350W        W26550   2.325   9.607   2.434 -0.1209 -0.1196 -0.1305
26351W        W26551  10.639   0.573   9.026  0.0797 -0.0894  0.1299
26352W        W26552  10.525   9.314   7.011 -0.0309  0.3113  0.3175
26353W        W26553   2.208  11.875   2.022  0.0338 -0.0192 -0.1540
26354W        W26554   6.870  12.753  10.169  0.0480  0.0748  0.0204
26355W        W26555   5.717   4.839   2.932 -0.1268  0.0761 -0.3016
26356W        W26556   0.537   4.649   0.270 -0.2322  0.0414 -0.0835
26357W        W26557  15.119  13.506  12.859  0.0651  0.1798 -0.0402
26358W        W26558   4.204  14.932   0.246 -0.0552 -0.2201  0.0164
26359W        W26559  12.114   5.861   7.035  0.0239 -0.1936  0.0704
26360W        W26560  14.903   8.104   7.515  0.0984  0.5185  0.1909
26361W        W26561   6.844  12.385   2.942 -0.2288  0.1415 -0.0479
26362W        W26562   2.625   5.345   5.626  0.1662 -0.0841 -0.1940
26363W        W26563  10.623   0.759   3.685  0.2136 -0.3767  0.1394
26364W        W26564   4.585   7.849   1.993  0.0520  0.0428  0.0440
26365W        W26565  10.684   0.671   5.911 -0.1383 -0.0142  0.1817
26366W        W26566  12.057   5.939   0.596  0.0095 -0.2764 -0.1129
26367W        W26567   8.410   2.377   0.354 -0.0307  0.2895  0.0878
26368W        W26568  14.950   2.293   4.643  0.1865  0.1211 -0.0732
26369W        W26569   9.243  10.002   7.393  0.2983  0.1643  0.1957
26370W        W26570   2.307   8.249   5.556  0.0011 -0.3428 -0.2951
26371W        W26571  11.401   1.977   5.961 -0.0223  0.0909  0.0864
26372W        W26572  11.370   5.735   1.400 -0.0979 -0.0344 -0.0529
26373W        W26573   7.322  10.942   7.618  0.0810  0.1221 -0.0144
26374W        W26574  11.725  14.193  11.710 -0.1564  0.3350  0.3609
26375W        W26575   1.892  11.639   8.443 -0.0082  0.0068 -0.0163
26376W        W26576   9.561   7.099   2.948 -0.0766 -0.2293  0.1298
26377W        W26577   0.455   4.174   6.484  0.4146 -0.1363  0.1713
26378W        W26578   0.487   2.740  14.939 -0.1983  0.2088  0.0275
26379W        W26579  10.755   8.895   3.427  0.2716  0.2604 -0.0612
26380W        W26580  14.167  13.159  12.140 -0.1346  0.1736  0.3036
26381W        W26581   6.905   0.569  15.155  0.0819 -0.0824 -0.1151
26382W        W26582   1.693  13.653  12.651  0.0785 -0.2238 -0.1382
26383W        W26583   9.527   6.458   9.476  0.0869  0.1980 -0.2085
26384W        W26584  13.391   0.985  10.924 -0.0813  0.1131 -0.2500
26385W        W26585   6.498   2.179  11.459  0.0160 -0.2385 -0.1389
26386W        W26586  10.601   2.642  11.869 -0.0223 -0.0598  0.2466
26387W        W26587   2.781   7.123   9.526 -0.0045  0.1696  0.1986
26388W        W26588  10.457  14.732  11.257 -0.2304 -0.0837  0.1998
26389W        W26589  11.952   6.915   3.566 -0.3021 -0.1892 -0.1351
26390W        W26590  10.822   0.128   5.134 -0.1145  0.0733 -0.1468
26391W        W26591  11.535  14.409   6.961 -0.0464  0.0224  0.1511
26392W        W26592   0.968   7.658   6.738 -0.2737 -0.1561  0.0977
26393W        W26593  11.724  11.605   8.133  0.1952 -0.1229 -0.1103
26394W        W26594   0.166   0.202   5.796  0.1680  0.1146 -0.0256
26395W        W26595  10.582  14.669   6.822  0.1712  0.1160  0.4492
26396W        W26596   5.050  10.142  10.810  0.1577  0.1547 -0.4935
26397W        W26597  12.875  10.900   6.527 -0.0691 -0.1973  0.0508
26398W        W26598  10.955   8.797  12.097  0.0971 -0.0772  0.3176
26399W        W26599  14.831  14.649  12.253 -0.1231 -0.2478 -0.0097
26400W        W26600   4.543   2.099  11.489  0.1905 -0.4039 -0.2214
26401W        W26601  10.715  10.944  12.559  0.1564 -0.0130 -0.1784
26402W        W26602   0.437   7.722   1.316 -0.0997 -0.1504 -0.0613
26403W        W26603   1.737   0.615   8.387  0.0968  0.1119  0.2177
26404W        W26604   9.283   2.427   2.571  0.0301  0.1599 -0.1569
26405W        W26605   3.035  12.175   0.323  0.2595  0.0774  0.2011
26406W        W26606  13.055  12.586   7.146 -0.0709  0.2299 -0.2554
26407W        W26607   2.250  13.670  11.184  0.0448  0.0053 -0.1880
26408W        W26608   9.101  13.915   7.382  0.1823 -0.2146  0.2268
26409W        W26609  13.769   4.092   6.534  0.1960 -0.0094  0.1326
26410W        W26610  14.851   9.426  14.124 -0.1663 -0.0170  0.1475
26411W        W26611  11.438  13.354   5.437  0.1055 -0.0478  0.1568
26412W        W26612   6.620  13.531  13.285 -0.1792 -0.0771  0.0978
26413W        W26613   8.387   8.615  11.047  0.1410  0.0468  0.0273
26414W        W26614  13.023   2.682   4.412  0.2382  0.0688 -0.1430
26415W        W26615  11.292   9.156  15.192  0.0919  0.0167  0.0996
26416W        W26616   1.353   6.391  10.039  0.1028 -0.2669  0.0706
26417W        W26617   9.752  11.777   6.281 -0.0472  0.2828  0.1087
26418W        W26618   0.623  10.045  10.960 -0.0559 -0.1842 -0.1416
26419W        W26619   5.905  10.189   2.590  0.2330 -0.2175  0.2752
26420W        W26620   9.894   4.505   1.657  0.1638 -0.1295  0.0126
26421W        W26621   8.814   2.378   3.326  0.3433 -0.2616  0.1577
26422W        W26622   1.847   8.108   5.430  0.1040  0.1762  0.1101
26423W        W26623  13.404  11.900  12.817  0.1101 -0.1384 -0.1986
26424W        W26624  11.189  14.409  12.104 -0.0780  0.1269 -0.0188
26425W        W26625  13.999   0.242   1.643 -0.1763 -0.0169  0.0481
26426W        W26626   3.438   2.246  11.527 -0.1148 -0.0579  0.0052
26427W        W26627   7.553   5.630   9.861 -0.1992  0.1749 -0.0674
26428W        W26628  10.736   6.578  12.847  0.1845 -0.4761  0.0661
26429W        W26629  11.803   6.654   0.992  0.1252  0.0207 -0.3667
26430W        W26630  13.264   6.183   7.173  0.0840  0.4502  0.1842
26431W        W26631   3.715  14.573   8.284 -0.1987 -0.1238  0.4485
26432W        W26632  14.150  14.940  15.148 -0.1333  0.0575  0.1069
26433W        W26633   1.908   2.177   0.227  0.1413  0.1612 -0.4277
26434W        W26634   8.365  13.956  13.336  0.0140  0.1201 -0.2361
26435W        W26635   6.874   3.376   9.873  0.0472 -0.0093 -0.0530
26436W        W26636  10.318  11.522   7.514 -0.3026 -0.1562  0.0333
26437W        W26637   9.522  10.341   8.700  0.0057  0.0557 -0.0005
26438W        W26638   2.650  14.959   2.884  0.0595 -0.6785 -0.2135
26439W        W26639  14.412  10.837   4.110  0.3124  0.2353 -0.0646
26440W        W26640  10.008   7.006  11.722  0.1780 -0.3070  0.1334
26441W        W26641   9.764  14.163   6.324 -0.0195 -0.2881  0.2218
26442W        W26642   0.902  13.466   6.859 -0.2496 -0.1073  0.3435
26443W        W26643  14.815   8.706  13.569  0.0315  0.2387  0.1921
26444W        W26644   3.726  12.376   3.921  0.1748 -0.1148 -0.0118
26445W        W26645  12.533  13.783   9.099 -0.0599  0.0863  0.2759
26446W        W26646  13.867   1.597   9.447 -0.0404  0.1351 -0.2910
26447W        W26647   5.915   0.753   8.112  0.3530  0.2657  0.2469
26448W        W26648   9.184  12.633   1.106 -0.0275 -0.0919 -0.1798
26449W        W26649   4.521  12.591   7.692  0.0196 -0.1946  0.1579
26450W        W26650  14.844   9.647   9.300  0.0896  0.1182  0.1402
26451W        W26651  12.933  14.530  14.269  0.1436 -0.4864  0.0901
26452W        W26652   1.633   3.484   5.377  0.2407  0.0086  0.2600
26453W        W26653  11.315  11.954   8.292  0.0600 -0.0389  0.0318
26454W        W26654  13.455  13.396   1.177 -0.1574  0.0985  0.0474
26455W        W26655   4.830   1.076   4.123 -0.2503 -0.0230 -0.0632
26456W        W26656   3.777   5.342   1.204 -0.0418  0.2698 -0.0131
26457W        W26657   7.021   6.504   5.225 -0.3196 -0.1433 -0.2830
26458W        W26658  14.759   4.944   6.073 -0.2482 -0.0832  0.1445
26459W        W26659  10.739  11.653   1.957  0.2267  0.1066 -0.1127
26460W        W26660   1.018   2.191   0.863  0.0015 -0.2134 -0.1072
26461W        W26661  11.109   3.023  10.097 -0.0712 -0.1565  0.1069
26462W        W26662   0.631   1.515   5.492 -0.0442  0.1139  0.0516
26463W        W26663   7.603  14.738   6.706  0.0445 -0.2110 -0.0912
26464W        W26664  10.594  13.266   7.930 -0.1281 -0.1384 -0.0919
26465W        W26665   3.561  12.154   9.143 -0.1318  0.2010 -0.1578
26466W        W26666  11.132   6.790   9.183 -0.0011 -0.1064  0.2776
26467W        W26667  13.750   8.941   7.254 -0.2523 -0.0331  0.0378
26468W        W26668   6.744   6.450   0.493  0.1827  0.0834 -0.4322
26469W        W26669  13.430   7.680   3.099 -0.0313 -0.0794  0.1643
26470W        W26670  12.727   7.358  13.454  0.1626 -0.1860 -0.1005
26471W        W26671   1.789  12.580   9.428  0.1634 -0.0833 -0.1229
26472W        W26672  12.250   9.137   3.196 -0.0690 -0.0492  0.2033
26473W        W26673  11.967   9.882  10.998 -0.0579 -0.0541  0.1042
26474W        W26674  12.575   9.330   0.707 -0.1186  0.1148 -0.2744
26475W        W26675   9.362  13.065   7.189 -0.2229 -0.0438 -0.0800
26476W        W26676  13.199   0.680   7.703 -0.0869 -0.3108 -0.1299
26477W        W26677  14.277   7.525  10.286  0.1396  0.0553 -0.0583
26478W        W26678   1.030   8.692  13.514  0.2149 -0.0108  0.1520
26479W        W26679  11.536   6.215   5.005  0.2167  0.1135 -0.2000
26480W        W26680   5.754  12.422  10.442 -0.1564  0.0271  0.1385
26481W        W26681  10.863   8.674  13.082  0.0460  0.1131 -0.3462
26482W        W26682  11.525  11.896   8.758 -0.2513  0.1603  0.1865
26483W        W26683   0.040  14.248  10.883  0.1912 -0.2101  0.2342
26484W        W26684   9.826   8.102  15.056 -0.1331  0.0084 -0.0156
26485W        W26685   9.612   7.226  14.199 -0.2228 -0.2503 -0.0951
26486W        W26686  12.457  14.050   3.240 -0.0637 -0.1784 -0.0994
26487W        W26687   9.809  13.334   4.103  0.0976 -0.0410 -0.0605
26488W        W26688  12.001  12.708   5.447 -0.0539  0.1491  0.0473
26489W        W26689   6.432   6.644   8.067 -0.1564 -0.1495  0.1203
26490W        W26690   1.291   9.335   2.709 -0.0426  0.0604 -0.0053
26491W        W26691   8.319  10.622  12.346 -0.3031  0.0445 -0.1715
26492W        W26692  14.840   2.297   3.267 -0.0520 -0.0551 -0.4936
26493W        W26693   0.967   1.686  11.405  0.1971 -0.0501 -0.2246
26494W        W26694  15.135   3.342   1.450  0.1385 -0.0292  0.3165
26495W        W26695   1.372  13.488  11.727  0.0186  0.2565 -0.2673
26496W        W26696  12.578  12.953   1.341 -0.2641  0.0937  0.0136
26497W        W26697  14.773  14.717   1.344  0.1264 -0.1163 -0.3569
26498W        W26698   4.313  12.841   2.713 -0.1535 -0.0914 -0.1757
26499W        W26699  12.455   1.549  14.763  0.3618  0.2348  0.0061
26500W        W26700   0.371  10.926   7.190 -0.0553 -0.0668  0.1736
26501W        W26701   2.433   5.182  11.079 -0.4344  0.0309  0.2462
26502W        W26702  14.143   3.448   5.029  0.1533 -0.2424  0.0087
26503W        W26703   4.369  10.519   5.668  0.1291  0.0522  0.0123
26504W        W26704   2.713   7.434   0.414  0.5108  0.0143 -0.1148
26505W        W26705  11.813   8.240   1.122 -0.4875  0.2743  0.0795
26506W        W26706   8.486  11.437   3.230  0.0657  0.0642  0.0740
26507W        W26707  10.439   7.764   4.053  0.0879 -0.2524  0.2733
26508W        W26708   9.287   3.765   9.971  0.0047  0.2523  0.0130
26509W        W26709  11.427  12.168   0.012  0.0581  0.1582 -0.1935
26510W        W26710  11.113   4.328   6.183 -0.1220 -0.0545  0.1492
26511W        W26711  12.896   1.691   9.251  0.0478  0.0653  0.3116
26512W        W26712   8.508   1.253   8.531  0.3080 -0.0469 -0.4224
26513W        W26713  14.738   1.258  11.581  0.0989  0.0372 -0.2304
26514W        W26714   6.002  12.580   2.507 -0.1579  0.1824 -0.2597
26515W        W26715  10.534   0.727  12.107 -0.1124 -0.0110 -0.4015
26516W        W26716   0.148  14.055   5.195 -0.2249  0.1384 -0.0038
26517W        W26717  12.374  11.880  13.701  0.2833  0.1869 -0.1436
26518W        W26718   3.278   1.208  14.978  0.4550  0.0918  0.0349
26519W        W26719   7.058   9.467   2.865  0.1163 -0.0490  0.2788
26520W        W26720   0.419   3.151   6.363  0.2562 -0.1866  0.1524
26521W        W26721  13.002  13.776  11.908 -0.0094  0.0113  0.1807
26522W        W26722  14.102  14.214   8.354  0.1348 -0.2430 -0.0574
26523W        W26723   2.865   7.811   6.506  0.1122 -0.0503 -0.1076
26524W        W26724   1.443  12.442  11.181  0.2015 -0.0027  0.1210
26525W        W26725  14.657   2.906   9.906  0.1484 -0.0549  0.1567
26526W        W26726   0.247  11.983   7.613  0.1623  0.1056 -0.1981
26527W        W26727   2.275   0.372   2.426 -0.0484  0.2598  0.2643
26528W        W26728   8.288  11.400   2.242  0.2311  0.0788  0.2269
26529W        W26729   4.763  11.491  12.016 -0.1476  0.0162  0.1244
26530W        W26730  14.234   2.233  11.886  0.3204 -0.1060  0.3436
26531W        W26731   9.535   6.839   9.876 -0.1047 -0.0169  0.3153
26532W        W26732   1.535   7.239  14.074  0.0590  0.3588 -0.2563
26533W        W26733  12.404   2.927   4.075  0.1447  0.1167 -0.1854
26534W        W26734   2.088   5.376  15.139 -0.0569  0.0464  0.0682
26535W        W26735   7.021   2.980   7.149  0.2871 -0.0630  0.2514
26536W        W26736   5.508   9.306   5.769 -0.2122  0.6054 -0.0254
26537W        W26737  12.917  13.674   6.928 -0.0090 -0.2546 -0.2459
26538W        W26738   6.589   8.873   6.532  0.1234  0.4299 -0.0592
26539W        W26739   1.562  12.807  12.458 -0.0039  0.4028  0.0948
26540W        W26740   7.329   0.920  13.440 -0.1369  0.1785 -0.1822
26541W        W26741   6.680   0.294   6.111  0.0082  0.3069 -0.2123
26542W        W26742   7.960   6.647   4.823 -0.2363 -0.0072 -0.2448
26543W        W26743  14.949   8.990   7.068 -0.3315 -0.0739 -0.1840
26544W        W26744   9.915   2.357  14.160  0.0782 -0.0066 -0.0644
26545W        W26745   8.268   3.445  10.032 -0.0173  0.0382  0.3410
26546W        W26746  12.147  13.455   6.060 -0.1061  0.1490  0.1315
26547W        W26747   5.517  13.783  11.560 -0.0159  0.0513  0.0094
26548W        W26748  10.949  10.458  12.466 -0.1376  0.1844  0.0105
26549W        W26749  12.884  10.315   7.751  0.0765 -0.0237  0.6569
26550W        W26750   0.817  13.667   6.165 -0.0872  0.0187  0.1230
26551W        W26751  13.542  10.440   5.563 -0.0855  0.1300  0.1438
26552W        W26752  11.392  15.155  11.043 -0.1293  0.0733 -0.1219
26553W        W26753  14.695   6.071   6.981 -0.0714 -0.0563 -0.1597
26554W        W26754   0.049  13.981  13.461 -0.0192 -0.0208 -0.0222
26555W        W26755   3.360  10.122   5.113 -0.1230  0.0937 -0.2509
26556W        W26756  10.573   8.547   1.482  0.0986  0.0731  0.1697
26557W        W26757  10.703  11.164  13.449 -0.0620 -0.0629 -0.3718
26558W        W26758  13.183  14.707   9.280 -0.0171 -0.1730 -0.0402
26559W        W26759  13.739   8.508   0.851 -0.2364  0.0086  0.0806
26560W        W26760   5.583   4.418   4.159  0.0948  0.3993 -0.4065
26561W        W26761  14.765  14.691   4.715  0.1409 -0.2752 -0.0720
26562W        W26762  12.424   1.995   1.573 -0.1127 -0.0326 -0.0213
26563W        W26763   7.630   9.419   0.965 -0.3575  0.1957  0.0564
26564W        W26764  14.733  14.297  10.819  0.0542 -0.0130  0.1546
26565W        W26765   7.616  14.450   5.805  0.1060  0.1621 -0.0870
26566W        W26766  13.083   4.798  10.699  0.0165 -0.0887  0.0048
26567W        W26767  12.579   3.916   7.982 -0.1369 -0.0456  0.2318
26568W        W26768  14.711   0.818   1.394 -0.2257 -0.2924 -0.0533
26569W        W26769   1.049   9.878  11.149  0.1565 -0.2501  0.0404
26570W        W26770  14.388  10.799  14.319  0.3140  0.1947 -0.1479
26571W        W26771   1.969   3.084   0.332 -0.1767  0.1460 -0.0154
26572W        W26772   0.980  10.163   3.097 -0.1172  0.2205 -0.0731
26573W        W26773   2.481   8.052   6.634 -0.2376 -0.0889 -0.0735
26574W        W26774  11.229  10.596   7.019  0.2082 -0.3582  0.3385
26575W        W26775  12.454  11.662   1.991  0.1581 -0.0868 -0.0095
26576W        W26776   2.061   9.484  14.236 -0.0121 -0.1532 -0.3521
26577W        W26777   5.054   9.983  13.866 -0.1560 -0.2569  0.0916
26578W        W26778  11.834   0.961   2.371 -0.2046  0.3641  0.2536
26579W        W26779   1.839   0.279   7.659 -0.1144 -0.0029  0.0248
26580W        W26780   4.628   2.289   4.953  0.1103 -0.1238  0.0287
26581W        W26781   7.258  10.960   7.015  0.0415  0.1180  0.0300
26582W        W26782  12.068   4.569   6.523  0.4942 -0.1718 -0.3070
26583W        W26783  12.982   5.202   2.293  0.4373  0.2808 -0.0934
26584W        W26784   7.739  11.013  11.761  0.2233  0.0586 -0.1791
26585W        W26785   9.318   0.193  10.870  0.0265  0.1021 -0.2521
26586W        W26786   8.700   6.721  14.297  0.3443  0.2280  0.2116
26587W        W26787  14.045  11.325   7.523  0.0769  0.2685  0.2878
26588W        W26788  13.958   7.568   4.937 -0.2910  0.0990  0.0511
26589W        W26789  11.303  10.243   4.454  0.0458  0.0938  0.1556
26590W        W26790   1.517   8.932   4.223  0.0631 -0.0233  0.2917
26591W        W26791   0.084   8.576  10.098  0.0100 -0.0171  0.1616
26592W        W26792   1.899  14.555   3.348  0.2141 -0.3178 -0.0089
26593W        W26793   2.860   9.479  10.726  0.1404  0.0728 -0.2750
26594W        W26794  14.605   5.938  15.082 -0.1137 -0.1010 -0.1522
26595W        W26795   1.177   9.647   0.755  0.2909 -0.1056 -0.0114
26596W        W26796   2.218  12.437   6.533 -0.0300 -0.2140 -0.2621
26597W        W26797  13.803   4.925   0.789  0.3319 -0.1419 -0.1166
26598W        W26798   6.519  11.938   6.289  0.0053  0.2716 -0.0547
26599W        W26799  14.986   0.288   6.608 -0.1288 -0.0914  0.0299
26600W        W26800  14.388   1.005  11.254 -0.0951 -0.1537  0.4304
26601W        W26801   2.368   8.461   8.380 -0.0925 -0.2886  0.2853
26602W        W26802  11.714   8.161   1.729  0.2794 -0.0042 -0.1021
26603W        W26803  12.179   1.893   7.076 -0.0699 -0.0481 -0.0158
26604W        W26804   3.195  11.247  13.680  0.2224  0.0575  0.0704
26605W        W26805  10.864  10.948   3.277 -0.0595 -0.0482  0.2653
26606W        W26806   0.753   1.555  12.310 -0.1521  0.1830  0.1378
26607W        W26807   6.529  10.140   0.581  0.2567  0.2751  0.2859
26608W        W26808  13.336   1.624   3.250  0.0360 -0.2542  0.1667
26609W        W26809  10.287   0.252   0.162 -0.0059 -0.2039  0.0041
26610W        W26810   6.128  10.518  11.676  0.2572  0.1346 -0.4829
26611W        W26811   2.233   8.466   5.955 -0.4073 -0.0943 -0.0081
26612W        W26812  13.371  12.818   9.686 -0.2271  0.1036 -0.0495
26613W        W26813   7.633  12.748   4.980  0.2329  0.3601 -0.0634
26614W        W26814   0.459  11.412   1.970  0.2105 -0.1083 -0.1168
26615W        W26815   0.838  14.423   0.525 -0.4241  0.1193 -0.3223
26616W        W26816  12.034  10.056   9.308  0.1641 -0.1435  0.0597
26617W        W26817   2.796  10.742   1.047 -0.0614  0.0466 -0.1274
26618W        W26818   1.041  11.688  11.786 -0.1681 -0.0617 -0.2302
26619W        W26819  13.226   0.799   4.589 -0.1449  0.2476  0.2068
26620W        W26820   3.515  12.399  14.287  0.2404 -0.1837 -0.2658
26621W        W26821   7.038  13.491   2.252 -0.3790  0.3876  0.2158
26622W        W26822  13.711   1.360  11.736  0.1120  0.2290 -0.2943
26623W        W26823   9.916  14.916   9.551  0.0841 -0.1177 -0.0138
26624W        W26824   8.873   9.219   9.307  0.4274  0.2337 -0.2745
26625W        W26825  11.166   9.576   7.999  0.2591  0.0669  0.0272
26626W        W26826  13.024  10.462   8.643 -0.0243 -0.0076  0.0837
26627W        W26827   6.587   5.821  10.754  0.0702 -0.0043 -0.1612
26628W        W26828  10.434   8.770  10.866  0.1895  0.0113 -0.2204
26629W        W26829   7.999   1.588  13.762  0.0747 -0.1523  0.1387
26630W        W26830  10.691   9.995   5.664  0.0725 -0.0788 -0.0488
26631W        W26831   6.990  13.174  13.195 -0.0401 -0.0348 -0.0105
26632W        W26832  11.540   0.467   0.266 -0.1160 -0.1438  0.0375
26633W        W26833   4.084  12.341   0.348  0.3420  0.1500 -0.0703
26634W        W26834   1.768   3.746   3.325 -0.0561 -0.0161 -0.1607
26635W        W26835   8.197  14.766  10.234 -0.0528  0.0395 -0.1570
26636W        W26836   0.502  13.673   6.650 -0.3186  0.2591  0.2177
26637W        W26837   9.629  13.822   7.477  0.1761  0.0441  0.1781
26638W        W26838   9.210   2.117   7.121  0.2775  0.1848 -0.3343
26639W        W26839  12.798  13.487   8.262 -0.2416 -0.1908  0.1266
26640W        W26840   8.647   9.332   6.693  0.0904 -0.0486  0.0394
26641W        W26841  12.981   3.400  11.050 -0.3077  0.2220 -0.2891
26642W        W26842   3.942   9.358  14.850  0.0436  0.4040 -0.0966
26643W        W26843   0.334   8.417  10.937  0.1111 -0.0480 -0.0605
26644W        W26844  14.506   9.777   3.276 -0.2880  0.1481 -0.2129
26645W        W26845  14.987   2.727   5.193  0.0586 -0.1166  0.0922
26646W        W26846   1.353   1.463   1.568  0.1662  0.2509 -0.1745
26647W        W26847   6.483  10.643   3.195 -0.0373 -0.1343  0.0589
26648W        W26848   7.415  12.983   7.069 -0.1344 -0.0806  0.1402
26649W        W26849   2.009   1.032   2.545 -0.0422  0.1745  0.2105
26650W        W26850  12.621   2.615   0.642  0.0687  0.0575 -0.0530
26651W        W26851  12.511   9.729   3.648  0.1119 -0.0132  0.0831
26652W        W26852  12.678   4.350   5.774 -0.0156 -0.1328  0.0623
26653W        W26853   7.183   5.048  11.263  0.2099  0.2692 -0.2149
26654W        W26854   0.632   7.661   3.331 -0.2489 -0.4844 -0.0866
26655W        W26855   7.980   2.577   1.938 -0.0520  0.2190 -0.1147
26656W        W26856  12.682   1.396  12.493  0.0985 -0.2398 -0.3271
26657W        W26857   4.091   0.295  11.089  0.0210 -0.1312  0.4448
26658W        W26858  10.346   9.392  11.703  0.0417  0.1261 -0.1319
26659W        W26859  13.548  11.946   4.759 -0.3204 -0.0892  0.1370
26660W        W26860  13.090  13.423   6.063 -0.1839  0.0212 -0.1171
26661W        W26861  10.604  10.250   8.221  0.1398 -0.0782 -0.1038
26662W        W26862  14.796  12.501  14.846 -0.0943  0.0477 -0.1805
26663W        W26863  14.036  11.919   6.734 -0.0626 -0.1590 -0.1166
26664W        W26864  14.877  12.963   4.064 -0.1546  0.0357  0.0671
26665W        W26865  10.516   4.055  14.484 -0.1324  0.2168  0.0322
26666W        W26866   7.111  10.793  15.181  0.1869  0.2047 -0.1456
26667W        W26867   8.313   0.205   4.420  0.3878  0.1747  0.1404
26668W        W26868  10.920   1.304   0.527  0.0049 -0.2568  0.0776
26669W        W26869  13.168   1.056   4.163 -0.1329 -0.0575 -0.1472
26670W        W26870   0.364  14.248   6.988  0.1104 -0.1265  0.2154
26671W        W26871  11.435   6.424   6.590  0.3656  0.2947 -0.1082
26672W        W26872  10.477   1.236   3.528  0.1228  0.0592 -0.4231
26673W        W26873   9.765   8.342   7.561 -0.1175  0.1978 -0.0015
26674W        W26874   0.559   2.814   8.610 -0.0175  0.1260  0.2128
26675W        W26875   1.930  12.961   9.002 -0.1574  0.1723 -0.1176
26676W        W26876  13.549   6.672   7.080 -0.0610  0.1845 -0.1921
26677W        W26877   0.449   1.994   5.420 -0.1103  0.1591  0.1786
26678W        W26878  14.786   0.275   5.815  0.2166  0.0095 -0.2826
26679W        W26879  15.064   9.262  11.835  0.1004  0.0794 -0.0133
26680W        W26880   1.527   9.936   4.072  0.0796 -0.2652  0.0095
26681W        W26881   4.774  11.262   0.013 -0.1499 -0.0519 -0.0665
26682W        W26882   6.613   4.261   2.239 -0.0051  0.1594 -0.0890
26683W        W26883   5.966   2.513   8.116 -0.0459  0.0222  0.1045
26684W        W26884   4.887   6.920   6.079 -0.1398  0.0411 -0.0579
26685W        W26885   4.857   6.432  14.897 -0.3385  0.3136  0.2662
26686W        W26886   9.888  13.777   2.802  0.1554  0.2773  0.1332
26687W        W26887  11.452   5.552   9.718 -0.1717  0.2057  0.0844
26688W        W26888   2.950  14.155   4.032 -0.2518  0.0746  0.3460
26689W        W26889   3.601   0.556  11.214 -0.1398 -0.0874 -0.0355
26690W        W26890   0.409  13.571   9.370  0.0141  0.2713 -0.2435
26691W        W26891   8.253  11.815   4.537 -0.3044 -0.0421 -0.0780
26692W        W26892   8.999   9.728   7.878 -0.0633  0.1631  0.2667
26693W        W26893   1.706  11.295   6.029  0.4859 -0.3871 -0.2869
26694W        W26894   2.022   1.036   3.837  0.2423 -0.0021  0.0585
26695W        W26895  15.001  15.162  12.331  0.2175 -0.0372  0.1977
26696W        W26896  12.267   7.247  12.734 -0.0543 -0.2297  0.0751
26697W        W26897  15.196  12.814  10.458  0.1164 -0.2912 -0.0643
26698W        W26898   3.726   2.200   2.835 -0.2367  0.0612 -0.0375
26699W        W26899   0.463   7.123  11.198 -0.0263 -0.0598  0.1186
26700W        W26900  13.723   5.530  12.849  0.0470 -0.1557  0.2608
26701W        W26901   4.737  11.629  10.387  0.0878 -0.1818  0.0408
26702W        W26902   7.458   1.208   2.670 -0.1874 -0.0775  0.1125
26703W        W26903  11.433  11.416   8.670  0.5775 -0.1246  0.3977
26704W        W26904   5.241  13.669   6.612 -0.0304  0.1297 -0.1286
26705W        W26905  15.038   0.593   1.032  0.3722 -0.0613 -0.1574
26706W        W26906   9.641  12.892   0.143  0.0596  0.2675  0.1349
26707W        W26907   9.068   2.420   6.670 -0.0123 -0.0122 -0.0610
26708W        W26908  12.492   4.058   8.424  0.0059  0.0604 -0.1129
26709W        W26909   0.235   9.846   5.157 -0.0756  0.2294  0.1099
26710W        W26910   1.590   2.454   5.692 -0.0798 -0.2341 -0.1685
26711W        W26911   9.532   2.940   0.430  0.1141  0.0496 -0.1294
26712W        W26912   6.833  14.511   1.044  0.1379  0.1006 -0.0547
26713W        W26913  12.520   2.240  13.695 -0.0602  0.0364 -0.3367
26714W        W26914  14.565   5.485   7.676  0.0355  0.0565 -0.0716
26715W        W26915  13.084  12.152  11.543  0.0125 -0.1270 -0.2666
26716W        W26916  11.051  12.728   7.450 -0.2441 -0.1933  0.0338
26717W        W26917   7.827   2.414   3.414  0.0864 -0.2299  0.0528
26718W        W26918  11.570  10.759  13.653 -0.1808  0.2269  0.2341
26719W        W26919   6.789   1.529   9.643  0.3386  0.1543  0.2934
26720W        W26920   4.475  14.526  13.304 -0.2145 -0.0562 -0.0147
26721W        W26921   7.232  14.244   1.808 -0.0841  0.0847 -0.0978
26722W        W26922  10.867   9.094   6.566  0.1008 -0.3143 -0.0369
26723W        W26923   9.935   1.897  14.265  0.1320  0.1496  0.1274
26724W        W26924  13.131   7.249   8.870  0.0889  0.1249 -0.0649
26725W        W26925   1.685   4.387   2.197  0.2746  0.0956  0.0586
26726W        W26926   0.078  13.684   2.008 -0.4080  0.2271 -0.1913
26727W        W26927   7.871   7.912   9.882  0.2047 -0.0964 -0.1242
26728W        W26928   3.909   0.796   3.907 -0.2163  0.1247 -0.1963
26729W        W26929   0.937   7.085  11.990  0.0098  0.3805 -0.0629
26730W        W26930  12.116   0.017   1.756  0.0269 -0.1110 -0.1709
26731W        W26931  11.223  13.713   1.531  0.0369  0.1012  0.0902
26732W        W26932   8.721   7.847  13.097 -0.3652 -0.0761  0.2107
26733W        W26933  11.934   3.544   6.104 -0.2633  0.1042 -0.2814
26734W        W26934  15.073   0.427  11.301 -0.1164 -0.1563  0.0044
26735W        W26935  14.092  13.148   8.876 -0.0904 -0.0105 -0.2309
26736W        W26936   1.748   0.858   9.773 -0.0326 -0.1717  0.1711
26737W        W26937   1.455   3.815   5.922  0.3377  0.0572 -0.0484
26738W        W26938   7.856  14.825   3.928  0.1673 -0.3182 -0.0863
26739W        W26939  14.159   8.770  11.947  0.0066  0.1989 -0.1966
26740W        W26940  14.894  14.033  10.386 -0.0891  0.0345 -0.2474
26741W        W26941   7.761   6.428  13.985 -0.6833 -0.0315  0.0459
26742W        W26942   3.273   3.481   4.663 -0.4654 -0.3959  0.0967
26743W        W26943  10.268  10.858   7.466 -0.1383  0.0660 -0.0159
26744W        W26944   9.950   9.747   2.321 -0.1144 -0.2869 -0.1142
26745W        W26945   2.116   3.472   5.385  0.4063 -0.3176  0.1438
26746W        W26946   6.165   5.645   7.311  0.1083  0.0335  0.0216
26747W        W26947  12.510   3.561   7.584 -0.0602 -0.1414 -0.2690
26748W        W26948  11.256   6.509  12.982 -0.0792  0.1423 -0.1340
26749W        W26949  11.957   6.975  10.468 -0.2499 -0.2168  0.0035
26750W        W26950   4.708  12.725   0.598  0.0875 -0.2817 -0.1668
26751W        W26951   4.033  13.193  15.052 -0.0415  0.1747  0.1247
26752W        W26952  12.927  14.507   1.043  0.3495  0.3567  0.1906
26753W        W26953   4.881   3.710   2.383  0.0319  0.0262 -0.2215
26754W        W26954   3.350  11.269  12.795  0.0760 -0.0971 -0.2315
26755W        W26955   6.044   0.824   2.959  0.1606  0.1927 -0.0087
26756W        W26956  10.704  11.640  12.789 -0.1954 -0.2569 -0.1826
26757W        W26957   0.046   3.303  10.690 -0.0023 -0.0436  0.0136
26758W        W26958   3.718   1.506   0.705  0.3526  0.0075 -0.3893
26759W        W26959   9.506  10.837  14.158  0.0372 -0.0212 -0.1257
26760W        W26960  13.254   9.714  10.380 -0.1408  0.1126 -0.1100
26761W        W26961  10.067   1.577   8.103 -0.0739  0.2483  0.1168
26762W        W26962  14.094   6.019   5.261 -0.2040  0.0306 -0.1408
26763W        W26963  10.465   0.091   4.339  0.0506 -0.3827 -0.1438
26764W        W26964   8.111   9.578   8.873 -0.0031  0.3617 -0.2185
26765W        W26965  11.885   1.241  12.408  0.0268 -0.0185  0.0781
26766W        W26966  11.651   9.191   6.128  0.0305 -0.1412  0.0064
26767W        W26967  14.870  14.516   7.695 -0.2399  0.0434 -0.0611
26768W        W26968   4.726  12.343   1.847  0.1454 -0.0142  0.0734
26769W        W26969   9.892  12.607  10.516 -0.0011  0.1448  0.1796
26770W        W26970  10.924   9.685  10.849  0.0478  0.0357  0.2002
26771W        W26971   0.210   9.750  14.974 -0.0348 -0.1473 -0.4133
26772W        W26972  12.362   0.818   0.146 -0.2253  0.1013 -0.0752
26773W        W26973  13.183   9.033   2.067 -0.0475  0.1745  0.0274
26774W        W26974   0.967   1.389  11.864  0.0512  0.0466  0.0242
26775W        W26975   3.091  12.342   2.821 -0.1473 -0.2752 -0.0852
26776W        W26976   8.471   2.756  14.751 -0.0486  0.0788 -0.2770
26777W        W26977   9.469   4.763  10.881  0.0425  0.0250 -0.1227
26778W        W26978   0.898  11.550  14.134  0.3092  0.1644  0.1976
26779W        W26979   2.237   3.401   8.884 -0.1243 -0.0858  0.0541
26780W        W26980   2.386  15.143   9.905 -0.1912  0.4123  0.0917
26781W        W26981  14.670   5.110   3.909  0.4233  0.0351 -0.2054
26782W        W26982  11.536   4.315   8.359 -0.0770  0.3300 -0.2554
26783W        W26983   3.538  12.611  11.052 -0.0726 -0.2201  0.2093
26784W        W26984   4.907   1.866   9.700 -0.0828  0.0165 -0.1206
26785W        W26985   2.827   4.748   4.569 -0.0294  0.2665  0.2081
26786W        W26986   0.459   9.520  10.433  0.0943 -0.2176  0.1814
26787W        W26987  12.661   0.126  13.861  0.3550  0.0939  0.1220
26788W        W26988   1.931  13.206  11.774  0.0930  0.2028 -0.0196
26789W        W26989  13.151  13.267  12.826 -0.0455  0.0187 -0.1727
26790W        W26990   5.857   0.845  13.343 -0.1155  0.0942  0.1189
26791W        W26991  12.566   6.252  10.694 -0.1254  0.1244 -0.1929
26792W        W26992   3.123   4.587  10.740 -0.0022  0.1043 -0.0024
26793W        W26993  13.222  12.082  13.996  0.0297 -0.1180 -0.3782
26794W        W26994   9.731  14.203   2.719  0.1880  0.2732 -0.2498
26795W        W26995   3.930   4.477  12.139 -0.0555 -0.0667 -0.0830
26796W        W26996   8.900   9.220   4.434 -0.3982 -0.0916 -0.1078
26797W        W26997  11.736  12.540   8.159  0.0029 -0.0790  0.0928
26798W        W26998   7.852  12.231  11.955  0.0047  0.1142 -0.0734
26799W        W26999   4.563   5.791  11.767  0.2979 -0.0255  0.1781
26800W        W27000   9.331  12.648  10.399  0.1576  0.2224 -0.3543
26801W        W27001  10.870   1.067  11.979 -0.1030  0.0919 -0.0887
26802W        W27002   1.253   0.992   9.890 -0.1312  0.1045  0.0603
26803W        W27003   2.573   2.263  14.627 -0.1795  0.2501 -0.4175
26804W        W27004   3.279   5.560   9.704 -0.0853  0.0003 -0.1292
26805W        W27005  13.666   0.476   3.895  0.0732 -0.1532 -0.3390
26806W        W27006   0.866   1.971  10.823  0.2134  0.2812  0.0069
26807W        W27007   8.677   8.411   2.506 -0.2976 -0.0908  0.3032
26808W        W27008   7.623  11.031  13.158  0.1085  0.2098  0.2212
26809W        W27009  11.895   8.497   3.841  0.1968 -0.1813 -0.0863
26810W        W27010   5.967  13.994   7.037  0.0043  0.1067 -0.1966
26811W        W27011   5.332  10.065   6.401  0.2004 -0.0726 -0.0466
26812W        W27012   8.194  12.739   8.436  0.0006  0.1092 -0.0001
26813W        W27013   2.200  11.598  11.094 -0.1433  0.1358 -0.0100
26814W        W27014   1.880   2.351  10.108  0.2647  0.1461 -0.4664
26815W        W27015  14.489   2.025   2.957 -0.0558  0.0760 -0.0526
26816W        W27016   3.491  12.476   0.284  0.0596  0.2109 -0.0966
26817W        W27017   4.732  12.352  10.143  0.1523 -0.3770 -0.0791
26818W        W27018   2.962  10.941   6.793  0.2365 -0.1562  0.3610
26819W        W27019   9.867   2.753   5.327 -0.2090 -0.4952 -0.1654
26820W        W27020  13.439   8.258   1.665  0.3828 -0.1070  0.0436
26821W        W27021   6.335  14.662   1.225 -0.0782 -0.0372 -0.1347
26822W        W27022  11.955   9.874   8.490  0.1009  0.1776 -0.1783
26823W        W27023  11.348  10.857   8.657  0.1736 -0.3102  0.1362
26824W        W27024   4.450   9.644  12.088  0.2238  0.0243  0.2105
26825W        W27025   6.035   4.248   8.027 -0.2294 -0.1514 -0.0575
26826W        W27026  11.377   5.463   5.357  0.2713  0.0200 -0.1645
26827W        W27027  12.485   7.942  10.168  0.2784 -0.2718 -0.0074
26828W        W27028   8.999   0.857   7.569  0.2095  0.1241  0.1500
26829W        W27029   1.325  14.833   1.718  0.1902 -0.2877  0.2326
26830W        W27030  10.026   9.081  15.158 -0.0922  0.1336  0.0887
26831W        W27031  14.008   2.281   8.279  0.1154 -0.1823  0.0719
26832W        W27032  14.735  12.940   1.906  0.1132  0.3773 -0.2882
26833W        W27033  10.755  13.262   1.854  0.0433  0.1520 -0.1196
26834W        W27034  10.710   1.718   0.253 -0.0358  0.3201 -0.3106
26835W        W27035   9.561   9.560  12.222 -0.0648  0.1043 -0.1848
26836W        W27036   0.980   3.902   6.160 -0.1185 -0.2301  0.2445
26837W        W27037   6.572  11.826   6.801  0.0532  0.0628 -0.1572
26838W        W27038  15.041   5.422   5.945 -0.2063 -0.0845 -0.0663
26839W        W27039   0.014  14.903   4.507 -0.1114  0.0587  0.1732
26840W        W27040   1.875   2.097  11.124 -0.0116 -0.0616 -0.1365
26841W        W27041   8.282  13.813  12.099 -0.2667  0.0795 -0.0261
26842W        W27042   9.905   0.188   0.956 -0.0859 -0.2399  0.3664
26843W        W27043  12.388   1.401  10.173 -0.2026 -0.0169  0.0394
26844W        W27044  13.112   2.739   6.701 -0.2845 -0.1095 -0.0335
26845W        W27045   9.881  13.895  11.019 -0.3404 -0.0974 -0.0620
26846W        W27046  11.984  10.254   2.934  0.3374  0.0760 -0.2719
26847W        W27047   4.850   4.097   2.743  0.2573  0.0198 -0.1327
26848W        W27048   9.397   1.402   6.464 -0.1296  0.0214 -0.2984
26849W        W27049   7.639   8.398   9.165  0.1559 -0.2919  0.0512
26850W        W27050  10.644   9.710   8.302  0.0346  0.3805  0.0392
26851W        W27051   4.051  11.669   8.449 -0.1191  0.0022 -0.3430
26852W        W27052  11.107  10.452   9.787  0.0714 -0.1407  0.1510
26853W        W27053  12.683   4.278  13.095  0.0883 -0.1417  0.0428
26854W        W27054   6.538   3.273  10.745  0.2181 -0.0003 -0.1881
26855W        W27055   0.243  10.480  14.397  0.0818  0.0544 -0.0470
26856W        W27056   7.904   9.898   6.153 -0.2695  0.0621 -0.0406
26857W        W27057   3.509  10.021   7.147  0.2464 -0.1569 -0.1196
26858W        W27058   9.379  10.252   3.497  0.0778 -0.0155  0.3348
26859W        W27059   4.110  14.027   7.649  0.0015 -0.3689  0.1499
26860W        W27060  14.368  13.654   9.178  0.1729 -0.0880 -0.0354
26861W        W27061   3.989   4.491  10.277  0.1595  0.0439  0.0513
26862W        W27062  15.156   1.748   4.096 -0.0773  0.2957  0.0227
26863W        W27063   9.020   6.075  10.621 -0.1032  0.0709  0.2573
26864W        W27064   8.496  11.414   8.961 -0.0056  0.0116 -0.0991
26865W        W27065   0.933  11.652   8.199 -0.1737 -0.0791 -0.1952
26866W        W27066   0.195  11.372   5.898 -0.1723  0.1600 -0.0580
26867W        W27067   0.876   5.141   3.620  0.3683  0.1929  0.4506
26868W        W27068  12.788  14.171   9.348  0.2436 -0.0103  0.1554
26869W        W27069   3.286   6.814  11.876 -0.0806  0.0761  0.4065
26870W        W27070  14.006  12.063  10.440  0.0641  0.1178  0.1541
26871W        W27071  14.399  11.990   6.398 -0.0373 -0.0319 -0.2741
26872W        W27072   7.815   6.435  13.041 -0.1504  0.1273  0.3075
26873W        W27073   0.217  13.649  10.903  0.0243 -0.2186  0.0754
26874W        W27074  13.676   4.253  12.199 -0.1638 -0.1670 -0.0721
26875W        W27075   9.562  13.350   6.721  0.0834 -0.2085  0.0393
26876W        W27076  10.515  11.938   7.714  0.0691  0.1291  0.1488
26877W        W27077  13.968  10.211  11.246  0.0163 -0.1001  0.2628
26878W        W27078   4.855   3.044  14.176 -0.2037  0.1844 -0.1124
26879W        W27079  11.921   5.851   9.020 -0.0699 -0.1770 -0.1324
26880W        W27080   1.969   4.682   9.986 -0.2794  0.0818  0.0304
26881W        W27081   5.610   0.547   2.040  0.2385 -0.0422  0.1843
26882W        W27082   4.114   1.645  14.018  0.1641  0.1312 -0.3404
26883W        W27083   0.454   7.368   5.474 -0.0036 -0.3364  0.1778
26884W        W27084   1.264  13.248   9.936  0.2835  0.4138 -0.1454
26885W        W27085   1.485   1.678   8.196  0.2403  0.3181  0.1020
26886W        W27086   0.315  14.042   3.866 -0.2426  0.2055  0.1885
26887W        W27087   5.289  10.891  11.524  0.2194 -0.0338  0.1315
26888W        W27088  12.449   3.969  10.783 -0.0568  0.2373 -0.0349
26889W        W27089   4.669  11.191   9.065 -0.2753 -0.5497  0.1513
26890W        W27090   9.458   9.526  12.744  0.1750  0.4123  0.0046
26891W        W27091   1.114   9.729   6.550  0.3306 -0.1639  0.0617
26892W        W27092   3.668   9.071   9.189 -0.0418  0.3853 -0.0527
26893W        W27093  10.044  14.342   0.363 -0.2080 -0.2015 -0.3797
26894W        W27094   5.478   0.692  13.632 -0.2468  0.2217  0.0474
26895W        W27095   0.106  12.753   6.780  0.0577  0.1003 -0.2533
26896W        W27096  14.566   7.029  10.239  0.2856  0.2061  0.3396
26897W        W27097  13.141   7.608  13.035  0.1201 -0.1356  0.1040
26898W        W27098  13.938  13.220   7.086 -0.0632  0.0181  0.1773
26899W        W27099   1.968   7.942  11.745 -0.0986  0.0892 -0.1501
26900W        W27100   0.523  13.436  13.254 -0.2280 -0.0583  0.0594
26901W        W27101   3.611   0.926   6.472 -0.3037  0.1780  0.1279
26902W        W27102   1.678  13.801   1.835  0.1449  0.0933 -0.2002
26903W        W27103  11.474   8.350  12.469  0.2848 -0.0074  0.1832
26904W        W27104   9.321   6.775   7.274 -0.1376 -0.0041  0.1075
26905W        W27105   3.797   3.865   9.353  0.0831 -0.0681  0.0631
26906W        W27106  12.062   6.899  13.134  0.1851 -0.1799  0.0472
26907W        W27107   8.700  11.732   9.361 -0.1694 -0.1610 -0.2448
26908W        W27108   7.518   8.484   5.570  0.2520 -0.0307  0.1364
26909W        W27109   4.701   0.380   8.342  0.3169 -0.2825 -0.0785
26910W        W27110   1.431  13.176   2.187  0.0932 -0.3088 -0.1822
26911W        W27111  12.886  10.829  12.112  0.0398  0.3503  0.0465
26912W        W27112  10.707  13.932   8.571 -0.2794 -0.0499  0.1263
26913W        W27113   3.954   3.343   8.020 -0.5951  0.2430 -0.1546
26914W        W27114  12.813   0.121   8.501 -0.0289  0.1724 -0.0417
26915W        W27115   0.784   4.607   8.364  0.2115 -0.2577  0.1492
26916W        W27116  14.521  13.706   4.089  0.1363 -0.2041 -0.0468
26917W        W27117  11.237  12.238  14.717  0.1731  0.0574  0.0011
26918W        W27118   5.257   9.871  12.508  0.1294  0.1664 -0.0716
26919W        W27119   9.971  14.773  10.660  0.0459 -0.0632 -0.0436
26920W        W27120  11.644   7.652   9.205 -0.0363 -0.3218  0.0982
26921W        W27121  15.032   5.676   9.241  0.1347  0.0308 -0.2641
26922W        W27122  11.483   6.999   3.353  0.1085  0.2269 -0.3225
26923W        W27123  11.779  13.745  14.771 -0.2139 -0.0136 -0.2343
26924W        W27124   4.457   2.909  11.095 -0.0340  0.0425  0.0872
26925W        W27125  14.040   9.562   6.551 -0.0358 -0.0039  0.0295
26926W        W27126   1.350  11.495  12.722 -0.3350 -0.1630 -0.0294
26927W        W27127   9.198  10.515   1.849 -0.0542 -0.2562 -0.1535
26928W        W27128   6.967   8.047   7.869  0.1159 -0.2506  0.1602
26929W        W27129  14.529   0.385  11.396  0.1312 -0.2478  0.1430
26930W        W27130  13.701   4.789   2.905  0.1294 -0.0237 -0.5730
26931W        W27131   9.330   9.469  14.597 -0.1433 -0.3020  0.0291
26932W        W27132  13.942   0.540   1.219 -0.1206 -0.1178 -0.1223
26933W        W27133  10.794   5.589  12.400  0.0099  0.3491  0.0099
26934W        W27134   7.619   0.255  14.685 -0.3895  0.0180 -0.0523
26935W        W27135  10.769   0.046   7.849  0.1006  0.1519  0.0500
26936W        W27136   7.360   9.428   9.597 -0.1956  0.0704 -0.0249
26937W        W27137  11.630   9.660   6.392 -0.0056  0.1425 -0.2279
26938W        W27138  10.410  11.688   8.119  0.1025 -0.1504  0.0732
26939W        W27139   5.844   0.496   2.658 -0.0929  0.0352  0.1302
26940W        W27140  10.987  11.830   7.873 -0.1703 -0.2472 -0.1561
26941W        W27141  11.251  11.501  11.961  0.0200  0.0118  0.1153
26942W        W27142   4.206  10.849   6.589  0.1192 -0.0213 -0.0320
26943W        W27143  14.773   5.154  12.722 -0.0047 -0.1729 -0.0488
26944W        W27144  14.966   9.129  13.431 -0.0895 -0.1747 -0.1324
26945W        W27145   2.333  11.086   8.099 -0.0540 -0.0548  0.0908
26946W        W27146  11.486  11.076   9.091  0.3115 -0.0585 -0.0367
26947W        W27147  11.223  10.326   8.943 -0.3233 -0.1080 -0.1723
26948W        W27148  12.872   5.880   9.239 -0.2731  0.1990  0.3202
26949W        W27149   0.609   6.674   1.032 -0.2240  0.0680  0.0407
26950W        W27150  12.936  11.778   4.559 -0.1480 -0.2626 -0.1531
26951W        W27151   0.928  10.663   6.426  0.0516  0.2999 -0.1432
26952W        W27152   2.738  12.443  11.629 -0.2712  0.2800  0.1918
26953W        W27153  12.639   0.064   2.154 -0.0681  0.0440  0.1635
26954W        W27154  12.888  10.936   4.596  0.1420 -0.0799  0.1579
26955W        W27155   2.882  10.001   1.338  0.1564  0.2004  0.0540
26956W        W27156  13.770   9.314   7.635 -0.2801  0.1674 -0.2904
26957W        W27157   3.387  11.750  11.489 -0.0185 -0.0507 -0.2035
26958W        W27158   2.317  14.238   8.794  0.2253  0.1219 -0.0038
26959W        W27159   1.242   0.972   8.616 -0.0301 -0.1317 -0.0161
26960W        W27160   0.213   1.013   7.986 -0.1113 -0.1758 -0.0198
26961W        W27161   0.909   7.119  10.951  0.2026 -0.0554 -0.2992
26962W        W27162  12.326   8.448  13.004 -0.3087  0.1360  0.0806
26963W        W27163  14.842  10.732   6.059  0.4121 -0.1329 -0.1764
26964W        W27164  12.768  11.166   3.321 -0.4354 -0.2365 -0.2843
26965W        W27165  11.852   8.099  13.037  0.1868 -0.0515 -0.0122
26966W        W27166  10.285   8.499  11.600  0.1530  0.0839 -0.0481
26967W        W27167   1.555   4.756  13.454  0.2008 -0.1675  0.3070
26968W        W27168   4.727   9.162  11.452 -0.0286  0.1735 -0.2596
26969W        W27169  13.811   3.950   1.164  0.0449 -0.0270  0.1412
26970W        W27170   3.156  10.552   8.699  0.1748 -0.2498 -0.3387
26971W        W27171   2.315   0.778  12.497  0.0717 -0.0754  0.1289
26972W        W27172   0.172   0.603   3.860  0.1648  0.4201  0.1588
26973W        W27173   0.577  12.366  13.955 -0.2158  0.0218 -0.1708
26974W        W27174  12.221   4.364   6.012 -0.1175 -0.0990  0.2289
26975W        W27175  15.042   2.498  13.867 -0.2223 -0.0366  0.2542
26976W        W27176   9.270   8.423   9.654  0.0477 -0.1157  0.2111
26977W        W27177   2.020   1.997   6.547  0.2427  0.3121  0.1807
26978W        W27178   8.662   2.387   0.821  0.2410 -0.0320 -0.0319
26979W        W27179  11.047  11.540   8.956  0.1473  0.0034  0.0148
26980W        W27180  13.377   2.540   3.097 -0.3677  0.3085  0.0999
26981W        W27181   3.818  14.871  11.530 -0.1173 -0.1327  0.0817
26982W        W27182  11.636  11.399  12.450 -0.1847  0.0500  0.1570
26983W        W27183  14.811  13.612   7.913  0.0557 -0.0844 -0.0047
26984W        W27184   2.462   2.238   8.120  0.2548 -0.4060  0.1703
26985W        W27185  13.851   8.636  12.597  0.4201  0.2253  0.1792
26986W        W27186   1.177  13.872   3.457  0.2179  0.1800 -0.1099
26987W        W27187  10.356   1.471  12.624 -0.0096  0.0113  0.4899
26988W        W27188   5.272  14.416   4.394 -0.0955  0.0122  0.1767
26989W        W27189   0.452   2.666   1.102  0.1651 -0.3119  0.0175
26990W        W27190   1.054   4.484   5.470 -0.2085  0.0335  0.0447
26991W        W27191   2.693   1.995  10.303  0.0858 -0.0574 -0.0499
26992W        W27192   8.677   5.912   3.565  0.4987  0.4263 -0.1147
26993W        W27193  14.439  15.061  12.191 -0.2146 -0.0595  0.2209
26994W        W27194  13.495   3.590  15.071  0.0940  0.1541  0.0066
26995W        W27195   9.203   0.821  14.235  0.0237  0.0443 -0.3750
26996W        W27196   4.395  12.041  10.381  0.1923 -0.3431 -0.1616
26997W        W27197   4.276   3.104   9.173 -0.1088 -0.2837  0.1607
26998W        W27198   1.428  14.293   1.942 -0.0896  0.0473  0.2288
26999W        W27199  14.367   5.929   3.804  0.1218  0.1057  0.0266
27000W        W27200   3.911   7.725   8.506 -0.1375  0.2679  0.1436
27001W        W27201  15.045   4.424  14.382 -0.1187 -0.3309 -0.1346
27002W        W27202   2.315   0.170   5.816 -0.0676  0.3718 -0.1133
27003W        W27203   7.412   1.367  12.281 -0.1261 -0.2398 -0.2877
27004W        W27204   8.531   6.083   8.733  0.3253 -0.0919 -0.4230
27005W        W27205   3.328   2.195  14.355 -0.0192 -0.0301 -0.0474
27006W        W27206   0.780  11.110   7.577  0.0885  0.1699  0.0098
27007W        W27207   7.135   9.924  12.758 -0.0599  0.0076  0.0657
27008W        W27208  14.590  11.388   8.779 -0.3054 -0.1929  0.1627
27009W        W27209  10.563   8.642   4.614 -0.1469 -0.2564 -0.2482
27010W        W27210  13.296  13.064  14.741 -0.0342 -0.0131 -0.0444
27011W        W27211   9.247   3.544  13.955  0.0736 -0.2806  0.0208
27012W        W27212   8.634   8.975   4.887  0.1212 -0.0812 -0.0482
27013W        W27213  14.626   6.482  13.892  0.1418  0.3824  0.0448
27014W        W27214   0.882   0.731   5.851  0.1638  0.1571 -0.1026
27015W        W27215  13.473   1.167   6.201  0.2211 -0.1979 -0.0561
27016W        W27216   4.736   2.661  11.437  0.0391  0.5457  0.3754
27017W        W27217   8.841  13.374   5.165 -0.0550  0.1477  0.1357
27018W        W27218   4.021  14.869   8.974 -0.0614 -0.1958 -0.2336
27019W        W27219   5.944  11.375   5.186 -0.2857 -0.1547 -0.0770
27020W        W27220  14.863  11.668   7.948  0.1204  0.2028 -0.1712
27021W        W27221  10.291   8.127   5.303 -0.1781 -0.0983  0.0706
27022W        W27222  11.441  12.329  13.475  0.3224  0.1203  0.0413
27023W        W27223   0.760   7.357   7.060  0.3079 -0.1203  0.2231
27024W        W27224  12.729  13.227  12.044  0.2871 -0.1129  0.0206
27025W        W27225   4.489  11.696   0.342 -0.1839 -0.2328 -0.1523
27026W        W27226  12.589  14.823   6.516 -0.1143  0.3645 -0.0575
27027W        W27227   8.179   5.197  11.965  0.0665  0.2209  0.2024
27028W        W27228  10.463  10.072   2.410  0.0952  0.2415 -0.0393
27029W        W27229   3.799   2.483  11.781  0.2282 -0.0890  0.3604
27030W        W27230   0.650   0.100   5.585  0.1999  0.0593 -0.1063
27031W        W27231   7.966   1.650   1.564  0.0464  0.0397  0.3500
27032W        W27232  10.967   3.329   8.967 -0.3011 -0.1492  0.1474
27033W        W27233  13.650   6.300   7.871  0.0665 -0.0892 -0.0648
27034W        W27234   7.710   3.381   3.942  0.2670 -0.0366  0.0142
27035W        W27235  12.751  13.033  12.539 -0.1193 -0.2300 -0.3158
27036W        W27236   3.496  12.309   7.251  0.1968 -0.0897 -0.2401
27037W        W27237  14.904  11.042  11.921 -0.1696 -0.0047 -0.1670
27038W        W27238  15.110  14.631  11.228 -0.0327  0.1370 -0.0528
27039W        W27239   5.649   6.074  12.706  0.3273  0.0531  0.4444
27040W        W27240   7.187  12.744   7.447  0.0277  0.0928 -0.0012
27041W        W27241   3.676   7.903  13.504  0.0160  0.0885 -0.0782
27042W        W27242   2.233   9.651   5.743  0.1294 -0.2064  0.0970
27043W        W27243   1.998   4.449   2.650 -0.3534  0.0383  0.0584
27044W        W27244   9.450   1.136   9.541  0.3727  0.1390  0.2251
27045W        W27245  11.682   1.945   0.050  0.2080  0.0037  0.0328
27046W        W27246  11.697  13.262   6.217  0.3028 -0.0523  0.0999
27047W        W27247  10.049   0.335   9.865 -0.0068  0.0349 -0.3161
27048W        W27248   2.846   4.769   9.855 -0.0279  0.1841 -0.1038
27049W        W27249  14.994  14.877   3.543 -0.2736  0.1557 -0.0905
27050W        W27250  12.519  12.752   6.358 -0.2308  0.0473  0.0780
27051W        W27251  11.854   8.495   7.804 -0.0436  0.0770 -0.4117
27052W        W27252  15.054  12.030  14.930 -0.2709 -0.1860  0.2203
27053W        W27253   1.929  13.574   8.869  0.0838  0.2661 -0.1009
27054W        W27254   7.552   1.698  14.675  0.0554 -0.0134 -0.1437
27055W        W27255  12.309   8.524  14.692  0.0563 -0.0937 -0.0854
27056W        W27256  12.289  11.241  14.548 -0.3533 -0.2806 -0.1193
27057W        W27257   4.691  13.946  11.830  0.0054 -0.3781 -0.1385
27058W        W27258  14.842   1.497  13.333 -0.0084  0.1478 -0.1200
27059W        W27259   3.139   9.771  11.619  0.1842  0.2044 -0.2749
27060W        W27260   8.195  14.114   7.721  0.1779  0.1598 -0.0083
27061W        W27261   7.960  13.875  11.272  0.3447  0.2263  0.0090
27062W        W27262   8.886  10.443  10.955 -0.1121 -0.0571 -0.0102
27063W        W27263   5.386  14.348   0.259  0.2362  0.1772 -0.0076
27064W        W27264   2.126  11.934  12.685 -0.1581 -0.1987 -0.3188
27065W        W27265   4.592  13.545  12.117 -0.0486 -0.1712 -0.0612
27066W        W27266  14.638   6.818   2.042  0.3190  0.1913  0.0287
27067W        W27267  11.510   0.499  13.438 -0.1110 -0.1561  0.2836
27068W        W27268  12.032   4.492  11.963  0.0055 -0.0247 -0.1472
27069W        W27269   3.495  14.316   9.432 -0.2640  0.2637  0.0441
27070W        W27270  12.471  12.296   8.527  0.0354  0.1696  0.0700
27071W        W27271   1.998   7.578  14.557  0.3266 -0.2842 -0.2783
27072W        W27272   8.031  12.520   9.843  0.0953 -0.0220 -0.0307
27073W        W27273  13.081  11.769   9.107 -0.2355 -0.0196  0.3338
27074W        W27274  14.320   6.694  12.499 -0.2581  0.0621  0.1266
27075W        W27275   6.479   8.690   3.580  0.0142 -0.0994 -0.0487
27076W        W27276  12.697   6.478  14.008 -0.2025  0.1485 -0.0727
27077W        W27277  12.133   4.177   8.738 -0.0141 -0.0717  0.1375
27078W        W27278   1.583  14.901   2.515  0.1674 -0.0499 -0.1421
27079W        W27279   5.198   5.529  10.568 -0.0565 -0.2309  0.0923
27080W        W27280   0.221  14.548   2.081 -0.0115  0.2460  0.1558
27081W        W27281   9.903   1.757   4.547 -0.0863  0.3285 -0.5285
27082W        W27282   2.240  12.869  11.574 -0.0907  0.1509 -0.2980
27083W        W27283   6.337   0.227   1.820 -0.0448 -0.2726 -0.2321
27084W        W27284  14.480  12.197   7.795 -0.1467  0.1155  0.0615
27085W        W27285  12.270   5.560  12.942 -0.1086 -0.0581  0.0776
27086W        W27286   9.659   1.663  15.187  0.1965 -0.0844  0.2575
27087W        W27287   0.956  12.288  11.344  0.1392  0.0938 -0.0317
27088W        W27288  10.542   0.756   2.677  0.1346  0.0402  0.0091
27089W        W27289   1.716   5.214  14.891  0.0666  0.1384  0.0202
27090W        W27290  13.023  13.266  11.582 -0.0528  0.2071 -0.1393
27091W        W27291  13.642   0.865  13.939 -0.1252  0.0298  0.0003
27092W        W27292  13.524   0.587   6.853  0.0579 -0.0394  0.0031
27093W        W27293  13.454   5.116  12.636  0.2916  0.0545 -0.2854
27094W        W27294   4.172  13.063  13.542 -0.1944  0.2773  0.4059
27095W        W27295  10.403   7.669   7.513  0.1352  0.0646 -0.1006
27096W        W27296  11.585  12.798   6.405 -0.3264  0.0932  0.0073
27097W        W27297   1.518  10.961   9.583 -0.0291  0.1170 -0.0995
27098W        W27298   8.409   5.712  13.420  0.3815  0.4054 -0.2279
27099W        W27299   0.666   1.271   0.806 -0.1675  0.0890 -0.0619
27100W        W27300  14.450   5.132   0.118 -0.1011 -0.1006 -0.3992
27101W        W27301   2.931   3.506  13.163 -0.2414 -0.0775 -0.0978
27102W        W27302  12.592  14.797  11.694 -0.0358 -0.1008  0.0187
27103W        W27303   0.239   1.067  10.479 -0.0144 -0.1221  0.2747
27104W        W27304   5.322   4.986  13.451 -0.0515  0.0212  0.4804
27105W        W27305   2.117  14.534   0.657 -0.4813 -0.0598 -0.0336
27106W        W27306   1.601  13.710   9.390  0.0691 -0.0533 -0.2662
27107W        W27307   3.259   3.651   1.892  0.2180 -0.3833 -0.2793
27108W        W27308   2.524  12.347   3.325 -0.0012  0.0128  0.2581
27109W        W27309   8.521   0.776   6.616  0.1353 -0.0778 -0.0147
27110W        W27310  13.634  12.424   6.227  0.2015  0.1538  0.2967
27111W        W27311   1.672   8.048   4.373 -0.1211  0.2219 -0.0160
27112W        W27312  12.604   9.535   6.556  0.2247  0.2104  0.4565
27113W        W27313   3.147  10.187   2.256 -0.1574 -0.1334  0.2772
27114W        W27314   1.403  12.633   8.551 -0.3156  0.0111  0.2481
27115W        W27315   4.830   3.112  11.336  0.0029  0.1084 -0.3158
27116W        W27316   1.273   2.904  13.125 -0.0199  0.1484  0.1006
27117W        W27317  13.002  12.939  13.864  0.1972 -0.0668 -0.0151
27118W        W27318  13.159   9.166   3.833  0.1626 -0.1348  0.1088
27119W        W27319  10.295   5.794  12.328  0.1224 -0.2667  0.0814
27120W        W27320   5.017  13.633   3.735 -0.0123  0.0851 -0.0125
27121W        W27321   4.790  11.403  12.810  0.2354 -0.3381 -0.3251
27122W        W27322  11.631  13.759   7.498 -0.0381  0.0577  0.0380
27123W        W27323   5.803  10.533  12.792  0.2264  0.2856  0.1036
27124W        W27324   5.612   3.277   2.726  0.0538  0.0871  0.1770
27125W        W27325   9.316   5.509   3.014  0.2595 -0.2432 -0.1206
27126W        W27326   1.462   0.314   3.781 -0.1595  0.0213 -0.0772
27127W        W27327   2.972  11.316  11.506 -0.0262 -0.2209 -0.3103
27128W        W27328  12.437   2.081  12.248 -0.1032 -0.2155  0.1706
27129W        W27329  14.909   0.232  10.239  0.0483 -0.1759  0.0128
27130W        W27330   1.287  13.446   2.590 -0.4159  0.4266 -0.3366
27131W        W27331   8.200  10.501   0.704 -0.1343  0.3188 -0.3142
27132W        W27332   0.666   5.465   3.255  0.0855  0.0833  0.0192
27133W        W27333  11.845  13.000  10.078 -0.2042 -0.1346  0.0860
27134W        W27334   1.092   9.765  10.088 -0.1972 -0.1084  0.2929
27135W        W27335   3.827   1.560  11.998  0.1073 -0.0954 -0.3707
27136W        W27336  14.047   2.460  11.157  0.3589 -0.2061  0.1445
27137W        W27337   6.686   0.366  10.488  0.1648  0.1945 -0.0423
27138W        W27338   2.615   0.487  12.783  0.0941  0.2242  0.1921
27139W        W27339  15.039  13.181   8.065  0.0416 -0.2273  0.0632
27140W        W27340  10.508   4.113   0.423  0.4877 -0.2645  0.0646
27141W        W27341  13.235  11.021  10.165 -0.2289  0.1017  0.0118
27142W        W27342   0.059   7.643   0.337 -0.1262  0.1168 -0.4639
27143W        W27343   0.344   8.019   3.105  0.3925 -0.5143 -0.0095
27144W        W27344   9.384   2.959   6.408  0.2484  0.1391 -0.1003
27145W        W27345   7.544   8.697   6.060  0.2788 -0.0364 -0.0713
27146W        W27346  11.324  10.042   0.320  0.2303 -0.0310 -0.0701
27147W        W27347   5.446   5.140  12.378 -0.2990 -0.1240  0.4189
27148W        W27348  14.432  13.860  11.069  0.1382  0.1335 -0.1752
27149W        W27349  11.218   3.978  13.208 -0.2364  0.2820 -0.1699
27150W        W27350  13.525  10.247   6.462  0.4137  0.0424 -0.1929
27151W        W27351  10.512   2.583   3.443 -0.1706 -0.2533 -0.1228
27152W        W27352   6.216  11.605  14.943 -0.1914 -0.3354  0.1794
27153W        W27353  11.704  12.299   5.413 -0.0412  0.0621 -0.5343
27154W        W27354  12.049  10.618  13.371  0.2318  0.1197 -0.1692
27155W        W27355   1.468   3.283   8.262 -0.1106 -0.0540 -0.1465
27156W        W27356   2.893  10.723   0.566  0.0197 -0.0050 -0.1588
27157W        W27357  14.507   6.538  10.314  0.1935  0.0558 -0.0458
27158W        W27358   7.105   1.204  11.455  0.3180  0.3186  0.2182
27159W        W27359   4.725  14.190  14.304  0.5341  0.2574  0.2656
27160W        W27360   4.582  12.594  11.218  0.0935 -0.0953  0.2686
27161W        W27361   5.649   9.093   0.051  0.0915  0.1487 -0.0435
27162W        W27362   8.638   2.076   7.048  0.2468  0.0657 -0.0702
27163W        W27363   9.130   1.940  11.903 -0.2208  0.0847 -0.1083
27164W        W27364   0.754  10.709   0.766 -0.2630  0.1554 -0.0517
27165W        W27365  13.284  14.159  12.010 -0.0103  0.0338 -0.2756
27166W        W27366   1.259   6.171  11.493 -0.2272  0.1472  0.1885
27167W        W27367   0.775   4.905  14.169  0.2006 -0.1114 -0.0688
27168W        W27368   0.292  10.602  12.455  0.0887  0.0270  0.0011
27169W        W27369  14.204   6.816   6.528  0.0233  0.2092 -0.3911
27170W        W27370   6.740   0.963   4.901  0.1813 -0.5032 -0.1080
27171W        W27371   0.948  13.872   0.522 -0.3926 -0.0539 -0.1930
27172W        W27372  13.798  10.475   0.358  0.0019  0.1106  0.3202
27173W        W27373  11.566  14.850   0.724 -0.1213 -0.1716  0.1705
27174W        W27374  10.530   4.896  12.769 -0.0512  0.0041  0.0667
27175W        W27375   1.170   9.044  15.131  0.0755  0.1855  0.0217
27176W        W27376  12.107  10.940   4.027  0.0412  0.1634  0.0873
27177W        W27377   4.737   4.358  12.580  0.2330 -0.3136 -0.2475
27178W        W27378  14.176   9.271  11.535 -0.1527  0.1007  0.0299
27179W        W27379   8.703   9.480   6.204 -0.0663 -0.4398  0.0333
27180W        W27380   1.818  14.105   5.439  0.0201  0.4023  0.1652
27181W        W27381   0.269   8.212   5.725  0.1420  0.2188  0.1613
27182W        W27382   6.426   8.969   1.000 -0.3645 -0.2850 -0.0384
27183W        W27383  10.467   1.666   2.621  0.0807  0.1189  0.3612
27184W        W27384  14.101  13.445   2.538 -0.3027  0.0562 -0.0700
27185W        W27385   9.320   8.296   9.049  0.2301 -0.0559 -0.1731
27186W        W27386   0.150  12.813  11.643  0.2297 -0.0202  0.3048
27187W        W27387  14.257  13.196  13.106 -0.0489  0.1498  0.0499
27188W        W27388   2.646   1.761  11.100 -0.1036  0.1991  0.2599
27189W        W27389   3.793   5.402  11.671 -0.0753  0.1718 -0.2193
27190W        W27390   8.303  14.939  12.058 -0.1117  0.2458 -0.0822
27191W        W27391  10.022   6.792   9.632  0.1035 -0.0307 -0.2298
27192W        W27392  10.870   7.689   8.490 -0.1079 -0.0012 -0.2574
27193W        W27393   9.907   5.933  10.181 -0.0637  0.0385 -0.1415
27194W        W27394   0.556   8.885   7.404 -0.0834  0.0123  0.1798
27195W        W27395   6.660   3.650   7.664  0.2525  0.2252 -0.1385
27196W        W27396  13.486  13.241   9.981 -0.0960  0.0209 -0.0308
27197W        W27397   8.170   5.272  15.182 -0.3959  0.0193  0.0142
27198W        W27398   4.152   4.700   1.873 -0.1558  0.1887 -0.1182
27199W        W27399   2.480  10.319   4.929 -0.2439 -0.0838  0.0282
27200W        W27400   1.884   4.091   7.572 -0.0657 -0.1849 -0.1162
27201W        W27401  12.653   9.624  14.942  0.0371  0.1542  0.0535
27202W        W27402  11.495   5.741  13.641  0.6280 -0.0070  0.2307
27203W        W27403  11.414   8.097  14.943 -0.0500  0.0884  0.1091
27204W        W27404   9.156  13.050   7.988 -0.1129 -0.3287 -0.4309
27205W        W27405  12.654  12.010   0.282  0.4057  0.1474  0.1865
27206W        W27406   2.427  11.605   8.475 -0.0272  0.0616  0.3372
27207W        W27407  11.556   0.017   9.435 -0.0707 -0.2807 -0.0317
27208W        W27408  12.289   6.994  14.935  0.0667 -0.0695  0.2136
27209W        W27409   7.641   2.468  13.661 -0.2719  0.1896  0.0120
27210W        W27410   9.290   8.280  12.654  0.0115 -0.0568 -0.0619
27211W        W27411  10.903   6.991  12.198 -0.1190  0.1425  0.2456
27212W        W27412   5.132   9.221  14.882 -0.2125 -0.2982  0.1752
27213W        W27413   0.974   2.665   5.959 -0.2150  0.0427  0.0836
27214W        W27414  14.308   9.409  10.726  0.1374  0.0666 -0.0391
27215W        W27415   2.197   8.381   9.486  0.2426 -0.0794 -0.1959
27216W        W27416  11.232  14.662   0.395 -0.0047 -0.0376 -0.2528
27217W        W27417  13.695   9.766   7.818 -0.0280  0.2243  0.2813
27218W        W27418   1.646   1.280   8.405 -0.1499 -0.0066 -0.1353
27219W        W27419   7.194   7.703  13.721  0.1761  0.0395 -0.0551
27220W        W27420   3.145   7.112   2.154 -0.1585 -0.0689  0.1295
27221W        W27421   8.743   7.603  14.605 -0.1359 -0.1393 -0.1116
27222W        W27422  14.012  11.099   9.396  0.1625 -0.0925  0.0629
27223W        W27423   9.508   1.850   9.246 -0.0712  0.0433 -0.1880
27224W        W27424   8.866  12.500  12.572  0.2172 -0.1478 -0.0890
27225W        W27425  14.010  14.464   0.189  0.5626 -0.1448 -0.0799
27226W        W27426   1.021   3.609   5.725 -0.1021 -0.1362 -0.4202
27227W        W27427  12.248   1.080  12.699  0.1550 -0.3436 -0.0555
27228W        W27428   1.533   0.979  14.464  0.3078 -0.0534  0.4310
27229W        W27429   8.025  10.688  11.172  0.1211  0.1248  0.0424
27230W        W27430  11.035  12.183   4.493 -0.0647 -0.0815 -0.2088
27231W        W27431   7.534   0.136  13.023 -0.1673 -0.0342  0.3641
27232W        W27432  13.647   0.871  11.543  0.1327 -0.1689  0.1814
27233W        W27433   2.513   4.437  10.678  0.2941 -0.1156 -0.1059
27234W        W27434   5.580  10.183   8.468 -0.0565 -0.3619 -0.0969
27235W        W27435   5.955   8.360  12.939 -0.4314  0.1155  0.2125
27236W        W27436   9.573  10.547  13.779  0.0201  0.2199 -0.0998
27237W        W27437   2.324  11.182  11.362  0.0099 -0.0879 -0.0144
27238W        W27438   9.485   4.741   1.039  0.2040  0.0363  0.0175
27239W        W27439   2.083   3.658   1.649 -0.0837  0.1903  0.0553
27240W        W27440   2.132   7.064  14.567 -0.2470 -0.1062  0.1762
27241W        W27441  10.854   8.163   2.769 -0.1294  0.1217 -0.1855
27242W        W27442   8.580   0.037   3.388 -0.0575  0.0031  0.1510
27243W        W27443  13.005   7.785   0.039 -0.0771 -0.0593  0.2367
27244W        W27444   9.100   4.431  10.893  0.4739 -0.3673  0.1239
27245W        W27445   6.681   9.328   7.612  0.1240  0.1550 -0.0579
27246W        W27446   1.861  12.324  14.004  0.0213  0.2936 -0.3591
27247W        W27447   4.870   2.686  10.178  0.0970 -0.1932  0.0894
27248W        W27448   5.647   4.665  10.434  0.2428 -0.2467 -0.1151
27249W        W27449   1.704  13.268  10.295  0.1651 -0.1964  0.1310
27250W        W27450   3.867  13.261   0.443  0.1134 -0.0932 -0.1463
27251W        W27451  11.655  10.170   6.139 -0.0648 -0.5042  0.0243
27252W        W27452   5.678   6.900  11.170 -0.0110  0.0738  0.0668
27253W        W27453   1.020  10.596  13.299 -0.1162 -0.3452 -0.0845
27254W        W27454   4.735  14.743  12.072  0.0164 -0.1655 -0.0637
27255W        W27455   0.180   6.748  10.779  0.3833  0.1138  0.0321
27256W        W27456   3.624  11.044   3.865 -0.3967 -0.1273 -0.2336
27257W        W27457  10.181   1.332   5.232  0.2736  0.1507  0.0057
27258W        W27458   1.058  11.416  10.953  0.2399 -0.1013  0.1650
27259W        W27459   3.804  12.511   0.820  0.0920  0.0323  0.1707
27260W        W27460   8.895   9.945  14.082 -0.0787 -0.2680 -0.3926
27261W        W27461   5.157  12.776   6.998 -0.0772 -0.3820 -0.2176
27262W        W27462  11.818   0.758  14.029  0.1042 -0.1804 -0.1229
27263W        W27463  14.543   1.224  12.077  0.4947  0.0798 -0.1327
27264W        W27464  12.911   1.375   2.391  0.0600  0.4104 -0.1078
27265W        W27465   9.032  10.251  11.855 -0.0811 -0.0904  0.3389
27266W        W27466  14.108  10.640   9.622 -0.0476  0.1811  0.0063
27267W        W27467   3.098   0.253  13.989  0.0695 -0.0247  0.2193
27268W        W27468   8.147  10.734  13.991  0.1498  0.1832  0.3577
27269W        W27469   7.984   2.018   3.689  0.2756  0.0240 -0.1111
27270W        W27470  15.095   3.222  13.206  0.0758 -0.1538  0.0341
27271W        W27471   8.357  12.811   9.482  0.2231  0.1506 -0.0517
27272W        W27472   8.452  11.075  14.937 -0.0004  0.1564 -0.1428
27273W        W27473   3.345   2.268   6.711 -0.0908  0.1362 -0.0844
27274W        W27474  10.409   7.307  14.226 -0.0077 -0.0472 -0.1174
27275W        W27475  13.349   7.751   1.452 -0.0733 -0.3509  0.0032
27276W        W27476   8.421   9.855  14.337  0.0323  0.0729  0.1636
27277W        W27477  10.656   4.850   1.864 -0.0898 -0.2119 -0.0187
27278W        W27478  14.867  12.799   9.447 -0.3475  0.1630 -0.2655
27279W        W27479  11.768   2.964   2.025  0.0267 -0.3322  0.2535
27280W        W27480  13.696  10.770  10.606  0.3441  0.1451 -0.2352
27281W        W27481  14.511   2.914  14.302  0.0760 -0.0848 -0.1034
27282W        W27482   2.768  10.947  14.902  0.0298  0.2875 -0.1488
27283W        W27483   2.411   3.666  12.271  0.1239 -0.0457 -0.0576
27284W        W27484   0.025   1.421  12.786  0.1068 -0.1275  0.0012
27285W        W27485   4.078  12.037   4.117 -0.0580  0.1375 -0.0829
27286W        W27486   2.464   9.285  14.032  0.0128  0.0943  0.0116
27287W        W27487   4.736   1.379   4.529  0.0829  0.0257  0.1651
27288W        W27488  10.087   9.723  11.259  0.0872  0.1365 -0.0331
27289W        W27489   8.253  14.397  14.577 -0.0988 -0.0211  0.0309
27290W        W27490  12.364  15.176   2.654  0.1134 -0.1821  0.2486
27291W        W27491   8.718  12.977  12.688  0.0247 -0.2299  0.4079
27292W        W27492  10.504   2.681   1.943 -0.1755 -0.2597  0.2422
27293W        W27493   2.832  14.418  12.988 -0.0416  0.4521  0.2584
27294W        W27494   3.623   5.372   8.745  0.0605  0.2002  0.1472
27295W        W27495   0.863  13.935  11.151 -0.0922  0.0593  0.0639
27296W        W27496   9.560  11.890   0.318  0.0095  0.0331 -0.1665
27297W        W27497   2.070   9.498  12.616 -0.2598 -0.1776 -0.0756
27298W        W27498   2.770   3.191  10.090 -0.1765 -0.2272 -0.2358
27299W        W27499   2.470   2.319   9.851  0.2964  0.0966 -0.0447
27300W        W27500   0.516   0.158   3.748  0.3151 -0.0769  0.0106
27301W        W27501   6.767   8.039  14.884  0.1749  0.1890 -0.2353
27302W        W27502   4.843  11.415   1.616  0.0085  0.1496  0.1023
27303W        W27503  11.010  10.244  11.975 -0.0744  0.2564  0.2524
27304W        W27504   5.964   2.930  11.594  0.0750 -0.4797 -0.0176
27305W        W27505   4.960  12.759  10.485  0.0068  0.0686 -0.0087
27306W        W27506  12.255  11.718   0.232  0.0307  0.0314 -0.1213
27307W        W27507  10.901   3.848   6.169 -0.2688  0.2138 -0.0035
27308W        W27508   6.288  11.065  13.784  0.1487  0.1000  0.0120
27309W        W27509   7.141   0.250  10.193  0.2881  0.0256  0.1101
27310W        W27510  12.846   6.978  11.395  0.3211 -0.2617 -0.2109
27311W        W27511  13.532  10.545  11.037 -0.2322 -0.0238  0.2246
27312W        W27512  13.513  11.664  13.944  0.0721  0.0140 -0.0051
27313W        W27513   1.871   2.353  12.333  0.0531  0.2311  0.2336
27314W        W27514  12.176   6.693  12.690  0.1751  0.1252 -0.1775
27315W        W27515   9.252   7.473  10.042 -0.1966 -0.1313  0.0311
27316W        W27516   1.573   2.064  11.985 -0.1587 -0.2291 -0.0523
27317W        W27517   9.566   2.075  14.611  0.2080  0.2423 -0.2717
27318W        W27518  14.271  11.409   6.835  0.5198 -0.4057  0.0502
27319W        W27519  12.839   7.570   1.148 -0.0810 -0.3057 -0.0593
27320W        W27520   2.608   6.476   9.009 -0.0399  0.0494 -0.3559
27321W        W27521   0.550   8.350   7.088 -0.1128 -0.0434 -0.3111
27322W        W27522  10.381   7.705  12.233 -0.1606 -0.0337  0.2214
27323W        W27523   9.407   0.502   3.443 -0.1730  0.0065 -0.3501
27324W        W27524   5.367   5.307   9.959 -0.1935 -0.0167  0.0163
27325W        W27525  14.836   7.030   2.933  0.2959 -0.2204 -0.1857
27326W        W27526   4.569  10.025   6.191 -0.1145 -0.0063  0.0837
27327W        W27527   5.261   6.997   8.115  0.1312 -0.0577 -0.0923
27328W        W27528   3.774   2.258   7.099 -0.0612  0.0571 -0.1529
27329W        W27529   0.585   6.455   0.577 -0.0143  0.1134 -0.0006
27330W        W27530   9.386  12.519   9.484 -0.3208  0.1358 -0.0716
27331W        W27531   8.033   4.428   6.409 -0.0308 -0.1254  0.3340
27332W        W27532   1.318   1.847   4.942 -0.1552  0.2362 -0.0767
27333W        W27533   1.939   9.997  12.588  0.4420 -0.1073 -0.1912
27334W        W27534  13.478   8.698  14.157  0.0768 -0.0236  0.0591
27335W        W27535  13.596  12.356   1.325 -0.1806 -0.1907  0.1414
27336W        W27536   1.536   0.138   6.171 -0.1058 -0.2545 -0.0756
27337W        W27537   8.739   0.402   9.512 -0.0297  0.1964 -0.0058
27338W        W27538   7.768   9.353   4.905  0.2425  0.1309  0.0694
27339W        W27539   3.853  14.249   9.108  0.1347 -0.3194 -0.3250
27340W        W27540   5.948   2.449  11.404  0.0597 -0.1293  0.0452
27341W        W27541   1.535   9.160  11.412 -0.0612 -0.1277 -0.0250
27342W        W27542   4.378   8.953  14.368 -0.0432 -0.5602  0.0716
27343W        W27543  13.580   1.165  12.198  0.2167 -0.1466 -0.1182
27344W        W27544   1.682   1.150  10.180  0.1299  0.2591 -0.3812
27345W        W27545   8.533   2.895   3.630  0.0058 -0.0197 -0.0669
27346W        W27546   0.468   8.074   8.846 -0.0686 -0.1165 -0.0637
27347W        W27547   2.296   4.960   7.611  0.1126  0.1164 -0.1886
27348W        W27548   9.564   8.895  11.083 -0.2105 -0.1016 -0.0464
27349W        W27549  13.817   0.358   9.335  0.0495  0.3642 -0.2312
27350W        W27550   1.954  10.187   4.326 -0.0087  0.2533 -0.3853
27351W        W27551  12.548  13.920   1.632  0.2382 -0.1414 -0.0556
27352W        W27552   7.366  14.247   2.698  0.0549 -0.1147 -0.0300
27353W        W27553   0.332   7.215  10.696  0.2246  0.0372 -0.1703
27354W        W27554   0.618   4.671   7.891  0.1757 -0.0688  0.0700
27355W        W27555  11.967  11.419   2.078  0.1005  0.1133  0.2187
27356W        W27556   5.168   5.459  14.955 -0.0149  0.2373 -0.1810
27357W        W27557   2.078  14.238  11.906 -0.2074  0.0837 -0.2049
27358W        W27558   0.092  12.666   5.418 -0.0433  0.2675  0.0634
27359W        W27559   9.451   8.542  14.975  0.1680  0.0090  0.0054
27360W        W27560   8.592  14.157   0.401 -0.1660  0.0263 -0.0256
27361W        W27561   6.029   4.403   0.098 -0.0448 -0.1325  0.0031
27362W        W27562   3.873   6.992  14.316 -0.3682  0.1390  0.4801
27363W        W27563  10.271  10.272  13.727  0.0644  0.1077 -0.1037
27364W        W27564  10.410   0.956  12.616  0.2004  0.1524 -0.0240
27365W        W27565  15.158   0.341   8.434 -0.2276  0.1256  0.1918
27366W        W27566  12.733  10.287   4.526  0.3462 -0.0041 -0.0617
27367W        W27567  12.007   0.497  11.842 -0.1580  0.0485  0.0396
27368W        W27568   4.442   2.498  14.922  0.1908  0.0321 -0.0735
27369W        W27569   7.497  14.459  10.073  0.1301 -0.0935 -0.2265
27370W        W27570  10.103   1.008   0.681  0.0174  0.0953  0.2974
27371W        W27571   1.666   6.862  13.163  0.0767 -0.1420 -0.4013
27372W        W27572  13.288   6.482  11.205  0.2017  0.1929 -0.1339
27373W        W27573   0.257  10.930   6.679  0.1720 -0.1552 -0.1662
27374W        W27574   9.389   2.758  13.448  0.0748 -0.0220  0.3560
27375W        W27575  13.787   7.358   0.534 -0.3146  0.2273  0.0784
27376W        W27576  11.154   1.858   4.063 -0.3943 -0.1544 -0.3313
27377W        W27577   2.384   4.030   9.602  0.1948 -0.2444 -0.1969
27378W        W27578   1.459  13.392  14.445  0.4837  0.1628  0.0985
27379W        W27579   0.182   3.804   7.490  0.0016 -0.1589  0.0798
27380W        W27580  11.998  10.722   0.348 -0.0587  0.0414  0.2161
27381W        W27581  11.559   5.462   9.241 -0.2420  0.1744  0.0525
27382W        W27582   8.086   3.427  14.140  0.1602 -0.3090  0.0333
27383W        W27583   1.692   6.761   2.609 -0.2641 -0.2470 -0.2689
27384W        W27584   6.487  14.218   7.836  0.0633 -0.0095  0.1720
27385W        W27585  13.726   7.980   3.707  0.0343 -0.3909  0.0828
27386W        W27586  14.129   9.327  13.121  0.1113  0.2298 -0.2618
27387W        W27587   2.378   9.156  11.497  0.0821 -0.4529  0.0053
27388W        W27588   1.762   2.310  11.597  0.0400 -0.1355  0.0953
27389W        W27589  10.979   4.478   8.433  0.1933  0.1415  0.2566
27390W        W27590  14.175   0.710   0.055  0.3265 -0.0873 -0.1845
27391W        W27591  14.144   1.567  14.944 -0.0391  0.1852  0.3540
27392W        W27592  11.839   9.257   1.964  0.3549  0.1669  0.1251
27393W        W27593   3.243   2.155   0.335 -0.0734 -0.2697  0.2337
27394W        W27594   9.015   2.741  13.820 -0.0343  0.1610  0.1683
27395W        W27595  13.897   7.650   1.701  0.0760  0.1025  0.0111
27396W        W27596   4.769  10.679  11.367 -0.0717  0.1734  0.0060
27397W        W27597   1.279  13.756  12.199  0.1278  0.0170  0.0433
27398W        W27598   1.052   2.379  14.266  0.1306  0.0256 -0.0426
27399W        W27599   1.853   5.586  14.612 -0.0134 -0.2149 -0.1412
27400W        W27600   2.311   2.114  11.393  0.0677  0.1497  0.0995
27401W        W27601   3.231  14.894   4.247  0.0484  0.0702  0.0147
27402W        W27602   3.902  14.520  13.280  0.1950  0.1970  0.1482
27403W        W27603  14.319   8.387  10.484 -0.1827 -0.0002  0.2847
27404W        W27604   5.826  11.578  10.651 -0.1677  0.1513  0.0471
27405W        W27605   7.236  14.918  10.353 -0.1158 -0.0386  0.2347
27406W        W27606  13.804  14.605   2.526  0.4457 -0.1996  0.0275
27407W        W27607  11.116   0.365  12.962 -0.2325 -0.0825 -0.0977
27408W        W27608  15.010  11.951   1.508 -0.1707 -0.0616 -0.0249
27409W        W27609   2.848   3.428  12.149  0.0756  0.0029 -0.1327
27410W        W27610   1.890   0.179  13.316 -0.0842 -0.0114  0.0159
27411W        W27611  14.841   2.738   1.146  0.1239 -0.0007  0.0690
27412W        W27612  14.742   3.195   1.187  0.0440 -0.0577  0.1833
27413W        W27613   6.703   5.767  12.945  0.0920 -0.5065 -0.0368
27414W        W27614  11.268  12.503   3.402  0.1073  0.1518  0.3400
27415W        W27615  12.068   2.602   0.878 -0.0233 -0.0126  0.1564
27416W        W27616   8.621  12.218  14.387  0.0742 -0.0388  0.2537
27417W        W27617  12.701  12.019   9.432  0.1075  0.1633 -0.0797
27418W        W27618   9.584  14.997  11.316 -0.1854 -0.1983 -0.1485
27419W        W27619   9.527   6.904  12.613 -0.2964  0.0791 -0.0056
27420W        W27620   5.693  10.426  14.615 -0.1864 -0.2440  0.0309
27421W        W27621   0.079   0.354   1.815 -0.0076 -0.0581 -0.0422
27422W        W27622  13.127   2.065   1.175  0.0197 -0.1431 -0.1633
27423W        W27623   7.374   7.106   9.596 -0.0774  0.0859  0.0439
27424W        W27624  13.005  11.328  10.506 -0.0739 -0.2180  0.0249
27425W        W27625   7.415   8.896   7.245 -0.0419 -0.1235 -0.1811
27426W        W27626   5.981  14.932   7.178  0.1461 -0.0506 -0.1219
27427W        W27627   1.768   9.839  14.038 -0.1518  0.0791  0.0885
27428W        W27628  12.416   6.316   4.298  0.0382  0.1318 -0.0564
27429W        W27629   8.565   6.427  11.288 -0.4374  0.0274 -0.3211
27430W        W27630   3.037   4.433   7.565 -0.0419  0.0154  0.2622
27431W        W27631  15.093  14.211   1.865 -0.2434 -0.1775  0.1230
27432W        W27632   0.614  12.622   0.138  0.0869  0.1395  0.3010
27433W        W27633  11.576  11.293   1.498  0.0999 -0.1628  0.0073
27434W        W27634   4.909   8.190   8.124  0.1522 -0.1730  0.1066
27435W        W27635   3.710  13.811   7.763 -0.1171 -0.0035 -0.2375
27436W        W27636   9.242   1.864   0.174 -0.3122  0.0651 -0.2659
27437W        W27637  12.728   6.569  11.782 -0.1730 -0.4457  0.0196
27438W        W27638   7.252  12.605   0.727 -0.1212 -0.0618  0.0987
27439W        W27639   5.596   3.503  12.658  0.1453 -0.0836  0.0223
27440W        W27640   0.859   8.877  14.121 -0.4210 -0.0304  0.0956
27441W        W27641   8.282   5.094   0.842  0.2452 -0.1785  0.0656
27442W        W27642   2.277   0.768   3.440 -0.0849  0.0814 -0.1129
27443W        W27643  12.293  10.771  11.412 -0.0980  0.0917 -0.1648
27444W        W27644   3.328  14.633  11.354  0.0577  0.2643  0.1026
27445W        W27645  15.016  14.339   0.092 -0.2916  0.0758 -0.1935
27446W        W27646   9.712  15.144  12.955  0.1288 -0.1018 -0.3479
27447W        W27647   8.845   7.180   6.375 -0.1325  0.1335  0.1202
27448W        W27648  13.206  11.655   1.322  0.1189  0.1223 -0.1741
27449W        W27649   3.192   4.320   8.022  0.2096  0.1636 -0.0579
27450W        W27650   2.223   3.191  12.371 -0.1805 -0.0382  0.0246
27451W        W27651   0.359   4.323   7.552  0.0574 -0.1425 -0.3291
27452W        W27652   1.738   7.092   7.634  0.2474  0.0267  0.2515
27453W        W27653   2.987   2.774   0.201  0.2727  0.0845  0.1740
27454W        W27654   2.418  15.007   0.813 -0.0449  0.0500  0.2869
27455W        W27655   1.449   5.000  12.877 -0.2521  0.1851  0.1453
27456W        W27656  13.691   7.208  10.857 -0.1591  0.1157 -0.3357
27457W        W27657   5.314   3.648  10.931  0.0537  0.0406 -0.1204
27458W        W27658   2.719   8.019   0.089 -0.1863  0.3751 -0.1332
27459W        W27659   9.538  10.661   0.833 -0.1236 -0.1995  0.0785
27460W        W27660   4.032  12.558  13.617 -0.1373  0.0068  0.0381
27461W        W27661   9.838  13.024  14.667  0.0040  0.1941 -0.1260
27462W        W27662   8.920   2.117   1.780 -0.0294  0.0586 -0.0479
27463W        W27663  11.839  14.702  10.247 -0.1248  0.1046  0.0859
27464W        W27664  13.886  15.126  13.726  0.0387  0.1785 -0.0196
27465W        W27665   2.807  15.092   5.704  0.0683 -0.0168  0.1531
27466W        W27666   0.111  12.039   1.130 -0.2475 -0.0972 -0.0333
27467W        W27667   7.534   0.151   2.960 -0.2375 -0.0557  0.0301
27468W        W27668   6.212   4.847   0.574  0.0149 -0.0183 -0.2578
27469W        W27669   2.212  15.095  11.241  0.1024 -0.2199  0.0080
27470W        W27670   1.143   0.054   5.392 -0.0579  0.3310 -0.2282
27471W        W27671   9.721   3.865  12.711  0.1234  0.0415  0.0486
27472W        W27672  14.750  14.216   4.057  0.0525 -0.2588  0.2476
27473W        W27673   0.199   5.493  13.122  0.1185  0.0679  0.0722
27474W        W27674  13.150   4.455   6.002 -0.3080 -0.2861 -0.2324
27475W        W27675   2.822   8.889  11.495 -0.0595 -0.0407 -0.0844
27476W        W27676  10.850   9.119  10.899  0.2187 -0.1442  0.4059
27477W        W27677   0.562   0.193  11.932  0.1754  0.0986  0.3581
27478W        W27678   9.228  13.244   6.172  0.1066 -0.1890 -0.1712
27479W        W27679   0.712  13.331   3.318  0.3086  0.2761  0.1257
27480W        W27680   5.356  10.233   0.255 -0.1510 -0.3265 -0.2187
27481W        W27681   1.944  12.996  14.576 -0.1790 -0.2186  0.2603
27482W        W27682   7.575  11.902  11.130  0.1781  0.0385  0.3913
27483W        W27683  11.376   6.999  12.343 -0.3404  0.2100  0.1978
27484W        W27684  14.204   7.291   1.434  0.3465 -0.0034 -0.0153
27485W        W27685  13.027   6.595  10.802 -0.0999 -0.2739  0.3238
27486W        W27686  14.774   9.145  10.558 -0.1009 -0.2700  0.2260
27487W        W27687   7.214   1.437   1.747  0.1233  0.0035 -0.0914
27488W        W27688  10.579   3.368  13.303  0.1365  0.0826 -0.1557
27489W        W27689  13.321  12.592  14.063 -0.2057  0.3068 -0.2710
27490W        W27690   8.324  11.636  12.731 -0.0650 -0.2081  0.1292
27491W        W27691   6.266  13.554   9.675 -0.0973  0.1334  0.2427
27492W        W27692   0.614  13.274  15.114 -0.1292 -0.0292 -0.0636
27493W        W27693   3.458   1.223   6.941  0.0624 -0.2076 -0.1367
27494W        W27694   1.830   4.309   3.946  0.2234 -0.1668  0.1670
27495W        W27695  12.490  14.308   3.787 -0.1321 -0.1199  0.0115
27496W        W27696   0.904  10.558   9.009 -0.1918  0.0371 -0.2321
27497W        W27697   2.590   6.126  10.346  0.2312  0.1391  0.1696
27498W        W27698   6.840  11.434   1.923 -0.2370  0.0373 -0.0709
27499W        W27699  10.414   8.229   4.818 -0.1931  0.2437 -0.4276
27500W        W27700  14.234   5.755  10.660  0.1402 -0.0764 -0.1938
27501W        W27701   3.195  11.724   2.121 -0.1272  0.0687 -0.1812
27502W        W27702   1.978   6.337  15.054  0.0760  0.2049  0.1475
27503W        W27703  11.824   0.891  11.453 -0.0807 -0.0441 -0.0338
27504W        W27704  13.451  14.755   1.232 -0.3127 -0.0083 -0.1200
27505W        W27705   0.155  10.954  14.272 -0.0284  0.1343 -0.2113
27506W        W27706   0.875   6.945   5.995  0.0485  0.1836  0.2229
27507W        W27707  13.560  10.522   8.909 -0.1382 -0.3076 -0.0487
27508W        W27708   1.547  10.844   7.776  0.0703 -0.2620 -0.4252
27509W        W27709  14.937   1.830  10.162  0.1215 -0.0254  0.1779
27510W        W27710   9.492   0.578   3.958  0.0432 -0.2847 -0.0443
27511W        W27711  14.452   8.825  14.997 -0.2722 -0.1147  0.3630
27512W        W27712  10.854  10.590  14.922 -0.1933 -0.0060  0.2336
27513W        W27713  11.811   2.142   6.726 -0.0458  0.1028 -0.1596
27514W        W27714  10.729   2.616   1.187  0.1324  0.3144  0.2081
27515W        W27715   3.692  12.356  12.483 -0.0587  0.1655  0.2670
27516W        W27716   3.966  10.971   7.169 -0.0118  0.0786 -0.0304
27517W        W27717   8.574  12.742  14.105  0.0632 -0.1265 -0.3249
27518W        W27718  11.041   2.234   6.397  0.1266  0.0247  0.3465
27519W        W27719   6.097   0.814  14.563  0.5217  0.0147  0.0933
27520W        W27720  15.033   0.404  13.905 -0.1931  0.2947  0.0437
27521W        W27721   8.836   3.261   2.225  0.2208 -0.1877  0.2610
27522W        W27722  12.255   7.098   5.874 -0.2523  0.0549 -0.3870
27523W        W27723   1.843  11.476  10.348 -0.1542 -0.0621 -0.0912
27524W        W27724  12.397  15.066  13.541  0.2855  0.0398 -0.2929
27525W        W27725   0.567   0.123  14.157  0.0792 -0.2222 -0.2549
27526W        W27726  14.960  10.624   5.393  0.1056  0.0807 -0.0868
27527W        W27727   8.116  11.563   5.421  0.0214  0.1769  0.4905
27528W        W27728   4.958  13.555  14.080 -0.1196 -0.1693  0.0668
27529W        W27729   2.746   8.029   1.590  0.1848 -0.0949 -0.1502
27530W        W27730   2.039   5.939  12.014 -0.0696  0.0257 -0.0199
27531W        W27731   5.965   6.252  14.901  0.2713  0.2730  0.0545
27532W        W27732  14.674  14.930   8.050  0.0398  0.0752 -0.2147
27533W        W27733   9.393  11.331   4.402 -0.2606 -0.0484 -0.0828
27534W        W27734   5.821   2.551   9.010  0.0583  0.4295  0.1765
27535W        W27735   3.402   7.791  11.152  0.2264  0.0091 -0.3509
27536W        W27736  11.579  10.893   1.202  0.0592  0.0380  0.1387
27537W        W27737   9.772   3.499   7.154 -0.1236 -0.1738 -0.1674
27538W        W27738  11.331   8.756   2.906  0.2276 -0.3363 -0.0368
27539W        W27739  10.895   1.222  10.436  0.0873 -0.1770 -0.0399
27540W        W27740   9.554   1.323   1.997 -0.2512  0.0837 -0.0526
27541W        W27741  10.536  11.662  14.203  0.2404 -0.2533 -0.0545
27542W        W27742   9.155   1.730   6.051  0.1095 -0.2096  0.2106
27543W        W27743  13.196   4.650   5.601  0.2426 -0.1247  0.4630
27544W        W27744   2.562   8.510   2.431  0.0610  0.4684  0.0886
27545W        W27745  12.834  14.389  11.045  0.0097  0.1474  0.2430
27546W        W27746  10.609  13.438   4.962 -0.0395 -0.1363  0.0935
27547W        W27747   4.430   3.677   0.268 -0.0160  0.2183  0.0685
27548W        W27748   4.541  13.415  10.674 -0.2552  0.3147  0.0903
27549W        W27749  12.461  10.473  12.267 -0.0987 -0.2194 -0.0567
27550W        W27750  10.808  11.831  11.848 -0.4794 -0.2386  0.0635
27551W        W27751   3.353  14.799   3.108  0.3195 -0.1229 -0.2570
27552W        W27752  10.977   1.134   8.377  0.1081  0.1115 -0.1075
27553W        W27753   0.490   5.685  14.085  0.2653 -0.0541 -0.0791
27554W        W27754  13.044  14.816   6.633 -0.1695 -0.2011  0.0349
27555W        W27755  12.820   2.541  10.785  0.2835 -0.0693 -0.0217
27556W        W27756  13.980   0.394   2.160  0.0155 -0.3281 -0.1083
27557W        W27757   4.273   9.005  12.075 -0.1391 -0.1081  0.1125
27558W        W27758   0.132   9.593  14.267 -0.1972  0.3359  0.1696
27559W        W27759   1.720   3.775   4.463  0.1340 -0.1869 -0.2877
27560W        W27760  15.155   8.646  14.421 -0.2100  0.0898 -0.0434
27561W        W27761   5.218   0.334  12.772  0.0759 -0.0153  0.0182
27562W        W27762   9.861   2.652   0.100 -0.1274 -0.1918 -0.2983
27563W        W27763   1.511   7.747  11.713  0.0953  0.1459  0.0780
27564W        W27764  10.155  10.971   6.147  0.0029 -0.3389 -0.0034
27565W        W27765  14.974   5.977   9.649  0.0021 -0.2995 -0.3561
27566W        W27766   3.245   0.806   7.194 -0.2635 -0.0744 -0.0813
27567W        W27767  12.866  14.350  13.379  0.1323  0.2461  0.1386
27568W        W27768  12.205  13.493   3.315  0.3368 -0.1080 -0.0300
27569W        W27769  12.029   9.661   2.235  0.3952  0.2955 -0.0071
27570W        W27770  11.110  12.375  11.023 -0.2728  0.1403 -0.0201
27571W        W27771  12.145  14.216   1.450 -0.0345  0.1761  0.0725
27572W        W27772   0.653  10.501   4.442 -0.1501  0.3259  0.0726
27573W        W27773   0.895  10.657  12.485  0.1661 -0.1999 -0.0746
27574W        W27774  12.085  14.174  11.331 -0.1145 -0.2037 -0.0426
27575W        W27775  14.795   4.379  10.901 -0.1181 -0.0378 -0.1638
27576W        W27776  13.326  11.397   4.650  0.0117 -0.1006  0.2001
27577W        W27777   5.450   6.084   5.636  0.3238 -0.0017  0.1471
27578W        W27778   0.002  14.577   5.035 -0.1219 -0.1774  0.1705
27579W        W27779  12.888   1.864   6.327 -0.0922  0.1296 -0.1601
27580W        W27780  11.774  10.273   0.443  0.0833 -0.0723  0.0825
27581W        W27781   3.856   2.439  12.289  0.1563 -0.2413  0.4708
27582W        W27782   0.811   6.336   4.861  0.0305  0.1466 -0.0528
27583W        W27783   5.779  13.813  12.057  0.2712 -0.3490 -0.0285
27584W        W27784   5.711  11.975   4.248 -0.1963 -0.0921 -0.0727
27585W        W27785   9.471  10.747   0.299 -0.0885  0.0930 -0.3321
27586W        W27786  10.938   2.217   1.480  0.0262 -0.0634  0.1811
27587W        W27787  13.949   2.128  10.499 -0.2585  0.4555 -0.2878
27588W        W27788  12.850   6.208   7.632 -0.1672 -0.0744  0.1171
27589W        W27789   0.261   5.869   0.110 -0.0664  0.1759 -0.2971
27590W        W27790  13.689  11.152   5.231  0.1498 -0.0087  0.3114
27591W        W27791  13.345  14.159   3.286 -0.0249 -0.0946  0.0760
27592W        W27792   3.694  11.702  14.358 -0.1342  0.0488  0.1006
27593W        W27793   8.858   0.338   6.716  0.2506  0.0238  0.2927
27594W        W27794  12.622   0.766   2.868  0.0715  0.0402  0.1653
27595W        W27795   0.441   4.235   3.788  0.0773  0.2159  0.0019
27596W        W27796   0.888   5.433   0.730  0.0479 -0.1039  0.1269
27597W        W27797   2.116  11.120  14.399 -0.1976  0.0115 -0.0681
27598W        W27798   0.905   1.773   7.655  0.0404 -0.0418 -0.0184
27599W        W27799   7.667  14.879   3.285 -0.2251  0.1439  0.0346
27600W        W27800   6.949   0.798   4.343 -0.0045 -0.0299 -0.0774
27601W        W27801   3.112   3.871  12.876 -0.3912 -0.1748 -0.2350
27602W        W27802   9.307   0.344   0.942 -0.0090  0.2837 -0.1238
27603W        W27803   9.917   2.395   7.707 -0.3724 -0.1113  0.1986
27604W        W27804   7.694   9.825   5.621  0.0677  0.1316 -0.1322
27605W        W27805  12.229  11.183   1.736 -0.0358 -0.2918  0.2159
27606W        W27806   8.307  10.881   7.007 -0.3217 -0.0457 -0.0767
27607W        W27807   1.434  13.279   4.333  0.0422  0.0449  0.0300
27608W        W27808   0.108   7.632   3.298  0.2437  0.4457 -0.1834
27609W        W27809  12.600   6.579  12.278 -0.1668 -0.1746 -0.0104
27610W        W27810   8.440   1.082   7.976  0.1629 -0.0910 -0.3205
27611W        W27811   1.665   3.789  10.175 -0.2911  0.0744  0.1915
27612W        W27812   4.676   4.129   6.644  0.3927  0.2020 -0.1171
27613W        W27813   9.720   3.069  13.749  0.1341 -0.1239 -0.1643
27614W        W27814   9.662   1.084   2.862  0.0079 -0.2158 -0.5067
27615W        W27815   2.948  12.222   8.155 -0.0200 -0.0892 -0.2639
27616W        W27816   5.830  11.823   8.629 -0.4134  0.2290 -0.1284
27617W        W27817   4.676  14.035  11.311 -0.3626 -0.1239 -0.2523
27618W        W27818   0.798   4.153  10.530  0.0422  0.0904 -0.4003
27619W        W27819   2.669   2.436   1.039  0.1019 -0.3098 -0.2677
27620W        W27820   8.128  14.644  15.006 -0.2881  0.1588 -0.1928
27621W        W27821   7.256  12.401  10.357 -0.1586 -0.1166  0.2254
27622W        W27822   4.408  11.659   9.061  0.0539 -0.0763 -0.0613
27623W        W27823   5.429   2.852   4.004  0.3745  0.5494  0.0282
27624W        W27824  10.397  12.934   5.712 -0.1688 -0.1579  0.0545
27625W        W27825  10.312   2.206   7.130 -0.0231  0.1052 -0.1754
27626W        W27826  14.289  13.218   2.075 -0.1261  0.0982  0.0333
27627W        W27827  13.472   2.964   2.762 -0.5266  0.0275 -0.1228
27628W        W27828   9.184   3.670   8.302  0.1156  0.1399  0.0044
27629W        W27829  12.126   3.950  11.421 -0.2481  0.1476 -0.0232
27630W        W27830   2.698   8.486  13.493 -0.1123 -0.0869  0.0570
27631W        W27831   6.014  11.736   2.127  0.2033 -0.1526  0.0932
27632W        W27832   9.340   0.903   7.174  0.3476  0.2762 -0.0358
27633W        W27833   3.425   2.526   7.312  0.1810 -0.0867  0.1727
27634W        W27834   0.602  14.389   4.130  0.0107  0.0564  0.1144
27635W        W27835  14.452   0.328  10.619 -0.0765 -0.3683  0.5543
27636W        W27836   2.413  13.359   5.169  0.1284 -0.0106 -0.0403
27637W        W27837  10.662   0.078   8.973 -0.1632  0.0589 -0.0238
27638W        W27838   2.679   0.942   1.184 -0.0216  0.0298 -0.0876
27639W        W27839  11.841  11.226  10.622 -0.0174 -0.2941  0.2438
27640W        W27840  12.516   7.688   2.858 -0.1496 -0.2473  0.1054
27641W        W27841   0.031   0.673  14.659  0.0510 -0.1355 -0.0618
27642W        W27842   8.550   0.161  10.106  0.1028  0.0011  0.2903
27643W        W27843  14.792  13.173  10.915  0.0555 -0.0743 -0.1888
27644W        W27844   1.090   9.981   6.133 -0.0230 -0.1709  0.3259
27645W        W27845   7.310   0.888  12.444 -0.3472 -0.0852 -0.1897
27646W        W27846   6.847   7.597   8.232 -0.1078 -0.0458  0.3127
27647W        W27847   6.434   4.118  10.714  0.2438  0.1845 -0.1275
27648W        W27848   8.677   8.884   7.869  0.1396  0.0922 -0.1983
27649W        W27849   2.669   4.852  11.397 -0.0563  0.0496 -0.3158
27650W        W27850   9.062   6.649   5.722  0.3660 -0.1325  0.0982
27651W        W27851   3.915   3.415  15.003  0.2198 -0.3141 -0.0002
27652W        W27852   5.621   5.592  12.428  0.1410  0.2038 -0.0057
27653W        W27853  13.137   7.574   7.545  0.2749  0.1163 -0.3080
27654W        W27854   8.947  11.465  11.447 -0.3988 -0.1262 -0.1179
27655W        W27855   4.367  13.524   2.045  0.6086  0.2056 -0.0105
27656W        W27856  10.994  11.958   9.865  0.0535  0.2078  0.1986
27657W        W27857  11.166  13.679   5.826 -0.0104  0.1034 -0.0197
27658W        W27858   0.160  15.117  11.983  0.0879 -0.0258 -0.2198
27659W        W27859  13.543   4.847   0.058 -0.0388 -0.0900 -0.2715
27660W        W27860   4.270  12.833   5.687  0.0724 -0.0397  0.2912
27661W        W27861   3.114   3.051  11.344 -0.2413 -0.0309  0.0074
27662W        W27862   8.590   7.075   1.401  0.3096  0.2686  0.0075
27663W        W27863  14.129   0.039   5.033  0.1748  0.0703  0.0674
27664W        W27864   7.017  11.313   9.424  0.2884  0.0706  0.1701
27665W        W27865  14.366  13.878   5.207 -0.4931  0.0182 -0.0673
27666W        W27866   0.508  10.409   9.944  0.4044  0.1119 -0.2273
27667W        W27867   9.578   8.287   5.544  0.0726  0.0248 -0.1566
27668W        W27868  13.881   0.622  13.146  0.2677 -0.1999  0.3343
27669W        W27869   2.635  12.449  14.511  0.1693 -0.0784 -0.3400
27670W        W27870  12.583   6.596  14.901  0.3161 -0.1460  0.3156
27671W        W27871   8.449   4.289  11.884 -0.0281  0.1117 -0.3079
27672W        W27872   1.998   6.385   3.401  0.0854 -0.0993  0.0647
27673W        W27873  13.451   7.340   9.425  0.1090 -0.0632 -0.0536
27674W        W27874   7.750   0.126  12.570  0.0016  0.1315  0.0617
27675W        W27875  13.406  12.460   2.397  0.2001  0.1780  0.1380
27676W        W27876   1.220  14.963   8.674 -0.0320  0.2695  0.0743
27677W        W27877  14.974   6.460   1.970 -0.0572  0.0131  0.1279
27678W        W27878   1.439  12.198   7.050  0.5455  0.3221  0.0171
27679W        W27879  14.004   2.264   8.831 -0.2434  0.1671  0.1284
27680W        W27880  12.421   6.099   9.349  0.1419  0.1033  0.1916
27681W        W27881   9.833  10.324  11.635  0.0024 -0.0809 -0.0721
27682W        W27882  12.468   7.616   0.772 -0.0372 -0.0018 -0.3058
27683W        W27883  13.525   9.715  14.770 -0.0209  0.3342 -0.2539
27684W        W27884   4.279  14.257   9.456  0.1325 -0.1478  0.1328
27685W        W27885  11.011   3.416  12.031 -0.1463 -0.1664 -0.0388
27686W        W27886   4.619   4.610   0.091  0.1587 -0.0019 -0.1131
27687W        W27887   4.718  10.046  10.482  0.2419  0.1823 -0.0623
27688W        W27888  12.099  14.348  15.168  0.1877  0.1014 -0.1927
27689W        W27889   1.001   3.483   8.086 -0.2758  0.0080  0.1009
27690W        W27890  14.850   9.091  10.004  0.0251  0.0731 -0.2053
27691W        W27891   6.566   6.476   8.519  0.1746  0.1876  0.0228
27692W        W27892   0.239  14.751   8.578  0.1592 -0.0027 -0.2186
27693W        W27893   8.445  13.814  12.622 -0.0938  0.1651 -0.2600
27694W        W27894  12.216  14.974  10.505  0.1337  0.0012  0.0270
27695W        W27895   1.483   5.835   5.355 -0.3101  0.0526 -0.1157
27696W        W27896  13.842  12.484   2.649  0.0154  0.0325 -0.2319
27697W        W27897   2.876   0.777   6.041  0.1970  0.4113 -0.1615
27698W        W27898  12.708   8.577   7.501  0.1678 -0.2072  0.2260
27699W        W27899   1.389   8.500  13.066  0.0226  0.2541  0.1594
27700W        W27900   8.075  12.944  14.041 -0.0361 -0.2049 -0.1843
27701W        W27901   5.600  11.845   6.009  0.1327  0.1952  0.3742
27702W        W27902   6.675   5.240   5.511  0.1025  0.0383  0.0143
27703W        W27903   3.403  14.647  12.415  0.1484  0.1110 -0.1916
27704W        W27904   9.629   2.108   2.236 -0.0781 -0.0078  0.2236
27705W        W27905   1.734   9.271  13.815  0.4759 -0.3710 -0.0081
27706W        W27906   3.161   9.290  14.602  0.1475 -0.2666  0.0173
27707W        W27907  11.212   4.308  11.498  0.2979  0.0162  0.0065
27708W        W27908  10.685   2.066   3.291  0.1983 -0.0976 -0.2076
27709W        W27909   7.182  13.611  12.989 -0.0674  0.3109  0.0251
27710W        W27910  13.331   2.883  12.884  0.1738 -0.1757  0.2315
27711W        W27911   1.897   3.180   4.587 -0.1158 -0.0816  0.3057
27712W        W27912   0.315   5.886   9.194  0.1358  0.0514  0.2747
27713W        W27913  13.778  12.789  13.263 -0.0127 -0.0653  0.0036
27714W        W27914  10.357   8.545  13.281  0.0371  0.0279  0.0174
27715W        W27915  12.831   0.126   6.794  0.3095 -0.2027  0.3168
27716W        W27916  10.593  11.192   5.932 -0.1973 -0.0117 -0.2570
27717W        W27917   0.505   2.022   1.817 -0.0342 -0.0784 -0.2443
27718W        W27918   3.707   1.005  10.491  0.2057  0.0250  0.2957
27719W        W27919  14.741   0.735   5.537  0.1993 -0.0401  0.0654
27720W        W27920  10.707   3.518   5.788 -0.1361 -0.0008 -0.1714
27721W        W27921   2.053  14.274   8.375 -0.1050 -0.2135  0.1048
27722W        W27922   4.039   3.198   0.405 -0.1159 -0.1006  0.1297
27723W        W27923  12.643   5.116  10.890  0.4760  0.2520  0.1721
27724W        W27924   8.962  12.655   8.226  0.0675 -0.0880  0.0841
27725W        W27925   6.878   1.535   7.464  0.2528  0.3367  0.0201
27726W        W27926   1.174  14.578   6.335  0.1980 -0.1511  0.1326
27727W        W27927   4.302  12.728   9.269  0.0839 -0.1951  0.1605
27728W        W27928  10.882  10.000   3.293 -0.0850 -0.0408 -0.2077
27729W        W27929   4.033   5.333  14.991  0.0010  0.3430  0.1974
27730W        W27930  14.530   1.694  14.375 -0.1382  0.1049 -0.1631
27731W        W27931   1.736  10.688   4.336  0.0784  0.0353 -0.1127
27732W        W27932   6.457  13.444  11.523  0.2719 -0.1456  0.0245
27733W        W27933   2.436   2.007  12.241 -0.0215 -0.1596  0.0753
27734W        W27934  14.616  13.980  15.139  0.2745  0.1331  0.2057
27735W        W27935   9.167   3.634   9.228  0.1596 -0.1272  0.2390
27736W        W27936  11.695   8.342   5.922  0.3448 -0.4338  0.1911
27737W        W27937   2.001   5.631   3.894  0.4769 -0.3842  0.1070
27738W        W27938   1.359  12.678   7.078 -0.1785  0.0164 -0.2402
27739W        W27939   2.919  13.801  10.446 -0.0366  0.1645  0.0192
27740W        W27940  13.950   0.315  10.644  0.1088 -0.0102 -0.0977
27741W        W27941   1.096  14.207  14.062  0.1601  0.1348 -0.0972
27742W        W27942  10.233   4.543  13.990 -0.1445  0.3241  0.1715
27743W        W27943  14.172  10.468   1.462  0.0114 -0.0624  0.2669
27744W        W27944  11.456  12.948   0.316 -0.1220  0.3673  0.0198
27745W        W27945   3.976  13.900   9.985 -0.0401  0.0550 -0.1279
27746W        W27946   0.274   2.150  13.007 -0.1960  0.1306 -0.1373
27747W        W27947  13.553  12.441  12.566  0.0923 -0.2866 -0.3015
27748W        W27948   8.877  10.190  12.784 -0.3188  0.1961  0.0357
27749W        W27949   0.565   8.485   5.046  0.0675 -0.1849 -0.6492
27750W        W27950   7.977   0.858  14.106  0.3424 -0.0552  0.0364
27751W        W27951   0.228  12.557   1.125  0.0031 -0.0693  0.2756
27752W        W27952  11.928   5.790   7.996  0.2059 -0.1870 -0.0315
27753W        W27953   6.211  14.160   8.711  0.1001  0.0260 -0.0915
27754W        W27954   4.423   3.381   6.173 -0.2400 -0.4384  0.3385
27755W        W27955   6.381   1.377  14.612  0.0136  0.1153  0.2754
27756W        W27956  13.694   6.414   3.758  0.1255 -0.4214  0.2174
27757W        W27957  11.183   4.699   7.123  0.0768 -0.1190 -0.1926
27758W        W27958   0.421   1.071   3.713 -0.0024  0.0177  0.0004
27759W        W27959   9.713  14.416   2.033 -0.0663  0.1250 -0.1428
27760W        W27960  11.430  14.430  13.719  0.1577  0.0397  0.1159
27761W        W27961   1.054  10.641  15.134 -0.0836 -0.0221 -0.2147
27762W        W27962  13.203  13.472  11.173  0.1112  0.2683  0.1417
27763W        W27963   9.019  13.104  14.909  0.0378  0.0248 -0.0554
27764W        W27964  13.111  14.652   5.855  0.1526  0.0552  0.2996
27765W        W27965  11.690   6.376  14.159  0.1963 -0.2206  0.1370
27766W        W27966   5.403  14.875   5.714  0.0679 -0.1019 -0.1959
27767W        W27967   3.435   9.304  10.875 -0.0840 -0.2998  0.0625
27768W        W27968  10.871   2.965  13.215 -0.0733 -0.0454  0.0140
27769W        W27969  10.469  13.119  13.992  0.1703  0.1994  0.2428
27770W        W27970  15.037   8.310  13.296  0.0641 -0.0363 -0.2078
27771W        W27971  10.544  13.714   8.987  0.1431 -0.2702  0.3968
27772W        W27972  13.747   6.796   0.717  0.0644  0.1743  0.3648
27773W        W27973  10.052   4.043   9.264  0.0909  0.0496  0.3286
27774W        W27974   0.836   6.327  13.392 -0.2916  0.3094  0.0796
27775W        W27975  14.782   8.304  14.155 -0.0643  0.1566  0.2705
27776W        W27976   9.932  12.832   5.775  0.2404  0.2427  0.0035
27777W        W27977   0.416  14.452  11.234 -0.1699 -0.0336  0.1459
27778W        W27978   6.334  13.776   3.682 -0.2756  0.0015 -0.0033
27779W        W27979  13.863   4.101   4.910 -0.0051 -0.2511  0.0609
27780W        W27980  11.039   7.001   7.895 -0.0164 -0.0565 -0.2008
27781W        W27981  11.397   1.129  12.754 -0.0015  0.3884  0.1173
27782W        W27982   1.518   7.570   4.476 -0.1000 -0.0048 -0.0021
27783W        W27983   1.640  13.679   5.604 -0.1502  0.1506  0.1527
27784W        W27984   7.253   0.822  14.671 -0.2814 -0.0316 -0.0676
27785W        W27985  12.766  11.524   1.030  0.2284  0.3427  0.2036
27786W        W27986  12.960   3.670   2.463 -0.2926  0.1780 -0.0029
27787W        W27987   9.862   3.760   1.613 -0.0375  0.1220 -0.3843
27788W        W27988   0.229  11.135  14.725  0.0114 -0.3193  0.3372
27789W        W27989   8.387   6.872   9.051  0.0229 -0.0098 -0.0092
27790W        W27990   5.550  15.115   3.952  0.3730  0.1524 -0.1996
27791W        W27991   2.280   2.635  12.516 -0.1727  0.0845 -0.1108
27792W        W27992  11.635  11.057   8.318 -0.0683  0.1853 -0.4193
27793W        W27993   1.942   3.657   2.151  0.0951 -0.2428  0.1057
27794W        W27994   3.298   8.669   0.959  0.1031  0.0592  0.2128
27795W        W27995  10.095   7.460   6.481  0.5942  0.3294 -0.0690
27796W        W27996   0.067   6.259  10.977 -0.0209 -0.0878 -0.2026
27797W        W27997  14.774   6.386   0.206  0.1388  0.0202 -0.2920
27798W        W27998   3.012   9.179  10.117 -0.1875 -0.1951 -0.2052
27799W        W27999  13.955   2.795   2.836 -0.2912 -0.0377 -0.1428
27800W        W28000  10.185  14.677   1.839  0.2075  0.0502  0.0352
27801W        W28001   2.808  14.205  10.782  0.2706  0.1076  0.0759
27802W        W28002   7.618   1.768   1.908  0.1098 -0.0106  0.1194
27803W        W28003  14.372   7.287   5.749  0.0425  0.0725  0.0448
27804W        W28004   1.112   8.612  10.117 -0.1002  0.1459  0.2166
27805W        W28005  12.578  14.265   9.878  0.1922 -0.0479  0.1223
27806W        W28006  14.125   7.298  12.148  0.2935 -0.2577  0.3747
27807W        W28007   0.324   0.966  13.555 -0.0304  0.3448 -0.0435
27808W        W28008   6.792  13.083   1.327 -0.1602 -0.0262 -0.0860
27809W        W28009   7.257   4.511   3.402  0.3192  0.2279 -0.3221
27810W        W28010   7.031   5.423   1.304  0.0937  0.1273 -0.2597
27811W        W28011   3.079  14.395   2.348 -0.2119 -0.1180 -0.0945
27812W        W28012   2.389   2.057   0.462 -0.1567  0.0979  0.0980
27813W        W28013   7.792   5.839   5.310  0.0957 -0.0358 -0.0412
27814W        W28014  10.220   5.594   2.217  0.0121  0.3177  0.0135
27815W        W28015   4.828  13.125  11.379 -0.2318  0.1003  0.2596
27816W        W28016   6.516   6.937  10.898  0.0233  0.2911 -0.0178
27817W        W28017  12.046  14.979   9.285  0.1515  0.0323 -0.0597
27818W        W28018   6.500  12.435   8.730 -0.2427  0.1103 -0.2267
27819W        W28019   6.378   1.286  14.084 -0.0483 -0.0691  0.0539
27820W        W28020   2.584   2.582   1.930  0.3297 -0.0261  0.0848
27821W        W28021   3.000  14.056   4.970  0.0599  0.3063 -0.2933
27822W        W28022   3.214  11.589   8.459 -0.0222 -0.1051 -0.0338
27823W        W28023   3.047  11.044   9.016  0.2383 -0.0168  0.0090
27824W        W28024   2.545  12.900  12.875  0.0720 -0.0381 -0.2505
27825W        W28025   8.544   7.920  15.030  0.4469 -0.1127  0.1634
27826W        W28026   0.084   0.135   3.524  0.0081 -0.0912 -0.0745
27827W        W28027   2.508   5.634   8.949 -0.1060 -0.1511  0.2459
27828W        W28028  13.055   1.387  14.623 -0.2178 -0.0220 -0.0404
27829W        W28029  13.691   5.063   3.723 -0.0684  0.1663 -0.2307
27830W        W28030   1.650  14.573  11.914  0.0228 -0.3166 -0.1216
27831W        W28031   0.380   4.555   2.899 -0.1039 -0.2423  0.0044
27832W        W28032  15.179   9.931   1.447  0.1421 -0.1502  0.0727
27833W        W28033   4.401   0.896   1.859  0.1401  0.0150  0.0803
27834W        W28034   1.553   0.844   4.747  0.1867  0.1297 -0.1856
27835W        W28035  12.453   6.840   8.314 -0.0475 -0.1046  0.2237
27836W        W28036   0.405   7.165  12.543  0.2664  0.0509  0.3509
27837W        W28037   1.773   8.359   5.895  0.1019 -0.0767 -0.3670
27838W        W28038   9.638   9.744  13.697  0.2312 -0.2378  0.0978
27839W        W28039  11.625  13.358   1.676  0.0861  0.2681 -0.2649
27840W        W28040   1.560  11.545  11.741 -0.0892  0.0099  0.1533
27841W        W28041   1.919   5.795   5.141  0.3399  0.2964  0.0400
27842W        W28042  11.187   2.251   3.109 -0.0750 -0.3001  0.2805
27843W        W28043  11.471   0.669   5.414  0.0403  0.3092  0.0079
27844W        W28044  14.534   5.979   3.352 -0.3784  0.1383 -0.2371
27845W        W28045   3.585   6.007   6.837 -0.0666 -0.2986  0.0572
27846W        W28046   5.080   5.885  10.923 -0.0309  0.0189 -0.0244
27847W        W28047   0.128  12.021  13.942 -0.2098  0.1478 -0.2148
27848W        W28048  12.409   0.681   1.086 -0.2852 -0.3185 -0.4336
27849W        W28049  10.627  12.746   5.239 -0.0013 -0.1701  0.1414
27850W        W28050   2.854  15.050  14.450  0.0687 -0.1312 -0.2340
27851W        W28051  14.063   3.827   6.791 -0.0036  0.0231  0.0693
27852W        W28052  14.288  13.051   6.288 -0.1705 -0.0562  0.4280
27853W        W28053  12.005   1.828   8.915 -0.1136 -0.2969 -0.1950
27854W        W28054   5.003   1.753  14.599 -0.3422  0.1357 -0.1823
27855W        W28055  11.333   8.018   6.637 -0.0137 -0.3575 -0.1433
27856W        W28056   2.503   8.999   1.124  0.0215 -0.0964  0.1614
27857W        W28057  13.194   3.717   7.800  0.0602 -0.2508  0.0523
27858W        W28058   5.993   5.798   2.850  0.1921  0.0113  0.1377
27859W        W28059   0.088  11.855  10.521 -0.1394 -0.0074 -0.1672
27860W        W28060   8.950   4.882   2.112 -0.0618  0.0525  0.0857
27861W        W28061  11.989   6.284  12.489 -0.0790  0.2998 -0.0027
27862W        W28062   0.868   5.602  12.722  0.1438 -0.0738  0.3721
27863W        W28063   7.903  15.152   4.708 -0.0090 -0.1388  0.1218
27864W        W28064   2.814   5.903   3.576  0.2780 -0.0435 -0.2838
27865W        W28065   8.327  13.696   4.319  0.1667 -0.1270 -0.1611
27866W        W28066  11.995   0.807   5.458  0.0819 -0.1068 -0.0910
27867W        W28067   5.015  13.685  11.466  0.0934  0.1133 -0.0205
27868W        W28068   5.797   3.557   4.629  0.2190  0.0351  0.0408
27869W        W28069   4.588   2.635   5.790 -0.2106  0.0724  0.5912
27870W        W28070   5.974  13.944  14.900  0.0151  0.3239  0.1607
27871W        W28071   0.015   3.245   8.541  0.0738 -0.2156  0.1644
27872W        W28072  14.523   3.605  14.684  0.1474  0.2380  0.2178
27873W        W28073  14.804   7.754   0.106 -0.0945  0.1037 -0.1320
27874W        W28074  12.718   0.346   5.919 -0.1171  0.0868 -0.5104
27875W        W28075  13.601   5.326   6.287  0.3232 -0.0122 -0.0706
27876W        W28076  14.854   0.941  13.225  0.0734 -0.0690  0.0425
27877W        W28077   5.328  14.418   2.151  0.0964 -0.1021  0.2943
27878W        W28078   3.330  12.800   2.796 -0.0368 -0.1626  0.2314
27879W        W28079  12.088   2.156   5.412  0.1693 -0.1454  0.2137
27880W        W28080   1.241   0.647  13.659 -0.1987  0.0093 -0.0131
27881W        W28081  13.734   3.863  10.007  0.3579  0.2085  0.0987
27882W        W28082  14.975   1.283   7.974  0.0146  0.0943 -0.2840
27883W        W28083  14.218  14.492  10.376  0.1866  0.0229  0.0929
27884W        W28084  14.090   9.873   3.626  0.1153 -0.1717 -0.3409
27885W        W28085   2.792   0.990  13.652 -0.1661  0.1160  0.1408
27886W        W28086   8.351  10.191   4.652 -0.1317 -0.0776  0.0102
27887W        W28087  12.713   3.620   9.376 -0.0757 -0.0988  0.2198
27888W        W28088   3.251  13.675   8.698  0.0424  0.0223  0.1486
27889W        W28089   6.110   5.065   8.741 -0.0581  0.2176 -0.0925
27890W        W28090   4.033   1.636   3.662 -0.2817 -0.2890 -0.0399
27891W        W28091   3.397   5.933   5.314 -0.1483  0.1379  0.2213
27892W        W28092   2.689  11.654   1.908  0.1595  0.0913  0.3350
27893W        W28093   2.651   2.788  11.294  0.4915 -0.1402 -0.3212
27894W        W28094   9.750   2.383   2.660 -0.2901  0.1338 -0.1353
27895W        W28095   7.274   2.446   2.595  0.0653 -0.0329  0.0090
27896W        W28096   1.031  12.476  13.644 -0.1500  0.0546 -0.3705
27897W        W28097  12.208  14.182   8.879 -0.2948 -0.1808  0.2242
27898W        W28098   1.786   5.507   6.847  0.1892 -0.1601  0.3999
27899W        W28099  12.328   1.953  10.428 -0.1717  0.0145  0.3429
27900W        W28100  14.395   6.566   4.540  0.1041  0.0438  0.4160
27901W        W28101  12.063   1.879   3.905 -0.0884 -0.3899 -0.1513
27902W        W28102   0.121   1.023   9.560 -0.1032  0.3210  0.0052
27903W        W28103  12.539   2.267   1.098 -0.2302  0.1543  0.3347
27904W        W28104   2.910   1.493   1.051 -0.2570 -0.2602  0.2803
27905W        W28105  10.418   0.249  10.185  0.4540  0.3553 -0.0494
27906W        W28106   1.122  12.470   6.711 -0.0872 -0.2349  0.1404
27907W        W28107   1.180   0.552  10.267 -0.3374 -0.0198 -0.1265
27908W        W28108   4.193   2.908   5.422 -0.0441 -0.1981  0.1964
27909W        W28109  13.876  14.237   7.466 -0.1690 -0.0753 -0.0392
27910W        W28110   7.464  14.604   4.911  0.1209  0.0360  0.1241
27911W        W28111  14.346   4.813  10.403 -0.2235 -0.3145  0.1793
27912W        W28112   6.422   6.682  12.000  0.2690 -0.2392  0.2235
27913W        W28113  14.754   6.902   4.326 -0.2070  0.0584  0.2491
27914W        W28114  14.901   3.385   3.656  0.3768  0.1240 -0.1475
27915W        W28115   1.053  12.950  12.537  0.1980 -0.0988 -0.0801
27916W        W28116   0.636  10.605   7.569  0.0544 -0.4250 -0.0606
27917W        W28117  10.081   1.164   1.969  0.0088 -0.1540 -0.0437
27918W        W28118   6.509  13.650   6.156 -0.1425 -0.2451 -0.1999
27919W        W28119   6.165   6.128   0.477  0.1920 -0.1019 -0.0732
27920W        W28120   8.739  13.894   8.780  0.2445  0.0698  0.0255
27921W        W28121  11.534   2.534   9.220  0.1567 -0.0022  0.0699
27922W        W28122  10.361   0.264  14.071  0.0502 -0.2557 -0.2474
27923W        W28123  12.222   5.991   1.352 -0.2431 -0.0328 -0.2365
27924W        W28124   7.488   1.559   8.291  0.2408 -0.0524  0.2617
27925W        W28125   2.217   2.712   2.285  0.0841 -0.1429  0.3210
27926W        W28126   0.757  14.642   7.157 -0.1190 -0.2626  0.0534
27927W        W28127  14.307  12.000  14.877  0.1520  0.1638  0.0344
27928W        W28128   3.324   0.221   3.074 -0.1736 -0.4298 -0.2930
27929W        W28129  14.656   2.953  11.262  0.0220  0.2237 -0.0826
27930W        W28130  14.072   6.228   0.797  0.1943 -0.2173 -0.1398
27931W        W28131   5.741   8.628   5.294 -0.0818  0.2592  0.3576
27932W        W28132  12.560   0.757   6.293  0.1056 -0.1942  0.3603
27933W        W28133  13.784   2.899  10.775  0.0216  0.1722 -0.2031
27934W        W28134   7.516   3.836   6.101  0.0279 -0.0468 -0.0577
27935W        W28135  14.862  14.711   4.173  0.0300  0.0866 -0.0333
27936W        W28136  13.547   0.648   5.441  0.0560 -0.0595 -0.1871
27937W        W28137   5.496   4.945   9.590  0.0987  0.0744 -0.2963
27938W        W28138  13.821   7.225   3.146  0.0206  0.0122  0.3832
27939W        W28139   8.829  11.518   6.688  0.2529 -0.2285 -0.2482
27940W        W28140   1.611   5.996   1.432  0.0883 -0.0365  0.1547
27941W        W28141  12.569   5.117  13.045  0.1534  0.2628 -0.1462
27942W        W28142   9.679   1.077  10.635  0.2257  0.0835  0.0352
27943W        W28143   0.623   2.109  14.324  0.0421 -0.2612  0.0859
27944W        W28144  14.871  14.242   9.860  0.0136  0.0922 -0.0517
27945W        W28145  13.268  13.631   0.727 -0.1964  0.2483  0.5217
27946W        W28146   5.973   6.290   3.599 -0.0506  0.3406 -0.0607
27947W        W28147   9.092  14.805  10.461  0.1243 -0.1569 -0.0152
27948W        W28148   9.974   8.117   0.611  0.1711 -0.1391  0.1072
27949W        W28149  11.023   1.504   5.755  0.2423  0.2353  0.1000
27950W        W28150   6.875   4.220   5.441  0.2939 -0.0640 -0.1833
27951W        W28151   2.750  12.807   5.812 -0.1294  0.0923  0.0207
27952W        W28152   5.201   1.886  10.162 -0.0555  0.0226 -0.2258
27953W        W28153   1.771   9.378   2.413 -0.1251  0.1557  0.1456
27954W        W28154   7.185   0.046   7.412  0.0772 -0.0921  0.0895
27955W        W28155  11.077   7.920  11.423 -0.0715 -0.1078  0.0876
27956W        W28156  13.983   2.914  10.289  0.2592 -0.1353 -0.1760
27957W        W28157   7.333   1.700   1.301  0.0034  0.0261 -0.3179
27958W        W28158   5.940   8.648   3.503  0.0519 -0.1372 -0.0230
27959W        W28159   2.564  12.275   1.350  0.1310  0.0763 -0.0615
27960W        W28160  11.805   5.540  14.639 -0.1154  0.0672 -0.3363
27961W        W28161   5.190   8.312  11.225  0.3378  0.1581 -0.1879
27962W        W28162  12.073   1.968   9.430 -0.1886 -0.0716  0.0915
27963W        W28163   0.859  14.310   4.613 -0.0246  0.2952  0.2222
27964W        W28164  10.385   3.496   5.143 -0.0510 -0.1376  0.0112
27965W        W28165  15.189   2.868   7.909  0.0712 -0.1146 -0.1393
27966W        W28166   1.701   2.712   1.454 -0.0018  0.1542  0.2864
27967W        W28167  11.559   3.474   0.813  0.4611  0.1390 -0.1055
27968W        W28168  11.796  11.680  15.154  0.1504  0.3632 -0.2421
27969W        W28169   3.558  11.939   4.913 -0.2902 -0.1733  0.1182
27970W        W28170  11.253   4.031   2.700 -0.0179  0.1779 -0.3119
27971W        W28171  11.616   2.921  10.168  0.1635  0.0064  0.0737
27972W        W28172   1.474  11.928  12.399 -0.0487  0.0906 -0.3051
27973W        W28173  10.217  14.097  10.678  0.2232 -0.2259  0.3198
27974W        W28174  14.651   6.273   9.943  0.2232  0.4114  0.4315
27975W        W28175   2.721   6.484  13.203  0.1167 -0.2305  0.0187
27976W        W28176  15.105   0.641  10.025 -0.1634  0.1633 -0.0793
27977W        W28177  10.034  12.609   5.224 -0.0236 -0.1480 -0.3916
27978W        W28178   6.724  10.365  13.772  0.0125 -0.2742  0.0447
27979W        W28179  12.890  11.509   4.983 -0.0678 -0.1941  0.1452
27980W        W28180   2.647   3.089   2.323  0.0203 -0.0233 -0.0058
27981W        W28181   3.641   1.506   1.176 -0.0622 -0.1445 -0.0285
27982W        W28182   5.600   6.935   8.492 -0.1767  0.2085 -0.2279
27983W        W28183   6.958   8.780   7.731  0.1529  0.3246  0.2613
27984W        W28184  13.310  13.968   6.893 -0.3197  0.2358  0.0715
27985W        W28185  13.156   3.797  11.371  0.1585 -0.1902 -0.1172
27986W        W28186   2.811   5.478  12.127 -0.0533 -0.1306 -0.1514
27987W        W28187   0.063   3.499   6.309  0.2901  0.0827 -0.2084
27988W        W28188   4.671   8.336   8.833 -0.0528  0.0287  0.1952
27989W        W28189   6.753   2.726  12.811  0.0326  0.0802 -0.2166
27990W        W28190  11.465  14.266  10.062 -0.0259 -0.1494  0.1042
27991W        W28191   2.734   0.977   9.702 -0.0643  0.1945  0.0728
27992W        W28192  12.150   1.818  11.053 -0.0198 -0.1467  0.0198
27993W        W28193   2.382   7.913   9.700  0.1468  0.2754  0.2290
27994W        W28194   7.344   3.805  14.794  0.0951 -0.2195  0.1056
27995W        W28195  10.728  14.217   2.738 -0.0570  0.0257 -0.2129
27996W        W28196   3.009   0.352   7.213  0.1499  0.1009  0.1419
27997W        W28197  12.427   5.456   8.579 -0.0184 -0.0892 -0.1270
27998W        W28198   8.296  13.537  10.745 -0.0632  0.2604  0.2104
27999W        W28199  14.067  13.503  11.765 -0.1584  0.0026  0.0318
28000W        W28200  11.068   0.264  14.608  0.1088 -0.2277  0.3299
28001W        W28201   1.962   2.484  12.861 -0.2220 -0.2626 -0.0545
28002W        W28202   5.731   0.587   6.246 -0.0137  0.0366  0.1828
28003W        W28203   1.920  10.240   8.321 -0.1796  0.0702  0.3964
28004W        W28204   7.250  10.002   9.568 -0.2487 -0.1264  0.0891
28005W        W28205   0.306   0.311  11.044 -0.0601 -0.1635 -0.0651
28006W        W28206   3.722   1.493  14.368 -0.1200  0.1034 -0.1916
28007W        W28207   7.281   6.149  14.984 -0.0345 -0.3304 -0.0476
28008W        W28208  14.121   9.283   3.983  0.2914 -0.0546  0.0316
28009W        W28209   7.966   5.619  13.174  0.2033  0.2006  0.3066
28010W        W28210   2.573   0.317   8.940 -0.0393  0.2332  0.1922
28011W        W28211   3.364   1.587   2.042 -0.2219 -0.0698 -0.1674
28012W        W28212   2.843  13.295  13.249  0.0551 -0.2976 -0.3954
28013W        W28213   4.350   6.755  14.340  0.1522  0.0650 -0.1897
28014W        W28214  10.563  13.733  10.917 -0.0235  0.2624 -0.1109
28015W        W28215   5.081   0.836   3.130 -0.0488 -0.1015 -0.4288
28016W        W28216   9.278   4.230  15.067  0.1135 -0.0050 -0.2696
28017W        W28217   2.533   3.821   6.220  0.0944 -0.0679 -0.3681
28018W        W28218   1.963  14.456   6.011 -0.0450  0.4660 -0.1177
28019W        W28219   9.961   0.059  10.549 -0.0265 -0.4178  0.2263
28020W        W28220  10.175   3.399   8.143 -0.0849 -0.0263  0.1896
28021W        W28221   3.731   6.496   4.240  0.1543 -0.0629  0.1021
28022W        W28222   3.265  12.923   9.022  0.5013  0.0469  0.2541
28023W        W28223   2.334  13.633   0.667 -0.1066  0.2076 -0.1972
28024W        W28224   2.357   1.555   9.077 -0.0138  0.1968  0.1014
28025W        W28225   2.835   6.167   3.982 -0.1868 -0.1341  0.1150
28026W        W28226   3.550   9.340   3.336  0.0554  0.0186 -0.2620
28027W        W28227   3.097   3.226  14.481 -0.0112 -0.0715 -0.1699
28028W        W28228  11.480  11.303   2.539 -0.1071  0.0142 -0.2749
28029W        W28229   6.072   6.808  11.431  0.1210 -0.0514  0.2478
28030W        W28230  11.679   9.565   8.784  0.2344 -0.0882  0.1718
28031W        W28231  10.524   2.951  13.715 -0.2195 -0.0764  0.0725
28032W        W28232   3.071  13.509   1.112 -0.0243  0.0203 -0.0563
28033W        W28233  13.912   8.112  14.865  0.1366 -0.2346  0.2769
28034W        W28234   0.963   0.189  12.286 -0.2001  0.1584  0.1735
28035W        W28235   5.457   4.717  14.318  0.0876 -0.0203 -0.0490
28036W        W28236  11.275  10.343   5.702  0.1538 -0.1749 -0.2588
28037W        W28237  10.095   5.271  14.624 -0.1324  0.1457  0.1718
28038W        W28238   2.333   7.059   5.107 -0.0258 -0.0981  0.1562
28039W        W28239  12.449  11.847  13.206  0.0666  0.1893 -0.0384
28040W        W28240   3.282  10.485   6.425 -0.1973  0.1452 -0.0928
28041W        W28241  11.955  12.580   0.867  0.3567  0.0575  0.1903
28042W        W28242   3.494   5.915   4.662 -0.2668 -0.0102 -0.0502
28043W        W28243   9.583   6.908   3.892 -0.1156 -0.1512 -0.1047
28044W        W28244   0.499   6.601   5.848  0.1504 -0.0188  0.1377
28045W        W28245   3.353   5.627   3.663 -0.1567 -0.1277  0.3190
28046W        W28246   9.009   8.434  13.082 -0.1729 -0.0398 -0.0096
28047W        W28247   0.946   3.352   4.863 -0.1864 -0.1277  0.2124
28048W        W28248   6.178  11.448  11.076 -0.0656  0.4157 -0.1196
28049W        W28249   9.674   2.660   6.058 -0.0900  0.0679 -0.1432
28050W        W28250   4.142  13.017  14.056 -0.2445  0.0856 -0.1750
28051W        W28251  14.767   2.583  12.613  0.1701  0.1518  0.0064
28052W        W28252  13.767  11.083   0.760  0.1715 -0.0595  0.0804
28053W        W28253  13.988  10.321  10.723 -0.1027  0.3322  0.3125
28054W        W28254  12.091  14.424   4.314 -0.1256  0.0059  0.0964
28055W        W28255   4.250   0.231  13.020 -0.0339 -0.0745 -0.1886
28056W        W28256   5.337   3.876   8.821  0.0143 -0.1555  0.4146
28057W        W28257   2.821   6.894  10.732  0.3351 -0.0560  0.0448
28058W        W28258   3.952   4.181   3.301  0.1420 -0.3477  0.1848
28059W        W28259  15.086   4.865  11.692  0.1669  0.2060  0.0577
28060W        W28260  11.596  13.617   9.185 -0.0630 -0.1131  0.0024
28061W        W28261   1.845   3.887  11.633 -0.2829  0.0373 -0.0653
28062W        W28262   2.271   1.888  13.970  0.0009 -0.3948 -0.1987
28063W        W28263  14.883   3.214   8.076 -0.1603 -0.2295  0.1756
28064W        W28264   4.370   7.716   7.510 -0.0404 -0.1114 -0.0375
28065W        W28265  10.173   1.860   0.160  0.0751 -0.0277  0.2077
28066W        W28266  12.669   1.408   7.885 -0.1959 -0.1445 -0.0149
28067W        W28267   1.214   5.129  13.962 -0.0193  0.2107 -0.1224
28068W        W28268   7.451   0.553  15.096 -0.3259  0.2639  0.0097
28069W        W28269   0.813   6.756  11.320 -0.4936 -0.2002 -0.2878
28070W        W28270  11.807  11.161  13.826 -0.0554 -0.3761  0.0646
28071W        W28271   9.677   2.538   0.860 -0.1731  0.1333  0.0417
28072W        W28272   1.892   6.282   1.073 -0.2771 -0.1202 -0.0060
28073W        W28273   2.775   3.010  13.105 -0.0354 -0.0246 -0.2211
28074W        W28274   2.153   5.212  13.659 -0.1401  0.1168  0.1776
28075W        W28275   8.242   6.337   3.099 -0.1984  0.1477  0.2203
28076W        W28276  10.749  12.056   2.891  0.0805 -0.2186  0.2527
28077W        W28277  10.402  12.366   9.700  0.2333 -0.2521 -0.1973
28078W        W28278   9.451  14.271   8.119 -0.0628  0.1891  0.2352
28079W        W28279   6.032  11.996  13.878  0.1222 -0.0290  0.2283
28080W        W28280  12.142  15.004  14.638  0.2139  0.0029 -0.0559
28081W        W28281   1.273   2.744   9.163 -0.1275  0.1032 -0.2049
28082W        W28282   5.332   0.394   7.224 -0.2547 -0.3151 -0.2245
28083W        W28283   7.602   0.338  10.066  0.3110 -0.0241  0.1840
28084W        W28284   2.804  13.408   8.724  0.2632  0.2908  0.0518
28085W        W28285   3.931  14.455   0.107  0.1783 -0.0607 -0.3391
28086W        W28286   7.822   3.430   5.848  0.1837 -0.2629 -0.1299
28087W        W28287   5.119   8.952   4.396  0.0253 -0.1916  0.1727
28088W        W28288   1.144   6.588   4.595  0.2366 -0.1857  0.1408
28089W        W28289   1.286  11.466   6.379 -0.0000 -0.3030 -0.0330
28090W        W28290   8.108   5.392   4.285  0.1683  0.1603 -0.1345
28091W        W28291   9.333   5.328   8.877 -0.0499 -0.1356  0.2349
28092W        W28292  14.807   4.257  10.410 -0.0347 -0.0929 -0.0145
28093W        W28293  14.789   0.199  11.877  0.2152  0.4517 -0.1472
28094W        W28294   0.572  11.465   0.495  0.3989 -0.1020  0.1040
28095W        W28295   3.661  12.896  14.301 -0.0495 -0.0106  0.1269
28096W        W28296   5.399  14.531  12.916  0.1722 -0.0174 -0.2442
28097W        W28297   0.740   6.715   9.175 -0.1166 -0.3005  0.0576
28098W        W28298   6.296   6.977   7.708  0.3862  0.0024  0.0457
28099W        W28299  11.666   0.298  13.849 -0.0561 -0.1971 -0.2389
28100W        W28300   4.942  12.713  13.206 -0.1096  0.1166  0.3339
28101W        W28301   4.689   8.923  10.955  0.1261  0.1679  0.2070
28102W        W28302  13.622  10.024  14.358 -0.1488 -0.0774 -0.1857
28103W        W28303   0.715   5.204   2.339 -0.0689 -0.1279 -0.0808
28104W        W28304   9.789  11.456   1.014 -0.0438 -0.3062 -0.0614
28105W        W28305  12.587   7.114   4.672 -0.1863  0.0743 -0.2441
28106W        W28306   5.264   1.118   4.394 -0.1904  0.0038 -0.0051
28107W        W28307   3.005   4.790   2.804 -0.0206  0.1899 -0.0109
28108W        W28308  13.415   8.096   0.082 -0.1167 -0.3075 -0.0573
28109W        W28309   2.120   5.214  10.032 -0.2741 -0.1586 -0.1930
28110W        W28310  10.006   0.749  11.177  0.3753 -0.2625  0.0755
28111W        W28311   6.301   4.721   5.726 -0.2923  0.1606  0.1551
28112W        W28312  11.317   4.363   8.854  0.2573  0.4208 -0.0395
28113W        W28313  15.133   4.423   7.986 -0.2044 -0.1161  0.1599
28114W        W28314   7.933   7.411   1.279 -0.2383  0.3181 -0.1049
28115W        W28315   4.995   9.940  13.023 -0.1055 -0.0225  0.0187
28116W        W28316   9.621  12.444   2.211  0.0387 -0.0180 -0.2056
28117W        W28317   2.548   1.335   7.704 -0.0922  0.1041  0.0413
28118W        W28318  13.728   5.188   3.208 -0.1148  0.2067  0.4770
28119W        W28319   7.396   3.273   6.313 -0.2148  0.0828  0.1249
28120W        W28320   6.986   4.721  12.903  0.0559 -0.0459 -0.2607
28121W        W28321  13.028   8.358   8.927  0.0753 -0.1032 -0.3012
28122W        W28322   9.686   2.917  12.277  0.0136  0.0088  0.1563
28123W        W28323  11.532  14.381   2.765 -0.1364 -0.0823 -0.0930
28124W        W28324   2.116   5.606  12.434  0.0676  0.0935  0.0163
28125W        W28325   0.568   9.768  12.008  0.0199  0.1024 -0.0912
28126W        W28326   1.613   4.918   3.299  0.0942  0.2795 -0.1943
28127W        W28327   1.386   9.080   8.555 -0.0822  0.0342 -0.2364
28128W        W28328   3.267   6.422   6.719  0.1518 -0.0537  0.1936
28129W        W28329   9.349   0.599   5.733 -0.2624 -0.0075  0.1209
28130W        W28330  13.868   8.052   2.526  0.0030 -0.1894 -0.3798
28131W        W28331  13.735  12.964   2.181 -0.0896  0.0223  0.0915
28132W        W28332   5.319   7.926   3.690  0.2144 -0.4635  0.1710
28133W        W28333   4.128  12.037  12.773 -0.3049  0.1232  0.2106
28134W        W28334   4.104  12.028  14.290  0.2208 -0.3302  0.1269
28135W        W28335  12.899   7.776   3.224 -0.0873  0.1899  0.0881
28136W        W28336   4.166  13.476   2.504 -0.4458 -0.1104 -0.0009
28137W        W28337  10.884  11.978   1.645 -0.0390  0.0721  0.1320
28138W        W28338   1.784   9.187   0.043 -0.2298 -0.1081  0.1348
28139W        W28339   6.259   1.042   1.099 -0.0571  0.1039 -0.1268
28140W        W28340  12.813   0.043   0.708  0.1386 -0.2664 -0.2537
28141W        W28341   2.815  14.970   4.496  0.2057 -0.0396 -0.2272
28142W        W28342  13.630   4.279   3.075  0.3437  0.1974 -0.1505
28143W        W28343   4.802   1.453   2.165  0.2483  0.2371  0.1562
28144W        W28344  11.665   5.096   9.595 -0.1327 -0.1687  0.2859
28145W        W28345   3.572   6.393  15.111 -0.2908  0.3056  0.1527
28146W        W28346   1.339   5.130   8.027  0.0253  0.1698  0.0685
28147W        W28347   1.889   4.101   1.419 -0.4880  0.3481 -0.2198
28148W        W28348   7.079   4.512   1.545 -0.4143 -0.3724  0.1013
28149W        W28349   5.112  10.534   4.503 -0.0173 -0.0188 -0.2226
28150W        W28350   1.159  12.205   2.815 -0.2154 -0.3089 -0.0343
28151W        W28351  10.384   7.220   5.182 -0.0403  0.0786 -0.1683
28152W        W28352   8.414  11.147  12.658  0.0826 -0.3304 -0.1959
28153W        W28353   8.400   2.625   4.121  0.0789  0.2127  0.0806
28154W        W28354  11.133  14.544   8.901  0.1530 -0.5573 -0.0637
28155W        W28355   1.329   3.819  14.463  0.0209  0.1562 -0.0828
28156W        W28356  12.453   1.565   2.198 -0.3788  0.0001 -0.2220
28157W        W28357  10.304   4.308   3.168  0.1756  0.3507  0.0665
28158W        W28358   2.096   0.060   5.380 -0.1836 -0.0995  0.0718
28159W        W28359   8.468  14.872  13.700  0.1388  0.1936 -0.2911
28160W        W28360   3.794   5.211  14.437 -0.0815 -0.0620  0.1753
28161W        W28361   8.980   1.393   4.205 -0.0135  0.1262  0.1465
28162W        W28362   4.645  11.850  13.653 -0.0791 -0.0475 -0.1603
28163W        W28363   3.171  11.942   6.877  0.1216  0.0600  0.2935
28164W        W28364  10.697   3.858   0.822 -0.0164  0.3514  0.1327
28165W        W28365  10.496  14.954   3.630 -0.0301  0.0119  0.1318
28166W        W28366   4.894  12.072   0.322  0.0121 -0.0288  0.1295
28167W        W28367  13.831   8.104  13.499 -0.0097 -0.0710  0.1898
28168W        W28368   0.834  11.194   1.592 -0.2862  0.0432  0.0472
28169W        W28369   5.858   6.515   4.293 -0.1164  0.1341 -0.1816
28170W        W28370  15.017   6.586   8.202 -0.0972 -0.3163 -0.2034
28171W        W28371   0.963  10.217   9.933 -0.0580  0.0799 -0.4002
28172W        W28372  14.817  11.763  13.854 -0.0436  0.1292  0.1546
28173W        W28373   0.492   3.628   5.680 -0.2144  0.0306  0.2264
28174W        W28374   3.430   5.746  11.926  0.0271  0.1118 -0.0056
28175W        W28375  15.040   6.415  12.171  0.2426 -0.0817 -0.3490
28176W        W28376   3.339   8.597   5.915 -0.1341  0.0824  0.0642
28177W        W28377   0.420   1.502   5.972 -0.2016 -0.1377 -0.0764
28178W        W28378  12.736   3.026   7.696  0.0918 -0.1496  0.0691
28179W        W28379  10.346   0.359  10.697 -0.2190  0.0726 -0.0098
28180W        W28380  11.718  10.581   6.782 -0.3000  0.2263  0.1939
28181W        W28381  12.241  10.967   2.296 -0.0060 -0.2699 -0.1530
28182W        W28382   5.083  13.689   2.157 -0.1312 -0.2011 -0.2560
28183W        W28383   6.161  10.511  14.857  0.0203  0.0591  0.1788
28184W        W28384   0.741   0.696  13.680  0.0682  0.0262 -0.2273
28185W        W28385   5.848   1.372   8.122 -0.0022 -0.3235  0.2216
28186W        W28386   1.963  14.745   8.064  0.0784  0.0076 -0.1762
28187W        W28387   1.547   0.673  11.016 -0.1375  0.1754 -0.6060
28188W        W28388   3.504   6.996   6.559  0.1198 -0.0056  0.1630
28189W        W28389   4.985   3.707  13.924 -0.0367  0.1060 -0.0235
28190W        W28390   2.914  12.984   3.492 -0.1889  0.1757 -0.2187
28191W        W28391  12.604   3.093   5.029 -0.2492  0.0764 -0.0510
28192W        W28392   6.034  13.978   5.364  0.0619 -0.0269  0.2297
28193W        W28393   0.859   7.370   1.497 -0.0720  0.1437  0.1077
28194W        W28394   1.199   5.165   6.212  0.0979  0.1013 -0.0181
28195W        W28395   0.662  10.128   8.346 -0.1931 -0.0712 -0.2146
28196W        W28396   0.519  12.178   1.974  0.1366 -0.3057 -0.1944
28197W        W28397   7.137   0.544  12.122  0.1052 -0.0122 -0.1019
28198W        W28398   4.146   3.352   4.276 -0.2838  0.0572  0.1428
28199W        W28399   8.700   6.308   5.777  0.1371 -0.0864 -0.2174
28200W        W28400  13.396   8.679   6.301  0.3115 -0.1846  0.4364
28201W        W28401   6.949  14.382   6.348 -0.3298 -0.1849  0.0152
28202W        W28402  11.755   4.149   9.694 -0.1608  0.1148  0.0458
28203W        W28403   4.763   6.200   2.393 -0.0236  0.1912  0.0131
28204W        W28404  13.808  13.912   5.205  0.1428  0.1910 -0.0120
28205W        W28405  12.928   4.952  15.000  0.0458  0.0261 -0.1105
28206W        W28406  14.391  14.017   5.818 -0.1367 -0.2846  0.3118
28207W        W28407   6.076   1.877   5.990  0.2875 -0.0876 -0.2309
28208W        W28408  11.747   2.037  12.607 -0.0459  0.1018 -0.0312
28209W        W28409   3.203   0.465   6.782 -0.1156 -0.1962 -0.0852
28210W        W28410   9.538   9.252   7.047  0.1036  0.0124 -0.0302
28211W        W28411  13.875   0.785   1.688 -0.2001  0.2733  0.0614
28212W        W28412   8.664  11.257   5.391  0.3586  0.0279 -0.1352
28213W        W28413   8.755   5.888   9.279  0.1618  0.3434  0.1284
28214W        W28414  12.613   9.309   4.606 -0.1823 -0.2177 -0.0940
28215W        W28415   7.225   2.417  12.475  0.2778  0.0389  0.1888
28216W        W28416  11.515  13.756  11.996  0.0369  0.3609  0.0620
28217W        W28417   1.031   4.573  12.570 -0.1607 -0.2379 -0.0655
28218W        W28418  14.852  12.350   9.230 -0.1719  0.0780  0.0902
28219W        W28419  13.916   4.093  10.563  0.1224 -0.1452  0.0959
28220W        W28420  14.951   1.114  15.157 -0.2025 -0.0612 -0.0778
28221W        W28421   1.149   3.254   9.830  0.2263 -0.0087 -0.0554
28222W        W28422   3.737  15.151   5.583  0.1300 -0.2122 -0.2949
28223W        W28423   8.900   8.173   4.773 -0.1424 -0.1589  0.0740
28224W        W28424   2.899   5.238   6.389  0.2734  0.0551  0.1693
28225W        W28425   3.482   6.815   6.112 -0.0725  0.0138  0.2257
28226W        W28426   1.895  13.495   2.162 -0.1398 -0.4300  0.2508
28227W        W28427  13.738   2.792   3.297 -0.1022 -0.2733 -0.0179
28228W        W28428   5.754   7.777   3.942  0.3633  0.0752  0.1615
28229W        W28429  13.772   7.154   1.090 -0.1137 -0.3822 -0.0545
28230W        W28430   3.405   7.800  11.961 -0.0518 -0.1026  0.1368
28231W        W28431   2.497   7.870  14.831 -0.1483  0.0119  0.0363
28232W        W28432   4.588   0.290  14.959 -0.2199  0.3469  0.3305
28233W        W28433   2.956  14.935   6.154 -0.0168 -0.1067 -0.2162
28234W        W28434   4.776   6.295  10.027  0.1376  0.0422 -0.1178
28235W        W28435   0.035   4.315   0.712 -0.1284  0.3220  0.0778
28236W        W28436   5.440   2.304   4.125  0.0968  0.3331  0.2083
28237W        W28437  14.608   6.451   7.800  0.0604  0.1932  0.0111
28238W        W28438  14.881   9.694   2.898 -0.2809 -0.2784 -0.0472
28239W        W28439   2.573  10.733   7.015  0.0132 -0.3121  0.1127
28240W        W28440   8.922   8.244   8.083 -0.0783 -0.0483 -0.1770
28241W        W28441  14.123   4.524   0.987 -0.1196 -0.1975 -0.1045
28242W        W28442   4.397   2.791  10.093 -0.2997 -0.1596 -0.0884
28243W        W28443  10.305  12.095  10.856  0.2152  0.0733  0.2492
28244W        W28444   6.442  13.744   7.095 -0.2411 -0.1443  0.1943
28245W        W28445  11.659   4.433  11.071  0.0376  0.1449  0.1084
28246W        W28446   1.463   4.528  14.932  0.0901 -0.1330 -0.0815
28247W        W28447  12.789   2.514  11.344 -0.2264  0.2194  0.1492
28248W        W28448   9.260   1.457   2.779  0.1262  0.3028  0.0847
28249W        W28449  12.523   9.119  12.643  0.0489  0.2155  0.1883
28250W        W28450   3.373   5.527   4.920  0.0126 -0.2650 -0.0611
28251W        W28451  11.684   8.890  11.367  0.1282  0.0370  0.1465
28252W        W28452  14.095   9.749   9.910  0.0151 -0.0642 -0.1523
28253W        W28453  10.596   4.524  10.460 -0.0007 -0.1381 -0.1515
28254W        W28454  13.241   3.828   7.261  0.2181 -0.0978 -0.0315
28255W        W28455  14.580   9.884   7.294 -0.0298  0.1163 -0.1498
28256W        W28456  15.109   5.098   9.881 -0.1218 -0.0233 -0.1633
28257W        W28457   5.707   1.477   4.275  0.3133  0.0277  0.0158
28258W        W28458   8.610   2.554  11.996  0.4087  0.3477 -0.1754
28259W        W28459  12.186  11.548   6.498 -0.4927 -0.4174  0.0240
28260W        W28460   1.644   8.439   9.444  0.1466 -0.1472  0.3183
28261W        W28461  14.539   4.791  11.481 -0.0923 -0.0413  0.0410
28262W        W28462   7.958  11.620   5.934  0.3702 -0.0946 -0.1575
28263W        W28463  14.957   1.375  11.141 -0.2144 -0.0132 -0.0309
28264W        W28464   9.761   8.133  12.354  0.0872  0.0924 -0.0825
28265W        W28465  10.751   8.670  11.313  0.0940 -0.2727  0.0543
28266W        W28466  10.022  12.176  14.538 -0.2547  0.2739 -0.3160
28267W        W28467   4.322   5.063   6.303  0.2414 -0.2854  0.1306
28268W        W28468   9.062   4.440   1.736  0.0278 -0.2598 -0.1672
28269W        W28469   1.475   4.504   7.296 -0.2325 -0.0917  0.2524
28270W        W28470   7.671   7.842  11.525 -0.2005  0.0181  0.2019
28271W        W28471  14.530   6.767   9.088  0.1056  0.0554 -0.0161
28272W        W28472   3.083  14.815   1.055  0.0256  0.0247 -0.2281
28273W        W28473  11.205   5.993   2.170  0.0389 -0.2431  0.0763
28274W        W28474  11.845   3.238  12.358 -0.0539  0.0577 -0.0068
28275W        W28475  13.178   5.700  12.890 -0.1133  0.2642  0.1370
28276W        W28476  10.923   6.923   4.963  0.2847  0.3001  0.1904
28277W        W28477  11.111  14.147   1.833  0.3781 -0.2959  0.1285
28278W        W28478   5.475   2.618  14.673  0.0734  0.4987 -0.0703
28279W        W28479   8.452   8.844   5.668 -0.0367  0.1005  0.1513
28280W        W28480  15.066  14.423   6.930 -0.1204  0.0072 -0.1508
28281W        W28481   7.286   3.736  14.295  0.0455 -0.1710  0.2893
28282W        W28482   0.299   1.645  11.989 -0.0375  0.0013 -0.0815
28283W        W28483   9.444   5.048   4.887 -0.0121  0.0092 -0.1039
28284W        W28484  14.970   7.336   8.812  0.1935  0.0868  0.1128
28285W        W28485   0.276   8.004   3.563 -0.1238  0.3395 -0.2552
28286W        W28486   5.199   0.929   3.791  0.2072 -0.2677  0.0433
28287W        W28487  14.615   0.566  14.852 -0.2441  0.2359 -0.3943
28288W        W28488  13.526   3.155   9.779  0.1469  0.2779 -0.0108
28289W        W28489  12.536  13.416   1.503  0.0741 -0.1357 -0.0158
28290W        W28490   0.363   9.415   9.584 -0.0923 -0.1633  0.0183
28291W        W28491  14.030  13.519  10.583  0.0152 -0.0989 -0.2251
28292W        W28492   7.079   5.881   2.701 -0.1916 -0.1056  0.0245
28293W        W28493  13.656  12.508   7.954  0.1765  0.2645 -0.0984
28294W        W28494  14.048   1.910   4.918  0.0686  0.1654 -0.3778
28295W        W28495   4.770   0.524  12.924 -0.1316 -0.0176 -0.1017
28296W        W28496  14.869   4.223   2.596 -0.2876  0.1005  0.1005
28297W        W28497   5.593  13.279   5.873 -0.2006  0.1744 -0.0016
28298W        W28498  10.725   9.838  13.035  0.1652  0.1659 -0.0111
28299W        W28499  13.198   8.517  12.563 -0.0029  0.2902  0.2699
28300W        W28500   8.690   6.212   4.588  0.2320  0.0855 -0.0712
28301W        W28501   9.311   3.481   2.289  0.3064  0.0354  0.1588
28302W        W28502  13.586  10.984  11.868 -0.1705  0.3619 -0.0352
28303W        W28503   9.730   8.766   4.291  0.1964 -0.1940 -0.0672
28304W        W28504   9.881  15.039   7.723  0.2015 -0.3085 -0.3404
28305W        W28505  12.356  14.010   2.442 -0.0719 -0.0203 -0.1566
28306W        W28506   4.718  13.535   6.337 -0.3028  0.2893  0.0660
28307W        W28507   5.241  14.392   5.960 -0.3139  0.2045  0.0964
28308W        W28508   3.501   2.221  13.018 -0.3770  0.0973  0.1255
28309W        W28509   5.258   3.790   2.014  0.0392  0.0025 -0.0475
28310W        W28510  12.534   4.921   2.091  0.0271 -0.1823 -0.0823
28311W        W28511  14.258   0.174   6.106 -0.0013 -0.0526  0.1584
28312W        W28512  12.910  14.551   4.057 -0.1527 -0.3105  0.2007
28313W        W28513   5.220   2.387  13.811 -0.0886  0.1048 -0.0237
28314W        W28514   7.391   2.532   4.369 -0.0085  0.3166 -0.1124
28315W        W28515   3.882  13.477  13.767 -0.0030 -0.0650  0.0687
28316W        W28516   1.156   3.177  11.946 -0.0658  0.2309 -0.0068
28317W        W28517  10.444  14.644  13.704  0.0522  0.0978  0.2245
28318W        W28518  10.806   5.928  14.357  0.1651 -0.0396  0.1747
28319W        W28519   1.539   0.078  13.895  0.1987 -0.2084  0.0330
28320W        W28520   3.851   6.397   4.824  0.0513  0.1521 -0.2923
28321W        W28521  10.946   5.617  12.994 -0.1015  0.2458 -0.0258
28322W        W28522  13.663   4.204   8.135  0.2604 -0.0171 -0.2570
28323W        W28523   2.889   9.993   8.108  0.3614 -0.0085 -0.0835
28324W        W28524  10.937   8.348  13.421 -0.1845 -0.0209 -0.8047
28325W        W28525   7.906   5.068   4.569  0.1717 -0.1157  0.2047
28326W        W28526  11.754  11.230   5.071 -0.0195 -0.2963 -0.0354
28327W        W28527   3.182  13.039   1.035  0.0546 -0.1333  0.3123
28328W        W28528  12.159   2.644  14.744 -0.0840 -0.1689 -0.1607
28329W        W28529  13.498   5.977  13.745 -0.0397 -0.2699 -0.1860
28330W        W28530   7.665   9.825  14.478  0.2351 -0.2619 -0.1745
28331W        W28531   7.051   8.374   0.302 -0.1674  0.0115 -0.2981
28332W        W28532   8.506   9.848   6.958  0.0190  0.1319  0.0343
28333W        W28533   1.559   5.304  11.182 -0.2051 -0.2251  0.1572
28334W        W28534   1.930  12.242  13.076 -0.2005  0.0078 -0.2480
28335W        W28535   8.038   4.820   0.073  0.0629  0.1363 -0.1176
28336W        W28536   0.736   5.383  10.916 -0.1231 -0.0627  0.1885
28337W        W28537   2.440   7.802   7.670  0.0174 -0.0659  0.0855
28338W        W28538   6.189   7.043   5.030 -0.3155 -0.1447  0.0533
28339W        W28539  12.672  13.448   3.190 -0.0627 -0.1141  0.1526
28340W        W28540   7.210   5.929  12.132 -0.0535  0.0661  0.0518
28341W        W28541  14.365   8.673  13.856  0.0139 -0.1183  0.3621
28342W        W28542   9.972   1.108   8.428 -0.2872 -0.3496 -0.3675
28343W        W28543  11.996   6.394   6.724 -0.1489 -0.0413  0.0368
28344W        W28544   1.523   6.430   9.495  0.1383 -0.2919 -0.2740
28345W        W28545   8.234   2.941   8.835 -0.0518  0.1987  0.1426
28346W        W28546   3.446   1.690   9.576 -0.1168  0.0534  0.0714
28347W        W28547   0.236   5.022  10.931 -0.3974 -0.1204  0.1658
28348W        W28548  12.273   0.662  12.380  0.1529 -0.1504 -0.1409
28349W        W28549  12.266   2.933   6.022  0.2687 -0.0166  0.1518
28350W        W28550   0.177  12.920   8.477  0.3918 -0.2555  0.3829
28351W        W28551   3.247   2.804   9.024 -0.1448 -0.1142 -0.2294
28352W        W28552   2.258   5.769  14.234  0.0381  0.3511 -0.0152
28353W        W28553   3.062   2.669  14.476  0.1497 -0.0055 -0.2669
28354W        W28554   9.662   1.345   7.344 -0.1525 -0.1082  0.0160
28355W        W28555  10.925  10.224  10.267 -0.0499 -0.0376 -0.3044
28356W        W28556   5.013   0.314  10.727 -0.1422 -0.0425 -0.3285
28357W        W28557   5.028   2.266   5.956 -0.3350 -0.1781  0.0019
28358W        W28558  12.634   8.685   3.287 -0.0393  0.0760 -0.5282
28359W        W28559   8.865   8.298   2.019  0.3852 -0.1530 -0.0648
28360W        W28560  14.945   6.473  12.664  0.0353  0.1715 -0.0320
28361W        W28561   2.120   8.917  13.794  0.0627  0.0247 -0.2303
28362W        W28562  15.041   5.538   9.741 -0.1514 -0.0575  0.1308
28363W        W28563   1.789   7.526   8.064  0.0735  0.1793 -0.0859
28364W        W28564   8.953   6.701   4.626 -0.0231 -0.1940  0.0343
28365W        W28565   1.843   5.846   1.839 -0.0536 -0.2835 -0.4357
28366W        W28566  13.690   5.827   7.877 -0.2622 -0.0997  0.2704
28367W        W28567   5.644  12.971   2.731  0.1104  0.2734 -0.0160
28368W        W28568   3.826   6.844   8.242 -0.1025  0.1083 -0.2671
28369W        W28569   5.841  13.874   8.687  0.4018 -0.0433 -0.0017
28370W        W28570   6.952  12.012  15.167 -0.2184 -0.2523 -0.0302
28371W        W28571   3.682   5.109   4.885 -0.1616 -0.0927 -0.1159
28372W        W28572   8.529   1.315  10.398  0.1143  0.1072  0.2333
28373W        W28573   3.300   3.539  13.514  0.1760  0.2496 -0.1942
28374W        W28574  13.618   8.946  13.697  0.2532 -0.0598  0.1174
28375W        W28575   2.855   8.878   0.772  0.1136 -0.0819 -0.0903
28376W        W28576   5.223   5.315   1.292 -0.0565 -0.1353  0.0107
28377W        W28577   0.754   2.913   5.570  0.1024  0.0706  0.1119
28378W        W28578   2.153  10.775   6.698 -0.4246 -0.2540 -0.0152
28379W        W28579   0.457  10.861   6.243  0.0490  0.2978  0.2847
28380W        W28580   2.861  10.081  12.515 -0.1013 -0.0783  0.0184
28381W        W28581   7.690   8.231  14.977 -0.0943 -0.1326 -0.0249
28382W        W28582  11.359   5.994   3.016  0.2112  0.2110  0.1065
28383W        W28583   8.672   9.711   2.149 -0.0141 -0.0694  0.1481
28384W        W28584   1.010   0.091   3.643  0.1631 -0.3373 -0.0725
28385W        W28585   5.577   1.774  12.096  0.0308  0.3008  0.0826
28386W        W28586   9.089   0.571   6.230 -0.1662 -0.1421 -0.0400
28387W        W28587   2.651   3.644   0.243  0.4233  0.0167 -0.3132
28388W        W28588   6.396  12.884  10.255  0.2791  0.0727 -0.2022
28389W        W28589  14.530   6.533   5.042 -0.1675  0.1280  0.2546
28390W        W28590  14.656  12.143  14.574  0.1419 -0.1343  0.0495
28391W        W28591   9.311  11.256   7.453 -0.0196 -0.1192  0.1342
28392W        W28592  11.310   0.365   1.056 -0.0663  0.3145 -0.1409
28393W        W28593   6.137   2.367   0.327 -0.0061 -0.0262 -0.1817
28394W        W28594  11.158   0.955   5.115 -0.1022  0.0845 -0.0731
28395W        W28595  13.365  11.821   4.249 -0.1206 -0.0336 -0.1564
28396W        W28596   9.634   2.286   7.195 -0.3632 -0.0767  0.0420
28397W        W28597   3.855  11.222   6.610 -0.0176 -0.0558  0.4255
28398W        W28598   2.624   8.519   9.425 -0.4289 -0.1413 -0.1408
28399W        W28599   4.311  13.154   8.524 -0.3169  0.1836 -0.2447
28400W        W28600  10.051  11.192  14.259 -0.0808  0.1954 -0.0090
28401W        W28601   6.452  13.374  13.768  0.0356 -0.0746 -0.2601
28402W        W28602   2.579  14.535   0.834 -0.1868 -0.2954 -0.0714
28403W        W28603  14.476  14.839   0.912  0.0921 -0.0550  0.0959
28404W        W28604  11.661   1.222   5.203  0.0863 -0.0164  0.0962
28405W        W28605   7.303   2.604   3.477  0.0688  0.0566  0.1922
28406W        W28606   0.795   5.857   1.897  0.0031  0.1103  0.0076
28407W        W28607   1.625   1.120   1.762  0.1643 -0.1483  0.0720
28408W        W28608   1.972   2.811  10.456  0.0959  0.0477 -0.0685
28409W        W28609   4.475   5.578   1.919 -0.2364  0.0828 -0.1119
28410W        W28610  14.875  10.206   0.107 -0.0327  0.1373  0.1707
28411W        W28611   9.918   3.881   5.252 -0.3485 -0.1704  0.0032
28412W        W28612   4.684   2.637   8.325  0.3142 -0.0666  0.2145
28413W        W28613   8.087  13.811   0.270 -0.0585  0.0688  0.1827
28414W        W28614   8.923   0.185  12.986  0.1553  0.3153  0.1937
28415W        W28615  13.938   7.644   7.012  0.1069 -0.0584 -0.4646
28416W        W28616   2.152   9.599   6.260  0.1517  0.0539 -0.1177
28417W        W28617   1.524  11.754  14.737  0.1122  0.1940  0.0939
28418W        W28618   9.399   9.182   5.406 -0.0808 -0.1354 -0.2477
28419W        W28619   1.597   6.241  14.701 -0.2273  0.0757 -0.1492
28420W        W28620  13.818   5.280   4.524  0.0368 -0.1220  0.0023
28421W        W28621   3.141   0.492   2.680 -0.1346  0.1163  0.0346
28422W        W28622   9.451   7.368  10.621  0.1081 -0.1400  0.1416
28423W        W28623   1.550  11.400   1.153  0.2199  0.0967  0.1013
28424W        W28624   4.638  11.930   3.301 -0.1500  0.1770  0.1696
28425W        W28625  14.187  11.477   1.892  0.2301  0.2632 -0.2127
28426W        W28626  11.011   3.739   4.142 -0.0633  0.2927  0.6019
28427W        W28627   3.328  11.869  15.187 -0.1185 -0.2610 -0.0709
28428W        W28628  11.544   4.831  15.167 -0.0352  0.1406 -0.0550
28429W        W28629   7.497   2.651   2.119  0.2056 -0.0863  0.1186
28430W        W28630   2.937   9.766  14.557 -0.0486 -0.2648 -0.0170
28431W        W28631   3.783  10.979   0.683 -0.2201 -0.1992 -0.0928
28432W        W28632   2.507  14.568  11.105  0.0783 -0.1063 -0.1080
28433W        W28633   3.197   8.048   3.413  0.1767  0.1222  0.0637
28434W        W28634   7.726   9.294   8.045 -0.1089 -0.0783 -0.1207
28435W        W28635  12.439   2.963   5.538 -0.0278  0.2593  0.0054
28436W        W28636   7.576   4.808   6.493 -0.0227 -0.0925  0.0584
28437W        W28637   6.155   9.518   2.258 -0.0288 -0.0618  0.0160
28438W        W28638   2.542  14.800  14.764  0.2592 -0.0063 -0.1568
28439W        W28639   2.041   7.227   6.174 -0.0216 -0.2077  0.0999
28440W        W28640   8.964   7.155   2.042 -0.1629 -0.2525  0.0340
28441W        W28641  11.346   0.876   2.546  0.0982 -0.0975  0.0752
28442W        W28642  13.039  12.252   3.644 -0.3112  0.1992  0.4297
28443W        W28643   2.517   0.921   6.479  0.1734 -0.4043 -0.2655
28444W        W28644   0.663  14.377   8.469  0.4776  0.1899 -0.0799
28445W        W28645  14.107   9.220   1.729  0.2774  0.2848  0.0821
28446W        W28646  13.740   6.522   1.188 -0.1492  0.0879  0.2404
28447W        W28647   5.826  13.668  10.895  0.0026 -0.0975 -0.0333
28448W        W28648  12.788   8.188  12.992 -0.2278  0.4373 -0.0509
28449W        W28649  11.530   8.927   3.745  0.0265  0.3661  0.1234
28450W        W28650   3.636   3.753  13.770 -0.1562 -0.0217  0.0695
28451W        W28651  14.804   7.409   3.252  0.1080 -0.0165  0.2070
28452W        W28652  10.869  11.594   6.348 -0.0273 -0.1037 -0.0616
28453W        W28653  15.128   9.774  13.860  0.0611 -0.0335 -0.0015
28454W        W28654  12.090  10.440   9.021 -0.0488  0.3858 -0.0696
28455W        W28655   7.889   5.022   1.185  0.2088  0.1110  0.3661
28456W        W28656  12.356   4.569   8.533 -0.1846  0.3365 -0.0043
28457W        W28657  10.895   8.410   3.243 -0.0140  0.0404  0.1723
28458W        W28658   3.415  10.200  12.490  0.2000 -0.0225 -0.0568
28459W        W28659   1.304   4.885   5.754  0.2521 -0.2283 -0.1357
28460W        W28660  11.125   4.962  13.503 -0.1199 -0.2443  0.2044
28461W        W28661   4.158  13.558  12.432 -0.0338 -0.2093  0.1808
28462W        W28662  13.998   8.160  11.169 -0.2699 -0.0589  0.2090
28463W        W28663   0.725   0.903   7.210 -0.1414 -0.2279 -0.1492
28464W        W28664   2.477  12.797   3.126 -0.1147 -0.2764 -0.0674
28465W        W28665  13.898  10.756  15.096 -0.0049 -0.2653 -0.1052
28466W        W28666   8.690   8.893   7.395  0.2985  0.0611 -0.2197
28467W        W28667  12.679  10.291   5.499  0.0230  0.0696 -0.2548
28468W        W28668   9.651  13.729   4.951 -0.0476  0.2606 -0.1985
28469W        W28669   1.196   4.763   8.568  0.1592 -0.0102 -0.1114
28470W        W28670  13.911   1.321  13.586 -0.0007  0.0971  0.0997
28471W        W28671   5.610  10.114   7.771  0.1359 -0.0187 -0.1186
28472W        W28672   7.717   2.836   9.701  0.2548 -0.3718 -0.1104
28473W        W28673  14.146   7.985   1.085 -0.3074 -0.0851  0.0120
28474W        W28674  12.124   0.134   9.628  0.0761 -0.2170  0.2234
28475W        W28675  12.276   1.755   8.154  0.0680  0.1723 -0.2464
28476W        W28676  12.317  14.655   1.023  0.2402 -0.2233  0.1522
28477W        W28677  10.158   5.346  10.189 -0.2429  0.1630 -0.0945
28478W        W28678   3.342  10.846  10.018 -0.0330  0.2917  0.0492
28479W        W28679   5.896   0.693   5.810  0.0783 -0.1819  0.1172
28480W        W28680  13.324   2.029   6.191 -0.1870 -0.1708  0.2128
28481W        W28681   1.803   8.692   6.676 -0.1222 -0.3376  0.0232
28482W        W28682  13.704  14.906   6.537 -0.1556 -0.0450  0.0213
28483W        W28683   4.335   6.811   7.278 -0.1300  0.0407 -0.1678
28484W        W28684   7.923   7.343   5.004 -0.2778 -0.0111 -0.0537
28485W        W28685  12.706   1.101   6.781  0.0931  0.2240  0.4237
28486W        W28686  14.245  15.102   7.291 -0.2651 -0.1268  0.0116
28487W        W28687  14.823   0.638   1.847  0.1773 -0.0897  0.0094
28488W        W28688   3.112   3.891   9.017  0.1724 -0.1943 -0.0495
28489W        W28689  12.461   9.324   1.230  0.0775 -0.0802 -0.2129
28490W        W28690   8.627  11.935   7.604 -0.1613 -0.3377  0.1038
28491W        W28691   8.050   6.960  13.121 -0.0094  0.5659 -0.2827
28492W        W28692  14.953   9.625  10.270 -0.1706 -0.1415  0.1311
28493W        W28693   2.766  13.309  10.096  0.0459  0.0154 -0.0029
28494W        W28694   9.920  12.756   1.818  0.1501  0.0317  0.0324
28495W        W28695  10.232   5.017   8.756  0.0227  0.0298 -0.1232
28496W        W28696  10.825  15.084   3.026 -0.3475 -0.0422  0.0481
28497W        W28697   0.163  11.357  10.288 -0.0346  0.0263  0.0592
28498W        W28698  12.372  12.021  14.986 -0.2525  0.0539 -0.4882
28499W        W28699   2.531  13.665  10.698  0.1209  0.2851 -0.0697
28500W        W28700  10.686   6.738   2.147  0.2918  0.3032  0.0355
28501W        W28701   4.143   6.528   5.265 -0.2123  0.3471 -0.1306
28502W        W28702   1.553   6.308   7.130  0.0424  0.0472  0.1301
28503W        W28703  14.507  13.021  12.521 -0.1472  0.0959 -0.2538
28504W        W28704  10.689   2.515   5.126 -0.2002 -0.4740 -0.5171
28505W        W28705  12.457   1.559  11.439 -0.0073  0.0346 -0.0545
28506W        W28706  12.116  11.684   1.635  0.1115  0.0281  0.3608
28507W        W28707   4.511   5.597   7.785  0.1234 -0.0071  0.2383
28508W        W28708   0.372  10.200   7.351 -0.0566  0.0343  0.2333
28509W        W28709  14.524  10.317   5.637 -0.1895 -0.4692  0.1362
28510W        W28710   8.893   7.010   8.818 -0.1532 -0.1621 -0.0456
28511W        W28711  14.440  10.607   5.208  0.0925  0.1728 -0.1653
28512W        W28712  11.345   2.255  11.501 -0.2704  0.1723 -0.0356
28513W        W28713   9.880  11.068   9.922 -0.0626 -0.1283  0.0386
28514W        W28714  13.328   8.565  10.879  0.0921  0.1390  0.0462
28515W        W28715   2.487   9.226  13.489 -0.0987  0.0853  0.0374
28516W        W28716  13.106   8.502  15.150 -0.0871 -0.1813 -0.0529
28517W        W28717   5.274   9.882   5.645  0.0315  0.4344 -0.2853
28518W        W28718   2.944  11.841  11.692  0.0624  0.1137 -0.1538
28519W        W28719  11.897  15.006   1.117  0.0911  0.0819  0.2434
28520W        W28720  10.550  12.940   0.724 -0.1308  0.0772 -0.0843
28521W        W28721   5.228   9.470   8.324 -0.0663 -0.1254  0.1570
28522W        W28722   4.716   1.135   2.680  0.0365 -0.0353 -0.1718
28523W        W28723  11.398  10.572   0.262  0.1944  0.2239 -0.0090
28524W        W28724   0.281  10.649   3.588 -0.0496  0.0489 -0.1984
28525W        W28725   5.375   3.766   7.057 -0.2869  0.1225 -0.2427
28526W        W28726  10.274  13.993  12.332 -0.0130 -0.0880  0.2241
28527W        W28727   5.310   5.795   0.177  0.0027  0.0411  0.1342
28528W        W28728   3.407   1.312   5.682 -0.0123 -0.3026 -0.0692
28529W        W28729  13.718  10.990   6.643  0.1721  0.1570 -0.1343
28530W        W28730  13.748  11.105   2.200  0.1731 -0.0793 -0.2016
28531W        W28731  10.341   5.952   1.770 -0.0579  0.1373  0.0841
28532W        W28732   4.503  12.234  14.467 -0.2747  0.1080  0.1159
28533W        W28733   1.880   0.213   3.474 -0.0706 -0.2084 -0.2788
28534W        W28734   9.194   9.485   8.330 -0.0122  0.1186  0.0093
28535W        W28735  12.259  13.130   7.545 -0.2195  0.0582 -0.0460
28536W        W28736  14.000  10.176  13.632 -0.1746 -0.4867 -0.0779
28537W        W28737   0.013   7.587   6.344  0.1099 -0.0596  0.0135
28538W        W28738  14.538   9.128   5.874  0.2376 -0.1338  0.1049
28539W        W28739   1.974   4.301  14.001  0.2659 -0.0391  0.1438
28540W        W28740   7.593  13.293   9.619 -0.0762 -0.2698 -0.2611
28541W        W28741  13.665   8.397  12.982 -0.0328 -0.6314 -0.0143
28542W        W28742   9.100   2.118   5.746  0.0870 -0.1024 -0.1889
28543W        W28743   8.091   0.155   3.924 -0.1655 -0.0712 -0.0644
28544W        W28744  12.997   3.146   8.352 -0.5082 -0.0367  0.3141
28545W        W28745  11.226   8.500  14.494  0.2370  0.1644  0.1767
28546W        W28746   0.224  13.881  10.469  0.0726  0.0639 -0.1706
28547W        W28747  14.832   8.728   4.590 -0.1202  0.1691 -0.0218
28548W        W28748  12.217   4.597   7.007 -0.2181  0.0569 -0.0313
28549W        W28749  13.428   5.802   6.698  0.1577  0.0122 -0.3024
28550W        W28750  10.032  12.081   0.866  0.0646 -0.0628 -0.1362
28551W        W28751  11.070  13.653   2.133 -0.0980  0.2212 -0.2252
28552W        W28752  15.010   7.373  15.103 -0.0498  0.2125  0.0897
28553W        W28753  12.153   4.302   5.518 -0.1151 -0.2151 -0.2312
28554W        W28754  14.743   5.986   8.807  0.0856 -0.2542  0.0228
28555W        W28755   5.929   9.671   7.730 -0.0699  0.0270 -0.1106
28556W        W28756   9.586  11.931  12.671 -0.1103  0.1336  0.1192
28557W        W28757  12.656   0.890   5.752  0.1309  0.0081 -0.0675
28558W        W28758   1.553  13.574   6.874  0.2710  0.1212 -0.1609
28559W        W28759  10.043  15.002  10.066 -0.0264  0.2112 -0.1610
28560W        W28760   9.767   2.900   8.389 -0.0557  0.0291  0.2014
28561W        W28761   3.289  11.333   7.422 -0.0398  0.1471  0.2002
28562W        W28762   1.726   0.812   5.956  0.2141  0.0552 -0.1713
28563W        W28763  12.722   3.270   2.346 -0.0761 -0.1605 -0.2532
28564W        W28764   5.749  10.896  11.591  0.0471  0.0333  0.5791
28565W        W28765   8.266   3.570  13.226  0.0865  0.1970  0.0633
28566W        W28766   0.951  10.897  11.533 -0.1171 -0.1708  0.0931
28567W        W28767   6.388  12.366   1.753  0.0846 -0.2436  0.2262
28568W        W28768   0.536   7.745  10.069 -0.1600 -0.3116 -0.0115
28569W        W28769   5.463   6.030   3.144  0.0046 -0.4753  0.2163
28570W        W28770  10.489   9.804  13.456  0.1271  0.0149  0.0359
28571W        W28771   8.108  12.811   4.604  0.2768 -0.3277  0.2855
28572W        W28772   7.764   8.518  11.473 -0.2856  0.0242  0.1106
28573W        W28773  14.705  13.875   1.737 -0.1897 -0.0112 -0.0790
28574W        W28774   9.492  10.582   5.903 -0.0051 -0.2349 -0.0070
28575W        W28775   2.736   0.079  13.334 -0.1384 -0.0383  0.0881
28576W        W28776   0.351  12.734   7.235  0.1222 -0.4052  0.0851
28577W        W28777   0.911  10.771   7.160  0.0643 -0.1519 -0.4635
28578W        W28778   2.025   6.146  11.030  0.0936  0.0516  0.4995
28579W        W28779  13.170  11.167  10.958 -0.2458  0.2010  0.1123
28580W        W28780  14.926   5.418   4.906  0.0071 -0.0088  0.1566
28581W        W28781   0.337  11.971   9.596  0.1204 -0.0519  0.1629
28582W        W28782  14.600   9.451  13.292  0.2374  0.1787  0.3354
28583W        W28783  12.706  12.312   6.212 -0.0165 -0.2077 -0.2181
28584W        W28784  14.769  10.415   6.925 -0.1473 -0.0455 -0.3811
28585W        W28785   4.460   2.688   0.781  0.0599 -0.1768  0.1675
28586W        W28786   3.472   4.669  12.178  0.4441 -0.2934  0.0294
28587W        W28787   9.426  14.064   0.028  0.1608 -0.0469 -0.0680
28588W        W28788  12.003  13.568   6.821  0.0381  0.1877 -0.2731
28589W        W28789  14.804   6.468   6.547 -0.0291 -0.1399 -0.0355
28590W        W28790  11.738  11.927   2.793  0.1243 -0.0322  0.1081
28591W        W28791   1.126   1.493   5.466  0.0070 -0.0994 -0.0749
28592W        W28792   4.276   7.369   5.017 -0.0865  0.0045  0.0511
28593W        W28793   7.013   7.124  10.001 -0.3388 -0.0227 -0.0798
28594W        W28794  12.979   7.916  11.820 -0.0943 -0.3052  0.1295
28595W        W28795   5.778   7.105  13.649  0.2016  0.1140  0.0177
28596W        W28796  13.030   6.102   6.754 -0.1714 -0.1260 -0.2187
28597W        W28797   9.742   9.749   6.583 -0.2517 -0.1789 -0.0617
28598W        W28798  14.579   4.458  12.575 -0.2920 -0.3697 -0.1598
28599W        W28799  13.257   8.278  14.301 -0.0823 -0.0460 -0.3529
28600W        W28800   9.829  10.843  14.602 -0.1764  0.1880  0.1342
28601W        W28801  13.065  10.432  10.159 -0.1551 -0.1398  0.2814
28602W        W28802   8.244   5.889   7.401  0.1585  0.0966 -0.3941
28603W        W28803   8.373   7.471  12.224 -0.4343 -0.0755  0.0406
28604W        W28804   3.424  14.152  11.288 -0.1570 -0.3198  0.0481
28605W        W28805  12.243   9.057   2.652 -0.1081 -0.1231 -0.1435
28606W        W28806   2.367   7.695   6.995  0.0961 -0.1176 -0.0890
28607W        W28807  12.668   1.194   0.246  0.1613 -0.1471  0.0626
28608W        W28808  15.051   9.185   4.366 -0.2403 -0.1695 -0.4582
28609W        W28809   0.565  11.191  14.001  0.3074 -0.1772  0.2267
28610W        W28810   7.999   2.629   2.885  0.1170 -0.1526 -0.1409
28611W        W28811  15.010  12.688  13.933  0.0829 -0.3308 -0.0164
28612W        W28812   8.099  10.219  10.015 -0.0488 -0.4781 -0.0400
28613W        W28813  10.500  11.628  13.256 -0.0054  0.1944  0.0176
28614W        W28814   0.670   4.706   1.239 -0.0170 -0.0517  0.0305
28615W        W28815   4.257   2.914   8.268  0.1959  0.0089  0.2225
28616W        W28816   0.979  12.969  10.628  0.1358  0.3452  0.0367
28617W        W28817  13.966  11.765  14.159  0.0876  0.0315 -0.1448
28618W        W28818  10.767   0.858   7.034  0.1603  0.1181 -0.1984
28619W        W28819   0.825   1.823   5.905 -0.0789 -0.2216 -0.1179
28620W        W28820   1.912   8.883  12.982 -0.0551  0.0628  0.2938
28621W        W28821   3.178  13.930  10.866  0.1287 -0.2633 -0.0699
28622W        W28822   0.879   5.123   7.844  0.1289 -0.1959 -0.1022
28623W        W28823  14.592   2.999  11.784  0.2060 -0.1043 -0.0661
28624W        W28824   7.677   7.111  12.826 -0.4241 -0.2097 -0.1494
28625W        W28825   8.351   3.827  12.007  0.1221  0.4538 -0.3331
28626W        W28826  13.078   8.644   5.793 -0.2121 -0.2999 -0.0706
28627W        W28827   7.728   9.082  11.495  0.3466  0.1290 -0.1772
28628W        W28828  14.826  13.012   7.566 -0.2693  0.0598 -0.1430
28629W        W28829   6.002   1.768  14.972  0.3179  0.1217 -0.1699
28630W        W28830   2.282   6.344   6.634  0.0950  0.3571 -0.0169
28631W        W28831  12.513  10.400  10.163  0.1255 -0.0411  0.3770
28632W        W28832   7.905  10.898   2.542 -0.1086  0.2021  0.3809
28633W        W28833  15.093  13.580   1.567 -0.1135 -0.0166 -0.0991
28634W        W28834  14.012   0.347   8.292  0.1618 -0.0671  0.4846
28635W        W28835  15.143   5.940   5.581  0.0810  0.0479  0.1883
28636W        W28836   3.682   8.905   8.159 -0.0811 -0.0056 -0.0116
28637W        W28837   5.555  10.719   0.642 -0.1531 -0.3092  0.0741
28638W        W28838  14.930  13.171  13.759  0.2306  0.1849 -0.4703
28639W        W28839   0.302   9.519   7.563 -0.1300  0.0534  0.0286
28640W        W28840  13.500   8.430   9.547 -0.0340 -0.0672  0.0487
28641W        W28841   3.854   6.127   9.753 -0.1536 -0.1189 -0.1182
28642W        W28842   4.453   8.484  14.736 -0.1404  0.0769 -0.1709
28643W        W28843  12.281   8.339   7.539 -0.2012  0.1463  0.3324
28644W        W28844  13.768   8.984   1.392  0.0411  0.0367  0.5042
28645W        W28845  14.910   6.007  11.889  0.1113 -0.0861 -0.3118
28646W        W28846   5.495   7.874  14.419 -0.2837 -0.1380 -0.4408
28647W        W28847   4.101   6.428   8.271 -0.2702 -0.1089 -0.0473
28648W        W28848   3.697   3.509   1.965  0.0764  0.1809 -0.3931
28649W        W28849   1.722   6.993  10.627 -0.1439 -0.2370  0.2996
28650W        W28850   7.626   9.910  13.536 -0.2237 -0.0451  0.0500
28651W        W28851   6.957  12.139   9.092  0.2704  0.2240 -0.3153
28652W        W28852   3.729   6.467   7.974 -0.1748  0.3010 -0.0357
28653W        W28853  10.658   3.135   4.100 -0.2187 -0.1835 -0.0777
28654W        W28854   6.859  14.525   7.782  0.0355 -0.1351 -0.2340
28655W        W28855   6.107  12.472  11.691  0.3404  0.2057 -0.0650
28656W        W28856   9.257  13.398   7.606 -0.1474  0.2137  0.0190
28657W        W28857   3.025  14.477   8.067  0.0386  0.1840  0.3820
28658W        W28858   5.810   6.875   0.818  0.1007 -0.4525  0.0543
28659W        W28859   8.737   3.954  13.851 -0.0607  0.2878  0.2858
28660W        W28860   0.763   8.510   8.765  0.2602 -0.2429 -0.0026
28661W        W28861  11.976   5.125  12.375 -0.1783  0.1154  0.3300
28662W        W28862   3.943  10.100   9.709  0.0982 -0.0129 -0.0244
28663W        W28863   1.646   7.641   9.343 -0.3538  0.0942 -0.1832
28664W        W28864   1.972   4.995  12.379  0.1796 -0.1770  0.1724
28665W        W28865   0.746   5.711  11.397  0.2390 -0.1733 -0.0492
28666W        W28866   4.665   9.825   4.162 -0.2160 -0.0950 -0.3695
28667W        W28867   5.325   5.875   9.324  0.0017  0.0236  0.0399
28668W        W28868  12.627  14.388  12.761  0.2386  0.2129 -0.3077
28669W        W28869   3.667  14.265   3.386 -0.1685  0.1112  0.0275
28670W        W28870   6.567   4.862  11.501  0.0711 -0.3495  0.1791
28671W        W28871   0.810  14.016   7.025 -0.2456 -0.1401 -0.0834
28672W        W28872   3.560   9.991  11.941  0.3150 -0.3916  0.2763
28673W        W28873   1.769  10.409   6.834 -0.1918 -0.2766  0.1492
28674W        W28874   0.566   9.634   2.818 -0.0393 -0.0951 -0.3686
28675W        W28875   6.938  10.944   2.996 -0.0689  0.0715 -0.0417
28676W        W28876   2.969   1.410   9.561 -0.0754  0.1306 -0.0320
28677W        W28877  12.349   4.876  11.219 -0.0678  0.0401  0.0802
28678W        W28878  12.892   1.422  12.034 -0.0374  0.2026 -0.1308
28679W        W28879  14.751   8.509   1.880 -0.0407  0.0454 -0.0842
28680W        W28880  11.278  10.809   4.333  0.4156 -0.2916  0.0580
28681W        W28881  14.070   3.742  10.925  0.2795 -0.3034  0.0782
28682W        W28882  14.672   1.306   6.801 -0.1697  0.2142  0.4204
28683W        W28883   8.548  14.577   4.616  0.2822  0.0662 -0.1125
28684W        W28884   7.894   8.801  12.494 -0.1802 -0.0812  0.2250
28685W        W28885  13.459   0.306   9.791  0.0028  0.1810 -0.1900
28686W        W28886   8.113  11.757   2.583 -0.2375 -0.1243  0.2759
28687W        W28887  13.750   2.090  14.349 -0.1846  0.2231 -0.2973
28688W        W28888  13.043  11.009  15.031 -0.2290  0.2572  0.1335
28689W        W28889  14.943   3.660   8.310  0.0990  0.0569  0.2770
28690W        W28890  11.855  14.234   3.094 -0.1921 -0.1028 -0.2423
28691W        W28891  11.883   2.948   7.972  0.0577 -0.0856 -0.1824
28692W        W28892   0.310   8.264   9.790  0.2081  0.0222  0.0657
28693W        W28893  12.664  11.258  13.135  0.1173 -0.0688 -0.2557
28694W        W28894   0.450   9.392  14.710 -0.1345 -0.0973  0.0965
28695W        W28895  14.447  10.995   9.656  0.0969  0.1452 -0.2127
28696W        W28896   3.921   1.612   1.994 -0.1977 -0.1469  0.2152
28697W        W28897   0.538   0.010   1.617 -0.1228  0.0283  0.0450
28698W        W28898   5.253   8.903   1.514  0.0032  0.0569  0.1353
28699W        W28899   1.702   6.649  14.308 -0.0788 -0.0618 -0.0056
28700W        W28900   0.159   7.250   8.438 -0.2608 -0.1267  0.0167
28701W        W28901   0.219   5.063   2.438 -0.1774  0.0312  0.1650
28702W        W28902   0.149   9.482   4.823  0.0067  0.3455  0.3566
28703W        W28903  13.445  12.346   9.663  0.0355 -0.3238  0.0213
28704W        W28904   6.568   1.667   2.546 -0.1557  0.2992 -0.2413
28705W        W28905  14.867   8.590   9.820  0.2236  0.0026 -0.1746
28706W        W28906  11.361   7.451  14.027 -0.1805  0.0229 -0.0956
28707W        W28907  13.072  14.762  13.752 -0.0232 -0.1546  0.2419
28708W        W28908   4.609  10.065   3.138  0.0231  0.0248 -0.1921
28709W        W28909  12.954   5.167   5.093  0.2366 -0.2571 -0.0459
28710W        W28910   8.311   3.007  13.319  0.0953 -0.0289 -0.0348
28711W        W28911   1.864   3.997   5.524 -0.0839 -0.0979 -0.0385
28712W        W28912   2.670  15.030   8.817  0.1459  0.0517 -0.0508
28713W        W28913   0.597  13.505  11.185 -0.2137 -0.0581  0.0789
28714W        W28914   6.392   7.622  13.938 -0.1568 -0.1375 -0.1961
28715W        W28915   1.959  12.962   2.220 -0.2680 -0.1051 -0.0217
28716W        W28916   3.490   1.202   2.912 -0.0762 -0.1201 -0.0796
28717W        W28917  13.361   0.296   9.198  0.1454  0.0682  0.1534
28718W        W28918  12.540   9.869   6.940  0.2090  0.1022 -0.2442
28719W        W28919   5.903  11.842   3.648 -0.1882  0.2221 -0.0864
28720W        W28920   0.150   1.456   0.829 -0.0621 -0.3000 -0.1467
28721W        W28921  12.560  11.874   2.807  0.0768 -0.2378 -0.1885
28722W        W28922   8.405   7.812   6.889  0.2263 -0.3801 -0.0112
28723W        W28923  14.016  14.059  14.491  0.0268 -0.1099  0.2281
28724W        W28924   4.932   9.644   1.513  0.0753 -0.0508  0.1637
28725W        W28925   7.639  13.051   4.561  0.2254 -0.1234 -0.1470
28726W        W28926   8.239   0.896  13.634  0.0085  0.0040 -0.1574
28727W        W28927   1.563   6.290  13.958 -0.0020  0.1675 -0.2392
28728W        W28928  12.652  13.461   2.630  0.1237 -0.2262  0.3614
28729W        W28929   0.587  11.887   3.261  0.1271 -0.0457  0.1579
28730W        W28930  10.770  13.297   9.300  0.1549 -0.1433  0.1718
28731W        W28931   0.737   9.577  12.966  0.0433  0.4352 -0.1988
28732W        W28932   8.421   7.536   5.909  0.0071 -0.1646  0.1117
28733W        W28933   3.972   0.146  11.582  0.0030 -0.0194  0.2403
28734W        W28934   2.449  13.637   0.189  0.1025  0.0433  0.3659
28735W        W28935   9.918   0.273   4.121  0.0919 -0.1017  0.0186
28736W        W28936  15.047   1.180  13.648 -0.1024  0.1951 -0.0323
28737W        W28937  10.389  10.796   6.712 -0.0834 -0.1884 -0.0829
28738W        W28938  13.541  14.744  13.577 -0.0495  0.2462  0.1127
28739W        W28939   6.842  10.314   3.907 -0.2953  0.0040 -0.4341
28740W        W28940  11.790  14.110   5.284  0.0407 -0.2068  0.2036
28741W        W28941   4.010   1.616   5.041  0.0668 -0.0818  0.0066
28742W        W28942   0.586   7.881  11.303  0.0845 -0.0442  0.1099
28743W        W28943   2.368   7.130   0.160 -0.2333 -0.0871  0.3094
28744W        W28944   0.550   4.952  10.510 -0.3116  0.0586  0.0573
28745W        W28945   2.289   1.642   2.459  0.1823 -0.0248  0.2601
28746W        W28946  10.275   6.005   6.847 -0.1185  0.0305  0.0346
28747W        W28947   3.934   8.976   3.201 -0.1631  0.0414  0.1236
28748W        W28948  12.206  11.079   7.870 -0.1094 -0.3427 -0.0312
28749W        W28949   9.291   1.109   5.586  0.0185  0.0790  0.2005
28750W        W28950  11.288   7.955   7.204  0.1752 -0.0442 -0.1965
28751W        W28951   4.248   2.228   0.665  0.0837  0.0262  0.1770
28752W        W28952  10.715   8.412   5.283  0.0286  0.1658  0.2215
28753W        W28953  10.219  11.383   9.055 -0.1094  0.0951 -0.0736
28754W        W28954   6.802  13.236   0.371 -0.3481 -0.1174 -0.0058
28755W        W28955   3.429  12.733   6.844 -0.0279  0.1111  0.0933
28756W        W28956   2.303  15.056   4.512 -0.1217  0.1847  0.1556
28757W        W28957   4.227   5.097  11.811  0.0508  0.0100  0.0156
28758W        W28958   0.855  14.596  12.558  0.3309 -0.0321  0.0196
28759W        W28959  13.374   8.415   3.855  0.0624 -0.2342  0.1721
28760W        W28960   8.220  13.792   4.792  0.2180  0.2036  0.0050
28761W        W28961   1.355   9.289   9.058 -0.2798 -0.2975 -0.1680
28762W        W28962  14.929   7.388   4.106  0.2993  0.1191 -0.1934
28763W        W28963  13.744   4.882  11.009  0.1203 -0.1318 -0.2739
28764W        W28964  10.977   9.300  10.467 -0.7140 -0.3157 -0.1392
28765W        W28965  13.039   1.669  12.894  0.0992 -0.1755 -0.0626
28766W        W28966   6.638  13.990   9.092  0.0463  0.0387 -0.4368
28767W        W28967   8.190   1.605   2.088 -0.0713 -0.0958  0.2356
28768W        W28968   3.829   5.589   0.139  0.2804 -0.0859  0.0044
28769W        W28969   4.874   9.976   2.572 -0.0952  0.1178  0.0883
28770W        W28970  10.251   2.971   6.211  0.1588 -0.2768 -0.0741
28771W        W28971   4.211  12.151   9.881  0.0511  0.0635  0.0351
28772W        W28972   9.062  10.389  10.087 -0.1862  0.3544  0.1178
28773W        W28973  13.922   4.296  14.171  0.1877 -0.0508 -0.0405
28774W        W28974   3.635  14.909   7.816  0.1533 -0.2410 -0.1350
28775W        W28975   7.716   2.313   9.777  0.1359 -0.1002 -0.0529
28776W        W28976   3.094   2.110  12.292 -0.0713  0.2334  0.0950
28777W        W28977  14.882  13.921   2.230  0.1728 -0.1556  0.0437
28778W        W28978   1.644   9.595  10.002 -0.0308 -0.2070  0.0009
28779W        W28979   2.825  15.153  10.346 -0.0487 -0.2844 -0.1758
28780W        W28980  14.933   0.382   1.468 -0.0755 -0.1931 -0.1528
28781W        W28981  12.914   9.631  13.192  0.1735  0.1802 -0.2440
28782W        W28982   7.179   5.988   1.954 -0.4187 -0.2412 -0.1015
28783W        W28983   8.257   3.223   6.077 -0.1789  0.3188  0.0647
28784W        W28984  11.831   1.310   5.654  0.0181  0.0397 -0.3035
28785W        W28985  13.154  14.757   3.175  0.4643 -0.0370  0.0468
28786W        W28986   8.557   3.614   4.548  0.2200 -0.3005 -0.0289
28787W        W28987   2.473   5.820   3.908 -0.1168  0.2831  0.0306
28788W        W28988   3.848   2.389  11.250  0.1330  0.0116  0.1262
28789W        W28989   9.573   9.292   4.943 -0.2137  0.0247  0.0307
28790W        W28990   5.010   8.334   7.236  0.5185  0.1976  0.0706
28791W        W28991  11.427   3.387   2.095 -0.0104 -0.0554 -0.0295
28792W        W28992  10.687   3.670  14.263  0.0652 -0.2969 -0.0120
28793W        W28993   1.238   4.780   9.080  0.3915  0.0029 -0.0479
28794W        W28994  12.687   2.408   7.868 -0.1213  0.3745  0.1487
28795W        W28995   7.314  12.166   4.383 -0.2215 -0.1267  0.1247
28796W        W28996   8.189   0.108   7.878  0.2458 -0.2080 -0.1715
28797W        W28997   3.094   1.627   4.700  0.0911 -0.2807  0.1918
28798W        W28998   3.374  15.038  11.875 -0.0098  0.0733 -0.5578
28799W        W28999  14.885   4.057   4.366  0.1144 -0.1137 -0.1658
28800W        W29000   0.992   2.766   2.759  0.0721 -0.0005  0.2235
28801W        W29001  11.183  13.321   3.575  0.2227  0.0788  0.1141
28802W        W29002   8.913   7.173  14.747  0.0958 -0.3661  0.1404
28803W        W29003   8.843   1.755   8.750 -0.2827 -0.3433  0.0204
28804W        W29004  14.131   0.008   6.661 -0.1292  0.1473 -0.0227
28805W        W29005  12.164  14.045   2.021 -0.1840  0.1575  0.0639
28806W        W29006  13.532   9.012   2.978 -0.4728 -0.2302 -0.1418
28807W        W29007   1.655   1.883   7.826  0.1317  0.0515 -0.2730
28808W        W29008  14.817  13.754  14.329 -0.0202  0.0211 -0.0142
28809W        W29009  11.808   1.624  14.069 -0.1197 -0.0441  0.3966
28810W        W29010  12.993   7.155   2.315 -0.1563  0.2838  0.2159
28811W        W29011   2.353   5.821   8.383 -0.2081 -0.1929  0.0726
28812W        W29012   2.575   6.446   1.702 -0.2892 -0.0782 -0.0028
28813W        W29013   6.141   9.611   6.837 -0.0252  0.0411  0.0438
28814W        W29014   5.751  14.183  10.187 -0.0277 -0.0904  0.0750
28815W        W29015   4.816   9.084  12.755  0.2340 -0.0491 -0.2777
28816W        W29016   6.283   6.661   0.511 -0.2317 -0.0472 -0.2644
28817W        W29017   3.126   0.377   0.583  0.0576  0.2177  0.3413
28818W        W29018   7.378  13.519   3.808  0.0456 -0.1753 -0.3794
28819W        W29019  10.171   6.325   5.108 -0.0674  0.2648  0.5914
28820W        W29020   3.745  11.718   4.390  0.3190  0.0629  0.2802
28821W        W29021  10.010   0.683   6.472  0.0994  0.0075  0.1527
28822W        W29022  11.030  12.535   2.900  0.2727  0.1664 -0.1833
28823W        W29023  13.617  15.077   8.222  0.5038  0.0415 -0.0952
28824W        W29024   2.838   1.370  14.356 -0.0350  0.4731 -0.0363
28825W        W29025   2.249  12.571   9.091  0.0012  0.2342 -0.1202
28826W        W29026   1.250   5.773  10.924  0.4121  0.2962 -0.1459
28827W        W29027   4.244   2.150  11.942 -0.0302 -0.3076  0.0599
28828W        W29028   8.301   1.654   1.160 -0.0693  0.0026 -0.2130
28829W        W29029   7.334   5.107  12.642  0.2020  0.1166  0.0046
28830W        W29030   5.707  13.691   0.713 -0.2147 -0.1089 -0.1553
28831W        W29031   9.090   6.985  12.804 -0.3782 -0.2070  0.3548
28832W        W29032   3.227   9.727   5.465 -0.2357  0.0518 -0.0702
28833W        W29033   8.132  11.168  13.160 -0.1193  0.2224 -0.0954
28834W        W29034   2.599   8.671  14.505  0.0206  0.0132 -0.3960
28835W        W29035   3.073   2.089   8.585 -0.0549  0.1803 -0.1001
28836W        W29036  13.716  11.023   8.523  0.2214 -0.1491  0.1996
28837W        W29037   8.041  10.982   0.560 -0.1024  0.2297 -0.1036
28838W        W29038  14.070   2.264   1.903 -0.4806 -0.2194  0.0090
28839W        W29039  12.876  15.122   6.265 -0.2509  0.0543 -0.0748
28840W        W29040  12.544   4.602   1.610 -0.0413 -0.2385 -0.1200
28841W        W29041   1.504  10.068   3.480  0.1040  0.0347  0.1691
28842W        W29042   0.999   5.300   9.848 -0.3098  0.1123  0.2605
28843W        W29043  12.533   7.002   6.596  0.1364  0.1864 -0.1637
28844W        W29044   1.009   9.692   9.068 -0.1517 -0.3433  0.1665
28845W        W29045   1.918  11.044   4.663  0.0779  0.1435  0.0455
28846W        W29046   7.234   8.689   4.859  0.0636  0.3614  0.0398
28847W        W29047   9.793   4.770   8.957  0.2446  0.2722 -0.0253
28848W        W29048   1.722   5.012   5.390 -0.0492  0.1091 -0.2031
28849W        W29049   1.543   0.933   4.079  0.2658 -0.1863 -0.1306
28850W        W29050   5.714  12.955   0.173  0.0628 -0.1138  0.3112
28851W        W29051   5.176   2.239  15.004  0.1703 -0.2704  0.2606
28852W        W29052   9.492  15.155   8.648 -0.1271  0.1949  0.1096
28853W        W29053   1.477  14.250   1.409  0.1828  0.1547  0.1744
28854W        W29054  14.033  13.624   4.229 -0.0791 -0.0149 -0.1967
28855W        W29055   9.911   5.284  12.557  0.3862  0.1294  0.2747
28856W        W29056   4.956  14.824  11.489 -0.1500  0.1925  0.0343
28857W        W29057  13.326  12.873  10.305  0.0467 -0.0821 -0.3565
28858W        W29058   1.463   1.108   7.415 -0.3380  0.0875 -0.1981
28859W        W29059   1.531   9.928   6.974 -0.0556  0.0779 -0.0991
28860W        W29060   9.694  13.242   5.109 -0.0937  0.1928  0.2317
28861W        W29061   3.318   1.378   9.208 -0.3844 -0.0217  0.2121
28862W        W29062  10.690   6.062  10.419 -0.2451  0.2771 -0.1512
28863W        W29063   2.969   5.655   3.995  0.3227 -0.1237  0.2812
28864W        W29064  10.800  12.343  12.268  0.1179 -0.1071  0.0821
28865W        W29065  12.187  10.811   8.630  0.0207  0.0841 -0.1440
28866W        W29066   2.088   8.293  12.199  0.0563 -0.0101  0.0674
28867W        W29067   2.542   3.686  10.938  0.0497 -0.2995 -0.1533
28868W        W29068  10.799  12.760  11.001 -0.2278  0.5796  0.2057
28869W        W29069   2.706   1.682   0.431  0.0610  0.0378  0.3702
28870W        W29070  11.718  11.149  10.118  0.0051 -0.1319  0.0871
28871W        W29071  13.021  15.114  14.159 -0.0140  0.2188  0.2848
28872W        W29072  14.519  14.845   3.195  0.1057 -0.0321  0.2299
28873W        W29073   4.343   1.286   6.942  0.0108 -0.2291  0.2247
28874W        W29074  14.893  10.221  14.114 -0.0643 -0.0183  0.0825
28875W        W29075   0.750  13.759  12.149 -0.2286  0.0005 -0.3039
28876W        W29076   8.179  14.425  12.745 -0.1376 -0.0251  0.1249
28877W        W29077   4.336   4.079   1.823 -0.0084 -0.1287 -0.1613
28878W        W29078  12.189  11.562   4.997 -0.1576  0.0143 -0.2158
28879W        W29079  14.743  10.440   8.593 -0.2175  0.4347  0.1140
28880W        W29080  14.435   0.949   6.476 -0.1617  0.2470  0.1089
28881W        W29081   4.270   3.492   8.354  0.1259  0.1580 -0.0937
28882W        W29082   0.169   2.811   3.925 -0.1590 -0.1871  0.0812
28883W        W29083  14.846   3.197   4.539  0.2693 -0.1160 -0.4927
28884W        W29084   9.553   6.049  13.320 -0.2124 -0.0782 -0.0335
28885W        W29085  10.393   6.277  14.168  0.0165 -0.2127  0.1334
28886W        W29086   1.813   6.644  12.741  0.0426  0.1669  0.0742
28887W        W29087   8.040   6.738  14.317  0.0764 -0.3211  0.0043
28888W        W29088   9.862  14.945  14.573  0.1417 -0.1831  0.0367
28889W        W29089  14.241  11.045  13.908 -0.1901 -0.3912  0.2569
28890W        W29090   0.235   0.178   6.467  0.1190  0.0486  0.1991
28891W        W29091  12.277   1.224   8.136  0.3499  0.1442 -0.1366
28892W        W29092   6.896   0.505   4.758  0.2326  0.0168 -0.0032
28893W        W29093  10.864  13.427   6.443  0.1207 -0.0680 -0.1230
28894W        W29094   3.860   7.634   2.946  0.3877 -0.1714 -0.0632
28895W        W29095  11.648   3.330   7.489  0.2702  0.0988 -0.3047
28896W        W29096   5.132   9.627   8.849  0.0042 -0.2559 -0.0407
28897W        W29097  12.242  15.109   6.844 -0.1892  0.0094 -0.1414
28898W        W29098  13.421  13.005  13.647  0.3030 -0.1051  0.0168
28899W        W29099  14.827   7.795  14.822 -0.2132  0.1896  0.0580
28900W        W29100   3.556   7.216   3.857 -0.0140 -0.0114  0.0805
28901W        W29101  12.335  10.275  13.923  0.0679 -0.4933  0.2387
28902W        W29102  14.368   1.206  12.607  0.1406  0.5638 -0.1162
28903W        W29103  12.579  10.820   3.018 -0.2346 -0.2326  0.0969
28904W        W29104   2.008  10.021   5.971  0.2059  0.1742 -0.0837
28905W        W29105   3.438  13.038  12.857  0.1232 -0.0014 -0.2638
28906W        W29106  10.169   1.068   6.786  0.1202 -0.1908  0.1429
28907W        W29107   1.357   5.012   9.499 -0.0821 -0.0980 -0.1519
28908W        W29108   8.890   3.226  13.963  0.0527 -0.1714 -0.0485
28909W        W29109   6.175  12.809   8.952  0.1358 -0.2193  0.0677
28910W        W29110  10.591  14.052   9.919  0.4307  0.1388  0.0320
28911W        W29111  12.357   6.912   1.658 -0.1418 -0.0474 -0.2118
28912W        W29112   2.246  12.467  10.608  0.2685  0.0334  0.0109
28913W        W29113  12.696   4.655  11.651  0.0577  0.3691  0.0212
28914W        W29114  14.248   0.188  14.904  0.3558 -0.1479  0.1353
28915W        W29115   5.535  13.466  15.161  0.1158 -0.0686 -0.3444
28916W        W29116   1.619   9.218  12.793 -0.0161 -0.2754  0.1340
28917W        W29117  11.399   8.894   1.054 -0.3959 -0.0857  0.0430
28918W        W29118  13.743   4.970  14.632 -0.0039 -0.2560  0.0454
28919W        W29119   0.473  12.435   9.586 -0.2033  0.0584  0.0657
28920W        W29120  10.443  12.457  14.628 -0.0101  0.3201 -0.0262
28921W        W29121  13.899  13.784   8.380 -0.0084  0.0375 -0.0693
28922W        W29122  14.509  15.134  11.598  0.5042  0.3186 -0.0756
28923W        W29123   2.008  12.078   9.696  0.4771  0.1982  0.1982
28924W        W29124   0.178   3.893  13.094 -0.3214 -0.0853 -0.0686
28925W        W29125   0.950  12.933  13.850 -0.1020 -0.2796  0.0524
28926W        W29126   2.492   9.878  10.670 -0.0324 -0.3671  0.2718
28927W        W29127   0.323  14.866  14.986  0.2566  0.0173  0.0749
28928W        W29128   8.246  12.143   0.939  0.1770  0.2497 -0.0619
28929W        W29129   1.137   3.198   8.926  0.0188 -0.0325 -0.0685
28930W        W29130   9.135  11.749  12.577  0.0676 -0.0292 -0.1303
28931W        W29131   0.416   5.112   4.183 -0.1694 -0.0131  0.1050
28932W        W29132   6.680   0.237   7.338 -0.0009  0.0747  0.0292
28933W        W29133   2.222  11.946   8.814 -0.1149  0.1671 -0.1107
28934W        W29134   9.059   0.292   1.935 -0.2398  0.1141  0.1074
28935W        W29135   5.529   1.836   9.797 -0.1317  0.0873 -0.0888
28936W        W29136   2.492   2.531  11.706 -0.2504  0.1271 -0.1407
28937W        W29137  11.975   8.408  10.648 -0.2838 -0.1310 -0.1713
28938W        W29138   3.273  11.060   0.521 -0.0289  0.0206  0.0791
28939W        W29139  11.725  13.063  13.068  0.3827  0.1454 -0.3243
28940W        W29140  12.207   2.282   2.652  0.1617 -0.1514 -0.0066
28941W        W29141  11.211  13.115   6.259  0.0233  0.2260 -0.2167
28942W        W29142   1.872   6.441   2.146 -0.0676  0.2680  0.2784
28943W        W29143   9.524   4.668   6.225 -0.0852 -0.0128 -0.0121
28944W        W29144   8.477  12.257   4.459 -0.0320  0.3778 -0.0070
28945W        W29145   7.404   5.490  13.758  0.1010 -0.2994  0.3382
28946W        W29146   9.690   9.001  12.030  0.1326  0.1193 -0.2353
28947W        W29147   0.426   2.464   8.981 -0.4112  0.1032  0.0396
28948W        W29148   0.480  14.837  10.049 -0.2463  0.0494  0.2440
28949W        W29149  14.141   3.881   9.330 -0.1917 -0.2009  0.0453
28950W        W29150   5.610  14.808   2.672 -0.0277  0.1059  0.1131
28951W        W29151  13.016  13.544  12.378  0.2453 -0.0645  0.0086
28952W        W29152   2.173   2.056   7.268  0.2171 -0.3446 -0.2379
28953W        W29153  14.075   6.634   5.285  0.0858  0.0624 -0.1017
28954W        W29154   4.549  12.004  12.534 -0.2344 -0.2181  0.3635
28955W        W29155  14.991  11.813   4.832 -0.0990  0.0790  0.1020
28956W        W29156   3.071  13.658  14.127 -0.2136  0.2022  0.0730
28957W        W29157  10.416   4.563   0.115 -0.0500 -0.2314 -0.0386
28958W        W29158   3.718   0.337  13.411 -0.1530  0.2729  0.3188
28959W        W29159   9.080   6.104   0.322 -0.0981 -0.3575 -0.2673
28960W        W29160  12.128   7.459  10.239  0.1171  0.1182 -0.2908
28961W        W29161   1.100   1.367   1.117  0.1885 -0.4321  0.1684
28962W        W29162   0.936  11.151  12.242 -0.1385  0.0468 -0.1596
28963W        W29163   1.359  13.227  13.757  0.3796  0.2438  0.0003
28964W        W29164  12.908  13.298  14.599 -0.0160  0.1068 -0.0176
28965W        W29165   6.041   5.625   0.587  0.0486  0.0238  0.3141
28966W        W29166  13.341   0.756   2.019 -0.0702  0.0558  0.0811
28967W        W29167  10.150   1.877   5.044 -0.2786 -0.2295  0.0035
28968W        W29168   1.068   9.186   6.485  0.0297  0.2090 -0.1168
28969W        W29169   3.954   3.530  11.191 -0.3582  0.0283 -0.0714
28970W        W29170  12.692   4.260   6.253  0.1013  0.1411 -0.3964
28971W        W29171   0.205  11.640   4.602 -0.0262 -0.3027  0.1623
28972W        W29172  10.975   2.316  11.918 -0.4421 -0.2107 -0.3347
28973W        W29173   1.470   4.211  11.016  0.1016 -0.0263 -0.1780
28974W        W29174   7.618  10.772   8.464 -0.3898 -0.3289  0.1301
28975W        W29175   5.644   0.291  13.124  0.1657 -0.2567  0.1817
28976W        W29176   1.760   2.346   2.371 -0.2363  0.1460 -0.0111
28977W        W29177   2.206  14.037  10.555 -0.0564 -0.1306 -0.0634
28978W        W29178   1.150  14.872  14.009 -0.0600  0.0813  0.0107
28979W        W29179  10.590   5.870   6.518  0.0380  0.0046 -0.1327
28980W        W29180   4.601   3.557   9.566 -0.0042 -0.0537 -0.3942
28981W        W29181   9.051  13.551   6.601 -0.2693 -0.3144 -0.1291
28982W        W29182  12.424   3.421  11.100  0.1881  0.0827  0.0901
28983W        W29183  11.141   3.784   5.635  0.1267  0.0272  0.1390
28984W        W29184   8.276   0.194  11.431  0.2802 -0.1944 -0.1093
28985W        W29185   1.152   7.747   5.568 -0.1558 -0.0038 -0.0015
28986W        W29186   9.501   3.955  14.055 -0.2118  0.0240  0.1153
28987W        W29187  13.672   9.473  10.557 -0.0324  0.3777  0.0620
28988W        W29188   9.944  11.125  11.048  0.1261  0.0175  0.0224
28989W        W29189  11.301   3.632   4.545 -0.1912 -0.3337  0.4235
28990W        W29190   6.781  12.273   3.435 -0.0180 -0.0841 -0.2201
28991W        W29191   2.424   6.175   3.549  0.0705 -0.4074  0.0016
28992W        W29192  10.666   5.438   1.988  0.4578 -0.4265  0.1117
28993W        W29193   7.754   1.070  11.518  0.0060  0.0620 -0.1239
28994W        W29194   4.860   5.673   9.177  0.5493 -0.1006 -0.1305
28995W        W29195   4.040   8.191  13.327 -0.2909  0.0588  0.0834
28996W        W29196  14.438  14.045  11.544 -0.0209 -0.0987 -0.0674
28997W        W29197   5.125   8.349   7.707 -0.0688  0.2128 -0.0264
28998W        W29198   9.322  15.041  14.525 -0.1747  0.1934 -0.0913
28999W        W29199  14.515  13.401   6.687 -0.1224  0.2173 -0.2337
29000W        W29200   4.957   0.502   3.480  0.4777  0.1138 -0.0803
29001W        W29201  12.373  12.032   3.339 -0.2363  0.2911 -0.1563
29002W        W29202   6.783  15.043  10.579  0.3551 -0.3923  0.1955
29003W        W29203   3.010  12.436  14.060 -0.1149 -0.0979  0.3611
29004W        W29204  14.187   0.895   5.007 -0.2184 -0.1771  0.0821
29005W        W29205  15.080   1.435   9.852 -0.0595 -0.0191 -0.0610
29006W        W29206   5.439   8.111   4.228 -0.3663 -0.1130  0.1631
29007W        W29207  13.946   0.251  10.127  0.2540  0.2222 -0.1713
29008W        W29208  11.463   4.252   7.366  0.0761  0.2871 -0.0250
29009W        W29209   6.386   8.752   8.846 -0.1362  0.1703 -0.0487
29010W        W29210   3.818  10.536   1.592  0.0705  0.5268 -0.0972
29011W        W29211  13.029  11.504   9.490 -0.0643  0.2854  0.2081
29012W        W29212  13.343  12.024  14.766 -0.1840  0.1931  0.0033
29013W        W29213   9.936  13.026   6.509 -0.0062  0.3108 -0.0545
29014W        W29214  12.442   5.674  10.197  0.0517 -0.0668 -0.0543
29015W        W29215   2.318   0.892   7.812  0.0303  0.4213  0.2185
29016W        W29216  11.908  13.491  12.323  0.0649  0.1242 -0.0484
29017W        W29217  10.612  12.175   5.185  0.1270 -0.0298 -0.0467
29018W        W29218   5.654   0.233   9.306  0.3657 -0.0216 -0.1177
29019W        W29219   9.440  13.112   3.588  0.1059 -0.0534 -0.0770
29020W        W29220   1.023   2.703   7.433  0.1138  0.4623  0.0360
29021W        W29221   5.306   6.171   8.031 -0.1629 -0.0007 -0.0693
  15.19589  15.19589  15.19589
