; propyl iodide
[moleculetype]
PRI 1
[atoms]
1 SX1 1 PRI I1 1 0 79.9
2 SC2 1 PRI R2 2 0

[bonds]
; completely guessed bond length and strength
1 2 1 0.3337 4000

; ethanolate
[moleculetype]
ETA 1
[atoms]
1 SQ5n 1 ETA ETA 1 -1

; acetate -> ACE, SQ5n as well, directly from martini v3 ions
[moleculetype]
ACE 1
[atoms]
1 SQ5n 1 ACE ACE 1 -1 59.044

; phenolate - modified phenol from martini v3 small molecules
[moleculetype]
PHEA 1
[atoms]
1 SQ5n 1 PHEA O1 1 -1
2 TC5  1 PHEA R2 2  0
3 TC5  1 PHEA R3 3  0

[constraints]
1 2 1 0.285
2 3 1 0.295
1 3 1 0.295

; sodium+ counterion
[moleculetype]
NA 1
[atoms]
1 TQ5 1 ION NA 1 1.0

; iodide
[moleculetype]
IOD 1
[atoms]
1 SQ2 1 ION ID 1 -1 79.9

; ethanol
[moleculetype]
ETO 1
[atoms]
1 SP1 1 ETO ETO 1 0

; water
[moleculetype]
W 1
[atoms]
1 W 1 W W 1 0

