; 1,3-Benzenedithiol
[ moleculetype ]
; molname nrexcl
BDT 1

[ atoms ]
; id type resnr residue atom cgnr charge mass
  1  TC6    1     BDT   TS1   1      0
  2  TC6    1     BDT   TS2   1      0
  3  TC5    1     BDT   TC3   1      0
  4  TC5    1     BDT   TC4   1      0

[ bonds ]
; i j funct length k
  1 2   1   0.456  1000
  2 4   1   0.313  1000
  3 1   1   0.313  1000
  3 4   1   0.167  1000
  1 4   1   0.417  1000

[ dihedrals ]
; improper
; i j k l funct ref.angle force_k
  1 2 4 3   2      0       250.0

[ exclusions ]
1 2 3 4
2 3 4
3 4
