Two BDT molecules
8
    1BDT    TS1    1  -0.005  -0.114  -0.231
    1BDT    TS2    2  -0.037   0.158  -0.273
    1BDT    TC3    3   0.160  -0.042  -0.009
    1BDT    TC4    4   0.155   0.125  -0.010
    2BDT    TS1    1   0.995  -0.114  -0.231
    2BDT    TS2    2   0.960   0.158  -0.273
    2BDT    TC3    3   1.160  -0.042  -0.009
    2BDT    TC4    4   1.155   0.125  -0.010
3 3 3
