; TLDR: PRODUCT ITP

; 1,3-Benzenedithiol dimer reaction product (only part of it)
[ moleculetype ]
; molname nrexcl
DIM 1

[ atoms ]
; id type resnr residue atom cgnr charge mass
  1  TC6    1     BDT   TS1   1      0
  2  TC6    1     BDT   TS1   1      0

[ bonds ]
; i j funct length k
  1 2   1   0.500  1000
; not a physical bond length, just for prototyping
