[moleculetype]
U 1
[atoms]
1 W 1 U U 1 0

#ifdef DAEMON
[graph]
name U
atom 1 U *

[graph]
name V
atom 1 V *

[graph]
name W
atom 1 W *

[graph]
name X
atom 1 X *

[graph]
name Y
atom 1 Y *

[graph]
name Z
atom 1 Z *

[reaction]
first
[reactant]
U
[condition]
rate 1
[rename]
1:1 V

[reaction]
second
[reactant]
V
[condition]
rate 5000
[rename]
1:1 W

[reaction]
third
[reactant]
W
[condition]
rate 1000
[rename]
1:1 X

[reaction]
fourth
[reactant]
W
[condition]
rate 500
[rename]
1:1 Y

[reaction]
fifth
[reactant]
Y
[condition]
rate 100
[rename]
1:1 Z
#endif
