#include "/home/linus/forcefields/martini-forcefields-main/martini_forcefields/regular/v3.0.0/gmx_files/martini_v3.0.0.itp"
#include "/home/linus/forcefields/martini-forcefields-main/martini_forcefields/regular/v3.0.0/gmx_files/martini_v3.0.0_ions_v1.itp"
#include "/home/linus/forcefields/martini-forcefields-main/martini_forcefields/regular/v3.0.0/gmx_files/martini_v3.0.0_solvents_v1.itp"
#include "LIG.itp"

[ system ] 
Test 

[ molecules ]
LIG 1 
