t=25000.0 ps
400
    1CLF    CLF    1   0.054   3.210   2.431  0.1104  0.0385  0.0266
    2CLF    CLF    2   1.397   2.961   1.415  0.0391 -0.0647 -0.2692
    3CLF    CLF    3   0.593   2.288   0.431 -0.2784  0.0811  0.5215
    4CLF    CLF    4   2.009   3.070   0.519  0.1065 -0.2397 -0.4782
    5CLF    CLF    5   0.922   1.414   1.865  0.0883 -0.3055  0.0306
    6CLF    CLF    6   0.944   2.323   0.070  0.3053 -0.0518  0.1104
    7CLF    CLF    7   1.048   0.612   2.740 -0.3649 -0.2211 -0.1958
    8CLF    CLF    8   1.647   2.118   1.492  0.0806 -0.3414 -0.2802
    9CLF    CLF    9   1.984   0.305   2.594  0.0077 -0.0352 -0.4033
   10CLF    CLF   10   1.672   2.887   2.462  0.2428  0.1641  0.2035
   11CLF    CLF   11   2.204   3.182   2.903  0.2032  0.0592  0.1793
   12CLF    CLF   12   1.813   3.746   1.561 -0.1915  0.0775  0.0423
   13CLF    CLF   13   1.383   3.444   1.542  0.0927 -0.2056 -0.1313
   14CLF    CLF   14   2.220   2.784   2.619  0.2140 -0.1703 -0.0370
   15CLF    CLF   15   2.175   1.119   0.439  0.2010 -0.0933 -0.2043
   16CLF    CLF   16   1.522   1.936   0.715 -0.0160  0.1795  0.4011
   17CLF    CLF   17   1.197   2.358   3.106 -0.0243 -0.2367 -0.1534
   18CLF    CLF   18   1.243   2.642   2.143 -0.0752 -0.2041 -0.0904
   19CLF    CLF   19   1.066   3.410   2.427  0.1971 -0.0567  0.2611
   20CLF    CLF   20   2.213   2.870   0.118 -0.2969  0.0651  0.0824
   21CLF    CLF   21   1.937   2.158   2.991 -0.0725 -0.1133 -0.0036
   22CLF    CLF   22   1.706   0.454   1.937 -0.4616 -0.0958 -0.1188
   23CLF    CLF   23   1.512   0.539   0.397 -0.0888  0.0413 -0.0184
   24CLF    CLF   24   0.053   0.102   0.858  0.2120  0.1894 -0.2602
   25CLF    CLF   25   3.015   3.149   2.686  0.0115 -0.2680 -0.2220
   26CLF    CLF   26   1.305   1.449   2.666  0.0721 -0.2410 -0.1070
   27CLF    CLF   27   2.090   2.151   2.460  0.0415 -0.1536 -0.1738
   28CLF    CLF   28   1.515   0.546   0.997 -0.0063 -0.0724 -0.1913
   29CLF    CLF   29   1.205   2.271   0.970  0.0349 -0.1503 -0.0625
   30CLF    CLF   30   1.432   0.852   3.467 -0.1270 -0.0673  0.1649
   31CLF    CLF   31   0.704   1.679   1.321  0.0750  0.4317  0.0272
   32CLF    CLF   32   1.945   1.230   1.248 -0.1749 -0.2515 -0.3943
   33CLF    CLF   33   1.378   0.999   2.497  0.3098  0.1766  0.2149
   34CLF    CLF   34   0.357   0.722   1.533 -0.1566 -0.0635  0.0477
   35CLF    CLF   35   1.327   1.052   1.898 -0.1984 -0.0041  0.3039
   36CLF    CLF   36   1.806   3.156   1.190 -0.1160 -0.2897 -0.0110
   37CLF    CLF   37   1.175   0.455   3.682  0.0625 -0.3833  0.1304
   38CLF    CLF   38   0.429   2.539   3.266 -0.1154  0.2177  0.1517
   39CLF    CLF   39   0.706   1.054   0.840 -0.1400  0.0551 -0.2454
   40CLF    CLF   40   1.086   1.774   0.404 -0.2159  0.3773  0.2544
   41CLF    CLF   41   1.676   1.405   0.444 -0.1790  0.0656  0.6295
   42CLF    CLF   42   1.848   1.228   2.677 -0.2155  0.0647  0.2630
   43CLF    CLF   43   1.910   2.099   3.702 -0.1004 -0.2937 -0.0259
   44CLF    CLF   44   2.127   2.700   0.954  0.3394  0.1663  0.1019
   45CLF    CLF   45   1.335   1.608   3.233 -0.1212 -0.0968 -0.1126
   46CLF    CLF   46   0.925   1.863   2.883 -0.2980 -0.1031 -0.1541
   47CLF    CLF   47   1.344   3.717   2.870 -0.0055 -0.0320  0.3306
   48CLF    CLF   48   1.813   0.988   0.766 -0.1054 -0.3301 -0.0205
   49CLF    CLF   49   0.722   3.007   0.369  0.1389  0.0499 -0.1511
   50CLF    CLF   50   1.685   1.591   1.561 -0.1468 -0.4045  0.1394
   51CLF    CLF   51   0.867   2.955   2.273  0.2382  0.1955  0.0762
   52CLF    CLF   52   2.011   2.995   3.354 -0.1454 -0.1694  0.1239
   53CLF    CLF   53   0.551   2.219   2.739 -0.0155 -0.0409 -0.0269
   54CLF    CLF   54   0.798   2.599   2.935  0.3087  0.0042 -0.0532
   55CLF    CLF   55   0.403   2.258   1.972  0.2710  0.0252  0.0328
   56CLF    CLF   56   1.934   2.521   3.473  0.2191 -0.0262 -0.2887
   57CLF    CLF   57   1.182   2.713   0.344 -0.0248  0.4078  0.2336
   58CLF    CLF   58   1.461   1.457   0.954  0.2639  0.1023 -0.4312
   59CLF    CLF   59   2.055   3.088   2.206  0.0798  0.1388  0.2634
   60CLF    CLF   60   0.450   1.745   0.362  0.1997 -0.3924 -0.0820
   61CLF    CLF   61   0.951   0.756   0.268 -0.0728  0.0802 -0.0452
   62CLF    CLF   62   0.702   0.119   1.444  0.0737  0.3338  0.0848
   63CLF    CLF   63   1.351   3.277   0.371 -0.0027 -0.0674 -0.0783
   64CLF    CLF   64   0.393   2.940   1.737 -0.1133 -0.1950 -0.1241
   65CLF    CLF   65   0.383   0.539   0.806 -0.2124  0.0264  0.2111
   66CLF    CLF   66   0.160   2.187   2.422  0.0999  0.0434  0.0834
   67CLF    CLF   67   0.915   2.686   3.446  0.0078 -0.0379 -0.0834
   68CLF    CLF   68   1.874   3.540   2.764  0.0885 -0.2138 -0.0260
   69CLF    CLF   69   0.682   2.499   2.384  0.0187 -0.1377 -0.0479
   70CLF    CLF   70   0.912   0.236   0.262 -0.1501 -0.0908  0.0887
   71CLF    CLF   71   0.384   0.383   1.972 -0.0531  0.0883  0.0554
   72CLF    CLF   72   0.489   3.698   1.024 -0.0642 -0.0861 -0.0309
   73CLF    CLF   73   0.900   2.785   1.325  0.4466  0.0202 -0.2809
   74CLF    CLF   74   0.257   2.986   2.900 -0.1011 -0.1136  0.0672
   75CLF    CLF   75   1.151   3.253   3.219 -0.1555 -0.0215 -0.3245
   76CLF    CLF   76   1.917   1.620   3.527 -0.1081 -0.0068 -0.0154
   77CLF    CLF   77   0.725   0.969   1.984  0.0426  0.1812 -0.0594
   78CLF    CLF   78   1.174   1.868   1.552  0.3654  0.0420  0.1292
   79CLF    CLF   79   2.493   1.869   0.643 -0.0797 -0.2430  0.1725
   80CLF    CLF   80   1.624   3.418   2.248  0.4133 -0.3456 -0.0697
   81CLF    CLF   81   0.648   2.130   1.050  0.0940 -0.2774  0.0095
   82CLF    CLF   82   0.895   3.078   2.857 -0.0874  0.1172 -0.2455
   83CLF    CLF   83   1.332   2.502   1.630 -0.2226 -0.1657 -0.0336
   84CLF    CLF   84   1.039   3.063   3.727  0.1923 -0.0618 -0.0369
   85CLF    CLF   85   0.965   1.190   2.347 -0.0636 -0.2092  0.2439
   86CLF    CLF   86   1.647   2.271   0.354 -0.0505 -0.0761 -0.0618
   87CLF    CLF   87   1.279   0.552   2.099 -0.0042 -0.0208  0.2493
   88CLF    CLF   88   1.944   1.945   2.007  0.2898 -0.0997 -0.0211
   89CLF    CLF   89   1.248   3.171   1.995  0.1655 -0.0829  0.0558
   90CLF    CLF   90   0.986   0.742   3.210 -0.4400 -0.1715 -0.0963
   91CLF    CLF   91   1.158   0.821   0.766 -0.1232 -0.0364 -0.2157
   92CLF    CLF   92   1.567   0.565   2.648  0.1353 -0.1037  0.0807
   93CLF    CLF   93   2.018   2.562   2.191  0.0294 -0.2980  0.2498
   94CLF    CLF   94   1.843   0.794   3.011 -0.1449  0.2074 -0.0469
   95CLF    CLF   95   1.706   2.712   0.208 -0.1149 -0.2209 -0.1373
   96CLF    CLF   96   1.537   1.774   2.354 -0.4342  0.0970 -0.0876
   97CLF    CLF   97   1.355   1.145   3.079  0.1430 -0.0315  0.2855
   98CLF    CLF   98   1.456   1.382   3.614 -0.1015 -0.2917  0.1362
   99CLF    CLF   99   1.481   0.071   3.379 -0.1008 -0.2333  0.2119
  100CLF    CLF  100   1.442   1.946   2.898 -0.0450 -0.1276  0.1112
  101CLF    CLF  101   1.417   2.457   3.608 -0.1861  0.2030 -0.1734
  102CLF    CLF  102   1.992   1.969   0.615 -0.1483 -0.2387 -0.1738
  103CLF    CLF  103   0.737   1.565   3.293 -0.1596  0.2592 -0.4415
  104CLF    CLF  104   1.502   1.017   1.220  0.0546  0.2143  0.1359
  105CLF    CLF  105   2.201   0.200   0.269  0.1387  0.0700 -0.4037
  106CLF    CLF  106   0.815   0.500   1.768 -0.1747 -0.0048 -0.2141
  107CLF    CLF  107   1.567   3.456   3.682  0.0618 -0.0478  0.0565
  108CLF    CLF  108   0.781   2.317   1.505 -0.3259  0.0326  0.0049
  109CLF    CLF  109   0.928   2.261   2.010 -0.2666 -0.0155  0.0126
  110CLF    CLF  110   0.584   3.265   1.306  0.1389 -0.2136 -0.0707
  111CLF    CLF  111   0.917   3.467   1.738 -0.1021  0.1261  0.2405
  112CLF    CLF  112   1.728   1.025   1.686 -0.1946  0.1460 -0.0680
  113CLF    CLF  113   0.698   1.873   1.807  0.2228  0.1720 -0.1873
  114CLF    CLF  114   1.450   0.496   3.121 -0.0397 -0.0100  0.1112
  115CLF    CLF  115   0.810   1.548   0.835 -0.1478 -0.0594 -0.1067
  116CLF    CLF  116   0.966   0.260   3.161 -0.2662 -0.0470  0.0996
  117CLF    CLF  117   1.224   0.716   1.528  0.1101 -0.0380 -0.0370
  118CLF    CLF  118   2.087   1.524   0.817  0.1675 -0.2396  0.0335
  119CLF    CLF  119   1.662   2.718   1.888 -0.1118  0.2382 -0.1028
  120CLF    CLF  120   0.483   0.452   3.376 -0.2959  0.0694  0.0371
  121CLF    CLF  121   1.817   1.623   3.024 -0.1009  0.4121  0.0285
  122CLF    CLF  122   0.099   1.876   0.998 -0.2355 -0.0376  0.0243
  123CLF    CLF  123   1.768   0.540   3.567 -0.2006  0.0013  0.0558
  124CLF    CLF  124   1.595   2.039   3.314 -0.0702 -0.1698 -0.2431
  125CLF    CLF  125   2.280   1.289   3.703 -0.0034  0.0856  0.1799
  126CLF    CLF  126   0.156   0.807   2.668  0.0750  0.2842  0.0043
  127CLF    CLF  127   0.689   3.567   3.453 -0.0563 -0.0607 -0.0259
  128CLF    CLF  128   0.659   3.104   3.324 -0.1724 -0.2152  0.3277
  129CLF    CLF  129   1.603   1.789   0.122  0.1697 -0.2638 -0.1821
  130CLF    CLF  130   2.150   3.687   0.718  0.1866  0.0915  0.1112
  131CLF    CLF  131   1.874   0.237   3.102 -0.0760  0.1252 -0.2805
  132CLF    CLF  132   0.854   2.754   1.804  0.0978  0.1471 -0.1049
  133CLF    CLF  133   1.529   2.881   0.697  0.0626 -0.2047  0.0978
  134CLF    CLF  134   1.836   0.521   1.469  0.0451  0.2010  0.1181
  135CLF    CLF  135   1.626   2.396   2.615 -0.0446  0.1084 -0.1900
  136CLF    CLF  136   0.616   0.351   2.835 -0.2544  0.2127  0.1219
  137CLF    CLF  137   3.639   2.672   1.225 -0.0212  0.2424 -0.3463
  138CLF    CLF  138   1.832   1.848   1.107  0.1014 -0.0367 -0.3858
  139CLF    CLF  139   1.686   0.104   0.745 -0.0807 -0.1207 -0.0035
  140CLF    CLF  140   2.048   3.489   0.227  0.0532 -0.0480 -0.1501
  141CLF    CLF  141   1.767   1.067   0.066 -0.1368  0.0575  0.0844
  142CLF    CLF  142   0.776   0.522   2.330 -0.0982  0.0593 -0.1601
  143CLF    CLF  143   1.568   1.394   2.108 -0.1142  0.2401  0.1195
  144CLF    CLF  144   1.411   3.189   2.737 -0.0968 -0.3664  0.1439
  145CLF    CLF  145   0.325   2.674   0.569 -0.1619 -0.0668 -0.2504
  146CLF    CLF  146   1.736   2.299   0.940  0.2510 -0.0397  0.0814
  147CLF    CLF  147   1.010   1.811   3.671 -0.0117 -0.1850 -0.1525
  148CLF    CLF  148   1.230   3.712   0.627 -0.1523  0.1451  0.0475
  149CLF    CLF  149   2.305   1.873   3.482 -0.0809  0.2147 -0.0784
  150CLF    CLF  150   2.182   2.510   0.449  0.0668  0.3640 -0.0713
  151CLF    CLF  151   1.474   0.051   1.943 -0.0046  0.1776  0.2275
  152CLF    CLF  152   1.167   1.251   0.354 -0.2017 -0.0892 -0.3269
  153CLF    CLF  153   1.171   2.252   0.458  0.0830  0.0589  0.1425
  154CLF    CLF  154   0.564   1.428   2.213 -0.0622  0.0854 -0.0748
  155CLF    CLF  155   1.381   2.828   3.128  0.0982 -0.0462 -0.0678
  156CLF    CLF  156   1.811   3.201   1.707  0.2730 -0.2276  0.0561
  157CLF    CLF  157   1.140   2.227   2.534 -0.3839 -0.0916  0.1142
  158CLF    CLF  158   0.263   0.968   2.183  0.0528  0.2107 -0.0185
  159CLF    CLF  159   0.224   1.723   1.609  0.0689  0.0938  0.3239
  160CLF    CLF  160   1.250   2.727   2.656  0.2908  0.1823  0.1770
  161CLF    CLF  161   3.684   2.975   0.768 -0.0779 -0.2978 -0.0332
  162CLF    CLF  162   0.022   3.120   1.432  0.0268  0.2339  0.2644
  163CLF    CLF  163   2.102   1.625   0.250 -0.0608  0.1421  0.1418
  164CLF    CLF  164   0.996   0.072   2.113  0.1363  0.0353 -0.0321
  165CLF    CLF  165   1.267   0.097   1.306 -0.0075  0.0558 -0.3073
  166CLF    CLF  166   1.799   1.196   3.334 -0.0616 -0.0901  0.2161
  167CLF    CLF  167   0.867   1.078   1.511  0.0324  0.1403  0.0349
  168CLF    CLF  168   0.537   3.159   2.538  0.0239  0.2633 -0.0648
  169CLF    CLF  169   3.672   0.405   1.908  0.0158 -0.1114  0.2322
  170CLF    CLF  170   1.355   0.163   2.423 -0.2321  0.0752  0.2597
  171CLF    CLF  171   0.816   2.598   0.817 -0.0159 -0.1277 -0.0217
  172CLF    CLF  172   1.534   2.234   2.075  0.1905  0.4241 -0.0366
  173CLF    CLF  173   1.970   0.514   0.635  0.1340  0.2163  0.0149
  174CLF    CLF  174   0.522   0.947   3.524  0.0667 -0.0051  0.2554
  175CLF    CLF  175   0.271   2.349   1.418  0.1266  0.2319  0.0513
  176CLF    CLF  176   2.248   2.217   1.044 -0.1284 -0.2567  0.4515
  177CLF    CLF  177   1.065   3.376   1.166  0.1832  0.0285  0.1829
  178CLF    CLF  178   0.566   3.552   0.293  0.1596  0.2330 -0.2659
  179CLF    CLF  179   0.358   1.254   1.748 -0.0718  0.2156  0.1489
  180CLF    CLF  180   1.260   1.346   1.512 -0.0749  0.0500  0.2586
  181CLF    CLF  181   0.898   1.157   2.893 -0.0903 -0.1444 -0.0001
  182CLF    CLF  182   2.011   0.167   1.118 -0.0895  0.1424  0.2643
  183CLF    CLF  183   0.838   3.552   2.920  0.0258 -0.0131  0.1625
  184CLF    CLF  184   0.246   2.778   2.164 -0.2458 -0.3651 -0.3020
  185CLF    CLF  185   1.623   0.106   0.218  0.1072 -0.1259  0.3589
  186CLF    CLF  186   1.068   3.567   0.068 -0.1201  0.0731 -0.0052
  187CLF    CLF  187   1.860   2.705   2.980  0.1565 -0.0471  0.0074
  188CLF    CLF  188   0.928   1.229   3.556 -0.2390  0.1794  0.0537
  189CLF    CLF  189   0.747   3.327   0.733  0.0653 -0.0754  0.2437
  190CLF    CLF  190   1.036   1.784   2.201  0.1447  0.1415  0.1977
  191CLF    CLF  191   0.819   2.178   3.359 -0.0907  0.1475  0.1526
  192CLF    CLF  192   0.342   2.802   1.230 -0.0663  0.3198 -0.0797
  193CLF    CLF  193   1.603   2.964   3.595  0.0249 -0.1211  0.3511
  194CLF    CLF  194   1.030   0.331   0.860  0.2034  0.0926 -0.2802
  195CLF    CLF  195   0.443   0.396   0.149 -0.1000  0.1689 -0.3365
  196CLF    CLF  196   1.764   2.655   1.285  0.1533 -0.3378  0.2938
  197CLF    CLF  197   0.431   2.461   0.020 -0.1866  0.0456 -0.0505
  198CLF    CLF  198   0.707   0.649   1.209 -0.1429  0.0130  0.4230
  199CLF    CLF  199   1.650   3.365   3.223 -0.0347 -0.0297  0.2011
  200CLF    CLF  200   0.016   3.698   2.780  0.0092  0.2748 -0.1768
  201W        W  201   0.460   3.297   2.039  0.3296  0.0191 -0.1931
  202W        W  202   2.771   2.550   1.186  0.1720  0.1436 -0.0574
  203W        W  203   3.362   0.899   0.929  0.0305  0.0769 -0.0551
  204W        W  204   2.814   2.470   1.771  0.1104 -0.0545 -0.0115
  205W        W  205   2.933   1.655   0.706 -0.2211  0.0517 -0.0855
  206W        W  206   2.440   3.258   0.652  0.1799 -0.0760 -0.2182
  207W        W  207   0.062   2.622   2.633  0.3039  0.1238 -0.2250
  208W        W  208   2.932   0.934   2.894  0.2290 -0.0513  0.1331
  209W        W  209   0.057   2.247   3.040  0.0026  0.1542  0.0901
  210W        W  210   0.536   1.763   2.599  0.0443  0.2080  0.2284
  211W        W  211   2.308   0.906   1.081 -0.0153 -0.0196 -0.0506
  212W        W  212   2.382   0.463   2.008 -0.0454 -0.3270 -0.2178
  213W        W  213   2.317   0.057   2.828 -0.1680  0.1723  0.0484
  214W        W  214   3.519   2.012   0.642 -0.0026 -0.1548  0.2175
  215W        W  215   2.556   1.303   0.938  0.1018 -0.0397  0.1177
  216W        W  216   3.563   2.469   2.264  0.2804  0.0170  0.2363
  217W        W  217   0.449   1.296   0.105  0.1331  0.0843 -0.5108
  218W        W  218   0.070   1.240   3.020 -0.0672  0.2713  0.0452
  219W        W  219   3.102   2.216   2.286  0.3576  0.1986 -0.3241
  220W        W  220   2.543   0.921   2.183 -0.0346 -0.2579  0.1857
  221W        W  221   3.367   0.070   2.078 -0.0227 -0.0316 -0.0222
  222W        W  222   2.527   1.957   2.876 -0.1100  0.0043  0.1397
  223W        W  223   2.367   2.796   1.960 -0.3792  0.1578  0.1009
  224W        W  224   3.663   0.967   1.630  0.4008 -0.0450 -0.1303
  225W        W  225   3.003   1.110   0.554 -0.0414 -0.0382 -0.3199
  226W        W  226   0.087   0.953   0.064  0.1121  0.2891  0.0997
  227W        W  227   3.613   0.442   0.634  0.1107  0.3043  0.0759
  228W        W  228   3.414   2.960   2.537  0.2400  0.3490  0.1188
  229W        W  229   2.691   2.911   2.299  0.1682  0.3239  0.1854
  230W        W  230   2.880   0.302   2.031  0.3287  0.0081  0.0709
  231W        W  231   2.974   1.560   2.258 -0.0854  0.2783  0.1753
  232W        W  232   2.558   1.886   2.372 -0.2115  0.0035  0.1751
  233W        W  233   2.604   1.298   0.379  0.3815  0.1983 -0.1802
  234W        W  234   2.866   2.708   3.157  0.1227 -0.1771 -0.1573
  235W        W  235   3.306   1.773   1.099 -0.0742  0.0052  0.0291
  236W        W  236   2.106   1.357   2.094 -0.0346 -0.0127 -0.1537
  237W        W  237   2.369   0.463   1.450 -0.1197  0.2880  0.3359
  238W        W  238   2.857   1.628   0.172  0.1447  0.3022  0.2240
  239W        W  239   3.354   2.176   2.804  0.1107  0.0663  0.1654
  240W        W  240   3.411   0.771   3.566 -0.2053 -0.2479 -0.5326
  241W        W  241   0.142   2.244   0.319 -0.1377  0.2082 -0.0837
  242W        W  242   2.384   3.398   3.317  0.0876 -0.0493  0.0128
  243W        W  243   2.699   2.573   3.751 -0.1112  0.2370  0.2286
  244W        W  244   3.174   3.203   2.179  0.1170 -0.1647 -0.0961
  245W        W  245   3.414   0.381   2.614  0.4032 -0.2270 -0.2749
  246W        W  246   2.284   1.489   3.158  0.1154  0.0497  0.2705
  247W        W  247   2.413   0.535   3.070 -0.0989  0.1595  0.1153
  248W        W  248   2.584   3.638   0.398  0.4614  0.0326  0.0728
  249W        W  249   0.046   2.336   0.892  0.1193 -0.0540 -0.0763
  250W        W  250   0.160   0.374   2.466 -0.0795  0.0959 -0.0340
  251W        W  251   3.499   3.713   0.011 -0.0558 -0.1712  0.2303
  252W        W  252   2.548   0.872   0.637 -0.4289 -0.1999 -0.3811
  253W        W  253   2.636   0.384   0.401  0.0293 -0.0163 -0.0163
  254W        W  254   2.714   3.348   2.983 -0.1241  0.1200  0.1130
  255W        W  255   3.507   3.212   2.936  0.0192  0.2513 -0.1344
  256W        W  256   2.987   1.859   2.650  0.0492 -0.3974 -0.0184
  257W        W  257   2.542   3.250   0.100 -0.0162  0.1632  0.1068
  258W        W  258   2.473   1.638   1.871 -0.1980  0.0785 -0.0017
  259W        W  259   3.156   2.719   2.055 -0.0372 -0.1285  0.0510
  260W        W  260   3.083   2.983   1.201 -0.2531  0.1078  0.0071
  261W        W  261   3.335   1.134   2.046  0.0388  0.1139  0.0544
  262W        W  262   3.604   1.351   3.559 -0.0132  0.0460 -0.1740
  263W        W  263   2.877   0.420   2.751 -0.3745 -0.0541 -0.1430
  264W        W  264   3.225   2.692   1.520  0.4662  0.2291  0.1269
  265W        W  265   2.780   2.952   1.660  0.0466  0.0164  0.1519
  266W        W  266   3.476   0.868   0.391  0.0426  0.0892  0.0074
  267W        W  267   2.760   2.041   1.025 -0.1952  0.1305  0.0871
  268W        W  268   2.983   2.766   0.743  0.2771  0.0576 -0.2040
  269W        W  269   2.588   0.090   1.712  0.1047 -0.0200 -0.1108
  270W        W  270   3.738   1.761   3.249  0.0666  0.2353 -0.0518
  271W        W  271   3.279   0.639   1.890 -0.2197  0.1693 -0.0265
  272W        W  272   3.209   0.316   0.358 -0.0941  0.2633  0.3622
  273W        W  273   3.168   1.238   1.551  0.1023  0.3344 -0.1426
  274W        W  274   2.494   1.415   2.388 -0.1546  0.0901 -0.1227
  275W        W  275   2.530   2.947   3.497  0.3611  0.3570  0.1052
  276W        W  276   3.041   2.611   2.561 -0.1309  0.1374  0.2311
  277W        W  277   2.969   0.699   3.328  0.0556  0.0913 -0.0673
  278W        W  278   2.762   1.138   3.365  0.2186 -0.2099  0.2890
  279W        W  279   1.589   3.301   0.840  0.0072  0.0932 -0.2241
  280W        W  280   2.615   3.668   1.015 -0.1636  0.0314 -0.1703
  281W        W  281   3.674   2.779   0.160  0.0756 -0.0298 -0.0268
  282W        W  282   2.245   3.408   1.160 -0.0725 -0.1636  0.0305
  283W        W  283   3.091   3.586   3.365 -0.1762  0.2717 -0.2948
  284W        W  284   3.759   1.856   0.023  0.1911 -0.0855  0.0366
  285W        W  285   3.313   1.746   1.615  0.2648  0.1869 -0.0190
  286W        W  286   3.568   3.565   1.726  0.0893 -0.0336  0.1316
  287W        W  287   2.284   3.151   1.579 -0.0136  0.0909  0.2105
  288W        W  288   3.694   3.738   1.274 -0.1856 -0.0551  0.1258
  289W        W  289   3.432   2.323   0.136  0.1809  0.1629 -0.0184
  290W        W  290   2.947   2.203   3.119  0.0208 -0.0717 -0.2412
  291W        W  291   3.054   2.210   0.478 -0.1990 -0.1442 -0.1157
  292W        W  292   0.191   1.751   2.211  0.2009  0.1191  0.0446
  293W        W  293   3.752   1.813   2.762 -0.2141  0.3101  0.0869
  294W        W  294   3.453   3.507   2.514  0.4361 -0.0937 -0.0065
  295W        W  295   2.592   3.334   2.518  0.0615 -0.1747  0.1159
  296W        W  296   3.738   1.352   2.508  0.2469 -0.0462  0.1034
  297W        W  297   0.317   1.437   3.453  0.0463 -0.1899  0.2490
  298W        W  298   3.313   0.273   1.054 -0.1517 -0.1055  0.1485
  299W        W  299   2.540   2.430   2.573 -0.0863 -0.1588 -0.1976
  300W        W  300   3.012   3.648   2.364 -0.2320 -0.1205 -0.0383
  301W        W  301   0.029   2.532   1.803 -0.0498  0.1644 -0.0179
  302W        W  302   3.009   0.640   0.718  0.0412  0.0544 -0.1610
  303W        W  303   3.224   0.775   1.361 -0.0814 -0.1939  0.2605
  304W        W  304   2.484   0.608   2.553  0.2710  0.0171  0.0372
  305W        W  305   3.230   1.183   3.294  0.0702 -0.1201  0.2482
  306W        W  306   2.479   0.399   0.879  0.1200 -0.0665 -0.2136
  307W        W  307   0.446   1.961   3.116 -0.2642 -0.0319 -0.0131
  308W        W  308   3.103   3.610   1.243 -0.3979  0.0236 -0.1437
  309W        W  309   3.647   3.009   1.989 -0.1034  0.1395  0.2075
  310W        W  310   2.840   1.723   1.435  0.4349  0.2331  0.2035
  311W        W  311   3.464   3.679   0.558  0.2785 -0.3340 -0.0746
  312W        W  312   3.126   2.675   0.181 -0.1993  0.4097 -0.1507
  313W        W  313   2.970   1.916   1.914  0.2344 -0.0105  0.2185
  314W        W  314   2.963   3.107   3.641 -0.2981 -0.2130  0.0380
  315W        W  315   2.714   1.476   2.867 -0.1435  0.0518  0.2215
  316W        W  316   2.989   3.630   1.778 -0.1145 -0.0820  0.1874
  317W        W  317   3.424   2.118   3.347 -0.2383  0.2239  0.1418
  318W        W  318   3.375   1.428   0.671 -0.0942 -0.1134 -0.1186
  319W        W  319   3.458   0.787   3.003  0.0375  0.1248 -0.2232
  320W        W  320   2.096   1.686   2.505  0.1971  0.0265  0.2534
  321W        W  321   2.611   2.880   0.408  0.0050 -0.1629  0.2600
  322W        W  322   0.111   3.627   2.167 -0.1815 -0.0410  0.0735
  323W        W  323   2.926   0.127   0.724 -0.2526  0.0065 -0.1516
  324W        W  324   2.671   2.387   0.664  0.1715 -0.0856  0.1589
  325W        W  325   2.814   1.257   1.938 -0.1895 -0.3737 -0.1648
  326W        W  326   3.356   2.295   1.821 -0.0478  0.1175 -0.2237
  327W        W  327   3.577   2.064   1.352  0.1824  0.0255  0.0069
  328W        W  328   2.813   0.839   1.709  0.1184 -0.3655 -0.1408
  329W        W  329   2.471   2.140   1.560 -0.1019 -0.1931 -0.1451
  330W        W  330   0.196   3.512   3.697  0.3205 -0.1048  0.0772
  331W        W  331   3.028   2.219   3.622 -0.2174 -0.1781 -0.0781
  332W        W  332   3.464   1.864   2.278  0.3749 -0.0420 -0.1288
  333W        W  333   3.277   0.202   1.576 -0.0342  0.2295 -0.0303
  334W        W  334   0.346   2.999   3.742 -0.0751  0.0507  0.0445
  335W        W  335   0.578   0.809   2.974 -0.1441 -0.2703  0.0283
  336W        W  336   0.337   1.479   0.809  0.0489 -0.1704 -0.1871
  337W        W  337   2.307   0.927   3.364  0.0112  0.0790 -0.0201
  338W        W  338   3.712   0.574   1.284 -0.2520  0.3151 -0.0679
  339W        W  339   3.252   3.065   3.279  0.2259  0.3574 -0.2606
  340W        W  340   3.531   3.260   3.609 -0.1150 -0.1940 -0.2544
  341W        W  341   2.466   2.139   0.190 -0.2891 -0.1075 -0.1998
  342W        W  342   0.337   3.499   3.098 -0.0490  0.3139  0.0392
  343W        W  343   0.082   0.741   3.321 -0.2107  0.1024 -0.0098
  344W        W  344   0.009   2.440   3.572 -0.0454 -0.0929 -0.0217
  345W        W  345   2.388   1.696   1.163  0.0515  0.0280 -0.0385
  346W        W  346   2.792   1.747   3.354 -0.0500  0.1920 -0.0231
  347W        W  347   3.043   2.171   1.415  0.0133  0.1708  0.0007
  348W        W  348   2.619   3.316   2.012  0.0156  0.0389 -0.2410
  349W        W  349   3.459   0.895   2.486 -0.1313  0.0395 -0.1767
  350W        W  350   2.326   2.614   1.511  0.0247 -0.1268 -0.1909
  351W        W  351   3.267   1.725   3.030 -0.1793 -0.1851 -0.1132
  352W        W  352   3.016   0.751   0.124 -0.0146 -0.0927  0.0544
  353W        W  353   0.472   1.990   3.657 -0.0556 -0.2001  0.3551
  354W        W  354   0.024   1.102   0.736  0.2397 -0.0929 -0.2781
  355W        W  355   3.221   1.711   3.561  0.0310  0.1198 -0.2802
  356W        W  356   3.325   1.769   0.268 -0.0857 -0.2361  0.2635
  357W        W  357   3.647   0.440   0.124 -0.0402  0.1316 -0.0624
  358W        W  358   2.399   1.080   2.805 -0.1632  0.0067  0.1206
  359W        W  359   3.721   1.441   0.295  0.2381  0.2931  0.1279
  360W        W  360   2.521   0.462   3.553  0.1885  0.0897  0.1802
  361W        W  361   2.517   2.989   1.119 -0.1921 -0.0952 -0.1905
  362W        W  362   3.663   1.497   1.875 -0.1704 -0.1810 -0.0628
  363W        W  363   0.049   0.215   3.454 -0.1137 -0.2286  0.1839
  364W        W  364   2.466   0.798   0.144  0.2438 -0.1200 -0.0692
  365W        W  365   2.955   1.097   2.414 -0.0504 -0.2447  0.1203
  366W        W  366   3.314   2.558   3.430 -0.0097 -0.0762 -0.0508
  367W        W  367   3.594   3.635   3.228  0.0371 -0.2556 -0.1501
  368W        W  368   3.343   3.116   0.358 -0.0421  0.0110 -0.1843
  369W        W  369   0.470   1.170   2.666  0.0996 -0.2166 -0.2487
  370W        W  370   0.024   3.342   0.388 -0.0237 -0.0859  0.2777
  371W        W  371   0.320   3.724   1.666  0.0471  0.1784  0.1597
  372W        W  372   2.388   2.474   3.086  0.0027  0.0274  0.2250
  373W        W  373   2.288   0.927   1.646  0.0891  0.0199  0.1581
  374W        W  374   3.372   0.381   3.248  0.0612 -0.4836 -0.0922
  375W        W  375   2.701   3.419   1.455 -0.2166 -0.0897  0.0321
  376W        W  376   2.410   2.253   2.066  0.1595  0.1511 -0.1703
  377W        W  377   3.164   3.751   2.895 -0.0839  0.2304 -0.1171
  378W        W  378   3.518   2.665   2.992  0.2843 -0.5328  0.1694
  379W        W  379   3.217   1.334   2.766 -0.1713  0.1584  0.1323
  380W        W  380   0.145   0.056   0.365  0.0460 -0.0081 -0.0853
  381W        W  381   3.027   3.521   0.130  0.1743 -0.1204  0.1695
  382W        W  382   3.278   2.375   1.040 -0.0144 -0.0584  0.0342
  383W        W  383   2.015   0.023   3.571  0.0494 -0.3143  0.1045
  384W        W  384   2.596   1.292   1.484  0.2807  0.2169 -0.3056
  385W        W  385   2.684   3.691   3.581  0.1918 -0.2606  0.0015
  386W        W  386   3.733   2.935   3.336 -0.0710  0.0476 -0.1430
  387W        W  387   0.078   0.395   2.967  0.3017 -0.0329 -0.0794
  388W        W  388   2.734   0.107   3.130  0.0883 -0.1490  0.0240
  389W        W  389   3.015   1.307   1.060  0.1510  0.0176  0.0469
  390W        W  390   0.418   0.809   0.411  0.1493 -0.2346  0.4824
  391W        W  391   3.472   2.551   0.566  0.0353  0.1214 -0.0740
  392W        W  392   2.835   0.339   1.238 -0.1416  0.2753 -0.2894
  393W        W  393   3.664   1.340   1.313 -0.0593  0.4541  0.0572
  394W        W  394   2.948   3.370   0.683 -0.0373  0.2163 -0.3526
  395W        W  395   3.258   1.274   0.165 -0.2304 -0.3926 -0.1308
  396W        W  396   2.449   0.017   2.257  0.1078 -0.0828 -0.0373
  397W        W  397   3.063   0.279   3.609  0.1225 -0.0837  0.0178
  398W        W  398   3.492   3.311   1.032 -0.1118  0.0861  0.2552
  399W        W  399   2.793   0.882   1.185  0.0926 -0.0181 -0.2051
  400W        W  400   3.218   3.176   1.687 -0.0321 -0.0147  0.1050
3.7630 3.7630 3.7630 0.0000 0.0000 0.0000 0.0000 0.0000 0.0000
