t=20000.0 ps
11148
    1COH    COH    1   2.233   0.914   6.372  0.2067  0.2078 -0.0194
    2COC    COC    2   2.065   1.026   6.558 -0.0669  0.1530  0.1185
    3COC    COC    3   2.054   1.010   6.892  0.1126 -0.1900  0.3705
    4COC    COC    4   1.785   0.909   7.014  0.5827 -0.2583  0.4726
    5COC    COC    5   1.496   0.942   7.029 -0.0388  0.2205  0.0211
    6COC    COC    6   1.370   1.054   7.275  0.3394 -0.2254 -0.0879
    7COC    COC    7   1.519   0.901   7.545  0.3803 -0.0343  0.1904
    8COC    COC    8   1.647   0.604   7.510  0.1346  0.2773  0.2202
    9COC    COC    9   1.655   0.533   7.167  0.1960  0.0535 -0.2653
   10COC    COC   10   1.559   0.536   6.881 -0.0903  0.3028  0.3295
   11COC    COC   11   1.448   0.739   6.688  0.2077 -0.0107 -0.2044
   12COC    COC   12   1.665   0.866   6.594 -0.1773 -0.2254  0.1116
   13COC    COC   13   1.598   0.999   6.333  0.2076  0.0577  0.0914
   14COC    COC   14   1.615   1.329   6.226 -0.2162  0.3909  0.0197
   15COC    COC   15   1.758   1.541   6.002 -0.2011  0.1753 -0.4806
   16COC    COC   16   2.015   1.509   6.031  0.2654 -0.0357 -0.0913
   17COC    COC   17   2.141   1.682   5.792  0.4452 -0.1805  0.2530
   18COC    COC   18   2.106   1.612   5.487  0.2747 -0.0899  0.1177
   19COC    COC   19   2.217   1.405   5.342 -0.1797 -0.2242  0.1685
   20COC    COC   20   2.015   1.185   5.301 -0.2259  0.1427 -0.0234
   21COC    COC   21   2.066   1.045   5.574  0.1538  0.2187 -0.0538
   22COC    COC   22   2.113   0.753   5.549  0.2814  0.2720 -0.0660
   23COC    COC   23   2.002   0.521   5.374  0.2077 -0.2696 -0.0430
   24COC    COC   24   2.174   0.271   5.396  0.1882 -0.1016  0.1744
   25COC    COC   25   2.342   0.070   5.204 -0.2563 -0.3447  0.3798
   26COC    COC   26   2.403   0.090   4.897 -0.4776 -0.2058  0.2320
   27COC    COC   27   2.628  10.274   4.713 -0.1079 -0.1368 -0.1840
   28COC    COC   28   2.569  10.179   4.415 -0.2110 -0.2039 -0.2599
   29COC    COC   29   2.439   9.904   4.411  0.2719  0.0069 -0.4940
   30COC    COC   30   2.208  10.063   4.293 -0.1293 -0.4235  0.0011
   31COC    COC   31   2.187  10.035   3.975  0.1774 -0.1318  0.3434
   32COC    COC   32   1.889  10.035   3.926 -0.0687  0.2737  0.4916
   33COC    COC   33   1.703   9.991   3.675  0.0237  0.4509  0.0044
   34COC    COC   34   1.625  10.260   3.485 -0.0593  0.1862 -0.1358
   35COC    COC   35   1.725   0.213   3.492 -0.2547 -0.1922  0.1241
   36COC    COC   36   1.830   0.296   3.769 -0.1512 -0.4952 -0.1120
   37COC    COC   37   2.079   0.459   3.892 -0.4562  0.4792  0.2662
   38COC    COC   38   1.916   0.617   4.052 -0.0933  0.3422  0.2751
   39COC    COC   39   1.750   0.843   3.912  0.0806 -0.1179  0.1804
   40COC    COC   40   1.562   1.054   3.937  0.2680 -0.2223 -0.2174
   41COC    COC   41   1.717   1.312   4.022  0.2861 -0.0134  0.0852
   42COC    COC   42   1.534   1.467   3.934 -0.2056 -0.1429  0.3406
   43COC    COC   43   1.448   1.761   4.004 -0.2780  0.2054  0.4315
   44COC    COC   44   1.437   1.886   4.255 -0.1983 -0.0298 -0.0036
   45COC    COC   45   1.304   1.658   4.430  0.0368 -0.2300  0.0610
   46COH    COH   46   1.462   1.490   4.319  0.0544  0.5521 -0.2837
   47COH    COH   47   0.354   5.173   0.590  0.8336  0.0009 -0.1822
   48COC    COC   48   0.446   4.984   0.704  0.3173  0.5562  0.0038
   49COC    COC   49   0.624   4.961   0.980 -0.1291 -0.1910 -0.5188
   50COC    COC   50   0.798   5.208   0.963 -0.0097 -0.1412  0.2014
   51COC    COC   51   1.024   5.082   0.797 -0.0945  0.0421 -0.2691
   52COC    COC   52   1.304   5.193   0.884 -0.2344 -0.2472 -0.4032
   53COC    COC   53   1.447   5.198   1.138 -0.6123 -0.0299  0.0175
   54COC    COC   54   1.591   5.505   1.021  0.2351 -0.4641  0.2438
   55COC    COC   55   1.856   5.661   1.060 -0.4618  0.1541 -0.1904
   56COC    COC   56   2.139   5.591   1.019  0.0349 -0.0192 -0.3764
   57COC    COC   57   2.260   5.363   1.178 -0.1128 -0.1550 -0.1994
   58COC    COC   58   2.388   5.470   1.399 -0.3057 -0.3950  0.3538
   59COC    COC   59   2.624   5.668   1.386  0.2606 -0.0243  0.1466
   60COC    COC   60   2.791   5.919   1.361  0.2560 -0.0855 -0.1471
   61COC    COC   61   2.716   6.148   1.532  0.0166 -0.1137  0.3147
   62COC    COC   62   2.723   6.292   1.796 -0.3009  0.3461 -0.0948
   63COC    COC   63   2.826   6.122   2.013  0.1019 -0.3242  0.3207
   64COC    COC   64   2.699   6.155   2.264  0.3104 -0.3689 -0.0265
   65COC    COC   65   2.406   6.057   2.240 -0.8065 -0.3090  0.1551
   66COC    COC   66   2.145   6.087   2.317 -0.1470 -0.0791 -0.2001
   67COC    COC   67   2.049   5.989   2.580 -0.1010 -0.1051 -0.0715
   68COC    COC   68   1.816   6.179   2.767  0.1991 -0.0473  0.2848
   69COC    COC   69   1.569   6.199   2.606  0.3844  0.1943  0.1504
   70COC    COC   70   1.533   6.243   2.298  0.4023  0.4223  0.2476
   71COC    COC   71   1.456   5.970   2.145  0.3115  0.3559 -0.1666
   72COC    COC   72   1.645   5.767   2.314  0.0156 -0.3576  0.1257
   73COC    COC   73   1.884   5.591   2.291  0.2413 -0.1585 -0.1438
   74COC    COC   74   1.923   5.330   2.114  0.5539 -0.1322  0.1208
   75COC    COC   75   2.201   5.362   1.978  0.2479 -0.0531  0.2790
   76COC    COC   76   2.391   5.410   2.183  0.1213 -0.4541 -0.0059
   77COC    COC   77   2.328   5.646   2.345  0.6344  0.4762 -0.0216
   78COC    COC   78   2.444   5.758   2.571  0.1717  0.3101 -0.1201
   79COC    COC   79   2.416   5.699   2.892 -0.1123  0.2617 -0.3049
   80COC    COC   80   2.268   5.892   3.009 -0.1519 -0.1230  0.1228
   81COC    COC   81   2.276   5.930   3.322  0.0208  0.0466 -0.2773
   82COC    COC   82   2.086   6.085   3.538  0.2523 -0.2955 -0.3164
   83COC    COC   83   1.800   5.981   3.655  0.2385 -0.0498 -0.1231
   84COC    COC   84   1.751   5.660   3.649  0.1124  0.0456  0.0138
   85COC    COC   85   1.828   5.426   3.471  0.2097 -0.1947 -0.2361
   86COC    COC   86   1.741   5.470   3.172  0.5005  0.3498 -0.2476
   87COC    COC   87   1.530   5.404   2.974 -0.2090  0.1896  0.1492
   88COC    COC   88   1.298   5.257   2.837 -0.0499 -0.2511  0.1537
   89COC    COC   89   1.223   4.986   2.974  0.0500 -0.0595 -0.5188
   90COC    COC   90   1.094   4.721   3.075 -0.0359 -0.0203  0.3570
   91COC    COC   91   0.813   4.656   2.960 -0.0120 -0.1508  0.2214
   92COH    COH   92   0.545   4.559   2.951 -0.2334  0.1980 -0.1473
   93COH    COH   93   4.618   9.603   0.700 -0.0191 -0.6516 -0.2500
   94COC    COC   94   4.666   9.865   0.553  0.0556  0.1410  0.2759
   95COC    COC   95   4.963   9.910   0.531 -0.4402 -0.0756  0.1075
   96COC    COC   96   5.093  10.144   0.687  0.0581 -0.2761 -0.0909
   97COC    COC   97   5.319  10.222   0.898  0.1227  0.0284  0.3487
   98COC    COC   98   5.215   0.082   1.154 -0.4452  0.3951 -0.1286
   99COC    COC   99   5.362   0.230   1.352  0.1790 -0.0049 -0.4458
  100COC    COC  100   5.144   0.191   1.574  0.4616  0.0328  0.4488
  101COC    COC  101   5.110   0.411   1.765  0.2312 -0.0477  0.1656
  102COC    COC  102   5.312   0.466   1.953 -0.0323 -0.0197 -0.0529
  103COC    COC  103   5.158   0.572   2.186  0.1729  0.1815 -0.0462
  104COC    COC  104   4.895   0.633   2.062  0.3571  0.1881 -0.2520
  105COC    COC  105   4.750   0.731   2.358 -0.0184  0.0994  0.2467
  106COC    COC  106   4.615   0.525   2.541 -0.0398 -0.0603 -0.1122
  107COC    COC  107   4.341   0.625   2.661  0.2160 -0.1643 -0.1927
  108COC    COC  108   4.331   0.776   2.900 -0.0795  0.0298 -0.1062
  109COC    COC  109   4.350   0.851   3.170 -0.0366 -0.0382 -0.0495
  110COC    COC  110   4.283   0.618   3.352 -0.2725 -0.0575 -0.2931
  111COC    COC  111   3.968   0.630   3.338  0.0398 -0.2478  0.3499
  112COC    COC  112   3.847   0.793   3.132 -0.4317  0.1421 -0.0138
  113COC    COC  113   3.597   0.660   3.107  0.3181 -0.1503  0.3355
  114COC    COC  114   3.328   0.715   3.218  0.1496 -0.0127  0.1553
  115COC    COC  115   3.247   0.586   3.472 -0.1296 -0.7463  0.1191
  116COC    COC  116   3.247   0.747   3.758  0.1499  0.0389 -0.1768
  117COC    COC  117   2.993   0.612   3.851 -0.5340  0.2883  0.2642
  118COC    COC  118   2.914   0.367   3.651 -0.0684  0.2984  0.0099
  119COC    COC  119   2.646   0.350   3.562  0.3498  0.1729 -0.3427
  120COC    COC  120   2.396   0.158   3.638  0.0734  0.0790 -0.5184
  121COC    COC  121   2.435  10.322   3.916  0.1397 -0.1984 -0.5265
  122COC    COC  122   2.695  10.294   4.007 -0.0000  0.4152  0.0825
  123COC    COC  123   2.893   0.183   4.071  0.0259 -0.1347  0.1542
  124COC    COC  124   2.947   0.314   4.344  0.0852  0.0847 -0.0914
  125COC    COC  125   2.936   0.559   4.292  0.0505  0.0624 -0.5837
  126COC    COC  126   2.712   0.784   4.302 -0.4582  0.2590 -0.0085
  127COC    COC  127   2.588   0.855   4.057 -0.0304 -0.1700  0.0449
  128COC    COC  128   2.540   0.731   3.786 -0.0816 -0.0504  0.1633
  129COC    COC  129   2.407   0.742   3.533  0.4102 -0.3327  0.0304
  130COC    COC  130   2.477   0.678   3.231  0.1064 -0.0157  0.1184
  131COC    COC  131   2.201   0.649   3.041 -0.1003 -0.3552  0.0545
  132COC    COC  132   2.225   0.839   2.846 -0.1326  0.1072  0.4107
  133COC    COC  133   2.459   1.045   2.903  0.0743 -0.0032 -0.6291
  134COC    COC  134   2.610   1.076   3.190  0.2257 -0.2574  0.0847
  135COC    COC  135   2.755   1.345   3.308 -0.2362 -0.2354  0.1247
  136COC    COC  136   3.041   1.276   3.464 -0.1066  0.1287  0.2903
  137COC    COC  137   3.261   1.067   3.447  0.0463  0.1391  0.1676
  138COH    COH  138   3.454   1.016   3.559 -0.2081 -0.1102 -0.1053
  139COH    COH  139   5.858   4.421  10.315  0.6664  0.3806  0.0736
  140COC    COC  140   5.936   4.255  10.101  0.0578  0.2141 -0.0163
  141COC    COC  141   5.853   4.034   9.892  0.1594 -0.0534 -0.4062
  142COC    COC  142   5.794   4.125   9.608 -0.2615  0.2445  0.2794
  143COC    COC  143   5.751   4.428   9.487 -0.0317 -0.0837 -0.2207
  144COC    COC  144   5.665   4.500   9.217 -0.1113  0.0083  0.0732
  145COC    COC  145   5.820   4.736   9.048  0.0079  0.2563  0.1199
  146COC    COC  146   6.082   4.735   8.884  0.3821 -0.2434 -0.3657
  147COC    COC  147   6.160   4.962   8.689  0.3083  0.0571  0.2783
  148COC    COC  148   6.282   4.795   8.449  0.1130 -0.0766  0.3462
  149COC    COC  149   6.085   4.665   8.249 -0.0506 -0.1259  0.1572
  150COC    COC  150   6.035   4.761   7.981  0.2057  0.3561 -0.2077
  151COC    COC  151   5.981   4.615   7.739 -0.0815  0.1341  0.0730
  152COC    COC  152   5.982   4.307   7.774 -0.3219 -0.2077 -0.0754
  153COC    COC  153   6.248   4.258   7.807  0.4077  0.0326 -0.1210
  154COC    COC  154   6.526   4.097   7.750  0.0345 -0.1616 -0.3266
  155COC    COC  155   6.748   4.308   7.689  0.1582 -0.0632  0.0010
  156COC    COC  156   7.046   4.269   7.794 -0.2149 -0.1316  0.4282
  157COC    COC  157   7.203   3.963   7.762  0.2063 -0.0144 -0.2466
  158COC    COC  158   7.087   3.807   7.986 -0.2277 -0.2659 -0.4947
  159COC    COC  159   7.199   3.551   8.057 -0.2374  0.0216  0.1247
  160COC    COC  160   7.474   3.643   8.046  0.0413 -0.0421 -0.0744
  161COC    COC  161   7.727   3.547   8.109  0.1801 -0.0418  0.7065
  162COC    COC  162   8.034   3.594   8.018  0.1287  0.2322  0.2385
  163COC    COC  163   8.070   3.890   8.127 -0.0041  0.2356  0.3000
  164COC    COC  164   8.260   4.118   8.071  0.2761 -0.2398  0.1742
  165COC    COC  165   8.396   4.175   7.816 -0.1706 -0.0779  0.1798
  166COC    COC  166   8.507   3.907   7.765  0.0137  0.2366 -0.0268
  167COC    COC  167   8.337   3.687   7.694  0.6413  0.0073  0.1781
  168COC    COC  168   8.162   3.542   7.517 -0.2970  0.2752 -0.1755
  169COC    COC  169   7.970   3.693   7.313  0.2514 -0.0957 -0.1746
  170COC    COC  170   7.676   3.743   7.268 -0.2434 -0.2462 -0.0808
  171COC    COC  171   7.545   4.009   7.186 -0.2156  0.0281  0.1371
  172COC    COC  172   7.676   4.286   7.170 -0.0233 -0.4589 -0.1846
  173COC    COC  173   7.827   4.506   6.998 -0.0121 -0.0423 -0.2761
  174COC    COC  174   8.131   4.508   7.131  0.1976  0.7182  0.0213
  175COC    COC  175   8.164   4.855   7.195 -0.1839  0.0308  0.1357
  176COC    COC  176   8.080   4.972   6.917 -0.2183  0.7624  0.0075
  177COC    COC  177   7.790   4.917   6.914 -0.1671  0.2463  0.4979
  178COC    COC  178   7.518   5.013   6.902  0.1544  0.2965  0.1101
  179COC    COC  179   7.494   5.213   6.667  0.0016 -0.2395 -0.1287
  180COC    COC  180   7.684   5.410   6.465 -0.0942 -0.0503  0.0325
  181COC    COC  181   7.716   5.324   6.202 -0.0524  0.1082  0.2867
  182COC    COC  182   7.484   5.305   5.972  0.3318  0.2035 -0.4649
  183COC    COC  183   7.585   5.389   5.690  0.4455 -0.0256  0.0445
  184COH    COH  184   7.748   5.189   5.639  0.0594  0.3352  0.2455
  185COH    COH  185   4.228   8.125   0.197 -0.2932 -0.3273 -0.1515
  186COC    COC  186   4.408   7.933   0.201  0.4361  0.1246 -0.3249
  187COC    COC  187   4.206   7.670   0.173  0.3839 -0.0867 -0.0623
  188COC    COC  188   4.147   7.447  10.314 -0.2836 -0.4024 -0.0593
  189COC    COC  189   3.902   7.291  10.249 -0.5390 -0.1713 -0.4228
  190COC    COC  190   3.852   7.012   0.051 -0.2212  0.0032 -0.1160
  191COC    COC  191   3.778   6.885   0.304  0.2108  0.1237  0.0994
  192COC    COC  192   3.686   6.618   0.279 -0.2124 -0.0871 -0.9034
  193COC    COC  193   3.607   6.348   0.147  0.2131  0.3514  0.2882
  194COC    COC  194   3.819   6.211  10.321  0.2084 -0.0438 -0.0747
  195COC    COC  195   3.751   6.141  10.038 -0.0194  0.4593  0.3154
  196COC    COC  196   3.678   6.286   9.802 -0.4955  0.3614  0.3158
  197COC    COC  197   3.557   6.081   9.627  0.1219 -0.2146 -0.1913
  198COC    COC  198   3.613   5.827   9.784  0.6311 -0.0966  0.1894
  199COC    COC  199   3.339   5.794   9.882 -0.3119 -0.3941  0.0187
  200COC    COC  200   3.152   5.681  10.106  0.5653  0.0897  0.2999
  201COC    COC  201   2.915   5.847  10.216  0.0420  0.2150  0.4996
  202COC    COC  202   2.675   5.769  10.333 -0.0040 -0.3935 -0.2418
  203COC    COC  203   2.632   5.807   0.275 -0.0990 -0.1915  0.3058
  204COC    COC  204   2.672   5.594   0.500  0.0167  0.1575  0.1457
  205COC    COC  205   2.804   5.333   0.440 -0.1243 -0.4449 -0.0220
  206COC    COC  206   2.659   5.070   0.453  0.0368  0.0241  0.3067
  207COC    COC  207   2.611   4.863   0.679  0.2542 -0.1295  0.1414
  208COC    COC  208   2.516   4.553   0.658  0.0562  0.0254  0.1581
  209COC    COC  209   2.625   4.328   0.840 -0.2602 -0.0361  0.2602
  210COC    COC  210   2.666   4.110   1.066 -0.1438 -0.2513  0.1298
  211COC    COC  211   2.879   3.870   1.114 -0.5661 -0.1045  0.1670
  212COC    COC  212   2.742   3.631   1.057 -0.2023  0.1006  0.1352
  213COC    COC  213   2.648   3.420   0.846 -0.4183  0.0939 -0.1334
  214COC    COC  214   2.558   3.112   0.874 -0.1726 -0.2229  0.0879
  215COC    COC  215   2.736   2.901   0.774  0.0468  0.0555 -0.1443
  216COC    COC  216   2.707   2.607   0.779  0.0001 -0.2385 -0.3425
  217COC    COC  217   2.914   2.453   0.751  0.0704  0.1044  0.1427
  218COC    COC  218   2.928   2.112   0.801  0.2460 -0.1217 -0.3788
  219COC    COC  219   3.158   1.981   0.634  0.3351  0.3855  0.0123
  220COC    COC  220   3.381   1.981   0.816  0.2423 -0.2379  0.0538
  221COC    COC  221   3.493   1.720   0.828 -0.1803  0.2392  0.2019
  222COC    COC  222   3.297   1.501   0.733  0.1680  0.6916 -0.1185
  223COC    COC  223   3.148   1.260   0.851  0.2312  0.2431 -0.0596
  224COC    COC  224   2.838   1.165   0.844  0.0283  0.3290  0.2018
  225COC    COC  225   2.844   0.922   0.659 -0.1930  0.0988  0.0248
  226COC    COC  226   3.085   0.755   0.587 -0.7455  0.1356 -0.3386
  227COC    COC  227   3.245   0.642   0.342  0.1242 -0.5852 -0.0658
  228COC    COC  228   3.039   0.519   0.166 -0.1131  0.2662  0.1419
  229COC    COC  229   2.955   0.309   0.348  0.2406  0.0869 -0.0630
  230COH    COH  230   2.708   0.263   0.270 -0.1139 -0.0250 -0.0178
  231COH    COH  231   1.141   8.895   5.475 -0.3856 -0.1135  0.1084
  232COC    COC  232   0.963   9.065   5.601  0.2610  0.0520 -0.2991
  233COC    COC  233   0.704   8.830   5.725  0.0653 -0.2593 -0.2997
  234COC    COC  234   0.521   8.637   5.610  0.1853 -0.0796  0.0311
  235COC    COC  235   0.312   8.828   5.472  0.0923 -0.1534  0.0553
  236COC    COC  236   0.146   8.781   5.220  0.1446  0.2342 -0.0803
  237COC    COC  237   0.027   8.537   5.061 -0.0500  0.5624  0.0800
  238COC    COC  238   0.003   8.417   4.783 -0.3955  0.0685 -0.2316
  239COC    COC  239  10.170   8.204   4.670 -0.2427  0.5294 -0.2414
  240COC    COC  240   9.988   8.117   4.894  0.2194  0.1962  0.1789
  241COC    COC  241   9.856   7.861   5.019 -0.0860  0.1248 -0.0848
  242COC    COC  242   9.970   7.689   5.257  0.0051 -0.2381  0.1941
  243COC    COC  243  10.083   7.449   5.092  0.1673  0.1592  0.3771
  244COC    COC  244   9.934   7.437   4.835 -0.0988 -0.2134 -0.6280
  245COC    COC  245   9.806   7.664   4.627 -0.0741  0.1140 -0.0747
  246COC    COC  246   9.536   7.699   4.502 -0.1635 -0.3011  0.2034
  247COC    COC  247   9.432   7.892   4.725 -0.1040 -0.0162  0.1421
  248COC    COC  248   9.401   7.740   4.957 -0.0441 -0.0518 -0.1219
  249COC    COC  249   9.331   7.460   4.865  0.1652  0.0398 -0.0481
  250COC    COC  250   9.137   7.515   4.612  0.1637  0.1663  0.1009
  251COC    COC  251   9.039   7.772   4.382 -0.1888  0.1817 -0.0330
  252COC    COC  252   9.276   7.855   4.187  0.1034  0.5835  0.1189
  253COC    COC  253   9.326   7.761   3.918 -0.1792 -0.0041  0.5339
  254COC    COC  254   9.235   7.969   3.681 -0.0411  0.1033  0.2325
  255COC    COC  255   9.401   8.135   3.517 -0.0990  0.1892  0.1227
  256COC    COC  256   9.214   8.314   3.347  0.1395  0.1274  0.2531
  257COC    COC  257   9.070   8.510   3.557  0.3769  0.1421 -0.0530
  258COC    COC  258   9.126   8.506   3.862 -0.3082  0.0108 -0.0539
  259COC    COC  259   9.173   8.499   4.149 -0.1767  0.0636 -0.0291
  260COC    COC  260   9.281   8.821   4.192  0.1166 -0.3531  0.0892
  261COC    COC  261   9.509   9.021   4.087  0.1573 -0.0213  0.1078
  262COC    COC  262   9.480   9.207   3.860  0.4087 -0.0208  0.5015
  263COC    COC  263   9.674   9.188   3.619 -0.2416  0.1088 -0.2563
  264COC    COC  264   9.916   9.336   3.770  0.3041 -0.1382 -0.1226
  265COC    COC  265  10.149   9.188   3.839  0.1218 -0.1235 -0.1631
  266COC    COC  266  10.282   8.930   3.702 -0.0841 -0.0128 -0.0015
  267COC    COC  267  10.231   8.663   3.645 -0.0174 -0.1020 -0.1250
  268COC    COC  268  10.324   8.410   3.805  0.0381  0.0333  0.1900
  269COC    COC  269   0.203   8.260   3.576 -0.1143 -0.3668 -0.0603
  270COC    COC  270   0.156   8.021   3.441  0.3716  0.0604 -0.1541
  271COC    COC  271  10.312   7.763   3.504 -0.2612  0.1841  0.0014
  272COC    COC  272  10.033   7.699   3.388 -0.0882  0.0660 -0.0014
  273COC    COC  273   9.905   7.475   3.188 -0.3102 -0.3468  0.1089
  274COC    COC  274  10.090   7.255   3.071 -0.1287 -0.2887 -0.0641
  275COC    COC  275  10.212   7.391   2.838  0.0582 -0.1656  0.3723
  276COH    COH  276   0.011   7.234   2.655 -0.1529 -0.0584 -0.2050
  277COH    COH  277   4.766   3.144   9.804  0.0274 -0.3662  0.0182
  278COC    COC  278   4.875   3.186  10.043 -0.0190  0.1683  0.2798
  279COC    COC  279   4.743   3.298  10.267 -0.2736 -0.2737 -0.0247
  280COC    COC  280   4.976   3.308   0.167  0.3125 -0.3145  0.1892
  281COC    COC  281   5.072   3.557   0.337  0.0655  0.3641 -0.0367
  282COC    COC  282   4.883   3.808   0.458  0.0510 -0.5172  0.1530
  283COC    COC  283   4.740   3.969   0.241  0.0304  0.1496  0.1487
  284COC    COC  284   4.715   4.261   0.147  0.1560 -0.2567 -0.2626
  285COC    COC  285   4.531   4.221  10.268  0.0729 -0.0474  0.3107
  286COC    COC  286   4.320   4.409  10.290  0.1842  0.2442 -0.3701
  287COC    COC  287   4.240   4.493   0.241  0.0601 -0.1469  0.0123
  288COC    COC  288   4.452   4.476   0.447  0.1669  0.0371  0.1030
  289COC    COC  289   4.661   4.310   0.579 -0.4099 -0.0869 -0.2266
  290COC    COC  290   4.520   4.052   0.652  0.2719  0.0459 -0.0589
  291COC    COC  291   4.384   3.866   0.841  0.3437  0.0849  0.1715
  292COC    COC  292   4.361   3.637   0.662 -0.2858 -0.1943 -0.0286
  293COC    COC  293   4.106   3.653   0.461  0.1486  0.1555  0.2786
  294COC    COC  294   3.933   3.894   0.417  0.4609  0.0971 -0.1419
  295COC    COC  295   3.884   4.034   0.678 -0.4046 -0.0434  0.1858
  296COC    COC  296   4.116   4.190   0.751 -0.0382 -0.2496 -0.3441
  297COC    COC  297   4.166   4.153   1.057  0.1081  0.0889 -0.1520
  298COC    COC  298   3.932   4.051   1.213 -0.0755 -0.2900 -0.1907
  299COC    COC  299   3.700   3.847   1.166 -0.2745  0.1325  0.0861
  300COC    COC  300   3.550   3.867   0.869  0.1785 -0.1688 -0.1978
  301COC    COC  301   3.273   3.798   0.796  0.0305  0.0118  0.1991
  302COC    COC  302   3.123   3.514   0.808 -0.0931  0.3818  0.3282
  303COC    COC  303   3.156   3.219   0.732 -0.2580 -0.1225 -0.1811
  304COC    COC  304   3.364   3.149   0.498  0.0378 -0.2651  0.1513
  305COC    COC  305   3.308   3.197   0.215  0.1894  0.3995 -0.0118
  306COC    COC  306   3.396   3.030   0.032 -0.1821 -0.2131 -0.0044
  307COC    COC  307   3.606   3.231  10.162 -0.1766  0.3186  0.0602
  308COC    COC  308   3.888   3.304  10.124  0.1773  0.0319  0.2461
  309COC    COC  309   4.056   3.538  10.187 -0.0586 -0.1386  0.3036
  310COC    COC  310   3.973   3.674   0.052  0.0742  0.2423 -0.1591
  311COC    COC  311   3.704   3.616   0.133  0.0032 -0.4081 -0.1119
  312COC    COC  312   3.429   3.566  10.312 -0.0598  0.2907 -0.3182
  313COC    COC  313   3.135   3.714  10.273  0.0196  0.5145 -0.3188
  314COC    COC  314   2.957   3.665  10.056 -0.0053 -0.3079 -0.1318
  315COC    COC  315   2.707   3.890  10.110  0.1732  0.2118  0.4006
  316COC    COC  316   2.404   3.918  10.001  0.3050  0.0825 -0.2377
  317COC    COC  317   2.331   4.107   9.758 -0.2203 -0.0502  0.3003
  318COC    COC  318   2.447   4.010   9.483  0.2969 -0.5364  0.0262
  319COC    COC  319   2.227   4.011   9.273  0.0870 -0.5080  0.1797
  320COC    COC  320   2.284   3.898   9.008  0.4162  0.1774 -0.2064
  321COC    COC  321   2.480   3.796   8.841  0.2186  0.0498 -0.0562
  322COH    COH  322   2.487   3.530   8.812  0.1422 -0.0337  0.0567
  323COH    COH  323   9.551   6.301   1.514  0.0390 -0.4064 -0.2008
  324COC    COC  324   9.337   6.438   1.416  0.1853  0.1561 -0.0788
  325COC    COC  325   9.163   6.705   1.472 -0.0939  0.5262 -0.0146
  326COC    COC  326   9.036   6.923   1.640  0.1155 -0.2051  0.0551
  327COC    COC  327   8.714   6.940   1.646 -0.3515  0.1904 -0.2164
  328COC    COC  328   8.705   7.077   1.403  0.0999  0.2024  0.4520
  329COC    COC  329   8.701   6.936   1.155 -0.2203  0.1883  0.1552
  330COC    COC  330   8.420   6.920   1.059  0.1820 -0.1537  0.1877
  331COC    COC  331   8.286   6.893   0.786 -0.3701 -0.2605  0.1856
  332COC    COC  332   8.173   7.077   0.590 -0.0827 -0.2417  0.2421
  333COC    COC  333   8.263   7.261   0.359 -0.3883  0.0395 -0.2088
  334COC    COC  334   8.575   7.325   0.284  0.0464  0.3419  0.0036
  335COC    COC  335   8.687   7.509   0.529 -0.0324 -0.2078  0.1937
  336COC    COC  336   8.416   7.638   0.660 -0.5183  0.2046 -0.0140
  337COC    COC  337   8.151   7.632   0.539 -0.1271 -0.1810 -0.3532
  338COC    COC  338   8.040   7.853   0.327  0.1128 -0.3217  0.2279
  339COC    COC  339   7.797   7.676   0.203 -0.0787 -0.2627 -0.0285
  340COC    COC  340   7.448   7.634   0.188  0.0373 -0.4724 -0.2702
  341COC    COC  341   7.264   7.849   0.069 -0.4198  0.3824 -0.1268
  342COC    COC  342   7.247   8.103  10.248 -0.4448  0.0232 -0.2035
  343COC    COC  343   7.494   8.184  10.106  0.1406 -0.0470  0.1671
  344COC    COC  344   7.725   8.117   9.958 -0.0560 -0.0089  0.4403
  345COC    COC  345   7.940   8.231   9.757 -0.0473 -0.1365  0.4853
  346COC    COC  346   7.761   8.230   9.528  0.2924 -0.3178  0.1684
  347COC    COC  347   7.626   8.494   9.400 -0.1848 -0.4824  0.1514
  348COC    COC  348   7.753   8.588   9.145  0.1440 -0.0052  0.1544
  349COC    COC  349   7.945   8.836   9.078 -0.0934 -0.0855  0.3056
  350COC    COC  350   8.016   9.112   9.212  0.1510  0.1670 -0.0902
  351COC    COC  351   7.955   9.400   9.109  0.0128 -0.0629  0.1326
  352COC    COC  352   7.962   9.401   8.790  0.1414 -0.0993 -0.1969
  353COC    COC  353   7.704   9.401   8.688  0.2790 -0.1967  0.0103
  354COC    COC  354   7.713   9.260   8.426  0.1312  0.3130  0.2993
  355COC    COC  355   7.859   9.217   8.159  0.2848  0.1816  0.0851
  356COC    COC  356   7.800   9.432   7.935  0.0143  0.1901  0.1304
  357COC    COC  357   7.634   9.446   7.660 -0.1925 -0.5808  0.0822
  358COC    COC  358   7.526   9.713   7.594  0.0017  0.3708 -0.3638
  359COC    COC  359   7.324   9.771   7.358  0.1104  0.3727  0.1357
  360COC    COC  360   7.195  10.007   7.247  0.1657 -0.0032  0.1980
  361COC    COC  361   7.310  10.230   7.130 -0.2230 -0.2443  0.1247
  362COC    COC  362   7.157   0.157   7.047 -0.0920 -0.1472 -0.1819
  363COC    COC  363   6.878   0.146   7.020  0.3668 -0.1254  0.3876
  364COC    COC  364   6.591   0.200   7.137  0.2395  0.2936  0.5108
  365COC    COC  365   6.499   0.192   7.433  0.0087  0.0926  0.0796
  366COC    COC  366   6.218   0.089   7.521 -0.0926  0.0350 -0.1336
  367COC    COC  367   5.910   0.137   7.459  0.1525 -0.3431 -0.1907
  368COH    COH  368   5.912   0.357   7.291 -0.3282 -0.1098  0.2838
  369COH    COH  369   1.920   9.339   6.459  0.0129  0.3484  0.1719
  370COC    COC  370   1.977   9.466   6.245 -0.0816 -0.1794  0.2525
  371COC    COC  371   2.004   9.797   6.330 -0.1186 -0.1222  0.1532
  372COC    COC  372   1.861   9.995   6.141 -0.1295  0.2170  0.0031
  373COC    COC  373   1.652   9.833   6.077  0.5131  0.0644 -0.0212
  374COC    COC  374   1.380   9.704   6.157 -0.1176  0.4767  0.2204
  375COC    COC  375   1.077   9.794   6.167 -0.0489  0.0544 -0.0950
  376COC    COC  376   1.007  10.108   6.183 -0.0530  0.1444 -0.0213
  377COC    COC  377   1.136   0.015   6.300  0.0266 -0.2458 -0.1077
  378COC    COC  378   1.051   0.230   6.489 -0.0850 -0.3813  0.0665
  379COC    COC  379   1.222   0.362   6.693 -0.1993 -0.3045 -0.3357
  380COC    COC  380   1.505   0.226   6.566 -0.0673  0.0959 -0.1911
  381COC    COC  381   1.741   0.148   6.747  0.0562  0.0533 -0.2771
  382COC    COC  382   1.930   0.004   6.973 -0.0310 -0.2511  0.2234
  383COC    COC  383   1.976   0.194   7.192  0.1072  0.0072  0.3113
  384COC    COC  384   1.892   0.135   7.494  0.1054  0.0817  0.2265
  385COC    COC  385   1.581   0.136   7.492 -0.3591  0.2244 -0.1266
  386COC    COC  386   1.439  10.199   7.435 -0.3724 -0.0958 -0.0330
  387COC    COC  387   1.252  10.001   7.603 -0.0099 -0.3576 -0.2474
  388COC    COC  388   1.276   9.883   7.909  0.5025 -0.4777  0.1538
  389COC    COC  389   1.058   9.798   8.045 -0.2277 -0.0133  0.1783
  390COC    COC  390   0.764   9.728   7.946  0.6738  0.0213 -0.2028
  391COC    COC  391   0.724   9.449   7.796  0.0202  0.1063 -0.3287
  392COC    COC  392   0.710   9.166   7.827 -0.1231  0.0492 -0.0641
  393COC    COC  393   0.439   9.068   7.802 -0.1720 -0.0071 -0.0538
  394COC    COC  394   0.307   8.913   7.999  0.0165  0.3809  0.2913
  395COC    COC  395   0.037   9.058   8.117 -0.2378 -0.3168  0.3860
  396COC    COC  396   0.014   9.268   7.899 -0.0365  0.1487 -0.2818
  397COC    COC  397  10.308   9.175   7.602 -0.7540 -0.0145 -0.1952
  398COC    COC  398   0.169   9.048   7.378 -0.0151 -0.5229 -0.2416
  399COC    COC  399   0.153   8.809   7.201 -0.0404 -0.3637  0.0532
  400COC    COC  400   0.322   8.568   7.310  0.2738 -0.3342  0.0198
  401COC    COC  401   0.575   8.453   7.182  0.4051  0.0415 -0.2550
  402COC    COC  402   0.647   8.502   6.915 -0.1180 -0.3670  0.1199
  403COC    COC  403   0.835   8.361   6.748 -0.2512 -0.0430  0.0412
  404COC    COC  404   0.845   8.044   6.825  0.0790  0.2195  0.2415
  405COC    COC  405   1.114   7.892   6.873 -0.1446 -0.3308  0.0801
  406COC    COC  406   1.056   7.612   6.962 -0.1125  0.2303  0.0824
  407COC    COC  407   0.767   7.691   7.084  0.0798  0.2042 -0.0255
  408COC    COC  408   0.682   7.382   7.083 -0.2786  0.0618  0.5136
  409COC    COC  409   0.361   7.313   7.096  0.1142 -0.1460 -0.0743
  410COC    COC  410   0.153   7.113   7.146 -0.6366  0.2729 -0.4811
  411COC    COC  411  10.290   7.053   7.363 -0.4490 -0.0813 -0.6310
  412COC    COC  412  10.257   6.836   7.619  0.1266 -0.1549  0.0066
  413COC    COC  413   9.994   6.820   7.850  0.0081  0.0144  0.3171
  414COH    COH  414  10.116   6.990   8.042 -0.1407 -0.0398  0.1443
  415COH    COH  415  10.063   5.729   9.681  0.0350  0.2988 -0.0536
  416COC    COC  416   9.939   5.483   9.746 -0.1687  0.1785 -0.3128
  417COC    COC  417   9.692   5.450   9.558  0.0236 -0.0436 -0.0290
  418COC    COC  418   9.857   5.333   9.324  0.1538  0.1277  0.1280
  419COC    COC  419   9.998   5.077   9.274  0.1754 -0.1903  0.3214
  420COC    COC  420  10.178   4.922   9.460 -0.5790 -0.0701  0.2326
  421COC    COC  421  10.167   4.633   9.534 -0.0197  0.1454 -0.1673
  422COC    COC  422  10.047   4.364   9.420  0.0218  0.5943 -0.2434
  423COC    COC  423   9.926   4.186   9.186 -0.0572 -0.1881 -0.1444
  424COC    COC  424  10.106   4.012   9.001  0.0501 -0.1584  0.4136
  425COC    COC  425  10.197   4.232   8.793 -0.1540  0.1840  0.2570
  426COC    COC  426   0.176   4.250   8.719  0.0239  0.2182  0.0618
  427COC    COC  427   0.280   4.338   8.473 -0.0806  0.1162  0.1408
  428COC    COC  428   0.477   4.177   8.345  0.3289  0.1220  0.1800
  429COC    COC  429   0.636   4.332   8.119  0.2135 -0.1169 -0.1520
  430COC    COC  430   0.481   4.331   7.890  0.0314 -0.1279  0.2424
  431COC    COC  431   0.512   4.091   7.750 -0.0746 -0.1481  0.0833
  432COC    COC  432   0.670   4.040   7.488  0.0890  0.5611 -0.4298
  433COC    COC  433   0.767   3.760   7.378 -0.0878 -0.3585 -0.2500
  434COC    COC  434   0.578   3.572   7.346 -0.0703  0.0125  0.1714
  435COC    COC  435   0.324   3.768   7.391  0.1403  0.2829 -0.1293
  436COC    COC  436   0.004   3.732   7.474 -0.0689  0.3039 -0.1137
  437COC    COC  437   0.075   3.746   7.758  0.0492 -0.0248  0.0380
  438COC    COC  438  10.244   3.538   7.911 -0.3943  0.0738 -0.0658
  439COC    COC  439  10.193   3.636   8.165  0.0748  0.1217 -0.1447
  440COC    COC  440  10.169   3.370   8.313 -0.1279 -0.1593  0.1437
  441COC    COC  441  10.301   3.145   8.191 -0.0236  0.2573 -0.3307
  442COC    COC  442  10.096   2.922   8.112  0.0421 -0.2429 -0.1610
  443COC    COC  443  10.067   2.669   8.243 -0.2499 -0.2540 -0.1795
  444COC    COC  444  10.224   2.637   8.499 -0.0669 -0.2792 -0.1631
  445COC    COC  445   0.230   2.662   8.530  0.4812  0.0746  0.6720
  446COC    COC  446   0.237   2.903   8.410 -0.6503 -0.2671  0.0973
  447COC    COC  447   0.546   2.898   8.299  0.4541  0.1221  0.0846
  448COC    COC  448   0.782   3.051   8.345  0.0211  0.0842 -0.1331
  449COC    COC  449   0.744   3.338   8.442  0.4405  0.2736 -0.2421
  450COC    COC  450   0.823   3.578   8.338  0.3211 -0.1283  0.1130
  451COC    COC  451   0.987   3.737   8.162 -0.0582 -0.2354  0.0551
  452COC    COC  452   0.883   4.008   8.146  0.0826  0.2017 -0.1404
  453COC    COC  453   0.929   4.142   7.884  0.2854 -0.1932 -0.0862
  454COC    COC  454   1.090   4.392   7.924 -0.3185 -0.1903 -0.2404
  455COC    COC  455   1.200   4.671   7.838 -0.0339  0.0047  0.3344
  456COC    COC  456   1.361   4.920   7.939  0.2228 -0.0620  0.2525
  457COC    COC  457   1.347   5.190   8.082  0.0700  0.2338 -0.1534
  458COC    COC  458   1.607   5.308   7.949  0.1251  0.2278  0.2945
  459COC    COC  459   1.786   5.484   8.096  0.1346  0.0028 -0.1251
  460COH    COH  460   1.937   5.397   8.299 -0.1560  0.2096 -0.2445
  461COH    COH  461   3.612   4.550   6.112  0.2388  0.5233 -0.1031
  462COC    COC  462   3.591   4.599   5.855  0.4606 -0.0137  0.0399
  463COC    COC  463   3.786   4.719   5.667  0.1037  0.2509 -0.2517
  464COC    COC  464   3.972   4.916   5.652 -0.4312 -0.1851  0.2729
  465COC    COC  465   3.948   5.141   5.447 -0.0025  0.1789 -0.2407
  466COC    COC  466   3.767   5.350   5.577  0.2244 -0.5686 -0.0843
  467COC    COC  467   3.687   5.527   5.338  0.0455 -0.1021 -0.2046
  468COC    COC  468   3.693   5.395   5.087  0.1016 -0.1953 -0.0058
  469COC    COC  469   3.945   5.145   5.019 -0.1908  0.4140  0.0687
  470COC    COC  470   3.992   4.933   4.794 -0.0867  0.3519 -0.0739
  471COC    COC  471   4.202   4.710   4.877  0.2627 -0.2102  0.1380
  472COC    COC  472   4.502   4.744   4.776  0.1511  0.1091 -0.1952
  473COC    COC  473   4.605   4.480   4.653  0.1086  0.0140  0.0892
  474COC    COC  474   4.716   4.477   4.358 -0.1247  0.2914 -0.2281
  475COC    COC  475   4.891   4.515   4.108  0.0128 -0.3934 -0.1543
  476COC    COC  476   5.090   4.304   4.072  0.0717 -0.1249 -0.1799
  477COC    COC  477   4.961   4.040   3.953 -0.3739 -0.2091 -0.0783
  478COC    COC  478   5.047   4.026   3.662  0.2637  0.2132 -0.2836
  479COC    COC  479   4.927   4.075   3.397  0.1026  0.1036  0.2611
  480COC    COC  480   4.691   3.954   3.218 -0.2731 -0.1317  0.0601
  481COC    COC  481   4.741   3.753   2.955 -0.2154 -0.0704  0.0325
  482COC    COC  482   4.470   3.762   2.833  0.1726 -0.1362  0.0863
  483COC    COC  483   4.605   3.884   2.541 -0.0245  0.1143 -0.2451
  484COC    COC  484   4.896   4.043   2.609 -0.0659 -0.2075  0.0303
  485COC    COC  485   5.190   4.029   2.530  0.1180 -0.1277  0.4023
  486COC    COC  486   5.446   3.950   2.394  0.0205  0.2008  0.1413
  487COC    COC  487   5.457   3.748   2.177 -0.1994  0.0444  0.0562
  488COC    COC  488   5.360   3.468   2.236 -0.2238  0.3605 -0.0564
  489COC    COC  489   5.117   3.350   2.258  0.2522 -0.7244  0.3897
  490COC    COC  490   4.989   3.386   2.002  0.0133  0.1490  0.0460
  491COC    COC  491   4.721   3.168   1.910 -0.1098  0.0407  0.2123
  492COC    COC  492   4.620   2.929   1.742  0.1077  0.3597 -0.2455
  493COC    COC  493   4.827   2.704   1.901  0.3512  0.0303  0.0483
  494COC    COC  494   4.957   2.621   1.634 -0.0847 -0.1991  0.0408
  495COC    COC  495   4.833   2.730   1.373 -0.1010  0.0856 -0.1633
  496COC    COC  496   4.895   3.042   1.368 -0.2067 -0.0010 -0.0105
  497COC    COC  497   4.929   3.157   1.110 -0.3941 -0.2066 -0.1267
  498COC    COC  498   4.719   3.127   0.894  0.2770  0.1568  0.2385
  499COC    COC  499   4.710   3.260   0.620 -0.1407 -0.2600 -0.0670
  500COC    COC  500   4.633   3.165   0.332 -0.3905  0.3288 -0.1225
  501COC    COC  501   4.384   3.111   0.204  0.0311  0.3373 -0.1289
  502COC    COC  502   4.330   3.087  10.267 -0.2868  0.2623 -0.2333
  503COC    COC  503   4.323   2.820  10.135 -0.6715  0.2249  0.0107
  504COC    COC  504   4.530   2.604  10.072 -0.4352  0.0683 -0.2523
  505COC    COC  505   4.578   2.314  10.006  0.2957  0.3587  0.2419
  506COH    COH  506   4.379   2.234   9.835  0.2795 -0.4134 -0.1164
  507COH    COH  507   6.192   9.319   8.325  0.6322  0.3450  0.1467
  508COC    COC  508   6.258   9.077   8.314 -0.2049  0.0744  0.2893
  509COC    COC  509   6.233   8.791   8.446 -0.0757  0.0404  0.2001
  510COC    COC  510   6.118   8.746   8.729 -0.2271 -0.1490  0.0276
  511COC    COC  511   5.953   8.927   8.901  0.1868  0.0183  0.0080
  512COC    COC  512   5.855   9.176   8.774 -0.3999  0.1952  0.4272
  513COC    COC  513   5.588   9.295   8.746 -0.0321 -0.0285 -0.4000
  514COC    COC  514   5.544   9.573   8.670  0.0117 -0.2865 -0.3064
  515COC    COC  515   5.557   9.680   8.395  0.2500  0.1231  0.0063
  516COC    COC  516   5.414   9.962   8.276 -0.1245  0.2376 -0.0253
  517COC    COC  517   5.681  10.141   8.314  0.1616  0.2334  0.2283
  518COC    COC  518   5.973  10.021   8.352 -0.1620 -0.1139  0.2605
  519COC    COC  519   6.050   9.939   8.084 -0.1781  0.2770  0.0289
  520COC    COC  520   6.292  10.015   7.963  0.1926 -0.0381 -0.1099
  521COC    COC  521   6.460  10.223   7.809  0.2806 -0.0381 -0.3622
  522COC    COC  522   6.747  10.164   7.849 -0.3764  0.0605 -0.0251
  523COC    COC  523   6.826   9.965   8.046 -0.0894 -0.0416  0.2386
  524COC    COC  524   7.135   9.986   8.123  0.0632 -0.2042 -0.1848
  525COC    COC  525   7.260  10.287   8.200 -0.0707  0.1909  0.0659
  526COC    COC  526   7.174   0.109   8.003 -0.1004 -0.2526  0.5038
  527COC    COC  527   7.167   0.403   8.084 -0.1393 -0.2173  0.0371
  528COC    COC  528   7.362   0.485   7.850  0.0308 -0.2217  0.0997
  529COC    COC  529   7.416   0.620   7.547  0.0240 -0.1763  0.0924
  530COC    COC  530   7.206   0.804   7.395  0.1482  0.2157 -0.0377
  531COC    COC  531   7.238   0.754   7.105 -0.0983 -0.0655  0.4534
  532COC    COC  532   7.417   0.509   7.010 -0.2416  0.0135 -0.2516
  533COC    COC  533   7.372   0.413   6.721 -0.1901  0.1210  0.2053
  534COC    COC  534   7.272   0.546   6.466 -0.2577 -0.1460  0.2204
  535COC    COC  535   7.495   0.604   6.232  0.0068  0.1474  0.0445
  536COC    COC  536   7.400   0.543   5.960 -0.1912 -0.0108 -0.1790
  537COC    COC  537   7.180   0.419   5.771  0.1640 -0.2421  0.0000
  538COC    COC  538   6.886   0.420   5.921  0.2497  0.2744 -0.1829
  539COC    COC  539   6.654   0.316   5.761  0.1205  0.0891 -0.0624
  540COC    COC  540   6.468   0.467   5.561 -0.0612 -0.0435 -0.1054
  541COC    COC  541   6.220   0.343   5.378 -0.2443 -0.0250  0.3598
  542COC    COC  542   6.172   0.222   5.083  0.0584 -0.1862  0.1442
  543COC    COC  543   6.105  10.249   5.051  0.2454  0.1257 -0.0567
  544COC    COC  544   6.228   9.989   5.189  0.0500 -0.2988  0.1599
  545COC    COC  545   6.529   9.952   5.209  0.0288  0.0551 -0.2830
  546COC    COC  546   6.778  10.025   5.352 -0.1643  0.2011 -0.1750
  547COC    COC  547   6.920  10.254   5.396 -0.1382  0.2500 -0.3502
  548COC    COC  548   7.229  10.202   5.386  0.0122 -0.2015  0.0180
  549COC    COC  549   7.476   9.996   5.409  0.1048 -0.0286 -0.0543
  550COC    COC  550   7.577   9.953   5.713  0.3949  0.0072 -0.1455
  551COC    COC  551   7.339  10.093   5.879 -0.0142 -0.1546  0.2480
  552COH    COH  552   7.102   9.938   5.888  0.0078  0.4545  0.3806
  553COH    COH  553   5.779   8.427   2.893  0.1832 -0.0998  0.0162
  554COC    COC  554   5.841   8.186   3.046  0.3823  0.0281 -0.0090
  555COC    COC  555   6.003   7.967   2.957 -0.4415  0.0874 -0.3491
  556COC    COC  556   5.917   7.824   2.669 -0.2455 -0.1829  0.1309
  557COC    COC  557   5.703   8.029   2.517  0.4503  0.4627 -0.2363
  558COC    COC  558   5.746   7.981   2.200 -0.0463 -0.1171  0.3345
  559COC    COC  559   5.992   7.878   2.067  0.2749  0.2674 -0.2844
  560COC    COC  560   6.168   7.723   2.294  0.1964  0.2163  0.1161
  561COC    COC  561   6.447   7.809   2.175 -0.2578  0.1863  0.1951
  562COC    COC  562   6.719   7.736   2.287  0.4400  0.2272 -0.1656
  563COC    COC  563   6.866   8.004   2.368  0.2975 -0.0385 -0.3231
  564COC    COC  564   6.679   8.237   2.250  0.0293 -0.1791 -0.3912
  565COC    COC  565   6.573   8.378   2.023 -0.2567 -0.1558  0.5793
  566COC    COC  566   6.696   8.647   1.956  0.3162 -0.2614 -0.1596
  567COC    COC  567   6.694   8.874   2.184  0.3581  0.0042  0.0618
  568COC    COC  568   6.459   9.028   2.112  0.0944 -0.2173 -0.1035
  569COC    COC  569   6.581   9.266   2.002 -0.1102 -0.0343  0.3402
  570COC    COC  570   6.789   9.239   1.801 -0.2002 -0.0301  0.0330
  571COC    COC  571   7.019   9.466   1.793  0.0947  0.1471  0.0200
  572COC    COC  572   7.149   9.565   2.039  0.2596  0.2553  0.0781
  573COC    COC  573   7.461   9.532   2.033 -0.4613  0.0675 -0.2660
  574COC    COC  574   7.568   9.822   2.106  0.1041 -0.4473 -0.1626
  575COC    COC  575   7.406  10.041   2.229 -0.3314  0.3812  0.1387
  576COC    COC  576   7.405  10.328   2.083  0.4220  0.1081 -0.1669
  577COC    COC  577   7.195   0.012   1.876  0.1673  0.0150  0.0210
  578COC    COC  578   7.103  10.159   1.677  0.3070  0.0293 -0.0565
  579COC    COC  579   7.268   9.901   1.789 -0.0739 -0.2743  0.1784
  580COC    COC  580   7.378   9.688   1.582 -0.0062 -0.1951  0.2161
  581COC    COC  581   7.482   9.436   1.572  0.0399  0.0065  0.0709
  582COC    COC  582   7.229   9.255   1.486 -0.4526  0.3872 -0.1289
  583COC    COC  583   7.208   9.296   1.193  0.1499  0.3898 -0.1473
  584COC    COC  584   7.313   9.567   1.168  0.1531 -0.2649  0.7200
  585COC    COC  585   7.107   9.708   0.988 -0.2662  0.1332  0.0724
  586COC    COC  586   7.054   9.990   1.061  0.3444 -0.0965  0.0902
  587COC    COC  587   6.938  10.202   1.261 -0.0145  0.0576  0.1867
  588COC    COC  588   6.919   0.160   1.158 -0.1338 -0.4155  0.3827
  589COC    COC  589   6.807   0.250   0.901 -0.2707 -0.3559 -0.0815
  590COC    COC  590   6.519   0.292   0.801 -0.0702  0.3069 -0.2525
  591COC    COC  591   6.525   0.118   0.549 -0.0680  0.0005 -0.1760
  592COC    COC  592   6.739  10.266   0.567 -0.4415  0.1679 -0.0201
  593COC    COC  593   7.025  10.292   0.581 -0.0210  0.1232  0.1887
  594COC    COC  594   7.191  10.126   0.682  0.0472 -0.1757 -0.1475
  595COC    COC  595   7.428  10.266   0.793 -0.0882 -0.1408 -0.2215
  596COC    COC  596   7.692  10.232   0.989 -0.0989  0.3440  0.1428
  597COC    COC  597   7.986   0.031   1.014  0.0863 -0.0821  0.3397
  598COH    COH  598   8.022   0.284   1.028  0.0846  0.1718 -0.4152
  599COH    COH  599   9.815   6.699   5.317  0.3551  0.3467 -0.0800
  600COC    COC  600  10.022   6.610   5.214 -0.5006 -0.4191  0.1525
  601COC    COC  601  10.137   6.452   5.454 -0.2097 -0.0426  0.1496
  602COC    COC  602  10.044   6.374   5.724 -0.0732 -0.1004  0.1601
  603COC    COC  603  10.104   6.587   5.926  0.2983  0.2576 -0.1015
  604COC    COC  604  10.284   6.817   5.944 -0.0307 -0.0171  0.0428
  605COC    COC  605  10.243   7.089   6.005  0.1822  0.1822  0.1008
  606COC    COC  606  10.155   7.141   6.295 -0.0992 -0.1502 -0.5083
  607COC    COC  607  10.004   7.354   6.275 -0.2005  0.1348  0.0866
  608COC    COC  608   9.945   7.554   6.124  0.1501  0.3398  0.1612
  609COC    COC  609   9.848   7.796   6.243 -0.0134 -0.2841  0.0898
  610COC    COC  610   9.996   8.067   6.233 -0.1279  0.7489 -0.1690
  611COC    COC  611  10.269   8.004   6.142  0.4618 -0.1027  0.1095
  612COC    COC  612   0.117   8.198   6.025 -0.0231  0.2316 -0.4230
  613COC    COC  613   0.313   8.298   6.209 -0.1103  0.0327  0.1124
  614COC    COC  614   0.477   8.182   6.414  0.3313 -0.4464 -0.0400
  615COC    COC  615   0.739   8.288   6.325  0.1564 -0.0235  0.1394
  616COC    COC  616   0.907   8.561   6.253 -0.2058  0.3209 -0.2198
  617COC    COC  617   1.211   8.624   6.295 -0.2530  0.0564  0.2592
  618COC    COC  618   1.199   8.939   6.348 -0.2384 -0.0847  0.0542
  619COC    COC  619   1.466   9.004   6.237  0.3552  0.0417  0.1088
  620COC    COC  620   1.558   9.308   6.280 -0.0316  0.3840  0.0592
  621COC    COC  621   1.274   9.363   6.448  0.1284  0.2803  0.4048
  622COC    COC  622   0.985   9.323   6.411 -0.2326 -0.0300  0.5043
  623COC    COC  623   0.671   9.415   6.456 -0.4364 -0.0956  0.0227
  624COC    COC  624   0.503   9.464   6.214 -0.2660 -0.0008  0.0218
  625COC    COC  625   0.276   9.563   6.157  0.2777  0.1384  0.4368
  626COC    COC  626   0.044   9.445   6.318 -0.3906  0.2400  0.1056
  627COC    COC  627  10.181   9.279   6.285 -0.1702 -0.0511 -0.3020
  628COC    COC  628  10.258   9.029   6.185  0.1213 -0.4949 -0.0083
  629COC    COC  629   0.003   8.792   6.369 -0.0107 -0.1402  0.1479
  630COC    COC  630   0.091   8.580   6.578  0.0936  0.4271  0.3575
  631COC    COC  631   0.177   8.549   6.861 -0.1147 -0.1617  0.3808
  632COC    COC  632   0.014   8.346   6.976 -0.1489  0.3441 -0.1282
  633COC    COC  633  10.075   8.354   6.864 -0.2812 -0.6102  0.1099
  634COC    COC  634   9.903   8.205   7.045  0.0031  0.2553  0.0973
  635COC    COC  635   9.642   8.228   7.229  0.0966  0.0456  0.3138
  636COC    COC  636   9.764   8.330   7.523  0.2802 -0.1821  0.0126
  637COC    COC  637   9.999   8.168   7.626  0.1924 -0.2540  0.1296
  638COC    COC  638  10.161   8.186   7.861  0.3536  0.5635 -0.3039
  639COC    COC  639   0.123   8.218   7.776 -0.4093  0.1200 -0.5524
  640COC    COC  640   0.261   8.499   7.723  0.0204  0.0225 -0.0526
  641COC    COC  641   0.066   8.691   7.722 -0.0716  0.3128  0.2888
  642COC    COC  642  10.103   8.658   7.837 -0.0690 -0.3935  0.1309
  643COC    COC  643   9.890   8.458   7.987  0.1291 -0.4400  0.0534
  644COH    COH  644   9.937   8.390   8.235 -0.4145  0.4215  0.0429
  645COH    COH  645   1.604   1.473   2.178 -0.1018 -0.2985 -0.1311
  646COC    COC  646   1.602   1.250   2.060  0.2231  0.3905  0.3672
  647COC    COC  647   1.760   0.946   2.102  0.0917 -0.3996  0.2354
  648COC    COC  648   1.722   0.661   2.018  0.3668  0.1729 -0.2107
  649COC    COC  649   1.873   0.602   1.754  0.0430 -0.0194  0.0346
  650COC    COC  650   1.778   0.709   1.459  0.0953 -0.1869 -0.2335
  651COC    COC  651   1.507   0.714   1.264 -0.5002 -0.1595  0.0522
  652COC    COC  652   1.418   0.464   1.108  0.3630  0.0221  0.0941
  653COC    COC  653   1.095   0.402   1.054 -0.1146  0.2929 -0.0386
  654COC    COC  654   0.954   0.380   0.758 -0.2225  0.3169 -0.0960
  655COC    COC  655   0.766   0.200   0.591  0.1818 -0.0528  0.2130
  656COC    COC  656   0.754  10.270   0.667  0.1419 -0.1235  0.1813
  657COC    COC  657   0.806   9.987   0.788  0.0575  0.2361 -0.1696
  658COC    COC  658   0.798   9.724   0.927  0.1146  0.0437 -0.0617
  659COC    COC  659   1.001   9.824   1.112 -0.0246 -0.2602 -0.0569
  660COC    COC  660   1.118   9.551   1.237 -0.1857 -0.0895  0.2941
  661COC    COC  661   0.961   9.327   1.351  0.6592 -0.0267  0.3883
  662COC    COC  662   0.710   9.323   1.168 -0.0125  0.2015 -0.1189
  663COC    COC  663   0.591   9.576   1.222 -0.2856 -0.0843 -0.2217
  664COC    COC  664   0.327   9.713   1.252  0.2455  0.1777 -0.0193
  665COC    COC  665   0.070   9.641   1.450 -0.2409 -0.1271 -0.1615
  666COC    COC  666  10.138   9.546   1.418  0.0762 -0.3046 -0.0929
  667COC    COC  667   9.992   9.340   1.540  0.0979  0.1657 -0.3425
  668COC    COC  668   9.737   9.497   1.574  0.1397  0.0462  0.0363
  669COC    COC  669   9.464   9.405   1.695  0.5176 -0.3900 -0.2453
  670COC    COC  670   9.167   9.483   1.693 -0.1842  0.3193  0.0805
  671COC    COC  671   8.964   9.306   1.547 -0.0141  0.0099  0.1172
  672COC    COC  672   9.096   9.099   1.329 -0.4826  0.1315 -0.4366
  673COC    COC  673   9.048   9.049   1.056 -0.0114 -0.0867  0.1153
  674COC    COC  674   9.184   9.107   0.798 -0.5080  0.1162 -0.2403
  675COC    COC  675   9.112   9.060   0.487  0.2671 -0.2139  0.1535
  676COC    COC  676   8.957   9.330   0.457  0.0869  0.1569  0.2077
  677COC    COC  677   9.186   9.483   0.299  0.1015 -0.0082  0.0158
  678COC    COC  678   9.132   9.699   0.129  0.1038 -0.4064  0.2890
  679COC    COC  679   9.250   9.571  10.190 -0.0917 -0.0955 -0.1717
  680COC    COC  680   9.361   9.792  10.046  0.6663  0.0995  0.2406
  681COC    COC  681   9.125   9.925  10.080 -0.2079  0.0517  0.0210
  682COC    COC  682   8.853   9.788  10.121 -0.2151 -0.3688 -0.1156
  683COC    COC  683   8.797   9.503  10.100  0.0283  0.1609  0.1083
  684COC    COC  684   8.980   9.332   9.923  0.0623 -0.2419 -0.3294
  685COC    COC  685   9.259   9.205   9.973 -0.0214  0.2092 -0.0057
  686COC    COC  686   9.326   8.913  10.112  0.1484 -0.1956 -0.4655
  687COC    COC  687   9.416   8.770   9.896  0.1163 -0.1904 -0.4137
  688COC    COC  688   9.704   8.692   9.896  0.2400 -0.2398  0.5625
  689COC    COC  689   9.720   8.493   9.634 -0.0339  0.1316 -0.0053
  690COH    COH  690   9.540   8.614   9.469  0.4177 -0.2939  0.1010
  691COH    COH  691   3.972   0.340  10.149 -0.1049 -0.1979 -0.0691
  692COC    COC  692   4.166   0.274  10.001 -0.0836 -0.0686  0.1665
  693COC    COC  693   4.469   0.256  10.110  0.1658  0.1084 -0.1665
  694COC    COC  694   4.726   0.095  10.009  0.1818  0.0726 -0.0537
  695COC    COC  695   4.814  10.225  10.245  0.0043  0.0591  0.0725
  696COC    COC  696   5.044  10.046  10.280 -0.0912  0.2018  0.1346
  697COC    COC  697   5.079   9.779   0.048  0.0534 -0.3466  0.0151
  698COC    COC  698   4.963   9.493  10.279  0.5813  0.0378  0.3036
  699COC    COC  699   4.985   9.202  10.323 -0.1488 -0.1497  0.1168
  700COC    COC  700   5.084   9.107   0.252  0.0625 -0.4029 -0.0821
  701COC    COC  701   5.303   8.901   0.180  0.8165  0.2661  0.1188
  702COC    COC  702   5.317   8.779  10.257 -0.0644  0.1261  0.4447
  703COC    COC  703   5.388   9.023  10.110  0.0512 -0.1911  0.4856
  704COC    COC  704   5.690   9.024  10.074 -0.0996 -0.1050  0.1957
  705COC    COC  705   5.770   9.226   9.882 -0.1066  0.0819  0.1611
  706COC    COC  706   5.579   9.241   9.686  0.0436 -0.3217 -0.1547
  707COC    COC  707   5.531   9.404   9.461  0.5714 -0.1485 -0.0207
  708COC    COC  708   5.364   9.389   9.211  0.3348 -0.1121 -0.1285
  709COC    COC  709   5.350   9.685   9.078  0.2265 -0.5229 -0.1389
  710COC    COC  710   5.563   9.905   9.046 -0.1999  0.2061 -0.2188
  711COC    COC  711   5.819   9.925   8.887 -0.1021  0.2947  0.3959
  712COC    COC  712   5.929  10.166   8.735 -0.0487  0.3642  0.0938
  713COC    COC  713   6.182  10.307   8.826 -0.3173 -0.0643 -0.0639
  714COC    COC  714   6.256   0.116   9.076 -0.8238  0.2691  0.1005
  715COC    COC  715   6.563   0.101   9.130 -0.0480  0.2192  0.0959
  716COC    COC  716   6.894   0.167   9.072 -0.0742 -0.0197  0.0898
  717COC    COC  717   7.081   0.055   8.852  0.3533 -0.1367  0.6193
  718COC    COC  718   7.247  10.199   9.032  0.2133  0.0238 -0.2158
  719COC    COC  719   7.153  10.038   9.261  0.0213 -0.1661  0.0975
  720COC    COC  720   7.256   9.761   9.316  0.2184  0.0397  0.0661
  721COC    COC  721   7.073   9.491   9.269  0.0145 -0.2688  0.1360
  722COC    COC  722   7.154   9.395   8.983 -0.2232 -0.2289  0.2804
  723COC    COC  723   7.188   9.672   8.817  0.0435  0.3169 -0.0428
  724COC    COC  724   7.407   9.785   8.626  0.1767 -0.2715  0.1638
  725COC    COC  725   7.431  10.087   8.629 -0.2675 -0.0610 -0.3050
  726COC    COC  726   7.756  10.057   8.692  0.0903 -0.0065 -0.1017
  727COC    COC  727   7.893   9.812   8.717 -0.2462  0.0459  0.4407
  728COC    COC  728   8.221   9.750   8.705  0.1761 -0.1562  0.0781
  729COC    COC  729   8.356   9.640   8.489  0.0893  0.2986 -0.1780
  730COC    COC  730   8.183   9.370   8.399  0.1394 -0.3905 -0.0093
  731COC    COC  731   8.298   9.132   8.277 -0.1347 -0.0492 -0.1506
  732COC    COC  732   8.516   9.048   8.072 -0.0694  0.1153 -0.0842
  733COC    COC  733   8.677   9.209   7.867  0.5325  0.1892  0.0108
  734COC    COC  734   8.624   9.208   7.610 -0.3075 -0.2223  0.6165
  735COC    COC  735   8.399   9.147   7.433  0.3210  0.1064  0.1484
  736COH    COH  736   8.445   8.919   7.379  0.1833  0.1839 -0.3685
  737COH    COH  737   0.210   8.199   7.264 -0.1122 -0.0926  0.1336
  738COC    COC  738   0.052   7.983   7.317 -0.0334 -0.3302  0.3581
  739COC    COC  739  10.329   7.904   7.015 -0.0510 -0.0561  0.1135
  740COC    COC  740  10.077   7.829   6.842 -0.0404  0.2718  0.2572
  741COC    COC  741  10.057   7.530   6.923 -0.2295 -0.0328  0.0456
  742COC    COC  742   9.800   7.488   7.059  0.2080 -0.1972  0.5951
  743COC    COC  743   9.893   7.387   7.370  0.1231  0.2618  0.1181
  744COC    COC  744   9.864   7.134   7.550  0.3611  0.0086  0.1518
  745COC    COC  745   9.584   7.019   7.657 -0.1461  0.2682 -0.2148
  746COC    COC  746   9.440   6.789   7.829  0.0333 -0.0657  0.0082
  747COC    COC  747   9.270   6.653   7.637 -0.0876 -0.0213  0.1064
  748COC    COC  748   9.171   6.764   7.379 -0.5146 -0.1439  0.0581
  749COC    COC  749   9.242   6.791   7.084  0.1409 -0.0658 -0.2268
  750COC    COC  750   9.455   6.761   6.875 -0.1340  0.3250  0.3195
  751COC    COC  751   9.524   6.526   7.064 -0.3871  0.2315 -0.1356
  752COC    COC  752   9.410   6.349   7.287 -0.1898  0.0109 -0.4188
  753COC    COC  753   9.207   6.163   7.158 -0.1374  0.1467 -0.0086
  754COC    COC  754   9.412   6.094   6.966  0.1325  0.0547  0.0445
  755COC    COC  755   9.296   6.043   6.709  0.0886 -0.0512  0.1738
  756COC    COC  756   9.086   5.873   6.544 -0.3441  0.3090 -0.1022
  757COC    COC  757   8.792   5.814   6.529 -0.4831  0.4791  0.3148
  758COC    COC  758   8.700   5.535   6.442 -0.3943  0.3535 -0.0435
  759COC    COC  759   8.431   5.487   6.353  0.1316  0.3864 -0.1259
  760COC    COC  760   8.213   5.411   6.549 -0.0932  0.2119 -0.4085
  761COC    COC  761   8.353   5.123   6.579  0.5838 -0.1922  0.0077
  762COC    COC  762   8.654   5.074   6.507  0.0504 -0.3924  0.1992
  763COC    COC  763   8.935   5.060   6.600  0.1849  0.3755 -0.0175
  764COC    COC  764   8.926   5.277   6.793 -0.1890  0.1221 -0.2163
  765COC    COC  765   9.030   5.530   6.830  0.2136 -0.4347  0.1182
  766COC    COC  766   9.277   5.702   6.924 -0.1408 -0.1552 -0.0273
  767COC    COC  767   9.574   5.682   6.863 -0.0715  0.0721 -0.1013
  768COC    COC  768   9.640   5.811   6.594  0.0037 -0.0882  0.2781
  769COC    COC  769   9.470   5.611   6.424  0.0558 -0.0533  0.0683
  770COC    COC  770   9.160   5.545   6.365 -0.3255 -0.2495  0.1043
  771COC    COC  771   9.056   5.760   6.157 -0.1520  0.1822 -0.0658
  772COC    COC  772   8.883   5.636   5.945 -0.1240  0.1049 -0.1725
  773COC    COC  773   8.993   5.412   5.736  0.1358 -0.0746  0.0312
  774COC    COC  774   9.023   5.114   5.730 -0.4394 -0.0311  0.2642
  775COC    COC  775   8.855   4.879   5.657 -0.0906  0.3304 -0.4427
  776COC    COC  776   8.808   4.608   5.526  0.3826  0.3089 -0.0820
  777COC    COC  777   8.478   4.667   5.451 -0.1096 -0.0087 -0.1901
  778COC    COC  778   8.408   4.914   5.274 -0.2143  0.0911 -0.1008
  779COC    COC  779   8.530   5.176   5.083  0.0620  0.0270 -0.1353
  780COC    COC  780   8.338   5.307   4.844 -0.0782  0.0073 -0.2701
  781COC    COC  781   8.425   5.341   4.585  0.7309 -0.0433  0.0026
  782COH    COH  782   8.662   5.239   4.550 -0.1218  0.2197  0.3487
  783COH    COH  783   1.511   8.488   7.184 -0.2378 -0.0443  0.3060
  784COC    COC  784   1.668   8.638   7.379  0.1187  0.0798 -0.0798
  785COC    COC  785   1.895   8.846   7.365  0.0157  0.1869  0.1188
  786COC    COC  786   2.043   8.795   7.136  0.1938 -0.2339 -0.2907
  787COC    COC  787   2.336   8.796   7.173 -0.0554  0.1018  0.4089
  788COC    COC  788   2.516   9.026   7.133  0.2761  0.0910  0.0891
  789COC    COC  789   2.509   9.292   6.991  0.1807  0.0772  0.1673
  790COC    COC  790   2.687   9.484   6.832  0.1697  0.0902  0.0219
  791COC    COC  791   2.953   9.608   6.930 -0.0254 -0.0711  0.3031
  792COC    COC  792   3.166   9.463   6.800 -0.0484  0.3873  0.1870
  793COC    COC  793   3.264   9.253   6.618 -0.3201 -0.0138 -0.0099
  794COC    COC  794   3.571   9.321   6.581 -0.1273 -0.2279  0.2203
  795COC    COC  795   3.702   9.467   6.775  0.3206  0.2062 -0.4989
  796COC    COC  796   3.792   9.487   7.079 -0.1200 -0.5876  0.3481
  797COC    COC  797   3.836   9.333   7.356 -0.3801 -0.1534 -0.0145
  798COC    COC  798   4.093   9.201   7.431 -0.1594 -0.0100  0.2195
  799COC    COC  799   4.208   9.077   7.187 -0.4052  0.1783  0.0185
  800COC    COC  800   4.445   8.898   7.329  0.0438 -0.1420 -0.0421
  801COC    COC  801   4.496   8.645   7.476 -0.1097  0.0443 -0.1149
  802COC    COC  802   4.476   8.424   7.710 -0.3736 -0.2594 -0.0777
  803COC    COC  803   4.611   8.425   8.009  0.1130  0.3000  0.1843
  804COC    COC  804   4.496   8.250   8.213 -0.0178  0.0882  0.3480
  805COC    COC  805   4.439   7.943   8.155 -0.0989  0.3389  0.2001
  806COC    COC  806   4.606   7.694   8.173  0.0402  0.0679  0.4022
  807COC    COC  807   4.641   7.617   7.921  0.1070  0.3296 -0.3022
  808COC    COC  808   4.447   7.671   7.712  0.2176 -0.0499  0.1637
  809COC    COC  809   4.365   7.951   7.721  0.2330 -0.0906 -0.0993
  810COC    COC  810   4.120   7.995   7.799  0.4721 -0.4386  0.1595
  811COC    COC  811   3.956   8.044   7.524  0.0550 -0.0243  0.1547
  812COC    COC  812   4.174   8.264   7.391  0.0607 -0.2250  0.1416
  813COC    COC  813   4.486   8.261   7.286  0.3563 -0.1258  0.2721
  814COC    COC  814   4.636   8.021   7.371  0.0618  0.0679 -0.2220
  815COC    COC  815   4.929   7.939   7.421 -0.1864  0.0446  0.1839
  816COC    COC  816   5.073   7.705   7.619  0.2361 -0.0403  0.1112
  817COC    COC  817   5.043   7.716   7.929  0.1001 -0.6366 -0.1358
  818COC    COC  818   5.057   7.557   8.197  0.1270 -0.2365 -0.3252
  819COC    COC  819   5.038   7.251   8.168  0.1978 -0.2484  0.0369
  820COC    COC  820   4.913   7.041   8.345 -0.0877  0.1170 -0.2816
  821COC    COC  821   4.676   6.867   8.383 -0.2395  0.0012 -0.2764
  822COC    COC  822   4.633   6.595   8.191 -0.3213 -0.2659 -0.1139
  823COC    COC  823   4.631   6.325   8.190 -0.4269 -0.4175 -0.1183
  824COC    COC  824   4.592   6.153   8.451 -0.0446  0.0001  0.1412
  825COC    COC  825   4.852   6.026   8.530 -0.0836 -0.0159  0.1123
  826COC    COC  826   4.822   6.142   8.829 -0.4191  0.1795  0.2039
  827COC    COC  827   4.867   6.371   9.047 -0.5059 -0.0948  0.2522
  828COH    COH  828   5.122   6.390   9.175 -0.3208  0.4366 -0.3744
  829COH    COH  829   8.583   0.951   1.532 -0.2650 -0.3109 -0.4568
  830COC    COC  830   8.717   0.820   1.689 -0.1134 -0.0620  0.3516
  831COC    COC  831   8.763   1.031   1.894  0.0414  0.0641  0.0719
  832COC    COC  832   8.561   0.978   2.083  0.0474  0.0126 -0.2123
  833COC    COC  833   8.464   0.711   2.196 -0.4333 -0.1626 -0.2249
  834COC    COC  834   8.567   0.559   2.420 -0.0364 -0.1554  0.2625
  835COC    COC  835   8.464   0.360   2.608  0.0372 -0.0826 -0.0579
  836COC    COC  836   8.158   0.368   2.618 -0.0398 -0.2984 -0.2254
  837COC    COC  837   7.930   0.520   2.436  0.0371 -0.0999  0.1656
  838COC    COC  838   8.034   0.719   2.246 -0.3579 -0.1150  0.0049
  839COC    COC  839   7.839   0.791   2.029  0.2664 -0.1481  0.0674
  840COC    COC  840   7.586   0.644   2.000  0.5847  0.3031 -0.0430
  841COC    COC  841   7.381   0.744   2.207  0.3280 -0.0700 -0.2448
  842COC    COC  842   7.383   1.043   2.188 -0.3671  0.0910  0.0968
  843COC    COC  843   7.629   1.258   2.159  0.1261  0.2167 -0.1141
  844COC    COC  844   7.786   1.464   2.372 -0.1850 -0.2131  0.0992
  845COC    COC  845   7.661   1.712   2.435 -0.2498  0.1868 -0.2293
  846COC    COC  846   7.813   1.971   2.461  0.1427 -0.1903 -0.1985
  847COC    COC  847   8.098   2.082   2.434 -0.1514 -0.1025  0.0193
  848COC    COC  848   8.125   2.344   2.639  0.1874 -0.2506  0.0511
  849COC    COC  849   8.112   2.177   2.884  0.3252 -0.1954 -0.0582
  850COC    COC  850   8.075   1.993   3.139 -0.0976  0.2286 -0.0784
  851COC    COC  851   7.780   1.955   3.246  0.0400  0.1077 -0.0477
  852COC    COC  852   7.686   2.211   3.290  0.2586 -0.6510 -0.2345
  853COC    COC  853   7.921   2.335   3.224 -0.3045 -0.1763  0.1215
  854COC    COC  854   7.952   2.633   3.150 -0.0329  0.0848  0.1289
  855COC    COC  855   7.728   2.784   3.026  0.2021 -0.4550  0.2817
  856COC    COC  856   7.469   2.952   3.143 -0.4226  0.0419  0.3124
  857COC    COC  857   7.231   2.923   2.978  0.1734 -0.1828  0.3295
  858COC    COC  858   7.367   2.732   2.785  0.5141 -0.2436  0.0194
  859COC    COC  859   7.195   2.491   2.795  0.0992 -0.2698  0.0928
  860COC    COC  860   6.926   2.581   2.879 -0.1339 -0.0204  0.0333
  861COC    COC  861   6.715   2.741   2.731  0.3315 -0.1210 -0.3301
  862COC    COC  862   6.598   2.796   2.429 -0.0807  0.0989 -0.0996
  863COC    COC  863   6.632   3.037   2.232 -0.1924 -0.2020 -0.4412
  864COC    COC  864   6.800   3.260   2.295  0.4387  0.0858 -0.4630
  865COC    COC  865   6.621   3.524   2.359 -0.1309  0.6682  0.1860
  866COC    COC  866   6.589   3.704   2.566 -0.3726 -0.0730 -0.1976
  867COC    COC  867   6.473   3.584   2.806  0.0920  0.0045  0.4237
  868COC    COC  868   6.589   3.673   3.055 -0.0518  0.1314  0.2897
  869COC    COC  869   6.600   3.418   3.177  0.1012  0.0337 -0.3325
  870COC    COC  870   6.427   3.216   3.288  0.0839  0.2730  0.1901
  871COC    COC  871   6.211   3.121   3.169 -0.1220  0.0630 -0.3443
  872COC    COC  872   6.114   3.176   2.907  0.3886 -0.0569 -0.2314
  873COC    COC  873   5.827   3.076   2.920 -0.1202 -0.1005  0.1577
  874COH    COH  874   5.649   3.201   2.829 -0.0297 -0.2793  0.2841
  875COH    COH  875   9.868   4.774   3.503  0.2330 -0.1270 -0.0412
  876COC    COC  876  10.127   4.726   3.434 -0.2744 -0.1733 -0.5055
  877COC    COC  877   0.063   4.646   3.614 -0.2638 -0.1034  0.1603
  878COC    COC  878   0.346   4.698   3.566  0.1463 -0.1505 -0.1839
  879COC    COC  879   0.510   4.644   3.819  0.4142 -0.0351  0.5251
  880COC    COC  880   0.797   4.511   3.770  0.3234 -0.6689 -0.1197
  881COC    COC  881   0.944   4.286   3.891 -0.5286 -0.1308  0.3196
  882COC    COC  882   0.825   4.109   3.662  0.0204 -0.0428 -0.1970
  883COC    COC  883   0.834   3.801   3.617 -0.1854 -0.2517  0.1046
  884COC    COC  884   0.913   3.568   3.805  0.1739  0.1310  0.0125
  885COC    COC  885   1.131   3.411   3.671 -0.2087  0.1250 -0.2305
  886COC    COC  886   1.410   3.469   3.776  0.4603  0.0005 -0.1192
  887COC    COC  887   1.309   3.363   4.047  0.1188  0.5042 -0.0409
  888COC    COC  888   1.052   3.536   4.184  0.2544  0.1075  0.2751
  889COC    COC  889   0.912   3.804   4.191 -0.0019  0.0483  0.2403
  890COC    COC  890   0.730   3.958   4.043  0.1742  0.0374 -0.0995
  891COC    COC  891   0.524   4.228   4.049 -0.3720 -0.2028 -0.1675
  892COC    COC  892   0.530   4.310   4.339  0.2798 -0.2958 -0.2452
  893COC    COC  893   0.805   4.230   4.481  0.2107 -0.5279  0.1374
  894COC    COC  894   0.942   4.211   4.748  0.2243 -0.2852 -0.3368
  895COC    COC  895   1.100   4.452   4.905 -0.0173  0.0695  0.0369
  896COC    COC  896   0.973   4.722   4.764 -0.1615  0.0722 -0.3867
  897COC    COC  897   0.827   4.676   4.481  0.1897 -0.1015 -0.0054
  898COC    COC  898   0.674   4.862   4.239  0.2797 -0.0351 -0.3063
  899COC    COC  899   0.454   5.029   4.122 -0.1384  0.0509  0.0343
  900COC    COC  900   0.245   5.020   3.894  0.1899  0.2399 -0.0358
  901COC    COC  901   0.229   5.327   3.863 -0.0300 -0.5094  0.3089
  902COC    COC  902   0.439   5.535   3.849 -0.3070 -0.0408  0.2145
  903COC    COC  903   0.511   5.733   3.638 -0.2692  0.0281 -0.0496
  904COC    COC  904   0.661   5.567   3.429  0.1127  0.2642  0.2661
  905COC    COC  905   0.595   5.287   3.332  0.0860 -0.1491 -0.2917
  906COC    COC  906   0.567   5.131   3.578  0.2308  0.2302  0.2216
  907COC    COC  907   0.758   5.023   3.769 -0.0268  0.2359 -0.1279
  908COC    COC  908   1.061   5.103   3.827  0.1051  0.4392 -0.0493
  909COC    COC  909   1.169   5.381   3.765  0.0558  0.0401 -0.1371
  910COC    COC  910   1.349   5.573   3.803 -0.4815 -0.3843 -0.0095
  911COC    COC  911   1.514   5.609   4.070  0.0643  0.1336 -0.0245
  912COC    COC  912   1.514   5.354   4.222 -0.0163 -0.0833  0.1027
  913COC    COC  913   1.764   5.206   4.374 -0.3710 -0.5890 -0.0868
  914COC    COC  914   1.875   5.477   4.429  0.0910  0.0762  0.0238
  915COC    COC  915   1.893   5.589   4.701 -0.1285  0.3358 -0.3148
  916COC    COC  916   2.144   5.662   4.892  0.2038  0.2962 -0.0884
  917COC    COC  917   2.405   5.625   4.739  0.1291 -0.2026 -0.0257
  918COC    COC  918   2.680   5.734   4.687 -0.1227  0.2275  0.1767
  919COC    COC  919   2.908   5.845   4.901  0.4975 -0.0581 -0.3013
  920COH    COH  920   3.149   5.799   4.996  0.0452 -0.2216  0.0560
  921COH    COH  921   4.904   6.492   2.357  0.7596  0.0830  0.4020
  922COC    COC  922   4.806   6.566   2.104  0.4499 -0.1751 -0.0374
  923COC    COC  923   4.951   6.782   1.953  0.0739 -0.0653 -0.2054
  924COC    COC  924   5.092   7.019   2.044 -0.0907 -0.1130  0.2597
  925COC    COC  925   5.404   7.005   1.916  0.2892  0.1109 -0.1731
  926COC    COC  926   5.302   7.137   1.659 -0.2022  0.1957  0.1462
  927COC    COC  927   4.997   7.117   1.619  0.2582  0.2556  0.1264
  928COC    COC  928   4.981   7.207   1.335  0.0344 -0.0728 -0.6648
  929COC    COC  929   5.034   7.462   1.209  0.0522  0.1876 -0.2314
  930COC    COC  930   5.256   7.539   0.991 -0.0443  0.0743  0.3746
  931COC    COC  931   5.409   7.749   1.148 -0.3287  0.1359  0.2518
  932COC    COC  932   5.626   7.844   1.316  0.4775  0.1144  0.2968
  933COC    COC  933   5.891   7.678   1.358 -0.0522  0.1347 -0.0796
  934COC    COC  934   5.918   7.369   1.381  0.1252  0.0673  0.8930
  935COC    COC  935   5.867   7.089   1.190 -0.0399  0.2414  0.3277
  936COC    COC  936   6.019   6.905   0.997 -0.2756 -0.0483  0.0684
  937COC    COC  937   5.975   6.680   0.783  0.0461 -0.6524  0.3161
  938COC    COC  938   6.207   6.537   0.656  0.3669 -0.2132 -0.2189
  939COC    COC  939   6.046   6.272   0.574 -0.5464 -0.8167  0.4071
  940COC    COC  940   5.947   6.324   0.296  0.1484 -0.0251 -0.0324
  941COC    COC  941   5.970   6.613   0.153 -0.3304 -0.0995 -0.0952
  942COC    COC  942   5.812   6.887   0.090  0.0737  0.1902  0.0114
  943COC    COC  943   6.009   7.115   0.011  0.5465  0.2159  0.0673
  944COC    COC  944   5.811   7.255  10.182  0.0557 -0.1220 -0.1601
  945COC    COC  945   5.874   7.533  10.253  0.0365 -0.0809  0.3321
  946COC    COC  946   5.604   7.700  10.304 -0.0603  0.2720  0.0572
  947COC    COC  947   5.564   7.980   0.116 -0.2101  0.2368  0.0773
  948COC    COC  948   5.389   8.000   0.356  0.2388 -0.3282  0.0871
  949COC    COC  949   5.516   8.197   0.546  0.1261 -0.3143 -0.2720
  950COC    COC  950   5.789   8.286   0.413 -0.2495 -0.0142 -0.3842
  951COC    COC  951   5.949   8.104   0.249 -0.2642  0.1481 -0.0966
  952COC    COC  952   5.914   7.808   0.299  0.3907  0.0455 -0.4048
  953COC    COC  953   6.235   7.756   0.346  0.6410  0.3307 -0.2515
  954COC    COC  954   6.333   7.904   0.085 -0.1778 -0.2011 -0.4603
  955COC    COC  955   6.328   8.202   0.088  0.0143 -0.5278  0.1284
  956COC    COC  956   6.206   8.352  10.220  0.1849  0.2837  0.1959
  957COC    COC  957   6.368   8.453   9.954 -0.1194 -0.1395 -0.0019
  958COC    COC  958   6.641   8.573   9.980 -0.3999 -0.1937 -0.1104
  959COC    COC  959   6.749   8.679   9.703  0.1255  0.3703  0.0385
  960COC    COC  960   6.643   8.959   9.667  0.2855  0.0477 -0.2709
  961COC    COC  961   6.320   8.959   9.657  0.1766 -0.0951 -0.5912
  962COC    COC  962   6.071   8.889   9.817 -0.1988  0.0904  0.2224
  963COC    COC  963   5.845   8.800   9.639 -0.2799  0.6844  0.1789
  964COC    COC  964   5.892   8.761   9.345 -0.3500 -0.1725 -0.1652
  965COC    COC  965   5.821   8.571   9.140  0.0469  0.0226  0.1338
  966COH    COH  966   5.605   8.374   9.070 -0.0470 -0.0751 -0.5306
  967COH    COH  967   0.374   8.624   8.587 -0.1512  0.2922  0.2142
  968COC    COC  968   0.433   8.550   8.343  0.2783  0.0292  0.2829
  969COC    COC  969   0.421   8.249   8.285 -0.1332 -0.2259  0.0141
  970COC    COC  970   0.385   8.078   8.562 -0.0933 -0.3933 -0.1161
  971COC    COC  971   0.586   7.994   8.734 -0.3088 -0.0190 -0.4119
  972COC    COC  972   0.784   8.046   8.941  0.3324 -0.4018 -0.0222
  973COC    COC  973   0.997   8.275   8.977  0.4256 -0.1676  0.1508
  974COC    COC  974   1.213   8.354   8.758 -0.1027 -0.0007 -0.3339
  975COC    COC  975   1.454   8.144   8.848  0.0381 -0.1186 -0.1076
  976COC    COC  976   1.682   7.958   8.711 -0.2226  0.0503 -0.0214
  977COC    COC  977   1.647   7.696   8.875 -0.0893 -0.2536  0.3035
  978COC    COC  978   1.520   7.592   9.136  0.1073 -0.9091  0.1397
  979COC    COC  979   1.526   7.395   9.392 -0.0915  0.3490  0.0427
  980COC    COC  980   1.553   7.142   9.254  0.0474 -0.0189 -0.3024
  981COC    COC  981   1.341   6.987   9.134  0.5841  0.0654 -0.4320
  982COC    COC  982   1.397   6.684   8.969 -0.1074  0.2905  0.4913
  983COC    COC  983   1.531   6.768   8.717  0.1074 -0.1391 -0.0619
  984COC    COC  984   1.792   6.815   8.612 -0.0452 -0.0845 -0.0507
  985COC    COC  985   1.834   7.089   8.461 -0.3041 -0.1304  0.3100
  986COC    COC  986   1.892   7.268   8.222  0.1171 -0.4378 -0.1536
  987COC    COC  987   1.633   7.387   8.054  0.1238  0.1115  0.1131
  988COC    COC  988   1.337   7.449   8.092  0.2646 -0.1475 -0.2631
  989COC    COC  989   1.143   7.428   7.868 -0.1266 -0.3932 -0.1904
  990COC    COC  990   0.873   7.277   7.882 -0.1252 -0.3556  0.2650
  991COC    COC  991   0.692   7.493   7.950  0.1851  0.0266 -0.0567
  992COC    COC  992   0.538   7.353   8.177 -0.1903  0.1522  0.6842
  993COC    COC  993   0.615   7.038   8.139 -0.2744 -0.3328 -0.2515
  994COC    COC  994   0.734   6.757   8.188 -0.0055 -0.4793  0.1993
  995COC    COC  995   0.960   6.581   8.094  0.1685 -0.2458 -0.0346
  996COC    COC  996   1.148   6.384   8.291  0.3285  0.2789 -0.5791
  997COC    COC  997   1.420   6.501   8.403  0.0656  0.0137 -0.1129
  998COC    COC  998   1.570   6.591   8.159  0.2764 -0.1896 -0.4167
  999COC    COC  999   1.774   6.798   8.124  0.3527 -0.4455 -0.0464
 1000COC    COC 1000   2.058   6.733   8.264  0.0237  0.3489 -0.0013
 1001COC    COC 1001   2.227   6.494   8.212 -0.0082 -0.3394 -0.1879
 1002COC    COC 1002   2.446   6.324   8.396 -0.0670  0.3480  0.2454
 1003COC    COC 1003   2.600   6.056   8.440 -0.3345 -0.2096  0.1730
 1004COC    COC 1004   2.761   6.070   8.220 -0.0100  0.4918  0.3284
 1005COC    COC 1005   2.973   5.838   8.289 -0.2611 -0.1961 -0.0098
 1006COC    COC 1006   3.147   5.778   8.036  0.2160  0.1707  0.3472
 1007COC    COC 1007   3.454   5.851   7.964  0.1816  0.1947  0.0759
 1008COC    COC 1008   3.466   6.142   7.838  0.3472  0.1084  0.0420
 1009COC    COC 1009   3.335   6.110   7.551 -0.2029 -0.1368  0.3687
 1010COC    COC 1010   3.335   5.826   7.521 -0.1587 -0.0607  0.0563
 1011COC    COC 1011   3.219   5.558   7.636 -0.0572 -0.0075 -0.0319
 1012COH    COH 1012   3.321   5.352   7.530 -0.1036  0.1444  0.0932
 1013COH    COH 1013   6.768   4.534   9.956  0.1117 -0.1789  0.1192
 1014COC    COC 1014   6.889   4.306   9.876 -0.1254  0.0712 -0.0931
 1015COC    COC 1015   7.201   4.314   9.943  0.4439  0.1540  0.2777
 1016COC    COC 1016   7.509   4.266   9.869 -0.0197  0.5909 -0.1108
 1017COC    COC 1017   7.778   4.113   9.839 -0.0965 -0.0670  0.4511
 1018COC    COC 1018   7.932   4.162  10.150 -0.0875  0.2536  0.1023
 1019COC    COC 1019   8.080   4.092   0.094 -0.2128  0.2246 -0.0655
 1020COC    COC 1020   7.822   4.172   0.253 -0.0857  0.2934 -0.0403
 1021COC    COC 1021   7.594   4.040   0.400  0.4432 -0.1809  0.3530
 1022COC    COC 1022   7.530   3.777   0.535  0.3791  0.0257 -0.0842
 1023COC    COC 1023   7.445   3.511   0.379  0.1520 -0.0791  0.2592
 1024COC    COC 1024   7.393   3.283   0.510  0.2965 -0.3517  0.2469
 1025COC    COC 1025   7.190   3.224   0.732  0.0870  0.1012  0.2173
 1026COC    COC 1026   6.961   3.444   0.836  0.3054 -0.1385 -0.2381
 1027COC    COC 1027   7.055   3.666   1.016 -0.2155 -0.2273 -0.0296
 1028COC    COC 1028   7.095   3.945   0.925 -0.1421 -0.0851 -0.2247
 1029COC    COC 1029   7.098   4.166   1.148 -0.0879 -0.2773 -0.0247
 1030COC    COC 1030   7.366   4.097   1.321  0.3695 -0.0010  0.0713
 1031COC    COC 1031   7.420   4.042   1.607 -0.2814  0.1004  0.0685
 1032COC    COC 1032   7.387   4.139   1.923  0.2106  0.2216 -0.2817
 1033COC    COC 1033   7.373   3.895   2.120 -0.2242 -0.0462  0.1996
 1034COC    COC 1034   7.481   3.672   1.955 -0.1099 -0.1887 -0.2513
 1035COC    COC 1035   7.556   3.676   1.630 -0.1968  0.2661  0.1077
 1036COC    COC 1036   7.642   3.724   1.339 -0.0250 -0.2585 -0.2184
 1037COC    COC 1037   7.797   4.033   1.321 -0.2631  0.3559  0.2931
 1038COC    COC 1038   7.907   4.207   1.552  0.0124  0.2210  0.3793
 1039COC    COC 1039   7.714   4.384   1.730 -0.2794 -0.0836  0.4350
 1040COC    COC 1040   7.802   4.681   1.671  0.0201 -0.2725 -0.1471
 1041COC    COC 1041   7.664   4.727   1.391 -0.4819 -0.4289  0.0416
 1042COC    COC 1042   7.637   4.410   1.245 -0.1354  0.0515 -0.4252
 1043COC    COC 1043   7.405   4.487   1.035 -0.2361 -0.0455  0.4354
 1044COC    COC 1044   7.155   4.678   1.060  0.0309 -0.0057 -0.4030
 1045COC    COC 1045   7.114   4.703   0.773  0.0878 -0.2372 -0.0307
 1046COC    COC 1046   7.372   4.625   0.577 -0.1528  0.2817 -0.0850
 1047COC    COC 1047   7.651   4.501   0.600  0.1716  0.0258 -0.2724
 1048COC    COC 1048   7.839   4.556   0.836 -0.0058  0.1279 -0.0087
 1049COC    COC 1049   8.048   4.764   0.734  0.1043 -0.2104  0.0106
 1050COC    COC 1050   8.350   4.845   0.832  0.3125 -0.1363  0.3315
 1051COC    COC 1051   8.488   5.061   1.010 -0.0953 -0.1947 -0.5177
 1052COC    COC 1052   8.680   5.101   1.192  0.0413  0.0442 -0.4685
 1053COC    COC 1053   8.782   4.968   1.448 -0.4975  0.4422 -0.2219
 1054COC    COC 1054   8.752   4.969   1.751  0.0945  0.0619  0.0381
 1055COC    COC 1055   8.771   4.781   2.019 -0.0842 -0.0231 -0.0222
 1056COC    COC 1056   8.881   4.687   2.268  0.2723  0.2625  0.0044
 1057COC    COC 1057   9.194   4.803   2.235  0.3249 -0.2507 -0.1473
 1058COH    COH 1058   9.312   4.623   2.054  0.0292  0.0276  0.0140
 1059COH    COH 1059   1.056   3.187   0.050  0.2658 -0.0882 -0.2245
 1060COC    COC 1060   0.872   3.157   0.256 -0.0480  0.1582 -0.1087
 1061COC    COC 1061   0.994   3.102   0.518  0.1837  0.3457 -0.1124
 1062COC    COC 1062   1.202   3.296   0.517 -0.2728  0.3783 -0.2369
 1063COC    COC 1063   1.159   3.496   0.735  0.1638  0.0102 -0.1134
 1064COC    COC 1064   1.440   3.572   0.844  0.0921 -0.0820  0.0436
 1065COC    COC 1065   1.518   3.833   0.905 -0.2145  0.1449  0.3212
 1066COC    COC 1066   1.719   3.899   1.103 -0.1524  0.0102  0.1295
 1067COC    COC 1067   1.996   4.059   1.164  0.0987 -0.3458 -0.2795
 1068COC    COC 1068   2.006   4.152   1.469 -0.2676  0.0186  0.2084
 1069COC    COC 1069   1.833   4.269   1.682  0.0365 -0.4390  0.1895
 1070COC    COC 1070   1.663   4.099   1.875  0.2924 -0.4352 -0.0219
 1071COC    COC 1071   1.797   4.097   2.175 -0.2103 -0.4650  0.1504
 1072COC    COC 1072   2.073   4.219   2.236  0.3428  0.2740 -0.1583
 1073COC    COC 1073   2.269   4.331   2.058 -0.1109  0.0616 -0.0959
 1074COC    COC 1074   2.437   4.212   1.816  0.0475 -0.1428  0.0946
 1075COC    COC 1075   2.631   4.381   1.650  0.1425  0.6121 -0.2115
 1076COC    COC 1076   2.668   4.580   1.836 -0.1461  0.0669 -0.1338
 1077COC    COC 1077   2.876   4.740   1.703 -0.3135 -0.1195 -0.1035
 1078COC    COC 1078   2.987   4.534   1.494  0.1012  0.2101 -0.0835
 1079COC    COC 1079   3.260   4.561   1.563  0.3604  0.2912 -0.0322
 1080COC    COC 1080   3.286   4.806   1.683 -0.1127 -0.0119 -0.3273
 1081COC    COC 1081   3.475   5.006   1.687  0.2305 -0.0790  0.2984
 1082COC    COC 1082   3.725   5.012   1.891 -0.3833 -0.1717 -0.0026
 1083COC    COC 1083   3.963   5.181   1.764  0.2785  0.1234  0.1514
 1084COC    COC 1084   3.982   5.232   1.487 -0.0817 -0.0669  0.0486
 1085COC    COC 1085   4.210   5.373   1.296 -0.1638 -0.2957 -0.3916
 1086COC    COC 1086   4.498   5.247   1.294 -0.2705 -0.0906 -0.3314
 1087COC    COC 1087   4.713   5.434   1.295  0.0370 -0.2095  0.0405
 1088COC    COC 1088   4.879   5.696   1.241  0.0559 -0.0438  0.1271
 1089COC    COC 1089   5.114   5.617   1.077 -0.0713 -0.1851  0.0159
 1090COC    COC 1090   5.328   5.792   1.080 -0.3513 -0.3612 -0.0658
 1091COC    COC 1091   5.496   5.833   1.352  0.0426 -0.2612  0.1920
 1092COC    COC 1092   5.723   6.021   1.415 -0.4386 -0.0548  0.4126
 1093COC    COC 1093   5.961   6.048   1.670 -0.0059 -0.0992  0.1095
 1094COC    COC 1094   5.908   5.844   1.864  0.0600 -0.3108  0.1674
 1095COC    COC 1095   5.866   5.588   1.705 -0.1589 -0.1532 -0.1838
 1096COC    COC 1096   5.634   5.485   1.828 -0.0696  0.1188  0.0719
 1097COC    COC 1097   5.517   5.217   1.936 -0.3259 -0.4235  0.0205
 1098COC    COC 1098   5.278   5.092   1.799  0.1530  0.2943 -0.1642
 1099COC    COC 1099   4.995   5.181   1.941  0.0892 -0.2762 -0.0832
 1100COC    COC 1100   5.089   5.462   2.031 -0.1379 -0.0588  0.2920
 1101COC    COC 1101   4.929   5.700   1.942  0.1389  0.0290  0.1940
 1102COC    COC 1102   4.786   5.559   1.733  0.2529 -0.0196  0.0588
 1103COC    COC 1103   4.617   5.763   1.560 -0.1941 -0.1510  0.3250
 1104COH    COH 1104   4.560   5.999   1.688  0.2190 -0.0163  0.1243
 1105COH    COH 1105   2.512   6.698   8.241 -0.0226  0.3014 -0.0383
 1106COC    COC 1106   2.742   6.589   8.203  0.1913 -0.1401 -0.1847
 1107COC    COC 1107   2.822   6.458   8.446  0.0963 -0.1519  0.3762
 1108COC    COC 1108   2.987   6.615   8.652 -0.1123  0.3179 -0.3071
 1109COC    COC 1109   3.090   6.560   8.940  0.0758 -0.2430 -0.0775
 1110COC    COC 1110   2.914   6.443   9.186 -0.0582  0.0125 -0.0859
 1111COC    COC 1111   3.031   6.341   9.472  0.5482  0.0376  0.3558
 1112COC    COC 1112   3.005   6.108   9.592 -0.1277 -0.2519 -0.8837
 1113COC    COC 1113   2.756   6.036   9.768 -0.3695 -0.0595  0.0478
 1114COC    COC 1114   2.580   6.060   9.995  0.5855  0.1677 -0.0454
 1115COC    COC 1115   2.329   5.967  10.139  0.0158 -0.0292  0.2033
 1116COC    COC 1116   2.303   6.013   0.141  0.0735  0.0305  0.2457
 1117COC    COC 1117   2.463   6.247   0.250 -0.0560 -0.2446 -0.1201
 1118COC    COC 1118   2.293   6.490   0.342 -0.3900  0.0839  0.3648
 1119COC    COC 1119   2.018   6.506   0.234 -0.4959 -0.0048  0.2418
 1120COC    COC 1120   2.019   6.712  10.317 -0.2163 -0.0143 -0.1416
 1121COC    COC 1121   1.707   6.664  10.231 -0.0705 -0.2133  0.1760
 1122COC    COC 1122   1.776   6.469  10.018 -0.2580  0.2599  0.3040
 1123COC    COC 1123   1.958   6.263  10.143  0.0466  0.0438  0.0576
 1124COC    COC 1124   1.866   6.011  10.177 -0.0755  0.3796 -0.5520
 1125COC    COC 1125   1.805   5.880   0.113 -0.5307 -0.6883  0.3376
 1126COC    COC 1126   1.889   6.042   0.368  0.0856 -0.0230 -0.4207
 1127COC    COC 1127   1.873   5.876   0.631  0.0558 -0.0566  0.1384
 1128COC    COC 1128   1.564   5.818   0.693  0.1901 -0.0147  0.2374
 1129COC    COC 1129   1.460   5.561   0.555 -0.0376 -0.0350 -0.4404
 1130COC    COC 1130   1.375   5.574   0.292  0.1387 -0.6518  0.3142
 1131COC    COC 1131   1.208   5.551   0.024 -0.2297 -0.1196 -0.3205
 1132COC    COC 1132   0.973   5.349  10.307 -0.3651 -0.3482  0.2894
 1133COC    COC 1133   0.698   5.321  10.122 -0.2750  0.0913  0.2956
 1134COC    COC 1134   0.409   5.392  10.147  0.1575 -0.3064  0.0669
 1135COC    COC 1135   0.227   5.190  10.124 -0.1640 -0.4889 -0.2796
 1136COC    COC 1136   0.117   4.906  10.214 -0.3590 -0.4366  0.3206
 1137COC    COC 1137   0.378   4.736  10.307  0.4525 -0.0130 -0.3308
 1138COC    COC 1138   0.308   4.449  10.176 -0.3314  0.1590  0.3979
 1139COC    COC 1139   0.150   4.545   9.936  0.1256 -0.2944  0.0697
 1140COC    COC 1140  10.337   4.353   9.824  0.1031 -0.0565  0.1879
 1141COC    COC 1141  10.186   4.109   9.987 -0.1457  0.1486  0.2114
 1142COC    COC 1142  10.287   3.963  10.222 -0.2251 -0.0563 -0.0251
 1143COC    COC 1143  10.183   4.077   0.161 -0.0262  0.0020 -0.2047
 1144COC    COC 1144  10.164   4.153   0.446  0.2018 -0.6407  0.0423
 1145COC    COC 1145   0.106   4.281   0.520 -0.0490 -0.0981  0.0840
 1146COC    COC 1146   0.151   4.369   0.797 -0.0353  0.3087 -0.2013
 1147COC    COC 1147   0.411   4.462   0.908  0.5075  0.0114 -0.1033
 1148COC    COC 1148   0.491   4.602   1.190 -0.0344  0.3579  0.0740
 1149COC    COC 1149   0.776   4.602   1.264 -0.3030  0.2251  0.2073
 1150COH    COH 1150   0.844   4.843   1.330  0.3515 -0.0379  0.0489
 1151COH    COH 1151   1.895   8.229   6.938  0.1349  0.1129 -0.2900
 1152COC    COC 1152   1.918   8.217   7.232 -0.0148  0.3409 -0.1011
 1153COC    COC 1153   2.132   8.001   7.182 -0.3137 -0.3061  0.3451
 1154COC    COC 1154   2.286   7.788   7.360 -0.1635 -0.0831 -0.0074
 1155COC    COC 1155   2.538   7.946   7.295 -0.1471  0.2357 -0.3475
 1156COC    COC 1156   2.693   7.842   7.075 -0.2040 -0.2899 -0.2621
 1157COC    COC 1157   2.820   7.957   6.813 -0.0608  0.3497 -0.1065
 1158COC    COC 1158   2.786   7.701   6.601 -0.1923  0.0350  0.1040
 1159COC    COC 1159   2.582   7.649   6.377  0.0295 -0.5366 -0.4247
 1160COC    COC 1160   2.330   7.805   6.485 -0.2905  0.2319  0.3254
 1161COC    COC 1161   2.314   7.912   6.776  0.1368  0.1585 -0.0639
 1162COC    COC 1162   2.403   8.187   6.898 -0.0161  0.1328 -0.0363
 1163COC    COC 1163   2.227   8.454   6.879  0.0609 -0.1083  0.1606
 1164COC    COC 1164   2.358   8.669   6.715  0.2062 -0.6121  0.3261
 1165COC    COC 1165   2.143   8.753   6.464  0.1549  0.2391  0.0891
 1166COC    COC 1166   2.144   8.663   6.225 -0.3436  0.0579 -0.0620
 1167COC    COC 1167   1.986   8.449   6.176  0.0700 -0.1130  0.4622
 1168COC    COC 1168   1.957   8.181   6.092  0.0514 -0.2338 -0.5528
 1169COC    COC 1169   1.652   8.132   6.166 -0.3951  0.2172  0.3962
 1170COC    COC 1170   1.378   8.062   6.052 -0.1948 -0.3664 -0.1455
 1171COC    COC 1171   1.157   8.305   6.032 -0.1469  0.4793  0.3478
 1172COC    COC 1172   1.113   8.268   5.714  0.2825 -0.0268  0.5565
 1173COC    COC 1173   1.379   8.253   5.585  0.0126  0.0741  0.0635
 1174COC    COC 1174   1.546   8.482   5.528  0.5910  0.3451  0.2637
 1175COC    COC 1175   1.687   8.540   5.267 -0.2193  0.2218 -0.0948
 1176COC    COC 1176   1.558   8.760   5.077 -0.0956 -0.3220  0.3122
 1177COC    COC 1177   1.494   8.561   4.889  0.0458 -0.3060  0.3277
 1178COC    COC 1178   1.278   8.360   4.864  0.0497  0.0739 -0.4556
 1179COC    COC 1179   1.180   8.132   5.045  0.1223  0.2980 -0.1109
 1180COC    COC 1180   1.050   8.081   5.314 -0.0940  0.1690 -0.1343
 1181COC    COC 1181   0.819   8.155   5.470 -0.3853  0.5828  0.2315
 1182COC    COC 1182   0.544   8.274   5.393 -0.0866 -0.3175 -0.1747
 1183COC    COC 1183   0.354   8.249   5.166  0.2928  0.3421 -0.2653
 1184COC    COC 1184   0.091   8.135   5.135  0.0185  0.2505 -0.6470
 1185COC    COC 1185   0.046   7.851   5.092 -0.0125  0.0014 -0.3803
 1186COC    COC 1186   0.191   7.571   5.116 -0.1868 -0.0890 -0.1272
 1187COC    COC 1187   0.383   7.521   4.811  0.0644  0.1255 -0.2011
 1188COC    COC 1188   0.618   7.660   4.644  0.2742 -0.0429  0.1953
 1189COC    COC 1189   0.645   7.940   4.509  0.1716 -0.0286  0.3493
 1190COC    COC 1190   0.808   7.970   4.271 -0.1052 -0.0421  0.1545
 1191COC    COC 1191   0.805   7.939   3.964 -0.0291 -0.3236  0.3746
 1192COC    COC 1192   0.982   7.992   3.717 -0.0926  0.0592 -0.0692
 1193COC    COC 1193   0.890   7.746   3.528  0.1042 -0.2308  0.0809
 1194COC    COC 1194   1.142   7.642   3.419 -0.3230  0.2358 -0.0615
 1195COC    COC 1195   1.414   7.723   3.569  0.1469 -0.2719 -0.1450
 1196COH    COH 1196   1.626   7.692   3.420 -0.3330  0.2083 -0.4551
 1197COH    COH 1197   6.650   9.133   5.476  0.1467  0.2445 -0.4323
 1198COC    COC 1198   6.659   9.180   5.764 -0.2471  0.1010  0.1595
 1199COC    COC 1199   6.857   9.039   5.941  0.0368  0.3688 -0.0013
 1200COC    COC 1200   6.747   8.833   6.163  0.1313  0.1984  0.4326
 1201COC    COC 1201   6.566   8.605   6.085 -0.3646  0.3020  0.0653
 1202COC    COC 1202   6.373   8.748   5.908 -0.1834 -0.1453  0.1605
 1203COC    COC 1203   6.211   8.962   5.910 -0.0362 -0.2662  0.0702
 1204COC    COC 1204   6.274   9.199   6.070 -0.1084 -0.1961 -0.3989
 1205COC    COC 1205   6.229   9.244   6.373 -0.2120  0.2422 -0.0646
 1206COC    COC 1206   6.389   9.485   6.537 -0.0520  0.2438 -0.0982
 1207COC    COC 1207   6.296   9.643   6.768  0.0477 -0.2909 -0.0946
 1208COC    COC 1208   6.486   9.812   6.968  0.2154 -0.0575  0.1542
 1209COC    COC 1209   6.370  10.077   6.878 -0.1271 -0.0992 -0.0622
 1210COC    COC 1210   6.573  10.281   6.749 -0.5509 -0.2055  0.1358
 1211COC    COC 1211   6.525   0.237   6.666 -0.0600  0.0366 -0.1631
 1212COC    COC 1212   6.281   0.407   6.760 -0.4003 -0.2246  0.0339
 1213COC    COC 1213   6.353   0.704   6.748 -0.1076  0.1211  0.2141
 1214COC    COC 1214   6.480   0.871   6.958 -0.0720 -0.0207 -0.2400
 1215COC    COC 1215   6.572   1.114   6.809 -0.2278  0.0990 -0.4220
 1216COC    COC 1216   6.412   1.091   6.526 -0.0040  0.2293 -0.3116
 1217COC    COC 1217   6.385   1.073   6.208  0.3492 -0.1825 -0.2244
 1218COC    COC 1218   6.309   1.312   6.023  0.2315 -0.0260  0.0729
 1219COC    COC 1219   6.060   1.449   5.985  0.3468 -0.3033  0.3757
 1220COC    COC 1220   5.980   1.599   5.696 -0.0215 -0.0091 -0.2577
 1221COC    COC 1221   6.160   1.605   5.444  0.2538  0.3001  0.4295
 1222COC    COC 1222   6.392   1.800   5.321  0.2332  0.1549  0.1163
 1223COC    COC 1223   6.333   1.868   5.027  0.1212 -0.1785 -0.1958
 1224COC    COC 1224   6.357   1.852   4.730 -0.1540  0.2608  0.1964
 1225COC    COC 1225   6.466   1.567   4.774  0.2076 -0.2877  0.2098
 1226COC    COC 1226   6.674   1.374   4.676 -0.0887  0.0844 -0.1105
 1227COC    COC 1227   6.916   1.460   4.539 -0.0858  0.1422  0.0547
 1228COC    COC 1228   6.879   1.700   4.381 -0.4118  0.1112  0.0064
 1229COC    COC 1229   7.151   1.704   4.270 -0.2068 -0.2162 -0.1187
 1230COC    COC 1230   7.355   1.609   4.068 -0.0770  0.1624  0.2888
 1231COC    COC 1231   7.504   1.810   3.939 -0.1083  0.3327 -0.0043
 1232COC    COC 1232   7.675   2.029   3.861  0.0316 -0.0402  0.2941
 1233COC    COC 1233   7.697   2.327   3.808  0.0775  0.0652 -0.0133
 1234COC    COC 1234   7.430   2.386   3.658 -0.1217  0.3095 -0.1657
 1235COC    COC 1235   7.182   2.315   3.588  0.0131  0.2247 -0.2144
 1236COC    COC 1236   7.042   2.220   3.368  0.1937 -0.1821  0.0337
 1237COC    COC 1237   7.155   2.147   3.094  0.0546 -0.0532 -0.0555
 1238COC    COC 1238   7.024   2.083   2.827  0.1947 -0.4027  0.1154
 1239COC    COC 1239   6.878   1.797   2.756  0.0258 -0.1098  0.0576
 1240COC    COC 1240   7.134   1.672   2.682 -0.0839  0.1115  0.3197
 1241COC    COC 1241   7.237   1.592   2.364 -0.1036 -0.3816  0.2467
 1242COH    COH 1242   7.092   1.512   2.140 -0.8173 -0.3859 -0.0717
 1243COH    COH 1243   6.607   5.364   4.001  0.0108  0.4651  0.0393
 1244COC    COC 1244   6.751   5.232   4.144 -0.0569  0.1621 -0.1330
 1245COC    COC 1245   6.646   4.989   4.347  0.1098 -0.1348 -0.0896
 1246COC    COC 1246   6.765   5.031   4.614  0.1322  0.0425  0.1449
 1247COC    COC 1247   6.637   5.044   4.928 -0.2758 -0.1195  0.1154
 1248COC    COC 1248   6.646   5.021   5.241  0.5611  0.0551  0.2837
 1249COC    COC 1249   6.350   4.885   5.332  0.1022 -0.4773 -0.2074
 1250COC    COC 1250   6.226   4.666   5.173  0.3193  0.4104  0.1953
 1251COC    COC 1251   5.935   4.589   5.300  0.1719 -0.0840  0.2373
 1252COC    COC 1252   5.713   4.725   5.479 -0.3560 -0.0324  0.4359
 1253COC    COC 1253   5.666   4.995   5.555  0.2448 -0.0667 -0.5922
 1254COC    COC 1254   5.832   5.161   5.759 -0.1887  0.1829 -0.0030
 1255COC    COC 1255   6.160   5.198   5.793  0.0607 -0.1146 -0.1158
 1256COC    COC 1256   6.238   5.333   5.529  0.0609  0.0897  0.1213
 1257COC    COC 1257   6.020   5.466   5.356 -0.5206 -0.1301  0.3511
 1258COC    COC 1258   6.010   5.745   5.307 -0.0807  0.2886  0.0562
 1259COC    COC 1259   5.948   5.987   5.134 -0.1215 -0.2481 -0.1301
 1260COC    COC 1260   5.797   5.897   4.874  0.0908  0.0880 -0.1414
 1261COC    COC 1261   5.931   6.065   4.687 -0.1983  0.0288 -0.1795
 1262COC    COC 1262   6.027   5.943   4.410  0.5847 -0.2108  0.4930
 1263COC    COC 1263   6.285   5.806   4.429  0.1409 -0.1644  0.1065
 1264COC    COC 1264   6.433   5.700   4.168 -0.0230  0.0792 -0.2230
 1265COC    COC 1265   6.226   5.532   4.015  0.1768 -0.1543  0.2045
 1266COC    COC 1266   6.109   5.214   4.078 -0.1597 -0.0166 -0.2213
 1267COC    COC 1267   5.926   5.020   3.866 -0.2926 -0.1215  0.0016
 1268COC    COC 1268   5.706   5.207   3.747  0.0876  0.0954 -0.0352
 1269COC    COC 1269   5.632   5.301   3.492  0.7005  0.2247 -0.0264
 1270COC    COC 1270   5.466   5.215   3.273 -0.1709 -0.1667  0.2185
 1271COC    COC 1271   5.248   5.421   3.143  0.1611 -0.0005  0.3284
 1272COC    COC 1272   4.964   5.385   3.027  0.1751 -0.1552  0.5454
 1273COC    COC 1273   4.890   5.580   2.778  0.1741  0.3325 -0.0315
 1274COC    COC 1274   4.591   5.610   2.803  0.3864 -0.6091 -0.2460
 1275COC    COC 1275   4.630   5.902   2.889  0.3827 -0.0568 -0.3100
 1276COC    COC 1276   4.670   5.987   3.176  0.2077 -0.3589 -0.3490
 1277COC    COC 1277   4.783   6.255   3.199 -0.0423  0.1715  0.0837
 1278COC    COC 1278   4.608   6.505   3.233  0.2084 -0.0314 -0.3515
 1279COC    COC 1279   4.534   6.763   3.067 -0.3727  0.0354 -0.1279
 1280COC    COC 1280   4.295   6.830   2.924 -0.4026 -0.0579  0.3572
 1281COC    COC 1281   4.349   7.084   2.761  0.1665  0.0324 -0.5497
 1282COC    COC 1282   4.272   7.239   2.508 -0.3781  0.1183 -0.3052
 1283COC    COC 1283   4.041   7.161   2.329  0.4062 -0.1391 -0.1334
 1284COC    COC 1284   4.086   7.388   2.113 -0.0515  0.2588 -0.0524
 1285COC    COC 1285   4.057   7.668   2.202 -0.0972 -0.0222  0.0063
 1286COC    COC 1286   3.933   7.880   2.014 -0.2197  0.3260 -0.3535
 1287COC    COC 1287   3.875   7.896   1.727 -0.2117 -0.4343 -0.0167
 1288COH    COH 1288   4.101   7.951   1.597  0.0307 -0.0946  0.2163
 1289COH    COH 1289   2.142   5.210   6.692  0.0604  0.0385  0.2744
 1290COC    COC 1290   1.886   5.239   6.700 -0.1185 -0.1915 -0.6623
 1291COC    COC 1291   1.650   5.113   6.572  0.1055  0.2390 -0.1217
 1292COC    COC 1292   1.580   4.809   6.657  0.1459 -0.1492 -0.2070
 1293COC    COC 1293   1.691   4.544   6.551 -0.4815 -0.6689  0.0025
 1294COC    COC 1294   1.974   4.405   6.632  0.0287 -0.4823  0.2878
 1295COC    COC 1295   2.167   4.389   6.818 -0.0235 -0.1509  0.1613
 1296COC    COC 1296   2.176   4.161   7.030  0.3061 -0.1095  0.0740
 1297COC    COC 1297   2.457   4.064   6.993  0.0798 -0.1871 -0.0695
 1298COC    COC 1298   2.611   3.912   6.803 -0.3163  0.0741 -0.2845
 1299COC    COC 1299   2.801   4.004   6.561  0.4476  0.2689 -0.0773
 1300COC    COC 1300   2.982   4.246   6.419 -0.0964 -0.1860  0.0057
 1301COC    COC 1301   2.827   4.463   6.314 -0.1269  0.0557  0.2852
 1302COC    COC 1302   2.543   4.487   6.176  0.3431 -0.1393 -0.3714
 1303COC    COC 1303   2.418   4.255   5.972  0.1116 -0.6637  0.0734
 1304COC    COC 1304   2.329   4.368   5.666 -0.3739 -0.0534  0.0849
 1305COC    COC 1305   2.131   4.567   5.570 -0.0557  0.3437 -0.2067
 1306COC    COC 1306   1.998   4.803   5.521  0.3918 -0.3221  0.0493
 1307COC    COC 1307   1.720   4.819   5.705 -0.1323 -0.0671 -0.1870
 1308COC    COC 1308   1.685   4.707   5.986  0.0855 -0.1108  0.2694
 1309COC    COC 1309   1.759   4.832   6.264  0.0514 -0.0950  0.1536
 1310COC    COC 1310   1.992   5.008   6.359 -0.0543 -0.2171  0.2698
 1311COC    COC 1311   2.280   4.854   6.327 -0.2562  0.2473  0.2508
 1312COC    COC 1312   2.468   4.808   6.532 -0.3613  0.1960  0.1851
 1313COC    COC 1313   2.757   4.970   6.455  0.0851 -0.2334  0.1662
 1314COC    COC 1314   2.937   4.967   6.678 -0.0951 -0.1624  0.2369
 1315COC    COC 1315   3.252   4.980   6.616 -0.2429 -0.4723 -0.1403
 1316COC    COC 1316   3.567   5.070   6.567 -0.0205 -0.1082  0.5055
 1317COC    COC 1317   3.642   5.373   6.563 -0.3621 -0.1065 -0.0173
 1318COC    COC 1318   3.895   5.532   6.584  0.3799 -0.1697  0.1623
 1319COC    COC 1319   3.970   5.826   6.627 -0.6312  0.0746 -0.0724
 1320COC    COC 1320   4.097   6.107   6.579 -0.0601 -0.1139  0.3398
 1321COC    COC 1321   3.912   6.324   6.639 -0.1558 -0.4450 -0.1023
 1322COC    COC 1322   3.841   6.593   6.486 -0.1135 -0.0249 -0.3200
 1323COC    COC 1323   3.649   6.736   6.348  0.1170 -0.1868  0.4609
 1324COC    COC 1324   3.503   6.566   6.162  0.0525 -0.0964  0.4822
 1325COC    COC 1325   3.502   6.284   6.246 -0.3601 -0.0365  0.1605
 1326COC    COC 1326   3.297   6.056   6.108  0.2900 -0.0406  0.0479
 1327COC    COC 1327   3.014   6.081   6.183  0.3296 -0.0502  0.0832
 1328COC    COC 1328   2.820   6.135   6.422  0.0667  0.1257 -0.2112
 1329COC    COC 1329   2.778   5.944   6.657 -0.1511 -0.0003  0.0347
 1330COC    COC 1330   2.466   5.974   6.685 -0.2415  0.3153 -0.1239
 1331COC    COC 1331   2.284   5.923   6.438  0.0759  0.3697 -0.5744
 1332COC    COC 1332   2.012   6.026   6.499  0.0631 -0.2374  0.5893
 1333COC    COC 1333   1.842   5.979   6.233  0.1779  0.3304 -0.1807
 1334COH    COH 1334   1.722   5.732   6.164  0.0306  0.4055 -0.6424
 1335COH    COH 1335   4.881   0.295   9.340 -0.3011  0.0866 -0.1436
 1336COC    COC 1336   4.978   0.290   9.582  0.0255 -0.1243  0.2991
 1337COC    COC 1337   4.741   0.443   9.708  0.2286  0.0419  0.2222
 1338COC    COC 1338   4.440   0.457   9.697  0.1641 -0.5104 -0.4349
 1339COC    COC 1339   4.200   0.473   9.491 -0.0448 -0.0994  0.2367
 1340COC    COC 1340   4.173   0.771   9.356  0.3655 -0.1027 -0.0993
 1341COC    COC 1341   4.332   0.922   9.131 -0.1726  0.4145  0.1428
 1342COC    COC 1342   4.553   0.761   8.965  0.1384  0.0603  0.0321
 1343COC    COC 1343   4.833   0.907   8.933  0.2317 -0.0378 -0.1165
 1344COC    COC 1344   4.931   0.859   8.668 -0.3866  0.3968  0.0135
 1345COC    COC 1345   5.115   0.974   8.448  0.1544 -0.2281  0.1056
 1346COC    COC 1346   5.307   1.211   8.481  0.3142 -0.8716 -0.1145
 1347COC    COC 1347   5.238   1.507   8.576  0.0917 -0.4968  0.1737
 1348COC    COC 1348   5.444   1.686   8.750  0.0734  0.0622  0.5942
 1349COC    COC 1349   5.655   1.721   8.520  0.2399  0.0782  0.3607
 1350COC    COC 1350   5.649   1.571   8.257 -0.2171 -0.2045  0.0308
 1351COC    COC 1351   5.932   1.681   8.182  0.3444  0.2810 -0.0642
 1352COC    COC 1352   6.213   1.772   8.274 -0.1708 -0.0130 -0.1881
 1353COC    COC 1353   6.179   2.007   8.470 -0.5714  0.4749 -0.0847
 1354COC    COC 1354   5.913   2.139   8.468 -0.3661 -0.1741 -0.0022
 1355COC    COC 1355   5.764   2.118   8.712 -0.1014 -0.2015  0.4270
 1356COC    COC 1356   6.009   2.132   8.891 -0.1099 -0.0017 -0.1766
 1357COC    COC 1357   6.099   2.299   9.128 -0.1737 -0.0507  0.0497
 1358COC    COC 1358   6.218   2.600   9.066 -0.6623  0.1728 -0.0168
 1359COC    COC 1359   6.447   2.685   8.903  0.2277 -0.1581 -0.2540
 1360COC    COC 1360   6.582   2.509   8.682 -0.2305  0.4477  0.0577
 1361COC    COC 1361   6.876   2.380   8.743  0.2264  0.0999  0.4702
 1362COC    COC 1362   6.999   2.269   8.492  0.1129 -0.2283  0.0858
 1363COC    COC 1363   7.293   2.352   8.510 -0.1282  0.0558  0.2759
 1364COC    COC 1364   7.375   2.493   8.248 -0.1635  0.0630  0.1919
 1365COC    COC 1365   7.429   2.745   8.057 -0.2889 -0.0019 -0.0487
 1366COC    COC 1366   7.297   3.034   7.913  0.2637 -0.2838  0.2535
 1367COC    COC 1367   7.511   3.180   8.029  0.7463 -0.1546  0.5086
 1368COC    COC 1368   7.814   3.134   8.097  0.0232 -0.5897 -0.7012
 1369COC    COC 1369   7.903   3.087   8.380 -0.0637 -0.3205 -0.0251
 1370COC    COC 1370   7.961   3.345   8.513 -0.1000  0.2005  0.2825
 1371COC    COC 1371   7.843   3.415   8.778  0.6803  0.0053 -0.5071
 1372COC    COC 1372   7.760   3.116   8.882  0.3376  0.2326  0.1417
 1373COC    COC 1373   7.468   3.202   8.906  0.2726  0.2730 -0.2675
 1374COC    COC 1374   7.200   3.138   8.734 -0.1701 -0.2508 -0.4161
 1375COC    COC 1375   7.101   3.420   8.640 -0.0649 -0.4824 -0.0534
 1376COC    COC 1376   6.824   3.570   8.658 -0.2226  0.0230 -0.5378
 1377COC    COC 1377   6.899   3.892   8.640  0.0253  0.4389 -0.1233
 1378COC    COC 1378   6.984   4.145   8.811  0.2248  0.0289 -0.2355
 1379COC    COC 1379   7.285   4.106   8.834 -0.2899 -0.1573  0.0796
 1380COH    COH 1380   7.383   4.021   9.070 -0.1543  0.0227  0.6650
 1381COH    COH 1381   3.389   1.190   8.203  0.1872  0.2062 -0.0104
 1382COC    COC 1382   3.173   0.998   8.218 -0.2755 -0.1057  0.1583
 1383COC    COC 1383   3.302   0.715   8.256  0.2508  0.1062  0.3960
 1384COC    COC 1384   3.138   0.457   8.307 -0.2200 -0.0406 -0.1509
 1385COC    COC 1385   2.871   0.536   8.442  0.0508 -0.0263 -0.2859
 1386COC    COC 1386   2.732   0.508   8.187 -0.0931 -0.0599 -0.1333
 1387COC    COC 1387   2.529   0.265   8.216  0.2194  0.0490 -0.1788
 1388COC    COC 1388   2.608   0.079   8.036 -0.2336 -0.2269  0.5312
 1389COC    COC 1389   2.679   0.236   7.779 -0.1767  0.2374  0.2510
 1390COC    COC 1390   2.539   0.082   7.516  0.0360 -0.4245  0.1605
 1391COC    COC 1391   2.768  10.311   7.329 -0.0650  0.2696  0.2334
 1392COC    COC 1392   2.861   0.229   7.176 -0.3721 -0.0929 -0.1850
 1393COC    COC 1393   2.990   0.400   7.367 -0.3130  0.0414 -0.1228
 1394COC    COC 1394   3.063   0.689   7.255  0.0921  0.0716 -0.1304
 1395COC    COC 1395   2.824   0.741   7.097 -0.3162 -0.2087  0.0136
 1396COC    COC 1396   2.670   1.008   7.177 -0.1639 -0.0823  0.1408
 1397COC    COC 1397   2.487   1.072   7.389  0.4446  0.1716 -0.0498
 1398COC    COC 1398   2.376   1.079   7.674  0.0678 -0.0584 -0.0718
 1399COC    COC 1399   2.182   1.288   7.603  0.2273  0.3144 -0.1038
 1400COC    COC 1400   2.255   1.433   7.343 -0.1177  0.3395  0.0974
 1401COC    COC 1401   1.997   1.615   7.231  0.2440 -0.1595  0.4439
 1402COC    COC 1402   1.950   1.898   7.273  0.1328 -0.2122  0.1977
 1403COC    COC 1403   1.728   2.109   7.168 -0.2612  0.0198  0.1613
 1404COC    COC 1404   1.688   2.221   6.870  0.0024  0.2764 -0.1635
 1405COC    COC 1405   1.559   2.072   6.632 -0.1123 -0.2630 -0.0588
 1406COC    COC 1406   1.266   2.076   6.644 -0.0540  0.1655  0.2101
 1407COC    COC 1407   1.157   2.144   6.908  0.1660  0.1094 -0.1798
 1408COC    COC 1408   0.927   2.220   7.125 -0.0144  0.1608  0.0575
 1409COC    COC 1409   0.984   2.336   7.372  0.1019  0.2729 -0.1067
 1410COC    COC 1410   0.797   2.339   7.612  0.0257 -0.2527  0.1371
 1411COC    COC 1411   0.671   2.156   7.839  0.0757  0.1143  0.1461
 1412COC    COC 1412   0.420   1.948   7.753  0.0980  0.0720  0.1578
 1413COC    COC 1413   0.204   1.938   7.531  0.0397 -0.0676 -0.0898
 1414COC    COC 1414   0.069   1.678   7.574 -0.4108 -0.4467  0.0763
 1415COC    COC 1415  10.334   1.433   7.404 -0.0373 -0.1029  0.0831
 1416COC    COC 1416  10.297   1.187   7.550 -0.3942 -0.3658 -0.0563
 1417COC    COC 1417  10.165   1.236   7.832 -0.2510 -0.0604  0.1080
 1418COC    COC 1418  10.125   1.513   7.928  0.2001 -0.3776 -0.0998
 1419COC    COC 1419  10.276   1.736   8.124  0.3876 -0.0832  0.3313
 1420COC    COC 1420  10.126   1.949   8.294  0.3445  0.0943 -0.1254
 1421COC    COC 1421  10.009   2.205   8.151 -0.0806  0.0091  0.1967
 1422COC    COC 1422   9.847   2.217   7.952 -0.0155 -0.0880  0.0048
 1423COC    COC 1423   9.729   2.400   7.725  0.0899  0.5062 -0.0601
 1424COC    COC 1424   9.449   2.504   7.714 -0.1089  0.0272 -0.0366
 1425COC    COC 1425   9.271   2.447   7.999 -0.4070 -0.5066  0.1447
 1426COH    COH 1426   9.132   2.287   8.166  0.2268 -0.4070  0.0028
 1427COH    COH 1427   5.077   2.379   8.124 -0.2491  0.3016  0.0687
 1428COC    COC 1428   5.303   2.492   8.219  0.0606  0.0452  0.3362
 1429COC    COC 1429   5.292   2.769   8.286  0.0095 -0.0816  0.2346
 1430COC    COC 1430   5.568   2.901   8.346  0.1083 -0.2344 -0.0285
 1431COC    COC 1431   5.855   2.865   8.437 -0.5510 -0.0082 -0.0258
 1432COC    COC 1432   5.949   2.819   8.713 -0.1883  0.0118 -0.0084
 1433COC    COC 1433   5.994   2.532   8.699  0.0501  0.1657 -0.2793
 1434COC    COC 1434   6.209   2.459   8.520 -0.0057 -0.4658  0.2068
 1435COC    COC 1435   6.164   2.570   8.240  0.2201  0.2016 -0.2165
 1436COC    COC 1436   5.923   2.430   8.129 -0.1459 -0.1770  0.1820
 1437COC    COC 1437   5.894   2.428   7.821 -0.0443  0.6065  0.1517
 1438COC    COC 1438   5.868   2.145   7.645  0.1709  0.1432 -0.0439
 1439COC    COC 1439   6.112   1.895   7.597 -0.0607 -0.2675 -0.1274
 1440COC    COC 1440   6.334   1.757   7.419  0.0788  0.1895 -0.2578
 1441COC    COC 1441   6.487   1.896   7.189  0.2220  0.0966 -0.1044
 1442COC    COC 1442   6.387   1.915   6.908 -0.0929 -0.3112 -0.3709
 1443COC    COC 1443   6.200   2.133   6.967  0.0871 -0.3586 -0.2564
 1444COC    COC 1444   5.908   2.235   6.887 -0.0256  0.5600  0.0952
 1445COC    COC 1445   5.665   2.016   6.865  0.2172 -0.2077 -0.3375
 1446COC    COC 1446   5.696   1.776   6.706  0.0657 -0.1801  0.2708
 1447COC    COC 1447   5.653   1.488   6.769  0.1681 -0.1364 -0.0152
 1448COC    COC 1448   5.416   1.403   6.590 -0.0403  0.0845  0.2280
 1449COC    COC 1449   5.526   1.416   6.305 -0.2719  0.2553 -0.0793
 1450COC    COC 1450   5.688   1.639   6.230 -0.0402 -0.0169  0.0490
 1451COC    COC 1451   5.583   1.926   6.296  0.0392 -0.1472  0.0770
 1452COC    COC 1452   5.673   2.116   6.045  0.1713  0.2342 -0.0081
 1453COC    COC 1453   5.869   2.225   5.848 -0.2107  0.1451  0.1313
 1454COC    COC 1454   6.051   2.444   6.026 -0.0593  0.0564  0.0109
 1455COC    COC 1455   6.062   2.386   6.356  0.0615 -0.1530 -0.0354
 1456COC    COC 1456   5.768   2.320   6.419 -0.0237 -0.2416  0.1368
 1457COC    COC 1457   5.591   2.522   6.323  0.3548  0.1063 -0.3384
 1458COC    COC 1458   5.524   2.766   6.525  0.1049  0.3554 -0.2109
 1459COC    COC 1459   5.537   2.832   6.852 -0.0618  0.0630  0.2710
 1460COC    COC 1460   5.600   2.613   7.084 -0.1800 -0.2660  0.0479
 1461COC    COC 1461   5.666   2.738   7.376 -0.0497  0.0434 -0.2240
 1462COC    COC 1462   5.416   2.763   7.555 -0.3493  0.0753  0.2157
 1463COC    COC 1463   5.211   2.764   7.356  0.0546  0.2031  0.0143
 1464COC    COC 1464   5.067   3.008   7.412  0.0276  0.0422 -0.4405
 1465COC    COC 1465   4.919   3.178   7.662 -0.4467 -0.1483  0.0584
 1466COC    COC 1466   4.892   3.004   7.908  0.1518  0.1289  0.1920
 1467COC    COC 1467   4.952   2.710   7.963 -0.0324 -0.0475 -0.0724
 1468COC    COC 1468   4.765   2.632   8.210 -0.2211 -0.2543  0.1724
 1469COC    COC 1469   4.533   2.799   8.384  0.1242  0.0032  0.1631
 1470COC    COC 1470   4.242   2.914   8.317 -0.1170 -0.1399 -0.2615
 1471COC    COC 1471   4.015   2.821   8.072 -0.5954 -0.2355 -0.1851
 1472COH    COH 1472   3.749   2.837   8.150 -0.2461 -0.3148  0.1430
 1473COH    COH 1473   6.866   1.011   9.834  0.0852  0.0733  0.0159
 1474COC    COC 1474   6.736   1.185   9.981  0.0521  0.0445  0.0706
 1475COC    COC 1475   6.554   1.107  10.231  0.2286  0.0349  0.1639
 1476COC    COC 1476   6.352   1.335  10.265  0.0354 -0.0835  0.2422
 1477COC    COC 1477   6.402   1.644  10.197  0.2109  0.1310  0.1002
 1478COC    COC 1478   6.431   1.746   0.156 -0.1429  0.4941 -0.0517
 1479COC    COC 1479   6.545   1.602   0.392  0.1961 -0.1784  0.3158
 1480COC    COC 1480   6.431   1.490   0.631  0.3303 -0.1595  0.1526
 1481COC    COC 1481   6.167   1.436   0.725 -0.0418  0.1662 -0.1244
 1482COC    COC 1482   5.918   1.240   0.594  0.0334 -0.2705 -0.0795
 1483COC    COC 1483   6.091   1.192   0.348 -0.1268  0.1551 -0.1590
 1484COC    COC 1484   6.079   0.963   0.140  0.1165 -0.3367  0.1676
 1485COC    COC 1485   6.187   0.879  10.214  0.3455  0.0093  0.3656
 1486COC    COC 1486   5.975   0.880   9.973 -0.2673  0.0155  0.2964
 1487COC    COC 1487   5.862   0.587   9.909 -0.1744 -0.4640 -0.3385
 1488COC    COC 1488   5.566   0.631   9.978  0.1924 -0.3007  0.1013
 1489COC    COC 1489   5.456   0.450  10.170 -0.0457  0.5528 -0.0892
 1490COC    COC 1490   5.351   0.179  10.110  0.2667  0.0306 -0.0889
 1491COC    COC 1491   5.483  10.291  10.263 -0.4391 -0.1825  0.2881
 1492COC    COC 1492   5.780  10.217   0.009  0.1130  0.1906 -0.3667
 1493COC    COC 1493   5.917  10.078  10.131 -0.6030  0.2000  0.1940
 1494COC    COC 1494   5.965  10.061   9.805 -0.1440  0.1029 -0.2460
 1495COC    COC 1495   6.136   9.855   9.676  0.2179  0.2429  0.2540
 1496COC    COC 1496   6.425   9.895   9.664 -0.3837  0.0487  0.2396
 1497COC    COC 1497   6.555  10.051   9.479 -0.2589  0.0419  0.4680
 1498COC    COC 1498   6.312  10.238   9.434  0.0789 -0.0691 -0.3766
 1499COC    COC 1499   6.174   0.075   9.636 -0.1966  0.1908 -0.4641
 1500COC    COC 1500   6.291   0.018   9.916  0.2179 -0.0861  0.1174
 1501COC    COC 1501   6.563   0.096   9.827  0.0105 -0.0446  0.1794
 1502COC    COC 1502   6.861   0.167   9.928  0.3297 -0.1169 -0.0363
 1503COC    COC 1503   7.158   0.102   9.807  0.1653 -0.4549  0.2074
 1504COC    COC 1504   7.109  10.145   9.765  0.0019  0.0076  0.1036
 1505COC    COC 1505   7.367  10.078   9.675  0.1201  0.2200  0.2456
 1506COC    COC 1506   7.608  10.281   9.724 -0.1619  0.0400  0.2084
 1507COC    COC 1507   7.657   0.243   9.573 -0.1515 -0.2671 -0.0557
 1508COC    COC 1508   7.954   0.257   9.519  0.0609  0.3516 -0.2155
 1509COC    COC 1509   8.085   0.203   9.802  0.0968 -0.0700 -0.1690
 1510COC    COC 1510   8.122   0.403  10.025  0.2949 -0.0252  0.0218
 1511COC    COC 1511   8.009   0.682  10.176  0.0680 -0.1239  0.0885
 1512COC    COC 1512   7.742   0.804  10.108 -0.1517 -0.0997  0.4176
 1513COC    COC 1513   7.437   0.785   9.982 -0.2323 -0.2359 -0.2682
 1514COC    COC 1514   7.219   0.931   9.777 -0.1558 -0.0197  0.3261
 1515COC    COC 1515   7.232   1.010   9.492  0.0167  0.0440 -0.4655
 1516COC    COC 1516   7.216   1.294   9.321 -0.0532  0.2789  0.0249
 1517COC    COC 1517   7.279   1.483   9.573 -0.0894 -0.0522  0.2854
 1518COH    COH 1518   7.211   1.710   9.687  0.5780 -0.2179  0.0337
 1519COH    COH 1519   7.616   4.191   4.973 -0.0309 -0.2154 -0.4352
 1520COC    COC 1520   7.706   4.373   5.135 -0.0501 -0.2565 -0.1973
 1521COC    COC 1521   7.571   4.476   5.349  0.3013 -0.3930 -0.3853
 1522COC    COC 1522   7.802   4.460   5.551  0.1473 -0.5161 -0.1525
 1523COC    COC 1523   7.845   4.296   5.836  0.0743  0.0361  0.3698
 1524COC    COC 1524   7.824   4.179   6.118 -0.0616  0.0987  0.1821
 1525COC    COC 1525   7.598   4.087   6.233  0.1435  0.1877  0.0234
 1526COC    COC 1526   7.588   3.790   6.233  0.2347 -0.2304 -0.5108
 1527COC    COC 1527   7.368   3.607   6.172  0.1470  0.1326 -0.3778
 1528COC    COC 1528   7.561   3.346   6.178 -0.2877  0.0226 -0.2467
 1529COC    COC 1529   7.402   3.078   6.058  0.1285  0.1112 -0.0733
 1530COC    COC 1530   7.578   2.920   6.275 -0.0411  0.3542 -0.1869
 1531COC    COC 1531   7.622   3.068   6.542 -0.5918 -0.2719 -0.1083
 1532COC    COC 1532   7.890   3.101   6.732 -0.2379  0.1359 -0.0355
 1533COC    COC 1533   7.959   3.023   7.021  0.0758 -0.4306 -0.1600
 1534COC    COC 1534   8.254   3.094   7.042 -0.2418 -0.1632 -0.2530
 1535COC    COC 1535   8.408   3.275   7.256  0.2412  0.2541 -0.3543
 1536COC    COC 1536   8.560   3.154   7.472  0.0886 -0.0439 -0.3170
 1537COC    COC 1537   8.420   3.265   7.713  0.0931  0.1707 -0.2081
 1538COC    COC 1538   8.151   3.148   7.826 -0.4668  0.2843 -0.0071
 1539COC    COC 1539   8.185   2.889   7.952 -0.2200 -0.0390 -0.2059
 1540COC    COC 1540   8.183   2.598   7.819 -0.0749 -0.3705 -0.4987
 1541COC    COC 1541   8.417   2.460   7.752 -0.0218 -0.0143  0.1302
 1542COC    COC 1542   8.348   2.224   7.582 -0.3146  0.0729  0.2720
 1543COC    COC 1543   8.590   2.222   7.405  0.3581 -0.1164  0.6704
 1544COC    COC 1544   8.749   2.117   7.181  0.0182  0.0856  0.3115
 1545COC    COC 1545   9.054   2.149   7.109  0.0439  0.3294  0.0820
 1546COC    COC 1546   9.257   1.890   7.160  0.1439 -0.0438  0.2916
 1547COC    COC 1547   9.106   1.642   7.048 -0.0792  0.5232  0.1170
 1548COC    COC 1548   8.819   1.663   7.185 -0.0705  0.2546 -0.0395
 1549COC    COC 1549   8.571   1.801   7.351 -0.2290  0.1400 -0.0759
 1550COC    COC 1550   8.363   1.662   7.167  0.0625  0.1082  0.0554
 1551COC    COC 1551   8.429   1.534   6.936  0.5219 -0.0995  0.0581
 1552COC    COC 1552   8.309   1.275   6.799 -0.0853 -0.0679 -0.3145
 1553COC    COC 1553   8.038   1.238   6.862  0.1355 -0.3616 -0.0247
 1554COC    COC 1554   7.977   1.416   7.129 -0.5213 -0.0653 -0.0742
 1555COC    COC 1555   7.924   1.248   7.352  0.2814 -0.2365 -0.3085
 1556COC    COC 1556   8.018   0.965   7.403 -0.2946  0.6349  0.0463
 1557COC    COC 1557   8.186   0.845   7.640 -0.3727  0.1642  0.3036
 1558COC    COC 1558   8.052   1.017   7.867 -0.4839 -0.1001  0.1394
 1559COC    COC 1559   8.070   1.333   7.774  0.4949  0.2982 -0.2702
 1560COC    COC 1560   8.228   1.547   7.954  0.0944  0.0312 -0.1989
 1561COC    COC 1561   8.051   1.747   8.108  0.1311 -0.1730  0.1752
 1562COC    COC 1562   8.098   1.668   8.367 -0.0356 -0.1631  0.1341
 1563COC    COC 1563   8.271   1.861   8.523  0.5024 -0.1117 -0.1574
 1564COH    COH 1564   8.426   1.976   8.705  0.3845 -0.0622 -0.3814
 1565COH    COH 1565   6.929   6.132   6.226  0.4084  0.4936 -0.0649
 1566COC    COC 1566   6.760   6.171   6.005 -0.2573  0.3166  0.1636
 1567COC    COC 1567   6.838   6.432   5.883 -0.4339  0.5346  0.4320
 1568COC    COC 1568   7.116   6.464   5.757 -0.4018 -0.2742  0.2628
 1569COC    COC 1569   7.238   6.240   5.625  0.2289  0.1298  0.5028
 1570COC    COC 1570   7.307   6.177   5.341 -0.1702  0.1151 -0.1917
 1571COC    COC 1571   7.140   6.153   5.086 -0.4135 -0.2145 -0.2158
 1572COC    COC 1572   7.238   6.344   4.876 -0.0649 -0.0183 -0.3323
 1573COC    COC 1573   7.162   6.220   4.599 -0.3777  0.2502 -0.2618
 1574COC    COC 1574   7.134   6.117   4.277 -0.1140 -0.2724 -0.0367
 1575COC    COC 1575   7.372   6.246   4.122 -0.2592  0.0970  0.3200
 1576COC    COC 1576   7.665   6.280   4.178  0.1927 -0.1509 -0.1746
 1577COC    COC 1577   7.699   6.566   4.283 -0.0609 -0.1594 -0.4644
 1578COC    COC 1578   7.879   6.647   4.513 -0.2104  0.1704  0.3023
 1579COC    COC 1579   7.853   6.642   4.806 -0.2507  0.2898 -0.2980
 1580COC    COC 1580   7.922   6.940   4.808  0.0372  0.0357  0.2081
 1581COC    COC 1581   8.058   7.093   4.565  0.1840 -0.5022  0.1455
 1582COC    COC 1582   8.182   7.038   4.256  0.1731  0.4842 -0.0863
 1583COC    COC 1583   8.170   6.734   4.236  0.7999 -0.2051  0.2811
 1584COC    COC 1584   8.386   6.518   4.199  0.1198  0.2455  0.2423
 1585COC    COC 1585   8.519   6.320   4.401  0.0954 -0.1934 -0.1476
 1586COC    COC 1586   8.630   6.051   4.465  0.1329  0.0926 -0.2278
 1587COC    COC 1587   8.587   5.825   4.690 -0.2773 -0.3026 -0.0292
 1588COC    COC 1588   8.302   5.891   4.707  0.0348  0.0025 -0.1249
 1589COC    COC 1589   8.105   5.807   4.522  0.3460  0.2360  0.3678
 1590COC    COC 1590   7.831   5.903   4.562  0.3608 -0.2658  0.2948
 1591COC    COC 1591   7.526   5.923   4.469  0.4664  0.1004 -0.0691
 1592COC    COC 1592   7.507   5.794   4.225  0.2066  0.0620 -0.0854
 1593COC    COC 1593   7.661   5.516   4.207  0.1553 -0.2642  0.0528
 1594COC    COC 1594   7.599   5.376   3.950  0.1820  0.2451 -0.1273
 1595COC    COC 1595   7.791   5.147   3.909  0.3772  0.2489 -0.2096
 1596COC    COC 1596   7.735   4.864   4.019  0.4436  0.1602  0.4075
 1597COC    COC 1597   7.452   4.823   3.978 -0.1338  0.0745  0.0951
 1598COC    COC 1598   7.372   4.600   3.781  0.1675  0.2036 -0.0634
 1599COC    COC 1599   7.364   4.424   3.518 -0.5003  0.1720 -0.0364
 1600COC    COC 1600   7.223   4.173   3.552  0.5009  0.4380 -0.5236
 1601COC    COC 1601   6.969   3.987   3.573 -0.4540  0.1036 -0.1533
 1602COC    COC 1602   6.935   3.914   3.891 -0.1139  0.0500  0.1498
 1603COC    COC 1603   7.070   3.667   4.008 -0.1759 -0.2375 -0.3162
 1604COC    COC 1604   6.901   3.448   4.130  0.2905  0.2749  0.2148
 1605COC    COC 1605   7.005   3.202   4.346 -0.1057 -0.0076  0.2585
 1606COC    COC 1606   6.793   2.994   4.303  0.0290 -0.1432  0.1077
 1607COC    COC 1607   6.680   3.036   4.022 -0.2360 -0.0847  0.5330
 1608COC    COC 1608   6.445   3.149   3.940  0.1190 -0.1832  0.3701
 1609COC    COC 1609   6.441   3.366   3.695 -0.1529 -0.1265  0.1658
 1610COH    COH 1610   6.596   3.566   3.779  0.1281 -0.2638  0.2517
 1611COH    COH 1611   0.013   0.729   6.308  0.0218  0.0827  0.3123
 1612COC    COC 1612   0.007   1.005   6.225 -0.3378 -0.1795  0.0060
 1613COC    COC 1613   0.098   0.946   5.952 -0.0456 -0.3101  0.3601
 1614COC    COC 1614   0.005   0.675   5.843  0.0723 -0.0232 -0.2880
 1615COC    COC 1615  10.143   0.568   5.985  0.1012 -0.0000 -0.1332
 1616COC    COC 1616   9.970   0.708   6.176  0.0763 -0.0369 -0.0576
 1617COC    COC 1617   9.945   1.037   6.187  0.5351 -0.1627 -0.3381
 1618COC    COC 1618  10.007   1.286   6.322  0.0338  0.0149 -0.1336
 1619COC    COC 1619   9.751   1.424   6.420 -0.4612 -0.1938 -0.0364
 1620COC    COC 1620   9.757   1.395   6.721  0.1719 -0.0245  0.1482
 1621COC    COC 1621   9.781   1.170   6.957 -0.0278 -0.2024 -0.1825
 1622COC    COC 1622   9.598   1.155   7.212  0.2971 -0.0950  0.4113
 1623COC    COC 1623   9.690   0.979   7.484 -0.0135 -0.1027 -0.1545
 1624COC    COC 1624   9.588   0.695   7.533 -0.0834 -0.0225  0.0657
 1625COC    COC 1625   9.332   0.636   7.366  0.0155 -0.1419  0.0338
 1626COC    COC 1626   9.362   0.820   7.088  0.0155  0.1784 -0.1246
 1627COC    COC 1627   9.122   1.016   7.098  0.2683  0.4027  0.3111
 1628COC    COC 1628   9.104   1.236   7.295  0.1839 -0.1269  0.3205
 1629COC    COC 1629   8.865   1.284   7.498  0.0404 -0.0203  0.1806
 1630COC    COC 1630   8.710   1.512   7.619 -0.3872  0.2570 -0.0420
 1631COC    COC 1631   8.585   1.329   7.828 -0.0789  0.1145 -0.3870
 1632COC    COC 1632   8.805   1.234   8.015 -0.3726  0.1161 -0.2295
 1633COC    COC 1633   8.951   1.049   7.863  0.0583  0.0413  0.2462
 1634COC    COC 1634   8.980   0.907   7.636 -0.2304  0.1108  0.1768
 1635COC    COC 1635   8.663   0.857   7.517 -0.2195 -0.0943  0.2583
 1636COC    COC 1636   8.691   0.905   7.208 -0.0344 -0.0818  0.3103
 1637COC    COC 1637   8.686   1.220   7.111  0.4746  0.1514 -0.1295
 1638COC    COC 1638   8.855   1.319   6.902 -0.0597 -0.2156 -0.0645
 1639COC    COC 1639   8.818   1.541   6.684  0.0891 -0.1468 -0.1996
 1640COC    COC 1640   8.647   1.806   6.712 -0.1990  0.3398 -0.1134
 1641COC    COC 1641   8.432   1.991   6.805  0.2377 -0.2248  0.0821
 1642COC    COC 1642   8.468   2.292   6.919 -0.6069 -0.5408  0.1050
 1643COC    COC 1643   8.665   2.497   7.039 -0.0748 -0.3846  0.0112
 1644COC    COC 1644   8.907   2.530   7.286  0.1022  0.1256 -0.0444
 1645COC    COC 1645   8.889   2.641   7.527 -0.3394 -0.2900 -0.0841
 1646COC    COC 1646   9.068   2.787   7.701  0.1562  0.1468  0.3423
 1647COC    COC 1647   9.350   2.891   7.623 -0.3204 -0.3375 -0.1410
 1648COC    COC 1648   9.382   3.099   7.808 -0.4656 -0.1117  0.0233
 1649COC    COC 1649   9.291   3.322   7.988  0.0880 -0.1698 -0.2635
 1650COC    COC 1650   9.127   3.395   8.246  0.2030  0.0606  0.0119
 1651COC    COC 1651   8.867   3.206   8.232  0.0659  0.3585  0.4947
 1652COC    COC 1652   8.879   3.009   8.450 -0.4752  0.1049  0.2371
 1653COC    COC 1653   8.688   2.904   8.646 -0.0061  0.2056 -0.0992
 1654COC    COC 1654   8.533   2.625   8.681 -0.1587 -0.2406  0.1415
 1655COC    COC 1655   8.630   2.354   8.794  0.6200  0.5019  0.2606
 1656COH    COH 1656   8.619   2.298   9.080 -0.0519  0.2284 -0.0713
 1657COH    COH 1657   7.722   0.010   4.161 -0.1330 -0.2818  0.1993
 1658COC    COC 1658   7.721  10.329   3.883 -0.1025 -0.3884 -0.4477
 1659COC    COC 1659   7.573  10.081   3.775  0.0398  0.3344 -0.0537
 1660COC    COC 1660   7.662   9.803   3.685 -0.4094  0.1570  0.5004
 1661COC    COC 1661   7.546   9.636   3.864 -0.1760  0.3840 -0.1528
 1662COC    COC 1662   7.746   9.436   4.001  0.0448 -0.3528  0.1887
 1663COC    COC 1663   7.998   9.470   4.200  0.3637  0.3483 -0.1886
 1664COC    COC 1664   8.269   9.297   4.173  0.0335 -0.0288 -0.1232
 1665COC    COC 1665   8.183   9.206   3.917  0.5213  0.2152  0.2012
 1666COC    COC 1666   8.386   9.206   3.714 -0.5274  0.4754  0.1469
 1667COC    COC 1667   8.476   9.505   3.615  0.2132 -0.2265 -0.0900
 1668COC    COC 1668   8.381   9.809   3.726  0.4715 -0.1801 -0.0648
 1669COC    COC 1669   8.072   9.908   3.649 -0.0373  0.2087  0.3328
 1670COC    COC 1670   7.958  10.078   3.423 -0.5344  0.0974 -0.1268
 1671COC    COC 1671   7.690  10.151   3.243 -0.3302  0.1087  0.2943
 1672COC    COC 1672   7.548   9.874   3.175 -0.2091  0.0275  0.0947
 1673COC    COC 1673   7.790   9.670   3.205  0.0661  0.1247  0.0787
 1674COC    COC 1674   7.751   9.370   3.207  0.0473  0.1090  0.4262
 1675COC    COC 1675   7.643   9.292   3.496  0.2457  0.1778  0.1200
 1676COC    COC 1676   7.785   9.080   3.678 -0.1361 -0.0768 -0.0749
 1677COC    COC 1677   8.051   8.969   3.533  0.3482 -0.3516 -0.1557
 1678COC    COC 1678   8.026   9.011   3.256 -0.1198 -0.2314  0.3318
 1679COC    COC 1679   8.037   8.736   3.189 -0.2438 -0.4781  0.0649
 1680COC    COC 1680   7.997   8.533   3.425 -0.0309 -0.2453 -0.0247
 1681COC    COC 1681   7.801   8.602   3.657  0.2625  0.2327  0.3517
 1682COC    COC 1682   7.677   8.661   3.909 -0.5761 -0.1958  0.0851
 1683COC    COC 1683   7.411   8.717   3.950  0.0736  0.3985  0.2435
 1684COC    COC 1684   7.363   8.919   4.184 -0.1859 -0.0183  0.1858
 1685COC    COC 1685   7.134   9.087   4.142 -0.0798  0.1956  0.2807
 1686COC    COC 1686   7.161   9.376   4.207 -0.0374 -0.1300  0.1630
 1687COC    COC 1687   6.993   9.501   4.398 -0.1476 -0.2228 -0.2204
 1688COC    COC 1688   7.225   9.495   4.663 -0.3885  0.0983 -0.1239
 1689COC    COC 1689   7.322   9.711   4.834 -0.1168 -0.3609 -0.3058
 1690COC    COC 1690   7.294   9.965   4.671 -0.3250 -0.0814 -0.5325
 1691COC    COC 1691   7.529  10.115   4.505 -0.1958  0.3652 -0.4560
 1692COC    COC 1692   7.338  10.274   4.379 -0.1489 -0.2808 -0.0270
 1693COC    COC 1693   7.294  10.165   4.109 -0.1135 -0.0272  0.1043
 1694COC    COC 1694   7.058  10.034   4.089  0.1985  0.2065 -0.3384
 1695COC    COC 1695   7.106   9.921   3.774  0.2390 -0.2381 -0.1554
 1696COC    COC 1696   7.089   9.628   3.860 -0.0958  0.2659 -0.0314
 1697COC    COC 1697   6.937   9.376   3.803  0.1569 -0.0301 -0.2873
 1698COC    COC 1698   6.749   9.387   4.046 -0.2816  0.0015  0.3609
 1699COC    COC 1699   6.709   9.700   4.077  0.2330  0.4458 -0.0717
 1700COC    COC 1700   6.680   9.948   3.954  0.2087 -0.1940 -0.1252
 1701COC    COC 1701   6.403   9.996   3.904  0.3472 -0.1198 -0.4556
 1702COH    COH 1702   6.274   9.918   4.128 -0.6161  0.2407 -0.5739
 1703COH    COH 1703   1.641   3.080   3.766  0.1262  0.1830 -0.2473
 1704COC    COC 1704   1.840   2.957   3.652  0.2583  0.3571 -0.2356
 1705COC    COC 1705   1.792   2.953   3.347 -0.1407  0.2063  0.1167
 1706COC    COC 1706   1.886   3.146   3.143  0.1570 -0.3947 -0.1829
 1707COC    COC 1707   1.820   3.223   2.896  0.0656 -0.3004 -0.1358
 1708COC    COC 1708   1.969   3.384   2.683  0.2498 -0.4879  0.1595
 1709COC    COC 1709   1.772   3.354   2.447  0.2044 -0.0209 -0.3428
 1710COC    COC 1710   1.664   3.067   2.481 -0.2282  0.4966  0.4034
 1711COC    COC 1711   1.886   2.916   2.634  0.1491 -0.2434  0.5381
 1712COC    COC 1712   2.140   2.902   2.788 -0.0389  0.2901 -0.3277
 1713COC    COC 1713   2.329   3.157   2.790  0.2971 -0.0505 -0.1877
 1714COC    COC 1714   2.472   3.271   3.024  0.0494  0.1562 -0.2410
 1715COC    COC 1715   2.716   3.100   2.936 -0.2031 -0.2633 -0.2044
 1716COC    COC 1716   2.790   2.848   3.049 -0.0862 -0.1703  0.1403
 1717COC    COC 1717   2.740   2.732   3.307 -0.0543  0.3136  0.4627
 1718COC    COC 1718   2.778   2.779   3.592 -0.1971 -0.1368  0.2170
 1719COC    COC 1719   2.648   2.711   3.879 -0.0503 -0.1646 -0.0274
 1720COC    COC 1720   2.623   2.437   3.930 -0.4744  0.1546 -0.1223
 1721COC    COC 1721   2.359   2.302   3.913 -0.2470  0.0407  0.7356
 1722COC    COC 1722   2.200   2.167   3.725  0.1449  0.0894  0.0048
 1723COC    COC 1723   2.119   1.883   3.774  0.1573 -0.1091 -0.2783
 1724COC    COC 1724   1.823   1.905   3.726 -0.0160 -0.1466 -0.0694
 1725COC    COC 1725   1.700   2.131   3.520  0.0338  0.0076 -0.0648
 1726COC    COC 1726   1.929   2.329   3.443 -0.1684  0.2185  0.1198
 1727COC    COC 1727   2.212   2.462   3.362  0.2537 -0.0883 -0.2340
 1728COC    COC 1728   2.324   2.585   3.597 -0.0121  0.3866 -0.1881
 1729COC    COC 1729   2.062   2.601   3.792  0.4999  0.1774  0.2573
 1730COC    COC 1730   1.805   2.472   3.916  0.0723  0.3578 -0.1288
 1731COC    COC 1731   1.715   2.209   4.073  0.1921 -0.0883 -0.0365
 1732COC    COC 1732   1.409   2.254   4.059  0.2130 -0.0886  0.0441
 1733COC    COC 1733   1.356   2.538   3.911 -0.2434  0.1346 -0.0162
 1734COC    COC 1734   1.142   2.678   3.808  0.0792  0.0474 -0.4612
 1735COC    COC 1735   0.904   2.472   3.841 -0.1814 -0.2385  0.0044
 1736COC    COC 1736   0.984   2.258   4.063 -0.1551  0.0255 -0.1401
 1737COC    COC 1737   0.810   2.347   4.314 -0.3617 -0.3611 -0.2559
 1738COC    COC 1738   0.859   2.517   4.571 -0.5043 -0.0424  0.0278
 1739COC    COC 1739   0.768   2.430   4.845  0.2501  0.1570 -0.1163
 1740COC    COC 1740   0.565   2.223   4.810 -0.0794  0.0228 -0.0423
 1741COC    COC 1741   0.314   2.309   4.990  0.2871  0.1433  0.1639
 1742COC    COC 1742   0.078   2.454   4.931 -0.4170  0.0353 -0.1644
 1743COC    COC 1743  10.298   2.591   5.178 -0.1281 -0.0250 -0.0095
 1744COC    COC 1744   0.211   2.691   5.346  0.6397 -0.2093  0.1950
 1745COC    COC 1745   0.094   2.770   5.611  0.0023  0.2416 -0.3487
 1746COC    COC 1746   0.296   2.947   5.794  0.0351 -0.1029 -0.1785
 1747COC    COC 1747   0.455   3.159   5.625  0.0046  0.1744  0.0671
 1748COH    COH 1748   0.375   3.052   5.371  0.2311 -0.3360  0.3254
 1749COH    COH 1749   0.365   6.659   3.093  0.0400  0.0825  0.0045
 1750COC    COC 1750   0.304   6.454   3.270 -0.6163  0.0140  0.1588
 1751COC    COC 1751   0.148   6.239   3.059 -0.0217 -0.0415 -0.2461
 1752COC    COC 1752   0.318   6.072   2.935 -0.0239  0.1038 -0.0669
 1753COC    COC 1753   0.217   5.946   2.664  0.0915  0.3068 -0.1247
 1754COC    COC 1754   0.176   6.073   2.393  0.1409 -0.3791 -0.0221
 1755COC    COC 1755  10.264   6.253   2.343  0.3424  0.0832  0.0446
 1756COC    COC 1756   9.967   6.326   2.325 -0.1613 -0.0073 -0.0263
 1757COC    COC 1757   9.743   6.176   2.449 -0.0116 -0.0581 -0.4662
 1758COC    COC 1758   9.901   5.925   2.542 -0.1155 -0.2592  0.4040
 1759COC    COC 1759  10.125   5.842   2.345  0.0514 -0.0792 -0.1380
 1760COC    COC 1760   9.947   5.847   2.068  0.0052 -0.1913  0.0058
 1761COC    COC 1761   9.677   5.699   2.102 -0.0611  0.0835  0.0022
 1762COC    COC 1762   9.427   5.847   2.255 -0.0550 -0.0287  0.3923
 1763COC    COC 1763   9.167   5.954   2.308 -0.5877 -0.3424 -0.0795
 1764COC    COC 1764   9.143   5.933   2.596 -0.0015  0.0695  0.0659
 1765COC    COC 1765   9.390   5.805   2.670  0.2606  0.2383 -0.2259
 1766COC    COC 1766   9.404   5.587   2.870 -0.1224  0.2162 -0.3097
 1767COC    COC 1767   9.300   5.334   2.837  0.1814 -0.1856 -0.4102
 1768COC    COC 1768   9.241   5.249   2.554  0.1253 -0.1997 -0.5408
 1769COC    COC 1769   9.255   5.481   2.363  0.1515 -0.1272 -0.2626
 1770COC    COC 1770   9.212   5.527   2.067 -0.0399  0.0348 -0.2636
 1771COC    COC 1771   8.947   5.393   1.996  0.4731 -0.2047  0.0173
 1772COC    COC 1772   8.980   5.142   2.192  0.1728  0.0673  0.0474
 1773COC    COC 1773   8.685   5.154   2.384 -0.0089  0.0954  0.1732
 1774COC    COC 1774   8.528   4.914   2.461  0.4359  0.1146 -0.2664
 1775COC    COC 1775   8.473   4.631   2.535  0.2946 -0.2910 -0.3402
 1776COC    COC 1776   8.161   4.569   2.519 -0.0088 -0.0178 -0.2203
 1777COC    COC 1777   7.952   4.558   2.303 -0.2800  0.5136 -0.3609
 1778COC    COC 1778   7.789   4.768   2.105  0.1667 -0.0150  0.3215
 1779COC    COC 1779   7.953   5.009   2.083 -0.0160  0.0444 -0.4671
 1780COC    COC 1780   7.780   5.262   1.921  0.1839  0.8732 -0.6970
 1781COC    COC 1781   7.653   5.049   1.786  0.2380  0.1818 -0.2329
 1782COC    COC 1782   7.401   4.951   1.951  0.0782  0.2186 -0.4124
 1783COC    COC 1783   7.359   4.736   2.106 -0.5079 -0.2520 -0.3748
 1784COC    COC 1784   7.384   4.828   2.384  0.2750  0.4930 -0.0533
 1785COC    COC 1785   7.563   4.637   2.500 -0.4147 -0.0837 -0.0199
 1786COC    COC 1786   7.797   4.630   2.705 -0.2889 -0.0734 -0.3729
 1787COC    COC 1787   7.975   4.668   2.967 -0.2260  0.1101 -0.0044
 1788COC    COC 1788   8.092   4.864   3.205 -0.1883  0.2719  0.3335
 1789COC    COC 1789   8.394   4.789   3.301  0.3927  0.3169  0.1091
 1790COC    COC 1790   8.563   4.560   3.167 -0.2490 -0.2951  0.0844
 1791COC    COC 1791   8.798   4.715   3.039 -0.2022  0.0020 -0.0289
 1792COC    COC 1792   8.903   5.019   3.109 -0.4192  0.2052 -0.2008
 1793COC    COC 1793   8.766   5.243   2.972  0.0025  0.0945 -0.1058
 1794COH    COH 1794   8.883   5.474   2.825  0.0808 -0.0115  0.4492
 1795COH    COH 1795   9.262   6.008   5.889  0.1300 -0.1744 -0.5130
 1796COC    COC 1796   9.245   6.243   5.828  0.3504 -0.5849 -0.0704
 1797COC    COC 1797   9.390   6.462   5.900  0.1163 -0.3638  0.3831
 1798COC    COC 1798   9.288   6.481   6.194  0.1651 -0.1975  0.1478
 1799COC    COC 1799   9.438   6.685   6.404  0.2596 -0.3893 -0.1388
 1800COC    COC 1800   9.275   6.925   6.429  0.2826  0.2122 -0.0017
 1801COC    COC 1801   9.375   7.189   6.497  0.2587 -0.0403 -0.3744
 1802COC    COC 1802   9.287   7.235   6.800  0.2551 -0.2726  0.2293
 1803COC    COC 1803   9.121   7.475   6.775 -0.2453  0.0315 -0.2035
 1804COC    COC 1804   8.844   7.399   6.840 -0.1035 -0.0023 -0.0931
 1805COC    COC 1805   8.768   7.104   6.774  0.0540 -0.0278 -0.2131
 1806COC    COC 1806   8.870   6.854   6.660 -0.2314  0.3028  0.0443
 1807COC    COC 1807   8.827   6.769   6.361  0.0020 -0.2629  0.0425
 1808COC    COC 1808   8.567   6.670   6.237 -0.3805 -0.1136 -0.2779
 1809COC    COC 1809   8.450   6.804   5.969 -0.0214  0.0549  0.4855
 1810COC    COC 1810   8.566   6.750   5.673 -0.2792  0.0764 -0.1797
 1811COC    COC 1811   8.427   6.862   5.437  0.2930 -0.2330  0.1924
 1812COC    COC 1812   8.455   7.161   5.400 -0.1257  0.1857 -0.0555
 1813COC    COC 1813   8.263   7.386   5.289 -0.4802 -0.1637 -0.0709
 1814COC    COC 1814   8.464   7.664   5.258 -0.3845  0.4890  0.0849
 1815COC    COC 1815   8.715   7.779   5.434 -0.1792 -0.3625 -0.2398
 1816COC    COC 1816   8.826   7.829   5.713  0.0054 -0.1436  0.0744
 1817COC    COC 1817   8.760   7.840   5.980  0.1572  0.1161  0.3405
 1818COC    COC 1818   8.924   7.891   6.191  0.0348 -0.1492 -0.4137
 1819COC    COC 1819   9.152   7.798   6.382 -0.1177 -0.0931  0.0981
 1820COC    COC 1820   9.421   7.916   6.288  0.0726 -0.2401  0.1571
 1821COC    COC 1821   9.482   8.207   6.235  0.2235  0.0445 -0.3003
 1822COC    COC 1822   9.647   8.390   6.054  0.0793 -0.0112 -0.3677
 1823COC    COC 1823   9.746   8.672   6.112  0.4164 -0.3488 -0.2354
 1824COC    COC 1824   9.995   8.773   5.947 -0.2341  0.2248 -0.2937
 1825COC    COC 1825  10.021   9.043   5.810 -0.0103  0.0470  0.2629
 1826COC    COC 1826   9.818   9.193   5.641 -0.5442  0.2200  0.2275
 1827COC    COC 1827   9.515   9.283   5.661 -0.2304  0.4796  0.0018
 1828COC    COC 1828   9.390   9.397   5.414  0.0840 -0.0542  0.2275
 1829COC    COC 1829   9.150   9.563   5.257 -0.1214 -0.1170 -0.3879
 1830COC    COC 1830   9.206   9.870   5.369 -0.3368  0.3227  0.2805
 1831COC    COC 1831   9.319   9.805   5.660  0.1049 -0.7385 -0.0081
 1832COC    COC 1832   9.182   9.548   5.725 -0.3359  0.2930 -0.2345
 1833COC    COC 1833   8.925   9.358   5.693 -0.0730  0.1045  0.1708
 1834COC    COC 1834   9.013   9.188   5.475  0.6382  0.3170 -0.2707
 1835COC    COC 1835   9.213   8.994   5.491 -0.1391  0.3101 -0.4206
 1836COC    COC 1836   9.235   8.730   5.621 -0.1293 -0.1528 -0.0056
 1837COC    COC 1837   9.380   8.448   5.603  0.0511 -0.0264 -0.0329
 1838COC    COC 1838   9.654   8.287   5.642 -0.2401  0.0480  0.0857
 1839COC    COC 1839   9.829   8.270   5.352  0.4092 -0.0171 -0.1797
 1840COH    COH 1840  10.094   8.217   5.323  0.1137  0.6690 -0.4506
 1841COH    COH 1841   8.898   8.623   5.564  0.7233  0.4014 -0.1969
 1842COC    COC 1842   8.849   8.605   5.813  0.0560 -0.2834 -0.1204
 1843COC    COC 1843   8.863   8.442   6.074  0.1825 -0.4619  0.1815
 1844COC    COC 1844   8.717   8.291   6.268 -0.2864  0.3017 -0.2250
 1845COC    COC 1845   8.476   8.150   6.244 -0.1818  0.1464  0.2340
 1846COC    COC 1846   8.330   8.004   6.479  0.3987 -0.2329  0.5308
 1847COC    COC 1847   8.150   8.214   6.658  0.1368  0.1952 -0.2598
 1848COC    COC 1848   7.896   8.258   6.810 -0.0850 -0.0293  0.2007
 1849COC    COC 1849   7.917   8.294   7.097  0.2970 -0.1358  0.0320
 1850COC    COC 1850   8.165   8.480   7.110  0.1126 -0.2110 -0.3430
 1851COC    COC 1851   8.374   8.496   7.357  0.0408  0.2488 -0.0379
 1852COC    COC 1852   8.545   8.257   7.403 -0.4276  0.1499 -0.0185
 1853COC    COC 1853   8.780   8.256   7.592 -0.0817 -0.3479 -0.2431
 1854COC    COC 1854   8.899   7.979   7.524  0.0143 -0.3184 -0.4069
 1855COC    COC 1855   8.814   7.763   7.732  0.2432  0.3904 -0.2240
 1856COC    COC 1856   9.032   7.607   7.797 -0.1578  0.1701 -0.3326
 1857COC    COC 1857   9.113   7.474   8.067 -0.1979  0.2840  0.1907
 1858COC    COC 1858   9.394   7.378   8.086 -0.0449  0.2613  0.0462
 1859COC    COC 1859   9.562   7.541   8.316 -0.2262 -0.2326  0.1045
 1860COC    COC 1860   9.671   7.822   8.339 -0.1273  0.2493  0.2698
 1861COC    COC 1861   9.564   8.005   8.491 -0.2336 -0.1212  0.2055
 1862COC    COC 1862   9.311   8.133   8.564 -0.3103 -0.0131 -0.0266
 1863COC    COC 1863   9.329   8.376   8.756 -0.1974  0.0363  0.5722
 1864COC    COC 1864   9.034   8.416   8.914  0.1639 -0.5084  0.0626
 1865COC    COC 1865   8.863   8.615   8.796  0.0090  0.0426  0.1556
 1866COC    COC 1866   8.875   8.885   8.950 -0.2576  0.3032  0.1093
 1867COC    COC 1867   9.096   9.119   9.030  0.1126  0.0167 -0.1862
 1868COC    COC 1868   9.384   9.077   9.073  0.3036 -0.1057 -0.1480
 1869COC    COC 1869   9.649   9.232   9.172  0.0022  0.1156  0.3213
 1870COC    COC 1870   9.707   9.415   9.385 -0.1459 -0.0755 -0.0747
 1871COC    COC 1871   9.945   9.328   9.530 -0.1041  0.1776  0.0990
 1872COC    COC 1872   9.988   9.191   9.791  0.3758  0.0900 -0.1408
 1873COC    COC 1873  10.128   8.973   9.962 -0.1412  0.0007  0.0943
 1874COC    COC 1874   0.058   9.092  10.072 -0.0966  0.1619 -0.0500
 1875COC    COC 1875   0.286   8.896   9.932 -0.3595  0.0432 -0.1573
 1876COC    COC 1876   0.127   8.660   9.817 -0.1986  0.0565 -0.2540
 1877COC    COC 1877   0.222   8.510   9.589  0.0094  0.1484 -0.1098
 1878COC    COC 1878   0.002   8.545   9.387 -0.5370  0.1006  0.3272
 1879COC    COC 1879   0.160   8.614   9.169  0.4704 -0.1105  0.0134
 1880COC    COC 1880   0.151   8.828   8.931 -0.0865  0.0640  0.1282
 1881COC    COC 1881   0.368   9.007   8.837  0.0618 -0.2144 -0.0916
 1882COC    COC 1882   0.627   8.871   8.947  0.1524  0.0112  0.1099
 1883COC    COC 1883   0.741   8.745   8.691  0.2817 -0.2090  0.2341
 1884COC    COC 1884   0.988   8.744   8.534 -0.2113  0.2904 -0.4126
 1885COC    COC 1885   1.105   8.990   8.391  0.4042  0.3544  0.2992
 1886COH    COH 1886   1.281   9.047   8.189 -0.0665  0.5672  0.0929
 1887COH    COH 1887   7.238   7.139   8.390  0.7962 -0.2843 -0.4692
 1888COC    COC 1888   6.970   7.121   8.407 -0.3549  0.2749 -0.0720
 1889COC    COC 1889   6.809   6.848   8.485 -0.2420  0.2005 -0.2584
 1890COC    COC 1890   6.798   6.544   8.457 -0.2801 -0.1502 -0.1703
 1891COC    COC 1891   6.741   6.259   8.633 -0.0953 -0.1189  0.3856
 1892COC    COC 1892   6.495   6.147   8.511  0.0715  0.4416  0.1036
 1893COC    COC 1893   6.381   5.968   8.304  0.3109 -0.0975  0.0431
 1894COC    COC 1894   6.244   5.916   8.024  0.1329  0.3148  0.0453
 1895COC    COC 1895   6.099   5.639   8.026 -0.4375 -0.0002 -0.4257
 1896COC    COC 1896   5.842   5.511   7.953 -0.1372  0.3382 -0.0259
 1897COC    COC 1897   5.566   5.651   7.994  0.4937 -0.0116 -0.1233
 1898COC    COC 1898   5.395   5.744   7.780  0.3729 -0.2205 -0.1511
 1899COC    COC 1899   5.092   5.693   7.796 -0.0229 -0.1674  0.2120
 1900COC    COC 1900   4.949   5.741   8.093 -0.4363 -0.0574  0.1138
 1901COC    COC 1901   4.701   5.687   8.265  0.2221  0.0541 -0.1771
 1902COC    COC 1902   4.387   5.576   8.272 -0.4120 -0.2033 -0.2447
 1903COC    COC 1903   4.201   5.658   8.104  0.2711 -0.1791 -0.1593
 1904COC    COC 1904   4.080   5.359   8.085 -0.2541 -0.0741  0.2369
 1905COC    COC 1905   3.971   5.099   8.212  0.2182  0.2982 -0.0743
 1906COC    COC 1906   3.814   5.074   8.456 -0.0655  0.0115 -0.0601
 1907COC    COC 1907   3.564   4.967   8.497 -0.1439  0.3515  0.0309
 1908COC    COC 1908   3.364   5.165   8.330  0.1849  0.5299 -0.1044
 1909COC    COC 1909   3.081   5.015   8.372 -0.0111  0.1936 -0.1424
 1910COC    COC 1910   2.931   4.754   8.486  0.0083  0.1055  0.0677
 1911COC    COC 1911   3.192   4.638   8.583  0.0799 -0.0468  0.0883
 1912COC    COC 1912   3.344   4.525   8.830 -0.2999  0.1471  0.0218
 1913COC    COC 1913   3.520   4.727   8.987  0.0443 -0.1568  0.2852
 1914COC    COC 1914   3.576   4.630   9.262 -0.5159 -0.2229 -0.0710
 1915COC    COC 1915   3.399   4.451   9.405 -0.1781  0.2250 -0.0170
 1916COC    COC 1916   3.170   4.325   9.273 -0.0486  0.2999  0.3050
 1917COC    COC 1917   3.029   4.146   9.499 -0.0620  0.2825 -0.1093
 1918COC    COC 1918   3.100   3.834   9.493 -0.0947  0.0825 -0.2310
 1919COC    COC 1919   2.858   3.686   9.635  0.2034  0.0363 -0.1006
 1920COC    COC 1920   2.671   3.555   9.486  0.0055  0.3172  0.3895
 1921COC    COC 1921   2.654   3.397   9.218  0.4892  0.0411  0.0252
 1922COC    COC 1922   2.722   3.149   9.089  0.0665 -0.2048 -0.0636
 1923COC    COC 1923   2.847   2.916   9.216  0.2865 -0.1441  0.1347
 1924COC    COC 1924   3.006   2.685   9.076 -0.0077  0.0130 -0.5212
 1925COC    COC 1925   3.000   2.444   9.237  0.1895  0.0160 -0.0759
 1926COC    COC 1926   3.126   2.282   9.466  0.0422  0.3460  0.2995
 1927COC    COC 1927   3.368   2.183   9.644 -0.1459 -0.5748 -0.5108
 1928COC    COC 1928   3.587   2.387   9.687 -0.0084  0.0053 -0.4247
 1929COC    COC 1929   3.740   2.624   9.620  0.2967  0.2369  0.0109
 1930COC    COC 1930   3.770   2.795   9.409 -0.4457  0.0076  0.2667
 1931COC    COC 1931   4.062   2.858   9.309 -0.2463  0.5966  0.0849
 1932COH    COH 1932   4.097   2.760   9.046  0.0031 -0.2319  0.0704
 1933COH    COH 1933   0.086   6.864   0.590  0.0545  0.4238 -0.0737
 1934COC    COC 1934   0.162   6.617   0.706 -0.2543 -0.1208 -0.0943
 1935COC    COC 1935   0.275   6.442   0.490  0.7027 -0.0973 -0.2094
 1936COC    COC 1936   0.270   6.397   0.215  0.0371  0.5597  0.0955
 1937COC    COC 1937   0.154   6.399  10.250 -0.0285  0.0636 -0.1870
 1938COC    COC 1938   0.362   6.282  10.015  0.3949 -0.1597  0.2901
 1939COC    COC 1939   0.143   6.065   9.923  0.0546 -0.0229  0.1990
 1940COC    COC 1940   0.084   5.930   9.620  0.3128 -0.2962 -0.0037
 1941COC    COC 1941   0.055   5.609   9.531  0.0587  0.2795  0.2561
 1942COC    COC 1942   0.257   5.478   9.349 -0.3819 -0.1595  0.0339
 1943COC    COC 1943   0.530   5.403   9.494  0.2411  0.0109 -0.0538
 1944COC    COC 1944   0.656   5.515   9.756  0.2111  0.0415  0.2888
 1945COC    COC 1945   0.919   5.668   9.834 -0.1170 -0.0107 -0.0471
 1946COC    COC 1946   0.838   5.927   9.649 -0.3121 -0.1704 -0.1718
 1947COC    COC 1947   0.974   6.212   9.707  0.1102  0.0211 -0.0720
 1948COC    COC 1948   0.835   6.457   9.866  0.0127 -0.3955 -0.2900
 1949COC    COC 1949   0.946   6.760   9.894  0.1729 -0.1809  0.1142
 1950COC    COC 1950   1.185   6.879   9.990  0.0949 -0.3315 -0.6557
 1951COC    COC 1951   1.483   6.870   9.943  0.3527  0.1078 -0.1069
 1952COC    COC 1952   1.621   6.789   9.710  0.3387  0.2372  0.1551
 1953COC    COC 1953   1.694   6.596   9.453  0.1876  0.2416 -0.0734
 1954COC    COC 1954   1.613   6.269   9.475 -0.0205 -0.2355  0.0374
 1955COC    COC 1955   1.791   6.164   9.659 -0.0748 -0.2644 -0.1818
 1956COC    COC 1956   2.048   6.085   9.781  0.0808 -0.2414 -0.1407
 1957COC    COC 1957   2.237   5.897   9.594 -0.3292  0.0587 -0.0174
 1958COC    COC 1958   2.199   5.630   9.474 -0.0523  0.3244  0.3453
 1959COC    COC 1959   2.157   5.349   9.535  0.2923  0.1441 -0.4121
 1960COC    COC 1960   1.833   5.297   9.657 -0.1149 -0.4343 -0.2482
 1961COC    COC 1961   1.672   5.323   9.902 -0.0581  0.0529  0.1290
 1962COC    COC 1962   1.369   5.437   9.873  0.0340  0.2447 -0.1786
 1963COC    COC 1963   1.352   5.413   9.558 -0.1043  0.2821 -0.1921
 1964COC    COC 1964   1.253   5.194   9.374 -0.2149 -0.3549 -0.1248
 1965COC    COC 1965   1.222   4.893   9.483 -0.0314  0.0083  0.2041
 1966COC    COC 1966   1.407   4.637   9.458  0.0718  0.0729  0.2427
 1967COC    COC 1967   1.297   4.580   9.195  0.3234 -0.0291 -0.1030
 1968COC    COC 1968   1.399   4.830   9.023 -0.0595 -0.2223 -0.5324
 1969COC    COC 1969   1.366   4.935   8.717  0.1275  0.2839 -0.0782
 1970COC    COC 1970   1.431   5.158   8.498  0.0507  0.4041 -0.1558
 1971COC    COC 1971   1.386   5.377   8.661  0.1380 -0.2513  0.3859
 1972COC    COC 1972   1.563   5.533   8.455  0.1521  0.0531  0.3126
 1973COC    COC 1973   1.531   5.768   8.290 -0.1527 -0.3321 -0.0617
 1974COC    COC 1974   1.326   6.005   8.418 -0.2977 -0.0670 -0.1010
 1975COC    COC 1975   1.246   5.828   8.693  0.1501 -0.0113  0.1783
 1976COC    COC 1976   0.962   5.784   8.688  0.2776 -0.0044 -0.1274
 1977COC    COC 1977   0.758   5.708   8.523 -0.3694 -0.3757 -0.1358
 1978COH    COH 1978   0.601   5.527   8.624  0.1448 -0.4110 -0.3606
 1979COH    COH 1979   6.838  10.283   3.685  0.4014 -0.2891 -0.0574
 1980COC    COC 1980   7.113   0.035   3.728 -0.1318 -0.2368 -0.0071
 1981COC    COC 1981   7.271   0.228   3.568  0.3397  0.1280  0.0067
 1982COC    COC 1982   7.169   0.532   3.618 -0.0686  0.0548 -0.1305
 1983COC    COC 1983   7.013   0.564   3.889 -0.2112  0.3736  0.0606
 1984COC    COC 1984   6.730   0.449   3.859 -0.0870  0.4808 -0.0941
 1985COC    COC 1985   6.552   0.369   4.066 -0.1217  0.1096 -0.0206
 1986COC    COC 1986   6.336   0.495   4.274 -0.1515 -0.0847  0.1617
 1987COC    COC 1987   6.055   0.567   4.230 -0.1169  0.1650 -0.0530
 1988COC    COC 1988   5.823   0.364   4.223  0.2178 -0.1134 -0.2800
 1989COC    COC 1989   5.940   0.153   4.358 -0.5420 -0.3212 -0.3212
 1990COC    COC 1990   6.159   0.093   4.165 -0.1988 -0.0115 -0.5254
 1991COC    COC 1991   6.036   0.082   3.906 -0.1767 -0.2645  0.0689
 1992COC    COC 1992   5.984   0.065   3.624  0.3880  0.2924 -0.4581
 1993COC    COC 1993   5.686   0.132   3.606 -0.0586  0.2709  0.2587
 1994COC    COC 1994   5.496   0.042   3.367 -0.0722  0.1212  0.1829
 1995COC    COC 1995   5.578  10.142   3.140 -0.2104 -0.1981  0.2918
 1996COC    COC 1996   5.808  10.015   3.252 -0.5364 -0.2760 -0.1408
 1997COC    COC 1997   5.912   9.765   3.168  0.1241  0.1266  0.1158
 1998COC    COC 1998   6.248   9.698   3.195 -0.0594  0.0219  0.3162
 1999COC    COC 1999   6.346   9.470   3.379  0.0159 -0.0415 -0.0136
 2000COC    COC 2000   6.640   9.492   3.472 -0.1151 -0.1596  0.0281
 2001COC    COC 2001   6.712   9.791   3.521  0.1876  0.3985  0.0263
 2002COC    COC 2002   6.906   9.785   3.299 -0.2697  0.0585  0.3424
 2003COC    COC 2003   7.035   9.563   3.155 -0.2412 -0.0113 -0.1607
 2004COC    COC 2004   7.293   9.556   3.073 -0.7553  0.1382  0.4856
 2005COC    COC 2005   7.444   9.413   2.834 -0.0253  0.0090  0.0805
 2006COC    COC 2006   7.733   9.567   2.786  0.0778  0.0389 -0.2150
 2007COC    COC 2007   7.724   9.728   2.551  0.0878 -0.1837  0.1833
 2008COC    COC 2008   7.947   9.913   2.494 -0.2964  0.1383 -0.0383
 2009COC    COC 2009   8.160   9.866   2.309  0.1985 -0.4862 -0.1149
 2010COC    COC 2010   8.002  10.034   2.108 -0.1651 -0.1510 -0.2817
 2011COC    COC 2011   7.779  10.196   2.266 -0.0859  0.1845  0.0360
 2012COC    COC 2012   7.988   0.074   2.349 -0.4895  0.5738  0.0961
 2013COC    COC 2013   8.218  10.272   2.515  0.0975 -0.1784 -0.4500
 2014COC    COC 2014   8.526  10.325   2.386  0.0859 -0.0380  0.0790
 2015COC    COC 2015   8.785  10.255   2.497 -0.0141  0.4217  0.3206
 2016COC    COC 2016   9.047  10.095   2.353 -0.0267  0.2692 -0.0353
 2017COC    COC 2017   9.221  10.271   2.192  0.0425  0.1365 -0.0971
 2018COC    COC 2018   9.435  10.235   1.968  0.1189  0.2962 -0.4483
 2019COC    COC 2019   9.694   0.113   1.983 -0.0114  0.1601 -0.0869
 2020COC    COC 2020   9.720   0.284   1.741 -0.0314 -0.1975  0.0167
 2021COC    COC 2021   9.675   0.573   1.810  0.0369  0.0820 -0.1531
 2022COC    COC 2022   9.489   0.782   1.676  0.2787  0.1150  0.0806
 2023COC    COC 2023   9.174   0.762   1.681  0.2642  0.1252 -0.2715
 2024COH    COH 2024   9.075   0.912   1.505  0.2555 -0.1197  0.4037
 2025COH    COH 2025   4.959   1.176   9.627 -0.3573 -0.2066 -0.1689
 2026COC    COC 2026   5.160   1.005   9.632 -0.0462  0.2461 -0.0168
 2027COC    COC 2027   5.113   0.717   9.729  0.1588  0.0986 -0.1343
 2028COC    COC 2028   5.046   0.615   9.997  0.0339 -0.5861  0.0407
 2029COC    COC 2029   5.052   0.710  10.282 -0.3104 -0.5269  0.2271
 2030COC    COC 2030   4.799   0.774   0.091 -0.3524  0.4038  0.3011
 2031COC    COC 2031   4.791   0.642   0.382  0.0511 -0.2456  0.4072
 2032COC    COC 2032   4.954   0.637   0.625 -0.2058 -0.1898  0.1001
 2033COC    COC 2033   4.783   0.694   0.844 -0.4120 -0.1961  0.1633
 2034COC    COC 2034   4.661   0.892   1.024  0.0522 -0.0463  0.2337
 2035COC    COC 2035   4.768   1.094   1.192 -0.0964  0.1515 -0.0953
 2036COC    COC 2036   5.066   1.040   1.075 -0.2890 -0.0219  0.0522
 2037COC    COC 2037   5.187   0.943   0.803 -0.3465  0.4880 -0.0737
 2038COC    COC 2038   5.405   1.114   0.635  0.1430  0.1645  0.3558
 2039COC    COC 2039   5.518   0.966   0.372 -0.1061  0.1039  0.0458
 2040COC    COC 2040   5.474   0.684   0.360 -0.2159 -0.1178  0.0697
 2041COC    COC 2041   5.237   0.522   0.269  0.2427  0.1898 -0.1125
 2042COC    COC 2042   5.183   0.251   0.373 -0.3390 -0.1937 -0.1991
 2043COC    COC 2043   5.194  10.317   0.227 -0.4689 -0.3726  0.1334
 2044COC    COC 2044   5.384  10.069   0.321 -0.3141  0.0111  0.0411
 2045COC    COC 2045   5.481   9.803   0.195 -0.1290  0.2481 -0.1577
 2046COC    COC 2046   5.497   9.769  10.234  0.0711 -0.2530 -0.1281
 2047COC    COC 2047   5.411   9.946   9.979  0.1576  0.0890 -0.1045
 2048COC    COC 2048   5.542  10.200   9.860 -0.3030  0.1315  0.2326
 2049COC    COC 2049   5.562  10.185   9.536  0.1533  0.0861  0.2383
 2050COC    COC 2050   5.806  10.026   9.433 -0.0803 -0.0749  0.4084
 2051COC    COC 2051   5.952  10.185   9.233 -0.0186  0.1533  0.0031
 2052COC    COC 2052   5.710  10.337   9.100 -0.2404 -0.2321  0.1136
 2053COC    COC 2053   5.501   0.180   9.207 -0.1657  0.0715  0.5199
 2054COC    COC 2054   5.219   0.085   9.309 -0.2283  0.2389  0.1504
 2055COC    COC 2055   5.243  10.126   9.205  0.2135 -0.6144  0.1830
 2056COC    COC 2056   5.006   9.931   9.258  0.1085  0.0739  0.4242
 2057COC    COC 2057   4.899   9.667   9.066 -0.2385 -0.3951  0.1523
 2058COC    COC 2058   4.612   9.608   8.955 -0.0294 -0.2445  0.1190
 2059COC    COC 2059   4.454   9.403   8.850  0.1218  0.0370  0.0164
 2060COC    COC 2060   4.329   9.189   8.998  0.0737  0.0352  0.0223
 2061COC    COC 2061   4.447   9.005   9.239 -0.2316 -0.0180  0.1633
 2062COC    COC 2062   4.695   8.904   9.406  0.1663  0.0702  0.0534
 2063COC    COC 2063   4.774   8.880   9.681  0.1195 -0.0758  0.2374
 2064COC    COC 2064   4.995   8.797   9.847  0.1300 -0.3840 -0.3908
 2065COC    COC 2065   5.025   8.604  10.006 -0.1793  0.0019 -0.3574
 2066COC    COC 2066   5.045   8.322  10.180  0.2600 -0.1317 -0.1365
 2067COC    COC 2067   5.241   8.318   0.072  0.1713 -0.0703 -0.0370
 2068COC    COC 2068   5.155   8.439   0.347  0.0372 -0.4554  0.2943
 2069COC    COC 2069   5.057   8.208   0.541  0.0052  0.0056 -0.0675
 2070COH    COH 2070   4.834   8.073   0.596 -0.2015 -0.2375 -0.5863
 2071COH    COH 2071   8.579   4.910   5.901  0.3093  0.4250  0.1070
 2072COC    COC 2072   8.454   5.030   5.698  0.4211  0.3381  0.1736
 2073COC    COC 2073   8.157   5.114   5.705 -0.1067  0.0070  0.1393
 2074COC    COC 2074   7.948   5.073   5.932  0.2083  0.3227  0.3159
 2075COC    COC 2075   7.717   4.854   5.936  0.0225  0.2527  0.0790
 2076COC    COC 2076   7.719   4.614   6.154 -0.0133  0.0796 -0.0867
 2077COC    COC 2077   7.487   4.548   6.328  0.4698  0.3005  0.0200
 2078COC    COC 2078   7.544   4.612   6.619  0.2223  0.2462 -0.0729
 2079COC    COC 2079   7.434   4.441   6.824 -0.1632 -0.3613 -0.2626
 2080COC    COC 2080   7.435   4.184   6.675  0.1147 -0.3130  0.2393
 2081COC    COC 2081   7.661   4.004   6.695 -0.4514 -0.2576  0.2262
 2082COC    COC 2082   7.742   3.730   6.835  0.2581 -0.1186 -0.1052
 2083COC    COC 2083   7.650   3.504   6.645 -0.1448  0.2142 -0.0320
 2084COC    COC 2084   7.379   3.403   6.683 -0.3330  0.2856  0.0284
 2085COC    COC 2085   7.215   3.306   6.466 -0.1095 -0.0711  0.0735
 2086COC    COC 2086   6.995   3.424   6.287 -0.0029 -0.0511  0.1704
 2087COC    COC 2087   6.914   3.718   6.186 -0.2436  0.0103  0.1490
 2088COC    COC 2088   7.102   3.928   6.092 -0.3700 -0.0429  0.4714
 2089COC    COC 2089   7.352   3.960   5.912  0.2049  0.0075 -0.0201
 2090COC    COC 2090   7.310   3.931   5.616  0.3164  0.2096  0.2409
 2091COC    COC 2091   7.268   4.090   5.350  0.1389  0.0833 -0.2810
 2092COC    COC 2092   7.100   4.341   5.354 -0.1228  0.1684  0.0362
 2093COC    COC 2093   7.171   4.591   5.499  0.2349 -0.0246 -0.0241
 2094COC    COC 2094   6.988   4.788   5.638 -0.0503 -0.0320 -0.2692
 2095COC    COC 2095   7.071   4.816   5.948 -0.1969 -0.0326  0.5375
 2096COC    COC 2096   6.857   4.879   6.130  0.1575 -0.1863  0.0564
 2097COC    COC 2097   6.792   4.986   6.388 -0.1711  0.0253 -0.2137
 2098COC    COC 2098   6.723   4.997   6.660  0.0867  0.2172  0.0641
 2099COC    COC 2099   6.424   5.023   6.707  0.1750  0.2197 -0.1820
 2100COC    COC 2100   6.257   5.190   6.526  0.3310  0.1318  0.5287
 2101COC    COC 2101   5.984   5.067   6.404 -0.0670  0.0991  0.1556
 2102COC    COC 2102   5.794   5.062   6.201  0.1821 -0.4011  0.0204
 2103COC    COC 2103   5.766   4.816   6.011 -0.4418 -0.0312 -0.0659
 2104COC    COC 2104   5.475   4.758   5.889  0.1394 -0.1450  0.0203
 2105COC    COC 2105   5.225   4.934   5.836  0.1850  0.1831 -0.0943
 2106COC    COC 2106   5.280   5.170   6.006 -0.0177 -0.0205  0.0026
 2107COC    COC 2107   5.025   5.177   6.162  0.2654 -0.1623  0.0193
 2108COC    COC 2108   4.794   4.972   6.129 -0.1052  0.0002 -0.3802
 2109COC    COC 2109   4.709   4.743   6.272  0.3774  0.0896  0.1202
 2110COC    COC 2110   4.702   4.465   6.237 -0.0235 -0.3385 -0.1355
 2111COC    COC 2111   4.962   4.377   6.306 -0.5154 -0.1695  0.0601
 2112COC    COC 2112   5.129   4.424   6.552 -0.2395  0.2523  0.1728
 2113COC    COC 2113   5.381   4.538   6.608  0.2248  0.0320  0.0841
 2114COC    COC 2114   5.429   4.680   6.868 -0.1716  0.0344  0.0020
 2115COC    COC 2115   5.237   4.870   6.880  0.1491  0.1238 -0.5025
 2116COH    COH 2116   5.068   4.863   6.667 -0.1097 -0.1957 -0.0952
 2117COH    COH 2117   9.312   2.405   5.856  0.4657 -0.1535  0.5779
 2118COC    COC 2118   9.416   2.565   6.044  0.0442  0.0693  0.5220
 2119COC    COC 2119   9.603   2.760   5.899 -0.0584 -0.1283  0.0285
 2120COC    COC 2120   9.718   3.011   6.015  0.0345  0.0881  0.0422
 2121COC    COC 2121   9.933   3.265   6.016 -0.0293 -0.1138 -0.1986
 2122COC    COC 2122  10.085   3.185   6.273  0.1243 -0.0983  0.1267
 2123COC    COC 2123  10.154   2.996   6.493 -0.0619  0.2438  0.5169
 2124COC    COC 2124  10.114   3.096   6.755 -0.0828 -0.2191  0.0768
 2125COC    COC 2125   9.872   2.993   6.903 -0.0916 -0.0747  0.1632
 2126COC    COC 2126  10.002   3.088   7.168 -0.0027 -0.1310 -0.3764
 2127COC    COC 2127   9.951   3.374   7.270  0.2316  0.1235  0.3320
 2128COC    COC 2128  10.002   3.469   7.549 -0.2494 -0.1236  0.1619
 2129COC    COC 2129   9.853   3.354   7.767  0.0546 -0.0378  0.4363
 2130COC    COC 2130   9.844   3.240   8.017 -0.1552 -0.0399 -0.1752
 2131COC    COC 2131   9.610   3.209   8.213 -0.0539  0.1914 -0.5671
 2132COC    COC 2132   9.680   3.327   8.532 -0.4792 -0.3877  0.0556
 2133COC    COC 2133   9.598   3.589   8.730 -0.0209  0.2289  0.0420
 2134COC    COC 2134   9.714   3.724   8.972 -0.1230 -0.2011  0.0044
 2135COC    COC 2135   9.609   3.734   9.238  0.0489  0.1015  0.1123
 2136COC    COC 2136   9.729   3.843   9.518 -0.2635 -0.0066 -0.0016
 2137COC    COC 2137   9.895   4.047   9.613 -0.2186 -0.2594 -0.2744
 2138COC    COC 2138   9.767   4.273   9.754  0.0955  0.2498  0.1396
 2139COC    COC 2139   9.563   4.118   9.906  0.0424  0.0953  0.0318
 2140COC    COC 2140   9.421   4.045  10.176  0.2050 -0.0902  0.3266
 2141COC    COC 2141   9.370   3.776  10.244  0.2320 -0.0831 -0.3980
 2142COC    COC 2142   9.301   3.694   0.185  0.1754 -0.2364  0.4618
 2143COC    COC 2143   9.315   3.913   0.367 -0.1243  0.3224  0.4198
 2144COC    COC 2144   9.063   3.970   0.508 -0.2432  0.0741 -0.0338
 2145COC    COC 2145   8.780   3.878   0.400  0.3504 -0.1461 -0.1141
 2146COC    COC 2146   8.609   4.101   0.478  0.3651  0.2728 -0.3874
 2147COC    COC 2147   8.371   4.141   0.662  0.0053 -0.2571 -0.2218
 2148COC    COC 2148   8.458   4.378   0.778  0.0950  0.4300 -0.0097
 2149COC    COC 2149   8.525   4.599   0.555 -0.0092  0.0782  0.0923
 2150COC    COC 2150   8.662   4.722   0.304 -0.0907  0.1550 -0.0556
 2151COC    COC 2151   8.868   4.870   0.197  0.1378  0.2730  0.1733
 2152COC    COC 2152   9.186   4.854   0.284 -0.2146  0.3362 -0.2339
 2153COC    COC 2153   9.185   4.696   0.568  0.1291  0.3032  0.1078
 2154COC    COC 2154   9.217   4.673   0.891 -0.3095 -0.1747 -0.1071
 2155COC    COC 2155   9.481   4.587   1.063  0.0298 -0.0443 -0.3206
 2156COC    COC 2156   9.694   4.481   0.910  0.3399  0.1860  0.0989
 2157COC    COC 2157   9.598   4.638   0.664 -0.2767 -0.3111 -0.0456
 2158COC    COC 2158   9.588   4.954   0.618  0.0944  0.5885  0.5837
 2159COC    COC 2159   9.345   5.085   0.742  0.3012  0.1556  0.1040
 2160COC    COC 2160   9.424   5.084   1.041 -0.1477 -0.0608  0.0549
 2161COC    COC 2161   9.376   5.191   1.296 -0.1287  0.1427 -0.1824
 2162COH    COH 2162   9.458   5.446   1.253 -0.2558  0.9803  0.0409
 2163COH    COH 2163   5.672   7.251   5.100 -0.0068 -0.1305  0.0234
 2164COC    COC 2164   5.612   7.473   4.960 -0.2432  0.0392  0.2882
 2165COC    COC 2165   5.316   7.572   4.948 -0.1547  0.3861  0.0806
 2166COC    COC 2166   5.228   7.809   5.088 -0.4751 -0.5029 -0.0929
 2167COC    COC 2167   5.178   7.712   5.377  0.6714  0.0284  0.3520
 2168COC    COC 2168   5.349   7.585   5.580  0.1058 -0.2847 -0.1465
 2169COC    COC 2169   5.582   7.340   5.517  0.3241 -0.0620 -0.0058
 2170COC    COC 2170   5.911   7.386   5.502  0.0368 -0.1743  0.1063
 2171COC    COC 2171   6.110   7.171   5.604 -0.0397 -0.0076 -0.6176
 2172COC    COC 2172   6.312   6.966   5.721 -0.4631 -0.4751  0.0244
 2173COC    COC 2173   6.549   6.880   5.597  0.5408  0.4355 -0.2854
 2174COC    COC 2174   6.558   6.606   5.470  0.0261  0.0339  0.0141
 2175COC    COC 2175   6.371   6.444   5.309 -0.3466  0.4718 -0.2466
 2176COC    COC 2176   6.462   6.157   5.309 -0.1498 -0.2034  0.1983
 2177COC    COC 2177   6.325   5.991   5.491  0.2210  0.5595 -0.0326
 2178COC    COC 2178   6.062   6.127   5.547  0.0329  0.1532 -0.2785
 2179COC    COC 2179   6.024   6.094   5.876  0.0488  0.3828  0.1269
 2180COC    COC 2180   6.253   5.895   5.951 -0.2156  0.0546  0.4448
 2181COC    COC 2181   6.392   5.629   5.849 -0.0908  0.3396  0.1516
 2182COC    COC 2182   6.594   5.451   5.984 -0.1952  0.2409 -0.0617
 2183COC    COC 2183   6.529   5.387   6.259 -0.0380 -0.0377  0.1760
 2184COC    COC 2184   6.769   5.399   6.492 -0.1359 -0.0438  0.0547
 2185COC    COC 2185   7.049   5.304   6.530 -0.0585 -0.2429  0.1458
 2186COC    COC 2186   7.131   5.253   6.839  0.3608  0.1577 -0.2842
 2187COC    COC 2187   7.266   5.347   7.075  0.0348 -0.3862  0.0010
 2188COC    COC 2188   7.313   5.187   7.317 -0.1381 -0.3148 -0.0955
 2189COC    COC 2189   7.014   5.092   7.355  0.2090  0.0460 -0.2526
 2190COC    COC 2190   6.982   4.911   7.117 -0.3591 -0.1183 -0.1974
 2191COC    COC 2191   6.748   4.763   7.039  0.4842  0.0657  0.1686
 2192COC    COC 2192   6.641   4.441   6.991 -0.0054 -0.0968 -0.1920
 2193COC    COC 2193   6.604   4.210   7.207 -0.2523  0.0152 -0.0953
 2194COC    COC 2194   6.442   3.949   7.181 -0.2566  0.1976 -0.0637
 2195COC    COC 2195   6.405   3.673   7.351  0.2314 -0.5852 -0.0123
 2196COC    COC 2196   6.212   3.395   7.390  0.1825 -0.1072 -0.2701
 2197COC    COC 2197   5.909   3.463   7.391 -0.2830  0.1734 -0.0319
 2198COC    COC 2198   5.728   3.547   7.167 -0.1616 -0.0423 -0.3144
 2199COC    COC 2199   5.519   3.766   7.224  0.0559 -0.1647 -0.0550
 2200COC    COC 2200   5.289   3.900   7.087  0.2923 -0.1721  0.2229
 2201COC    COC 2201   5.120   4.053   7.299 -0.0749 -0.0537  0.1543
 2202COC    COC 2202   5.134   3.908   7.568 -0.2195  0.1114  0.0382
 2203COC    COC 2203   4.957   4.062   7.741 -0.0821  0.3114  0.5415
 2204COC    COC 2204   4.858   4.291   7.537  0.6350  0.1222 -0.1422
 2205COC    COC 2205   4.703   4.245   7.288  0.1299 -0.0296  0.0902
 2206COC    COC 2206   4.510   4.451   7.142 -0.0835  0.2021 -0.2830
 2207COC    COC 2207   4.275   4.582   7.266 -0.1091 -0.0344 -0.2234
 2208COH    COH 2208   4.351   4.825   7.333 -0.2153  0.4026  0.4013
 2209COH    COH 2209   9.945   4.661   2.579 -0.3814  0.0352 -0.0477
 2210COC    COC 2210  10.020   4.556   2.313 -0.0478  0.1020  0.2058
 2211COC    COC 2211   9.951   4.272   2.289 -0.1665 -0.0150  0.1329
 2212COC    COC 2212  10.049   4.098   2.060 -0.1172  0.5110  0.2386
 2213COC    COC 2213  10.005   3.795   1.994 -0.4422  0.1395  0.0013
 2214COC    COC 2214  10.162   3.829   1.720  0.4440 -0.0212 -0.0293
 2215COC    COC 2215   9.979   4.045   1.562  0.1866 -0.1494 -0.1175
 2216COC    COC 2216   9.788   3.781   1.511 -0.3791  0.4419 -0.0892
 2217COC    COC 2217   9.702   3.551   1.723 -0.1409  0.0889  0.0736
 2218COC    COC 2218   9.501   3.585   1.912  0.0336  0.0370 -0.2375
 2219COC    COC 2219   9.371   3.406   2.124  0.2359  0.1891  0.0307
 2220COC    COC 2220   9.189   3.215   1.950  0.1143 -0.4645 -0.1351
 2221COC    COC 2221   9.173   2.872   1.976  0.2992 -0.3877 -0.0755
 2222COC    COC 2222   9.483   2.724   1.950  0.1542 -0.2086 -0.2088
 2223COC    COC 2223   9.605   2.585   2.175 -0.2388  0.0969  0.3027
 2224COC    COC 2224   9.553   2.630   2.438 -0.2008  0.3147 -0.1373
 2225COC    COC 2225   9.600   2.699   2.716 -0.0910 -0.1325  0.1638
 2226COC    COC 2226   9.616   2.989   2.749  0.3008 -0.1818  0.3250
 2227COC    COC 2227   9.348   3.054   2.865 -0.2092  0.0711  0.0282
 2228COC    COC 2228   9.465   3.275   3.057  0.5373 -0.1734 -0.0170
 2229COC    COC 2229   9.403   3.268   3.379  0.4806  0.0716  0.0897
 2230COC    COC 2230   9.231   3.470   3.477 -0.0558 -0.0133  0.5960
 2231COC    COC 2231   9.247   3.762   3.476 -0.1865 -0.0415  0.1375
 2232COC    COC 2232   9.531   3.859   3.576  0.0834  0.0561  0.3601
 2233COC    COC 2233   9.752   4.047   3.470  0.0601  0.0930  0.0077
 2234COC    COC 2234   9.755   4.083   3.153 -0.1626  0.3134  0.3911
 2235COC    COC 2235   9.558   4.281   3.050 -0.2693  0.1141 -0.1599
 2236COC    COC 2236   9.694   4.371   2.755 -0.5310 -0.1329  0.0555
 2237COC    COC 2237   9.929   4.225   2.722  0.1086  0.0927 -0.1385
 2238COC    COC 2238  10.181   4.168   2.892  0.1023 -0.0603 -0.4501
 2239COC    COC 2239  10.277   3.934   3.050  0.1626  0.1629 -0.2289
 2240COC    COC 2240  10.144   3.660   2.982  0.6812 -0.0048 -0.1227
 2241COC    COC 2241  10.012   3.481   2.747 -0.1005 -0.3759 -0.0938
 2242COC    COC 2242   9.743   3.420   2.755  0.4187 -0.1925 -0.0872
 2243COC    COC 2243   9.607   3.354   2.477  0.2224  0.2506 -0.0671
 2244COC    COC 2244   9.333   3.440   2.537 -0.0499 -0.2788 -0.0903
 2245COC    COC 2245   9.191   3.681   2.375  0.0850 -0.5818  0.2243
 2246COC    COC 2246   9.394   3.876   2.244  0.3626  0.3628  0.1518
 2247COC    COC 2247   9.543   4.131   2.318  0.1856  0.3997 -0.2584
 2248COC    COC 2248   9.496   4.406   2.361  0.2476 -0.0589  0.2341
 2249COC    COC 2249   9.332   4.484   2.603 -0.3072  0.0415 -0.0224
 2250COC    COC 2250   9.304   4.191   2.734  0.2736  0.3858 -0.0133
 2251COC    COC 2251   9.072   4.033   2.574  0.0777 -0.0651 -0.1502
 2252COC    COC 2252   9.110   4.207   2.298  0.4101 -0.2852 -0.0879
 2253COC    COC 2253   9.251   4.242   2.003  0.0530 -0.3784  0.1561
 2254COH    COH 2254   9.172   4.351   1.749 -0.5216  0.3934  0.2976
 2255COH    COH 2255   3.715   7.333   6.910 -0.5710 -0.4221  0.0694
 2256COC    COC 2256   3.547   7.524   6.973 -0.2901 -0.1367 -0.1493
 2257COC    COC 2257   3.738   7.620   7.194  0.3682  0.0106 -0.2908
 2258COC    COC 2258   3.980   7.816   7.125 -0.0460 -0.1161 -0.0379
 2259COC    COC 2259   4.217   7.790   7.252  0.0782  0.0215  0.0381
 2260COC    COC 2260   4.200   7.496   7.357  0.3186 -0.2420 -0.2908
 2261COC    COC 2261   4.341   7.206   7.259 -0.2123 -0.1355 -0.1780
 2262COC    COC 2262   4.443   7.022   7.055 -0.2914  0.1691 -0.0151
 2263COC    COC 2263   4.409   6.690   7.057 -0.2223  0.0219  0.2808
 2264COC    COC 2264   4.527   6.424   6.930 -0.1448  0.0731 -0.1694
 2265COC    COC 2265   4.715   6.555   6.724 -0.1930 -0.1204 -0.1668
 2266COC    COC 2266   4.876   6.725   6.898  0.4230 -0.0637  0.0384
 2267COC    COC 2267   5.150   6.613   6.997  0.2962  0.0659 -0.5521
 2268COC    COC 2268   5.218   6.714   7.269  0.0433 -0.0200  0.1351
 2269COC    COC 2269   5.113   6.761   7.567 -0.1705 -0.2432 -0.0348
 2270COC    COC 2270   5.247   6.775   7.835  0.0037  0.0119 -0.1557
 2271COC    COC 2271   5.373   7.028   7.879 -0.2589 -0.1159  0.1405
 2272COC    COC 2272   5.591   7.088   8.081 -0.3782 -0.0474  0.3164
 2273COC    COC 2273   5.825   7.208   7.898  0.0526 -0.3486  0.3234
 2274COC    COC 2274   5.883   7.505   7.871  0.0012 -0.1468  0.2824
 2275COC    COC 2275   5.924   7.614   7.583  0.1729  0.0890  0.1465
 2276COC    COC 2276   5.926   7.602   7.267 -0.1202 -0.1372  0.2475
 2277COC    COC 2277   5.874   7.863   7.162  0.0993  0.1150 -0.4940
 2278COC    COC 2278   5.771   8.004   7.402 -0.1946  0.5063 -0.0414
 2279COC    COC 2279   5.839   8.296   7.414 -0.1775  0.5005 -0.3067
 2280COC    COC 2280   5.999   8.380   7.208 -0.4118  0.1117 -0.1464
 2281COC    COC 2281   5.930   8.282   6.965 -0.0105 -0.3793 -0.0198
 2282COC    COC 2282   5.695   8.427   6.833  0.0953 -0.1291  0.3006
 2283COC    COC 2283   5.818   8.431   6.565 -0.0691  0.1108 -0.2733
 2284COC    COC 2284   6.092   8.455   6.420  0.3236  0.1176 -0.3921
 2285COC    COC 2285   6.320   8.312   6.584  0.4437  0.1752 -0.4370
 2286COC    COC 2286   6.557   8.104   6.485  0.5410 -0.2100 -0.0098
 2287COC    COC 2287   6.638   7.866   6.679 -0.0559  0.4697  0.2604
 2288COC    COC 2288   6.924   7.909   6.801 -0.1096  0.1329 -0.2261
 2289COC    COC 2289   7.047   7.664   6.913  0.1010 -0.2878 -0.1095
 2290COC    COC 2290   7.304   7.496   6.844  0.1131 -0.1826 -0.1389
 2291COC    COC 2291   7.332   7.218   6.666  0.0594 -0.1424  0.1058
 2292COC    COC 2292   7.614   7.158   6.661 -0.2961  0.0621 -0.4345
 2293COC    COC 2293   7.810   6.997   6.567 -0.3113  0.5296  0.1796
 2294COC    COC 2294   7.889   6.697   6.665  0.2032  0.4957  0.3442
 2295COC    COC 2295   7.844   6.519   6.896 -0.1654  0.1511  0.1007
 2296COC    COC 2296   7.938   6.593   7.160 -0.3255 -0.2301  0.2005
 2297COC    COC 2297   8.021   6.493   7.426 -0.0713  0.1036 -0.2737
 2298COC    COC 2298   8.195   6.682   7.604  0.2739  0.0686  0.5493
 2299COC    COC 2299   8.393   6.801   7.470 -0.1189  0.1741 -0.0957
 2300COH    COH 2300   8.278   7.016   7.381 -0.4183 -0.0741  0.2385
 2301COH    COH 2301  10.245   9.575   0.676 -0.2057  0.1556  0.2020
 2302COC    COC 2302   0.095   9.513   0.869  0.1664 -0.3143  0.4824
 2303COC    COC 2303   0.374   9.493   0.774  0.3724  0.5337  0.1317
 2304COC    COC 2304   0.667   9.347   0.736  0.2298  0.0131 -0.0815
 2305COC    COC 2305   0.752   9.046   0.758 -0.1268  0.3685 -0.0466
 2306COC    COC 2306   0.546   8.857   0.635  0.2501 -0.0861  0.1055
 2307COC    COC 2307   0.381   8.906   0.385 -0.2018 -0.3165 -0.0576
 2308COC    COC 2308   0.368   9.159   0.181  0.0333 -0.1193 -0.0250
 2309COC    COC 2309   0.643   9.220   0.063  0.2128 -0.0116 -0.0050
 2310COC    COC 2310   0.595   9.192  10.075 -0.2747 -0.0418 -0.1753
 2311COC    COC 2311   0.405   9.388   9.981 -0.2195 -0.3209 -0.1496
 2312COC    COC 2312   0.300   9.365   9.704 -0.3222  0.0511  0.5141
 2313COC    COC 2313   0.520   9.421   9.537 -0.1927 -0.0785 -0.0956
 2314COC    COC 2314   0.814   9.449   9.611  0.1135  0.0911 -0.1185
 2315COC    COC 2315   0.862   9.181   9.733  0.0508 -0.3320  0.0084
 2316COC    COC 2316   0.676   8.975   9.660 -0.3842 -0.0871  0.3078
 2317COC    COC 2317   0.678   8.716   9.762  0.0580  0.2094  0.2945
 2318COC    COC 2318   0.779   8.737  10.051  0.0257  0.3062 -0.0071
 2319COC    COC 2319   0.963   8.973  10.164  0.1422 -0.3239  0.1296
 2320COC    COC 2320   1.098   9.007   0.076  0.1792  0.4467 -0.1666
 2321COC    COC 2321   1.347   8.902   0.070 -0.3048  0.1154  0.0681
 2322COC    COC 2322   1.470   8.645   0.026  0.1455  0.1085 -0.2237
 2323COC    COC 2323   1.523   8.345  10.309  0.1614  0.1161 -0.0605
 2324COC    COC 2324   1.688   8.252   0.181 -0.0498  0.4040  0.0922
 2325COC    COC 2325   1.829   7.984   0.209 -0.2868  0.1023  0.0969
 2326COC    COC 2326   2.089   7.890   0.087 -0.0127  0.1309 -0.0206
 2327COC    COC 2327   2.393   7.972   0.065 -0.0221 -0.2861  0.1243
 2328COC    COC 2328   2.591   8.061   0.266  0.3496 -0.2972 -0.4086
 2329COC    COC 2329   2.752   7.830   0.436 -0.1612 -0.4466  0.0233
 2330COC    COC 2330   2.588   7.561   0.491  0.0248  0.2860 -0.0389
 2331COC    COC 2331   2.417   7.310   0.436  0.3480 -0.0108  0.0810
 2332COC    COC 2332   2.579   7.092   0.378  0.2412  0.3679  0.1006
 2333COC    COC 2333   2.584   6.794   0.270  0.0934 -0.0080  0.5664
 2334COC    COC 2334   2.894   6.664   0.225 -0.2714  0.0796  0.3130
 2335COC    COC 2335   3.039   6.817   0.445  0.0354  0.5723 -0.2603
 2336COC    COC 2336   2.940   6.823   0.749 -0.2510  0.1796  0.3631
 2337COC    COC 2337   3.046   6.590   0.900  0.0286  0.1880 -0.0538
 2338COC    COC 2338   3.338   6.578   0.999 -0.5850  0.3357 -0.0558
 2339COC    COC 2339   3.448   6.326   1.059 -0.1554  0.2156 -0.1416
 2340COC    COC 2340   3.448   6.178   0.783  0.4878  0.1247 -0.5789
 2341COC    COC 2341   3.473   5.881   0.871  0.1379  0.4265 -0.0238
 2342COC    COC 2342   3.404   5.730   1.139  0.2763 -0.2621 -0.1666
 2343COC    COC 2343   3.422   5.900   1.390  0.4499  0.6003  0.0279
 2344COC    COC 2344   3.499   5.917   1.676 -0.2450 -0.0045  0.0896
 2345COC    COC 2345   3.644   5.958   1.937  0.1786  0.3922  0.0965
 2346COH    COH 2346   3.616   5.857   2.179  0.1010 -0.1723 -0.3573
 2347COH    COH 2347   3.932   0.348   2.515 -0.4591 -0.2498 -0.3641
 2348COC    COC 2348   3.850   0.335   2.258 -0.5365  0.0060  0.0853
 2349COC    COC 2349   3.948   0.075   2.185  0.0655 -0.2953 -0.1446
 2350COC    COC 2350   3.654  10.306   2.113 -0.1724 -0.0788 -0.3965
 2351COC    COC 2351   3.595  10.164   1.866  0.0256  0.2038 -0.3312
 2352COC    COC 2352   3.562  10.173   1.568  0.1305  0.2336  0.1096
 2353COC    COC 2353   3.428  10.335   1.359  0.0465 -0.2283  0.5023
 2354COC    COC 2354   3.375   0.084   1.064  0.0454 -0.1190  0.1185
 2355COC    COC 2355   3.582   0.040   0.813 -0.0693  0.1930  0.0775
 2356COC    COC 2356   3.885   0.113   0.833 -0.1442  0.2115  0.0160
 2357COC    COC 2357   4.092   0.334   0.743  0.0408 -0.3221 -0.1602
 2358COC    COC 2358   4.012   0.511   0.992  0.1041  0.1750  0.0731
 2359COC    COC 2359   4.256   0.667   1.057 -0.3084 -0.1123  0.0250
 2360COC    COC 2360   4.488   0.501   1.063  0.1982  0.3371 -0.1657
 2361COC    COC 2361   4.577   0.366   1.326 -0.2000 -0.3782  0.1526
 2362COC    COC 2362   4.698   0.109   1.316 -0.2738 -0.1019  0.2503
 2363COC    COC 2363   4.738   0.140   1.657  0.0130 -0.0483  0.1087
 2364COC    COC 2364   4.843  10.203   1.761  0.3224  0.2971  0.3635
 2365COC    COC 2365   4.665  10.003   1.624 -0.0497  0.3360  0.1708
 2366COC    COC 2366   4.782   9.734   1.518  0.3100  0.2620 -0.5401
 2367COC    COC 2367   4.765   9.524   1.741  0.1101  0.2582 -0.2651
 2368COC    COC 2368   4.898   9.454   1.973 -0.1137  0.2082 -0.3280
 2369COC    COC 2369   4.774   9.449   2.258 -0.1520  0.1130  0.4081
 2370COC    COC 2370   4.752   9.162   2.369 -0.1014  0.1046  0.5757
 2371COC    COC 2371   4.491   9.062   2.493  0.1277 -0.1208  0.1234
 2372COC    COC 2372   4.302   8.866   2.370 -0.2403  0.0903  0.1156
 2373COC    COC 2373   4.309   8.568   2.352  0.1382  0.3342 -0.1746
 2374COC    COC 2374   4.542   8.563   2.518 -0.0463  0.3684 -0.0932
 2375COC    COC 2375   4.548   8.519   2.787  0.3238 -0.0764 -0.2494
 2376COC    COC 2376   4.429   8.810   2.844  0.0753  0.3800 -0.0086
 2377COC    COC 2377   4.540   9.071   2.928  0.0056  0.5375 -0.0246
 2378COC    COC 2378   4.794   9.051   3.036 -0.0481  0.0867 -0.0589
 2379COC    COC 2379   4.751   8.938   3.301  0.1336 -0.1230 -0.2358
 2380COC    COC 2380   4.618   8.715   3.407 -0.1446  0.0109 -0.3579
 2381COC    COC 2381   4.566   8.760   3.693  0.0334  0.7384 -0.1842
 2382COC    COC 2382   4.468   9.039   3.709  0.1235 -0.0482 -0.5060
 2383COC    COC 2383   4.687   9.257   3.759  0.2678  0.1754 -0.1792
 2384COC    COC 2384   4.904   9.273   3.946  0.0180  0.4990  0.3220
 2385COC    COC 2385   5.039   9.083   4.139 -0.2048 -0.2067 -0.2397
 2386COC    COC 2386   4.968   9.181   4.411  0.1840  0.0578  0.0563
 2387COC    COC 2387   5.159   9.224   4.695  0.1264 -0.5187  0.4195
 2388COC    COC 2388   5.087   9.074   4.938 -0.0676  0.0705 -0.1007
 2389COC    COC 2389   5.362   8.913   4.977 -0.5469 -0.1649  0.0142
 2390COC    COC 2390   5.444   9.048   5.246  0.2064  0.2000 -0.1123
 2391COC    COC 2391   5.690   9.172   5.185  0.3322 -0.4733  0.2404
 2392COH    COH 2392   5.775   9.373   5.028  0.0540  0.2523 -0.3735
 2393COH    COH 2393   9.990   5.723   0.229  0.1618  0.1732  0.5166
 2394COC    COC 2394   9.984   5.474   0.129 -0.2281 -0.1613 -0.0155
 2395COC    COC 2395   9.697   5.385   0.175 -0.1276  0.0014 -0.4138
 2396COC    COC 2396   9.608   5.452   0.450  0.3820  0.0577  0.0261
 2397COC    COC 2397   9.296   5.491   0.585  0.1338  0.3084  0.1153
 2398COC    COC 2398   9.230   5.688   0.398  0.1115 -0.0645  0.3055
 2399COC    COC 2399   9.471   5.784   0.222  0.0247 -0.0508 -0.4219
 2400COC    COC 2400   9.599   5.945   0.021  0.8088  0.0672 -0.2332
 2401COC    COC 2401   9.873   6.067   0.042  0.2740 -0.1571  0.1554
 2402COC    COC 2402   9.893   6.088   0.337  0.2321  0.1052  0.3634
 2403COC    COC 2403   9.743   6.124   0.601  0.2591  0.3701  0.0695
 2404COC    COC 2404   9.632   5.842   0.662  0.2911 -0.0512  0.1393
 2405COC    COC 2405   9.415   5.771   0.916  0.0786  0.1395  0.2473
 2406COC    COC 2406   9.121   5.817   0.906  0.1036  0.0721 -0.2307
 2407COC    COC 2407   8.911   5.934   0.701 -0.1085  0.1983 -0.1979
 2408COC    COC 2408   8.634   6.061   0.705 -0.2146  0.0359 -0.1775
 2409COC    COC 2409   8.602   6.199   0.453  0.2293 -0.0707  0.5385
 2410COC    COC 2410   8.365   6.369   0.368  0.1873 -0.2125  0.0434
 2411COC    COC 2411   8.129   6.189   0.374 -0.1332  0.0430 -0.0802
 2412COC    COC 2412   7.973   5.994   0.541 -0.1767  0.1358 -0.1006
 2413COC    COC 2413   7.910   5.896   0.817  0.1693 -0.0460 -0.0994
 2414COC    COC 2414   7.954   5.597   0.852  0.3230  0.2952 -0.0160
 2415COC    COC 2415   8.221   5.492   0.755 -0.0750  0.2427 -0.1788
 2416COC    COC 2416   8.501   5.464   0.887  0.0558  0.3752 -0.2755
 2417COC    COC 2417   8.644   5.725   0.982 -0.1326 -0.4912 -0.4135
 2418COC    COC 2418   8.825   5.788   1.232  0.2051  0.3814  0.0461
 2419COC    COC 2419   8.770   5.813   1.494  0.1324  0.2754  0.3488
 2420COC    COC 2420   8.486   5.937   1.545  0.2326  0.1629 -0.0425
 2421COC    COC 2421   8.183   5.768   1.583  0.0602  0.3721 -0.3264
 2422COC    COC 2422   8.058   5.568   1.758 -0.2004  0.1048 -0.2175
 2423COC    COC 2423   7.799   5.488   1.572 -0.0263  0.0906  0.0015
 2424COC    COC 2424   7.601   5.585   1.777 -0.0321  0.1315 -0.3047
 2425COC    COC 2425   7.335   5.395   1.794 -0.0876 -0.4532 -0.1318
 2426COC    COC 2426   7.106   5.584   1.738  0.2308  0.2052  0.0455
 2427COC    COC 2427   6.816   5.452   1.780  0.0184 -0.0272 -0.1045
 2428COC    COC 2428   6.651   5.223   1.860 -0.1538 -0.0606 -0.1098
 2429COC    COC 2429   6.381   5.142   1.893  0.3039 -0.1618 -0.1066
 2430COC    COC 2430   6.340   4.877   1.733 -0.5524  0.3996 -0.4611
 2431COC    COC 2431   6.069   4.775   1.740  0.0787 -0.0107 -0.1744
 2432COC    COC 2432   5.787   4.882   1.707  0.3365 -0.0222  0.0039
 2433COC    COC 2433   5.656   4.956   1.429 -0.1547  0.1160  0.3500
 2434COC    COC 2434   5.899   5.003   1.216  0.0045  0.2586  0.1248
 2435COC    COC 2435   6.176   4.890   1.256 -0.0692 -0.1443 -0.0270
 2436COC    COC 2436   6.407   5.065   1.262 -0.0868 -0.4173 -0.0397
 2437COC    COC 2437   6.539   5.254   1.485  0.2898 -0.1131 -0.0919
 2438COH    COH 2438   6.786   5.104   1.482  0.1967 -0.2869  0.2561
 2439COH    COH 2439   0.228   9.092   0.728  0.6281 -0.2270  0.1515
 2440COC    COC 2440   0.044   8.901   0.772  0.0967  0.4632 -0.3172
 2441COC    COC 2441   0.140   8.790   1.056 -0.0800  0.2823  0.4645
 2442COC    COC 2442   0.355   9.019   1.066 -0.1373 -0.3693  0.1126
 2443COC    COC 2443   0.306   9.258   1.266  0.2576  0.1109  0.4133
 2444COC    COC 2444   0.133   9.093   1.482 -0.0143  0.1521  0.3467
 2445COC    COC 2445  10.230   8.936   1.539  0.5218  0.1124 -0.0796
 2446COC    COC 2446   9.993   8.701   1.477 -0.0566  0.3717 -0.3627
 2447COC    COC 2447   9.828   8.475   1.564  0.1379  0.3359 -0.2955
 2448COC    COC 2448   9.784   8.175   1.422  0.0160 -0.0354  0.1479
 2449COC    COC 2449   9.686   7.896   1.306  0.0106 -0.0534  0.1440
 2450COC    COC 2450   9.531   7.798   1.524  0.2111  0.0190 -0.1769
 2451COC    COC 2451   9.255   7.891   1.406 -0.0752  0.1606  0.1645
 2452COC    COC 2452   9.231   7.763   1.140 -0.1769 -0.1918 -0.1888
 2453COC    COC 2453   9.431   7.550   1.078  0.0813 -0.3540  0.0221
 2454COC    COC 2454   9.545   7.437   1.329 -0.1134  0.6922 -0.0366
 2455COC    COC 2455   9.501   7.305   1.580 -0.1839 -0.0683 -0.0817
 2456COC    COC 2456   9.523   6.991   1.599  0.0474  0.0722 -0.1039
 2457COC    COC 2457   9.778   6.786   1.722 -0.2950  0.0835  0.1457
 2458COC    COC 2458   9.864   6.520   1.551  0.4759  0.1087 -0.3273
 2459COC    COC 2459  10.004   6.267   1.607 -0.3715  0.0467 -0.3394
 2460COC    COC 2460  10.152   6.140   1.384 -0.1415  0.0103  0.0063
 2461COC    COC 2461  10.199   5.810   1.397  0.0848  0.1151  0.4142
 2462COC    COC 2462   0.082   5.614   1.420 -0.4920  0.2854  0.1197
 2463COC    COC 2463   0.143   5.563   1.723 -0.3090  0.0386  0.3094
 2464COC    COC 2464   0.389   5.370   1.824 -0.0025  0.0699  0.0720
 2465COC    COC 2465   0.284   5.090   1.893  0.1764 -0.0906  0.0518
 2466COC    COC 2466   0.417   4.798   1.928 -0.2557 -0.3334 -0.1313
 2467COC    COC 2467   0.720   4.720   1.958  0.1688  0.4442 -0.1966
 2468COC    COC 2468   0.916   4.588   1.745  0.0122  0.0261  0.1725
 2469COC    COC 2469   0.843   4.330   1.557 -0.2257  0.0480 -0.3123
 2470COC    COC 2470   1.047   4.164   1.430  0.1062  0.4059 -0.5249
 2471COC    COC 2471   1.256   4.186   1.167 -0.2108 -0.3772 -0.0873
 2472COC    COC 2472   1.260   4.461   0.969  0.1010  0.1215  0.2487
 2473COC    COC 2473   1.102   4.701   1.068 -0.1003 -0.1084  0.1165
 2474COC    COC 2474   1.167   4.603   1.365  0.0078  0.0137 -0.3154
 2475COC    COC 2475   1.437   4.422   1.467 -0.3862  0.0830 -0.0636
 2476COC    COC 2476   1.629   4.441   1.207  0.1898  0.1001  0.1787
 2477COC    COC 2477   1.919   4.545   1.133  0.1140 -0.0469  0.1522
 2478COC    COC 2478   2.047   4.615   1.407 -0.0649  0.3328  0.0217
 2479COC    COC 2479   2.130   4.632   1.728  0.3450 -0.4455  0.1972
 2480COC    COC 2480   1.887   4.722   1.922  0.1495 -0.3415  0.3513
 2481COC    COC 2481   1.674   4.539   1.993 -0.4238  0.3639  0.1254
 2482COC    COC 2482   1.591   4.472   2.216  0.2139 -0.0606 -0.2354
 2483COC    COC 2483   1.354   4.711   2.270 -0.5552  0.0827 -0.0237
 2484COH    COH 2484   1.107   4.672   2.244 -0.0821  0.0101 -0.0850
 2485COH    COH 2485   4.349   3.954   4.783 -0.2560  0.0179 -0.0679
 2486COC    COC 2486   4.432   4.082   4.574  0.2724  0.2183 -0.0614
 2487COC    COC 2487   4.125   4.192   4.568  0.0692  0.4245 -0.0204
 2488COC    COC 2488   4.016   4.070   4.831  0.2836  0.0080  0.3627
 2489COC    COC 2489   4.149   4.100   5.117 -0.0842 -0.3501  0.0728
 2490COC    COC 2490   4.136   3.891   5.316  0.5379  0.0997 -0.3800
 2491COC    COC 2491   3.835   3.938   5.452 -0.0326 -0.3741 -0.0230
 2492COC    COC 2492   3.820   4.260   5.490  0.1547 -0.1655 -0.0010
 2493COC    COC 2493   3.679   4.449   5.334 -0.1461  0.1923  0.0054
 2494COC    COC 2494   3.409   4.449   5.207 -0.2212 -0.2219 -0.4800
 2495COC    COC 2495   3.311   4.405   4.923 -0.5104 -0.2943 -0.0336
 2496COC    COC 2496   3.361   4.547   4.652  0.1692 -0.3484  0.2148
 2497COC    COC 2497   3.531   4.424   4.456  0.0468 -0.1371 -0.2792
 2498COC    COC 2498   3.603   4.088   4.530 -0.0865 -0.0972  0.1573
 2499COC    COC 2499   3.327   3.943   4.533 -0.0187 -0.2455  0.0264
 2500COC    COC 2500   3.100   4.147   4.623  0.2060 -0.1317 -0.0654
 2501COC    COC 2501   2.859   4.077   4.772 -0.4711 -0.0231 -0.0521
 2502COC    COC 2502   2.615   4.255   4.810  0.0805 -0.1444  0.0588
 2503COC    COC 2503   2.495   4.508   4.960  0.0152  0.2672  0.4267
 2504COC    COC 2504   2.370   4.365   5.184 -0.1345 -0.0018  0.0231
 2505COC    COC 2505   2.514   4.175   5.352 -0.0648  0.0434  0.2892
 2506COC    COC 2506   2.485   3.952   5.175 -0.2919 -0.1771 -0.1300
 2507COC    COC 2507   2.606   3.741   4.972  0.2662 -0.1662 -0.2083
 2508COC    COC 2508   2.805   3.522   4.905 -0.0000 -0.0601  0.1255
 2509COC    COC 2509   2.636   3.264   4.975  0.2702  0.2342  0.1354
 2510COC    COC 2510   2.574   3.007   4.788  0.3229  0.1591  0.4869
 2511COC    COC 2511   2.422   2.979   4.534 -0.2556 -0.0914  0.1991
 2512COC    COC 2512   2.502   2.937   4.251  0.2696 -0.1861  0.0941
 2513COC    COC 2513   2.232   2.841   4.135 -0.1697  0.2803 -0.0124
 2514COC    COC 2514   1.994   3.029   4.040  0.0783  0.3342  0.3204
 2515COC    COC 2515   2.011   3.292   3.945  0.0356  0.7388  0.0981
 2516COC    COC 2516   1.911   3.523   4.042  0.0216 -0.1775 -0.5014
 2517COC    COC 2517   2.185   3.696   4.013 -0.0415 -0.0527 -0.5231
 2518COC    COC 2518   2.150   3.954   4.003  0.3709  0.1091 -0.0165
 2519COC    COC 2519   2.143   4.120   3.741 -0.2652  0.1485 -0.2646
 2520COC    COC 2520   2.399   4.240   3.735 -0.0655  0.0421 -0.2080
 2521COC    COC 2521   2.291   4.503   3.718  0.1253 -0.0196 -0.2011
 2522COC    COC 2522   2.437   4.703   3.530 -0.2553  0.3096  0.2673
 2523COC    COC 2523   2.713   4.872   3.479  0.2044  0.1198 -0.3111
 2524COC    COC 2524   2.710   4.987   3.208 -0.1178  0.4001 -0.2337
 2525COC    COC 2525   2.566   5.270   3.169  0.4145 -0.2711 -0.0166
 2526COC    COC 2526   2.403   5.266   2.901  0.1399 -0.0662 -0.1297
 2527COC    COC 2527   2.555   5.343   2.655  0.0306 -0.2690  0.1593
 2528COC    COC 2528   2.791   5.533   2.686 -0.2452  0.1100 -0.2854
 2529COC    COC 2529   2.878   5.563   2.971 -0.3206 -0.3405 -0.2390
 2530COH    COH 2530   2.931   5.807   3.065  0.3990 -0.3080  0.2447
 2531COH    COH 2531   1.117   5.854   0.313 -0.1635 -0.2799  0.2926
 2532COC    COC 2532   1.269   6.032   0.332 -0.2520 -0.2722  0.3025
 2533COC    COC 2533   1.114   6.294   0.259 -0.0445  0.6185  0.2317
 2534COC    COC 2534   1.267   6.447   0.465  0.1987  0.4742  0.0345
 2535COC    COC 2535   1.518   6.299   0.532 -0.0196  0.1997 -0.0507
 2536COC    COC 2536   1.729   6.480   0.681 -0.0548  0.0715  0.4788
 2537COC    COC 2537   1.871   6.776   0.729  0.0568  0.1881 -0.0888
 2538COC    COC 2538   1.777   7.070   0.681 -0.0215 -0.2770 -0.0037
 2539COC    COC 2539   1.577   7.244   0.507 -0.1700 -0.0912 -0.1853
 2540COC    COC 2540   1.677   7.522   0.543  0.3131 -0.3412  0.0044
 2541COC    COC 2541   1.959   7.630   0.443  0.3050  0.3300  0.0612
 2542COC    COC 2542   2.104   7.510   0.665 -0.0560  0.0140  0.1134
 2543COC    COC 2543   2.101   7.708   0.930  0.4547 -0.1544  0.2053
 2544COC    COC 2544   2.246   7.722   1.188  0.2106 -0.2520 -0.1977
 2545COC    COC 2545   2.121   7.745   1.415  0.3117 -0.2982 -0.3373
 2546COC    COC 2546   2.134   7.482   1.579  0.0762  0.1089 -0.3435
 2547COC    COC 2547   2.405   7.358   1.550  0.0120 -0.0360  0.1907
 2548COC    COC 2548   2.672   7.390   1.689 -0.0504  0.0576 -0.2659
 2549COC    COC 2549   2.899   7.434   1.474  0.1954 -0.2471 -0.1799
 2550COC    COC 2550   2.928   7.406   1.158 -0.4415  0.3014 -0.1755
 2551COC    COC 2551   3.280   7.387   1.195  0.4972  0.0581  0.1756
 2552COC    COC 2552   3.555   7.302   1.135  0.2247  0.2204  0.1491
 2553COC    COC 2553   3.731   7.250   1.363  0.1834 -0.1907 -0.2010
 2554COC    COC 2554   3.643   7.060   1.577  0.0640  0.1638 -0.0944
 2555COC    COC 2555   3.346   7.198   1.606 -0.2304  0.2249  0.1706
 2556COC    COC 2556   3.335   7.532   1.603 -0.0656 -0.0260 -0.1751
 2557COC    COC 2557   3.533   7.769   1.544 -0.5853 -0.1771 -0.3496
 2558COC    COC 2558   3.543   7.945   1.280 -0.1822  0.1404  0.1627
 2559COC    COC 2559   3.743   8.208   1.248  0.0315 -0.2665  0.1033
 2560COC    COC 2560   3.884   8.300   1.484 -0.4322 -0.1793 -0.1687
 2561COC    COC 2561   4.100   8.304   1.702  0.0489  0.1920  0.3593
 2562COC    COC 2562   4.354   8.277   1.533  0.2883 -0.2243 -0.3581
 2563COC    COC 2563   4.479   8.030   1.521 -0.3598 -0.3844 -0.3673
 2564COC    COC 2564   4.694   7.988   1.279  0.3376  0.0131 -0.1932
 2565COC    COC 2565   4.953   7.971   1.504  0.2693  0.0449 -0.1846
 2566COC    COC 2566   5.156   8.145   1.446 -0.3338 -0.1285 -0.4130
 2567COC    COC 2567   5.388   8.086   1.683 -0.2158 -0.2426 -0.1193
 2568COC    COC 2568   5.371   7.956   1.940 -0.1054  0.1201  0.1219
 2569COC    COC 2569   5.267   8.160   2.118 -0.4370 -0.2546 -0.0120
 2570COC    COC 2570   5.369   8.323   2.372  0.0622  0.0046  0.4198
 2571COC    COC 2571   5.309   8.230   2.670 -0.0151 -0.3794 -0.2622
 2572COC    COC 2572   5.062   8.266   2.855 -0.2369  0.1281 -0.0911
 2573COC    COC 2573   4.968   7.954   2.820  0.2846  0.2341  0.2827
 2574COC    COC 2574   4.759   7.840   2.657  0.4965 -0.1372  0.2138
 2575COC    COC 2575   4.550   8.066   2.577 -0.0990 -0.0176  0.0443
 2576COH    COH 2576   4.435   8.021   2.337 -0.4767  0.2994  0.3186
 2577COH    COH 2577   4.373   9.946   9.182 -0.2032  0.4336 -0.3940
 2578COC    COC 2578   4.133   9.930   9.266 -0.4543  0.1833  0.0187
 2579COC    COC 2579   4.089  10.098   9.553 -0.1067 -0.3886  0.1416
 2580COC    COC 2580   3.882  10.056   9.782  0.0054 -0.2214 -0.3551
 2581COC    COC 2581   3.591  10.100   9.755 -0.0912 -0.0160 -0.1300
 2582COC    COC 2582   3.480  10.195   9.447  0.1073  0.3133 -0.3897
 2583COC    COC 2583   3.243  10.312   9.288 -0.0725 -0.3377 -0.2299
 2584COC    COC 2584   3.312   0.236   9.125 -0.5034  0.0183 -0.0564
 2585COC    COC 2585   3.272   0.507   9.188 -0.1242  0.3136 -0.1427
 2586COC    COC 2586   3.152   0.786   9.168  0.4120 -0.0487 -0.2468
 2587COC    COC 2587   2.911   0.904   9.339  0.0891  0.2302 -0.5277
 2588COC    COC 2588   2.894   0.709   9.597  0.2731 -0.0778  0.3392
 2589COC    COC 2589   2.763   0.592   9.872 -0.0420 -0.1741 -0.2125
 2590COC    COC 2590   2.905   0.680  10.126 -0.1049 -0.4245  0.0721
 2591COC    COC 2591   3.000   0.990  10.190 -0.2567  0.3783  0.1865
 2592COC    COC 2592   2.958   0.967   0.132 -0.0923  0.2778 -0.0978
 2593COC    COC 2593   3.055   1.135   0.322 -0.2909 -0.0292  0.3213
 2594COC    COC 2594   2.971   1.407   0.251 -0.1952  0.2975  0.0265
 2595COC    COC 2595   2.733   1.490   0.395  0.0313 -0.0063 -0.0476
 2596COC    COC 2596   2.585   1.693   0.529  0.2735  0.1575 -0.0207
 2597COC    COC 2597   2.663   1.965   0.420 -0.0241  0.1506 -0.2301
 2598COC    COC 2598   2.533   2.133   0.169 -0.5333  0.5009 -0.0968
 2599COC    COC 2599   2.499   1.908  10.293 -0.1911  0.0331  0.0084
 2600COC    COC 2600   2.333   1.667   0.031  0.1584 -0.1405  0.1360
 2601COC    COC 2601   2.085   1.671  10.246 -0.3493  0.3069  0.0444
 2602COC    COC 2602   1.883   1.863  10.173 -0.1284  0.0529  0.0165
 2603COC    COC 2603   2.064   2.137  10.210  0.3572 -0.1022  0.0091
 2604COC    COC 2604   2.104   2.273   0.125 -0.1206 -0.1942  0.2711
 2605COC    COC 2605   2.088   2.609   0.142 -0.4758 -0.0212 -0.2414
 2606COC    COC 2606   2.319   2.740  10.310 -0.0101  0.3488 -0.3040
 2607COC    COC 2607   2.619   2.842  10.293 -0.0830 -0.1415 -0.1967
 2608COC    COC 2608   2.772   2.542  10.295  0.1813 -0.1204 -0.3355
 2609COC    COC 2609   3.079   2.661   0.019  0.2955 -0.2367 -0.1777
 2610COC    COC 2610   3.351   2.579   0.108 -0.2083  0.0121 -0.0832
 2611COC    COC 2611   3.561   2.670   0.346  0.6847 -0.0834  0.3080
 2612COC    COC 2612   3.805   2.790   0.325 -0.1167  0.0966 -0.0968
 2613COC    COC 2613   4.085   2.771   0.190  0.5555  0.5584 -0.1641
 2614COC    COC 2614   4.294   2.559   0.288  0.2109  0.1234 -0.3938
 2615COC    COC 2615   4.521   2.749   0.409 -0.3928  0.3853 -0.3413
 2616COC    COC 2616   4.567   2.708   0.705 -0.1212  0.0160  0.2928
 2617COC    COC 2617   4.323   2.803   0.881  0.2510 -0.1181 -0.1744
 2618COC    COC 2618   4.059   2.718   0.772  0.2943  0.1616  0.0939
 2619COC    COC 2619   3.896   2.470   0.730  0.1715  0.3284 -0.1608
 2620COC    COC 2620   3.844   2.188   0.925  0.0494  0.0455 -0.1472
 2621COC    COC 2621   3.862   1.950   0.734 -0.2091  0.2307 -0.2316
 2622COH    COH 2622   3.898   1.861   0.475  0.1409 -0.3572  0.2159
 2623COH    COH 2623   2.400  10.037   6.116 -0.2118  0.0563  0.6053
 2624COC    COC 2624   2.517  10.105   5.869  0.3121  0.0947 -0.2288
 2625COC    COC 2625   2.768   9.956   5.842  0.0643  0.1845 -0.5274
 2626COC    COC 2626   2.948   9.942   5.571  0.0334 -0.0087  0.3586
 2627COC    COC 2627   3.183   9.798   5.516 -0.2232 -0.0788 -0.3523
 2628COC    COC 2628   3.146   9.509   5.495  0.0386 -0.2431  0.0161
 2629COC    COC 2629   3.033   9.443   5.768 -0.3466  0.2591  0.3303
 2630COC    COC 2630   3.050   9.665   5.952 -0.1202 -0.2347 -0.0863
 2631COC    COC 2631   3.323   9.785   5.939 -0.1669  0.2169  0.0758
 2632COC    COC 2632   3.598   9.658   5.864  0.5838  0.3584 -0.0339
 2633COC    COC 2633   3.861   9.787   5.833  0.5306  0.3396  0.3005
 2634COC    COC 2634   3.843   9.986   6.053  0.1518  0.1421  0.4774
 2635COC    COC 2635   4.115  10.046   6.185  0.0499 -0.1688 -0.2645
 2636COC    COC 2636   4.034  10.332   6.312  0.1286 -0.1186 -0.0998
 2637COC    COC 2637   4.203   0.076   6.521  0.0464  0.2763  0.0855
 2638COC    COC 2638   4.157   0.263   6.782 -0.3160  0.3127  0.1918
 2639COC    COC 2639   4.217   0.564   6.751 -0.1021 -0.1469 -0.2361
 2640COC    COC 2640   4.237   0.699   7.020  0.0919 -0.2152  0.1181
 2641COC    COC 2641   4.289   0.974   7.076  0.1053 -0.0581 -0.0442
 2642COC    COC 2642   4.573   1.005   7.214  0.0788  0.0135  0.3274
 2643COC    COC 2643   4.631   0.794   7.409 -0.1475  0.1343 -0.0802
 2644COC    COC 2644   4.907   0.653   7.428  0.3731 -0.3193 -0.4270
 2645COC    COC 2645   5.013   0.502   7.195 -0.2979 -0.3099  0.0999
 2646COC    COC 2646   4.992   0.648   6.938 -0.1829  0.2553  0.0486
 2647COC    COC 2647   4.958   0.549   6.634 -0.0875 -0.1711  0.2808
 2648COC    COC 2648   4.721   0.400   6.630  0.0867 -0.0252 -0.1643
 2649COC    COC 2649   4.612   0.152   6.647  0.1166  0.3715 -0.3567
 2650COC    COC 2650   4.758  10.286   6.890 -0.2575 -0.0719  0.2680
 2651COC    COC 2651   4.636  10.041   6.735 -0.0283 -0.0190 -0.2240
 2652COC    COC 2652   4.621   9.845   6.960  0.0412 -0.2787 -0.4363
 2653COC    COC 2653   4.574   9.941   7.266 -0.1024  0.2196  0.2577
 2654COC    COC 2654   4.589   9.748   7.520  0.2295 -0.2173 -0.1812
 2655COC    COC 2655   4.527   9.804   7.790 -0.0615  0.0577  0.0503
 2656COC    COC 2656   4.638   9.946   8.034 -0.1716 -0.1296 -0.0705
 2657COC    COC 2657   4.582  10.013   8.326  0.1553  0.0151 -0.2992
 2658COC    COC 2658   4.659   9.800   8.545 -0.3627  0.2158 -0.1888
 2659COC    COC 2659   4.767   9.979   8.742 -0.1183  0.2632  0.1398
 2660COC    COC 2660   5.062   9.988   8.819 -0.2524  0.0823  0.0224
 2661COC    COC 2661   5.366  10.028   8.683  0.4122 -0.1576 -0.1758
 2662COC    COC 2662   5.479  10.303   8.770  0.2696  0.2205 -0.0172
 2663COC    COC 2663   5.239   0.107   8.872 -0.0078  0.2375  0.2071
 2664COC    COC 2664   5.251   0.352   8.643  0.1512 -0.4680  0.2585
 2665COC    COC 2665   5.059   0.463   8.429 -0.0727  0.3504  0.1403
 2666COC    COC 2666   5.098   0.516   8.134 -0.0919 -0.0137  0.2516
 2667COC    COC 2667   5.336   0.717   7.975 -0.2065 -0.0471 -0.2422
 2668COH    COH 2668   5.199   0.920   7.850 -0.7354 -0.2808 -0.0626
 2669COH    COH 2669   7.259   2.921   3.524  0.2388 -0.0915 -0.1628
 2670COC    COC 2670   7.339   3.175   3.504  0.1822  0.2347  0.3894
 2671COC    COC 2671   7.224   3.293   3.243  0.0144 -0.3426 -0.1931
 2672COC    COC 2672   7.003   3.507   3.116 -0.1950  0.2517 -0.2491
 2673COC    COC 2673   6.894   3.616   3.406  0.0884  0.3112  0.5291
 2674COC    COC 2674   6.950   3.435   3.681  0.3244  0.0251 -0.0927
 2675COC    COC 2675   6.921   3.150   3.651 -0.1424 -0.4112  0.1559
 2676COC    COC 2676   6.724   2.984   3.528  0.1452  0.0943  0.2451
 2677COC    COC 2677   6.481   2.809   3.639 -0.3256  0.4885 -0.1618
 2678COC    COC 2678   6.272   2.563   3.599 -0.3663  0.0926  0.5288
 2679COC    COC 2679   6.363   2.313   3.443 -0.3372 -0.0810 -0.0250
 2680COC    COC 2680   6.185   2.186   3.261  0.3797 -0.1086  0.1688
 2681COC    COC 2681   5.888   2.162   3.331  0.2419  0.1718  0.0552
 2682COC    COC 2682   5.938   2.085   3.612 -0.2737  0.4170 -0.0685
 2683COC    COC 2683   5.861   2.036   3.925  0.1540 -0.2078  0.2892
 2684COC    COC 2684   5.905   2.082   4.209 -0.0624  0.0906  0.3652
 2685COC    COC 2685   5.712   2.267   4.418 -0.1214  0.0627  0.2299
 2686COC    COC 2686   5.485   2.124   4.526  0.0178  0.0387  0.1786
 2687COC    COC 2687   5.452   1.841   4.511 -0.0546  0.1557 -0.3087
 2688COC    COC 2688   5.611   1.713   4.275 -0.2932  0.2544  0.2110
 2689COC    COC 2689   5.925   1.624   4.248  0.1191 -0.0858  0.0644
 2690COC    COC 2690   6.179   1.581   4.445 -0.0895  0.1302 -0.2561
 2691COC    COC 2691   6.467   1.616   4.313  0.1049  0.0601  0.0630
 2692COC    COC 2692   6.500   1.874   4.183 -0.6511 -0.2166  0.1177
 2693COC    COC 2693   6.739   2.032   4.119  0.2413 -0.3540 -0.2041
 2694COC    COC 2694   6.991   2.157   4.221 -0.2829 -0.3296 -0.0546
 2695COC    COC 2695   7.248   2.204   4.050  0.3634 -0.3467 -0.3206
 2696COC    COC 2696   7.518   2.171   4.254 -0.0572  0.0695 -0.2163
 2697COC    COC 2697   7.748   2.342   4.263 -0.2888 -0.3100  0.3030
 2698COC    COC 2698   7.792   2.541   4.516 -0.0904  0.3521  0.0974
 2699COC    COC 2699   7.676   2.403   4.768 -0.3810 -0.0850  0.1505
 2700COC    COC 2700   7.428   2.482   4.849  0.1299  0.1128  0.2375
 2701COC    COC 2701   7.251   2.758   4.881 -0.2366  0.2122 -0.3243
 2702COC    COC 2702   7.129   2.889   4.646 -0.0498  0.3508 -0.2176
 2703COC    COC 2703   6.890   2.988   4.719  0.0762  0.3641  0.0677
 2704COC    COC 2704   6.843   3.240   4.875 -0.0874 -0.1955  0.1413
 2705COC    COC 2705   6.913   3.530   4.779  0.6118  0.0875 -0.0065
 2706COC    COC 2706   7.058   3.790   4.788 -0.1653  0.1704  0.0142
 2707COC    COC 2707   7.154   3.946   4.548  0.6206  0.3964 -0.4226
 2708COC    COC 2708   7.171   4.226   4.463 -0.0283 -0.1283 -0.3975
 2709COC    COC 2709   6.960   4.320   4.232  0.0196 -0.2905 -0.2489
 2710COC    COC 2710   6.949   4.397   3.923 -0.0485  0.0488 -0.1561
 2711COC    COC 2711   6.871   4.381   3.654  0.3803 -0.0702  0.2446
 2712COC    COC 2712   6.604   4.563   3.645  0.1442  0.0770 -0.1144
 2713COC    COC 2713   6.534   4.530   3.944  0.0630  0.0267  0.1027
 2714COH    COH 2714   6.693   4.606   4.139 -0.4306  0.2213 -0.0665
 2715COH    COH 2715   2.088   3.770   2.708 -0.1216 -0.1216  0.0372
 2716COC    COC 2716   2.033   3.831   2.450  0.1732  0.1920  0.3640
 2717COC    COC 2717   1.990   3.622   2.201 -0.0507 -0.0894  0.3355
 2718COC    COC 2718   2.193   3.506   2.011 -0.1234 -0.2803  0.3693
 2719COC    COC 2719   2.445   3.487   1.826  0.0677 -0.0444 -0.1503
 2720COC    COC 2720   2.520   3.788   1.893 -0.0823  0.1437  0.0733
 2721COC    COC 2721   2.417   3.863   2.158 -0.1157  0.4042 -0.3257
 2722COC    COC 2722   2.484   3.596   2.280  0.1093  0.3937 -0.1835
 2723COC    COC 2723   2.328   3.474   2.492  0.4425 -0.1813 -0.1246
 2724COC    COC 2724   2.625   3.364   2.607 -0.4140 -0.2157 -0.0407
 2725COC    COC 2725   2.806   3.288   2.368  0.2083  0.3203  0.1653
 2726COC    COC 2726   2.612   3.146   2.145  0.0712 -0.1982 -0.0355
 2727COC    COC 2727   2.630   2.855   2.066 -0.0533  0.0276  0.1711
 2728COC    COC 2728   2.416   2.634   2.100  0.1140  0.0793  0.1434
 2729COC    COC 2729   2.126   2.665   2.141  0.2278 -0.1443  0.0097
 2730COC    COC 2730   2.033   2.840   1.903  0.0437  0.0416  0.1891
 2731COC    COC 2731   2.241   3.070   1.893  0.0623  0.3034  0.1499
 2732COC    COC 2732   2.446   2.966   1.722  0.3017  0.3016 -0.0211
 2733COC    COC 2733   2.380   2.808   1.501  0.0947  0.0511  0.1078
 2734COC    COC 2734   2.400   2.992   1.256 -0.2980  0.0619  0.1210
 2735COC    COC 2735   2.370   3.309   1.373 -0.1534  0.3758  0.0926
 2736COC    COC 2736   2.619   3.346   1.480 -0.1404  0.3050  0.0853
 2737COC    COC 2737   2.906   3.439   1.561  0.2772 -0.0923  0.3079
 2738COC    COC 2738   2.951   3.729   1.664  0.2041 -0.3751  0.2753
 2739COC    COC 2739   2.966   4.049   1.543 -0.0905  0.2051 -0.2046
 2740COC    COC 2740   3.210   4.168   1.684 -0.2660  0.5072  0.2571
 2741COC    COC 2741   3.358   4.098   1.957  0.1518 -0.0708 -0.4675
 2742COC    COC 2742   3.225   3.860   2.137  0.1097  0.0205 -0.0421
 2743COC    COC 2743   3.304   3.636   1.978 -0.0645  0.0522  0.0027
 2744COC    COC 2744   3.547   3.468   2.077 -0.5340 -0.0348 -0.0399
 2745COC    COC 2745   3.770   3.669   2.096 -0.5785  0.2052  0.0753
 2746COC    COC 2746   4.005   3.576   1.901  0.0223  0.2984 -0.0394
 2747COC    COC 2747   4.223   3.463   2.056  0.0388 -0.0496  0.1564
 2748COC    COC 2748   4.088   3.347   2.310  0.0663 -0.1102 -0.0670
 2749COC    COC 2749   4.238   3.403   2.545  0.2380  0.2892  0.0403
 2750COC    COC 2750   4.415   3.150   2.521  0.2224  0.4275 -0.2588
 2751COC    COC 2751   4.587   3.263   2.773 -0.1347  0.1095  0.4719
 2752COC    COC 2752   4.503   3.370   3.068  0.1529 -0.1705  0.0111
 2753COC    COC 2753   4.707   3.410   3.300 -0.2912  0.0498 -0.1752
 2754COC    COC 2754   4.930   3.611   3.297 -0.0320  0.0713  0.1106
 2755COC    COC 2755   5.075   3.624   3.564 -0.0150  0.2233  0.1070
 2756COC    COC 2756   4.982   3.384   3.764  0.5172 -0.1314 -0.0511
 2757COC    COC 2757   4.919   3.310   4.050 -0.0821  0.1990 -0.1688
 2758COC    COC 2758   4.670   3.419   4.234 -0.2033  0.0305 -0.2392
 2759COC    COC 2759   4.640   3.223   4.507  0.2819  0.1554 -0.2828
 2760COH    COH 2760   4.664   3.214   4.767 -0.0015  0.0393  0.1563
 2761NCO    NCO 2761   2.554   9.807   6.191  0.0144 -0.2677 -0.3876
 2762CC1    CC1 2762   2.413   9.553   6.229  0.2137  0.4562 -0.1679
 2763CC1    CC1 2763   2.317   9.366   6.115 -0.1632  0.3968 -0.2054
 2764NCC    NCC 2764   2.206   9.122   6.091  0.7298 -0.0183  0.2782
 2765CONH  CONH 2765   1.895   9.051   6.130 -0.3008  0.0745  0.3769
 2766CC1    CC1 2766   1.724   9.047   5.925 -0.0916  0.2191  0.0634
 2767CC1    CC1 2767   1.613   9.241   5.935  0.0992 -0.3365  0.4073
 2768CC1    CC1 2768   1.631   9.459   5.920  0.0048  0.4547 -0.2493
 2769NCO    NCO 2769   1.456   9.557   5.711 -0.0072 -0.2296 -0.1778
 2770CONH  CONH 2770   2.201   8.886   5.906 -0.4580  0.0726  0.4361
 2771CC1    CC1 2771   1.943   8.753   5.850  0.4810 -0.3629  0.3541
 2772CC1    CC1 2772   1.827   8.752   5.635 -0.1122 -0.6977 -0.3951
 2773CC1    CC1 2773   1.755   8.899   5.438  0.1441 -0.3378 -0.3149
 2774NCO    NCO 2774   1.432   8.874   5.477 -0.0653 -0.1178  0.1835
 2775NCO    NCO 2775   6.603   9.536   9.839 -0.0187 -0.1861 -0.2118
 2776CC1    CC1 2776   6.490   9.307   9.625 -0.3162  0.0909 -0.4170
 2777CC1    CC1 2777   6.317   9.299   9.445 -0.0618  0.3911  0.1441
 2778NCC    NCC 2778   6.031   9.354   9.434  0.7172 -0.0521 -0.0870
 2779CONH  CONH 2779   5.800   9.169   9.259 -0.0491 -0.1113 -0.2149
 2780CC1    CC1 2780   5.599   9.032   9.396  0.8900  0.3155  0.4737
 2781CC1    CC1 2781   5.507   8.834   9.379  0.5328  0.3502 -0.2051
 2782CC1    CC1 2782   5.331   8.660   9.363  0.1864 -0.0912 -0.0412
 2783NCO    NCO 2783   5.354   8.501   9.107 -0.0294 -0.0122 -0.2000
 2784CONH  CONH 2784   5.861   9.637   9.336 -0.2476  0.0430 -0.0135
 2785CC1    CC1 2785   5.748   9.603   9.167  0.1041  0.0690  0.2745
 2786CC1    CC1 2786   5.832   9.551   8.938  0.1329  0.1827  0.0479
 2787CC1    CC1 2787   5.895   9.589   8.712 -0.0643 -0.1360  0.1465
 2788NCO    NCO 2788   6.105   9.453   8.580  0.0004  0.2161  0.4096
 2789NCO    NCO 2789   1.896   3.859   2.917  0.2019  0.1959 -0.3140
 2790CC1    CC1 2790   1.683   3.773   3.120  0.2896  0.3141  0.1493
 2791CC1    CC1 2791   1.602   3.557   3.087  0.2087 -0.3560  0.4244
 2792NCC    NCC 2792   1.425   3.395   2.912  0.3487 -0.3373 -0.0469
 2793CONH  CONH 2793   1.208   3.156   2.926  0.2728  0.2936  0.0378
 2794CC1    CC1 2794   1.190   2.979   3.145 -0.7074  0.8005  0.2322
 2795CC1    CC1 2795   1.111   2.955   3.364 -0.3283  0.2066 -0.0468
 2796CC1    CC1 2796   1.102   3.016   3.614  0.1996 -0.0894  0.3628
 2797NCO    NCO 2797   1.383   3.025   3.721 -0.0931 -0.0948 -0.2037
 2798CONH  CONH 2798   1.289   3.408   2.634 -0.1432 -0.0909  0.1601
 2799CC1    CC1 2799   1.091   3.210   2.535 -0.0850 -0.3104  0.2918
 2800CC1    CC1 2800   0.877   3.174   2.616 -0.1956 -0.1472  0.0191
 2801CC1    CC1 2801   0.678   3.231   2.684  0.0873  0.7210  0.3852
 2802NCO    NCO 2802   0.541   3.178   2.992  0.0577  0.5344 -0.1985
 2803NCO    NCO 2803   8.009   0.543   1.221  0.2622  0.0450  0.1103
 2804CC1    CC1 2804   8.174   0.800   1.228  0.0592 -0.1054 -0.0544
 2805CC1    CC1 2805   8.052   0.935   1.361 -0.1282 -0.3052  0.1332
 2806NCC    NCC 2806   7.916   1.122   1.573  0.0193  0.4427  0.0022
 2807CONH  CONH 2807   7.818   1.426   1.589 -0.0410 -0.1000 -0.0746
 2808CC1    CC1 2808   7.956   1.656   1.642 -0.0121 -0.3869  0.2569
 2809CC1    CC1 2809   8.168   1.598   1.642 -0.1153 -0.1439 -0.0745
 2810CC1    CC1 2810   8.340   1.459   1.676  0.2111 -0.2141 -0.2222
 2811NCO    NCO 2811   8.443   1.191   1.668  0.2898 -0.0974  0.3358
 2812CONH  CONH 2812   7.639   1.085   1.781  0.0823 -0.0529  0.1974
 2813CC1    CC1 2813   7.452   0.878   1.743  0.0041  0.0200 -0.1614
 2814CC1    CC1 2814   7.250   0.909   1.847  1.0614  0.2167 -0.6429
 2815CC1    CC1 2815   7.079   0.939   1.984  0.0771  0.0863 -0.0178
 2816NCO    NCO 2816   7.011   1.234   2.107 -0.3050  0.0787  0.1503
 2817NCO    NCO 2817   9.423   4.447   1.586 -0.2036 -0.0287  0.0241
 2818CC1    CC1 2818   9.597   4.719   1.475  0.5916  0.3395  0.3705
 2819CC1    CC1 2819   9.774   4.606   1.426  0.2827 -0.3289  0.0016
 2820NCC    NCC 2820  10.006   4.546   1.339  0.1743 -0.0449  0.1288
 2821CONH  CONH 2821  10.274   4.390   1.429 -0.0300  0.1304 -0.2102
 2822CC1    CC1 2822   0.163   4.379   1.263 -0.0820 -0.2495 -0.2423
 2823CC1    CC1 2823   0.370   4.274   1.332  0.1238  0.1237  0.2734
 2824CC1    CC1 2824   0.550   4.184   1.434  0.7313  0.2959  0.3786
 2825NCO    NCO 2825   0.618   3.888   1.523  0.3260  0.3428  0.4726
 2826CONH  CONH 2826  10.195   4.672   1.122 -0.0583  0.0618  0.1043
 2827CC1    CC1 2827   0.111   4.713   1.155 -0.4870 -0.1765 -0.4193
 2828CC1    CC1 2828   0.210   4.774   1.399  0.3112 -0.4716  0.2704
 2829CC1    CC1 2829   0.381   4.876   1.567  0.1408 -0.1052 -0.3148
 2830NCO    NCO 2830   0.618   4.966   1.498 -0.3796  0.0769  0.1587
 2831NCO    NCO 2831   3.721   0.339   9.970 -0.2973 -0.2908 -0.3511
 2832CC1    CC1 2832   3.690   0.167   9.733 -0.4821  0.0264 -0.2184
 2833CC1    CC1 2833   3.730   0.216   9.491 -0.0176 -0.2047 -0.2688
 2834NCC    NCC 2834   3.694   0.341   9.272  0.1731 -0.4644  0.1452
 2835CONH  CONH 2835   3.743   0.651   9.182 -0.2764 -0.6302 -0.1386
 2836CC1    CC1 2836   4.006   0.703   9.003  0.6449  0.0021 -0.2897
 2837CC1    CC1 2837   3.997   0.608   8.775 -0.2131 -0.3381  0.2387
 2838CC1    CC1 2838   3.949   0.628   8.534 -0.1547  0.3211  0.0271
 2839NCO    NCO 2839   3.759   0.853   8.537  0.0397  0.2119 -0.6893
 2840CONH  CONH 2840   3.828   0.305   8.949  0.1297  0.3043 -0.1546
 2841CC1    CC1 2841   4.087   0.309   8.920  0.0634  0.2210  0.1292
 2842CC1    CC1 2842   4.217   0.429   9.084 -0.4586  0.0263 -0.1823
 2843CC1    CC1 2843   4.399   0.515   9.171 -0.0354  0.1539  0.0960
 2844NCO    NCO 2844   4.579   0.313   9.266 -0.1310 -0.1395  0.4618
 2845NCO    NCO 2845   4.229   2.453   9.262  0.5636 -0.1949  0.2093
 2846CC1    CC1 2846   4.170   2.245   9.089  0.3882  0.5730  0.1873
 2847CC1    CC1 2847   4.387   2.148   9.051  0.5888 -0.4077  0.3086
 2848NCC    NCC 2848   4.575   1.989   8.960 -0.2908 -0.3274 -0.0179
 2849CONH  CONH 2849   4.647   1.705   9.114 -0.0686 -0.4320  0.1109
 2850CC1    CC1 2850   4.464   1.539   9.263 -0.1927  0.2838 -0.0031
 2851CC1    CC1 2851   4.329   1.344   9.231 -0.0620 -0.2072  0.3254
 2852CC1    CC1 2852   4.122   1.220   9.127  0.0747  0.0167 -0.2004
 2853NCO    NCO 2853   3.934   1.337   8.943  0.0729  0.4376 -0.0243
 2854CONH  CONH 2854   4.844   1.923   8.784  0.0517  0.2411 -0.1380
 2855CC1    CC1 2855   4.913   1.721   8.657  0.3250 -0.2308 -0.2202
 2856CC1    CC1 2856   4.904   1.745   8.405  0.0698  0.2283 -0.1334
 2857CC1    CC1 2857   4.942   1.840   8.197  0.1219  0.0960 -0.3839
 2858NCO    NCO 2858   5.098   2.072   8.115  0.0090 -0.2051  0.0925
 2859NCO    NCO 2859   4.527   2.968   9.743 -0.0384  0.0436 -0.2409
 2860CC1    CC1 2860   4.420   2.730   9.659  0.6784 -0.4520  0.2352
 2861CC1    CC1 2861   4.547   2.531   9.650  0.5187  0.4925 -0.0609
 2862NCC    NCC 2862   4.606   2.232   9.574 -0.0722 -0.1613  0.1019
 2863CONH  CONH 2863   4.472   1.933   9.583 -0.0441  0.4527 -0.2929
 2864CC1    CC1 2864   4.608   1.705   9.594 -0.0459 -0.2504 -0.1969
 2865CC1    CC1 2865   4.529   1.534   9.792 -0.0025  0.0832 -0.2920
 2866CC1    CC1 2866   4.436   1.487  10.013  0.4054 -0.3527 -0.3040
 2867NCO    NCO 2867   4.437   1.205  10.065  0.3120  0.2321  0.2092
 2868CONH  CONH 2868   4.877   2.098   9.445  0.2705  0.2262 -0.0249
 2869CC1    CC1 2869   4.906   1.826   9.441  0.1516  0.4644  0.1331
 2870CC1    CC1 2870   4.980   1.774   9.634  0.3066  0.4130 -0.3312
 2871CC1    CC1 2871   5.009   1.712   9.837  0.0393 -0.1009  0.0129
 2872NCO    NCO 2872   4.930   1.410   9.821  0.0314  0.0859 -0.3136
 2873NCO    NCO 2873   8.883   1.660   1.617 -0.0139 -0.1114 -0.0575
 2874CC1    CC1 2874   8.777   1.603   1.363 -0.0948  0.5445  0.0024
 2875CC1    CC1 2875   8.594   1.473   1.337  0.3313  0.0953  0.1000
 2876NCC    NCC 2876   8.383   1.388   1.208 -0.3588  0.0680 -0.3588
 2877CONH  CONH 2877   8.100   1.295   1.251  0.0372 -0.2543  0.6445
 2878CC1    CC1 2878   7.961   1.153   1.049 -0.4419  0.6795 -0.1058
 2879CC1    CC1 2879   8.005   1.015   0.880 -0.0871 -0.1152  0.2667
 2880CC1    CC1 2880   8.121   0.856   0.780  0.3761 -0.0817  0.1602
 2881NCO    NCO 2881   7.988   0.593   0.820 -0.1720  0.0421  0.0190
 2882CONH  CONH 2882   8.318   1.384   0.904  0.2774 -0.2272 -0.1198
 2883CC1    CC1 2883   8.059   1.403   0.819 -0.0957 -0.3735 -0.3434
 2884CC1    CC1 2884   8.031   1.308   0.587 -0.0576 -0.0178 -0.1995
 2885CC1    CC1 2885   7.952   1.283   0.397 -0.0239 -0.0151  0.4412
 2886NCO    NCO 2886   7.771   1.020   0.348  0.4278 -0.1579 -0.3747
 2887NCO    NCO 2887   2.277   5.205   6.954  0.0659 -0.4819  0.7929
 2888CC1    CC1 2888   2.479   5.460   7.052 -0.4530  0.3367  0.2143
 2889CC1    CC1 2889   2.658   5.459   6.881  0.0990 -0.1916 -0.1091
 2890NCC    NCC 2890   2.870   5.418   6.697 -0.7307 -0.0581  0.0832
 2891CONH  CONH 2891   2.941   5.415   6.364  0.0301  0.2798 -0.2217
 2892CC1    CC1 2892   3.045   5.209   6.233  0.0975 -0.1486 -0.3233
 2893CC1    CC1 2893   3.186   5.095   6.276 -0.3755 -0.2782 -0.4773
 2894CC1    CC1 2894   3.403   4.982   6.226 -0.0075  0.1598 -0.2192
 2895NCO    NCO 2895   3.475   4.724   6.314  0.2944 -0.2007  0.2006
 2896CONH  CONH 2896   3.202   5.415   6.701 -0.1854  0.0065 -0.0732
 2897CC1    CC1 2897   3.311   5.240   6.887  0.5194  0.1014  0.2398
 2898CC1    CC1 2898   3.501   5.188   6.985 -0.4872 -0.2699  0.5672
 2899CC1    CC1 2899   3.682   5.235   7.130  0.2211 -0.5176 -0.6462
 2900NCO    NCO 2900   3.575   5.332   7.373  0.6199 -0.1435  0.3665
 2901NCO    NCO 2901   8.837   8.422   5.359  0.0475  0.0306 -0.1998
 2902CC1    CC1 2902   8.887   8.131   5.332 -0.1386 -0.2996 -0.5530
 2903CC1    CC1 2903   9.104   8.078   5.414 -0.1849  0.0538  0.2176
 2904NCC    NCC 2904   9.366   7.999   5.507 -0.7826  0.2036  0.0893
 2905CONH  CONH 2905   9.618   7.784   5.422 -0.0377 -0.3578 -0.5098
 2906CC1    CC1 2906   9.761   7.647   5.597  0.3042  0.1163 -0.1342
 2907CC1    CC1 2907   9.861   7.432   5.540  0.6867  0.0336  0.0696
 2908CC1    CC1 2908   9.896   7.228   5.497  0.3103 -0.0059 -0.2994
 2909NCO    NCO 2909   9.766   6.993   5.340 -0.3483 -0.1568 -0.1049
 2910CONH  CONH 2910   9.456   7.886   5.793  0.1971  0.0283  0.0899
 2911CC1    CC1 2911   9.657   7.963   5.918 -0.5496 -0.0768  0.0527
 2912CC1    CC1 2912   9.893   7.929   5.859  0.5659  0.1047 -0.2700
 2913CC1    CC1 2913  10.102   7.873   5.782 -0.1221 -0.1273  0.4043
 2914NCO    NCO 2914  10.168   7.990   5.520 -0.1268 -0.5798  0.4753
 2915NCO    NCO 2915   4.441  10.171   9.009 -0.3711  0.0700 -0.0531
 2916CC1    CC1 2916   4.262  10.290   8.795  0.0208  0.5470 -0.3101
 2917CC1    CC1 2917   4.231  10.321   8.609 -0.1954 -0.1613 -0.1355
 2918NCC    NCC 2918   4.148  10.273   8.368 -0.0578  0.3227  0.1857
 2919CONH  CONH 2919   3.831  10.270   8.222 -0.1791  0.2524 -0.2643
 2920CC1    CC1 2920   3.596  10.293   8.377 -0.0978 -0.0724 -0.1360
 2921CC1    CC1 2921   3.521  10.077   8.449  0.1362 -0.1862  0.0380
 2922CC1    CC1 2922   3.386   9.927   8.575  0.2994 -0.3610 -0.3103
 2923NCO    NCO 2923   3.638   9.734   8.664 -0.0211  0.4763  0.3202
 2924CONH  CONH 2924   4.225  10.211   8.064  0.0542  0.1357 -0.0825
 2925CC1    CC1 2925   4.125  10.023   7.921 -0.3958  0.3252  0.1501
 2926CC1    CC1 2926   4.165   9.824   7.810  0.4528  0.1153  0.1870
 2927CC1    CC1 2927   4.183   9.688   7.604 -0.0612 -0.3388  0.4974
 2928NCO    NCO 2928   4.058   9.782   7.404  0.2967  0.0259  0.2108
 2929NCO    NCO 2929   4.535   9.544   0.982 -0.1776  0.2696 -0.1532
 2930CC1    CC1 2930   4.300   9.468   1.189 -0.0992  0.2252 -0.4080
 2931CC1    CC1 2931   4.339   9.250   1.168 -0.0720 -0.2279 -0.2969
 2932NCC    NCC 2932   4.448   9.041   1.102  0.4021 -0.0623 -0.1719
 2933CONH  CONH 2933   4.491   8.855   0.847 -0.3061 -0.1495  0.6467
 2934CC1    CC1 2934   4.619   8.603   0.835 -0.3694 -0.3770 -0.5435
 2935CC1    CC1 2935   4.497   8.471   0.780 -0.0406 -0.1361 -0.3207
 2936CC1    CC1 2936   4.336   8.371   0.628  0.5888  0.2504 -0.3682
 2937NCO    NCO 2937   4.170   8.253   0.441  0.0602 -0.1685  0.2686
 2938CONH  CONH 2938   4.401   8.753   1.258 -0.1883  0.2461 -0.1716
 2939CC1    CC1 2939   4.531   8.490   1.153 -0.9533 -0.2985  0.2265
 2940CC1    CC1 2940   4.468   8.268   1.086  0.1235 -0.2555 -0.3185
 2941CC1    CC1 2941   4.339   8.044   1.097 -0.1729  0.4163  0.6771
 2942NCO    NCO 2942   4.111   8.027   1.306  0.2110  0.4348 -0.0499
 2943NCO    NCO 2943   9.681   6.011   1.542  0.3716 -0.2580 -0.3877
 2944CC1    CC1 2944   9.724   5.838   1.760 -0.1221  0.2226 -0.4221
 2945CC1    CC1 2945   9.885   5.644   1.687 -0.0900 -0.0269 -0.1894
 2946NCC    NCC 2946   9.980   5.408   1.590 -0.1434  0.5973 -0.0800
 2947CONH  CONH 2947  10.217   5.205   1.698  0.2918  0.0097  0.4314
 2948CC1    CC1 2948   0.102   5.107   1.558  0.1368 -0.0556 -0.0416
 2949CC1    CC1 2949   0.206   5.183   1.345  0.1805  0.1347 -0.2801
 2950CC1    CC1 2950   0.208   5.165   1.154  0.0653  0.0086  0.2633
 2951NCO    NCO 2951   0.376   5.347   1.010  0.0603  0.3892  0.2247
 2952CONH  CONH 2952  10.060   5.329   1.310  0.0000  0.3035  0.0026
 2953CC1    CC1 2953  10.132   5.529   1.151 -0.1852  0.1339  0.1268
 2954CC1    CC1 2954  10.091   5.597   0.930 -0.0747 -0.0300 -0.2830
 2955CC1    CC1 2955  10.079   5.519   0.721  0.1347 -0.3381 -0.6199
 2956NCO    NCO 2956  10.000   5.689   0.529  0.0150 -0.4619 -0.0052
 2957NCO    NCO 2957   3.605   9.444   9.396  0.2099 -0.1600  0.2446
 2958CC1    CC1 2958   3.593   9.730   9.510 -0.4974 -0.2045 -0.5579
 2959CC1    CC1 2959   3.736   9.886   9.390 -0.1584  0.1130  0.0527
 2960NCC    NCC 2960   3.768  10.047   9.162  0.0878 -0.4427  0.2162
 2961CONH  CONH 2961   3.598  10.298   9.043  0.0877  0.0514 -0.2209
 2962CC1    CC1 2962   3.527  10.305   8.807 -0.0291 -0.0429 -0.1909
 2963CC1    CC1 2963   3.464   0.172   8.717 -0.2366  0.1013 -0.0859
 2964CC1    CC1 2964   3.345   0.357   8.676  0.2117  0.1895  0.2134
 2965NCO    NCO 2965   3.448   0.569   8.815  0.1101 -0.2036  0.0477
 2966CONH  CONH 2966   3.924  10.103   8.878 -0.0553  0.0814 -0.4023
 2967CC1    CC1 2967   3.830  10.188   8.654  0.3857  0.0655  0.1735
 2968CC1    CC1 2968   3.864   0.078   8.611 -0.5122 -0.2184 -0.0087
 2969CC1    CC1 2969   4.006   0.276   8.520 -0.0443  0.0341  0.3067
 2970NCO    NCO 2970   4.095   0.364   8.242 -0.1632  0.3342  0.0752
 2971NCO    NCO 2971   4.091   1.394   9.635  0.1770 -0.0218 -0.3976
 2972CC1    CC1 2972   3.776   1.446   9.623 -0.3375  0.0838  0.0087
 2973CC1    CC1 2973   3.686   1.376   9.437  0.1231  0.0233 -0.0538
 2974NCC    NCC 2974   3.590   1.457   9.178 -0.3644 -0.2006 -0.0216
 2975CONH  CONH 2975   3.317   1.459   8.998  0.3388  0.0853 -0.1579
 2976CC1    CC1 2976   3.117   1.315   9.064  0.3984  0.6905  0.3721
 2977CC1    CC1 2977   3.005   1.324   9.253  0.1968  0.0913  0.0803
 2978CC1    CC1 2978   2.801   1.342   9.413 -0.2459 -0.3392 -0.0252
 2979NCO    NCO 2979   2.933   1.504   9.645 -0.1851 -0.3428  0.1558
 2980CONH  CONH 2980   3.683   1.654   8.929  0.2373 -0.1653 -0.1782
 2981CC1    CC1 2981   3.916   1.800   8.899  0.2289  0.1998 -0.2894
 2982CC1    CC1 2982   3.915   2.023   8.880 -0.1807  0.3673  0.0284
 2983CC1    CC1 2983   3.927   2.260   8.775  0.1431  0.1228  0.1225
 2984NCO    NCO 2984   3.926   2.512   8.937 -0.1592 -0.0507 -0.1188
 2985NCO    NCO 2985   1.346   8.517   6.930  0.0683  0.1461 -0.2516
 2986CC1    CC1 2986   1.155   8.605   6.833  0.3240 -0.1531  0.1942
 2987CC1    CC1 2987   1.171   8.869   6.844 -0.3294 -0.0012 -0.3624
 2988NCC    NCC 2988   1.231   9.132   6.864  0.1460  0.2216  0.2083
 2989CONH  CONH 2989   1.482   9.267   6.807 -0.4752 -0.0841  0.1829
 2990CC1    CC1 2990   1.732   9.089   6.719  0.3424  0.2839 -0.0373
 2991CC1    CC1 2991   1.736   8.888   6.627  0.5674  0.1830 -0.5339
 2992CC1    CC1 2992   1.816   8.674   6.616  0.0395 -0.0527 -0.0327
 2993NCO    NCO 2993   1.766   8.485   6.826  0.0174  0.1147 -0.3034
 2994CONH  CONH 2994   1.194   9.345   7.086 -0.0555 -0.0999 -0.1948
 2995CC1    CC1 2995   1.354   9.320   7.299 -0.0583 -0.5341 -0.3814
 2996CC1    CC1 2996   1.346   9.148   7.421 -0.2210 -0.0095  0.2272
 2997CC1    CC1 2997   1.265   9.022   7.528  0.3566  0.0638 -0.0199
 2998NCO    NCO 2998   1.144   9.056   7.809 -0.3969  0.0053  0.3083
 2999NCO    NCO 2999   0.518   4.391   3.186 -0.2019 -0.1381  0.1985
 3000CC1    CC1 3000   0.601   4.327   3.404  0.0398  0.2767  0.1981
 3001CC1    CC1 3001   0.442   4.259   3.557  0.0742 -0.0145 -0.2684
 3002NCC    NCC 3002   0.208   4.221   3.664 -0.0377 -0.3118 -0.4065
 3003CONH  CONH 3003  10.285   4.062   3.600 -0.0997 -0.0552 -0.3103
 3004CC1    CC1 3004  10.144   4.082   3.384  0.0494  0.2134  0.1437
 3005CC1    CC1 3005  10.092   4.276   3.287  0.1698 -0.0795 -0.1029
 3006CC1    CC1 3006  10.006   4.436   3.131  0.2030  0.1546 -0.1004
 3007NCO    NCO 3007  10.111   4.578   2.837 -0.0994  0.4312 -0.0710
 3008CONH  CONH 3008   0.088   4.205   3.975  0.0972  0.4354  0.1935
 3009CC1    CC1 3009  10.203   4.374   4.051 -0.2109 -0.6020  0.0520
 3010CC1    CC1 3010   9.985   4.376   3.911  0.1703 -0.2788 -0.2873
 3011CC1    CC1 3011   9.912   4.277   3.669 -0.0354 -0.7709 -0.2509
 3012NCO    NCO 3012   9.748   4.519   3.598  0.0770 -0.2886 -0.1754
 3013NCO    NCO 3013   8.936   1.162   1.487  0.4446 -0.3267  0.0213
 3014CC1    CC1 3014   8.845   1.290   1.212  0.0121  0.3534  0.1066
 3015CC1    CC1 3015   8.744   1.413   1.036  0.5188  0.1440  0.2484
 3016NCC    NCC 3016   8.665   1.682   0.994  0.1666 -0.0378  0.3428
 3017CONH  CONH 3017   8.788   1.972   1.003 -0.1022  0.2988  0.0851
 3018CC1    CC1 3018   8.775   2.130   1.230 -0.1965  0.5524  0.0402
 3019CC1    CC1 3019   8.984   2.021   1.406  0.0848  0.3341  0.2426
 3020CC1    CC1 3020   9.222   1.957   1.484 -0.2626  0.3732 -0.0022
 3021NCO    NCO 3021   9.348   2.100   1.245 -0.1923  0.1362 -0.0509
 3022CONH  CONH 3022   8.402   1.854   1.071 -0.0597  0.2152 -0.1482
 3023CC1    CC1 3023   8.234   1.735   1.214 -0.1728 -0.1433 -0.0417
 3024CC1    CC1 3024   8.210   1.854   1.441 -0.2264  0.2944 -0.4212
 3025CC1    CC1 3025   8.099   1.990   1.584  0.1820  0.0438 -0.1561
 3026NCO    NCO 3026   7.790   2.013   1.652  0.0542 -0.0444 -0.1323
 3027NCO    NCO 3027   3.969   1.773   9.410  0.1739  0.3414 -0.1702
 3028CC1    CC1 3028   4.081   1.614   9.209  0.4683  0.1502 -0.0568
 3029CC1    CC1 3029   4.213   1.712   9.027 -0.2775  0.3718 -0.0071
 3030NCC    NCC 3030   4.270   1.822   8.747  0.0686  0.2800 -0.1473
 3031CONH  CONH 3031   4.500   1.742   8.567 -0.1425  0.0257 -0.1946
 3032CC1    CC1 3032   4.528   1.498   8.489 -0.6108  0.2699 -0.4007
 3033CC1    CC1 3033   4.563   1.432   8.241 -0.1023 -0.3130  0.1549
 3034CC1    CC1 3034   4.509   1.481   8.007  0.6220 -0.2227  0.2232
 3035NCO    NCO 3035   4.696   1.581   7.829 -0.2205  0.1488  0.2852
 3036CONH  CONH 3036   4.218   2.071   8.568  0.0675 -0.0468 -0.1248
 3037CC1    CC1 3037   4.121   2.068   8.347 -0.4234 -0.0539 -0.0062
 3038CC1    CC1 3038   3.999   1.895   8.184 -0.0358  0.0103 -0.4027
 3039CC1    CC1 3039   3.918   1.697   8.007  0.6550 -0.0003  0.1134
 3040NCO    NCO 3040   4.108   1.585   7.803 -0.1635 -0.0968  0.0870
 3041NCO    NCO 3041   0.454   8.445   8.833  0.0942  0.1371 -0.0968
 3042CC1    CC1 3042   0.456   8.228   9.052  0.1609 -0.1950  0.0438
 3043CC1    CC1 3043   0.326   7.994   9.022  0.3431 -0.4270  0.3368
 3044NCC    NCC 3044   0.238   7.777   8.851 -0.0816 -0.0376 -0.0687
 3045CONH  CONH 3045   0.347   7.616   8.637  0.0023  0.1116  0.1296
 3046CC1    CC1 3046   0.269   7.672   8.376 -0.3904 -0.1080 -0.1337
 3047CC1    CC1 3047   0.182   7.882   8.305 -0.4683 -0.0845 -0.4322
 3048CC1    CC1 3048   0.053   8.073   8.283  0.2505  0.0730  0.4443
 3049NCO    NCO 3049  10.095   8.141   8.296 -0.1698  0.0796 -0.0899
 3050CONH  CONH 3050  10.314   7.567   8.783 -0.3019  0.0809 -0.1635
 3051CC1    CC1 3051   0.034   7.288   8.723  0.0701 -0.4708 -0.0303
 3052CC1    CC1 3052   0.133   7.231   8.517 -0.3628 -0.1893 -0.3299
 3053CC1    CC1 3053   0.238   7.107   8.347  0.5326 -0.4779 -0.0284
 3054NCO    NCO 3054   0.072   6.991   8.131  0.2486  0.2402  0.3844
 3055NCO    NCO 3055   3.685   2.589   8.260  0.0996 -0.1709 -0.1690
 3056CC1    CC1 3056   3.850   2.408   8.373  0.4532 -0.0592 -0.0100
 3057CC1    CC1 3057   3.797   2.194   8.379 -0.4028 -0.0221 -0.0234
 3058NCC    NCC 3058   3.740   1.929   8.489  0.5517  0.1567  0.3124
 3059CONH  CONH 3059   3.895   1.662   8.558  0.3680  0.0240  0.2102
 3060CC1    CC1 3060   4.085   1.566   8.370 -0.2852 -0.0193  0.3249
 3061CC1    CC1 3061   3.942   1.439   8.246 -0.0419  0.0158  0.2509
 3062CC1    CC1 3062   3.811   1.300   8.133 -0.0915 -0.4216 -0.5452
 3063NCO    NCO 3063   3.650   1.126   8.188 -0.0513 -0.0926 -0.4397
 3064CONH  CONH 3064   3.456   1.800   8.578  0.0001  0.0369 -0.0391
 3065CC1    CC1 3065   3.328   1.880   8.787 -0.3098  0.0017 -0.0757
 3066CC1    CC1 3066   3.377   1.980   9.021 -0.0932  0.0383  0.5814
 3067CC1    CC1 3067   3.537   2.011   9.183 -0.2434 -0.2816 -0.0949
 3068NCO    NCO 3068   3.539   1.818   9.459  0.4356  0.0528 -0.1236
 3069NCO    NCO 3069   6.525   3.760   3.943  0.1116  0.0732  0.3585
 3070CC1    CC1 3070   6.573   4.020   3.940 -0.0488  0.3509  0.0737
 3071CC1    CC1 3071   6.472   4.169   4.120  0.4298 -0.1135 -0.0051
 3072NCC    NCC 3072   6.439   4.332   4.355  0.0607 -0.1364  0.0305
 3073CONH  CONH 3073   6.615   4.537   4.508  0.0488  0.1480  0.2539
 3074CC1    CC1 3074   6.839   4.489   4.567  0.0012 -0.1081 -0.6455
 3075CC1    CC1 3075   6.942   4.386   4.752 -0.1032 -0.3470 -0.1706
 3076CC1    CC1 3076   7.053   4.275   4.947  0.6169  0.3978 -0.1474
 3077NCO    NCO 3077   7.314   4.159   4.925 -0.1072 -0.1731  0.3635
 3078CONH  CONH 3078   6.225   4.570   4.394 -0.3114  0.2284 -0.3261
 3079CC1    CC1 3079   6.279   4.851   4.313 -0.0844 -0.0198  0.1956
 3080CC1    CC1 3080   6.264   4.848   4.078 -0.5781 -0.0649  0.0332
 3081CC1    CC1 3081   6.359   4.885   3.857 -0.0081 -0.2975  0.2325
 3082NCO    NCO 3082   6.434   5.183   3.821 -0.4828  0.1866  0.0966
 3083NCO    NCO 3083   3.362  10.303  10.162 -0.0731  0.0798  0.0062
 3084CC1    CC1 3084   3.295   0.048   9.835 -0.1113 -0.3930 -0.1158
 3085CC1    CC1 3085   3.176  10.241   9.680 -0.3381  0.0279  0.3146
 3086NCC    NCC 3086   2.920  10.108   9.633 -0.0430  0.2921 -0.1012
 3087CONH  CONH 3087   2.826   9.990   9.366 -0.1226  0.4162  0.2877
 3088CC1    CC1 3088   3.034   9.961   9.171  0.1131  0.3304 -0.0569
 3089CC1    CC1 3089   3.076  10.053   8.996  0.0413 -0.4523 -0.0545
 3090CC1    CC1 3090   3.156  10.157   8.819 -0.3758 -0.4720 -0.6275
 3091NCO    NCO 3091   2.965   0.060   8.744  0.1384 -0.2416  0.3758
 3092CONH  CONH 3092   2.646  10.215   9.688  0.5044 -0.1560  0.6186
 3093CC1    CC1 3093   2.532  10.195   9.927  0.2712 -0.1803  0.0492
 3094CC1    CC1 3094   2.407   0.016  10.039 -0.3926  0.2391  0.1072
 3095CC1    CC1 3095   2.361   0.151  10.180  0.3590  0.2024 -0.1632
 3096NCO    NCO 3096   2.616   0.189  10.334  0.3153  0.2674  0.0963
 3097NCO    NCO 3097   6.568   0.037   3.838  0.1307 -0.0061 -0.1345
 3098CC1    CC1 3098   6.496  10.324   4.120  0.1779  0.1866  0.1459
 3099CC1    CC1 3099   6.607  10.184   4.243 -0.1274 -0.0267 -0.0719
 3100NCC    NCC 3100   6.672  10.039   4.424 -0.3806 -0.1872 -0.2599
 3101CONH  CONH 3101   6.525   9.792   4.582 -0.0142  0.1460 -0.0670
 3102CC1    CC1 3102   6.408   9.831   4.849  0.1717  0.2685  0.0868
 3103CC1    CC1 3103   6.350   9.674   4.993  0.5789  0.1370 -0.3018
 3104CC1    CC1 3104   6.313   9.568   5.177 -0.2694  0.1652 -0.4705
 3105NCO    NCO 3105   6.031   9.421   5.144 -0.1895 -0.0738  0.0293
 3106CONH  CONH 3106   6.910   9.869   4.517 -0.3475  0.1466 -0.4230
 3107CC1    CC1 3107   6.925   9.764   4.763  0.2592 -0.2494 -0.0740
 3108CC1    CC1 3108   6.837   9.672   4.932  0.2613 -0.4242  0.0613
 3109CC1    CC1 3109   6.684   9.528   5.110 -0.5654 -0.4413 -0.0041
 3110NCO    NCO 3110   6.624   9.263   5.195  0.1581  0.1488 -0.0247
 3111NCO    NCO 3111   8.207   7.019   7.099  0.1055  0.0124 -0.3403
 3112CC1    CC1 3112   8.029   6.986   6.906 -0.1097  0.1350  0.4410
 3113CC1    CC1 3113   7.793   6.949   6.992  0.2553 -0.6398 -0.1302
 3114NCC    NCC 3114   7.587   6.806   7.043 -0.3199 -0.7095 -0.0043
 3115CONH  CONH 3115   7.404   6.550   6.919  0.2949 -0.0116  0.0031
 3116CC1    CC1 3116   7.195   6.633   6.770  0.0798 -0.1075  0.2102
 3117CC1    CC1 3117   6.965   6.466   6.789  0.2180 -0.0253  0.3999
 3118CC1    CC1 3118   6.865   6.263   6.776 -0.0343 -0.2562 -0.1041
 3119NCO    NCO 3119   6.837   6.150   6.482 -0.4642 -0.2819 -0.4230
 3120CONH  CONH 3120   7.444   6.754   7.321  0.0412  0.4707  0.1716
 3121CC1    CC1 3121   7.520   6.874   7.555 -0.1076 -0.2100 -0.4171
 3122CC1    CC1 3122   7.339   6.887   7.758 -0.3451 -0.4994  0.5993
 3123CC1    CC1 3123   7.216   6.911   7.936  0.0438  0.1811  0.0884
 3124NCO    NCO 3124   7.358   7.038   8.143 -0.0067 -0.3159 -0.1772
 3125NCO    NCO 3125   1.011   4.404   2.230  0.0697  0.0105  0.1164
 3126CC1    CC1 3126   0.857   4.243   2.053  0.2793 -0.2418  0.2255
 3127CC1    CC1 3127   0.638   4.329   2.001  0.2971  0.8716  0.4092
 3128NCC    NCC 3128   0.386   4.383   1.996 -0.3713  0.0793 -0.5586
 3129CONH  CONH 3129   0.067   4.306   2.052  0.2475 -0.2746 -0.4873
 3130CC1    CC1 3130  10.214   4.353   1.867  0.2825 -0.4242  0.0815
 3131CC1    CC1 3131  10.014   4.440   1.901  0.2579  0.4869  0.3983
 3132CC1    CC1 3132   9.783   4.489   1.771 -0.0776 -0.0037 -0.1363
 3133NCO    NCO 3133   9.602   4.632   1.965  0.1213  0.0753  0.1239
 3134CONH  CONH 3134   0.223   4.496   1.738 -0.1305 -0.4836 -0.1606
 3135CC1    CC1 3135   0.082   4.745   1.757 -0.2473  0.1139 -0.3106
 3136CC1    CC1 3136  10.228   4.793   1.824  0.1754 -0.0221  0.0474
 3137CC1    CC1 3137  10.028   4.781   1.965 -0.4719 -0.3740 -0.2873
 3138NCO    NCO 3138   9.966   5.049   2.050  0.1724  0.2524  0.4593
 3139NCO    NCO 3139   5.091   1.210   7.950 -0.4351  0.2970  0.4309
 3140CC1    CC1 3140   4.988   1.450   8.156 -0.2338  0.1425  0.0339
 3141CC1    CC1 3141   4.878   1.347   8.365  0.2654  0.9458 -0.1583
 3142NCC    NCC 3142   4.818   1.302   8.639  0.0389 -0.0060 -0.4439
 3143CONH  CONH 3143   4.992   1.302   8.927 -0.0158 -0.1342  0.0535
 3144CC1    CC1 3144   4.874   1.183   9.195 -0.4485 -0.5682 -0.3134
 3145CC1    CC1 3145   4.689   1.190   9.336 -0.2096 -0.1349 -0.2119
 3146CC1    CC1 3146   4.568   1.269   9.543 -0.2130  0.4214 -0.3114
 3147NCO    NCO 3147   4.369   1.089   9.553  0.3610  0.3257 -0.1219
 3148CONH  CONH 3148   4.586   1.308   8.885  0.1965  0.0352  0.0371
 3149CC1    CC1 3149   4.358   1.436   8.840 -0.2783 -0.0191 -0.2289
 3150CC1    CC1 3150   4.209   1.399   8.666 -0.1986  0.0950  0.0325
 3151CC1    CC1 3151   4.019   1.281   8.549 -0.3649 -0.0073 -0.2157
 3152NCO    NCO 3152   4.228   1.137   8.289  0.3519  0.1106 -0.0276
 3153NCO    NCO 3153   9.708   5.593   1.285 -0.1761  0.0165 -0.2656
 3154CC1    CC1 3154   9.725   5.871   1.157  0.1212 -0.4351  0.1218
 3155CC1    CC1 3155   9.930   5.896   0.989  0.4181 -0.3609  0.4951
 3156NCC    NCC 3156  10.128   5.969   0.815  0.3521  0.0058 -0.0991
 3157CONH  CONH 3157  10.252   6.260   0.786  0.1382  0.2157 -0.3869
 3158CC1    CC1 3158  10.137   6.466   0.938 -0.0054  0.1789  0.0284
 3159CC1    CC1 3159  10.035   6.634   0.773  0.1836  0.1505 -0.5343
 3160CC1    CC1 3160   9.942   6.862   0.696 -0.5786  0.3741  0.2619
 3161NCO    NCO 3161  10.172   6.974   0.555 -0.1180 -0.0185  0.0217
 3162CONH  CONH 3162   0.118   5.884   0.835  0.6206 -0.1587  0.0310
 3163CC1    CC1 3163   0.197   5.629   0.739  0.0364 -0.3365  0.4046
 3164CC1    CC1 3164   0.077   5.413   0.756  0.5737 -0.0591 -0.1521
 3165CC1    CC1 3165  10.282   5.245   0.898  0.4127  0.2285  0.0938
 3166NCO    NCO 3166  10.304   5.005   0.786 -0.4507 -0.0561 -0.2258
 3167NCO    NCO 3167  10.225   7.096   2.459 -0.2059  0.0908 -0.0361
 3168CC1    CC1 3168  10.028   6.933   2.493 -0.3302 -0.1217  0.1755
 3169CC1    CC1 3169   9.931   6.746   2.613 -0.1300 -0.2064  0.1687
 3170NCC    NCC 3170   9.820   6.530   2.726 -0.0328 -0.1240  0.1318
 3171CONH  CONH 3171   9.985   6.308   2.856 -0.2284  0.3950  0.3011
 3172CC1    CC1 3172  10.203   6.190   2.720  0.1467 -0.0691  0.2903
 3173CC1    CC1 3173   0.099   6.346   2.708 -0.2540  0.1144  0.2009
 3174CC1    CC1 3174   0.342   6.398   2.702  0.7462  0.1317  0.1053
 3175NCO    NCO 3175   0.376   6.600   2.801 -0.2777 -0.1437  0.3160
 3176CONH  CONH 3176   9.538   6.393   2.857  0.1189 -0.2583  0.3644
 3177CC1    CC1 3177   9.487   6.142   2.810  0.8265 -0.5047 -0.0032
 3178CC1    CC1 3178   9.313   6.063   2.926 -0.2476 -0.5280  0.2103
 3179CC1    CC1 3179   9.123   5.950   2.967  0.4177 -0.0970 -0.0495
 3180NCO    NCO 3180   9.024   5.686   2.994 -0.0439 -0.2835 -0.0300
 3181NCO    NCO 3181   3.328   2.310   8.154  0.1094 -0.1405  0.1954
 3182CC1    CC1 3182   3.444   2.153   8.408  0.1215 -0.4182  0.4023
 3183CC1    CC1 3183   3.447   2.194   8.614  0.0198 -0.6020  0.1740
 3184NCC    NCC 3184   3.500   2.435   8.824  0.0836 -0.1498  0.2386
 3185CONH  CONH 3185   3.505   2.466   9.151 -0.0512  0.1514  0.1698
 3186CC1    CC1 3186   3.735   2.422   9.311  0.0823  0.1413 -0.0943
 3187CC1    CC1 3187   3.783   2.293   9.376 -0.0334  0.2358  0.2040
 3188CC1    CC1 3188   3.916   2.166   9.517  0.5679 -0.2515  0.1477
 3189NCO    NCO 3189   4.148   2.346   9.687  0.0739 -0.2895 -0.2202
 3190CONH  CONH 3190   3.446   2.748   8.807 -0.2652 -0.4580 -0.0222
 3191CC1    CC1 3191   3.212   2.856   8.811 -0.2586  0.0009 -0.1480
 3192CC1    CC1 3192   3.053   3.039   8.804 -0.1493 -0.2028  0.3722
 3193CC1    CC1 3193   3.004   3.263   8.863 -0.2450 -0.6816 -0.1333
 3194NCO    NCO 3194   2.759   3.416   8.746  0.1639 -0.1632 -0.1529
 3195NCO    NCO 3195   5.341   0.881   8.884  0.2954 -0.4453 -0.1463
 3196CC1    CC1 3196   5.226   0.611   8.951  0.3299 -0.0229 -0.0488
 3197CC1    CC1 3197   5.026   0.592   8.932 -0.0717 -0.0330 -0.1369
 3198NCC    NCC 3198   4.850   0.386   8.839  0.2914  0.1965 -0.0086
 3199CONH  CONH 3199   4.834   0.111   8.621 -0.0518  0.1359 -0.5362
 3200CC1    CC1 3200   5.039   0.011   8.514 -0.1017  0.2362 -0.0420
 3201CC1    CC1 3201   5.098   0.045   8.307  0.0328 -0.1433 -0.1148
 3202CC1    CC1 3202   5.200   0.106   8.085  0.1589  0.1341  0.0253
 3203NCO    NCO 3203   5.386  10.283   7.986 -0.1316 -0.2782 -0.4055
 3204CONH  CONH 3204   4.545   0.265   8.853  0.1769  0.3460  0.0614
 3205CC1    CC1 3205   4.373   0.342   8.683 -0.5811  0.0584 -0.1256
 3206CC1    CC1 3206   4.440   0.603   8.647  0.4338  0.0082  0.0739
 3207CC1    CC1 3207   4.403   0.810   8.584 -0.5224  0.0391  0.0813
 3208NCO    NCO 3208   4.191   0.971   8.738  0.0254  0.1106  0.1324
 3209NCO    NCO 3209   1.454   8.845   8.028  0.0037  0.2339 -0.1574
 3210CC1    CC1 3210   1.524   8.815   7.797 -0.1872 -0.1436 -0.1533
 3211CC1    CC1 3211   1.599   9.030   7.657  0.2707  0.6197  0.2076
 3212NCC    NCC 3212   1.691   9.244   7.507  0.0693  0.0974 -0.1067
 3213CONH  CONH 3213   1.796   9.231   7.227 -0.4840 -0.0217  0.1635
 3214CC1    CC1 3214   2.045   9.174   7.176 -0.1357  0.2276 -0.2643
 3215CC1    CC1 3215   2.159   9.097   6.972  0.3911  0.3070  0.1983
 3216CC1    CC1 3216   2.226   9.014   6.765  0.0718 -0.7528  0.1723
 3217NCO    NCO 3217   2.103   9.150   6.542 -0.2434  0.4587  0.0829
 3218CONH  CONH 3218   1.931   9.469   7.521  0.2884  0.0257 -0.2057
 3219CC1    CC1 3219   1.968   9.667   7.322  0.1593 -0.0103 -0.3700
 3220CC1    CC1 3220   2.114   9.656   7.159  0.2026  0.1793  0.3581
 3221CC1    CC1 3221   2.299   9.707   7.014 -0.0303  0.3129 -0.6461
 3222NCO    NCO 3222   2.526   9.774   7.081 -0.2165 -0.0752  0.1827
 3223NCO    NCO 3223   7.662   0.263   4.338 -0.0187 -0.0251  0.1335
 3224CC1    CC1 3224   7.598   0.287   4.576 -0.2178  0.2631 -0.3575
 3225CC1    CC1 3225   7.473   0.158   4.693 -0.2929  0.1417 -0.4692
 3226NCC    NCC 3226   7.229   0.040   4.771 -0.1348  0.0594 -0.3963
 3227CONH  CONH 3227   6.950  10.285   4.643  0.3770  0.2765 -0.1937
 3228CC1    CC1 3228   6.720  10.162   4.789  0.0871  0.4101 -0.3020
 3229CC1    CC1 3229   6.510  10.207   4.727  0.1056  0.0784  0.2016
 3230CC1    CC1 3230   6.357  10.250   4.556  0.0133 -0.3349 -0.3754
 3231NCO    NCO 3231   6.236  10.060   4.362  0.1070  0.1041 -0.7348
 3232CONH  CONH 3232   7.094  10.263   5.024 -0.0408  0.1368  0.1135
 3233CC1    CC1 3233   7.018  10.016   5.039 -0.1899 -0.4615  0.3690
 3234CC1    CC1 3234   7.034   9.847   5.203 -0.2116  0.6038  0.1640
 3235CC1    CC1 3235   6.995   9.760   5.431 -0.0453 -0.0675  0.3213
 3236NCO    NCO 3236   7.109   9.811   5.629 -0.2647 -0.2308 -0.2602
 3237NCO    NCO 3237   9.572   8.917   9.484  0.2284 -0.2393 -0.2094
 3238CC1    CC1 3238   9.603   9.105   9.657  0.2299  0.6725  0.1585
 3239CC1    CC1 3239   9.668   9.086   9.895  0.0224  0.1408 -0.1950
 3240NCC    NCC 3240   9.693   9.102  10.124 -0.1454 -0.0226 -0.4133
 3241CONH  CONH 3241   9.849   8.939   0.008  0.2010 -0.2089  0.0929
 3242CC1    CC1 3242   9.918   9.035   0.244  0.1740 -0.2423 -0.2096
 3243CC1    CC1 3243  10.114   9.146   0.265 -0.5517  0.0586 -0.1320
 3244CC1    CC1 3244  10.276   9.272   0.321  0.1015 -0.1938 -0.5252
 3245NCO    NCO 3245   0.161   9.280   0.526  0.2149  0.2477  0.0434
 3246CONH  CONH 3246   9.524   9.251   0.012 -0.2103  0.1599  0.1223
 3247CC1    CC1 3247   9.639   9.293   0.265 -0.1076 -0.4347 -0.0478
 3248CC1    CC1 3248   9.810   9.422   0.274 -0.0161 -0.4875 -0.2418
 3249CC1    CC1 3249   9.942   9.609   0.225 -0.0573  0.1186 -0.3483
 3250NCO    NCO 3250  10.032   9.655   0.506 -0.0596 -0.2478  0.5882
 3251NCO    NCO 3251   9.221   5.842   5.639 -0.0298 -0.0618 -0.1864
 3252CC1    CC1 3252   9.086   5.742   5.410  0.3288  0.1547  0.8043
 3253CC1    CC1 3253   8.859   5.792   5.477  0.2489  0.1556  0.1005
 3254NCC    NCC 3254   8.655   5.661   5.536  0.3450  0.1192  0.2347
 3255CONH  CONH 3255   8.553   5.385   5.483 -0.1505 -0.0359 -0.2747
 3256CC1    CC1 3256   8.728   5.177   5.458  0.0467  0.1089  0.0379
 3257CC1    CC1 3257   8.857   5.122   5.293  0.1977  0.4392 -0.1053
 3258CC1    CC1 3258   8.895   5.030   5.093  0.3226 -0.2318 -0.0400
 3259NCO    NCO 3259   8.841   5.154   4.781 -0.2397 -0.3723  0.1821
 3260CONH  CONH 3260   8.478   5.613   5.824 -0.2252  0.3331 -0.1603
 3261CC1    CC1 3261   8.356   5.351   5.878 -0.0979  0.1406  0.1035
 3262CC1    CC1 3262   8.260   5.255   6.089 -0.0038 -0.0610 -0.1050
 3263CC1    CC1 3263   8.213   5.088   6.246  0.0051  0.2619  0.2948
 3264NCO    NCO 3264   8.373   4.864   6.112  0.1760  0.2423  0.4850
 3265NCO    NCO 3265   9.981   6.015   9.749 -0.0893 -0.0859  0.4185
 3266CC1    CC1 3266  10.034   6.246   9.917 -0.3064 -0.1507 -0.3133
 3267CC1    CC1 3267  10.180   6.187  10.076  0.1261 -0.7873 -0.2044
 3268NCC    NCC 3268  10.296   6.037  10.304  0.1071  0.0351  0.1689
 3269CONH  CONH 3269  10.278   5.986   0.293  0.2529  0.2461  0.3231
 3270CC1    CC1 3270   0.140   5.952   0.420 -0.3001 -0.4319  0.1071
 3271CC1    CC1 3271   0.334   5.825   0.418 -0.0280 -0.0169  0.5839
 3272CC1    CC1 3272   0.449   5.640   0.510  0.1654 -0.7827  0.4817
 3273NCO    NCO 3273   0.516   5.420   0.559  0.4351 -0.0491  0.3167
 3274CONH  CONH 3274   0.259   5.920   0.016 -0.0449  0.0024  0.5432
 3275CC1    CC1 3275   0.447   6.060   0.122 -0.0217 -0.3561 -0.0436
 3276CC1    CC1 3276   0.554   6.066   0.296 -0.3321  0.3187 -0.0641
 3277CC1    CC1 3277   0.624   5.974   0.510 -0.2073 -0.0107  0.1715
 3278NCO    NCO 3278   0.871   5.881   0.470 -0.1530  0.0810 -0.0285
 3279NCO    NCO 3279   6.760   4.591  10.238 -0.3197  0.1011 -0.0924
 3280CC1    CC1 3280   6.772   4.720   0.161  0.6163 -0.2600 -0.2853
 3281CC1    CC1 3281   6.579   4.836   0.188  0.3415  0.4655 -0.3586
 3282NCC    NCC 3282   6.457   5.050   0.320  0.6462 -0.2724  0.1365
 3283CONH  CONH 3283   6.119   5.140   0.343 -0.0151 -0.0422 -0.0442
 3284CC1    CC1 3284   5.932   5.154   0.094  0.1269  0.2643  0.0566
 3285CC1    CC1 3285   5.807   5.049   0.016  0.1314  0.0624 -0.0891
 3286CC1    CC1 3286   5.629   4.906   0.026  0.0205  0.0468 -0.3585
 3287NCO    NCO 3287   5.616   4.600  10.282  0.0383  0.1348  0.0550
 3288CONH  CONH 3288   6.474   5.192   0.611  0.4258  0.1027  0.2221
 3289CC1    CC1 3289   6.402   5.074   0.819 -0.5935  0.1316  0.1217
 3290CC1    CC1 3290   6.600   4.907   0.890  0.3925  0.5346 -0.0230
 3291CC1    CC1 3291   6.803   4.883   0.944 -0.0805 -0.1387 -0.3397
 3292NCO    NCO 3292   6.801   4.933   1.255 -0.0544 -0.4442  0.0116
 3293NCO    NCO 3293   4.571   8.199   2.142 -0.2108 -0.2726  0.0245
 3294CC1    CC1 3294   4.641   8.229   1.869 -0.1733  0.0912  0.3761
 3295CC1    CC1 3295   4.860   8.305   1.828  0.3960 -0.0744  0.7526
 3296NCC    NCC 3296   5.100   8.371   1.803  0.0945 -0.1822  0.2257
 3297CONH  CONH 3297   5.293   8.567   1.994 -0.0383  0.1535  0.0600
 3298CC1    CC1 3298   5.549   8.524   1.974 -0.1579 -0.4973 -0.1885
 3299CC1    CC1 3299   5.667   8.422   2.178  0.4506  0.4484  0.0358
 3300CC1    CC1 3300   5.809   8.374   2.346 -0.1794 -0.0941 -0.3261
 3301NCO    NCO 3301   5.707   8.467   2.614  0.2315  0.1171  0.4521
 3302CONH  CONH 3302   5.234   8.584   1.555 -0.1119  0.1567  0.2624
 3303CC1    CC1 3303   5.179   8.516   1.317 -0.0347 -0.5062  0.2297
 3304CC1    CC1 3304   5.033   8.396   1.168 -0.6257  0.3168  0.1344
 3305CC1    CC1 3305   4.861   8.395   1.000 -0.0901 -0.2124 -0.1204
 3306NCO    NCO 3306   4.799   8.137   0.881 -0.3507 -0.2190 -0.0476
 3307NCO    NCO 3307   9.233   6.516   5.074  0.2418  0.0242  0.4508
 3308CC1    CC1 3308   8.963   6.387   5.106 -0.0899  0.0174 -0.2139
 3309CC1    CC1 3309   8.930   6.134   5.089  0.5507  0.2595  0.4858
 3310NCC    NCC 3310   8.722   5.930   5.136 -0.1781  0.0456  0.6266
 3311CONH  CONH 3311   8.753   5.629   5.064  0.3165 -0.1445  0.1096
 3312CC1    CC1 3312   8.917   5.461   5.200 -0.0206  0.9144  0.0598
 3313CC1    CC1 3313   9.134   5.381   5.113  0.0352 -0.2028  0.3080
 3314CC1    CC1 3314   9.320   5.257   5.049  0.0841  0.3268  0.1980
 3315NCO    NCO 3315   9.639   5.340   5.005 -0.3439  0.2233  0.3498
 3316CONH  CONH 3316   8.416   5.898   5.137  0.0957  0.0068  0.0469
 3317CC1    CC1 3317   8.319   5.665   5.271 -0.3499  0.6357 -0.7355
 3318CC1    CC1 3318   8.193   5.446   5.220 -0.7116  0.1230 -0.2471
 3319CC1    CC1 3319   8.152   5.204   5.289 -0.1105 -0.3121  0.5571
 3320NCO    NCO 3320   7.872   5.210   5.355 -0.3456 -0.3146  0.0627
 3321W        W 3321   7.217   2.774   0.461  0.1877 -0.0073  0.0885
 3322W        W 3322   4.794   6.110   6.383  0.5452  0.1887  0.1774
 3323W        W 3323   2.083   7.457   0.042  0.0005 -0.1644 -0.0788
 3324W        W 3324   9.195   0.240  10.255 -0.1232  0.1319  0.0890
 3325W        W 3325   0.747   2.054   9.507 -0.0690  0.2126 -0.0524
 3326W        W 3326   1.409   6.906   6.847  0.2495 -0.0125 -0.6179
 3327W        W 3327   1.449   5.541   4.609 -0.1881 -0.1864  0.3130
 3328W        W 3328   6.782   9.680   6.604  0.1634  0.2303 -0.1063
 3329W        W 3329   2.155   3.112   2.315 -0.0188 -0.0475  0.4325
 3330W        W 3330   5.813   1.986   2.411 -0.1955 -0.3341  0.2872
 3331W        W 3331   3.098   6.372   5.729  0.1055  0.1267  0.1598
 3332W        W 3332   0.685   4.063   6.530  0.0625 -0.2034  0.1281
 3333W        W 3333   4.890   3.752   6.955  0.0246  0.1921 -0.1855
 3334W        W 3334   5.525   9.706   7.477  0.1481 -0.0824 -0.3260
 3335W        W 3335   2.556  10.056   0.189  0.0519 -0.2024  0.0849
 3336W        W 3336   0.123   9.932   8.466 -0.0570  0.1149 -0.0563
 3337W        W 3337   0.526   9.613   0.384  0.0926 -0.1226 -0.0058
 3338W        W 3338   5.396   8.121   9.997 -0.1569  0.1952  0.1665
 3339W        W 3339   0.080   2.138   7.951 -0.1092  0.0055  0.2152
 3340W        W 3340   9.861   5.031   9.723 -0.0537  0.0148 -0.0369
 3341W        W 3341   3.848   8.683   0.201 -0.1803  0.6650  0.0038
 3342W        W 3342  10.143   9.142   9.040 -0.0998  0.3726  0.0721
 3343W        W 3343   1.892   2.123   8.040  0.0617 -0.3569  0.2017
 3344W        W 3344   7.526   8.123   5.108  0.3439  0.0967 -0.1040
 3345W        W 3345   2.791   7.483   4.252 -0.0939  0.1106  0.0126
 3346W        W 3346   0.490   9.691   3.016 -0.2065 -0.4741 -0.0818
 3347W        W 3347   0.453   5.059   2.407  0.1608  0.1230  0.2187
 3348W        W 3348   0.572   1.850   0.611  0.2692  0.0203  0.0802
 3349W        W 3349   6.402   3.367   1.894 -0.3293  0.1215  0.1862
 3350W        W 3350   9.009   0.401   8.332  0.0830 -0.0186  0.1912
 3351W        W 3351  10.002   2.922   5.032  0.1560 -0.1449  0.0438
 3352W        W 3352   5.254   9.182   5.628  0.1662 -0.0308 -0.2147
 3353W        W 3353   0.553   3.535   9.260 -0.0607  0.0090  0.4439
 3354W        W 3354   6.748   0.716   0.784 -0.0108 -0.1030 -0.1022
 3355W        W 3355   3.834   9.315   6.072 -0.0305  0.0723  0.1846
 3356W        W 3356   2.306   5.821   7.672  0.2933 -0.1865  0.1250
 3357W        W 3357   7.043   5.177   8.625 -0.0928  0.0143 -0.3867
 3358W        W 3358   5.115  10.082   4.164  0.1595 -0.0547  0.2079
 3359W        W 3359   9.615   6.265   8.881  0.1980  0.1434 -0.1670
 3360W        W 3360   3.870   4.030   7.632  0.3675  0.0057  0.3738
 3361W        W 3361   5.265   3.607   1.724  0.0009 -0.1494 -0.0696
 3362W        W 3362   1.653   2.422   8.356  0.1539  0.3447 -0.4561
 3363W        W 3363   7.655   0.332  10.017 -0.0124  0.0490 -0.0497
 3364W        W 3364   9.851   5.691   6.179  0.0518 -0.0145  0.2982
 3365W        W 3365   9.939   4.507   5.735  0.2493 -0.2137  0.2947
 3366W        W 3366   7.016   0.156   2.895 -0.1232  0.3836  0.0717
 3367W        W 3367   8.284  10.270   0.228  0.1738 -0.5730 -0.2724
 3368W        W 3368   6.064   2.943   8.053 -0.4030 -0.2454 -0.1121
 3369W        W 3369   6.032   9.045   2.864 -0.1680  0.2122  0.1105
 3370W        W 3370   7.057   7.081   4.288 -0.0885 -0.1661 -0.1555
 3371W        W 3371   5.672   3.610   9.497  0.1348  0.1507 -0.0520
 3372W        W 3372   5.784   3.440   1.884 -0.0131 -0.1516  0.0966
 3373W        W 3373   1.218   6.152   5.537 -0.2526 -0.1259  0.1565
 3374W        W 3374   5.592   4.025   1.438  0.0797 -0.1917  0.1216
 3375W        W 3375   3.958   3.019   1.057  0.2058 -0.3054  0.2011
 3376W        W 3376   3.930   7.343   2.803  0.0111 -0.0664 -0.2019
 3377W        W 3377   9.008   6.054   4.726  0.0308 -0.2325 -0.0736
 3378W        W 3378   3.790   7.870   5.199 -0.2082  0.1996  0.2567
 3379W        W 3379   4.691   1.958   0.552  0.2777 -0.0823 -0.0399
 3380W        W 3380   1.666   6.608   3.010 -0.2497  0.2149  0.0609
 3381W        W 3381   6.863   5.013   0.483  0.0513 -0.0839  0.0335
 3382W        W 3382   5.107   8.181   4.750 -0.0233  0.0004  0.1604
 3383W        W 3383   2.842   0.616   2.947 -0.1159  0.2076  0.3207
 3384W        W 3384  10.249   8.435   7.402  0.2028 -0.0730 -0.1597
 3385W        W 3385   7.188   8.476   1.274  0.1277  0.1344 -0.0334
 3386W        W 3386   5.555   1.812   3.352  0.1915 -0.0335  0.0111
 3387W        W 3387   0.233   9.001   9.482 -0.2639  0.1367  0.0347
 3388W        W 3388   3.220  10.299   5.363  0.1365  0.2235 -0.1664
 3389W        W 3389   0.384   8.665  10.262  0.2488 -0.3530  0.0633
 3390W        W 3390   7.872   0.669   9.688  0.1589 -0.3720  0.1598
 3391W        W 3391   5.640   2.974   4.778 -0.2370  0.2590 -0.2658
 3392W        W 3392   5.357   3.282   9.729 -0.3454 -0.2655  0.3356
 3393W        W 3393   1.871   9.681   5.143  0.2295  0.4986 -0.0901
 3394W        W 3394  10.294   2.921   0.871 -0.0417  0.0436  0.1476
 3395W        W 3395   1.264   0.839   0.554  0.1423  0.0359 -0.1446
 3396W        W 3396   4.633   1.735   6.574 -0.3926 -0.3295  0.2029
 3397W        W 3397   2.192   2.803   4.870 -0.1679 -0.0535  0.2885
 3398W        W 3398   1.596   1.932   4.659  0.1935 -0.0007 -0.0435
 3399W        W 3399   2.977   3.110   6.435 -0.1872 -0.0881  0.0446
 3400W        W 3400   1.787   0.368   7.904  0.0339 -0.0464  0.3040
 3401W        W 3401   3.144   4.925   7.733 -0.1583  0.1753 -0.0376
 3402W        W 3402   2.873   8.591   6.597 -0.0171  0.3535 -0.2885
 3403W        W 3403   7.257   3.238   1.258 -0.0260  0.1165  0.2455
 3404W        W 3404   8.240   3.195   4.577  0.1155 -0.2962  0.3941
 3405W        W 3405   2.825   9.704   3.146 -0.0488 -0.2523  0.1251
 3406W        W 3406   1.764   8.548   1.579 -0.0102 -0.0790  0.1510
 3407W        W 3407   9.360   3.922   1.574  0.0490  0.0550 -0.1041
 3408W        W 3408   8.413   7.924   3.929 -0.1981 -0.0141 -0.0554
 3409W        W 3409   3.856   3.089   2.037  0.1378 -0.1901  0.0147
 3410W        W 3410   9.671   6.225  10.033 -0.1698  0.2377  0.2839
 3411W        W 3411   2.810   7.756   9.738  0.0470  0.1836 -0.0535
 3412W        W 3412   8.726   4.650   1.081  0.0686  0.1078 -0.3090
 3413W        W 3413   4.913   6.986   3.699  0.0379 -0.2230  0.0854
 3414W        W 3414   8.814   7.217   8.997  0.0176 -0.1411  0.4485
 3415W        W 3415   4.704   9.418   3.226  0.3004 -0.4220  0.0755
 3416W        W 3416   8.878   9.792   5.958  0.0654  0.2204 -0.0381
 3417W        W 3417   7.093   8.333   9.894 -0.1940  0.1191  0.0842
 3418W        W 3418   9.293   6.134   7.655  0.0614 -0.0878  0.1292
 3419W        W 3419   0.304   2.437   3.577 -0.0742 -0.0925  0.0802
 3420W        W 3420  10.258   1.051   0.328 -0.3165 -0.1984 -0.0198
 3421W        W 3421   5.095   5.914   3.010  0.0173  0.3535 -0.0825
 3422W        W 3422   9.699   7.990   9.501  0.0928  0.2939 -0.2595
 3423W        W 3423   9.205   5.162   6.157 -0.1284 -0.1834  0.1972
 3424W        W 3424   5.481   9.443   1.911 -0.0139  0.3143 -0.2913
 3425W        W 3425   2.276   0.169   0.334 -0.3065  0.0642  0.1978
 3426W        W 3426   3.562   0.329   2.700  0.1087  0.0116 -0.0051
 3427W        W 3427   3.020   9.733   8.776  0.1523 -0.1644 -0.0410
 3428W        W 3428   6.176   9.950   1.196 -0.0566  0.1659 -0.1988
 3429W        W 3429   6.922   7.863   3.960  0.1308 -0.0313 -0.2627
 3430W        W 3430   4.790   4.266   9.870 -0.1392  0.0477 -0.2795
 3431W        W 3431   7.416   4.666   9.557  0.2754  0.2169  0.3872
 3432W        W 3432   5.073   9.985   7.789  0.1185 -0.1220  0.0777
 3433W        W 3433   0.453   7.732   3.735  0.1631 -0.2087  0.1956
 3434W        W 3434   1.944   4.756   4.362  0.0465  0.0902 -0.0783
 3435W        W 3435   8.245   0.879   7.024 -0.0007  0.0817  0.1472
 3436W        W 3436   5.116   9.067   2.006 -0.2097 -0.2343  0.0913
 3437W        W 3437   7.113   7.813   9.894  0.0663 -0.0255  0.0515
 3438W        W 3438   8.878   6.619   4.677 -0.0739  0.1660  0.1267
 3439W        W 3439   8.171   7.779   6.871  0.1688  0.0001 -0.2432
 3440W        W 3440   3.531   3.339   1.044  0.1411  0.2728 -0.0114
 3441W        W 3441   2.624   5.704   7.980 -0.1416 -0.2423  0.0350
 3442W        W 3442   9.183   5.129   7.217 -0.1575 -0.0403 -0.1891
 3443W        W 3443   8.252   2.824   3.797 -0.2160 -0.0882  0.0716
 3444W        W 3444   1.081   7.414   9.282 -0.3321 -0.2067 -0.0934
 3445W        W 3445   7.393   8.323   5.848 -0.2219 -0.4222 -0.1198
 3446W        W 3446   2.567   0.657   0.076  0.1977 -0.0697 -0.1493
 3447W        W 3447   3.847   7.154   8.155  0.2641  0.0777 -0.0951
 3448W        W 3448   9.235   4.606   9.651  0.0533 -0.2064 -0.0504
 3449W        W 3449   7.390   0.283   5.091  0.0244 -0.1039  0.2024
 3450W        W 3450   7.572   4.116   0.892  0.0165 -0.4367  0.1205
 3451W        W 3451   6.376   7.344   0.715 -0.1072  0.1313 -0.0531
 3452W        W 3452   8.989   6.954   8.190  0.0230 -0.1871  0.3577
 3453W        W 3453   4.463   8.842   8.168 -0.2888 -0.1303 -0.0955
 3454W        W 3454   3.935   9.434   2.018 -0.0663  0.1747 -0.0983
 3455W        W 3455   0.546   0.634   2.150 -0.0945 -0.0773 -0.2021
 3456W        W 3456   1.589   9.491   0.747 -0.0287 -0.2149 -0.1467
 3457W        W 3457   9.408   3.554   0.617  0.0329 -0.2107 -0.3575
 3458W        W 3458   0.667  10.105   6.609 -0.2150  0.0371  0.0286
 3459W        W 3459   0.676   8.718   4.038  0.0766  0.1358  0.2513
 3460W        W 3460   5.902   0.144   3.092  0.1790  0.3164 -0.0577
 3461W        W 3461   0.874   6.269   1.680 -0.3031  0.0370  0.1339
 3462W        W 3462   7.152   6.888  10.251  0.0476  0.2368  0.3484
 3463W        W 3463   9.209   8.206   4.480 -0.2979  0.2852 -0.2335
 3464W        W 3464   7.335   5.947   9.764 -0.3245  0.2839 -0.0303
 3465W        W 3465   5.586   8.937   2.005 -0.0378 -0.0681  0.0491
 3466W        W 3466   7.604   0.652   3.457  0.0194  0.3505  0.3815
 3467W        W 3467   0.194   7.433   1.187 -0.3177  0.1452  0.0359
 3468W        W 3468   1.570   1.618   7.267 -0.1242  0.0692  0.1093
 3469W        W 3469  10.267   3.282   3.851  0.1018  0.0691 -0.4538
 3470W        W 3470   6.219   4.787   2.950  0.0656  0.2879 -0.2240
 3471W        W 3471   9.841   3.285   5.567  0.1337  0.0814  0.0732
 3472W        W 3472   6.404   0.613   0.450 -0.1211  0.0778 -0.0227
 3473W        W 3473   3.607   6.897   0.706 -0.0064  0.0636 -0.0718
 3474W        W 3474   0.533   4.430   6.165 -0.1973 -0.3652 -0.0977
 3475W        W 3475   9.863   9.004   6.461 -0.0391  0.1989  0.0553
 3476W        W 3476   2.402   8.932   2.961 -0.3782 -0.0104  0.0697
 3477W        W 3477   6.170   3.002   0.612 -0.0885  0.0427 -0.0670
 3478W        W 3478   9.522   9.440   0.692  0.3052  0.1032 -0.0783
 3479W        W 3479   1.323   7.979  10.159 -0.1837  0.0633  0.1579
 3480W        W 3480   7.250   2.067   7.518  0.1368  0.3103  0.1276
 3481W        W 3481   0.745   6.551   2.512  0.0554 -0.0344 -0.0753
 3482W        W 3482   3.456   5.428  10.190 -0.1905 -0.3640 -0.4306
 3483W        W 3483   7.865   7.580   9.002 -0.1042 -0.6141 -0.1475
 3484W        W 3484   2.410   2.733   8.337  0.3284  0.0929  0.0539
 3485W        W 3485   7.785   7.755   2.541 -0.0456  0.2683 -0.2278
 3486W        W 3486   0.441  10.205   4.428  0.0946  0.1527 -0.0925
 3487W        W 3487   8.538   7.407   1.745 -0.0020 -0.0710  0.1157
 3488W        W 3488   1.451   4.187   9.455  0.0384 -0.0075  0.0356
 3489W        W 3489   0.145   4.723   8.773  0.1723  0.0527 -0.2843
 3490W        W 3490   2.364   4.316   8.385 -0.1794 -0.1226  0.0065
 3491W        W 3491   3.979   8.463   9.299  0.2026 -0.0288 -0.0903
 3492W        W 3492   8.193   2.187   4.081  0.3012 -0.2015  0.3802
 3493W        W 3493   2.295   7.310   6.159 -0.1503  0.0811 -0.2951
 3494W        W 3494   8.196   9.515   4.950  0.1808  0.0428 -0.0247
 3495W        W 3495   3.169   5.075   2.038 -0.0131  0.0523 -0.3501
 3496W        W 3496   9.413   1.263   4.222 -0.0040 -0.3024 -0.3644
 3497W        W 3497   3.945   8.878   8.964 -0.0929 -0.2997 -0.3603
 3498W        W 3498   2.728   4.325   4.308 -0.0945 -0.0546 -0.0251
 3499W        W 3499   1.677   0.025   9.463 -0.0783 -0.1395  0.0465
 3500W        W 3500   1.137   6.091   0.799 -0.0165 -0.0157  0.0517
 3501W        W 3501   1.701   9.546   3.847  0.1789 -0.2022 -0.0295
 3502W        W 3502   0.981   7.859   0.192  0.1775  0.1027 -0.5066
 3503W        W 3503   6.225   6.894   5.289 -0.2252 -0.0706 -0.0021
 3504W        W 3504   0.759   4.885   6.002 -0.0452 -0.0039 -0.0338
 3505W        W 3505   6.351   0.812   4.588  0.3528 -0.0419 -0.0606
 3506W        W 3506   4.366   7.375   0.725  0.4751 -0.3065  0.2933
 3507W        W 3507   3.080   1.921   8.202 -0.0213 -0.0659 -0.0282
 3508W        W 3508   8.507   5.402   6.851 -0.1005  0.0028 -0.3711
 3509W        W 3509   8.216   7.924   7.360  0.2306 -0.0776 -0.1492
 3510W        W 3510   6.639  10.131   7.259 -0.1757  0.2462 -0.0901
 3511W        W 3511   7.857   6.032   9.478  0.3167  0.1313 -0.1458
 3512W        W 3512   2.264   4.818   9.042 -0.0999  0.1894 -0.1998
 3513W        W 3513   4.903   3.505   9.730  0.1540 -0.0966 -0.1047
 3514W        W 3514   0.248   2.134   1.454  0.0739 -0.0541  0.1012
 3515W        W 3515   1.318   6.975   8.310  0.0589 -0.0278  0.2395
 3516W        W 3516   4.134   9.216   4.432 -0.1340 -0.1083 -0.1051
 3517W        W 3517   9.375   6.022   3.378 -0.0746  0.0133  0.0273
 3518W        W 3518   0.639   7.240   1.220  0.1385  0.0667 -0.1623
 3519W        W 3519   5.334   3.167   3.989 -0.3797 -0.1805 -0.0150
 3520W        W 3520   8.228   0.154   5.687  0.2087 -0.1104  0.1523
 3521W        W 3521   7.621   0.617   4.809 -0.1717  0.4371 -0.1064
 3522W        W 3522   9.556  10.019   2.835  0.0040  0.2402 -0.0967
 3523W        W 3523   9.287   8.819   1.638 -0.0907  0.1663 -0.1414
 3524W        W 3524   0.356   2.452   7.648  0.4396 -0.1167 -0.3528
 3525W        W 3525   0.035   9.484   4.161 -0.0607 -0.1443  0.0513
 3526W        W 3526   9.277   5.608   7.380  0.2344 -0.0132 -0.1255
 3527W        W 3527   5.707   9.466   0.458  0.1296  0.0642 -0.0174
 3528W        W 3528   4.349   3.198   5.325 -0.2661  0.2306  0.0434
 3529W        W 3529   8.622   8.734   2.137 -0.1769  0.2000  0.0888
 3530W        W 3530   7.658   3.693   2.399  0.1955 -0.0207  0.0577
 3531W        W 3531   9.251   7.146   9.281  0.0952  0.2248  0.1596
 3532W        W 3532   4.899   1.905   4.789 -0.1728 -0.1432 -0.1319
 3533W        W 3533   4.787   1.667   5.224 -0.0059  0.2112  0.1197
 3534W        W 3534   3.585   1.260   8.649 -0.1216  0.0025  0.1272
 3535W        W 3535   7.813   4.430   3.859 -0.0539 -0.1207 -0.4178
 3536W        W 3536   9.388   5.381   5.490  0.1269  0.3053 -0.0909
 3537W        W 3537   8.833   0.472   7.883  0.2201 -0.1608 -0.0580
 3538W        W 3538   4.656   9.739   5.024 -0.3538 -0.0878  0.1150
 3539W        W 3539   2.950   2.745   6.087  0.2141 -0.1476  0.2064
 3540W        W 3540   0.221   9.646   3.663 -0.0832 -0.0146  0.3198
 3541W        W 3541   2.720   9.298   2.271 -0.0063  0.0031 -0.0635
 3542W        W 3542   9.650   0.576  10.001 -0.3673  0.1441 -0.3573
 3543W        W 3543   5.617   7.338   5.931 -0.1394 -0.0469 -0.2152
 3544W        W 3544  10.308   7.907   9.533 -0.4621 -0.2288  0.1408
 3545W        W 3545   3.575   9.373   4.040 -0.1438  0.1122  0.0189
 3546W        W 3546   0.379   9.954   0.738  0.0948  0.3050  0.1401
 3547W        W 3547   3.340   1.925   4.467  0.0198 -0.3153 -0.1156
 3548W        W 3548   5.278   0.244   5.389  0.0372 -0.1729 -0.0884
 3549W        W 3549   3.246   8.693   1.820 -0.2278  0.0881 -0.1752
 3550W        W 3550  10.020   6.634   9.395  0.1733 -0.1444 -0.1447
 3551W        W 3551   8.339   6.060   4.049  0.3767 -0.1743  0.1590
 3552W        W 3552   5.338   8.040   5.725  0.0776  0.0627  0.0607
 3553W        W 3553  10.069   7.940   1.622 -0.3314  0.1969  0.0923
 3554W        W 3554   5.590   7.885   9.209 -0.1411 -0.0702  0.0226
 3555W        W 3555   3.918   6.662   7.168  0.0569  0.1934  0.0128
 3556W        W 3556   3.544   7.880   7.459 -0.0762 -0.2838 -0.2594
 3557W        W 3557   1.504   4.951   4.075 -0.0609  0.2281  0.0757
 3558W        W 3558   1.556   0.408   5.323 -0.1338 -0.1798  0.1682
 3559W        W 3559   5.659   9.736   2.784  0.0474  0.0547  0.1336
 3560W        W 3560   8.466   4.564   8.089 -0.4181  0.1925  0.1594
 3561W        W 3561   2.915   9.656   2.015 -0.0357 -0.0316  0.0432
 3562W        W 3562   3.280   1.632   2.188 -0.0274 -0.2792  0.1702
 3563W        W 3563   5.706   8.282   3.956 -0.1305 -0.0126 -0.1251
 3564W        W 3564   1.395   7.136   2.300  0.0300  0.3130 -0.2300
 3565W        W 3565   0.068   5.759   6.367  0.0839 -0.1510  0.1208
 3566W        W 3566   5.499   9.128   4.265 -0.0044 -0.0794 -0.0547
 3567W        W 3567   6.950   8.819   2.524  0.1723 -0.0363 -0.2053
 3568W        W 3568   9.369   3.313   5.889 -0.0684 -0.1308 -0.2244
 3569W        W 3569   0.378   9.263   3.922 -0.4681  0.0587 -0.0849
 3570W        W 3570   6.438   4.466   9.718 -0.1259 -0.0345 -0.0647
 3571W        W 3571   0.787   1.562   2.597  0.2789  0.3161  0.1275
 3572W        W 3572  10.106   8.307   2.072  0.0516 -0.3486  0.0400
 3573W        W 3573  10.287   1.956   3.184 -0.2568  0.1105  0.2589
 3574W        W 3574   9.668   0.222   3.347 -0.1775 -0.0944  0.0296
 3575W        W 3575   0.915   2.356   9.114 -0.0465 -0.2456 -0.1274
 3576W        W 3576   4.054   7.390   6.367 -0.2224 -0.1412  0.3152
 3577W        W 3577   6.641   5.803   6.209  0.0605 -0.1537 -0.1396
 3578W        W 3578   0.154   8.581   2.235 -0.2886  0.2425 -0.0199
 3579W        W 3579   6.532   8.868   4.773  0.1468  0.1091  0.0684
 3580W        W 3580   4.074   1.372   4.755  0.2015  0.0391 -0.0112
 3581W        W 3581   4.351   2.297   0.627 -0.0148  0.0334 -0.2687
 3582W        W 3582   5.903   7.436   0.882 -0.1887 -0.0655  0.0187
 3583W        W 3583   5.203   3.611   9.327  0.0250  0.0829 -0.0784
 3584W        W 3584   8.101   3.081   9.839 -0.0700 -0.4048  0.0738
 3585W        W 3585   0.851   3.132   1.341  0.1051 -0.3169 -0.0038
 3586W        W 3586   6.856   7.319   2.592 -0.0799 -0.0758  0.0977
 3587W        W 3587   9.723   4.073   5.459  0.4221 -0.0982  0.3209
 3588W        W 3588   4.332   6.213   8.897  0.2950  0.1546 -0.0578
 3589W        W 3589   2.471   0.068   2.264  0.1354  0.1573 -0.2664
 3590W        W 3590   8.782   6.741   2.812  0.1790  0.5635 -0.1325
 3591W        W 3591   5.420   9.707   3.251 -0.0078 -0.0316  0.0405
 3592W        W 3592   0.908   8.365   1.295  0.3857 -0.0935 -0.0607
 3593W        W 3593   9.132   2.819   6.293 -0.0464  0.0334  0.1092
 3594W        W 3594   7.734   3.321   7.676 -0.0591 -0.1939 -0.2279
 3595W        W 3595   7.655   5.160   2.453  0.1187  0.0437  0.0591
 3596W        W 3596   1.390   2.871   6.700 -0.1724 -0.3165  0.0570
 3597W        W 3597   3.535   8.685   1.350  0.0385  0.1005  0.0622
 3598W        W 3598   1.307   1.613   4.941 -0.1882  0.1489 -0.2626
 3599W        W 3599   6.529   7.308   5.381  0.0081  0.0462 -0.1576
 3600W        W 3600   1.595   9.137   1.149  0.2768 -0.0045 -0.0846
 3601W        W 3601   6.655   7.842   0.641 -0.2404 -0.0246 -0.1401
 3602W        W 3602   0.214   4.404   6.835  0.1060  0.0329  0.1533
 3603W        W 3603   1.549   9.018   9.394 -0.0637  0.2586  0.3096
 3604W        W 3604   7.162   5.966   3.821 -0.1238 -0.1301 -0.0137
 3605W        W 3605   9.092   3.233   4.532  0.2989  0.0613 -0.1438
 3606W        W 3606   3.250   4.810   2.492  0.1117  0.0184 -0.0511
 3607W        W 3607   8.520   1.002   6.165  0.1737  0.1372 -0.2380
 3608W        W 3608   6.841   2.548   5.507  0.2406 -0.0019 -0.1163
 3609W        W 3609   9.841   6.775   4.199 -0.0702 -0.0072  0.0698
 3610W        W 3610   1.621   0.867   5.478  0.2188  0.1454  0.2642
 3611W        W 3611   0.006   6.046   7.222  0.0158  0.1364  0.0739
 3612W        W 3612   0.517   4.224   4.833 -0.0853 -0.0843  0.0263
 3613W        W 3613   4.349   5.134   3.503 -0.1612  0.1298 -0.2202
 3614W        W 3614   9.326   5.886   1.338 -0.3265 -0.0550 -0.3116
 3615W        W 3615   1.283   3.705   9.195 -0.1592  0.0979  0.0204
 3616W        W 3616   3.132   3.152   3.654 -0.1843 -0.2821 -0.1202
 3617W        W 3617   5.638   0.583   5.233 -0.1179 -0.2407 -0.2167
 3618W        W 3618   4.811   6.173   9.438  0.1874  0.0642  0.0816
 3619W        W 3619   4.831   5.652   9.078 -0.1629 -0.1536  0.2406
 3620W        W 3620   0.182   7.808   4.302 -0.2738  0.3063  0.1945
 3621W        W 3621   2.455   4.168   2.478 -0.4534  0.1159 -0.1429
 3622W        W 3622  10.217   0.292   9.453  0.2152 -0.1757 -0.3795
 3623W        W 3623   9.158   4.401   7.453  0.1796  0.1200 -0.1112
 3624W        W 3624   1.075   4.325   6.220  0.0452 -0.0604 -0.0428
 3625W        W 3625   8.238   0.253   0.661 -0.1441  0.2605 -0.0699
 3626W        W 3626   0.217   3.862   0.590  0.1205  0.0338  0.3933
 3627W        W 3627   9.764   2.321   5.880 -0.2422 -0.0925  0.1655
 3628W        W 3628   0.438   8.062   6.946 -0.0115 -0.2236  0.1184
 3629W        W 3629   6.579   3.998   6.010 -0.0891 -0.1166  0.1983
 3630W        W 3630   3.040   9.121   8.926  0.1284  0.0173  0.1374
 3631W        W 3631   5.866   9.603   7.078  0.2224  0.0485  0.1060
 3632W        W 3632   6.678   6.239   0.787 -0.1885  0.0923 -0.1933
 3633W        W 3633   8.659   3.511   7.999 -0.0914  0.2718 -0.0536
 3634W        W 3634   0.365   7.172   5.841 -0.1275 -0.2079  0.0490
 3635W        W 3635   0.844   1.521   1.815 -0.1210  0.0108  0.1766
 3636W        W 3636   4.940   9.862   3.249  0.1691  0.0872 -0.1227
 3637W        W 3637   5.715   8.428   0.938  0.4819 -0.1088 -0.2831
 3638W        W 3638   5.387   4.116   1.908  0.1069 -0.0943 -0.0490
 3639W        W 3639   1.448   6.593   2.545  0.1253  0.1217 -0.1009
 3640W        W 3640   6.191   8.054   0.648 -0.3589 -0.1749  0.0642
 3641W        W 3641  10.335   4.633   7.248 -0.0735 -0.4508 -0.2055
 3642W        W 3642   9.698   3.307   9.513 -0.0231  0.2045 -0.1152
 3643W        W 3643   0.728   5.451   5.258 -0.2547  0.1205  0.1835
 3644W        W 3644   1.511   6.148   8.047  0.1185 -0.1324 -0.0281
 3645W        W 3645   6.049   9.738   4.666  0.0952 -0.0111  0.3364
 3646W        W 3646   1.183   0.036   5.358  0.3049 -0.1212  0.2462
 3647W        W 3647   2.002   3.375   8.550 -0.0053  0.2559 -0.0730
 3648W        W 3648   2.693   9.719   1.578  0.1691 -0.0923 -0.1665
 3649W        W 3649   1.346   4.580   0.057  0.2769 -0.1178 -0.2395
 3650W        W 3650   1.959   6.617   1.178 -0.0893  0.1445  0.1324
 3651W        W 3651   3.574   8.899   5.906  0.2840  0.3465  0.1661
 3652W        W 3652   2.851   8.361   4.723 -0.1487  0.0161 -0.2730
 3653W        W 3653   4.999   5.244   8.160  0.1610 -0.1744 -0.2195
 3654W        W 3654   8.824   9.059   7.220 -0.1292  0.2848 -0.1007
 3655W        W 3655   9.111   1.190   2.916  0.1085  0.0816 -0.0738
 3656W        W 3656   6.635   4.621   4.946 -0.2456 -0.2843  0.0438
 3657W        W 3657   7.760   2.827   7.787 -0.0422 -0.2015 -0.1119
 3658W        W 3658   6.939   2.036   6.517 -0.0995  0.0340 -0.0249
 3659W        W 3659   3.298   7.984   5.979 -0.0692 -0.3332  0.2966
 3660W        W 3660   0.577   8.078   0.975  0.2162 -0.2739  0.0883
 3661W        W 3661   9.106   3.692   7.820 -0.1140  0.3865  0.1810
 3662W        W 3662   2.505   3.920   1.458  0.1891  0.0438  0.2289
 3663W        W 3663   2.577   6.304   8.847  0.0226 -0.1442  0.2849
 3664W        W 3664   8.601   2.198   9.983 -0.0033  0.0491  0.0946
 3665W        W 3665   9.822   9.509   6.608  0.1541  0.2899  0.1322
 3666W        W 3666   3.378   0.855   5.500 -0.0763 -0.0841 -0.0106
 3667W        W 3667   2.039   2.977   7.389 -0.0955 -0.2068  0.0468
 3668W        W 3668   2.506   3.765   5.702  0.1428 -0.1282 -0.0824
 3669W        W 3669   9.148   9.132   4.487  0.1623 -0.0551  0.1427
 3670W        W 3670   1.154   4.509   2.666 -0.1044 -0.2344 -0.4940
 3671W        W 3671   0.166   0.365   2.369  0.1189  0.1925 -0.2241
 3672W        W 3672   6.398   1.174   5.006  0.1395 -0.5790  0.2173
 3673W        W 3673   6.828   7.588   8.460 -0.1285  0.2338 -0.0848
 3674W        W 3674   9.646   4.206   1.286  0.1437 -0.0698 -0.1724
 3675W        W 3675   9.915   0.866   0.022  0.0782  0.0826 -0.0416
 3676W        W 3676   3.077   2.254   3.002  0.1432  0.2632 -0.1231
 3677W        W 3677   8.332   0.362   1.583 -0.0298  0.1882 -0.1175
 3678W        W 3678   5.500   7.143   2.403 -0.1049  0.2596 -0.0409
 3679W        W 3679   9.715   5.064   1.620  0.0167  0.3150  0.0877
 3680W        W 3680   5.565   5.574   2.259 -0.0358 -0.1749 -0.1991
 3681W        W 3681   7.240   9.671   6.880 -0.3202 -0.0743 -0.4076
 3682W        W 3682   8.978   3.633   2.757  0.0743 -0.1368  0.3002
 3683W        W 3683   8.728   8.239   2.080 -0.3532  0.1075 -0.4299
 3684W        W 3684   3.632   4.122   2.317 -0.1421 -0.1760  0.2079
 3685W        W 3685   5.064   5.633   8.540  0.1494 -0.0564 -0.0416
 3686W        W 3686   4.667   8.411   0.448  0.2276  0.3487 -0.2093
 3687W        W 3687  10.044   0.489   6.634  0.0305  0.1194  0.0152
 3688W        W 3688   6.675   4.087   6.495 -0.4016  0.1145  0.1311
 3689W        W 3689  10.046   9.794   3.660 -0.1192  0.2772 -0.1214
 3690W        W 3690   0.595   6.215   2.090 -0.0851  0.1358 -0.0286
 3691W        W 3691   8.835  10.301   7.805 -0.1917  0.5579  0.1075
 3692W        W 3692   0.729   3.497   5.592 -0.0621 -0.3837  0.1631
 3693W        W 3693   4.588   3.648   5.512 -0.1381 -0.2290  0.0838
 3694W        W 3694   2.966   2.310   5.253  0.2939 -0.2818 -0.0278
 3695W        W 3695   5.610   3.230   3.271  0.0832  0.0438 -0.0978
 3696W        W 3696   2.531   2.844   7.615 -0.1220 -0.3380 -0.0444
 3697W        W 3697   1.058   0.758   3.224  0.3529 -0.1687  0.3315
 3698W        W 3698   3.950   3.678   9.136  0.0985 -0.0294 -0.3309
 3699W        W 3699   4.732   0.903   3.465  0.0514 -0.0184  0.0962
 3700W        W 3700   3.409   3.643   8.303 -0.2329  0.1380 -0.1750
 3701W        W 3701   6.858   4.746   8.346 -0.1177 -0.1179 -0.0025
 3702W        W 3702   2.685   0.931   2.094  0.2448  0.0110 -0.0823
 3703W        W 3703   3.663   1.016   7.407 -0.0989  0.2491  0.0016
 3704W        W 3704   4.515   1.933   3.446  0.0454 -0.0364  0.2116
 3705W        W 3705  10.060   3.886   2.507  0.2578  0.2837  0.0327
 3706W        W 3706   1.198   7.920   9.118 -0.2542 -0.1656 -0.0712
 3707W        W 3707   4.355   2.505   8.727 -0.1239  0.3015 -0.1150
 3708W        W 3708   5.009   6.530   3.823  0.5129 -0.0632 -0.0837
 3709W        W 3709   1.725   1.385   5.580 -0.0197 -0.0742  0.1975
 3710W        W 3710   0.816   3.542   6.974  0.1266 -0.0651  0.0278
 3711W        W 3711   8.912   0.484   7.364  0.2067  0.0604 -0.1044
 3712W        W 3712   4.461   3.676   9.460 -0.4127  0.1265 -0.1831
 3713W        W 3713   1.640   9.664   6.556 -0.0245 -0.1788 -0.1037
 3714W        W 3714   6.649   9.594   2.919  0.0636 -0.0792 -0.1535
 3715W        W 3715   5.179   3.338   0.710  0.3378  0.0709  0.0789
 3716W        W 3716   5.756   7.830   5.850 -0.2255 -0.0152  0.0239
 3717W        W 3717   8.450   3.030   2.310  0.0364 -0.0601 -0.1141
 3718W        W 3718   1.985   4.976   7.250  0.0504 -0.2511  0.4111
 3719W        W 3719   4.176   8.451   5.071 -0.0016  0.1248  0.1168
 3720W        W 3720   6.016   2.655   9.449  0.2416 -0.0866  0.1904
 3721W        W 3721   9.162   1.908   6.644  0.0389 -0.2457  0.1038
 3722W        W 3722   5.227   7.044   0.936  0.0114 -0.1853  0.0909
 3723W        W 3723   0.661   9.646   9.155  0.3657 -0.0030 -0.1677
 3724W        W 3724   9.075   3.905   7.363  0.0008  0.5123 -0.1532
 3725W        W 3725   7.751   1.988   9.794 -0.1115 -0.2126 -0.1255
 3726W        W 3726   0.958   2.302   8.180  0.0992  0.1383 -0.0162
 3727W        W 3727   8.505   1.196   4.637 -0.1763 -0.3532 -0.0885
 3728W        W 3728   4.858  10.334   9.068  0.5185  0.1106 -0.0409
 3729W        W 3729   5.632   7.801   5.311  0.2061 -0.3578  0.2597
 3730W        W 3730   8.968   4.723   7.908  0.1075  0.2424  0.0206
 3731W        W 3731   7.907   9.673   5.634 -0.3252 -0.0128 -0.0081
 3732W        W 3732   9.981   4.801   4.446 -0.1464 -0.1880  0.0320
 3733W        W 3733  10.016   2.958   2.564  0.0720 -0.0333  0.0657
 3734W        W 3734  10.209   4.861   4.894 -0.3820 -0.2314  0.1671
 3735W        W 3735   5.194   7.165   7.210  0.0237  0.0313 -0.0368
 3736W        W 3736   5.319   8.753   2.412  0.0641  0.0589  0.1871
 3737W        W 3737   6.806   7.065   3.870 -0.1310 -0.0839  0.0451
 3738W        W 3738   5.374   3.552   6.827 -0.3097 -0.0409 -0.2638
 3739W        W 3739  10.314   3.638   6.323  0.0443  0.1706  0.0812
 3740W        W 3740   2.451   4.227   3.251 -0.0753  0.1154 -0.0171
 3741W        W 3741   9.553   9.092   1.127 -0.0104 -0.1792 -0.1614
 3742W        W 3742   0.754   1.839   9.985 -0.2037  0.2023 -0.0907
 3743W        W 3743   7.927   6.931   3.794 -0.2843 -0.0436  0.1338
 3744W        W 3744   2.292   1.430   6.859  0.1274  0.4089  0.0526
 3745W        W 3745   0.391  10.185   9.609  0.2706  0.2173 -0.0757
 3746W        W 3746   6.430   2.915   6.841 -0.0256 -0.1563 -0.0390
 3747W        W 3747   8.044   0.476   4.484  0.2323  0.3307 -0.0142
 3748W        W 3748   1.815   1.824   6.879 -0.1806  0.1926  0.1468
 3749W        W 3749   6.893   8.294   1.679 -0.2503  0.2129  0.1931
 3750W        W 3750   7.235   8.155   4.645  0.1479 -0.1973 -0.0286
 3751W        W 3751   6.783   3.420   6.692 -0.3151 -0.1204  0.2186
 3752W        W 3752   2.472   6.931   1.726  0.1719 -0.3346 -0.0997
 3753W        W 3753   4.427   1.877   4.946  0.4004  0.1641  0.1407
 3754W        W 3754  10.292   3.052   8.693  0.2736  0.3475 -0.1795
 3755W        W 3755   7.898   2.406   0.215  0.0869  0.0155 -0.0266
 3756W        W 3756   7.447   3.777   9.957  0.4787  0.0597  0.2479
 3757W        W 3757   2.762  10.110   6.791 -0.5386 -0.1991 -0.0706
 3758W        W 3758   5.518   1.311   1.002  0.0699 -0.3925  0.1463
 3759W        W 3759   0.653   0.854   2.879  0.0666  0.1529  0.2186
 3760W        W 3760   4.811   3.834   5.077 -0.3376  0.1831 -0.2346
 3761W        W 3761   9.832   7.264   7.986  0.2569 -0.1440 -0.0322
 3762W        W 3762   6.473   8.397   0.909  0.0413  0.1475 -0.1964
 3763W        W 3763   9.700   6.655   7.469 -0.1735  0.2125 -0.1353
 3764W        W 3764   0.381   1.626   5.439 -0.2811  0.1054 -0.1196
 3765W        W 3765   2.548   9.334   3.786 -0.1299  0.0675 -0.0118
 3766W        W 3766   0.455   6.489   6.553  0.1457 -0.2702 -0.1512
 3767W        W 3767   2.213   9.853   8.934 -0.1567  0.1253  0.1207
 3768W        W 3768   7.215   9.595   6.382  0.1411  0.4973  0.2517
 3769W        W 3769   3.989   9.740   3.397 -0.2466  0.2528 -0.2843
 3770W        W 3770   2.270   3.023   0.489  0.0600 -0.1323 -0.1098
 3771W        W 3771   9.278   8.584   6.078 -0.2165  0.1256  0.2749
 3772W        W 3772   1.928   4.059   8.161  0.0145 -0.1193 -0.0902
 3773W        W 3773   1.255   9.481   4.430 -0.2484  0.1640 -0.3147
 3774W        W 3774   9.840   8.653   7.101  0.1382 -0.0229 -0.3946
 3775W        W 3775   0.171   5.908   3.424  0.1292  0.0176 -0.2629
 3776W        W 3776   4.338   5.049   6.280 -0.0667  0.0335  0.1062
 3777W        W 3777   4.219   6.929  10.090  0.0491 -0.1956 -0.0306
 3778W        W 3778   0.244   0.363   3.816  0.0991 -0.3961 -0.0357
 3779W        W 3779   9.175   8.079   2.260  0.0275  0.1178  0.1645
 3780W        W 3780   8.817   8.127   9.899  0.1691  0.0353  0.1072
 3781W        W 3781   9.131   9.288   8.606 -0.0270 -0.2685 -0.0889
 3782W        W 3782   6.568   3.376   0.482  0.0574  0.1830  0.2274
 3783W        W 3783   5.141   4.636   9.888 -0.1612  0.1027  0.0301
 3784W        W 3784   5.741   8.842   5.606  0.0110  0.0439 -0.0839
 3785W        W 3785   7.725   2.354   2.822 -0.0428 -0.0967  0.1396
 3786W        W 3786   2.287   9.187   8.390 -0.0764  0.1994  0.0722
 3787W        W 3787   6.268   7.791   1.033  0.0415 -0.0456 -0.3281
 3788W        W 3788   0.087   7.342   3.583 -0.0198  0.0448  0.2626
 3789W        W 3789   8.420   3.647   6.634 -0.3176 -0.0089  0.0601
 3790W        W 3790   6.069   3.446   0.365 -0.2234  0.3950 -0.0888
 3791W        W 3791   6.121   7.302   8.728  0.2422  0.0755  0.3276
 3792W        W 3792   8.910   1.104   0.265  0.1745  0.0771  0.0696
 3793W        W 3793   4.169   7.778   2.615  0.0800  0.2378 -0.2846
 3794W        W 3794   0.898   0.711   4.076  0.0911  0.0655 -0.1762
 3795W        W 3795   8.895   3.476   0.831  0.2273 -0.1237  0.0601
 3796W        W 3796   3.246   9.796   9.574 -0.0700 -0.1195  0.0600
 3797W        W 3797   4.524   0.021   5.833 -0.1981 -0.0878 -0.1300
 3798W        W 3798   5.859   6.340   3.613 -0.0737  0.1532  0.1303
 3799W        W 3799   9.258   0.221   7.910 -0.2896 -0.0139  0.3278
 3800W        W 3800   1.234   7.192   0.066  0.0434 -0.3160  0.1012
 3801W        W 3801   7.330   5.965   0.103  0.1061 -0.2746  0.1178
 3802W        W 3802   0.988   5.988   8.080 -0.0908 -0.2256 -0.0570
 3803W        W 3803   1.198   0.815   5.201  0.1225  0.3864 -0.1736
 3804W        W 3804   7.250   6.630   4.249  0.0471 -0.4306 -0.1979
 3805W        W 3805   4.495   3.358   8.170  0.2576 -0.2291  0.1663
 3806W        W 3806   8.537   4.140   1.275 -0.0184 -0.1214 -0.1332
 3807W        W 3807   1.500   9.939   8.758  0.1893 -0.0727 -0.3444
 3808W        W 3808   2.574   7.999   1.042 -0.1911 -0.0963 -0.1185
 3809W        W 3809   3.808   1.046   9.552  0.3421  0.1548 -0.0423
 3810W        W 3810   3.493   5.918   8.857  0.0324 -0.2283  0.0553
 3811W        W 3811   9.033   7.664   2.452  0.0646  0.4519 -0.0877
 3812W        W 3812   3.123   6.222   1.352 -0.1235 -0.0093  0.0099
 3813W        W 3813   3.972   0.313   0.206 -0.1757 -0.1610  0.2453
 3814W        W 3814   1.865   6.361   8.412 -0.1145  0.1769  0.0750
 3815W        W 3815   9.774   8.560   4.973  0.1876 -0.2381  0.1310
 3816W        W 3816   6.974   5.338   5.159 -0.2130 -0.2295 -0.0245
 3817W        W 3817   7.797   9.012   4.113 -0.1360  0.4276 -0.3478
 3818W        W 3818  10.126   0.512   1.618  0.0296 -0.0740 -0.3081
 3819W        W 3819   9.291   6.051   8.257 -0.0912 -0.0314 -0.0493
 3820W        W 3820   2.547   4.272   7.373 -0.2762 -0.1018 -0.0408
 3821W        W 3821   7.647   7.924   8.687  0.1613 -0.1115 -0.0320
 3822W        W 3822   0.488  10.032   3.379 -0.1096 -0.0609 -0.2188
 3823W        W 3823   0.074   7.447   1.668  0.1876  0.0950  0.0709
 3824W        W 3824   3.323   6.245  10.064  0.1027  0.1384  0.0089
 3825W        W 3825   4.917   9.034   8.162  0.1208  0.1025  0.1435
 3826W        W 3826   4.818   7.359   2.042  0.3470 -0.0235 -0.3335
 3827W        W 3827   2.988   7.470   7.742 -0.2236  0.2108  0.1872
 3828W        W 3828   5.181   3.547   4.818 -0.2581 -0.1076 -0.1123
 3829W        W 3829   2.670  10.029   8.938  0.1357 -0.0200 -0.0662
 3830W        W 3830   9.243   0.232   1.248  0.2044  0.1273 -0.0043
 3831W        W 3831   0.713   3.510   1.739 -0.2589  0.0812  0.2750
 3832W        W 3832   2.725   5.736   8.738 -0.2401  0.0593 -0.2493
 3833W        W 3833   4.395   3.568   0.175  0.0776 -0.1289  0.3122
 3834W        W 3834   7.843   0.165   3.458 -0.0770 -0.0370 -0.3910
 3835W        W 3835   5.290   0.352   3.758 -0.4615  0.0279  0.0544
 3836W        W 3836   5.569   1.479   4.706  0.0904  0.0822  0.1641
 3837W        W 3837   2.836   4.676   8.007  0.2064 -0.1090  0.2117
 3838W        W 3838   4.149   2.668   4.816  0.2979 -0.1861  0.0790
 3839W        W 3839   6.319   9.566   7.295  0.0637 -0.0254 -0.1400
 3840W        W 3840   7.575   1.196   0.741 -0.2631 -0.0799 -0.2523
 3841W        W 3841   7.011   1.733   3.214 -0.4077  0.0939 -0.3956
 3842W        W 3842   6.474   3.155   2.651  0.0565  0.1849 -0.3234
 3843W        W 3843   8.533   1.453  10.240 -0.0704  0.2616  0.0472
 3844W        W 3844   0.770   8.271   4.991  0.1108 -0.0213  0.1559
 3845W        W 3845   4.106   8.817   5.832 -0.0099 -0.1580 -0.0282
 3846W        W 3846   3.193   3.474   2.436 -0.0445 -0.1477  0.1921
 3847W        W 3847   3.619   8.549   3.585  0.0827  0.0480 -0.1291
 3848W        W 3848   5.370   5.988   7.381  0.0369  0.0020  0.0578
 3849W        W 3849   7.175   8.265   9.426  0.0470 -0.0916 -0.2813
 3850W        W 3850   4.508   4.749   3.009  0.0104 -0.1029  0.3620
 3851W        W 3851   9.530   3.559   4.486 -0.1961 -0.2132 -0.1720
 3852W        W 3852   5.035   8.792   3.665 -0.1387  0.0887  0.2207
 3853W        W 3853   0.153   7.106   3.002 -0.1816 -0.1550 -0.0475
 3854W        W 3854   8.588   3.614   1.722  0.1062  0.1208  0.1473
 3855W        W 3855   7.156   3.502   9.586  0.1979  0.1913 -0.2142
 3856W        W 3856   4.061   3.940   2.983 -0.2445 -0.0200 -0.1372
 3857W        W 3857   3.862   4.704   2.382  0.0290  0.1121 -0.1533
 3858W        W 3858   0.885   8.866   6.620 -0.1276  0.0996 -0.0955
 3859W        W 3859   6.947   3.859   9.922  0.1128  0.0535  0.0565
 3860W        W 3860   2.612   6.789   3.172  0.1288 -0.1529  0.2179
 3861W        W 3861   4.903   8.835   1.185 -0.0810  0.0216  0.0139
 3862W        W 3862   7.556   1.164  10.251  0.0794  0.2904 -0.3152
 3863W        W 3863  10.143   1.551   2.165 -0.0703 -0.2882  0.0753
 3864W        W 3864   6.156   0.662   6.338  0.1114  0.0050  0.0790
 3865W        W 3865   4.423   1.381   6.885 -0.1565  0.0946 -0.0151
 3866W        W 3866  10.087   5.700   7.589  0.1482  0.0793  0.1138
 3867W        W 3867   4.792   0.836   6.162 -0.1688  0.0362  0.0831
 3868W        W 3868   8.996   0.301   6.509  0.1456 -0.0999 -0.0423
 3869W        W 3869   0.022   2.385   9.266  0.4098 -0.0817 -0.1225
 3870W        W 3870   6.865   0.969   7.185 -0.3661  0.0659  0.0276
 3871W        W 3871   8.769   8.827   4.947  0.0353  0.1391 -0.0217
 3872W        W 3872   8.485   8.409   4.150  0.0008  0.2249  0.0686
 3873W        W 3873   0.482   1.292   9.706 -0.0152  0.1038 -0.0054
 3874W        W 3874   9.828   4.948   0.986  0.0809  0.2633  0.1134
 3875W        W 3875  10.102   4.043   5.071  0.2533  0.1140 -0.0935
 3876W        W 3876   9.783  10.243   9.262  0.2477  0.0910  0.0904
 3877W        W 3877   8.203   3.582   4.897  0.1635 -0.0258  0.0803
 3878W        W 3878   2.383   1.837   5.120  0.2398  0.3206  0.1440
 3879W        W 3879   5.151   5.315   5.248 -0.1263  0.1585  0.1493
 3880W        W 3880   6.746   5.875   1.168  0.1062 -0.3090 -0.1271
 3881W        W 3881   2.958   3.772   8.617 -0.0459  0.2879  0.2775
 3882W        W 3882   5.089   4.624   3.694  0.0931 -0.0247 -0.3793
 3883W        W 3883   5.377   0.690   4.096 -0.1748 -0.2184 -0.0149
 3884W        W 3884   0.964   9.461  10.145  0.1725 -0.0891  0.1803
 3885W        W 3885   2.640   8.992  10.338 -0.0204  0.2707 -0.1943
 3886W        W 3886   8.447   9.570   0.708  0.2290 -0.2513 -0.3205
 3887W        W 3887   5.893   7.015   4.794  0.0151 -0.1722 -0.2486
 3888W        W 3888   3.396   3.383   2.884  0.2914  0.3056 -0.1313
 3889W        W 3889   7.674   1.588   9.367  0.1437 -0.2837 -0.0242
 3890W        W 3890   0.836   8.089   9.933 -0.0006  0.0822 -0.0535
 3891W        W 3891   9.278  10.104   0.117  0.0104  0.2263  0.4925
 3892W        W 3892   7.814   4.047   9.010  0.0779 -0.2199  0.1174
 3893W        W 3893   4.132   4.402   9.871  0.1328  0.1485 -0.2395
 3894W        W 3894   5.296   8.159   0.977 -0.1342 -0.2175  0.0047
 3895W        W 3895   9.879   2.201   9.176  0.3720  0.1129  0.0271
 3896W        W 3896   0.178   0.676  10.300 -0.0922 -0.2611  0.1772
 3897W        W 3897   1.115   8.449  10.150  0.0513 -0.2426 -0.0468
 3898W        W 3898   2.260   4.914   7.683  0.1283 -0.0421 -0.0376
 3899W        W 3899   4.863   2.335   6.626  0.4452 -0.2287  0.1321
 3900W        W 3900   3.939   5.444   4.731 -0.2977  0.0081 -0.2545
 3901W        W 3901   6.861   2.399   2.364  0.0090 -0.2998 -0.2294
 3902W        W 3902   9.378   4.364   3.463 -0.0748  0.0983  0.1948
 3903W        W 3903   8.846   0.341   0.965 -0.0770 -0.0740 -0.1841
 3904W        W 3904   5.125   7.788   0.599  0.1069  0.1665  0.1504
 3905W        W 3905   2.538   7.608   2.308 -0.3324 -0.1938  0.2691
 3906W        W 3906   3.512   7.699   4.782 -0.1702  0.0266 -0.1703
 3907W        W 3907   7.547   8.557   8.755  0.1251  0.0508 -0.2191
 3908W        W 3908   5.952   8.882   6.424  0.0047 -0.1223 -0.0279
 3909W        W 3909   1.799   2.557   6.598  0.0374 -0.1754  0.0242
 3910W        W 3910   7.929   5.806   2.078 -0.1176  0.1503 -0.0004
 3911W        W 3911   5.724   8.677   5.124 -0.1272 -0.2068  0.1860
 3912W        W 3912   0.873   5.916   5.893 -0.3021  0.0465 -0.1362
 3913W        W 3913   7.702   0.618   8.621  0.1412  0.0227 -0.2441
 3914W        W 3914   0.160   6.222   5.517 -0.0955  0.0997 -0.1520
 3915W        W 3915   5.020   7.293   0.532  0.1935 -0.2956  0.0703
 3916W        W 3916   4.683   2.124   3.939  0.2726 -0.3541  0.2202
 3917W        W 3917   0.705  10.134   2.573 -0.0164 -0.1543 -0.1570
 3918W        W 3918   1.550   9.314   1.914  0.2097 -0.2546 -0.1515
 3919W        W 3919   7.623   6.031   2.642 -0.0824 -0.2467 -0.2160
 3920W        W 3920   7.386  10.223  10.106 -0.0772  0.3991 -0.1530
 3921W        W 3921   7.469   1.498   7.372 -0.0770  0.0155 -0.1755
 3922W        W 3922   4.259   1.924   1.001  0.0934  0.1240  0.0713
 3923W        W 3923   0.275   3.215   0.084 -0.4464  0.2367  0.0462
 3924W        W 3924   2.127   1.934   0.428 -0.0469  0.0253  0.0028
 3925W        W 3925   2.858   1.071   7.851  0.0159  0.0142  0.0781
 3926W        W 3926   3.752   5.832   7.413  0.1194 -0.0387  0.1290
 3927W        W 3927   5.131   7.197  10.154  0.1755  0.3467 -0.4838
 3928W        W 3928   2.874   0.420   2.340 -0.0590  0.2919 -0.0613
 3929W        W 3929   0.776   0.509   7.532  0.2469  0.1746 -0.1841
 3930W        W 3930  10.281   4.893   6.030 -0.0481 -0.2925 -0.1440
 3931W        W 3931   8.815   4.258   7.922 -0.2126 -0.0003  0.0764
 3932W        W 3932   2.937   3.734   4.480  0.0634  0.4009 -0.3110
 3933W        W 3933   8.213   5.063   8.169 -0.1757  0.0841  0.1875
 3934W        W 3934   1.110   2.711   4.259 -0.0323  0.1096  0.0245
 3935W        W 3935   5.244   8.670   4.094 -0.2139  0.1333  0.0699
 3936W        W 3936   8.824   8.319   9.428 -0.0077  0.2574 -0.0546
 3937W        W 3937   3.927   6.074   9.250  0.0513  0.1052  0.0323
 3938W        W 3938   9.978   0.968   8.380  0.2523 -0.1262 -0.3058
 3939W        W 3939   1.576   4.810   2.709  0.6782 -0.0741  0.1614
 3940W        W 3940   3.736   2.908   4.643 -0.3623  0.1702 -0.0161
 3941W        W 3941   8.477   2.728   1.918 -0.4144  0.3735  0.0669
 3942W        W 3942   9.703   8.466   8.502  0.1250  0.0200  0.3376
 3943W        W 3943   8.881   6.411   7.487  0.0218 -0.1237  0.3564
 3944W        W 3944   9.898   4.214   6.201 -0.1333  0.2888  0.1445
 3945W        W 3945   4.291   5.443   3.057 -0.3027 -0.2951 -0.0590
 3946W        W 3946   1.342  10.089   9.718  0.0833  0.1929  0.3357
 3947W        W 3947   5.645   4.423   8.106 -0.0234  0.1854 -0.2531
 3948W        W 3948   8.305   9.075   9.492 -0.1708 -0.2728 -0.0596
 3949W        W 3949   2.401   3.742   7.303  0.0532  0.1445  0.1950
 3950W        W 3950   3.670   6.950   4.088 -0.2552  0.3179  0.3192
 3951W        W 3951   5.475   5.978   1.795  0.0207  0.0012  0.1164
 3952W        W 3952   2.686   8.912   4.014 -0.0301 -0.0013  0.0919
 3953W        W 3953   4.937   1.685   3.873 -0.1210  0.0966 -0.4120
 3954W        W 3954   0.913   1.400   5.813  0.0793  0.1175 -0.2380
 3955W        W 3955   3.680   3.512   5.873 -0.2179 -0.1088 -0.2262
 3956W        W 3956   8.179   7.458   3.237  0.1773 -0.1124  0.0122
 3957W        W 3957   8.336   9.523   7.911  0.1000 -0.6827  0.0249
 3958W        W 3958   9.250   5.063   8.148 -0.1126 -0.1042  0.1092
 3959W        W 3959   5.628   0.686   1.606 -0.0695 -0.0364  0.2420
 3960W        W 3960   7.314   0.870   5.082 -0.2955  0.0091  0.1999
 3961W        W 3961   4.293   8.716   9.621 -0.1445  0.3411  0.0569
 3962W        W 3962   7.006   2.207   0.220 -0.3541 -0.2421  0.3234
 3963W        W 3963   1.243   0.348   9.228  0.1905  0.2096  0.1680
 3964W        W 3964   1.280   1.546   6.811 -0.0635 -0.1312 -0.0029
 3965W        W 3965   3.279   2.177   2.120  0.3142  0.0989  0.0448
 3966W        W 3966   7.593   9.361   4.881  0.2896 -0.2152 -0.1544
 3967W        W 3967   5.037   7.531   3.091  0.0381  0.0832  0.2530
 3968W        W 3968   4.245   8.903   4.089  0.4271  0.3279  0.1124
 3969W        W 3969   3.860   2.049   5.515 -0.0620 -0.2302  0.0238
 3970W        W 3970   0.572   8.643   9.323 -0.1223 -0.1190 -0.3408
 3971W        W 3971   2.315   3.012   3.691  0.2714  0.2614 -0.0899
 3972W        W 3972   1.441   5.455   2.089 -0.1225 -0.1486  0.0094
 3973W        W 3973   0.208   0.890   5.138  0.0075 -0.2431 -0.2520
 3974W        W 3974  10.306   0.729   9.081  0.2029 -0.2720  0.2211
 3975W        W 3975   5.998   0.265   8.549  0.1138  0.3324 -0.1589
 3976W        W 3976   6.525   2.187   5.722 -0.0280 -0.1342 -0.0293
 3977W        W 3977   4.297   9.700   9.953 -0.3872 -0.2120 -0.2216
 3978W        W 3978   6.156   8.207   3.735 -0.1130  0.0635  0.2210
 3979W        W 3979   8.819   0.760   5.629 -0.0292  0.1853  0.2936
 3980W        W 3980   7.141   8.602   8.436  0.3434  0.1574  0.1386
 3981W        W 3981   2.178   7.459   3.025 -0.0646 -0.1152 -0.0302
 3982W        W 3982   4.455   0.752   1.460 -0.1598 -0.0467 -0.2951
 3983W        W 3983   9.224   7.117   1.294  0.0800  0.0972 -0.0386
 3984W        W 3984   4.687   1.452   3.494  0.0307  0.1487 -0.2397
 3985W        W 3985   8.180   4.423   9.424 -0.1071  0.2166  0.1466
 3986W        W 3986   9.211   9.325   7.076  0.1868 -0.0561  0.1447
 3987W        W 3987   3.514   6.673   6.786 -0.0292 -0.1340 -0.2763
 3988W        W 3988   4.353   6.432   6.449  0.2452 -0.3545 -0.1781
 3989W        W 3989  10.212   6.543   1.921 -0.0417  0.0967 -0.1883
 3990W        W 3990   3.124   1.491   5.670 -0.0774 -0.0025 -0.0561
 3991W        W 3991   8.668   1.359   5.340  0.0314  0.1273 -0.0330
 3992W        W 3992   5.296   5.967   8.213  0.0907  0.3763 -0.3574
 3993W        W 3993   3.571   2.330   3.758  0.4892  0.0363 -0.1794
 3994W        W 3994   8.668   4.466   8.851  0.0882  0.0492  0.1915
 3995W        W 3995   8.164   8.342   1.988  0.2769  0.0426  0.2137
 3996W        W 3996   4.537   6.442   4.920 -0.1186  0.0650  0.1381
 3997W        W 3997   4.318   8.783   5.396 -0.1132  0.1124  0.3973
 3998W        W 3998   9.235   4.943   1.776 -0.0453  0.2715  0.1628
 3999W        W 3999   8.234   7.946   5.962  0.1210 -0.1880  0.0036
 4000W        W 4000   4.054   5.131   4.367  0.0496  0.3099  0.3563
 4001W        W 4001   5.370   7.312   8.462  0.0286  0.0010 -0.0252
 4002W        W 4002   6.382   9.782   2.501  0.1077  0.0296  0.2073
 4003W        W 4003   9.036  10.184   9.368  0.1489 -0.0968  0.0682
 4004W        W 4004   1.393   0.425   2.369 -0.1219 -0.0558 -0.0885
 4005W        W 4005   2.121   1.314   0.266  0.0005 -0.1778  0.0040
 4006W        W 4006   9.993   9.453   5.201  0.2219 -0.3180 -0.5715
 4007W        W 4007   8.395   0.212   4.752 -0.0334 -0.0247 -0.0963
 4008W        W 4008   1.167   1.261   4.108  0.4255 -0.2792 -0.4103
 4009W        W 4009   1.768   3.816   5.794  0.0561 -0.4318  0.0051
 4010W        W 4010   3.193   6.338   6.555  0.0821  0.0777  0.1960
 4011W        W 4011   4.259   2.070   1.903  0.1602  0.1429  0.1367
 4012W        W 4012   4.702   4.519   9.081 -0.0760  0.0630 -0.0369
 4013W        W 4013   0.053   6.165   6.724  0.1468  0.0577  0.2554
 4014W        W 4014   1.482   8.950   4.669 -0.0325 -0.2609 -0.0219
 4015W        W 4015   7.543   5.999   9.104 -0.1105  0.0420 -0.2182
 4016W        W 4016   9.228   0.168   0.410  0.0482  0.2047  0.0626
 4017W        W 4017   3.948   7.142   9.020  0.2503  0.0374 -0.0939
 4018W        W 4018   1.717   3.348   4.348  0.3184 -0.1109 -0.0537
 4019W        W 4019   5.002   6.174   6.986  0.1703  0.2938 -0.3112
 4020W        W 4020   4.998   4.882   2.331  0.1114 -0.2456 -0.2154
 4021W        W 4021   9.693   2.672   1.593 -0.2249 -0.1224 -0.3048
 4022W        W 4022   3.898   5.893   4.994  0.1862  0.0252  0.0637
 4023W        W 4023   2.182   5.561   0.239 -0.2194  0.0633  0.2495
 4024W        W 4024   6.873   1.789   6.020 -0.1431 -0.0611 -0.0180
 4025W        W 4025   0.651   9.842   7.511  0.1077  0.4429 -0.1155
 4026W        W 4026   0.096   0.741   6.906 -0.0211 -0.0435 -0.0742
 4027W        W 4027   0.729   0.438   9.701  0.2190 -0.2297 -0.2457
 4028W        W 4028   5.004   9.726   1.012  0.0102  0.0790  0.1690
 4029W        W 4029   6.405   3.337   8.807  0.2129 -0.0088 -0.0312
 4030W        W 4030  10.152   7.682   8.342 -0.2027 -0.0438 -0.0532
 4031W        W 4031   1.207   8.598   2.839 -0.2493 -0.0940  0.2273
 4032W        W 4032   3.612   2.512   1.167 -0.1298 -0.1126  0.3028
 4033W        W 4033   7.639   8.901   6.467  0.3479  0.4023 -0.1512
 4034W        W 4034   4.350   1.405   5.428  0.1085  0.0294  0.0647
 4035W        W 4035  10.334   0.378   7.501  0.0237  0.1749 -0.0471
 4036W        W 4036   3.895   1.174   1.542  0.4364 -0.0762  0.0255
 4037W        W 4037   6.614   4.200   0.335  0.0283 -0.0048 -0.0530
 4038W        W 4038   8.748   5.961   2.764  0.1412  0.0505  0.0148
 4039W        W 4039  10.321   7.497   7.276  0.1317  0.1670  0.2552
 4040W        W 4040   5.535   0.265   2.364 -0.4488 -0.0312  0.0688
 4041W        W 4041   4.095   0.302   7.251 -0.2884 -0.3127  0.1435
 4042W        W 4042   5.098   6.075   5.923  0.0215 -0.3670  0.0248
 4043W        W 4043   8.226   3.520   3.139 -0.1981 -0.0389  0.3162
 4044W        W 4044   6.844   0.254   1.640  0.1171 -0.0579  0.0455
 4045W        W 4045   4.633  10.267   4.348  0.2555  0.2254 -0.3849
 4046W        W 4046   8.759   5.283   0.131  0.1420  0.3366  0.1812
 4047W        W 4047   1.154   3.725   5.147 -0.0612 -0.0094 -0.0458
 4048W        W 4048   6.983   2.716   7.960  0.1341  0.0009  0.3167
 4049W        W 4049   2.408   1.273   5.772  0.1794 -0.4374 -0.0469
 4050W        W 4050   8.885   2.738   3.166  0.2962  0.3613 -0.0765
 4051W        W 4051   7.546   2.958   2.010  0.1912  0.2979  0.1541
 4052W        W 4052   0.098   9.959   4.097  0.4074  0.0297  0.1391
 4053W        W 4053   1.222   6.729   7.293  0.1460  0.0529  0.1737
 4054W        W 4054   8.061   1.959   0.358 -0.0146 -0.0568 -0.0315
 4055W        W 4055   7.082   8.401   5.374 -0.3075 -0.0673 -0.1650
 4056W        W 4056   2.340   9.326   5.392 -0.0273 -0.0582 -0.1871
 4057W        W 4057   9.972   2.493   9.696 -0.0032  0.2186  0.1797
 4058W        W 4058  10.206   2.420   3.355 -0.0047 -0.2094  0.1376
 4059W        W 4059   8.232   1.427   9.154 -0.0660 -0.1838 -0.0832
 4060W        W 4060   3.361   4.420   3.698  0.1029  0.1623  0.3468
 4061W        W 4061   9.800   2.358   1.241  0.3216 -0.0807  0.0879
 4062W        W 4062   6.157   9.058   4.017 -0.0685  0.3738 -0.0965
 4063W        W 4063   5.833   0.766   7.314 -0.3016  0.0215 -0.0283
 4064W        W 4064   8.557   4.346   2.112  0.1688 -0.0756 -0.3448
 4065W        W 4065   4.064   6.931   6.256  0.1315 -0.0036  0.2145
 4066W        W 4066   1.047   3.231   9.304 -0.1125  0.0843  0.1661
 4067W        W 4067   4.704   0.352   3.578  0.1090  0.0025  0.0262
 4068W        W 4068   7.777   6.113   9.979  0.1021  0.2127  0.0684
 4069W        W 4069   2.633   9.858   4.027 -0.1953 -0.0439  0.2034
 4070W        W 4070   4.415   7.829  10.113  0.2257  0.2414 -0.1901
 4071W        W 4071   1.106   8.549   5.239  0.1411  0.1267  0.0170
 4072W        W 4072   6.141   9.019   5.049 -0.0315  0.3221 -0.1486
 4073W        W 4073   5.451   7.378   4.313  0.2190 -0.0114  0.1800
 4074W        W 4074   2.042   6.862   4.207  0.1836 -0.1276  0.1935
 4075W        W 4075   4.337   9.556   2.449  0.0199 -0.3656 -0.1990
 4076W        W 4076   2.850   5.148   7.104  0.0750 -0.3576  0.1921
 4077W        W 4077   9.303   0.159   2.693 -0.2129 -0.1629 -0.0991
 4078W        W 4078   6.560   1.460   8.172 -0.0235  0.0154 -0.1793
 4079W        W 4079   8.708   9.966   8.612  0.1853 -0.0055  0.1304
 4080W        W 4080   1.126   8.196   7.718  0.0106 -0.0634 -0.1537
 4081W        W 4081   2.430   6.500   2.059  0.0390 -0.0429  0.1872
 4082W        W 4082   7.224   5.538   1.281 -0.2095  0.2231  0.0615
 4083W        W 4083   2.875   1.922   7.764  0.2350  0.3429  0.3915
 4084W        W 4084   4.797   6.337   5.598 -0.5078 -0.2975 -0.0437
 4085W        W 4085   6.146   8.702   7.951 -0.0467  0.0499 -0.3249
 4086W        W 4086   4.363   7.674   1.167  0.0666  0.1607 -0.3716
 4087W        W 4087   0.228   5.195   8.563 -0.1360  0.0738 -0.1037
 4088W        W 4088   6.264   6.000   0.863 -0.1204 -0.1642  0.0125
 4089W        W 4089   5.713   2.586   9.085 -0.1892  0.1877  0.1094
 4090W        W 4090   7.776   0.098   2.777 -0.3379  0.1419  0.0823
 4091W        W 4091   3.409   9.564   2.207 -0.0491 -0.2147 -0.1469
 4092W        W 4092   8.679   5.662  10.079 -0.1820 -0.2065  0.1626
 4093W        W 4093   9.990   4.623   8.971  0.1923 -0.2563  0.1406
 4094W        W 4094   3.094   1.978   5.588  0.2490 -0.3951  0.1034
 4095W        W 4095   9.999   5.555   3.306 -0.0653  0.2574 -0.0493
 4096W        W 4096   8.991   9.605   2.487  0.1664  0.1429 -0.3027
 4097W        W 4097   2.776   7.088   6.945  0.1584 -0.0533  0.0597
 4098W        W 4098   8.178   2.088   7.192  0.0949  0.0886 -0.3251
 4099W        W 4099   4.838   5.505   4.869  0.0613  0.3219 -0.0439
 4100W        W 4100   9.454   1.089   1.377  0.0132 -0.0327 -0.1942
 4101W        W 4101   4.103   9.507   0.823  0.2029 -0.0274  0.2426
 4102W        W 4102   7.361   1.555   4.695  0.0157 -0.3134  0.0673
 4103W        W 4103   6.030   0.059   7.961  0.0472 -0.4081 -0.2869
 4104W        W 4104   5.147   3.777   5.826 -0.0600  0.0885  0.0156
 4105W        W 4105   1.948  10.275   2.974 -0.5193  0.3688 -0.1020
 4106W        W 4106   8.508   6.584   1.376  0.1390 -0.0962  0.0466
 4107W        W 4107   7.323   7.280   3.007  0.1898 -0.0246  0.1743
 4108W        W 4108   3.443   9.925   7.578  0.1516  0.1165 -0.0402
 4109W        W 4109   5.953   8.705   7.524 -0.1290  0.0400 -0.0916
 4110W        W 4110   1.371   2.057   7.901 -0.0667  0.0784  0.0350
 4111W        W 4111   6.685   9.233   6.314 -0.1148 -0.0134 -0.4167
 4112W        W 4112   9.900   1.029   1.948  0.0565  0.0357 -0.1217
 4113W        W 4113   4.732   5.142   6.631 -0.1063 -0.0249 -0.0047
 4114W        W 4114   4.793   2.550   6.118 -0.1095 -0.2796 -0.1067
 4115W        W 4115   2.952   7.189   3.330 -0.1630 -0.3164 -0.5253
 4116W        W 4116   3.208   5.902   2.285 -0.0217 -0.1613  0.1120
 4117W        W 4117   0.188   7.284   4.397 -0.2653 -0.2181  0.2212
 4118W        W 4118   1.592   7.021   7.349  0.0511 -0.1085 -0.0149
 4119W        W 4119   1.426   3.247   2.114 -0.1153  0.1656  0.0864
 4120W        W 4120   9.158   9.770   8.350  0.0211  0.1151 -0.0398
 4121W        W 4121   7.195   5.641   7.390  0.0259 -0.1125 -0.1430
 4122W        W 4122   6.701   5.345   6.945 -0.1902  0.1212 -0.0222
 4123W        W 4123   9.328   6.772   5.429 -0.0594  0.1778  0.0350
 4124W        W 4124   0.715   5.420   1.344 -0.0172  0.1235  0.3963
 4125W        W 4125   1.626   3.466   1.236 -0.0234 -0.2300  0.0028
 4126W        W 4126   4.587   5.432   6.086  0.0832 -0.1468  0.3226
 4127W        W 4127   2.649   5.733   6.212 -0.0068 -0.1381 -0.2839
 4128W        W 4128   0.949   1.357  10.081  0.0576  0.2873  0.0862
 4129W        W 4129   7.839   9.673   8.313  0.2355 -0.1589 -0.2793
 4130W        W 4130   1.902   5.114   1.097  0.2977 -0.0705 -0.2405
 4131W        W 4131   7.661   7.730   0.590  0.1052  0.1887 -0.1377
 4132W        W 4132   4.648   4.302   2.309 -0.2124 -0.0653  0.0451
 4133W        W 4133   7.604   3.654   2.911  0.1254  0.1311  0.0369
 4134W        W 4134   4.592   2.442   2.217  0.1981 -0.1265 -0.0754
 4135W        W 4135   0.594   0.038   5.194  0.1561  0.0315  0.1753
 4136W        W 4136   4.135   2.252   5.118  0.0351 -0.1416 -0.0080
 4137W        W 4137   2.457   1.036   5.196  0.1279 -0.4960 -0.1333
 4138W        W 4138   5.448   2.681   9.507 -0.1382  0.1964  0.0767
 4139W        W 4139   8.593   0.077   7.376 -0.3694  0.1028  0.0772
 4140W        W 4140   3.320   9.314   6.071 -0.0297 -0.1593  0.0436
 4141W        W 4141   0.244   4.708   9.530 -0.1996 -0.2794 -0.0851
 4142W        W 4142   2.318   9.893   5.400  0.1776  0.1198  0.0777
 4143W        W 4143   8.058   7.848   8.200 -0.2590 -0.1474  0.4588
 4144W        W 4144   7.934   7.940   4.114  0.2773  0.0735 -0.1577
 4145W        W 4145   8.967   4.754   4.552 -0.2223 -0.2720  0.0056
 4146W        W 4146   1.583   2.829   7.417  0.1153  0.1426 -0.2612
 4147W        W 4147   8.290   8.718   0.019  0.0667 -0.2940 -0.0827
 4148W        W 4148   6.950   2.660   6.872  0.1715  0.2618  0.0112
 4149W        W 4149   0.469   7.021   6.744  0.4028  0.0632 -0.1904
 4150W        W 4150   3.343   5.296   5.293  0.0502  0.0505 -0.1398
 4151W        W 4151   8.651   4.888   6.947  0.0428 -0.0315  0.2435
 4152W        W 4152   0.831   0.266   9.043 -0.0747 -0.1558 -0.0005
 4153W        W 4153   7.170   5.005   2.749  0.1273 -0.2668  0.0048
 4154W        W 4154   2.652   5.139   8.820  0.0767  0.1512 -0.0743
 4155W        W 4155   8.413   3.391  10.192  0.2292  0.0270  0.2937
 4156W        W 4156   9.908   1.328   4.653  0.0884 -0.0906  0.0327
 4157W        W 4157   5.665   6.101   0.648 -0.1123 -0.3125  0.1999
 4158W        W 4158   1.297  10.241   4.439 -0.0276  0.0561 -0.0601
 4159W        W 4159   6.528   2.871   9.327  0.1690  0.0039  0.0729
 4160W        W 4160   2.826   6.864   7.866 -0.1695 -0.0095  0.1684
 4161W        W 4161  10.101   7.404   0.700  0.1095 -0.1039  0.0756
 4162W        W 4162   1.348   3.741   3.337  0.2649 -0.3747  0.0118
 4163W        W 4163   1.077   5.176   7.125  0.1265 -0.2241  0.0413
 4164W        W 4164   4.866   3.992   9.431 -0.1587  0.0840  0.0952
 4165W        W 4165   4.734   0.914   9.842 -0.0945 -0.0933 -0.0431
 4166W        W 4166   1.741   2.101   9.606  0.0908  0.0709  0.4952
 4167W        W 4167   8.178   1.219   8.263  0.1409  0.6250 -0.0065
 4168W        W 4168   5.342   3.812   0.571  0.1191  0.1630  0.2695
 4169W        W 4169   6.789   3.418   7.241 -0.2407 -0.0249 -0.0034
 4170W        W 4170   1.957   8.139   6.554 -0.2587  0.0207 -0.3403
 4171W        W 4171   3.518   3.987   9.388 -0.1661  0.1360 -0.2254
 4172W        W 4172   4.295   1.191   5.826  0.2986  0.1167 -0.0688
 4173W        W 4173   5.224   5.941   2.226  0.0640 -0.0123 -0.1605
 4174W        W 4174   9.425   6.476   3.934  0.2954  0.1885  0.1811
 4175W        W 4175   2.655   5.275   4.614 -0.1952 -0.2427  0.0624
 4176W        W 4176   9.808   4.306   8.215  0.0401  0.2066 -0.0230
 4177W        W 4177   7.986   6.512   9.825  0.2383  0.0624 -0.2521
 4178W        W 4178   8.279   9.915   5.354  0.1434 -0.0194 -0.0279
 4179W        W 4179   2.892   6.606   1.523 -0.2698 -0.0686  0.1161
 4180W        W 4180  10.222   9.962   5.132 -0.2337 -0.1044  0.1192
 4181W        W 4181   9.148   7.885   3.198  0.4792 -0.0086  0.0932
 4182W        W 4182   3.006  10.174   4.345  0.0007  0.1253  0.3276
 4183W        W 4183   8.895   3.757   1.412  0.1268  0.0107 -0.1262
 4184W        W 4184   1.875   3.159   5.176  0.0861  0.2326 -0.3819
 4185W        W 4185   3.385   0.350   5.883  0.3915  0.0434  0.0346
 4186W        W 4186   4.498   5.566   0.442 -0.1825 -0.2133  0.1162
 4187W        W 4187   1.495   8.730   3.285 -0.0674  0.0824 -0.2118
 4188W        W 4188   1.609   8.903   4.161  0.1167  0.1462 -0.1691
 4189W        W 4189   6.072   5.188   8.237  0.0678 -0.2979 -0.0755
 4190W        W 4190   4.461   0.707   4.267 -0.0248 -0.0816 -0.0354
 4191W        W 4191   3.475   2.636   2.380  0.3648  0.0225 -0.1941
 4192W        W 4192   2.792   0.739   1.101  0.3353  0.0010 -0.3015
 4193W        W 4193   3.289   7.829   9.597  0.2519  0.2018 -0.1983
 4194W        W 4194   2.767   5.679   7.445 -0.1296 -0.0495  0.0859
 4195W        W 4195   8.924  10.269   7.016  0.0359  0.1584  0.0342
 4196W        W 4196   7.658   8.986   7.199 -0.0556  0.2852  0.0678
 4197W        W 4197   8.340   0.788   2.740  0.1368  0.1279  0.0123
 4198W        W 4198   1.580   1.789   6.318 -0.0093 -0.0146 -0.0552
 4199W        W 4199   4.519   2.735   6.608 -0.1654  0.2920  0.0480
 4200W        W 4200   0.067   2.487   2.455  0.2602  0.4206  0.1057
 4201W        W 4201   1.430   8.502   2.399 -0.1748  0.3461  0.1713
 4202W        W 4202   0.767   6.408   0.535  0.0212 -0.3281 -0.1957
 4203W        W 4203   4.180   6.648   3.307 -0.0332 -0.1807  0.3244
 4204W        W 4204   8.840   5.390   9.230  0.2764  0.0564 -0.0709
 4205W        W 4205   2.275   6.343   6.547 -0.2682  0.0013 -0.1108
 4206W        W 4206   8.877   1.594   0.232 -0.1196  0.0157 -0.1589
 4207W        W 4207   8.099   0.624   3.521 -0.3219 -0.0862  0.1642
 4208W        W 4208   4.054   8.647   7.145 -0.1361  0.0728  0.0326
 4209W        W 4209   7.613   3.351   7.123  0.0496 -0.2243 -0.0548
 4210W        W 4210   7.429   7.411   9.748  0.0301 -0.0385 -0.1511
 4211W        W 4211   5.733   7.027   1.620 -0.0140  0.0694  0.1041
 4212W        W 4212   3.653   0.384   8.401  0.3472  0.1795 -0.4896
 4213W        W 4213   6.506   6.859   0.834 -0.1495 -0.3482 -0.0022
 4214W        W 4214   8.731   3.458   8.682 -0.0403  0.3540  0.2133
 4215W        W 4215   2.594   4.297  10.236 -0.1743  0.0960 -0.2462
 4216W        W 4216  10.107   0.919   2.380  0.0603 -0.2990 -0.1654
 4217W        W 4217   3.376   7.864   9.068  0.3333 -0.0488 -0.0886
 4218W        W 4218   5.424   6.487   5.952  0.4353 -0.0146 -0.3987
 4219W        W 4219   6.781   8.760   6.876  0.1348  0.0077 -0.2916
 4220W        W 4220   8.518   9.063   4.563  0.1053 -0.2209  0.0012
 4221W        W 4221   0.493   7.231  10.095 -0.0441  0.1532 -0.0260
 4222W        W 4222   8.409   1.516   3.241  0.3425  0.0918 -0.1343
 4223W        W 4223   1.669   9.119   8.427 -0.2942 -0.1030 -0.1877
 4224W        W 4224   9.077   9.098   7.641  0.2576 -0.0868  0.1653
 4225W        W 4225   2.942   4.385   7.634 -0.4408 -0.0586  0.2284
 4226W        W 4226   8.525   1.902   9.156 -0.1184  0.2412  0.2971
 4227W        W 4227   8.643   7.777   1.415 -0.0463  0.0210 -0.2664
 4228W        W 4228   9.561   8.937   0.344 -0.1443  0.0818 -0.0719
 4229W        W 4229   5.170   1.840   1.658 -0.0970  0.1035 -0.0110
 4230W        W 4230   5.379   0.626   9.295 -0.0338 -0.0272  0.0659
 4231W        W 4231   3.371  10.282   6.745  0.0981 -0.0835 -0.1559
 4232W        W 4232   6.485   1.104   0.343 -0.0731  0.0139 -0.2817
 4233W        W 4233  10.142   2.611   7.761  0.1901 -0.0447 -0.0566
 4234W        W 4234   2.237   9.858   2.717  0.0015  0.1737 -0.0796
 4235W        W 4235   9.753   1.457   9.489  0.1007 -0.0706 -0.0590
 4236W        W 4236   6.713   8.971   4.266  0.1122 -0.1593 -0.1835
 4237W        W 4237   6.828   4.007   2.783  0.0325 -0.0875  0.0101
 4238W        W 4238   4.250   8.263   4.600  0.1026  0.1233 -0.0952
 4239W        W 4239   1.559   4.752   0.866 -0.0541 -0.2429 -0.0286
 4240W        W 4240   8.724   7.275   7.953  0.0609 -0.2550  0.1205
 4241W        W 4241   1.769   3.284   0.654  0.1402  0.2440 -0.0281
 4242W        W 4242   7.531   8.799   1.387  0.2180 -0.0379  0.3392
 4243W        W 4243   8.263   0.079   3.011  0.0681 -0.3462  0.2642
 4244W        W 4244   8.991  10.119   6.375  0.0031 -0.0148  0.0808
 4245W        W 4245   9.654  10.234   2.394  0.2373  0.1067 -0.0650
 4246W        W 4246   3.269   0.834   0.980  0.1607  0.0173  0.1746
 4247W        W 4247   9.945   7.827   7.303 -0.0369  0.0855 -0.0951
 4248W        W 4248   0.246   1.944  10.317 -0.1898  0.3911 -0.2191
 4249W        W 4249   6.855   0.749   1.717  0.0581 -0.0312  0.0644
 4250W        W 4250   3.503   3.924   3.707  0.2519  0.0150 -0.1726
 4251W        W 4251   7.133   8.061   6.463  0.1554  0.1534  0.0855
 4252W        W 4252   9.213   8.576   2.069  0.1363 -0.1273 -0.1145
 4253W        W 4253   6.948   6.188   2.139 -0.2059 -0.4766 -0.1276
 4254W        W 4254   8.587   9.564   4.593 -0.0593 -0.2637  0.2206
 4255W        W 4255   5.512   5.868   9.482 -0.0452 -0.1732  0.1153
 4256W        W 4256  10.052   1.191   3.893  0.0555 -0.2048  0.1519
 4257W        W 4257   7.848   3.430   0.546 -0.3532 -0.2779 -0.1288
 4258W        W 4258   2.593   3.896   4.016  0.0042  0.0593 -0.0677
 4259W        W 4259   1.238   2.747   5.708 -0.0263 -0.1083 -0.3831
 4260W        W 4260   2.659   8.688   5.540  0.0476 -0.1468 -0.0968
 4261W        W 4261   2.295   8.201   4.701  0.0320 -0.0528 -0.1903
 4262W        W 4262   6.633   1.189   4.262  0.1256 -0.0854  0.1507
 4263W        W 4263   6.569   3.003   0.199  0.0949 -0.0596  0.0685
 4264W        W 4264   8.535   8.266  10.231  0.1661 -0.0892  0.1053
 4265W        W 4265   3.614   1.834   1.826  0.3479  0.1606 -0.0731
 4266W        W 4266   2.020   4.469   3.404  0.1923 -0.2148  0.0745
 4267W        W 4267   2.646   6.128   3.147 -0.0618 -0.0741  0.0854
 4268W        W 4268   7.815   9.704   4.589 -0.2034  0.2806  0.0071
 4269W        W 4269   3.368   0.932   1.516 -0.0338  0.0255 -0.1418
 4270W        W 4270   8.741   1.337   0.655  0.3676 -0.2144 -0.2530
 4271W        W 4271   0.694   1.696   4.932  0.1975 -0.1291 -0.1320
 4272W        W 4272   0.652   6.328   3.571 -0.1434 -0.1277  0.1292
 4273W        W 4273   2.574   3.466   7.789  0.0214 -0.0574  0.0424
 4274W        W 4274   3.669   8.389   5.115 -0.2194  0.0398  0.1645
 4275W        W 4275   0.532   6.034   7.411 -0.3452 -0.1463 -0.0037
 4276W        W 4276   6.546   1.614   2.010 -0.2740 -0.0493  0.0700
 4277W        W 4277   6.822   0.040   8.261 -0.2316  0.0616 -0.1105
 4278W        W 4278   8.014   2.832   4.873 -0.2800 -0.2959 -0.0275
 4279W        W 4279   7.576   9.890   0.164  0.4493 -0.1065  0.2417
 4280W        W 4280   6.417   1.939   9.732 -0.2565  0.3298 -0.0432
 4281W        W 4281   0.419   3.749   3.831  0.1898 -0.0359  0.2989
 4282W        W 4282   3.792   8.138   4.686 -0.2599  0.2434  0.2222
 4283W        W 4283   7.062   8.353   8.870 -0.0526 -0.0287  0.0388
 4284W        W 4284   1.162   8.792   3.719 -0.0526 -0.0403 -0.0205
 4285W        W 4285   2.343   2.698   9.174 -0.0884 -0.0139  0.4130
 4286W        W 4286  10.136   0.053   9.885 -0.2809 -0.1334  0.4111
 4287W        W 4287   1.465   5.747   2.718  0.4583 -0.0533 -0.0752
 4288W        W 4288   1.945   6.931   4.726  0.2715 -0.1716 -0.1512
 4289W        W 4289   1.330   7.976   3.185  0.0364 -0.0024 -0.2058
 4290W        W 4290   7.988   5.583   5.819 -0.1885  0.3280 -0.2348
 4291W        W 4291   4.252   5.441   5.663  0.1485  0.3758 -0.2583
 4292W        W 4292   1.197   8.637   9.674 -0.0913  0.0829  0.0216
 4293W        W 4293   3.456   1.051   0.559  0.1713 -0.0010  0.0201
 4294W        W 4294   9.250   6.183   9.776 -0.1897  0.0828 -0.1162
 4295W        W 4295   4.408   7.937   0.640 -0.0489  0.2390  0.1997
 4296W        W 4296   4.812   3.053   6.139 -0.2221  0.0651 -0.0270
 4297W        W 4297   8.957   5.347   1.540  0.2185 -0.3040 -0.2951
 4298W        W 4298   0.331   0.272   1.389  0.2280 -0.0315  0.0741
 4299W        W 4299   2.068   5.919   4.065 -0.1377  0.1203  0.1045
 4300W        W 4300   2.058   6.131   5.401 -0.2816  0.1008  0.1745
 4301W        W 4301   1.251   7.432   0.996  0.2874  0.2383  0.0101
 4302W        W 4302   0.927   8.777   7.147 -0.5672  0.4385  0.0895
 4303W        W 4303   8.844   3.299   6.330 -0.1139  0.1049 -0.1502
 4304W        W 4304   3.325   0.398   5.126 -0.1950 -0.2073  0.1354
 4305W        W 4305   0.727   9.500   5.851  0.0963  0.0959  0.0052
 4306W        W 4306   6.981   0.245   6.535  0.0542 -0.0074 -0.0829
 4307W        W 4307   4.834   7.688   9.108  0.1038  0.0461  0.2717
 4308W        W 4308   6.159   0.343   1.862 -0.3975 -0.2571  0.2436
 4309W        W 4309   5.527   8.634   4.613  0.3182 -0.1153  0.0695
 4310W        W 4310   2.187   8.102   3.187  0.3020  0.0104 -0.3668
 4311W        W 4311   8.621   4.658   9.305  0.0142 -0.1306 -0.3015
 4312W        W 4312   9.847   3.783   8.439 -0.0973  0.1678 -0.0340
 4313W        W 4313   3.535   9.169   0.439 -0.0304  0.1600 -0.2925
 4314W        W 4314   0.260   2.936   9.232  0.1930 -0.2422 -0.1943
 4315W        W 4315   8.278   5.852   6.622  0.0687 -0.2002 -0.0853
 4316W        W 4316   1.964   7.936   1.762  0.1551  0.3435 -0.2002
 4317W        W 4317   2.051   9.252   8.828 -0.0101  0.0716 -0.0455
 4318W        W 4318   0.707   1.074   9.303 -0.0219  0.0605 -0.1401
 4319W        W 4319   2.491   2.331   2.415  0.1329 -0.0606 -0.0608
 4320W        W 4320   4.052   8.528   1.146 -0.2830 -0.0580 -0.1675
 4321W        W 4321   2.704  10.055   5.093 -0.2315 -0.1058  0.3154
 4322W        W 4322   4.798   3.479   1.531  0.0096 -0.1576  0.5142
 4323W        W 4323  10.283   4.154   8.166 -0.2568 -0.4142 -0.2042
 4324W        W 4324   4.572   2.636   2.689  0.1971  0.0752  0.1585
 4325W        W 4325   7.684   1.203   5.588  0.0807  0.0349 -0.0711
 4326W        W 4326   3.544   9.056   4.529 -0.2546  0.1259  0.0615
 4327W        W 4327   2.516  10.147   8.482 -0.0778 -0.1988  0.0343
 4328W        W 4328   4.856   7.211   9.244 -0.0077 -0.2847 -0.2542
 4329W        W 4329  10.204   0.698   9.872  0.1640  0.0122  0.0027
 4330W        W 4330   8.891   9.901   4.343  0.1407 -0.1185  0.1045
 4331W        W 4331   6.850   1.478   9.575 -0.1292 -0.3000 -0.1315
 4332W        W 4332   1.501   4.486   8.209 -0.2397 -0.2378  0.2777
 4333W        W 4333   6.551   1.407   7.167 -0.0594 -0.2025 -0.4354
 4334W        W 4334   4.489   0.904   5.351 -0.4890  0.1744  0.0716
 4335W        W 4335   4.604   9.879   2.871 -0.2386 -0.1252  0.2225
 4336W        W 4336   6.581   2.047   0.481 -0.0429  0.0673  0.0238
 4337W        W 4337   1.375   4.705   7.386 -0.2805 -0.2864  0.1874
 4338W        W 4338   1.589   9.576   7.146  0.3229  0.0661  0.4017
 4339W        W 4339   2.447   3.816   2.880 -0.0822 -0.0043 -0.0733
 4340W        W 4340   4.060   5.158   6.749 -0.3330  0.0090  0.0559
 4341W        W 4341   7.896   9.262   9.813  0.0704  0.0066 -0.1340
 4342W        W 4342   7.961   3.579   5.451  0.0986  0.1564 -0.2479
 4343W        W 4343   8.010   3.811   5.930  0.3273 -0.1988 -0.3593
 4344W        W 4344   4.476   5.928   4.168  0.0411  0.0037 -0.0707
 4345W        W 4345   3.662   9.805   4.942 -0.1817 -0.0733  0.0403
 4346W        W 4346   9.687   2.697   4.558  0.1088 -0.0506  0.0167
 4347W        W 4347  10.244   5.453   5.959  0.2772  0.2190  0.2120
 4348W        W 4348   1.327   1.844   9.452  0.1778 -0.0558  0.1048
 4349W        W 4349   8.716   2.964   5.990 -0.1671 -0.2007 -0.2873
 4350W        W 4350   9.077   1.981   9.695 -0.0587  0.1524 -0.0191
 4351W        W 4351   0.999   0.932   9.722  0.0828 -0.0158  0.2153
 4352W        W 4352   9.359   7.953   7.519 -0.2747 -0.1711 -0.2389
 4353W        W 4353   0.036   7.424  10.063  0.0560  0.6082 -0.1020
 4354W        W 4354   8.104   4.444   1.888 -0.3321 -0.0208 -0.1905
 4355W        W 4355   9.200   1.563   6.217 -0.2105  0.4854  0.1024
 4356W        W 4356   6.598   7.328   7.593 -0.0610  0.0660 -0.0099
 4357W        W 4357   9.088   7.115   9.990 -0.2846 -0.0257  0.0300
 4358W        W 4358   1.986   8.024   9.087 -0.0948 -0.1773  0.1798
 4359W        W 4359   8.040   6.896  10.267  0.1639 -0.3619 -0.1081
 4360W        W 4360  10.229   7.934  10.053  0.2338 -0.1859  0.1111
 4361W        W 4361   1.950   2.026   5.409 -0.0012 -0.0985  0.0603
 4362W        W 4362   8.227   5.438   0.151 -0.1883 -0.1322  0.3784
 4363W        W 4363   8.004  10.032   2.944  0.2213  0.1878 -0.1817
 4364W        W 4364   6.057   3.664   8.967 -0.0921  0.2584 -0.0402
 4365W        W 4365   5.317   2.888   6.138  0.0218 -0.3208 -0.0017
 4366W        W 4366   0.047   1.280   8.293  0.3368  0.0056 -0.0697
 4367W        W 4367   2.290   4.763   3.135 -0.0816 -0.1845  0.0133
 4368W        W 4368   5.456   7.853   2.910 -0.2056  0.1310 -0.3042
 4369W        W 4369   4.299   4.580   6.270 -0.0597  0.1078  0.1399
 4370W        W 4370   4.425   1.289   1.651 -0.2255  0.1342 -0.0633
 4371W        W 4371   1.272   5.615   7.849  0.0569  0.1906  0.0198
 4372W        W 4372   9.278   5.903   9.348  0.3596  0.0958  0.1008
 4373W        W 4373   8.656   7.125   5.941  0.1937  0.1230  0.0527
 4374W        W 4374   6.084   7.459   3.107 -0.1578 -0.0031 -0.2059
 4375W        W 4375   2.758   3.211   0.433 -0.0814  0.2366 -0.2921
 4376W        W 4376   2.159   1.500   1.569 -0.1697 -0.2244  0.1185
 4377W        W 4377   3.075   6.918   6.586 -0.0345  0.1564  0.2574
 4378W        W 4378   6.549   2.195   6.243  0.0709 -0.0702  0.0241
 4379W        W 4379   4.613   9.876   9.508 -0.0607  0.0411 -0.1945
 4380W        W 4380   7.033   6.495   7.281  0.0389  0.0613 -0.1106
 4381W        W 4381   8.896   4.408   0.655 -0.0442  0.0837  0.1261
 4382W        W 4382   2.120   8.067   7.663  0.1258 -0.0464 -0.2238
 4383W        W 4383   3.514   0.576   7.601  0.0728  0.0518 -0.1503
 4384W        W 4384  10.183   5.391   5.135  0.0209 -0.0735  0.0891
 4385W        W 4385   7.264   0.529   2.616  0.0183 -0.1751 -0.0360
 4386W        W 4386   8.545   2.930  10.162  0.1007  0.1993 -0.0725
 4387W        W 4387   1.096   0.155   3.988  0.1028  0.2373 -0.1697
 4388W        W 4388   5.827   0.954   2.853 -0.0129  0.1342  0.1443
 4389W        W 4389   4.699   7.163   1.034  0.0301 -0.0523 -0.1714
 4390W        W 4390   1.575   1.806   2.399 -0.0323  0.0099 -0.1578
 4391W        W 4391   5.297   1.234   2.688 -0.0971  0.2641 -0.0407
 4392W        W 4392   6.640   8.808   0.208  0.1490  0.1038  0.1418
 4393W        W 4393   9.191   1.600   5.172 -0.1299  0.0791 -0.1441
 4394W        W 4394   0.271   9.859   8.956  0.2245 -0.2203 -0.0571
 4395W        W 4395   4.392   3.425   9.958  0.0476 -0.2033  0.2185
 4396W        W 4396   4.186   6.960   4.088  0.0940  0.2554 -0.0550
 4397W        W 4397   6.604   2.255   0.985  0.3070  0.0983 -0.0979
 4398W        W 4398   2.789   2.256   4.296 -0.1306  0.0380  0.0331
 4399W        W 4399   1.891   9.573   8.478 -0.1468  0.1389 -0.0468
 4400W        W 4400   3.415   3.661   5.377 -0.0578  0.3165  0.3359
 4401W        W 4401   8.920   7.858   4.915  0.3196 -0.1521 -0.0869
 4402W        W 4402   5.133   4.382   2.276  0.0501 -0.1743 -0.0078
 4403W        W 4403   7.855   9.907   4.080  0.1804 -0.2515  0.0790
 4404W        W 4404   9.608   1.809   6.309 -0.1401 -0.0575  0.0634
 4405W        W 4405   3.589   1.483   7.201 -0.0513 -0.2558  0.3346
 4406W        W 4406   1.027   5.979   9.120 -0.1927  0.0242 -0.0712
 4407W        W 4407   2.697   6.453   0.549  0.0716  0.0757  0.0536
 4408W        W 4408   4.986   4.871   4.557  0.1122 -0.0149  0.0551
 4409W        W 4409   3.247   7.690   4.116 -0.4645  0.0930  0.2676
 4410W        W 4410   7.509   5.911   7.628  0.1415  0.3446 -0.1631
 4411W        W 4411   2.084   6.320   9.236  0.0891  0.0112 -0.0299
 4412W        W 4412   4.107   7.319   8.539  0.2278  0.0964  0.3392
 4413W        W 4413   5.086   2.096   4.228  0.0450 -0.0392  0.0121
 4414W        W 4414   0.467   7.800  10.276 -0.2141 -0.1067 -0.0642
 4415W        W 4415   5.393   0.730   6.863  0.2253  0.1568  0.0668
 4416W        W 4416   5.106   6.750   9.854 -0.2440  0.2561  0.1479
 4417W        W 4417   0.734   3.948   9.135 -0.1627  0.0469  0.0248
 4418W        W 4418   9.200   0.767   2.716 -0.0098 -0.2045  0.0375
 4419W        W 4419   8.410   0.580   1.024 -0.1622  0.3355  0.2971
 4420W        W 4420   0.244   3.003   4.326  0.0745 -0.0597 -0.1348
 4421W        W 4421   0.470   6.766   5.401 -0.1900  0.4238 -0.2019
 4422W        W 4422   0.959   5.262   1.933 -0.3395  0.2357  0.4080
 4423W        W 4423   7.281   6.071   1.346 -0.0553 -0.2242 -0.0799
 4424W        W 4424   5.845   0.955   3.929 -0.2607 -0.4935 -0.1927
 4425W        W 4425   4.220   3.961   3.835  0.2022  0.0818 -0.2107
 4426W        W 4426   1.276   1.803   1.477 -0.1579  0.1803  0.3411
 4427W        W 4427   4.191   2.606   3.540  0.0209  0.1754  0.1451
 4428W        W 4428   2.976  10.023   7.924  0.2047  0.1224 -0.1407
 4429W        W 4429  10.220   1.574   0.726  0.1349 -0.3004 -0.2177
 4430W        W 4430   5.265   8.806   3.190  0.0554  0.0463 -0.1794
 4431W        W 4431   1.275   1.360   1.683 -0.2237 -0.2560  0.0791
 4432W        W 4432   3.374   8.138   6.500 -0.1509  0.0685 -0.2635
 4433W        W 4433   5.785   3.143   2.384 -0.2367 -0.2278 -0.1559
 4434W        W 4434   2.304   7.228   4.368 -0.2274 -0.0043  0.0607
 4435W        W 4435   5.436   7.207   0.146 -0.0867 -0.0139 -0.1873
 4436W        W 4436   2.931   7.684   0.811 -0.0123 -0.1317  0.2228
 4437W        W 4437   0.748   7.240   4.771 -0.1223 -0.0764  0.0377
 4438W        W 4438   2.226   8.426   1.929  0.1344  0.3389  0.0530
 4439W        W 4439   1.216   7.945   1.404 -0.2234  0.0565  0.1090
 4440W        W 4440   8.438   5.694   3.644 -0.3399  0.4874 -0.0150
 4441W        W 4441   7.549   4.565   8.015  0.3032 -0.1518 -0.1682
 4442W        W 4442   1.129   6.863   0.430 -0.0913 -0.1130 -0.2621
 4443W        W 4443   4.889   4.997   3.235  0.0956 -0.0407 -0.2102
 4444W        W 4444   7.289   3.668   3.606  0.1527 -0.2296 -0.5233
 4445W        W 4445   0.960   4.687   8.900 -0.1801 -0.1256 -0.0512
 4446W        W 4446   4.314   2.425   8.145  0.0373 -0.1840 -0.0177
 4447W        W 4447   2.362   4.805   8.153  0.1210 -0.2885 -0.1447
 4448W        W 4448   6.677   4.536   5.435  0.0624  0.2581  0.1923
 4449W        W 4449   8.361   8.647   0.639 -0.1147 -0.1928  0.3031
 4450W        W 4450   6.054   4.608   3.659  0.1468  0.0742 -0.1256
 4451W        W 4451   8.134   5.532   3.999  0.0121  0.1468 -0.0750
 4452W        W 4452   2.220   3.624   9.537  0.0782 -0.0280 -0.0538
 4453W        W 4453   0.639   3.095   9.584 -0.2028  0.2535  0.1164
 4454W        W 4454   0.567   8.920   1.952 -0.2255 -0.1284 -0.0351
 4455W        W 4455   2.010   4.977   3.466 -0.0428 -0.3151 -0.0646
 4456W        W 4456   6.112   4.526   6.239 -0.2834  0.1729  0.1110
 4457W        W 4457   8.010   3.915   0.553  0.0914 -0.0598 -0.0173
 4458W        W 4458  10.325   9.358   1.807  0.0922  0.3809 -0.0609
 4459W        W 4459   0.847   8.068   1.790 -0.1550  0.1055  0.3695
 4460W        W 4460   4.316   2.893   2.090  0.3147 -0.0335  0.0583
 4461W        W 4461   9.079   8.248  10.329  0.0223 -0.1522  0.0741
 4462W        W 4462   2.827   2.871   8.523  0.4328  0.2001 -0.3017
 4463W        W 4463   3.379   3.437   7.177  0.0679  0.2681 -0.1219
 4464W        W 4464   9.991   1.919   6.089 -0.1730  0.1208  0.1245
 4465W        W 4465   3.998   6.623   4.879  0.0268 -0.3578  0.0135
 4466W        W 4466   1.522   7.688   4.854 -0.0796  0.1825  0.2273
 4467W        W 4467  10.232   3.123   7.747 -0.0763  0.1156 -0.0914
 4468W        W 4468   4.989   4.300   8.579 -0.3059  0.1185  0.2398
 4469W        W 4469   9.871   3.829  10.078 -0.1055 -0.2956  0.0483
 4470W        W 4470   0.095   0.316   6.271  0.0312 -0.0349 -0.1235
 4471W        W 4471   1.629  10.096  10.113 -0.2253 -0.1091  0.2248
 4472W        W 4472   5.107   8.579   5.047 -0.0799 -0.0452 -0.1299
 4473W        W 4473   3.130   1.370   5.175 -0.0206  0.1137  0.1898
 4474W        W 4474   4.406   6.274   3.590  0.1882 -0.1748 -0.1089
 4475W        W 4475   4.558   5.050   0.336 -0.5552 -0.0129  0.0235
 4476W        W 4476   3.044   7.494   9.265 -0.3542 -0.0707 -0.1242
 4477W        W 4477   1.712   8.070   1.358 -0.2495  0.1001  0.3466
 4478W        W 4478   8.459   2.699   7.381 -0.2122  0.1516 -0.1075
 4479W        W 4479   3.574   3.078   9.668  0.1159  0.0544 -0.2015
 4480W        W 4480   9.319   5.941   1.842 -0.1086  0.0216 -0.2406
 4481W        W 4481   0.369   5.856   6.874 -0.2786  0.0925 -0.4733
 4482W        W 4482   2.401   9.772   6.605 -0.2064 -0.0911 -0.0592
 4483W        W 4483   6.304   8.726   7.001  0.3359  0.1949 -0.2924
 4484W        W 4484   7.722   7.033   4.259 -0.1054  0.1344 -0.1924
 4485W        W 4485   9.759   6.082   4.379 -0.2373 -0.6155  0.1562
 4486W        W 4486   2.462   9.853  10.067 -0.3604 -0.0676 -0.1559
 4487W        W 4487   3.916   5.320   0.718 -0.0346  0.0353 -0.0803
 4488W        W 4488   0.932   6.663   6.851  0.2995 -0.0769 -0.0109
 4489W        W 4489   8.501   6.261   2.473 -0.0558  0.1029 -0.0433
 4490W        W 4490   0.927   3.323   3.267  0.0002 -0.0630 -0.0302
 4491W        W 4491   8.737   0.901   0.888  0.2626 -0.0071  0.0385
 4492W        W 4492   4.626   7.569   0.366 -0.0574  0.0466  0.0324
 4493W        W 4493   3.306   0.735   2.735  0.0177 -0.2940 -0.1851
 4494W        W 4494   9.835   9.251   8.616  0.1392 -0.2335 -0.3348
 4495W        W 4495   0.381   0.763   5.606  0.1564  0.1084  0.0475
 4496W        W 4496   6.461   7.646   9.406  0.0082 -0.1932 -0.4860
 4497W        W 4497   3.904   8.277   3.300 -0.3288  0.0390 -0.0075
 4498W        W 4498  10.202   9.968   8.043 -0.0422  0.1488 -0.0437
 4499W        W 4499   2.099   0.427   3.381  0.1819 -0.2479 -0.0813
 4500W        W 4500   2.916   3.225  10.334  0.0365 -0.3387 -0.0001
 4501W        W 4501   2.650   9.123   5.930  0.0131 -0.2584 -0.3353
 4502W        W 4502   7.273   8.544   4.925  0.1230  0.0476  0.0612
 4503W        W 4503   2.640   2.404   6.982  0.2026 -0.3028 -0.0866
 4504W        W 4504   8.578   1.685   8.223 -0.2260  0.0151  0.0688
 4505W        W 4505   4.244   9.526   3.025  0.3002 -0.1824  0.1326
 4506W        W 4506   3.412  10.113   2.399  0.1460 -0.1620  0.1016
 4507W        W 4507   9.029   8.536   1.219  0.1107  0.1436  0.2328
 4508W        W 4508   2.393   2.921   9.897  0.1133  0.0615  0.4665
 4509W        W 4509   3.042   6.727   5.338 -0.0480 -0.2074 -0.0591
 4510W        W 4510  10.192   9.842   6.745  0.1773  0.3267  0.1093
 4511W        W 4511   0.954   5.604   4.774  0.1090 -0.2050  0.0231
 4512W        W 4512   8.420   4.923   2.904 -0.2115  0.0589  0.0310
 4513W        W 4513   9.460   4.086   0.832 -0.1972  0.3488  0.1553
 4514W        W 4514   2.741   3.904   9.161 -0.0910  0.1567 -0.0244
 4515W        W 4515   1.604   2.560   0.016 -0.3546  0.0774 -0.0006
 4516W        W 4516   5.033   8.495   9.549 -0.2554 -0.2280  0.1907
 4517W        W 4517   3.851   9.293   8.652  0.0829  0.1851 -0.1226
 4518W        W 4518   8.569   8.248   6.940  0.0118 -0.1454  0.2411
 4519W        W 4519  10.254   5.834   3.031 -0.2716 -0.1562  0.3288
 4520W        W 4520   5.579   3.777   3.316 -0.1528  0.2332 -0.0740
 4521W        W 4521   7.372   1.813   1.513  0.0018 -0.0160 -0.1616
 4522W        W 4522   1.125   5.227   5.862 -0.2140  0.0276 -0.0312
 4523W        W 4523   6.469   8.995   1.619  0.0991  0.1725 -0.0818
 4524W        W 4524   6.000   3.845   6.997  0.4025  0.3900  0.0421
 4525W        W 4525   3.655  10.157   3.686 -0.0170  0.0310 -0.1698
 4526W        W 4526   8.274   4.467   5.090 -0.3920  0.2328 -0.1933
 4527W        W 4527   2.191   0.659   2.122 -0.1155 -0.1341 -0.0674
 4528W        W 4528   7.343   4.019   2.600 -0.0375 -0.1592  0.2153
 4529W        W 4529   3.871  10.211   1.258 -0.1082  0.3959 -0.1037
 4530W        W 4530   5.276   9.452   5.090 -0.1852 -0.0498 -0.2078
 4531W        W 4531   9.393   0.915  10.297  0.0465 -0.1215 -0.1601
 4532W        W 4532   9.226   6.121   0.480 -0.1564  0.0361 -0.1513
 4533W        W 4533   4.257   9.541   3.833  0.1135  0.2998 -0.0574
 4534W        W 4534   7.747   5.941   1.629 -0.1454 -0.1059  0.3061
 4535W        W 4535   8.294   4.099   2.487  0.3527 -0.0093  0.0792
 4536W        W 4536   3.772   9.602   4.506  0.1850 -0.0044 -0.3808
 4537W        W 4537   4.680  10.302   3.227 -0.0858  0.1480  0.2827
 4538W        W 4538   5.074   4.789   9.377  0.0215 -0.0445 -0.1002
 4539W        W 4539   4.203   0.763   7.468  0.2156  0.0975 -0.0239
 4540W        W 4540   2.155   7.671   3.480 -0.0830 -0.3020  0.1317
 4541W        W 4541   3.813  10.134   3.176 -0.1508  0.0720  0.1960
 4542W        W 4542   0.637   2.558   2.410  0.2478 -0.2950  0.1105
 4543W        W 4543   8.086   2.189   4.552  0.1425 -0.1843  0.1637
 4544W        W 4544   8.072   0.968   4.658  0.1276 -0.1963 -0.3257
 4545W        W 4545   8.683   4.973   8.261 -0.1208  0.2710 -0.1425
 4546W        W 4546   2.215   2.161   8.401  0.0160 -0.0096  0.0315
 4547W        W 4547   0.627   7.306   9.427  0.1186  0.3402  0.1955
 4548W        W 4548   6.124   8.580   0.514  0.1377  0.0447 -0.0841
 4549W        W 4549   3.497   9.264   9.036  0.0727 -0.0343 -0.1106
 4550W        W 4550   2.299   7.751  10.010 -0.0583  0.1534 -0.1924
 4551W        W 4551   9.220   4.646   2.977 -0.1354  0.2650 -0.2207
 4552W        W 4552   0.137   1.556   9.932  0.2740  0.2123  0.0417
 4553W        W 4553  10.327   3.291   5.869 -0.1537  0.3321  0.0918
 4554W        W 4554   2.342   5.362   0.703 -0.1291 -0.1944  0.0523
 4555W        W 4555   2.670   3.441   5.400 -0.3238 -0.1855 -0.0596
 4556W        W 4556   5.196   6.607   8.688  0.1587 -0.0477  0.0323
 4557W        W 4557   0.214   5.718   8.658 -0.0393  0.1093  0.1409
 4558W        W 4558   8.717   9.344   5.058 -0.0221  0.1327  0.3697
 4559W        W 4559   1.981   3.800   0.616 -0.0274  0.0285  0.0938
 4560W        W 4560   4.350   7.335   5.327 -0.0993 -0.2743  0.2210
 4561W        W 4561   6.394   7.196   3.338 -0.1833 -0.1869  0.4502
 4562W        W 4562   9.311   1.362   0.446  0.0292 -0.1763  0.0371
 4563W        W 4563   6.798   5.737   8.470 -0.0733 -0.1348  0.0864
 4564W        W 4564   4.237   8.087   9.679 -0.4365 -0.0280  0.1871
 4565W        W 4565   8.783   6.167   1.097  0.1044 -0.0569 -0.2969
 4566W        W 4566   5.721  10.224   1.146  0.3711  0.0697  0.0927
 4567W        W 4567   1.150   8.114   6.469  0.1302  0.1076  0.0843
 4568W        W 4568   2.660   3.312   3.445 -0.2723 -0.1862  0.0279
 4569W        W 4569   9.414   5.251   6.697 -0.2755  0.2561  0.2269
 4570W        W 4570   0.845   9.939   2.047  0.0190  0.0091  0.0865
 4571W        W 4571   4.310  10.272   0.157  0.1665 -0.1030  0.3651
 4572W        W 4572   3.712   4.498   8.541 -0.2880 -0.4638  0.3461
 4573W        W 4573   0.679   2.125   8.581 -0.0357  0.0055 -0.0311
 4574W        W 4574   5.481   0.648   8.409  0.2842  0.1472 -0.0503
 4575W        W 4575   3.963   0.239   5.913  0.2583 -0.0534  0.3459
 4576W        W 4576   8.605   2.987   9.583 -0.2185  0.3576  0.1013
 4577W        W 4577   8.319   2.126   8.015  0.1066 -0.0890 -0.1835
 4578W        W 4578   5.553   4.198   0.174  0.0281 -0.2554  0.1183
 4579W        W 4579   0.457   7.739   1.973  0.0273 -0.0189 -0.2310
 4580W        W 4580   7.272   5.301   3.175  0.2458 -0.3048 -0.0911
 4581W        W 4581   9.263   6.590   1.867  0.0183  0.3257 -0.0556
 4582W        W 4582   2.518   0.243   5.894  0.1644  0.1293  0.3242
 4583W        W 4583   7.217   7.195   6.126  0.2747  0.0981  0.0402
 4584W        W 4584   5.712   9.069   4.751  0.2904 -0.0118  0.0552
 4585W        W 4585   3.942   6.542   4.322  0.1593 -0.2362  0.1192
 4586W        W 4586   7.848   7.695   7.773  0.2691 -0.1810 -0.0735
 4587W        W 4587   1.268   2.131   5.102  0.1265 -0.2150  0.1043
 4588W        W 4588   5.806   8.817   6.957  0.1194 -0.3176  0.1267
 4589W        W 4589   8.828   3.703   3.259 -0.2041  0.0789 -0.0295
 4590W        W 4590   5.535   9.080   3.757  0.3079 -0.3086  0.0374
 4591W        W 4591   6.177   0.597   3.060  0.2649 -0.0227 -0.0761
 4592W        W 4592   6.310   7.735   1.541  0.0909  0.1137  0.1917
 4593W        W 4593   6.261   7.873   7.427  0.4630 -0.1511 -0.0018
 4594W        W 4594   5.849   0.495   3.808 -0.0868 -0.3024  0.2541
 4595W        W 4595   4.399   8.815   0.286 -0.0734  0.3077 -0.0190
 4596W        W 4596   0.516   0.496   0.300 -0.1319  0.2217 -0.1621
 4597W        W 4597   9.614   6.485   3.298  0.1980  0.2149 -0.0443
 4598W        W 4598   4.696  10.238   3.881  0.0338  0.1027  0.1340
 4599W        W 4599   2.139   4.999   0.108  0.0761  0.1432 -0.1419
 4600W        W 4600   9.529  10.144   8.641 -0.0123  0.0190 -0.4974
 4601W        W 4601   7.526   6.698   3.852 -0.1849 -0.2340  0.0443
 4602W        W 4602   3.829   7.391   5.574 -0.0228 -0.0220  0.0616
 4603W        W 4603   2.359   7.453   6.781 -0.0485  0.0274 -0.0307
 4604W        W 4604   6.956   8.673   0.578 -0.0540  0.0376  0.2075
 4605W        W 4605   6.908   4.820   2.356  0.1194  0.0820 -0.0656
 4606W        W 4606   7.596   6.768   0.140  0.3519  0.2272  0.2680
 4607W        W 4607   7.594   1.894   8.810  0.0581 -0.1842 -0.1382
 4608W        W 4608   7.747   0.219   6.936  0.2203 -0.2439  0.0409
 4609W        W 4609   8.439   7.054   4.973 -0.0850 -0.0019  0.5680
 4610W        W 4610   3.243   4.212   1.162 -0.1366 -0.1869  0.0940
 4611W        W 4611   0.474   1.791   2.981 -0.0076 -0.2118 -0.2652
 4612W        W 4612   1.944   6.948   9.961 -0.1457  0.0548 -0.0631
 4613W        W 4613   3.312   2.652   9.976  0.0497  0.1055 -0.1273
 4614W        W 4614   0.767   4.766   7.954  0.4207 -0.1993  0.2798
 4615W        W 4615   8.035   8.847   2.161 -0.4263 -0.1060 -0.2297
 4616W        W 4616   9.236   6.856   8.834  0.0208 -0.2636 -0.1333
 4617W        W 4617   2.578  10.232   2.709  0.2919 -0.2095 -0.1014
 4618W        W 4618   0.119   9.954   0.284  0.1717 -0.1907 -0.4142
 4619W        W 4619  10.075   5.034   6.904 -0.3487 -0.1765 -0.2366
 4620W        W 4620   4.256   3.275   9.301  0.1522 -0.4672 -0.2276
 4621W        W 4621   7.666   1.791   7.726  0.1225 -0.1566  0.1711
 4622W        W 4622   6.994   1.928   3.784 -0.1726 -0.0485 -0.0719
 4623W        W 4623   1.133   5.158   1.442  0.0783 -0.1485  0.0795
 4624W        W 4624   4.033   1.629   7.140 -0.1610 -0.1640 -0.0846
 4625W        W 4625   8.402   4.866   4.727  0.2227 -0.3371 -0.0092
 4626W        W 4626   4.519   3.342   7.652  0.1511 -0.0960  0.1054
 4627W        W 4627   7.390   7.465   1.790 -0.3273  0.1400 -0.1673
 4628W        W 4628   2.017   6.995   1.522  0.0822 -0.1310 -0.0132
 4629W        W 4629   7.536   8.336   6.401  0.0175 -0.2127 -0.1340
 4630W        W 4630   7.483   7.888   9.568 -0.0690 -0.1726  0.0141
 4631W        W 4631   0.763   1.059   6.208 -0.0202 -0.2024 -0.1755
 4632W        W 4632   0.758   8.791   8.132  0.0257  0.0442  0.1626
 4633W        W 4633   1.111   0.855   1.006 -0.3508  0.1562  0.3932
 4634W        W 4634   6.832   6.803   8.071 -0.1233  0.2029 -0.1432
 4635W        W 4635  10.304   5.002   7.840 -0.1017  0.0975 -0.2150
 4636W        W 4636   1.984  10.149   7.842  0.0220 -0.1216  0.1309
 4637W        W 4637   0.036   0.715   8.086  0.0740 -0.1765 -0.2173
 4638W        W 4638   5.078   1.477   1.214 -0.1700 -0.1118  0.1289
 4639W        W 4639   3.575   6.957   4.835 -0.0314  0.1200 -0.0724
 4640W        W 4640   3.629   4.280   9.002 -0.2750  0.1969 -0.1900
 4641W        W 4641   1.410   5.912   4.932  0.2278 -0.0913  0.3577
 4642W        W 4642   1.174  10.194   0.540  0.1714  0.1593 -0.4103
 4643W        W 4643   3.836   5.749  10.169 -0.1984  0.1485  0.0216
 4644W        W 4644   3.691   7.385   1.821 -0.0389 -0.1068  0.2745
 4645W        W 4645   8.235   7.914   3.426 -0.2166 -0.2392 -0.2659
 4646W        W 4646   9.478  10.258   6.438  0.0394  0.0547 -0.0860
 4647W        W 4647  10.016   8.139   1.067  0.3493  0.2267  0.2200
 4648W        W 4648   0.481   3.557   1.206 -0.0681 -0.0638  0.0335
 4649W        W 4649   6.455   9.977   6.411 -0.1291 -0.3034  0.2083
 4650W        W 4650   0.500   8.626   6.437  0.0186  0.0100  0.1603
 4651W        W 4651   5.479   2.397   3.101 -0.2137  0.2029  0.2897
 4652W        W 4652   2.195   7.386   4.874 -0.1114 -0.1425  0.2883
 4653W        W 4653   0.613   1.291   8.318 -0.1332 -0.0532  0.0275
 4654W        W 4654   5.145   6.984   4.375  0.0048 -0.2657 -0.1857
 4655W        W 4655   2.497   8.524   3.331  0.3719 -0.1748  0.2970
 4656W        W 4656   9.277   9.275   3.407 -0.0601 -0.0181 -0.1285
 4657W        W 4657   8.522   3.398   2.608 -0.5496 -0.1919 -0.0663
 4658W        W 4658   3.803   7.701   8.259  0.0721  0.0044 -0.2563
 4659W        W 4659   6.106   1.827   0.469 -0.0012 -0.1658 -0.0461
 4660W        W 4660   9.522   1.383   5.488 -0.0069 -0.0464  0.0584
 4661W        W 4661   9.698   2.248   3.358 -0.1893 -0.3511  0.0392
 4662W        W 4662  10.329   5.366   2.169  0.0096 -0.0936 -0.0352
 4663W        W 4663   9.666   1.338  10.333 -0.0086  0.1281  0.0708
 4664W        W 4664   9.182   2.339   4.326  0.0339  0.1140 -0.0914
 4665W        W 4665   0.209   3.278   2.079  0.1060 -0.0484 -0.3470
 4666W        W 4666   9.772   5.048   5.299 -0.0675 -0.2895 -0.2194
 4667W        W 4667   5.776   4.784   8.545 -0.0483  0.0367  0.3159
 4668W        W 4668   8.782   3.111   1.785  0.4550  0.1271 -0.0583
 4669W        W 4669   4.571   4.768   1.922 -0.4324  0.1422 -0.1669
 4670W        W 4670   1.524   1.336   2.660  0.0646  0.0117  0.2269
 4671W        W 4671   9.843   0.470   9.214 -0.0190  0.2343  0.0009
 4672W        W 4672   3.331   7.973   5.432  0.2593  0.0489  0.1128
 4673W        W 4673   5.859   0.158   9.986 -0.4358 -0.1118  0.0530
 4674W        W 4674   5.770   3.062   0.289  0.0050 -0.1249  0.1838
 4675W        W 4675   6.109   4.723   5.697 -0.1348 -0.1466  0.2009
 4676W        W 4676   7.560   8.187   4.273 -0.0346  0.1796  0.1386
 4677W        W 4677   6.267   1.227   3.781 -0.0268  0.1506 -0.0493
 4678W        W 4678   1.163   1.963   8.952 -0.2300  0.0100 -0.0842
 4679W        W 4679   8.707   3.568   7.485 -0.1569 -0.3398 -0.0712
 4680W        W 4680   6.893   0.644   3.000 -0.0804  0.1507 -0.0998
 4681W        W 4681   5.937   7.386   2.607  0.0618 -0.0406 -0.0877
 4682W        W 4682   5.911   1.753   9.765  0.2331 -0.0218  0.0205
 4683W        W 4683   1.445   0.066   1.390 -0.4212 -0.1285  0.0697
 4684W        W 4684   6.733   7.316   6.794  0.2597  0.0987 -0.0497
 4685W        W 4685   0.425   0.552   8.866  0.1704  0.1516  0.0195
 4686W        W 4686  10.292   6.963   3.969 -0.1617 -0.1067 -0.1320
 4687W        W 4687   2.440   7.175   3.359 -0.0386 -0.0774  0.0915
 4688W        W 4688   4.371   7.015   2.029  0.0655  0.2464  0.1243
 4689W        W 4689   8.026   7.975   9.233 -0.0704 -0.2102 -0.1731
 4690W        W 4690   6.607  10.058   3.126 -0.2441 -0.3153  0.1408
 4691W        W 4691   8.684   7.745   8.767  0.0511 -0.1208 -0.1284
 4692W        W 4692   7.719   2.302   2.215  0.0398  0.1996 -0.1164
 4693W        W 4693   9.392   2.187   9.388 -0.2044 -0.0536  0.1488
 4694W        W 4694   6.097   6.612   9.487 -0.2312  0.0264  0.0671
 4695W        W 4695   6.419   7.863   3.241 -0.0460  0.2288 -0.3752
 4696W        W 4696   5.909   3.142   6.997  0.2963  0.1640 -0.1189
 4697W        W 4697   0.035   4.835   2.202  0.0538 -0.1150 -0.1752
 4698W        W 4698   4.289   8.566   3.168  0.3669  0.1510  0.1138
 4699W        W 4699   0.864   4.850  10.160  0.0448 -0.1066  0.2421
 4700W        W 4700   2.843   2.356   3.500  0.0436  0.0640 -0.2813
 4701W        W 4701   6.241   5.575   1.215 -0.0860 -0.0892 -0.2560
 4702W        W 4702   6.015   4.336   4.084 -0.0557  0.0567  0.0026
 4703W        W 4703   6.878   2.235   9.697  0.1712 -0.3983  0.0526
 4704W        W 4704   0.990   4.153   5.350 -0.1974  0.2325  0.1339
 4705W        W 4705   8.069   6.433   3.436 -0.2680  0.2425  0.0699
 4706W        W 4706   4.739   0.327   5.589  0.0923 -0.2399 -0.0458
 4707W        W 4707   5.976   5.736   0.506  0.0620  0.2145  0.2433
 4708W        W 4708   6.671   8.007   7.744  0.0337  0.0162  0.1300
 4709W        W 4709   8.787   5.874   9.613 -0.3521  0.0210  0.3636
 4710W        W 4710   3.717   8.487   8.733 -0.3878  0.0497 -0.2092
 4711W        W 4711   5.369   1.106   4.442 -0.0010 -0.2655  0.0905
 4712W        W 4712   1.056   9.476   5.442  0.2074  0.2558 -0.1604
 4713W        W 4713   8.837   5.893   3.905  0.0144  0.0916  0.0468
 4714W        W 4714   0.553   8.424   1.991 -0.2550  0.0408 -0.0938
 4715W        W 4715   4.025   4.629   4.421 -0.0583  0.0160 -0.1178
 4716W        W 4716   6.542   4.347   2.471  0.4878  0.0480 -0.1514
 4717W        W 4717   6.495   3.654   4.960  0.1513  0.0516  0.1192
 4718W        W 4718   8.440   1.561   8.755  0.2144 -0.0242  0.3339
 4719W        W 4719   0.444   4.711   4.698  0.1509  0.1914  0.2337
 4720W        W 4720   1.432   3.245   8.773 -0.1837 -0.0839  0.0459
 4721W        W 4721   6.246   0.824   1.883 -0.2642  0.2404  0.2432
 4722W        W 4722   2.140   6.522   4.991 -0.1513  0.2229  0.1186
 4723W        W 4723   8.466   2.059   3.406 -0.3757 -0.0404 -0.0618
 4724W        W 4724   7.222   2.407   1.311  0.2779 -0.0253  0.1655
 4725W        W 4725   7.851   8.360   2.384 -0.2580  0.0826  0.0336
 4726W        W 4726   3.870   3.219   7.306 -0.3766  0.1674  0.0921
 4727W        W 4727   0.088   3.293   3.044  0.1493 -0.2283 -0.3037
 4728W        W 4728   3.051   2.619   1.978  0.0195 -0.1604  0.0035
 4729W        W 4729   2.914   6.465   4.550 -0.0988  0.1281 -0.0046
 4730W        W 4730   0.182   9.856   7.360  0.1051  0.2348  0.1560
 4731W        W 4731   3.465   5.727   9.322 -0.1101  0.0137 -0.0394
 4732W        W 4732   1.259   1.704   2.874  0.1936  0.0277 -0.1382
 4733W        W 4733   1.400   7.026   2.816 -0.1123 -0.1166  0.1690
 4734W        W 4734   5.968   7.418   4.028  0.0744  0.0515  0.1931
 4735W        W 4735   1.483   2.837   2.859  0.1067  0.1923  0.2525
 4736W        W 4736   0.914   2.302   0.602  0.1600 -0.1545 -0.1475
 4737W        W 4737   3.166   9.532   1.473  0.1417 -0.0420 -0.3411
 4738W        W 4738   6.503   8.130   2.709  0.1218 -0.0087 -0.0880
 4739W        W 4739   9.553   6.430   0.287 -0.0600 -0.2613  0.1599
 4740W        W 4740   4.014   6.766   1.567  0.1080  0.1241 -0.0073
 4741W        W 4741   6.633   5.489   4.587 -0.5537  0.0448  0.0800
 4742W        W 4742   8.844   9.756   9.226 -0.1018  0.1057 -0.1247
 4743W        W 4743   7.407   2.072   2.527  0.0736  0.0116  0.1267
 4744W        W 4744   4.934   5.208   5.684 -0.1334  0.1741  0.1066
 4745W        W 4745   9.744   5.531   2.489 -0.0113  0.2038 -0.1166
 4746W        W 4746   0.808   7.770   9.484 -0.2280  0.1450 -0.1020
 4747W        W 4747   3.846   1.403   3.967 -0.3392  0.3410 -0.0332
 4748W        W 4748   2.428   6.785   0.746 -0.2323  0.0377 -0.0678
 4749W        W 4749   3.578   5.470   1.527  0.0298  0.0617  0.0261
 4750W        W 4750   1.571   5.260   7.067 -0.1695  0.2881  0.0110
 4751W        W 4751   2.345  10.197   9.311  0.2261  0.0565 -0.1003
 4752W        W 4752   5.882   2.750   3.203 -0.1033 -0.3906 -0.1833
 4753W        W 4753   7.091   1.229   7.600  0.0011  0.2070 -0.1307
 4754W        W 4754   5.812   8.927   0.723 -0.3410  0.1154 -0.0629
 4755W        W 4755   5.913   3.133   9.630  0.2937  0.0536  0.1737
 4756W        W 4756   9.449   2.532   5.505 -0.0270 -0.3358  0.3883
 4757W        W 4757   1.365  10.292   2.171 -0.0221 -0.0103 -0.1447
 4758W        W 4758   6.246   3.973   9.755 -0.3170 -0.0066  0.1458
 4759W        W 4759   3.195   1.560   6.874  0.0080 -0.0974 -0.2119
 4760W        W 4760   5.338   5.755   6.902 -0.1572 -0.0792 -0.1181
 4761W        W 4761   6.695   2.247   3.096 -0.1064  0.1498 -0.1750
 4762W        W 4762   5.616   3.939   6.129  0.1195 -0.1632  0.0157
 4763W        W 4763   7.782   2.694   1.146 -0.4993 -0.0413  0.1959
 4764W        W 4764   2.778   8.044   8.295 -0.1385 -0.0380 -0.2546
 4765W        W 4765   4.689   9.328   4.775  0.0288  0.2242  0.0960
 4766W        W 4766   1.552   1.691   3.374  0.1587 -0.2219 -0.0234
 4767W        W 4767   5.920   1.719   0.001 -0.1751  0.2430 -0.0312
 4768W        W 4768   5.142   3.311   8.908  0.3204 -0.1561 -0.1500
 4769W        W 4769   5.837   7.410   2.141  0.0182  0.2196 -0.2001
 4770W        W 4770   2.542   9.444   8.861 -0.1450  0.0604  0.0937
 4771W        W 4771   1.225   4.530   0.524 -0.2301 -0.1842 -0.1606
 4772W        W 4772  10.335   7.568   5.916  0.2893  0.0896  0.0994
 4773W        W 4773   5.170   5.321   6.783  0.2264 -0.3207  0.5188
 4774W        W 4774   5.713   4.062   2.858 -0.1362 -0.2348 -0.5191
 4775W        W 4775   5.639   8.533   7.871  0.3157 -0.3229 -0.0885
 4776W        W 4776   4.404   0.321   4.037 -0.1516  0.4745 -0.1466
 4777W        W 4777   3.642   7.466   9.319  0.2452 -0.0968 -0.0071
 4778W        W 4778   1.866   1.730   4.221  0.1145 -0.1694 -0.1458
 4779W        W 4779   1.594   9.925   8.166 -0.1013  0.1915  0.2018
 4780W        W 4780   7.616   6.369   7.593  0.0155  0.0626 -0.1653
 4781W        W 4781   3.535  10.033   4.505 -0.2218  0.0484 -0.2786
 4782W        W 4782   6.416   8.329   7.319 -0.1935  0.2201 -0.0769
 4783W        W 4783   8.267   9.045   5.042 -0.0499 -0.0400  0.0911
 4784W        W 4784   4.746   8.622   2.145  0.1206 -0.1613 -0.1637
 4785W        W 4785   0.784   6.878   0.044  0.0962 -0.3947 -0.5208
 4786W        W 4786   9.957   6.063   7.937  0.0260  0.1531  0.2438
 4787W        W 4787   3.938   4.564   7.871  0.0511 -0.0052  0.1069
 4788W        W 4788   8.461   7.684   4.780  0.4136 -0.1386  0.0590
 4789W        W 4789   3.908   5.547   3.444  0.1331 -0.2105  0.0077
 4790W        W 4790   7.019   7.584   6.456 -0.0413  0.2105  0.1328
 4791W        W 4791   5.564   4.899   9.906  0.0630  0.1183 -0.3111
 4792W        W 4792   1.976   9.725   0.955 -0.0836 -0.1944 -0.2107
 4793W        W 4793   6.734   6.371   5.025 -0.5096  0.1421 -0.2918
 4794W        W 4794   5.862   4.682   0.311 -0.0479  0.2543  0.1014
 4795W        W 4795   8.900   3.448   9.740 -0.0727 -0.0282  0.0062
 4796W        W 4796   4.310  10.102   0.601  0.2490 -0.3724 -0.2665
 4797W        W 4797   0.378   3.837   6.142 -0.1026  0.1940 -0.1946
 4798W        W 4798   7.867   4.830   9.343  0.2601 -0.0032 -0.3467
 4799W        W 4799   9.113   9.127   2.834  0.1413 -0.1622  0.3569
 4800W        W 4800   2.907   7.646   1.925 -0.4041 -0.1477  0.0213
 4801W        W 4801   4.279   1.620   3.751 -0.3163  0.2950 -0.1466
 4802W        W 4802   2.757   8.286   7.579  0.0631  0.0304 -0.0686
 4803W        W 4803   2.987   8.617   0.903 -0.1812 -0.1731  0.1509
 4804W        W 4804   9.132   4.080   9.808 -0.1986  0.0629 -0.3926
 4805W        W 4805   5.398   4.634   8.861  0.1078 -0.0921  0.0330
 4806W        W 4806   8.509   0.420   3.244  0.0919 -0.1843  0.2114
 4807W        W 4807   3.044   1.144   1.861 -0.1779 -0.0563  0.0702
 4808W        W 4808   7.985   8.311   6.207 -0.2831 -0.2160  0.0543
 4809W        W 4809   9.839   5.393   5.655 -0.2261  0.2399  0.1865
 4810W        W 4810   6.888   1.073   8.150 -0.0670 -0.1847  0.2452
 4811W        W 4811   2.389   6.276   2.673  0.1503 -0.1402  0.2088
 4812W        W 4812   4.336   7.889   1.915 -0.1888  0.0437  0.0543
 4813W        W 4813   0.621   6.717   3.892  0.1854  0.2766  0.0072
 4814W        W 4814   4.884  10.296   7.367  0.0378  0.0544 -0.0619
 4815W        W 4815   6.809   1.413   2.505  0.0450 -0.0602 -0.0481
 4816W        W 4816   4.709   1.208   0.675  0.0403  0.0629  0.1347
 4817W        W 4817   7.686   0.939   1.173  0.0278 -0.0670 -0.2568
 4818W        W 4818   6.477   3.865   8.506 -0.0670  0.1522 -0.2569
 4819W        W 4819   9.195   9.772   8.854  0.2016 -0.0892  0.0731
 4820W        W 4820   1.014   5.618   2.386  0.0926  0.2355  0.3827
 4821W        W 4821   2.737   8.125   3.053 -0.1246 -0.0882  0.0533
 4822W        W 4822   1.007   0.363   4.894 -0.2539  0.1451  0.1060
 4823W        W 4823   8.530   3.879   5.776 -0.0871  0.0655  0.2813
 4824W        W 4824   2.327   8.135   2.352 -0.0437  0.1416  0.2415
 4825W        W 4825   7.783   4.781   3.502 -0.0422  0.3418  0.2224
 4826W        W 4826   1.501  10.109   6.403  0.2856  0.0027  0.1145
 4827W        W 4827   6.261   4.758   9.353 -0.0363 -0.3278 -0.1450
 4828W        W 4828   1.963   4.583   8.547  0.2608 -0.1105  0.0734
 4829W        W 4829   2.270   1.684   9.367 -0.2258 -0.1742  0.2690
 4830W        W 4830   2.024   7.739   6.095  0.0643 -0.1108  0.2026
 4831W        W 4831   1.930   7.427   9.199 -0.0449  0.0081  0.0525
 4832W        W 4832   6.028   4.849   0.801  0.2071  0.0817 -0.0631
 4833W        W 4833   5.480   6.134   8.731 -0.2999  0.1331 -0.0806
 4834W        W 4834   9.637   9.707   0.055  0.3039 -0.0728 -0.0013
 4835W        W 4835   7.088   5.688   7.880 -0.0263 -0.1727 -0.2156
 4836W        W 4836   9.546   7.103   3.870 -0.1652  0.2370  0.1470
 4837W        W 4837   8.038   1.886   6.159 -0.0737 -0.2827 -0.0504
 4838W        W 4838   1.036   1.819   4.095 -0.0608 -0.1938 -0.2577
 4839W        W 4839   9.782   1.401   1.585  0.2192 -0.2559  0.1658
 4840W        W 4840   5.777   4.488   3.263 -0.0757  0.0888  0.1070
 4841W        W 4841   6.899   8.424   0.019  0.3261  0.2380 -0.0657
 4842W        W 4842   6.578   7.664   9.917  0.1812 -0.1475 -0.2449
 4843W        W 4843   7.226   2.919   9.342  0.0973 -0.0240  0.5673
 4844W        W 4844   5.034   8.899   6.001 -0.1239 -0.3663  0.0568
 4845W        W 4845   9.545   0.002   5.615 -0.0184  0.0481 -0.2195
 4846W        W 4846   1.108   5.560   4.199  0.3124  0.1590 -0.1029
 4847W        W 4847   0.042   7.678   0.313  0.0440  0.2692  0.1156
 4848W        W 4848   5.211   4.447   7.719 -0.0263  0.0634  0.3234
 4849W        W 4849   4.192   9.555   4.807  0.2379 -0.1353  0.1294
 4850W        W 4850   5.508   2.815   4.284 -0.3934 -0.1387  0.0716
 4851W        W 4851   6.059   1.971   6.537  0.0234 -0.0541 -0.1165
 4852W        W 4852   0.293   1.370   3.271  0.0151  0.0085  0.3003
 4853W        W 4853   9.774   0.770   4.905  0.1503 -0.1238  0.1804
 4854W        W 4854   6.035   7.520   9.292  0.2150 -0.1614  0.0205
 4855W        W 4855   2.945   6.639   1.995  0.0370  0.0988  0.0923
 4856W        W 4856   3.182   0.392   6.896 -0.2789 -0.0679  0.0544
 4857W        W 4857   8.274   7.294   9.570 -0.0379 -0.2392  0.0746
 4858W        W 4858   6.245   7.988   9.721 -0.1991 -0.0200  0.3893
 4859W        W 4859   3.863   3.238   0.218 -0.0260 -0.1747  0.3142
 4860W        W 4860   8.811   0.337   9.306  0.4716 -0.3980  0.1474
 4861W        W 4861   7.358   5.501   2.694  0.0348 -0.1592 -0.0093
 4862W        W 4862   3.400   1.753  10.222  0.1022 -0.0185  0.3165
 4863W        W 4863   4.155   0.233   7.812 -0.2075 -0.2262  0.0522
 4864W        W 4864   1.793   7.763   7.383  0.2311 -0.1520 -0.1381
 4865W        W 4865   8.033   8.605   1.309 -0.1484 -0.4495  0.1164
 4866W        W 4866   9.627   0.743   6.755  0.6009 -0.0563 -0.2336
 4867W        W 4867   1.656   9.874   4.342 -0.1950 -0.0315  0.3590
 4868W        W 4868   1.048   0.409   0.303  0.2797  0.2737 -0.1197
 4869W        W 4869   6.712   2.876   5.092  0.0444 -0.3199 -0.0091
 4870W        W 4870   9.934   5.714  10.131 -0.1954  0.3343 -0.0660
 4871W        W 4871   2.367   5.912   0.619  0.0258  0.3666 -0.3093
 4872W        W 4872   9.807   5.743   4.805 -0.1289  0.2921 -0.1428
 4873W        W 4873   9.684   8.198   0.526  0.2854  0.0922 -0.0539
 4874W        W 4874   0.600   6.352   7.965  0.2499  0.0925 -0.0327
 4875W        W 4875   5.529   7.289   2.896 -0.1732 -0.0879 -0.0079
 4876W        W 4876   5.046   1.772   3.366  0.0586 -0.1535  0.1809
 4877W        W 4877   7.646  10.019   6.959  0.0560  0.0576 -0.2697
 4878W        W 4878   3.367   6.260   4.173 -0.0278 -0.0710 -0.1664
 4879W        W 4879   0.073   5.566   0.163 -0.0242  0.0374  0.0456
 4880W        W 4880   0.097   1.772   7.107  0.1381  0.0343 -0.1543
 4881W        W 4881   7.858   8.260   7.955  0.1732 -0.2725 -0.2685
 4882W        W 4882   7.491   7.232   7.170  0.1085  0.3916 -0.1755
 4883W        W 4883   8.116   7.328   6.449 -0.2700  0.2100 -0.1049
 4884W        W 4884   1.786   4.623   9.198  0.0056  0.0669  0.1748
 4885W        W 4885   0.171   2.251   8.591 -0.3080  0.2106 -0.1686
 4886W        W 4886   5.915   1.228   5.379 -0.0562  0.1872 -0.2625
 4887W        W 4887   4.683   4.083   8.194 -0.0334 -0.1306 -0.3871
 4888W        W 4888   4.942   1.217   5.221  0.2426 -0.2330  0.0138
 4889W        W 4889   0.705   5.665   7.857  0.1313 -0.0441  0.1961
 4890W        W 4890   4.827   2.186   1.824 -0.0344 -0.0084 -0.2148
 4891W        W 4891   2.969   6.184   5.184  0.0678 -0.2533 -0.2081
 4892W        W 4892   9.340   0.194   9.227  0.0502  0.0274 -0.3022
 4893W        W 4893   8.115   0.573   4.939 -0.2376  0.2160  0.4267
 4894W        W 4894   5.521   5.019   2.344 -0.0533  0.1742  0.0326
 4895W        W 4895   3.848   4.752   1.556  0.1823  0.1811  0.0370
 4896W        W 4896   3.707   6.662   8.031  0.0501  0.0998 -0.0973
 4897W        W 4897   8.921   2.519   1.814 -0.1297  0.2494 -0.2551
 4898W        W 4898   0.231   1.539   8.780 -0.3339  0.0774  0.1261
 4899W        W 4899   1.326   0.691   2.793 -0.0057  0.0080  0.1891
 4900W        W 4900   3.244   1.084   9.549  0.0787 -0.0873 -0.1811
 4901W        W 4901   9.388   1.668   9.913 -0.1517 -0.2524 -0.0297
 4902W        W 4902   9.577   4.987   9.046 -0.2366  0.1695 -0.2572
 4903W        W 4903   5.755   2.657   0.921  0.0290 -0.0222 -0.2103
 4904W        W 4904   6.306   6.969   3.833 -0.1021 -0.4317  0.0519
 4905W        W 4905   8.835   4.480   8.394  0.0461  0.0212  0.2382
 4906W        W 4906  10.116   4.593   0.646 -0.0012 -0.0799 -0.2171
 4907W        W 4907   3.421   7.502   5.786 -0.0899  0.3263 -0.2335
 4908W        W 4908   0.041   2.429   1.773 -0.0355 -0.1104 -0.1163
 4909W        W 4909   8.034   5.313   7.772 -0.2662  0.4488 -0.1699
 4910W        W 4910   2.650   2.574   4.963 -0.3099 -0.0537 -0.0848
 4911W        W 4911   1.544   2.623   3.552 -0.0125  0.2915  0.1891
 4912W        W 4912   8.102   4.397   3.416  0.0560 -0.1820 -0.0390
 4913W        W 4913   4.695   2.917   4.116 -0.0954 -0.0491 -0.0323
 4914W        W 4914   6.466   0.895   8.016 -0.2633  0.1587  0.0453
 4915W        W 4915   5.553   1.237   7.658  0.1788  0.2847 -0.3150
 4916W        W 4916   6.157   5.999   3.855 -0.0549  0.4304 -0.1631
 4917W        W 4917   4.762   9.233   9.940 -0.1742  0.0732 -0.1907
 4918W        W 4918   0.759   4.176   0.439 -0.1874 -0.1122 -0.0994
 4919W        W 4919   8.333   3.146   6.621 -0.0580 -0.2274 -0.2688
 4920W        W 4920   3.262   9.855   4.073 -0.0271 -0.0586 -0.0242
 4921W        W 4921   0.338   0.879   9.844  0.0658  0.0920 -0.0971
 4922W        W 4922   6.623   0.618  10.315 -0.0746  0.0398 -0.3228
 4923W        W 4923   5.663   8.453   0.026 -0.1174 -0.0353 -0.2001
 4924W        W 4924   4.780   3.612   0.856  0.0620 -0.1962  0.0451
 4925W        W 4925   9.288   1.689   9.328  0.1264  0.2223  0.0223
 4926W        W 4926   1.738   1.334   6.773 -0.0651 -0.1638 -0.0812
 4927W        W 4927   7.460   0.906   2.961 -0.1893  0.1255  0.1549
 4928W        W 4928   1.571   6.091   6.590  0.2151 -0.2028 -0.1914
 4929W        W 4929   1.856   2.554   3.055  0.1299 -0.2583  0.0530
 4930W        W 4930   1.575   1.216   7.802  0.0035 -0.1367 -0.0319
 4931W        W 4931   3.947   7.688   8.897  0.3233  0.0673 -0.0859
 4932W        W 4932   4.749   8.543   8.470  0.0524  0.0062 -0.1251
 4933W        W 4933   3.826   8.831   3.202 -0.0314 -0.1781  0.0765
 4934W        W 4934   4.136   4.758   8.380  0.0017 -0.0491  0.0634
 4935W        W 4935   3.275   9.093   8.209  0.0025 -0.1141 -0.0739
 4936W        W 4936   2.491   5.781   1.804 -0.4129 -0.0358 -0.1858
 4937W        W 4937   6.139   3.474   4.037 -0.0946 -0.1278  0.1638
 4938W        W 4938  10.186   8.060   0.503 -0.1618 -0.0575  0.0993
 4939W        W 4939   9.415   2.564   9.727  0.1817  0.0752  0.4638
 4940W        W 4940   6.996   6.434   3.807  0.1796 -0.2206  0.4009
 4941W        W 4941   1.113   1.074   7.864 -0.3755  0.0500  0.0086
 4942W        W 4942   8.134   1.966   9.487 -0.3699  0.0542  0.1966
 4943W        W 4943   6.818   4.880   3.874 -0.1156  0.1097 -0.1267
 4944W        W 4944   6.816   6.144   5.530  0.2475  0.0808 -0.2771
 4945W        W 4945   3.261   5.367   3.875  0.1419  0.1966  0.1406
 4946W        W 4946   1.115   2.280   2.142  0.2681  0.1346  0.0590
 4947W        W 4947   9.672   0.166   6.897 -0.1043  0.1680 -0.3707
 4948W        W 4948  10.088   5.955   8.867 -0.3389 -0.0401 -0.1301
 4949W        W 4949   1.208   5.289   6.639 -0.2326 -0.0348  0.2765
 4950W        W 4950   3.201   9.243   9.538 -0.0457 -0.3502 -0.2362
 4951W        W 4951   4.481   9.251   0.064 -0.2163 -0.1344  0.0971
 4952W        W 4952   0.406  10.313   7.533 -0.2760  0.3015  0.1581
 4953W        W 4953   5.805   0.842   4.456 -0.1620 -0.1111 -0.0722
 4954W        W 4954   2.347  10.169   7.056 -0.1279  0.2105  0.1161
 4955W        W 4955   8.027   6.530   8.921 -0.0066 -0.2214  0.2444
 4956W        W 4956   6.197   2.283   7.383 -0.2240  0.1080 -0.3047
 4957W        W 4957   5.196   0.323   5.923  0.1677 -0.2246  0.0334
 4958W        W 4958   7.276   9.029   8.174 -0.1419  0.2681  0.2492
 4959W        W 4959   3.810   1.315   5.323 -0.0750 -0.1604  0.2077
 4960W        W 4960   9.198   1.415   3.459  0.1365 -0.1526  0.0621
 4961W        W 4961   7.480   6.996   1.682 -0.2427  0.2868  0.2849
 4962W        W 4962   9.013   1.949   4.662 -0.0624  0.0553  0.1186
 4963W        W 4963   5.197   1.651   2.908  0.0819  0.0238 -0.2694
 4964W        W 4964   5.241   7.854   9.585  0.0766 -0.2197 -0.2144
 4965W        W 4965   1.172   7.495   2.673 -0.2100 -0.1206 -0.1524
 4966W        W 4966   9.253   0.258   1.765 -0.0226  0.1555  0.0215
 4967W        W 4967   0.222   1.370   6.453 -0.2099  0.0517 -0.3626
 4968W        W 4968   0.853  10.287   4.686 -0.1012  0.2521 -0.1266
 4969W        W 4969   5.119   4.612   0.814 -0.0496  0.1177 -0.5061
 4970W        W 4970   0.890   9.635   2.603  0.3311 -0.2705 -0.1340
 4971W        W 4971   6.848   1.261   6.459 -0.3806 -0.1009  0.4269
 4972W        W 4972   0.580   5.723   0.882 -0.1932 -0.2606 -0.0443
 4973W        W 4973   6.787   9.234   1.338 -0.0756 -0.0275  0.1188
 4974W        W 4974   4.694   6.341   0.795 -0.2176 -0.1842  0.2399
 4975W        W 4975  10.091  10.112   0.634  0.4582  0.1906  0.1503
 4976W        W 4976   6.303   6.033   1.401 -0.0481  0.0609  0.0724
 4977W        W 4977   2.893   3.203   7.463  0.1419 -0.0348  0.2466
 4978W        W 4978   3.232   3.781   5.853 -0.1149 -0.3813  0.1417
 4979W        W 4979   5.589   1.858   5.709 -0.0276 -0.2378 -0.0965
 4980W        W 4980   5.161   6.188   0.394  0.0336 -0.0815 -0.2714
 4981W        W 4981   8.394   8.470   2.458 -0.2562 -0.0754 -0.2842
 4982W        W 4982   0.256   3.989   5.208  0.0036  0.1317 -0.0640
 4983W        W 4983   5.292   2.817   2.202 -0.1945  0.0864 -0.0620
 4984W        W 4984   8.339   1.260   7.389 -0.0607  0.1651  0.2339
 4985W        W 4985   1.022   3.066   5.383  0.1758  0.2443  0.1372
 4986W        W 4986   2.873   3.913   5.391 -0.1185 -0.3805 -0.0504
 4987W        W 4987   8.310   4.840   9.658 -0.0357  0.2807 -0.0038
 4988W        W 4988   9.227   9.815   0.826 -0.2186 -0.0936  0.0148
 4989W        W 4989   1.964   9.294   5.716 -0.1447 -0.4084 -0.1528
 4990W        W 4990   3.909   0.401   4.070 -0.0089  0.1161 -0.0850
 4991W        W 4991   4.373   8.417   3.978 -0.3804 -0.0944 -0.0862
 4992W        W 4992   6.810   5.572   3.110 -0.1558  0.2700  0.0789
 4993W        W 4993   6.561   1.890   3.461 -0.1409 -0.1673 -0.0808
 4994W        W 4994   2.725   2.688   1.188  0.1192  0.1393 -0.0508
 4995W        W 4995   6.669   8.153   9.499 -0.0941  0.1634 -0.0521
 4996W        W 4996   7.633   6.341   5.704 -0.2153  0.1710  0.0901
 4997W        W 4997   6.132   6.655   7.444 -0.0493 -0.1683  0.3688
 4998W        W 4998   5.592   8.206   4.911 -0.2191  0.0843 -0.0086
 4999W        W 4999   8.412   3.830   0.164 -0.0316 -0.0833  0.1294
 5000W        W 5000   4.623   8.369   6.506 -0.2323  0.1306 -0.0224
 5001W        W 5001   7.645   4.269   2.237  0.0735 -0.2583  0.1482
 5002W        W 5002   8.855   6.225   1.576 -0.2259  0.1691  0.2577
 5003W        W 5003   4.309   4.049   7.151  0.1600 -0.1409 -0.3867
 5004W        W 5004   7.551   6.931   5.598 -0.0565 -0.0678  0.1151
 5005W        W 5005   1.633   6.017   8.759 -0.4460 -0.0541 -0.2140
 5006W        W 5006   6.406   7.155   2.809 -0.1668  0.2529  0.0857
 5007W        W 5007   6.004   9.800   5.581 -0.0119  0.2222  0.0882
 5008W        W 5008   5.041   0.343   4.903  0.3723 -0.1670 -0.0050
 5009W        W 5009   1.585   9.485   8.913  0.1548 -0.1916  0.2658
 5010W        W 5010   0.302   6.328   4.678  0.0015  0.0591 -0.2390
 5011W        W 5011   4.571   8.435   9.290  0.0105  0.1672 -0.3574
 5012W        W 5012   4.134   4.539   2.002  0.0033  0.3658  0.2072
 5013W        W 5013   3.661   0.330   5.482  0.3370 -0.3347 -0.3359
 5014W        W 5014   4.141   4.810   3.981  0.0012 -0.0234  0.1699
 5015W        W 5015   4.604   6.495   7.767  0.0511 -0.0587  0.0074
 5016W        W 5016   6.127   1.226   3.189  0.0193  0.1563  0.1402
 5017W        W 5017   3.603  10.173   5.743  0.0578  0.0961 -0.3047
 5018W        W 5018   9.484   2.225   2.861  0.1620 -0.0935 -0.0751
 5019W        W 5019   8.075   2.887   0.568 -0.0438 -0.1445  0.0326
 5020W        W 5020   0.250   1.658   1.352 -0.0416  0.0847 -0.0011
 5021W        W 5021   5.011   8.679   4.548  0.2276 -0.1399  0.4097
 5022W        W 5022   5.872   4.515   1.252 -0.1012 -0.2859 -0.1068
 5023W        W 5023   8.091   9.198   5.807  0.0393  0.0261 -0.1071
 5024W        W 5024   4.434   2.555   1.603 -0.0580  0.1200 -0.0945
 5025W        W 5025   0.407   2.610   4.560  0.0051 -0.0934  0.2790
 5026W        W 5026   3.390   6.829   1.813  0.0135  0.1081 -0.2293
 5027W        W 5027   1.721   3.664   8.840 -0.0562  0.2010  0.4825
 5028W        W 5028  10.065   0.354  10.290  0.1156  0.0336  0.2856
 5029W        W 5029   9.984   3.753   4.543 -0.2826 -0.0015  0.2884
 5030W        W 5030   5.234   3.858   9.846 -0.0056  0.3601  0.0891
 5031W        W 5031   8.669   2.638   4.056 -0.0558 -0.1085  0.1771
 5032W        W 5032   8.773   6.763   9.144 -0.1182  0.2352 -0.2478
 5033W        W 5033   5.204   7.744   8.752 -0.2814 -0.0831 -0.1898
 5034W        W 5034   9.938   9.141   4.312 -0.2631  0.1437  0.0797
 5035W        W 5035   1.977   7.722   5.176  0.0169  0.1058  0.0966
 5036W        W 5036   6.637   1.266   7.670 -0.0115  0.3491 -0.2038
 5037W        W 5037   4.922   5.573   6.444 -0.1255 -0.0667  0.1453
 5038W        W 5038   2.601   6.484   4.065  0.2545  0.2166  0.0427
 5039W        W 5039   4.418   6.913   6.610  0.2518  0.0292 -0.2091
 5040W        W 5040   6.366   9.361   7.899 -0.0090  0.0581 -0.0191
 5041W        W 5041   0.553   9.832   5.440  0.0664  0.4280  0.1089
 5042W        W 5042   0.094   8.400   2.739  0.2022  0.1873  0.1554
 5043W        W 5043   9.253   7.104   0.809  0.1445 -0.1751 -0.1022
 5044W        W 5044   4.857   5.045   1.573  0.1636 -0.0042  0.0912
 5045W        W 5045   8.114   4.224   1.050  0.2935  0.0661  0.0497
 5046W        W 5046   6.993   8.880   1.583 -0.1131  0.0040  0.1628
 5047W        W 5047   4.702   2.410   9.084  0.0769  0.1274 -0.2684
 5048W        W 5048   1.829   4.978   8.835  0.1410 -0.0314  0.2566
 5049W        W 5049   6.890   9.698   7.206  0.1426  0.2179  0.2946
 5050W        W 5050   3.248   6.786   8.293 -0.1583 -0.1015  0.1193
 5051W        W 5051   0.246   0.405   9.785 -0.0899  0.0750 -0.3618
 5052W        W 5052   6.226   9.095   0.388  0.0831  0.0514  0.2386
 5053W        W 5053   3.623   3.570   7.572  0.1011  0.0850 -0.2578
 5054W        W 5054   2.371   9.358   9.856  0.1390 -0.0738 -0.1481
 5055W        W 5055   4.430   8.695   8.878 -0.0774  0.0253 -0.2932
 5056W        W 5056   5.080   7.380   6.362 -0.2216 -0.2540 -0.0449
 5057W        W 5057   8.376   3.164   8.896  0.0476 -0.0083  0.2399
 5058W        W 5058   0.985   7.384   8.338 -0.2003  0.2765  0.1470
 5059W        W 5059   6.328   4.246   5.698 -0.0840  0.0005 -0.1197
 5060W        W 5060   7.605   6.281   0.986 -0.0825 -0.1716 -0.1579
 5061W        W 5061   7.651   3.001   0.783 -0.1887 -0.2352  0.2693
 5062W        W 5062   3.993   1.074   7.858 -0.0129  0.1946 -0.1382
 5063W        W 5063   0.787   2.098   0.160 -0.2249  0.0992 -0.0089
 5064W        W 5064   4.503   7.318   4.350  0.0489 -0.2016  0.0635
 5065W        W 5065   6.435   7.264   2.237 -0.1720 -0.3054 -0.1337
 5066W        W 5066   1.611   4.233   0.787  0.0135 -0.0325  0.3886
 5067W        W 5067   1.623   5.289   2.544  0.2354  0.0429  0.1475
 5068W        W 5068  10.200   4.141   5.620 -0.1301 -0.1763  0.0061
 5069W        W 5069   2.065   3.961   8.621 -0.2406 -0.0299 -0.1124
 5070W        W 5070   9.994   8.666   2.391 -0.0377  0.0985  0.1118
 5071W        W 5071   2.603   5.305   0.009  0.0852 -0.2594 -0.0289
 5072W        W 5072   8.534   5.667   7.706  0.1831 -0.1516  0.1243
 5073W        W 5073   9.727   7.205   0.954 -0.5224  0.0466  0.0138
 5074W        W 5074   3.073   4.227   0.627 -0.4174 -0.0693  0.2462
 5075W        W 5075   8.116   2.282   1.348  0.2003 -0.2544 -0.1825
 5076W        W 5076   1.911   0.279   4.970 -0.1997 -0.0463 -0.1630
 5077W        W 5077   2.474   4.808   2.643 -0.0065 -0.0172 -0.0938
 5078W        W 5078   4.303   6.297   9.474  0.2386 -0.2625 -0.2589
 5079W        W 5079   4.084   9.221   8.187 -0.0607  0.1978  0.1794
 5080W        W 5080   0.425   9.319   3.322 -0.1237  0.1774  0.2421
 5081W        W 5081   2.447   8.496   8.465 -0.0269 -0.1711  0.2806
 5082W        W 5082   3.334   7.267   8.393  0.3217  0.1704  0.0728
 5083W        W 5083   0.518   8.937   2.991  0.0944  0.1601 -0.1657
 5084W        W 5084   6.312   7.074   6.545  0.0102 -0.1033  0.4025
 5085W        W 5085   5.937   3.905   1.829 -0.1991 -0.0376 -0.1324
 5086W        W 5086   9.837   6.889   0.237  0.2855  0.2553  0.0433
 5087W        W 5087   7.280   6.155   6.078 -0.2014 -0.0769 -0.1523
 5088W        W 5088   9.321   9.234   6.502  0.1227 -0.3015  0.1843
 5089W        W 5089   3.954   5.194   7.710 -0.0979  0.1128  0.1738
 5090W        W 5090  10.133   4.511   8.478  0.0368 -0.3515 -0.0230
 5091W        W 5091   1.091   5.522   1.023  0.0031 -0.0307 -0.0521
 5092W        W 5092   7.315   9.784   4.294 -0.0708 -0.0576  0.0336
 5093W        W 5093   7.132   5.505   0.512  0.1248 -0.1710  0.2366
 5094W        W 5094   6.250   4.182   5.227  0.3312  0.0744  0.1135
 5095W        W 5095   5.180   1.933   5.444  0.0671  0.1735 -0.0164
 5096W        W 5096   0.442   4.412   7.289  0.2411 -0.0698 -0.2326
 5097W        W 5097   2.069   5.071   9.955  0.3217 -0.0812 -0.2610
 5098W        W 5098   1.937   1.239   9.272  0.0698  0.1567  0.0858
 5099W        W 5099   3.467   4.447   7.695 -0.0907  0.2053 -0.0105
 5100W        W 5100   7.525   6.660   9.019  0.0011 -0.2550 -0.2019
 5101W        W 5101   5.048   2.680   2.677  0.0122  0.0211 -0.2674
 5102W        W 5102   0.358   1.318   2.781  0.2236  0.2052  0.2617
 5103W        W 5103   1.388   2.527   4.657  0.0581 -0.1708  0.1099
 5104W        W 5104   7.265   8.357   3.313 -0.0325  0.0316 -0.1660
 5105W        W 5105   0.936   0.154   2.221  0.0851  0.3982 -0.1276
 5106W        W 5106   0.738  10.310   0.176 -0.0050 -0.1072  0.2442
 5107W        W 5107   7.928   4.787   5.213  0.0537 -0.4473 -0.0846
 5108W        W 5108   8.825   5.031   9.589  0.1605  0.1098  0.3519
 5109W        W 5109   3.384   4.661   0.246 -0.1192  0.0459 -0.3624
 5110W        W 5110   5.200   2.281   9.180 -0.0786  0.0344  0.1203
 5111W        W 5111   4.195   4.216   8.169  0.0493 -0.3632 -0.0485
 5112W        W 5112   3.375   4.478   7.232  0.4049 -0.1405  0.0666
 5113W        W 5113   4.357   0.745   8.015  0.0886  0.1343  0.1329
 5114W        W 5114   4.543   5.479   4.404  0.1310 -0.0530  0.1090
 5115W        W 5115   5.069   6.397   8.208  0.1330 -0.0136  0.5279
 5116W        W 5116   8.678   2.027   2.366 -0.3981  0.2121 -0.2125
 5117W        W 5117   4.074   9.337   6.475 -0.1123 -0.1893 -0.0555
 5118W        W 5118   1.279   4.855   1.815  0.1874  0.0952 -0.2508
 5119W        W 5119   5.074   4.145   1.482  0.0538 -0.0870 -0.0636
 5120W        W 5120   2.137   0.674   0.428  0.4150  0.2733  0.0112
 5121W        W 5121   1.145   1.403   8.255 -0.0410 -0.1507  0.4168
 5122W        W 5122   3.158  10.132   7.156 -0.0283  0.0421 -0.2254
 5123W        W 5123   2.764   8.468   3.744  0.2427  0.3279  0.0640
 5124W        W 5124   2.190   7.149   0.934 -0.2572 -0.0343  0.1686
 5125W        W 5125   0.878   0.927   5.744  0.1165 -0.1003  0.0611
 5126W        W 5126   4.760   7.011   4.707  0.0100  0.1466 -0.2693
 5127W        W 5127   1.562   6.694   2.103 -0.1733  0.1346 -0.0809
 5128W        W 5128   6.148   6.546   6.584  0.0398 -0.0008 -0.0306
 5129W        W 5129   5.632   9.281   1.459 -0.1437 -0.2517  0.2165
 5130W        W 5130   7.019   8.819  10.055  0.0837  0.1680  0.2215
 5131W        W 5131   8.634   8.972   5.459 -0.0215  0.0861 -0.0851
 5132W        W 5132   2.174   6.762   2.803 -0.2389 -0.0328  0.0219
 5133W        W 5133   5.011   7.505   4.637 -0.0008 -0.0149 -0.1393
 5134W        W 5134   1.451   6.942   3.317 -0.1251  0.1970 -0.0020
 5135W        W 5135   2.468   1.983   1.617  0.0737 -0.0940 -0.1466
 5136W        W 5136   8.634   4.040   9.524 -0.0979  0.0749  0.1481
 5137W        W 5137   2.927   3.572   2.912  0.1692 -0.0343  0.0258
 5138W        W 5138   5.445   0.845   6.019  0.0370  0.1253 -0.2700
 5139W        W 5139   6.651   2.416   8.247 -0.1523  0.0525 -0.2515
 5140W        W 5140   2.054   0.445   5.835 -0.3994 -0.0891  0.4395
 5141W        W 5141   4.320   3.460   4.015  0.1078 -0.1867  0.1648
 5142W        W 5142   6.498   5.805   8.909  0.1040 -0.0402 -0.2565
 5143W        W 5143   7.649   1.146   9.614  0.5162  0.1707 -0.1696
 5144W        W 5144   4.261   9.828   4.422 -0.2357 -0.2048  0.0091
 5145W        W 5145   7.933   2.596   7.280 -0.3878  0.3344  0.4232
 5146W        W 5146   4.708   0.054   7.959 -0.1467 -0.0447 -0.0089
 5147W        W 5147   9.367   7.580   2.073 -0.0544  0.0402 -0.3456
 5148W        W 5148   2.885   0.806   3.451 -0.2742 -0.3268  0.5833
 5149W        W 5149   9.101   0.913   3.431 -0.1137  0.0074  0.1700
 5150W        W 5150   3.679   5.386   8.868  0.1901 -0.0598 -0.0578
 5151W        W 5151   3.818   6.660   5.692  0.1236 -0.1380  0.1102
 5152W        W 5152   1.024   9.357   8.102  0.1838  0.0818  0.0147
 5153W        W 5153   8.922  10.303   3.570  0.1945  0.0578  0.0684
 5154W        W 5154   0.574   6.025   8.873 -0.1370  0.0854  0.0475
 5155W        W 5155   6.156   8.275   7.725 -0.0276  0.0815  0.0607
 5156W        W 5156   2.180   3.297   0.926 -0.2369 -0.1862  0.1409
 5157W        W 5157   4.282   4.534   6.768 -0.0171  0.2341 -0.0741
 5158W        W 5158   0.732   0.379   1.780 -0.0009 -0.3523 -0.0080
 5159W        W 5159   8.943   2.032   1.924  0.0526 -0.1249 -0.1122
 5160W        W 5160   3.188   0.275   3.179 -0.1862  0.0007  0.1866
 5161W        W 5161   8.869   9.816   0.511  0.0857 -0.0841  0.0733
 5162W        W 5162   1.256   9.516   4.931  0.2187 -0.0114  0.0039
 5163W        W 5163   8.120   1.153   0.086 -0.1481 -0.2964  0.1394
 5164W        W 5164   8.106   2.324   1.859 -0.0723 -0.2330 -0.0957
 5165W        W 5165   7.589   8.997   2.982  0.1467 -0.0109 -0.2544
 5166W        W 5166   5.599   6.000   5.998  0.1656  0.1135 -0.1158
 5167W        W 5167   0.265   2.902   7.958  0.1731 -0.1060  0.1658
 5168W        W 5168   1.504   1.798   5.380  0.3266  0.4127  0.1660
 5169W        W 5169   1.119   1.464   1.058  0.1239 -0.0831 -0.1412
 5170W        W 5170   8.237   8.760   3.907 -0.0716  0.1831  0.4549
 5171W        W 5171   9.057   8.553   7.816 -0.1208  0.1355  0.1207
 5172W        W 5172   6.239   6.459   1.111 -0.2789 -0.0062 -0.1946
 5173W        W 5173   4.619   2.399   3.203 -0.1029 -0.1689  0.1936
 5174W        W 5174   7.105   0.909   3.409 -0.0418 -0.0780  0.1930
 5175W        W 5175   0.040  10.272   3.668 -0.5766 -0.0025 -0.1219
 5176W        W 5176   4.332   0.711   3.767  0.0163  0.0495 -0.2526
 5177W        W 5177   9.267   4.593   4.975 -0.1049 -0.1360  0.0105
 5178W        W 5178   5.700   7.735   1.746 -0.1882 -0.2204 -0.1626
 5179W        W 5179   0.295   3.982   1.108 -0.1887 -0.0925  0.0204
 5180W        W 5180   2.198   8.725  10.262 -0.1110 -0.0258  0.0716
 5181W        W 5181   0.804   6.296   4.699  0.1183 -0.1518 -0.0976
 5182W        W 5182   3.992   8.120   0.868 -0.1428 -0.3498 -0.3100
 5183W        W 5183   6.672  10.216   2.588  0.1746 -0.2936 -0.0387
 5184W        W 5184   9.586   5.269  10.103 -0.0381  0.3542 -0.0888
 5185W        W 5185  10.131   3.679   5.397 -0.2874  0.1710  0.0798
 5186W        W 5186   9.060   3.727   9.353  0.1562 -0.2767 -0.3270
 5187W        W 5187  10.179   4.619   6.507 -0.0961  0.2055  0.0162
 5188W        W 5188   3.758   2.071   7.491  0.3624  0.0204  0.2014
 5189W        W 5189   8.052   1.920   8.927  0.1901  0.1234  0.1670
 5190W        W 5190   4.930   4.138   0.906  0.2288  0.0722 -0.1688
 5191W        W 5191   5.225   8.682   0.870  0.2587 -0.0901 -0.1738
 5192W        W 5192   4.339   2.179   6.514  0.0869  0.1554  0.1944
 5193W        W 5193   1.619   8.557   5.994 -0.0125 -0.1764  0.0592
 5194W        W 5194   2.753   8.593   1.763 -0.0882 -0.2043 -0.0604
 5195W        W 5195   8.158   5.085   1.670 -0.2236 -0.1642 -0.0357
 5196W        W 5196   7.654   9.879   1.269  0.2094  0.2116  0.1978
 5197W        W 5197   2.794   3.773   0.611  0.2484 -0.0141 -0.1510
 5198W        W 5198   7.165   7.779   6.010 -0.2530  0.1166  0.1681
 5199W        W 5199   0.985   4.938   0.354  0.0872 -0.6139 -0.1726
 5200W        W 5200   7.974   8.348   5.226  0.1476 -0.2991  0.0581
 5201W        W 5201   8.742   7.103   3.236 -0.0171 -0.0264 -0.3827
 5202W        W 5202   8.514   8.175   9.019 -0.1127 -0.1121 -0.0510
 5203W        W 5203   9.504   4.309   5.861  0.1595 -0.3717  0.1542
 5204W        W 5204   5.820   9.631   3.571  0.1284 -0.2038  0.0846
 5205W        W 5205   8.888   4.999   0.762  0.3478  0.0466  0.0936
 5206W        W 5206   8.795   2.268   6.636  0.3298  0.0660  0.0533
 5207W        W 5207   2.868   8.614   2.977 -0.0950  0.4155  0.0193
 5208W        W 5208   6.906   2.627   3.320 -0.0843  0.1484  0.1991
 5209W        W 5209   7.922   5.209   9.706 -0.2680 -0.5828 -0.2903
 5210W        W 5210   5.611   3.416   4.300 -0.0529  0.1111  0.1611
 5211W        W 5211   5.444   7.666   6.785 -0.2508  0.0411  0.2111
 5212W        W 5212  10.318   6.510   9.795  0.1669 -0.1363  0.1147
 5213W        W 5213   2.012   2.076   2.368  0.1698 -0.0670  0.0148
 5214W        W 5214   3.984   9.445   5.566  0.1550 -0.2161  0.4674
 5215W        W 5215   5.923   8.415   9.823  0.2640 -0.1443  0.1809
 5216W        W 5216   2.568   7.913   5.975  0.0470 -0.1605  0.3602
 5217W        W 5217   1.603   9.865   1.852  0.2520 -0.0160 -0.2528
 5218W        W 5218   7.560   5.615   9.493  0.1740 -0.0289  0.1760
 5219W        W 5219   1.444   7.625   5.336 -0.2494 -0.2779 -0.0448
 5220W        W 5220   1.172   2.533   7.761 -0.1611 -0.2101 -0.4192
 5221W        W 5221   0.332   5.780   5.931 -0.1002  0.1101  0.3441
 5222W        W 5222   9.151   4.302   4.623 -0.4944 -0.0167  0.0570
 5223W        W 5223   5.136   2.750   1.041  0.1827  0.3079 -0.0895
 5224W        W 5224   3.887   7.435   7.686  0.1004 -0.2926  0.1113
 5225W        W 5225   6.692   7.475   3.053 -0.1860 -0.4088  0.0960
 5226W        W 5226   5.574   5.866   5.420 -0.0695 -0.0091  0.1020
 5227W        W 5227   7.059   3.134   8.303 -0.1298  0.1450  0.0541
 5228W        W 5228   4.776   9.361   2.727  0.1326 -0.0425  0.1029
 5229W        W 5229   1.659   6.459   3.498 -0.2910 -0.0067 -0.0221
 5230W        W 5230   3.380   5.907   0.082  0.0468 -0.3480 -0.1022
 5231W        W 5231   0.333   9.675   6.604  0.0443 -0.0556  0.1151
 5232W        W 5232   8.390   9.693   1.913  0.0123 -0.2981 -0.1669
 5233W        W 5233   6.523   1.725   1.463 -0.3048 -0.0565 -0.2700
 5234W        W 5234   5.945   4.798   2.178  0.4154  0.0953 -0.0558
 5235W        W 5235   1.194   3.281   4.519 -0.0180  0.0110 -0.2945
 5236W        W 5236   6.374  10.336   5.655 -0.1464 -0.0825 -0.0367
 5237W        W 5237   9.167   4.259   8.622 -0.0827 -0.0157  0.2160
 5238W        W 5238   0.005   5.548   6.945  0.2183  0.0235  0.1256
 5239W        W 5239   2.954   5.990   9.133 -0.1854  0.0562 -0.0827
 5240W        W 5240   2.547   0.642   9.161  0.1806  0.1418 -0.0956
 5241W        W 5241   9.584   4.031   4.589  0.3601  0.1908  0.3018
 5242W        W 5242   8.951   7.122   5.507  0.2707 -0.2893 -0.1798
 5243W        W 5243   7.414   6.138   8.026  0.0767 -0.2403 -0.0374
 5244W        W 5244   3.842   5.566   1.145  0.1457 -0.1128  0.1458
 5245W        W 5245   6.970   2.277   5.957  0.1219  0.1064  0.3921
 5246W        W 5246   8.676   2.734   0.459  0.2518  0.2889  0.1638
 5247W        W 5247   3.170   2.792   0.956  0.0815  0.1248  0.1185
 5248W        W 5248  10.285   4.482   0.142 -0.1046  0.0564 -0.0622
 5249W        W 5249   2.798   6.023   2.661 -0.1590  0.0933 -0.3046
 5250W        W 5250   4.574   4.147   6.708 -0.0643  0.0898  0.0396
 5251W        W 5251   3.705   6.458   3.325  0.1465  0.1577 -0.0961
 5252W        W 5252   1.770   4.768  10.237 -0.1157  0.1634 -0.1379
 5253W        W 5253   8.276   6.450   9.359 -0.0665  0.1724  0.2722
 5254W        W 5254   3.956   7.106   3.667  0.1433 -0.2264  0.1718
 5255W        W 5255  10.329   4.408   6.088 -0.1552 -0.0134 -0.1855
 5256W        W 5256   6.341   7.459   7.124  0.1093 -0.3343  0.0492
 5257W        W 5257   7.142   5.721   4.823  0.1424  0.1880 -0.2529
 5258W        W 5258   7.066   6.604   0.814  0.1361  0.1356 -0.0719
 5259W        W 5259   6.320   6.246   4.329 -0.0874  0.2050 -0.2278
 5260W        W 5260   4.774  10.286   0.376  0.2007  0.1463  0.0571
 5261W        W 5261   8.471   9.941   7.207  0.1118  0.0470 -0.0635
 5262W        W 5262   1.227   4.734   5.878 -0.2430  0.4675  0.1123
 5263W        W 5263   9.758   3.623   0.234 -0.1081 -0.2349  0.1173
 5264W        W 5264   9.597   9.931   0.477 -0.2251  0.2585 -0.3295
 5265W        W 5265   0.650   9.398   2.116  0.0412 -0.2575  0.0650
 5266W        W 5266   5.916   1.874   7.214 -0.0950  0.1327  0.0037
 5267W        W 5267   3.259   9.251   5.147 -0.0620  0.0700  0.2759
 5268W        W 5268  10.179   5.143   4.087 -0.4054 -0.0219  0.0679
 5269W        W 5269   1.540   8.434   6.476 -0.1235  0.1796 -0.0661
 5270W        W 5270   9.425   4.517   8.952  0.2080  0.0452  0.2175
 5271W        W 5271   8.804   6.040   5.753 -0.0260  0.3469  0.1331
 5272W        W 5272   3.154   2.673   1.493  0.0566  0.0774 -0.1267
 5273W        W 5273   8.529   3.847   2.859  0.1562  0.0167  0.1004
 5274W        W 5274   3.557   1.046   9.074 -0.1359  0.0873 -0.1528
 5275W        W 5275   1.239   7.706   9.653 -0.4334 -0.4112  0.1813
 5276W        W 5276   5.372   2.935   3.027  0.1494  0.0767 -0.1799
 5277W        W 5277   1.949   5.603   2.763  0.0920 -0.2016 -0.1103
 5278W        W 5278   9.751   8.034   3.240 -0.2042 -0.2140  0.1600
 5279W        W 5279   1.123   9.718   6.617 -0.1132 -0.0893 -0.0187
 5280W        W 5280   3.039   0.655   1.750  0.1717  0.2603 -0.1996
 5281W        W 5281   8.231   6.323   6.357  0.1304 -0.1719 -0.2235
 5282W        W 5282   9.714   9.003   1.617  0.1361 -0.1727  0.3942
 5283W        W 5283   4.114   8.718   0.662  0.0593 -0.0202  0.0047
 5284W        W 5284   9.615   7.305   0.475  0.3635  0.0884  0.3273
 5285W        W 5285   9.450   7.542   2.895 -0.2663 -0.1547 -0.0304
 5286W        W 5286   9.740   6.776   5.718  0.2092 -0.0886 -0.1417
 5287W        W 5287   6.428   9.593   6.018  0.1006  0.1796  0.3426
 5288W        W 5288   1.887   7.723   6.907 -0.3860 -0.1268 -0.1831
 5289W        W 5289   4.054   0.032   9.213  0.0967 -0.2318 -0.0284
 5290W        W 5290   2.313   1.569   3.969 -0.1799  0.0135  0.0693
 5291W        W 5291   1.468   2.786   5.246  0.0798 -0.2072 -0.1283
 5292W        W 5292   8.645   6.739   2.038  0.1181  0.1036 -0.0526
 5293W        W 5293   0.173   7.775   0.799 -0.2156 -0.0207 -0.0451
 5294W        W 5294   2.187   2.296   1.902  0.0266 -0.2024 -0.0727
 5295W        W 5295   1.558   7.879   7.875 -0.0406  0.0291 -0.2550
 5296W        W 5296   2.149   0.938  10.295  0.0316  0.0234  0.0092
 5297W        W 5297   6.678   0.681   6.412  0.1093  0.2133 -0.1751
 5298W        W 5298   2.725   1.525   1.411  0.2313  0.1962  0.1310
 5299W        W 5299   7.027   4.835   5.103 -0.1341 -0.0952 -0.1100
 5300W        W 5300   2.008   7.528   7.845 -0.1539  0.1620  0.0388
 5301W        W 5301   2.246   9.250   2.497 -0.5227  0.2029  0.1284
 5302W        W 5302   4.234   3.251   4.767 -0.2278 -0.3094  0.1828
 5303W        W 5303   0.032   8.805   4.130 -0.0579 -0.1136  0.1728
 5304W        W 5304   8.448   3.020   3.057  0.6024  0.1651  0.2274
 5305W        W 5305   0.604   8.057   3.353  0.0592 -0.0263  0.1151
 5306W        W 5306   6.400   9.670   8.261  0.0800 -0.0079  0.0211
 5307W        W 5307   7.587   6.415   9.525 -0.2949  0.0387 -0.3936
 5308W        W 5308   2.105   7.569   8.528 -0.3405 -0.1257  0.4880
 5309W        W 5309   9.893  10.074   3.215  0.2175 -0.0413 -0.2900
 5310W        W 5310  10.304   9.108   5.473  0.0666 -0.0138 -0.1476
 5311W        W 5311   2.181   0.737   1.192  0.0611 -0.0621 -0.3804
 5312W        W 5312   4.929   9.545   6.836  0.0987 -0.1849 -0.0776
 5313W        W 5313   4.118   6.821   0.688 -0.0193  0.0411 -0.1503
 5314W        W 5314   7.578   1.556   6.860 -0.0341 -0.1105  0.1317
 5315W        W 5315   9.306   9.135   6.007 -0.1218 -0.3598  0.3894
 5316W        W 5316   9.991   8.719   2.911 -0.2116  0.0701  0.0901
 5317W        W 5317   9.476   2.624   5.008  0.1499 -0.1622 -0.2343
 5318W        W 5318   9.420   0.551   6.358  0.0841 -0.2389 -0.1813
 5319W        W 5319   3.759   4.960   6.040  0.1356  0.0004  0.0556
 5320W        W 5320   1.569   7.590   0.125 -0.0267 -0.0044 -0.0153
 5321W        W 5321   9.262  10.019   4.010 -0.0872  0.1169 -0.3213
 5322W        W 5322   6.317   1.008   7.348  0.0210  0.0303 -0.1708
 5323W        W 5323   2.668   1.964   2.824  0.2169 -0.3421  0.1745
 5324W        W 5324   3.618   9.789   5.411 -0.0007 -0.1009 -0.0639
 5325W        W 5325   8.323   6.151   9.828 -0.3470 -0.0606 -0.1409
 5326W        W 5326   3.806   1.647   2.243  0.0488 -0.0331 -0.0149
 5327W        W 5327   8.327   2.612   9.851  0.1216  0.1462  0.0130
 5328W        W 5328   1.087   3.419  10.052 -0.0042 -0.5195 -0.1150
 5329W        W 5329   2.269   1.955   8.957  0.2744  0.1254 -0.1229
 5330W        W 5330   3.830   8.877   5.441  0.0848  0.0015  0.2418
 5331W        W 5331   1.566   1.662   8.147  0.1427  0.3289 -0.0762
 5332W        W 5332   2.876   6.456   2.860 -0.2012  0.1329 -0.1097
 5333W        W 5333   3.029   7.358   5.510 -0.0492  0.1432  0.0731
 5334W        W 5334   5.111   3.722   1.208  0.0988 -0.4688 -0.0152
 5335W        W 5335   0.436   8.632   4.839 -0.0130 -0.0469  0.0193
 5336W        W 5336   2.338   9.506   4.916  0.1789 -0.2989 -0.1824
 5337W        W 5337   9.765   7.933   2.102  0.0137  0.0198  0.0796
 5338W        W 5338   6.963   4.339   3.190  0.0538 -0.0909 -0.1815
 5339W        W 5339   3.060   8.910   2.268 -0.0889  0.1919  0.0253
 5340W        W 5340  10.152   1.410   3.178 -0.1233 -0.0546 -0.1402
 5341W        W 5341   7.828   3.820   8.522  0.4019  0.2267  0.0771
 5342W        W 5342   7.472   2.898   8.448 -0.0898 -0.0573 -0.0121
 5343W        W 5343   9.356   4.844   7.621 -0.2518 -0.0981  0.2251
 5344W        W 5344   8.454   1.743   9.875 -0.0545 -0.2253  0.1068
 5345W        W 5345   8.067   6.700   8.060 -0.1287  0.1893 -0.1586
 5346W        W 5346   0.075   4.232   7.672  0.1448 -0.1138  0.1863
 5347W        W 5347   8.550   0.492   6.399  0.2660 -0.0549 -0.2405
 5348W        W 5348   5.769   6.984   8.550  0.1013  0.0414 -0.1972
 5349W        W 5349   9.270   9.306   9.480  0.1899  0.2045  0.1464
 5350W        W 5350   0.655   3.083   7.051 -0.1014  0.1058 -0.2823
 5351W        W 5351   6.181   7.972   6.282 -0.0895  0.2260 -0.0340
 5352W        W 5352   5.843   3.205   5.207  0.2374  0.0651  0.2530
 5353W        W 5353   7.123   6.797   9.362  0.0199 -0.0987 -0.1661
 5354W        W 5354   3.641   1.546   6.638 -0.0372 -0.2136 -0.4278
 5355W        W 5355   7.153   1.323   5.089  0.0638 -0.0294  0.0576
 5356W        W 5356   3.435   5.949   5.204 -0.4625 -0.2682 -0.2369
 5357W        W 5357   6.861   1.937   5.506 -0.1678  0.0592 -0.1655
 5358W        W 5358   4.847   6.111   4.652  0.1223  0.1939  0.2239
 5359W        W 5359   7.497   3.370   8.447  0.0508 -0.3712 -0.1382
 5360W        W 5360   5.275   1.662   7.898 -0.0574 -0.3610  0.2317
 5361W        W 5361   8.256   3.669   2.138  0.3275  0.0389  0.1657
 5362W        W 5362   0.868   2.666   1.962 -0.0443  0.0876  0.1990
 5363W        W 5363   3.657   0.773   2.299  0.1796  0.0392  0.1073
 5364W        W 5364   2.339   0.208   6.700  0.0754  0.3861 -0.1117
 5365W        W 5365   3.003   2.313   6.325 -0.0245  0.3663  0.0187
 5366W        W 5366   2.430   8.762   4.417  0.0840  0.1862  0.0876
 5367W        W 5367   0.910   0.980   0.139  0.3540  0.3857  0.0803
 5368W        W 5368   6.452   0.552   5.038  0.1172 -0.0545  0.3180
 5369W        W 5369   5.562   4.383   2.404 -0.2194  0.4162  0.0600
 5370W        W 5370   1.111   3.728   1.248 -0.0468 -0.1579  0.1568
 5371W        W 5371   3.821   6.631   1.108  0.1730  0.1493  0.3160
 5372W        W 5372   5.116  10.230   2.450 -0.2384 -0.0642  0.0364
 5373W        W 5373   6.434   5.656   9.373  0.1156 -0.1686  0.0440
 5374W        W 5374   8.394   7.870   1.918  0.1782 -0.0476  0.1137
 5375W        W 5375   8.321   6.688   4.675 -0.2872  0.1731  0.3363
 5376W        W 5376   5.017   7.279   7.716 -0.1909 -0.0373  0.0127
 5377W        W 5377   4.778   5.613   6.952 -0.0481 -0.1217 -0.0963
 5378W        W 5378   8.159   7.423   2.575  0.3428  0.0846 -0.1328
 5379W        W 5379   1.346   0.819   4.262  0.1278 -0.0807  0.0040
 5380W        W 5380   0.795   9.346   6.855 -0.2430  0.2373  0.2624
 5381W        W 5381   1.391   6.959   0.828  0.1387  0.3154  0.0392
 5382W        W 5382   9.793   3.489   3.675  0.1366 -0.0431 -0.1077
 5383W        W 5383   8.750  10.017   1.005  0.0331  0.1901 -0.0039
 5384W        W 5384   8.439   8.132   7.866 -0.2646 -0.2055  0.0184
 5385W        W 5385   6.823   8.466   6.452  0.2328  0.0517  0.0561
 5386W        W 5386   8.847   0.493   5.193  0.1922  0.0436 -0.1841
 5387W        W 5387   4.325   7.090   0.208 -0.0481  0.0101  0.1516
 5388W        W 5388   5.424   1.401   9.795 -0.1531  0.0328  0.1773
 5389W        W 5389   1.264   6.448   1.310  0.1866 -0.0782  0.1236
 5390W        W 5390   7.846   6.940   0.996 -0.1505  0.5028 -0.0082
 5391W        W 5391   2.775   8.756   0.478 -0.1040 -0.0026  0.1222
 5392W        W 5392   7.373   4.068   4.089 -0.1142 -0.2222  0.1866
 5393W        W 5393   2.061   5.801   1.958  0.0420 -0.0250 -0.1621
 5394W        W 5394   3.882   4.768   6.457 -0.0370  0.0417 -0.0235
 5395W        W 5395   8.072   1.006   9.367  0.1515  0.2672  0.0252
 5396W        W 5396   8.666   9.026   8.523 -0.1432  0.2018  0.2216
 5397W        W 5397   6.989   8.036   5.080 -0.1094 -0.2329 -0.2090
 5398W        W 5398   3.574   5.458   7.886 -0.0539 -0.2462 -0.1544
 5399W        W 5399   9.592   5.814   9.780 -0.0542  0.1224  0.1347
 5400W        W 5400   1.511   7.220   4.160 -0.0903  0.0700  0.1260
 5401W        W 5401   9.217   6.907   5.930  0.0555  0.1331 -0.1804
 5402W        W 5402   5.888   1.801   5.084 -0.0474  0.0302 -0.1393
 5403W        W 5403   9.088   2.638   6.814  0.1936 -0.2276 -0.0522
 5404W        W 5404   5.640   5.370   9.692  0.2723  0.4069  0.1031
 5405W        W 5405   7.695   6.810   3.312 -0.1107  0.2353 -0.0516
 5406W        W 5406   7.142   7.921   8.686 -0.1197  0.0351  0.0678
 5407W        W 5407   2.344   2.522   4.444 -0.1037  0.0163  0.1134
 5408W        W 5408   5.498  10.083   1.698  0.2294 -0.2487  0.0277
 5409W        W 5409   9.330   1.697   0.087  0.1706  0.0787  0.1568
 5410W        W 5410   1.183   8.860   0.490 -0.2838  0.0289  0.2127
 5411W        W 5411   4.950   1.333   1.707  0.2746 -0.0970  0.2486
 5412W        W 5412   0.265   1.475   4.017 -0.0511  0.1156  0.1244
 5413W        W 5413   8.067   1.341   5.961  0.1004 -0.1929 -0.1468
 5414W        W 5414   6.010   3.574   9.869 -0.0893 -0.0020 -0.0027
 5415W        W 5415   6.830   5.934   1.649  0.0067  0.1819 -0.1365
 5416W        W 5416   8.585   3.308   3.476  0.2621  0.0052 -0.2365
 5417W        W 5417   5.378   2.442   4.020  0.0360 -0.0396 -0.0039
 5418W        W 5418   7.123   6.459   1.681 -0.0524  0.1974  0.0510
 5419W        W 5419   1.282   8.379   1.680  0.0301  0.1681 -0.0435
 5420W        W 5420   6.080   0.845   3.501 -0.1247  0.3029 -0.1202
 5421W        W 5421   4.857   9.793   9.911 -0.2833  0.0563 -0.0290
 5422W        W 5422   6.691   7.587   3.609  0.4209 -0.4126 -0.0085
 5423W        W 5423   1.699   6.416   6.249  0.0707 -0.0688 -0.2253
 5424W        W 5424   0.725   3.728   0.767  0.0169  0.0558 -0.2282
 5425W        W 5425   0.434   2.354   0.383  0.0818  0.1055 -0.0600
 5426W        W 5426   1.563   7.423   7.650  0.1586  0.1029  0.1786
 5427W        W 5427   0.551   4.399   8.979 -0.0745  0.1009  0.2071
 5428W        W 5428   6.412   2.723   3.180 -0.3539 -0.1686 -0.3505
 5429W        W 5429   3.181   9.571   0.320 -0.1683  0.0565 -0.1531
 5430W        W 5430   8.157   8.316   3.762  0.1163 -0.2632 -0.0626
 5431W        W 5431   2.996   9.112   2.934  0.0705 -0.2063  0.0730
 5432W        W 5432   7.398   7.901   2.884  0.1802  0.3373 -0.1104
 5433W        W 5433   9.439   6.558   8.440 -0.1404  0.1258 -0.0975
 5434W        W 5434   8.992   0.466   3.633 -0.3755  0.2094 -0.0233
 5435W        W 5435   5.500   0.748   2.559  0.2099 -0.0075  0.3017
 5436W        W 5436   4.069   4.636   5.278 -0.0193 -0.4571 -0.2667
 5437W        W 5437   4.911   6.050   3.577  0.1371 -0.0413  0.2312
 5438W        W 5438  10.036   9.207   0.640  0.0272 -0.2605  0.2171
 5439W        W 5439   7.675   1.455   3.762 -0.1227 -0.1550 -0.0234
 5440W        W 5440   7.168   9.280   7.195 -0.1726 -0.2123 -0.0284
 5441W        W 5441   2.177   8.330   0.267 -0.0819 -0.1782 -0.1037
 5442W        W 5442   8.190   9.565   2.806  0.3288  0.2249  0.0198
 5443W        W 5443   2.555   6.013   3.841 -0.1391 -0.2661 -0.2333
 5444W        W 5444   2.889   9.070   6.913 -0.1537 -0.0134  0.1757
 5445W        W 5445   0.246   7.339   6.286 -0.2752  0.1087  0.0119
 5446W        W 5446   4.956   0.904   4.839  0.2078 -0.0440  0.1246
 5447W        W 5447   8.792   1.459   9.070  0.2030  0.0100 -0.2193
 5448W        W 5448   1.391   0.183   7.073  0.0497  0.0342  0.1886
 5449W        W 5449   5.947   1.384   7.351  0.1556  0.1390  0.0051
 5450W        W 5450   2.549   8.547   1.128  0.1276  0.2486  0.2250
 5451W        W 5451   4.141   8.355   6.354  0.2838 -0.2745  0.0297
 5452W        W 5452   7.420   1.335   3.234  0.0401  0.0017 -0.0167
 5453W        W 5453   3.475   3.335   4.513  0.3629 -0.1689 -0.1424
 5454W        W 5454   9.878   7.080   9.408  0.0612 -0.3625  0.1017
 5455W        W 5455   8.258   4.747   3.835 -0.0193 -0.0833 -0.0467
 5456W        W 5456   3.068   2.435   8.655 -0.0426  0.2469 -0.0092
 5457W        W 5457   9.084   3.340  10.266 -0.0308 -0.1084 -0.0192
 5458W        W 5458   3.063   3.271   8.359  0.1022 -0.2499  0.0816
 5459W        W 5459   4.371   5.387   1.729  0.2423  0.0306 -0.2667
 5460W        W 5460   9.788   4.312  10.231 -0.2053  0.0850 -0.0983
 5461W        W 5461   4.024   4.552   2.945 -0.1874 -0.1176  0.2150
 5462W        W 5462   4.960   2.401   0.653 -0.2096 -0.3479  0.0333
 5463W        W 5463   3.234   4.451   2.919 -0.1112 -0.1853  0.0519
 5464W        W 5464   3.980   6.379   6.104  0.0065 -0.0288 -0.3475
 5465W        W 5465   8.590   3.852  10.030  0.1859 -0.1150  0.1410
 5466W        W 5466   7.627   6.435   1.726 -0.1477 -0.1015  0.1666
 5467W        W 5467   1.706   2.676   2.256  0.3184  0.2015 -0.0217
 5468W        W 5468   0.932  10.075   3.660 -0.0509 -0.0526  0.2319
 5469W        W 5469   9.673   4.721   8.573 -0.0729 -0.0480  0.0239
 5470W        W 5470   9.352   4.574   8.195  0.4646  0.2663  0.0070
 5471W        W 5471   5.079   6.572   0.001 -0.0440  0.0794  0.3001
 5472W        W 5472   9.917   7.280   4.384  0.1296 -0.0206 -0.4448
 5473W        W 5473   2.515   2.242   9.977  0.0798  0.1376 -0.0842
 5474W        W 5474   7.858   9.641   9.477 -0.0948  0.0425 -0.0742
 5475W        W 5475   9.876   5.797   9.301 -0.0054  0.1445  0.2958
 5476W        W 5476   6.173   5.365   4.492  0.0557 -0.0117 -0.2452
 5477W        W 5477   6.538   2.593   5.930  0.4321  0.2005  0.0693
 5478W        W 5478   3.928   9.596   1.270  0.2329 -0.0076  0.0841
 5479W        W 5479   7.708   8.097   0.272 -0.0473 -0.0489  0.1282
 5480W        W 5480   2.090   0.438  10.321 -0.0315 -0.0628 -0.0977
 5481W        W 5481   3.354   5.654   3.412 -0.2651 -0.1815  0.1562
 5482W        W 5482   9.745   1.630   3.534  0.0251 -0.3066 -0.0812
 5483W        W 5483  10.197   1.989   9.536 -0.1716  0.2772 -0.0130
 5484W        W 5484   4.656   1.773  10.130  0.0723 -0.1015  0.1944
 5485W        W 5485   0.493   7.962   0.423 -0.0261  0.1734 -0.2890
 5486W        W 5486   3.456   5.259   1.023  0.2528 -0.2205  0.1989
 5487W        W 5487   5.591   3.816  10.180  0.2059  0.1689  0.1708
 5488W        W 5488   8.724   9.634   7.587 -0.3765 -0.0525  0.0073
 5489W        W 5489   5.359   9.719   0.670  0.0443  0.1280 -0.1034
 5490W        W 5490   8.566   4.883   4.273 -0.2522  0.0064  0.1786
 5491W        W 5491   5.792   9.100   7.813  0.0237 -0.0856  0.1924
 5492W        W 5492   7.648  10.138   9.287  0.1624 -0.3560  0.0731
 5493W        W 5493   7.570   9.928   6.204  0.0583 -0.1444  0.0132
 5494W        W 5494   6.779   9.107   8.385  0.0777 -0.0148 -0.1779
 5495W        W 5495   4.974   8.464   5.555 -0.1186  0.1166  0.2114
 5496W        W 5496   8.312   7.356   8.699  0.1221  0.3098 -0.1378
 5497W        W 5497   1.997   0.110   4.152 -0.0545 -0.0884  0.1157
 5498W        W 5498   9.710   4.665   9.439 -0.0830  0.3929  0.0398
 5499W        W 5499   2.179   5.166   8.529 -0.0109  0.1351 -0.0030
 5500W        W 5500   2.256   4.402   4.168 -0.2279 -0.2218  0.0675
 5501W        W 5501   5.540  10.025   3.684 -0.2426  0.1031 -0.4142
 5502W        W 5502   9.092   7.352   4.077  0.2113 -0.1544 -0.1098
 5503W        W 5503   7.559   5.408   0.817 -0.2179 -0.1344  0.1010
 5504W        W 5504   0.201   7.187   0.262 -0.1931 -0.0753  0.0049
 5505W        W 5505   3.096   8.255   9.832 -0.2003  0.0440 -0.1631
 5506W        W 5506   4.729   9.902   5.930 -0.0478  0.0681  0.5879
 5507W        W 5507   2.766   3.522   6.610  0.0045  0.2267  0.1724
 5508W        W 5508   7.736   8.363   4.737  0.3052 -0.1454  0.1844
 5509W        W 5509   8.573   2.444   2.757  0.1302  0.0076 -0.1741
 5510W        W 5510   2.395   6.625   4.544  0.0586  0.2955 -0.1191
 5511W        W 5511   0.874   0.250   8.549 -0.3160  0.0623  0.0656
 5512W        W 5512   1.966   2.666   5.311  0.1031  0.2335 -0.0677
 5513W        W 5513  10.294   5.999   4.451  0.0426  0.4933 -0.4104
 5514W        W 5514   1.255   3.643   7.168  0.1604  0.0444 -0.0356
 5515W        W 5515   8.503   5.887   6.147  0.0030 -0.2505  0.1771
 5516W        W 5516   7.636   1.674   8.278  0.1459  0.2796  0.0219
 5517W        W 5517   8.101   3.961   9.539 -0.1228 -0.0297 -0.1900
 5518W        W 5518   5.692   3.732   1.009  0.0667  0.1290  0.0657
 5519W        W 5519   1.205   0.957   3.717  0.1248 -0.0292  0.1621
 5520W        W 5520   2.453   9.271   4.457  0.0775  0.2601  0.0899
 5521W        W 5521   3.660   3.758   9.911  0.1542  0.0016 -0.2617
 5522W        W 5522   7.926   7.401   4.917  0.0903  0.0670 -0.0073
 5523W        W 5523   2.585   7.532  10.327  0.1913 -0.0073  0.0181
 5524W        W 5524   1.479   4.178  10.069 -0.0662  0.0477  0.0850
 5525W        W 5525   1.646   3.382   7.375  0.0761 -0.0855 -0.0658
 5526W        W 5526   8.874   1.182   5.890 -0.0891 -0.0203  0.1191
 5527W        W 5527   6.709   6.098   4.016  0.4037 -0.0270 -0.0342
 5528W        W 5528   3.801   7.861   5.677 -0.1538  0.1084  0.0680
 5529W        W 5529   2.221   8.751   2.510 -0.1068  0.0174  0.2395
 5530W        W 5530   8.015   7.573   2.123  0.0978 -0.1455 -0.0782
 5531W        W 5531   1.932   1.751   8.571  0.1804 -0.0760  0.1987
 5532W        W 5532   2.449   3.971   7.966 -0.0329  0.1013  0.2193
 5533W        W 5533   4.978   3.700   8.460  0.1284  0.1080 -0.1472
 5534W        W 5534   8.297   8.248   1.005 -0.0235 -0.2672  0.1165
 5535W        W 5535   5.807   5.598   7.213  0.1072 -0.0281 -0.0377
 5536W        W 5536   3.823   6.958   7.692  0.0636 -0.0928  0.1711
 5537W        W 5537   7.549   8.757   2.162  0.2474 -0.2011 -0.2233
 5538W        W 5538   3.608   5.164   0.308  0.3615  0.2749  0.0441
 5539W        W 5539   8.479   5.445   1.851  0.0854 -0.3806  0.2179
 5540W        W 5540   8.637   4.151   3.760 -0.1490 -0.0288 -0.0433
 5541W        W 5541   1.475   8.805   1.902  0.1278  0.4487  0.0748
 5542W        W 5542   2.445   1.847   7.433 -0.1767  0.2192  0.1144
 5543W        W 5543   2.791   6.865   3.713  0.4517  0.1198 -0.2386
 5544W        W 5544   3.064   8.801   4.928  0.0883 -0.1482  0.2054
 5545W        W 5545   9.405   9.930   4.474 -0.0064  0.2421 -0.0795
 5546W        W 5546   4.101   8.915   4.947  0.0745 -0.0230 -0.1770
 5547W        W 5547   4.967   9.297   6.407 -0.2462 -0.0585  0.1947
 5548W        W 5548   9.950   5.335   7.965 -0.0287  0.2416 -0.0996
 5549W        W 5549   8.809   9.885   3.226 -0.0448 -0.0819 -0.0010
 5550W        W 5550   3.714   4.185   8.141  0.1992  0.0291  0.2393
 5551W        W 5551   3.174   8.254   8.736  0.2338 -0.1035 -0.2027
 5552W        W 5552   1.313   5.774   6.858  0.1094  0.0149 -0.2526
 5553W        W 5553   5.733   2.218   0.551  0.1090  0.1730 -0.0731
 5554W        W 5554   1.853   2.444   1.073 -0.3613 -0.0180  0.5183
 5555W        W 5555   1.885   5.394   0.650  0.2631  0.1120  0.1704
 5556W        W 5556   0.768   9.935   1.487 -0.2585  0.1745 -0.2181
 5557W        W 5557   0.606   2.224   6.742 -0.0174 -0.0074  0.1543
 5558W        W 5558   6.687   5.654   3.743  0.0374 -0.0972  0.1653
 5559W        W 5559   4.377   6.733   4.530 -0.0734 -0.0721  0.3067
 5560W        W 5560   8.410   2.400   2.296  0.0264  0.1687 -0.0231
 5561W        W 5561   2.371   8.359   5.894  0.1435 -0.1172  0.1017
 5562W        W 5562   4.051   1.603   1.764  0.2599 -0.0606  0.0102
 5563W        W 5563   3.735   8.242   9.815 -0.0646  0.5870  0.1269
 5564W        W 5564   6.544   6.382   2.552  0.1759 -0.0796 -0.4718
 5565W        W 5565   5.400   5.736   3.469  0.2791  0.1043 -0.1199
 5566W        W 5566   1.174   1.837  10.301  0.0080 -0.0149 -0.1798
 5567W        W 5567   1.714   0.154   6.116  0.0084 -0.0003 -0.2915
 5568W        W 5568   7.623   8.988   7.784 -0.0171 -0.1473 -0.0266
 5569W        W 5569   7.997   5.656   4.937  0.0616 -0.1105  0.2077
 5570W        W 5570   7.096   3.296   5.787 -0.0752  0.1492  0.0541
 5571W        W 5571   8.826   6.445   0.136 -0.0114 -0.0482 -0.2190
 5572W        W 5572   7.805   1.653   5.218 -0.1434  0.0612  0.0075
 5573W        W 5573   3.565   8.298   2.511 -0.1821 -0.3047  0.2596
 5574W        W 5574   9.465   4.190   9.373 -0.1236  0.3321 -0.0838
 5575W        W 5575   5.414   2.041   9.581 -0.0862 -0.0966  0.1422
 5576W        W 5576   9.056   8.138   7.162  0.0618  0.0192 -0.0841
 5577W        W 5577   3.483   6.117   2.623 -0.4595  0.1722  0.0391
 5578W        W 5578   1.531   8.209   7.443  0.1770 -0.3263  0.1718
 5579W        W 5579   5.939   8.751   1.557 -0.0494 -0.0271 -0.0503
 5580W        W 5580   0.735   1.138   4.258 -0.0834 -0.3412  0.1097
 5581W        W 5581   4.796   8.054   5.105  0.0488  0.1645 -0.0776
 5582W        W 5582   3.160   3.593   0.342  0.1828  0.1447 -0.0478
 5583W        W 5583   4.706   3.238   7.220  0.1368  0.0319 -0.1654
 5584W        W 5584   9.564   0.093   4.868 -0.2530  0.1841 -0.1196
 5585W        W 5585   4.611   3.639   6.498  0.1621  0.0158  0.0583
 5586W        W 5586  10.213   9.359   3.369 -0.1424 -0.1902  0.4192
 5587W        W 5587   5.944   1.344   9.993  0.1068 -0.0208 -0.0463
 5588W        W 5588   5.349   5.145   8.502 -0.0099  0.0218 -0.0800
 5589W        W 5589   9.042   9.153   0.016  0.0947 -0.1181 -0.1102
 5590W        W 5590   6.096   4.305   2.137  0.1390  0.0454 -0.2205
 5591W        W 5591   9.249   3.167   6.747  0.2730  0.0235 -0.1078
 5592W        W 5592   5.364   9.478   7.927 -0.0888  0.0148  0.0220
 5593W        W 5593   2.937   1.922   8.688  0.0230 -0.1092  0.2121
 5594W        W 5594   6.285   4.777   7.057 -0.3158  0.0052 -0.0367
 5595W        W 5595   5.544   2.831   3.605  0.4262  0.1187 -0.2269
 5596W        W 5596   9.903   6.050   3.449 -0.2404  0.3374 -0.1075
 5597W        W 5597   9.228   9.170   5.036  0.1353  0.2733 -0.1748
 5598W        W 5598   0.911   1.545   4.515  0.0014  0.2693 -0.0280
 5599W        W 5599   6.929   3.602   1.921  0.0784  0.2220 -0.2814
 5600W        W 5600   8.323   0.494   5.346 -0.0684 -0.0071  0.0923
 5601W        W 5601   8.973   4.121   5.869 -0.1524 -0.0728  0.1786
 5602W        W 5602   3.439   9.770   6.978 -0.0417 -0.0274  0.0568
 5603W        W 5603   6.472   1.550   8.653 -0.0499  0.1813 -0.0358
 5604W        W 5604   7.118   8.163   0.349 -0.0486 -0.1586 -0.1950
 5605W        W 5605   2.978   2.403   2.534  0.2316  0.0031  0.0932
 5606W        W 5606   4.904   8.200   6.947  0.0589  0.1090 -0.1273
 5607W        W 5607   9.289   1.329   8.261 -0.2236  0.2046 -0.1246
 5608W        W 5608   1.317   0.266   9.804 -0.4181 -0.0766 -0.0006
 5609W        W 5609   7.059   9.188   3.420  0.0956 -0.0487  0.2525
 5610W        W 5610   4.196   3.145   0.590  0.0844 -0.2532 -0.0214
 5611W        W 5611   9.543   4.631   7.183  0.2267 -0.1222  0.0109
 5612W        W 5612   1.090   7.096   1.309  0.0720  0.2086 -0.2225
 5613W        W 5613   5.038   8.892   7.139  0.1912 -0.0649  0.0931
 5614W        W 5614   7.932   8.332   8.554 -0.2151  0.1436  0.0063
 5615W        W 5615   5.989   0.998   1.432  0.0596 -0.0745  0.2031
 5616W        W 5616   5.766   0.011   5.845  0.0413 -0.0355 -0.1806
 5617W        W 5617   1.112   4.291   3.306  0.0059 -0.0818  0.2533
 5618W        W 5618   6.743   4.145   9.487  0.4260 -0.1770 -0.0481
 5619W        W 5619   1.182   7.330   8.783  0.1215 -0.0099  0.1810
 5620W        W 5620   6.318  10.041   0.631  0.0684  0.0067  0.0067
 5621W        W 5621   9.690   4.199   8.676 -0.2360 -0.2648  0.4073
 5622W        W 5622   9.769   5.656   7.234  0.0104 -0.0576  0.0389
 5623W        W 5623   9.938   6.769   3.076 -0.0886 -0.0479 -0.0769
 5624W        W 5624   0.064   5.648   9.984 -0.1312 -0.0734  0.1934
 5625W        W 5625   0.370   4.026   9.980 -0.0253 -0.2371  0.1765
 5626W        W 5626   3.891   2.717   7.149 -0.0217  0.0217 -0.3123
 5627W        W 5627   5.989   6.496   5.093  0.0300 -0.0120 -0.2247
 5628W        W 5628   9.315  10.043   7.924  0.0521 -0.3236 -0.1298
 5629W        W 5629   2.711   6.005   5.735  0.1022 -0.0494  0.2050
 5630W        W 5630   6.835   6.581   6.322  0.2482 -0.0480 -0.3762
 5631W        W 5631   6.798   6.598   8.916  0.2545 -0.2309 -0.2333
 5632W        W 5632   1.761   4.587   0.414 -0.2822  0.0099  0.2661
 5633W        W 5633   2.611   6.833   6.124 -0.1746  0.1857  0.1795
 5634W        W 5634   1.968   0.844   7.835  0.2006 -0.0879  0.0653
 5635W        W 5635   9.871   7.706   0.348 -0.2506  0.1703  0.1935
 5636W        W 5636   3.161   7.192   6.130  0.0382 -0.2703  0.1771
 5637W        W 5637   3.134   7.836   1.269 -0.1622  0.0504 -0.1341
 5638W        W 5638   2.374   7.718   9.476  0.1400  0.0845 -0.0420
 5639W        W 5639   5.029   3.317   5.621 -0.2575  0.2721 -0.2112
 5640W        W 5640   5.427   9.200   8.325  0.3109 -0.1882 -0.2257
 5641W        W 5641   6.712   6.528   7.672  0.0273  0.0417 -0.2725
 5642W        W 5642  10.122   3.335   1.796 -0.1841 -0.0589  0.0736
 5643W        W 5643   5.911   5.083   6.880 -0.2645 -0.3102 -0.0827
 5644W        W 5644   7.601   8.816   4.588  0.2504  0.0445  0.0240
 5645W        W 5645   9.702   4.708   3.153  0.0103  0.0302 -0.2808
 5646W        W 5646   7.133   9.034   4.638 -0.2358 -0.0325 -0.0379
 5647W        W 5647   8.109   2.919   6.226  0.1801  0.0659  0.1128
 5648W        W 5648   7.237   2.411   7.151  0.1728  0.1212 -0.2348
 5649W        W 5649   4.528   1.143   7.725 -0.2633  0.0710  0.2282
 5650W        W 5650   3.450   8.257   1.574  0.0331  0.0148 -0.2982
 5651W        W 5651   1.886   0.600   2.568 -0.0038 -0.2280  0.1201
 5652W        W 5652   5.877   2.156   1.012  0.1517 -0.1714  0.0039
 5653W        W 5653   8.165   6.673   3.040  0.2072 -0.1165 -0.0800
 5654W        W 5654   8.739   9.526   6.639  0.0879 -0.1369  0.4243
 5655W        W 5655   7.839   1.759   1.260 -0.1319  0.2016  0.1055
 5656W        W 5656   6.495   4.669   7.602  0.0510  0.3879 -0.2581
 5657W        W 5657   9.836   6.732   2.177 -0.0222 -0.0189  0.0019
 5658W        W 5658   8.971   6.473   4.243  0.0490  0.0446  0.0019
 5659W        W 5659   0.238   3.913   9.055  0.0507 -0.0880 -0.0806
 5660W        W 5660   8.424   7.435   1.149  0.1268  0.3855 -0.0934
 5661W        W 5661  10.161   0.262   8.029 -0.1129  0.0783  0.0838
 5662W        W 5662   8.829   3.202   4.079  0.0412  0.1317 -0.3680
 5663W        W 5663   8.416   1.421   2.754  0.0130 -0.1037 -0.0983
 5664W        W 5664   7.846   7.090   9.851  0.1455 -0.0364  0.0480
 5665W        W 5665   9.678   9.961   6.794  0.0348  0.2279  0.0480
 5666W        W 5666   7.725   9.279   1.258 -0.0621 -0.0416 -0.1356
 5667W        W 5667   2.497   0.319   9.639  0.1208  0.0675 -0.0199
 5668W        W 5668   7.007   5.287   6.081 -0.1469 -0.3132 -0.0595
 5669W        W 5669   9.920   5.464   6.651  0.0026 -0.1193  0.2451
 5670W        W 5670   7.257   1.732  10.301 -0.0296  0.0488 -0.1553
 5671W        W 5671   3.861   4.430   0.402 -0.0097  0.0572  0.1333
 5672W        W 5672   8.152   0.537   8.874  0.1378 -0.1317  0.2468
 5673W        W 5673   3.978   3.452   9.704  0.0181 -0.0397 -0.2351
 5674W        W 5674   5.483   5.483   6.247 -0.1929  0.2481 -0.0985
 5675W        W 5675   1.439   2.282   3.118 -0.0010  0.0461  0.0448
 5676W        W 5676   0.716   1.188   1.127  0.0122  0.0786 -0.1173
 5677W        W 5677   0.581   7.551   4.190 -0.0143  0.0184  0.0519
 5678W        W 5678   2.944   1.830   0.072 -0.2853 -0.0493 -0.1596
 5679W        W 5679   8.841   9.784   3.761 -0.2663  0.2673 -0.0464
 5680W        W 5680   5.756   5.140   4.736  0.0341 -0.3098  0.1476
 5681W        W 5681   6.389   9.473   0.096 -0.0707  0.0707  0.0631
 5682W        W 5682   6.493   1.667   5.761  0.2594 -0.1391  0.0087
 5683W        W 5683   1.599   6.750   0.350 -0.1468 -0.2256 -0.3116
 5684W        W 5684   2.495   7.757   4.497 -0.2402  0.1014 -0.2294
 5685W        W 5685   9.345   3.004   2.357  0.1573  0.0009 -0.1824
 5686W        W 5686   0.924   3.437   8.876  0.0007 -0.0923  0.2627
 5687W        W 5687   8.767   3.991   0.875  0.2112 -0.1573  0.0783
 5688W        W 5688   2.067   2.381   0.616 -0.3422 -0.1803  0.0384
 5689W        W 5689   6.761   0.136   0.184 -0.3639  0.1242  0.1562
 5690W        W 5690   0.644   5.997   2.564 -0.1251 -0.0125  0.2105
 5691W        W 5691   7.391   2.525   3.192 -0.1085  0.1343  0.0274
 5692W        W 5692  10.210   9.399   7.254  0.2192  0.0224 -0.0157
 5693W        W 5693   9.986   2.083   0.756 -0.1096  0.1345  0.2137
 5694W        W 5694   0.153   1.852   6.252 -0.0647 -0.1112  0.1151
 5695W        W 5695   4.451   1.955   7.023  0.1853 -0.1395  0.1493
 5696W        W 5696   5.077   7.420   9.661  0.1788  0.0757 -0.1229
 5697W        W 5697   4.613   3.858   4.166  0.0566 -0.0277 -0.1131
 5698W        W 5698   0.518   0.079   6.220  0.0991 -0.0057 -0.1706
 5699W        W 5699   0.046   0.096   0.908 -0.2451  0.1657 -0.2137
 5700W        W 5700   3.272   9.578   4.698 -0.1019  0.0919  0.5778
 5701W        W 5701   8.993   5.628   3.460 -0.0453 -0.4174 -0.1139
 5702W        W 5702   3.122   2.739   0.456 -0.2102 -0.0878 -0.0283
 5703W        W 5703   8.988   4.280   9.193  0.1150  0.2169 -0.0621
 5704W        W 5704   3.814   5.989   0.369 -0.0376  0.0830  0.1534
 5705W        W 5705   4.506   8.395  10.325  0.1324  0.0885 -0.1420
 5706W        W 5706   9.148   6.512   8.041  0.0223 -0.1476  0.3473
 5707W        W 5707   0.151   0.021   4.877  0.2652 -0.0176  0.0818
 5708W        W 5708   7.521   4.629   9.039 -0.1103  0.0647  0.0814
 5709W        W 5709   5.177   9.301   3.281  0.4062 -0.0737 -0.0934
 5710W        W 5710   5.052   9.744   7.353 -0.0437  0.1591 -0.1597
 5711W        W 5711   1.984   9.658   8.017 -0.1389  0.0067  0.2389
 5712W        W 5712  10.168   2.777  10.105  0.2285 -0.0151  0.2627
 5713W        W 5713   5.307   5.448   9.280  0.0412 -0.1229 -0.0246
 5714W        W 5714   6.189   9.831   1.904  0.5533 -0.0129 -0.1165
 5715W        W 5715   0.258  10.287   7.991 -0.0635 -0.0570 -0.3295
 5716W        W 5716   4.508   1.294   4.935 -0.3067 -0.1963 -0.3384
 5717W        W 5717   0.439   9.497   4.491  0.1822 -0.0538 -0.4390
 5718W        W 5718   2.845   3.529   6.049  0.1589  0.1790 -0.0570
 5719W        W 5719   3.766   2.440   5.823 -0.2947 -0.3867 -0.1421
 5720W        W 5720   0.858   9.980   4.219 -0.1577  0.0548 -0.1637
 5721W        W 5721   2.738   3.106   3.943 -0.0659 -0.1819  0.1287
 5722W        W 5722   0.470   6.845   4.403  0.1427  0.0012 -0.4166
 5723W        W 5723   2.228   0.343   7.663 -0.1039  0.2059 -0.2740
 5724W        W 5724   4.623   1.741   1.761  0.0157 -0.2371 -0.1911
 5725W        W 5725   1.889   7.082   2.421 -0.1852  0.4865  0.2731
 5726W        W 5726   2.665   0.400   4.664  0.0910  0.0658  0.1223
 5727W        W 5727   0.402   2.458   8.211 -0.2074 -0.1456 -0.2643
 5728W        W 5728  10.239   5.523   2.639 -0.0147 -0.2210  0.1629
 5729W        W 5729   4.390   1.172   0.261 -0.2751 -0.1514 -0.1883
 5730W        W 5730   4.400   6.887   3.644 -0.0735 -0.2677  0.1686
 5731W        W 5731   8.650  10.159   3.970  0.0687  0.0610  0.1763
 5732W        W 5732   7.878   3.746   4.495  0.0942  0.0964 -0.3386
 5733W        W 5733   3.555   5.749   3.903 -0.0537  0.3029 -0.1662
 5734W        W 5734   3.688   4.165   6.837  0.4163 -0.2624 -0.1939
 5735W        W 5735   9.612   1.173   3.682 -0.3840  0.0643 -0.0071
 5736W        W 5736   1.379   1.199   0.165 -0.0815 -0.0189  0.2681
 5737W        W 5737   2.743   6.524   6.578 -0.3356  0.2601 -0.2568
 5738W        W 5738   0.320   3.371   8.306  0.1468 -0.0148  0.3614
 5739W        W 5739   9.866   0.988   9.217  0.3256  0.0485 -0.0190
 5740W        W 5740   0.789   6.796   5.905  0.0734  0.0731 -0.0750
 5741W        W 5741   9.732   3.940   4.077  0.1477  0.1115  0.3945
 5742W        W 5742   2.002   1.067   6.044 -0.0090 -0.1108  0.2192
 5743W        W 5743   0.341  10.260   2.872 -0.2867 -0.2122 -0.1917
 5744W        W 5744   0.318   7.813   6.178 -0.2145  0.2367  0.1532
 5745W        W 5745   7.280   6.620   8.385 -0.3234  0.1321  0.2828
 5746W        W 5746   9.478   8.248   3.987 -0.0001 -0.0011  0.1524
 5747W        W 5747   4.631   0.403   8.323 -0.1450 -0.1542  0.2150
 5748W        W 5748   5.994   8.665   4.717 -0.0358 -0.0738  0.2322
 5749W        W 5749   9.748   3.662   5.025  0.0473  0.3970 -0.1011
 5750W        W 5750   6.121   8.340   8.640 -0.1695 -0.0144  0.0329
 5751W        W 5751   0.912   8.263   3.058 -0.0338  0.0521  0.2712
 5752W        W 5752   3.955   4.876   8.839  0.0303 -0.0823  0.1333
 5753W        W 5753   3.912   0.769   2.708  0.1174  0.0165  0.0418
 5754W        W 5754   1.680   0.062   5.623  0.3372  0.0119 -0.0354
 5755W        W 5755   0.040   2.386   7.067 -0.0405 -0.1680  0.3032
 5756W        W 5756   4.153   5.544   5.196 -0.2267 -0.1276 -0.4925
 5757W        W 5757   4.326   0.666   0.014  0.0363  0.1690  0.0158
 5758W        W 5758   4.714   6.020   0.169 -0.0474  0.3373 -0.1956
 5759W        W 5759   6.918   9.706   1.422 -0.0041 -0.1015 -0.0575
 5760W        W 5760   3.138   3.834   4.972 -0.0147  0.2854 -0.1547
 5761W        W 5761   1.923   1.076   2.523 -0.1060  0.1616  0.3952
 5762W        W 5762   9.879   0.628   0.518  0.0627 -0.2683  0.3261
 5763W        W 5763   7.976   3.498   6.378 -0.1000 -0.1775 -0.3432
 5764W        W 5764   6.777   8.433   4.145  0.0607 -0.0028  0.1181
 5765W        W 5765   8.734   2.415   3.584 -0.2547 -0.1227 -0.0039
 5766W        W 5766   0.126   3.482   4.291  0.5209  0.1431 -0.1852
 5767W        W 5767  10.125   3.169   4.517  0.2677 -0.0723 -0.0766
 5768W        W 5768   2.120   0.368   9.259 -0.4133 -0.3286  0.2983
 5769W        W 5769   5.851   2.586   0.270  0.1523 -0.0546 -0.1304
 5770W        W 5770   3.025   1.536   4.704 -0.2604  0.2437  0.0022
 5771W        W 5771   7.452   1.191   6.555  0.0924  0.0687  0.1234
 5772W        W 5772   7.401   4.694   7.179 -0.0092  0.0059 -0.1113
 5773W        W 5773   8.879   7.145   4.687 -0.0139 -0.3145  0.3130
 5774W        W 5774   6.157   9.382   9.888 -0.2834 -0.1546  0.2586
 5775W        W 5775   9.966   3.297   0.615  0.0814 -0.1273 -0.2171
 5776W        W 5776   6.746   1.902   9.271  0.1089  0.2326 -0.0075
 5777W        W 5777   8.108   7.979  10.189  0.0116  0.1046  0.0737
 5778W        W 5778   5.286   6.999   9.498  0.0857  0.2713  0.2229
 5779W        W 5779   8.464   8.539   6.530  0.3235  0.1864 -0.4198
 5780W        W 5780   8.444   8.144   5.002 -0.2681  0.0530 -0.0319
 5781W        W 5781   4.291   2.006   4.200  0.0584 -0.1797  0.0656
 5782W        W 5782   5.760   0.355   6.258  0.0537 -0.0907 -0.0630
 5783W        W 5783   5.567   1.371   3.082 -0.2716 -0.1693  0.0634
 5784W        W 5784   0.941   1.694   5.435  0.0481 -0.3737 -0.2434
 5785W        W 5785   8.584   5.534   4.202  0.0214 -0.0862  0.0156
 5786W        W 5786   0.945   5.585   9.389 -0.0867 -0.0470 -0.0468
 5787W        W 5787   9.891   4.812   7.469  0.0093 -0.0428  0.2794
 5788W        W 5788   8.605   3.130   0.744 -0.0615  0.4126 -0.1800
 5789W        W 5789   0.826   3.310   4.989 -0.1783  0.3334 -0.1849
 5790W        W 5790   0.791   8.474   3.507  0.1100  0.1186  0.1563
 5791W        W 5791   7.103   1.415   3.668 -0.2738  0.1612  0.1539
 5792W        W 5792   8.415   3.778   7.154 -0.1028 -0.2502  0.1535
 5793W        W 5793   0.499   9.308   2.610 -0.0081  0.3020 -0.1702
 5794W        W 5794   8.528   5.149   7.791 -0.1217  0.1612 -0.0143
 5795W        W 5795   8.680   9.041   0.822  0.0432  0.1742 -0.0181
 5796W        W 5796   1.963  10.012   2.164  0.0601 -0.1225 -0.0016
 5797W        W 5797   2.956   7.280   2.498 -0.4154 -0.0111 -0.1625
 5798W        W 5798   7.073   0.429   2.091 -0.2791 -0.0532 -0.4656
 5799W        W 5799   3.771   9.926   0.819 -0.0067 -0.2903 -0.3701
 5800W        W 5800   8.044   1.092   9.949 -0.2232  0.0284  0.1488
 5801W        W 5801   1.675   9.361   4.795  0.1441 -0.1590  0.1891
 5802W        W 5802   9.223   3.143   1.052 -0.1716 -0.1684  0.2466
 5803W        W 5803   2.029   9.675   1.806 -0.1393  0.0636 -0.0048
 5804W        W 5804   7.902   0.406   3.915 -0.3036 -0.0267 -0.0765
 5805W        W 5805   7.469   3.537   0.929  0.3700 -0.2696 -0.2732
 5806W        W 5806   1.551  10.049   6.948 -0.0304 -0.0595  0.0691
 5807W        W 5807   7.975   9.638   0.973  0.1371  0.4663 -0.2316
 5808W        W 5808   3.906   5.960   7.955  0.0366  0.1704  0.2437
 5809W        W 5809   9.189   9.453   4.114  0.3558  0.1476  0.0521
 5810W        W 5810   8.091   8.793   9.867  0.0562  0.2859 -0.0647
 5811W        W 5811   3.065  10.314   5.875 -0.1697 -0.0085  0.1624
 5812W        W 5812   7.989   9.035   1.620 -0.2322  0.0861 -0.0969
 5813W        W 5813   7.705   7.869   5.583  0.0756  0.1426  0.0924
 5814W        W 5814   1.389   9.553   8.428 -0.1211  0.1170 -0.3202
 5815W        W 5815   6.794   6.799   0.393 -0.0102 -0.0396 -0.2865
 5816W        W 5816   3.925   6.115   4.070  0.0839  0.0251  0.1579
 5817W        W 5817   6.223   0.324   4.647 -0.0925  0.0311  0.1998
 5818W        W 5818   0.435   0.990   0.275  0.3496  0.1600 -0.5260
 5819W        W 5819   0.923   3.969   1.834  0.0872 -0.0274  0.1493
 5820W        W 5820   0.189   3.443   0.837  0.3267  0.2484 -0.3350
 5821W        W 5821   1.171   9.500   7.610 -0.0751 -0.2351 -0.1704
 5822W        W 5822   3.432   8.856   6.646  0.1136  0.1249 -0.0893
 5823W        W 5823   1.530   7.797   6.454 -0.1484  0.0058  0.0586
 5824W        W 5824   7.800   5.982   8.462 -0.0786 -0.0634  0.2288
 5825W        W 5825   3.604   9.353   0.911 -0.2239 -0.2436  0.0881
 5826W        W 5826   3.631   8.346   0.568 -0.2027  0.0976  0.1089
 5827W        W 5827   9.966   0.397   2.163 -0.0026 -0.1496  0.1638
 5828W        W 5828   5.061   1.232   3.161  0.0607  0.2138  0.2336
 5829W        W 5829   9.740  10.266   8.182 -0.2846  0.1255  0.2341
 5830W        W 5830   3.193   3.086   2.163 -0.2084 -0.0084  0.0756
 5831W        W 5831  10.178   4.590   5.302  0.0496 -0.1963  0.3050
 5832W        W 5832   2.512   0.449   1.396 -0.0162  0.1195 -0.0019
 5833W        W 5833   6.710   2.760   0.754 -0.1024 -0.1449  0.5162
 5834W        W 5834   7.799   3.392   1.926  0.1490 -0.1429 -0.0803
 5835W        W 5835   0.349   0.330   8.412 -0.1555  0.0581  0.1969
 5836W        W 5836   9.654   1.433   2.176  0.3448 -0.2090 -0.4155
 5837W        W 5837   1.298  10.332   0.089 -0.2673 -0.0119 -0.1138
 5838W        W 5838   5.495   3.171   9.294 -0.0644  0.0969 -0.2342
 5839W        W 5839   3.479   9.854   0.024  0.0678 -0.1392  0.2734
 5840W        W 5840   3.244   6.581   4.953  0.0433  0.1890  0.2271
 5841W        W 5841   7.330   5.637   6.256  0.0705  0.2524  0.0014
 5842W        W 5842   0.242   1.649   9.453 -0.2100  0.4233  0.0334
 5843W        W 5843   2.786   4.372   5.781 -0.2393 -0.2247  0.0989
 5844W        W 5844  10.207   1.873   8.930  0.1388 -0.0377  0.2403
 5845W        W 5845   9.831   4.770   0.201  0.0107 -0.0301  0.0087
 5846W        W 5846   2.707   1.537   7.101  0.1375  0.2090  0.0862
 5847W        W 5847   5.843   2.584   1.412 -0.0030 -0.1076  0.1282
 5848W        W 5848   7.856   7.447   5.409  0.1930 -0.1342 -0.0042
 5849W        W 5849   3.241   4.672   5.539  0.2015 -0.0501 -0.1986
 5850W        W 5850   2.806   7.558   8.270 -0.1443  0.1837  0.1031
 5851W        W 5851   6.171   2.925   2.171  0.2420  0.2302  0.0210
 5852W        W 5852  10.297   2.450   0.129 -0.0722 -0.1524 -0.1090
 5853W        W 5853   7.672   9.507   7.191 -0.1460  0.1306 -0.1096
 5854W        W 5854   4.548   0.409   7.577 -0.0875 -0.2268  0.1652
 5855W        W 5855   4.758   5.261   8.713  0.1933  0.1912 -0.0156
 5856W        W 5856   0.847   0.494   5.992 -0.2342  0.1337  0.1455
 5857W        W 5857   4.095   8.179   2.281  0.1105 -0.1936 -0.1901
 5858W        W 5858   3.720   2.420   2.770 -0.0556 -0.1635  0.1387
 5859W        W 5859   3.834   0.163   1.743 -0.1489 -0.1939  0.3050
 5860W        W 5860   6.948   1.941   2.276 -0.1051 -0.1010  0.1512
 5861W        W 5861   4.643   8.896   5.044  0.2113 -0.0832 -0.4350
 5862W        W 5862   3.586   1.101   2.960  0.0697  0.0798 -0.1842
 5863W        W 5863   2.295   1.211   8.451 -0.0653  0.0781  0.0313
 5864W        W 5864   3.379   8.873   2.717  0.0772 -0.1040  0.0735
 5865W        W 5865   0.006   9.330   2.819 -0.1116  0.0254 -0.2823
 5866W        W 5866   5.491   9.793   6.565 -0.0233  0.1425  0.1425
 5867W        W 5867   0.487   3.409   6.560 -0.2712 -0.1294 -0.2897
 5868W        W 5868   0.829   5.347   6.271 -0.3455 -0.0232  0.0516
 5869W        W 5869   9.948   2.422   4.916 -0.0755 -0.1394 -0.1030
 5870W        W 5870   0.720   6.354   0.005 -0.1729  0.1138 -0.0255
 5871W        W 5871   2.120   6.510   9.687 -0.0337 -0.0628  0.0487
 5872W        W 5872   1.774   4.513   9.766 -0.2966  0.1685  0.4160
 5873W        W 5873   6.207   5.485   7.636  0.1244  0.0153  0.0015
 5874W        W 5874   8.143   5.366   2.217  0.1324 -0.3262 -0.1453
 5875W        W 5875   0.780   4.633   0.707 -0.0270  0.1741  0.3002
 5876W        W 5876   2.182   9.713   5.934  0.0780  0.2764  0.3062
 5877W        W 5877  10.306   6.950   0.991 -0.1028  0.1544  0.3626
 5878W        W 5878   8.335   9.900  10.232 -0.1676  0.0755 -0.0087
 5879W        W 5879   2.166   6.522   5.614 -0.0931  0.0185 -0.0703
 5880W        W 5880   0.855   2.700   0.315 -0.0064  0.1292  0.0935
 5881W        W 5881   6.288   7.059   9.926 -0.0997 -0.0709 -0.1969
 5882W        W 5882   2.505   8.226   9.825 -0.0428 -0.0051  0.0558
 5883W        W 5883   4.683   5.468   7.837 -0.0246  0.2602 -0.3552
 5884W        W 5884   2.984   1.585   3.794 -0.1487 -0.0128 -0.0366
 5885W        W 5885   2.554   2.728   6.446  0.0915 -0.0777  0.3802
 5886W        W 5886   3.766   2.809  10.183 -0.3743 -0.1516  0.1609
 5887W        W 5887   2.556   8.992   0.861 -0.1037 -0.2732  0.1342
 5888W        W 5888   9.338   6.920   0.252  0.3573 -0.0899  0.1114
 5889W        W 5889   6.286   7.717   5.866  0.3659 -0.1134 -0.0079
 5890W        W 5890   6.084   0.170   0.463  0.0426  0.1658 -0.0698
 5891W        W 5891   9.672   5.253   8.427  0.0033 -0.2020 -0.1884
 5892W        W 5892  10.042   2.568   6.745 -0.0550  0.1219  0.0734
 5893W        W 5893   4.053   7.504   4.136 -0.2950  0.0398  0.2390
 5894W        W 5894   0.390   0.423   7.200 -0.1742  0.0294  0.0635
 5895W        W 5895   5.437   4.215   1.038 -0.0592 -0.0275 -0.0256
 5896W        W 5896   2.903   0.985   6.743 -0.1203  0.0469 -0.1687
 5897W        W 5897   2.777   7.991   2.498  0.4990 -0.0830  0.1702
 5898W        W 5898   3.531   8.400   3.001  0.0425 -0.0734  0.3385
 5899W        W 5899   4.263  10.245   2.955  0.1749  0.0428 -0.0040
 5900W        W 5900   7.613   5.042   4.436  0.0321 -0.3753  0.0503
 5901W        W 5901   2.626   4.723   5.409 -0.0201 -0.0140 -0.3071
 5902W        W 5902   6.059   3.019   9.102 -0.1753  0.1885 -0.2653
 5903W        W 5903   0.970   8.668   2.168 -0.0804  0.3405  0.2802
 5904W        W 5904   1.457   9.264   0.330  0.1490 -0.1487 -0.1753
 5905W        W 5905   4.491   9.628   6.564  0.0982  0.0123  0.1580
 5906W        W 5906   1.201  10.063   2.610 -0.1498  0.0899  0.0049
 5907W        W 5907   2.224   3.542   5.179  0.1763 -0.0874 -0.1417
 5908W        W 5908   3.728   8.759   8.176  0.2618  0.1271  0.0126
 5909W        W 5909   9.398   6.694  10.115 -0.0458  0.1601 -0.3316
 5910W        W 5910   4.854   6.460   7.328  0.1296 -0.1834  0.2676
 5911W        W 5911   8.462   3.465   6.073 -0.0597  0.0364 -0.0979
 5912W        W 5912   8.340   8.590   4.692  0.0135 -0.1284  0.0625
 5913W        W 5913   6.757   7.959   4.492 -0.1542  0.1162  0.1462
 5914W        W 5914   7.569   9.359   4.374  0.0869 -0.2583  0.0375
 5915W        W 5915   7.472  10.139   7.742 -0.2645  0.3013 -0.0314
 5916W        W 5916   2.540   3.234   8.310 -0.0278 -0.0709 -0.1399
 5917W        W 5917  10.071   5.063   2.515 -0.1964 -0.1584  0.3689
 5918W        W 5918   9.361   2.147   0.299  0.1753 -0.0410 -0.2228
 5919W        W 5919   0.268   6.890   3.438 -0.1164  0.1210  0.1396
 5920W        W 5920   9.841   7.739   7.933 -0.1425 -0.0654 -0.3508
 5921W        W 5921   0.689   3.714   7.825 -0.0131  0.0615  0.1603
 5922W        W 5922   1.542   8.041   6.963 -0.1517 -0.0602  0.1238
 5923W        W 5923   8.336   9.752   3.267  0.0282 -0.2324 -0.1307
 5924W        W 5924   2.534   6.385   9.437 -0.0213 -0.4373  0.4509
 5925W        W 5925   7.563   8.557   5.411 -0.0881  0.3214  0.0906
 5926W        W 5926   2.613   8.740   7.609  0.0161 -0.0466  0.2600
 5927W        W 5927   1.753   6.878   6.435 -0.1138  0.0209  0.1071
 5928W        W 5928   3.916   0.795   0.565 -0.4132 -0.2444 -0.3375
 5929W        W 5929   9.978   3.904   7.807  0.1819 -0.1384 -0.2590
 5930W        W 5930   2.820   9.104   9.901 -0.1476  0.1372 -0.3471
 5931W        W 5931   0.485  10.164   1.185  0.1547 -0.3164  0.2783
 5932W        W 5932   1.104   0.209   2.725  0.1244 -0.1047 -0.3310
 5933W        W 5933   0.595   2.694   4.077 -0.0669 -0.1238 -0.0921
 5934W        W 5934   4.921   9.472   0.424  0.2660 -0.0895 -0.0090
 5935W        W 5935   3.027   5.989   0.467  0.3315 -0.2996  0.0169
 5936W        W 5936   6.092   7.426   5.058 -0.0224  0.0378  0.2716
 5937W        W 5937   7.885   6.795   1.487  0.3359  0.2732 -0.2403
 5938W        W 5938   6.632   0.863   5.400 -0.1820 -0.1233  0.1423
 5939W        W 5939   3.387   4.264  10.312  0.2254  0.1505  0.0936
 5940W        W 5940   0.090   9.621   5.449  0.1158 -0.4636 -0.0575
 5941W        W 5941   3.405   3.921   7.249  0.1076  0.2161  0.1761
 5942W        W 5942   6.439   2.137   8.826  0.1030  0.1252 -0.1490
 5943W        W 5943   0.571   5.868   1.687  0.1463 -0.0731 -0.0379
 5944W        W 5944   6.541   7.531   8.952 -0.3835 -0.0712  0.0713
 5945W        W 5945   9.994   9.485   4.704 -0.2251 -0.0396 -0.2097
 5946W        W 5946  10.108   5.362   4.625  0.0104 -0.0047 -0.0679
 5947W        W 5947   0.102   4.415   9.160  0.1810 -0.0273 -0.5820
 5948W        W 5948   9.980   1.622   9.964  0.0212 -0.3729 -0.1184
 5949W        W 5949  10.148   1.470   9.227 -0.2204  0.1914  0.3662
 5950W        W 5950   3.518   1.935   5.887  0.3034 -0.3867  0.0322
 5951W        W 5951   2.359   3.364   4.257 -0.1470  0.2253  0.2465
 5952W        W 5952   2.881   3.612   7.073 -0.0429 -0.3937 -0.2283
 5953W        W 5953   7.591   8.543   9.890 -0.1058  0.2126 -0.1151
 5954W        W 5954   0.112   6.468   1.148 -0.1764 -0.0397  0.1859
 5955W        W 5955   4.691   4.698   5.398  0.1499  0.1115  0.0659
 5956W        W 5956   7.506   0.176   5.549 -0.0399  0.1940  0.0840
 5957W        W 5957   5.568   3.200   6.469  0.0122  0.0622  0.0802
 5958W        W 5958   3.737   8.360   6.069  0.3185  0.2499  0.3528
 5959W        W 5959   7.379   4.950   6.292  0.0880 -0.0121  0.0232
 5960W        W 5960   0.452   1.219  10.173  0.1117  0.1902 -0.1513
 5961W        W 5961   0.742   6.370   5.582  0.1351  0.0536 -0.2932
 5962W        W 5962   4.058   2.124   3.153  0.1115  0.2117 -0.0492
 5963W        W 5963   3.343   6.650   0.017  0.1846  0.1168  0.4358
 5964W        W 5964   1.465   0.929   1.705 -0.0987  0.1059 -0.0341
 5965W        W 5965  10.335   1.852   2.681  0.4019  0.1063 -0.0283
 5966W        W 5966   1.513   7.609   8.490  0.0817  0.2312  0.0670
 5967W        W 5967   6.759   1.292   1.714 -0.1470  0.0588  0.0545
 5968W        W 5968   7.703   7.707   7.236  0.2264 -0.1581  0.0317
 5969W        W 5969   4.288   7.801   5.644  0.0030  0.1045 -0.2466
 5970W        W 5970   2.031   1.910   3.328 -0.0961  0.1589  0.0571
 5971W        W 5971   1.154   6.063   2.529 -0.2378  0.0647  0.2476
 5972W        W 5972   1.287   0.465   6.225 -0.2337 -0.0260  0.2972
 5973W        W 5973   4.978   0.704   5.321  0.1554  0.1233  0.1491
 5974W        W 5974   5.082   0.346   3.231 -0.1458 -0.3726  0.2469
 5975W        W 5975   6.437   4.777   2.216  0.4233 -0.3708  0.1245
 5976W        W 5976   7.633   4.080   8.120  0.0408  0.1594  0.2513
 5977W        W 5977   1.497   5.961   7.294  0.1285 -0.2367 -0.2770
 5978W        W 5978   6.422   0.187   3.029 -0.0567  0.0726 -0.0401
 5979W        W 5979   4.072   8.831   8.533  0.2480 -0.0925 -0.1827
 5980W        W 5980   0.342   1.617   1.878  0.0461  0.3062 -0.0694
 5981W        W 5981   0.098   2.423   4.084 -0.1205 -0.2523 -0.0237
 5982W        W 5982   8.522   0.190   4.282  0.2242 -0.2964 -0.2605
 5983W        W 5983   3.365   2.719   7.857  0.0469 -0.0552 -0.4179
 5984W        W 5984  10.304   1.087   4.777  0.0728 -0.1028 -0.0429
 5985W        W 5985   3.828  10.314  10.199 -0.0958  0.0578  0.3069
 5986W        W 5986   2.655   6.657   2.468 -0.1718 -0.1267  0.0868
 5987W        W 5987   9.982   0.053   1.166 -0.0335 -0.2598  0.0103
 5988W        W 5988   1.440   1.281   9.482  0.0232 -0.1465 -0.2644
 5989W        W 5989   4.021   9.895   0.002 -0.3998  0.0772 -0.0288
 5990W        W 5990   7.881   5.387   8.415 -0.2150  0.2174  0.0117
 5991W        W 5991   9.549   2.737   6.734  0.1044 -0.1333 -0.0710
 5992W        W 5992   5.768   7.050   9.182 -0.0249  0.1228  0.5043
 5993W        W 5993   8.958   8.842   6.337 -0.2257  0.3864 -0.0421
 5994W        W 5994   2.078   4.321   2.891 -0.0456  0.1301 -0.0680
 5995W        W 5995   4.019   0.742   1.696 -0.1214 -0.2000  0.2387
 5996W        W 5996   3.603   4.366   9.827  0.0725  0.1661 -0.2155
 5997W        W 5997   2.744   6.228   0.982  0.0338  0.3695  0.0606
 5998W        W 5998   0.853   0.322   6.955 -0.2968  0.1741  0.2939
 5999W        W 5999   1.421   0.664   4.791 -0.2821 -0.1850 -0.0218
 6000W        W 6000   5.644   0.221   0.230  0.0599 -0.0234 -0.1639
 6001W        W 6001   5.670   1.266   8.844  0.2672 -0.1017 -0.2595
 6002W        W 6002   2.221   9.476   3.085  0.1768  0.0622 -0.1070
 6003W        W 6003   7.499   2.077   0.427  0.0816 -0.2436  0.2285
 6004W        W 6004   2.784   0.455   6.619 -0.0775  0.2367 -0.0088
 6005W        W 6005   9.221   1.595   8.806  0.0704 -0.0421  0.1189
 6006W        W 6006   8.325   6.347   7.022 -0.3661  0.2294 -0.2411
 6007W        W 6007   7.443   9.304   0.828 -0.3375 -0.0177 -0.1924
 6008W        W 6008   6.455   3.016   7.478  0.2172  0.0412 -0.0949
 6009W        W 6009   2.263   4.848   2.079 -0.1499 -0.2645 -0.0707
 6010W        W 6010   4.213   1.875   7.495 -0.0285 -0.0236 -0.1723
 6011W        W 6011   9.050   7.484   5.887  0.3764  0.0283 -0.0356
 6012W        W 6012  10.202   1.677   1.667  0.0423 -0.1730 -0.0014
 6013W        W 6013   8.478   6.214   1.859  0.1781 -0.0288  0.1350
 6014W        W 6014   0.665   1.274   0.588  0.2447 -0.0610 -0.0127
 6015W        W 6015   5.957   6.606  10.050  0.2278 -0.1506  0.0287
 6016W        W 6016   9.421   7.449   9.718 -0.2303  0.0251 -0.1014
 6017W        W 6017   3.544   2.768   6.539  0.2161 -0.1842 -0.0443
 6018W        W 6018   3.070   4.955   4.547  0.0475 -0.0751  0.0302
 6019W        W 6019   3.660   4.814   0.725  0.2387  0.2318 -0.0177
 6020W        W 6020   5.638  10.193   2.629  0.0255 -0.0440  0.0684
 6021W        W 6021   5.100   2.997   4.925  0.2695 -0.1090  0.1618
 6022W        W 6022   1.444   4.580   5.348 -0.2251  0.3830 -0.2565
 6023W        W 6023   4.932   3.051   8.338 -0.0148 -0.0695  0.0140
 6024W        W 6024   3.673   5.869   4.455  0.0866 -0.3151 -0.2154
 6025W        W 6025   3.992   9.180   0.460 -0.0238 -0.0200  0.4813
 6026W        W 6026   8.211   1.369   3.690  0.3069  0.0302  0.0828
 6027W        W 6027   9.499   7.101   4.640  0.3086  0.3949 -0.5940
 6028W        W 6028   3.536   2.916   3.761 -0.4429 -0.0024  0.0212
 6029W        W 6029   8.718   1.334   3.570 -0.0230  0.0734  0.0575
 6030W        W 6030   6.836   1.756   9.975 -0.1103  0.0327  0.2508
 6031W        W 6031   1.993   4.503   7.979 -0.0536 -0.1578  0.0823
 6032W        W 6032   8.143   2.359   3.625 -0.2970  0.1757 -0.0018
 6033W        W 6033   0.169   7.366   2.155  0.0135  0.1150  0.0671
 6034W        W 6034   3.045   6.141   8.705  0.1492  0.1106  0.0738
 6035W        W 6035   5.542   1.454   5.188 -0.1235  0.0089  0.1656
 6036W        W 6036   1.710   6.729   5.773 -0.1264  0.0498 -0.0417
 6037W        W 6037   2.832   8.500   8.075  0.1385 -0.1173  0.1101
 6038W        W 6038   0.492   6.342   4.174  0.1395  0.0471 -0.3463
 6039W        W 6039   9.265   2.220  10.114 -0.0093  0.1144 -0.0775
 6040W        W 6040   4.090   2.412   2.466  0.3262 -0.3500  0.2022
 6041W        W 6041   1.234   1.742   2.012 -0.3399 -0.0487 -0.0641
 6042W        W 6042   5.167   7.273   5.289  0.0845  0.0681  0.1595
 6043W        W 6043   1.035   5.164   9.809 -0.0890 -0.1857  0.1375
 6044W        W 6044   0.381   9.166   4.917  0.2019  0.1447  0.0076
 6045W        W 6045   5.928   7.892   4.234 -0.1071  0.0807  0.0638
 6046W        W 6046   6.328   9.504   1.543  0.2686  0.1561 -0.0646
 6047W        W 6047   9.405   1.943   5.648 -0.1105 -0.1032  0.3270
 6048W        W 6048   5.693   0.232   1.774 -0.2820  0.1703  0.1346
 6049W        W 6049   5.090   6.073   0.839  0.2799  0.1182 -0.1383
 6050W        W 6050   2.180   5.323   9.045 -0.1368 -0.0303 -0.2288
 6051W        W 6051   9.245   6.206  10.292 -0.0636 -0.3345  0.0390
 6052W        W 6052   5.761   6.513   4.647  0.1127  0.0831 -0.3024
 6053W        W 6053   1.659   2.174   1.975  0.1459 -0.1004  0.0268
 6054W        W 6054   4.330   2.481   7.065 -0.0402 -0.1647 -0.2086
 6055W        W 6055  10.031   0.057   5.113 -0.1729 -0.1964  0.1917
 6056W        W 6056   0.512   6.834   0.458 -0.0192  0.0175 -0.0781
 6057W        W 6057   6.159   6.787   3.439  0.3176  0.2588  0.3851
 6058W        W 6058   4.379   1.910   5.451  0.1063  0.0958  0.0003
 6059W        W 6059   7.030   1.457   1.337 -0.2055  0.3589  0.0972
 6060W        W 6060   9.955   4.724   3.925 -0.0877  0.0490  0.1210
 6061W        W 6061   7.719   0.768   6.634 -0.0194 -0.0516  0.3388
 6062W        W 6062   8.713   3.850   6.247 -0.1364 -0.1014 -0.0135
 6063W        W 6063   5.175   3.015   1.762 -0.4746 -0.1224  0.4499
 6064W        W 6064   1.121   2.272   9.768 -0.0885 -0.0984 -0.0302
 6065W        W 6065   1.438   2.398   6.086 -0.0789 -0.2058  0.1086
 6066W        W 6066   3.098   2.208  10.113  0.0754  0.3986  0.2109
 6067W        W 6067   4.328   3.346   5.851 -0.1967 -0.3561 -0.0376
 6068W        W 6068   7.302   8.743   9.154 -0.0808 -0.1710 -0.0607
 6069W        W 6069   7.162   6.972   8.814 -0.0037  0.0768 -0.0680
 6070W        W 6070   4.010   9.626   9.589 -0.1140  0.5151 -0.0756
 6071W        W 6071   2.013   9.014   4.589 -0.3267 -0.0339 -0.1813
 6072W        W 6072   4.876   8.811   6.656 -0.0326  0.1724  0.1163
 6073W        W 6073   5.093   9.772   2.806  0.0684 -0.2812 -0.1096
 6074W        W 6074   3.141   4.043   9.922 -0.1307 -0.1812  0.0086
 6075W        W 6075   1.502   3.223   5.562  0.2651 -0.1759 -0.0660
 6076W        W 6076   0.755   0.375   3.653 -0.0245  0.2113 -0.3611
 6077W        W 6077   7.684   1.895   7.195  0.1658  0.2134  0.5476
 6078W        W 6078   5.754   2.943   1.834 -0.0552  0.0457 -0.0329
 6079W        W 6079   0.801   3.278   0.881 -0.1078  0.0829 -0.1463
 6080W        W 6080   1.015   5.363   8.950  0.3814 -0.1952 -0.0606
 6081W        W 6081   9.303   3.805   8.438  0.2404  0.3034 -0.0713
 6082W        W 6082   7.742   2.125   8.182  0.2165  0.2166  0.3864
 6083W        W 6083   4.023   5.732   8.819 -0.1936 -0.1347 -0.0872
 6084W        W 6084   5.321   0.452   0.773  0.1168  0.1714 -0.1287
 6085W        W 6085   2.372   3.180   6.574  0.1001 -0.1682  0.3921
 6086W        W 6086   8.510   0.649   4.553 -0.0751  0.0500  0.3472
 6087W        W 6087   0.458   3.617   8.729 -0.0403 -0.1864  0.1408
 6088W        W 6088   6.252   4.303   4.743 -0.1654 -0.0494 -0.3051
 6089W        W 6089   0.555   5.903   9.980 -0.0995 -0.0485 -0.0777
 6090W        W 6090   6.630   8.657   2.902 -0.0111 -0.1259  0.0680
 6091W        W 6091   2.440   1.589   3.462 -0.1079  0.1151  0.0817
 6092W        W 6092   2.082   8.615   7.747  0.1717  0.1278  0.0259
 6093W        W 6093   1.034   5.974  10.208  0.2737 -0.0388  0.2054
 6094W        W 6094   9.496   8.324   8.041 -0.0689 -0.1198 -0.1351
 6095W        W 6095   1.757   0.002   4.548 -0.0498  0.1800  0.0334
 6096W        W 6096   5.644   6.522   8.465  0.0541  0.1299 -0.0861
 6097W        W 6097   7.279   3.327   2.199  0.0684 -0.1193  0.2230
 6098W        W 6098   8.439   9.430   7.096  0.1586  0.3131  0.1021
 6099W        W 6099   1.867   6.161   1.453  0.0242 -0.2048 -0.0667
 6100W        W 6100   6.006   9.175   3.506 -0.1557  0.1389  0.0409
 6101W        W 6101   4.987   7.000   2.880  0.2869 -0.0361 -0.2233
 6102W        W 6102   4.133   4.237   2.560  0.1413 -0.0338  0.4298
 6103W        W 6103   8.117   2.072   5.432 -0.2246 -0.2238 -0.2875
 6104W        W 6104   6.330   3.151   4.954  0.0742 -0.0155  0.0330
 6105W        W 6105   8.119   8.996   7.132  0.0795  0.0094 -0.1497
 6106W        W 6106   8.207   3.686   8.856 -0.1292  0.0677  0.3463
 6107W        W 6107   4.242   3.001   6.907  0.1307 -0.2568 -0.1211
 6108W        W 6108   0.052   1.839   5.737 -0.0214  0.1341  0.2398
 6109W        W 6109   7.428   0.798   3.898 -0.2295  0.0533 -0.0466
 6110W        W 6110   8.865   2.914   3.598  0.1578 -0.1996 -0.0673
 6111W        W 6111   0.092   1.299   6.930 -0.2685 -0.0310  0.0642
 6112W        W 6112   2.319   8.386   7.306 -0.1497 -0.1039  0.1004
 6113W        W 6113   3.228   5.704   2.766 -0.3251 -0.0902  0.3008
 6114W        W 6114   7.257   1.890   8.445  0.6006  0.3887  0.1300
 6115W        W 6115   1.030   3.694   0.288 -0.1093  0.1929 -0.1201
 6116W        W 6116   1.002   6.106   6.603 -0.1828 -0.1596 -0.1172
 6117W        W 6117   1.543   8.504   3.896  0.0568 -0.2873  0.1334
 6118W        W 6118   6.208   6.860   2.430  0.1360 -0.2477 -0.1156
 6119W        W 6119   9.642   1.279   8.872 -0.3124  0.0502  0.0689
 6120W        W 6120  10.128  10.320   6.067  0.0847 -0.1151 -0.3243
 6121W        W 6121   5.569   2.460   8.547 -0.0551 -0.2873 -0.0153
 6122W        W 6122   0.759   5.016   9.392  0.1497  0.2125  0.0227
 6123W        W 6123   3.234   6.852   5.780 -0.0132  0.0481  0.0382
 6124W        W 6124   9.160   8.662   0.288 -0.0950  0.0952  0.0925
 6125W        W 6125  10.126   9.833   1.924  0.0118 -0.2140  0.2200
 6126W        W 6126   6.264   7.946   6.969  0.1016  0.0439 -0.0305
 6127W        W 6127   9.060   4.582  10.150 -0.1902  0.1132  0.1331
 6128W        W 6128   0.406   9.738   2.434  0.1747  0.1693 -0.0984
 6129W        W 6129   4.826   9.524   7.847 -0.0738  0.0969  0.4048
 6130W        W 6130   1.245   6.738   3.729  0.0224 -0.0308  0.0297
 6131W        W 6131   2.856   1.603   0.853  0.1179 -0.0965 -0.1921
 6132W        W 6132   3.709   3.193   6.800 -0.0377  0.1794  0.0481
 6133W        W 6133   9.438   8.649   0.740  0.2245 -0.0989  0.1705
 6134W        W 6134   5.692   3.548   4.902 -0.0907  0.0065  0.1230
 6135W        W 6135   1.919  10.264   8.959  0.0362  0.0157 -0.2405
 6136W        W 6136   2.391   6.743   9.119  0.1297  0.0202 -0.2248
 6137W        W 6137   9.290   4.343   0.284 -0.3364  0.3162 -0.3188
 6138W        W 6138   0.464   2.954   0.616  0.2209 -0.2004  0.1597
 6139W        W 6139   1.019   9.859   0.195 -0.0975 -0.1959  0.3453
 6140W        W 6140   5.534   1.337   4.035 -0.0123  0.1940  0.2834
 6141W        W 6141   5.925   5.488   3.085 -0.3358 -0.2236 -0.1477
 6142W        W 6142   1.527   7.419   7.057  0.1278 -0.0382  0.1590
 6143W        W 6143   4.607   7.589   9.562  0.1212 -0.1286 -0.0861
 6144W        W 6144   2.858   5.155   5.477 -0.2672  0.0585 -0.0543
 6145W        W 6145   0.916   5.996   5.066 -0.2486  0.1055  0.2495
 6146W        W 6146   3.230   6.285   1.822 -0.1171 -0.0356  0.0717
 6147W        W 6147   6.102   5.372   3.577  0.3904  0.1365  0.2149
 6148W        W 6148   9.022   6.688   1.045  0.1794 -0.3891  0.3357
 6149W        W 6149   9.959   1.856   7.724 -0.0281 -0.1314 -0.1191
 6150W        W 6150   9.136   4.718   6.894 -0.0326 -0.0566 -0.4716
 6151W        W 6151   7.450   8.824   3.492  0.0278 -0.0313 -0.1591
 6152W        W 6152   6.027   0.358   1.378 -0.0010 -0.0598 -0.0911
 6153W        W 6153  10.016   0.481   3.092  0.3576  0.2323  0.1684
 6154W        W 6154   1.772   8.831   8.992  0.2241  0.2358  0.0726
 6155W        W 6155   7.007   0.488   4.904 -0.2121 -0.0039  0.2476
 6156W        W 6156   5.204   7.663   0.111 -0.2424  0.1319 -0.1032
 6157W        W 6157   8.922   8.627   0.756  0.0963  0.0353  0.1626
 6158W        W 6158   9.587   6.742   9.184 -0.0823 -0.1909  0.1619
 6159W        W 6159   2.452  10.077   0.893  0.1207  0.0512  0.1774
 6160W        W 6160   0.701   6.918   7.243  0.1190  0.1059  0.0825
 6161W        W 6161   4.822   0.734   7.881  0.1079  0.1878  0.0047
 6162W        W 6162   7.396   9.014   8.685 -0.3176 -0.1045  0.4563
 6163W        W 6163   6.476   1.155   2.195 -0.1292 -0.0256  0.2450
 6164W        W 6164   8.787   4.356   2.703 -0.2986 -0.2097  0.0023
 6165W        W 6165   4.310   9.171   9.826 -0.1995 -0.0717  0.1265
 6166W        W 6166   8.863   7.708   3.817 -0.1672  0.1610  0.2345
 6167W        W 6167   9.781   6.824   8.707 -0.0709  0.0618 -0.1130
 6168W        W 6168   7.089   2.980   5.389  0.1367 -0.4161  0.0320
 6169W        W 6169   5.193   3.434  10.177  0.1289  0.0669 -0.0996
 6170W        W 6170   6.705   9.358   4.694  0.1988  0.1160  0.1421
 6171W        W 6171   5.278   7.081   8.983  0.2768  0.0265 -0.3961
 6172W        W 6172   2.016   6.861   2.004 -0.0286  0.1361 -0.0443
 6173W        W 6173   7.242   3.655   7.070 -0.0842 -0.1272 -0.1486
 6174W        W 6174   4.931   7.771  10.036  0.3161 -0.0616 -0.1375
 6175W        W 6175   1.082   7.577   3.920  0.0442 -0.0910 -0.1024
 6176W        W 6176   3.284   3.360   6.157  0.0428 -0.2320 -0.2391
 6177W        W 6177   4.125   1.667   6.606 -0.0130 -0.1162  0.1486
 6178W        W 6178   6.552   8.496   8.255  0.0414  0.0244  0.0587
 6179W        W 6179   4.047   1.147   2.057  0.1391  0.0967  0.1823
 6180W        W 6180   9.297   3.926   8.961  0.0648  0.1272 -0.1197
 6181W        W 6181   9.609   3.177   8.973  0.0012  0.0324  0.1776
 6182W        W 6182   7.802   9.966   7.391  0.0671 -0.3365  0.1396
 6183W        W 6183   1.332   4.349   6.673  0.0546  0.2882 -0.0197
 6184W        W 6184   8.021   8.669   7.513  0.1087  0.3086 -0.3845
 6185W        W 6185   6.747   6.862   2.420 -0.0193  0.0674 -0.0321
 6186W        W 6186   9.733   8.631   1.947 -0.1481 -0.0286  0.3868
 6187W        W 6187   9.807   9.123   6.989 -0.0580  0.0161  0.0697
 6188W        W 6188   5.975   9.628   7.675  0.0188 -0.1821  0.0404
 6189W        W 6189   7.886   0.150   1.437 -0.0548  0.3307 -0.0149
 6190W        W 6190   0.727   1.542   0.126  0.0760 -0.1675 -0.1014
 6191W        W 6191   9.175   2.826   5.810  0.0508 -0.1836  0.0848
 6192W        W 6192   2.453   9.599   9.416  0.3264 -0.0977  0.2070
 6193W        W 6193  10.000   7.141   1.422 -0.0872 -0.0521  0.1754
 6194W        W 6194   6.595   3.740   1.007 -0.1894  0.0598 -0.0602
 6195W        W 6195   2.128   2.204   7.578 -0.0538  0.0692 -0.1277
 6196W        W 6196   9.931   3.889   6.672  0.0881 -0.2054  0.1010
 6197W        W 6197   8.601   3.514   4.470  0.2580  0.0790 -0.0941
 6198W        W 6198   2.382   3.540   0.465  0.3719  0.2024  0.0424
 6199W        W 6199   2.872   3.064   1.785  0.1855 -0.0801  0.1526
 6200W        W 6200   3.985   3.276   7.792 -0.0665 -0.1699  0.2248
 6201W        W 6201   3.452   7.420   0.617 -0.2074 -0.0138  0.3332
 6202W        W 6202   6.911   7.311   2.077  0.0389  0.1360  0.4440
 6203W        W 6203   4.750   2.922   2.330  0.0440 -0.0630 -0.1474
 6204W        W 6204   0.020   1.852   4.214 -0.0069 -0.1497 -0.1233
 6205W        W 6205   5.913   5.688   5.750 -0.2866  0.0531 -0.0760
 6206W        W 6206   4.130   7.095   1.226  0.1539  0.2666  0.0370
 6207W        W 6207   7.105   5.317   4.557  0.1855 -0.1158  0.0417
 6208W        W 6208   6.764   5.733   2.163  0.1129 -0.0266  0.1276
 6209W        W 6209   7.731   8.115   3.432 -0.0840  0.0311 -0.0576
 6210W        W 6210   1.863   1.629   5.100 -0.1042  0.1618 -0.0046
 6211W        W 6211   4.286   5.195   9.627  0.0234  0.5195  0.1202
 6212W        W 6212   3.521   9.274   5.611  0.3104 -0.1005 -0.2356
 6213W        W 6213   4.352   9.674   1.499 -0.0717  0.2482 -0.1321
 6214W        W 6214   8.597   2.717   9.124 -0.1531  0.2008 -0.0826
 6215W        W 6215   5.156  10.244   2.986  0.1320  0.0920 -0.1566
 6216W        W 6216   1.941   2.998   5.669 -0.0775 -0.1288 -0.1199
 6217W        W 6217   3.356   3.873   2.743 -0.2452  0.0474 -0.0028
 6218W        W 6218   5.882   2.820   6.199  0.0900 -0.1388  0.1967
 6219W        W 6219   1.613   4.801   3.240 -0.0095 -0.0437 -0.0153
 6220W        W 6220   1.883   3.958   9.790  0.1544  0.0400  0.4302
 6221W        W 6221   1.885   0.480   8.786 -0.1697  0.1019 -0.0554
 6222W        W 6222   2.439   0.812   6.820 -0.0833  0.0386 -0.1154
 6223W        W 6223   4.979   0.862   1.589 -0.2434  0.1515  0.1323
 6224W        W 6224   4.403   2.891   7.853 -0.0288 -0.1673  0.1242
 6225W        W 6225   8.696   8.576   8.284  0.0133 -0.2505  0.4567
 6226W        W 6226   6.079   0.272   2.603 -0.1753 -0.0412  0.0938
 6227W        W 6227   6.195   0.093   7.005  0.2975  0.1364  0.0026
 6228W        W 6228   7.491   3.638   8.893 -0.0003 -0.1155  0.1451
 6229W        W 6229   1.923   8.889   2.077 -0.0319 -0.1799 -0.0752
 6230W        W 6230   2.708   8.903   9.202  0.1243 -0.1087 -0.1727
 6231W        W 6231   8.959   6.573   5.687  0.0362 -0.2321 -0.0428
 6232W        W 6232   6.122   2.756   7.209  0.0853  0.0799 -0.1756
 6233W        W 6233   8.882   8.662   4.468  0.0323 -0.1682  0.1194
 6234W        W 6234   2.585   8.157   5.365 -0.0788 -0.2826  0.0132
 6235W        W 6235   4.250   6.698   2.446  0.0763 -0.1038  0.2566
 6236W        W 6236  10.298   3.575   0.235  0.0183  0.1847  0.0867
 6237W        W 6237   7.179   4.388   8.226  0.1495  0.2929 -0.1066
 6238W        W 6238   6.676   5.207   9.430 -0.0951  0.1625 -0.1680
 6239W        W 6239   3.101   9.116   0.074 -0.0784 -0.3606 -0.2227
 6240W        W 6240   0.871   2.137   1.656  0.0600 -0.1598 -0.1802
 6241W        W 6241   7.209   2.722   3.915 -0.2522 -0.1157 -0.2281
 6242W        W 6242   5.518   6.556   0.291  0.0910  0.0737  0.2179
 6243W        W 6243   5.572   5.393   7.604 -0.0167 -0.2263  0.1195
 6244W        W 6244   2.614   2.386   8.833  0.0369 -0.1684 -0.0734
 6245W        W 6245   7.290   5.648   8.928 -0.0887 -0.0339 -0.0343
 6246W        W 6246   5.529   8.307   9.524  0.0398  0.3166  0.1095
 6247W        W 6247   8.166   2.371   9.070 -0.0023 -0.0893  0.0289
 6248W        W 6248   2.301   2.698   0.893  0.0038 -0.1112  0.2299
 6249W        W 6249   5.799   4.410   1.752  0.2325 -0.2753 -0.4194
 6250W        W 6250   9.254   3.673   1.078  0.1676 -0.1236 -0.1367
 6251W        W 6251   3.794   3.198   5.065 -0.5330 -0.1196 -0.1050
 6252W        W 6252   6.375   6.491   0.087 -0.0807 -0.0505  0.0604
 6253W        W 6253   1.239   3.693   5.665  0.0105 -0.0681  0.1047
 6254W        W 6254   5.428   5.152   7.174 -0.0858  0.1230  0.0399
 6255W        W 6255   1.046   2.574   2.794  0.0878  0.1033 -0.3342
 6256W        W 6256   7.247   1.873   5.111 -0.0329 -0.2194 -0.1095
 6257W        W 6257   2.392   8.951   3.521  0.0771 -0.0150 -0.2284
 6258W        W 6258   2.808   9.806   0.592  0.2204 -0.1985 -0.3629
 6259W        W 6259   5.107   3.156   6.942  0.0326 -0.0640  0.0623
 6260W        W 6260   3.995   1.573   1.241  0.2539  0.0940  0.1360
 6261W        W 6261   4.281   3.931  10.037  0.1288 -0.0708  0.2076
 6262W        W 6262  10.318   0.536   4.809 -0.3411 -0.2480  0.0113
 6263W        W 6263   3.115   3.858   6.318  0.1387  0.0960  0.3224
 6264W        W 6264   9.580   7.592   3.451 -0.0221  0.0926  0.1529
 6265W        W 6265   3.216   5.569   8.526 -0.1965 -0.0968 -0.0341
 6266W        W 6266   7.711   6.422   6.221 -0.2052  0.0772 -0.0848
 6267W        W 6267   0.144  10.133   6.394 -0.1749  0.2835 -0.0985
 6268W        W 6268   2.374   0.525   5.021  0.0689 -0.1096  0.0439
 6269W        W 6269   9.632   0.001   4.262  0.0091  0.2578  0.1311
 6270W        W 6270   5.708   6.509   1.617 -0.3027 -0.3495  0.0107
 6271W        W 6271   9.615   7.079  10.026  0.0757 -0.0849 -0.0281
 6272W        W 6272   7.764   6.477   8.450  0.1360 -0.0741  0.0382
 6273W        W 6273   7.210   8.507   7.836  0.0474  0.0573 -0.1380
 6274W        W 6274   4.510   5.072   8.183  0.0473  0.1960 -0.0501
 6275W        W 6275   3.866   3.339   1.494  0.0535  0.2353  0.1997
 6276W        W 6276   3.531   1.464   4.900  0.0317 -0.0826  0.1934
 6277W        W 6277   7.974   1.623  10.245  0.1931  0.0000 -0.0652
 6278W        W 6278   3.898   8.205   3.770  0.0282 -0.3229 -0.3155
 6279W        W 6279   9.186   3.453   8.853 -0.0464 -0.0747 -0.3412
 6280W        W 6280   6.775   3.043   6.305 -0.1415  0.0451 -0.2906
 6281W        W 6281   8.977   0.856   9.503 -0.0315  0.0539  0.1554
 6282W        W 6282   3.916   9.597   9.052  0.1056  0.1355 -0.0157
 6283W        W 6283   8.060   4.085   6.913 -0.1546  0.3786 -0.1414
 6284W        W 6284   3.550   0.458   0.761 -0.1389  0.0663 -0.1399
 6285W        W 6285   2.915   3.902   7.597 -0.0019 -0.0693  0.1732
 6286W        W 6286   7.499   7.487   6.321 -0.0862 -0.5079  0.0322
 6287W        W 6287   5.546   5.008   6.552 -0.1798 -0.0386 -0.1038
 6288W        W 6288   7.393   8.544   0.060  0.2961 -0.0639 -0.4131
 6289W        W 6289  10.065   2.728   9.016 -0.1113 -0.0060  0.0056
 6290W        W 6290   8.823   5.820   1.905  0.4015 -0.0891  0.4606
 6291W        W 6291   0.812   3.951   5.895  0.1945 -0.3230  0.1049
 6292W        W 6292   3.271   2.457   4.328  0.2807 -0.2858  0.2102
 6293W        W 6293   8.210   9.995   4.819  0.0197 -0.1518  0.0441
 6294W        W 6294   3.708   2.248   4.224  0.2654  0.2885 -0.1080
 6295W        W 6295   5.848   5.878   7.687  0.0289  0.2999  0.1937
 6296W        W 6296   5.404   2.289   1.017 -0.1271 -0.1446  0.1930
 6297W        W 6297   2.669   8.918   2.571  0.1179 -0.1186 -0.0236
 6298W        W 6298   2.071   3.310   4.669  0.2149 -0.1007 -0.3973
 6299W        W 6299   6.144   0.071   0.939 -0.0585 -0.0174 -0.2449
 6300W        W 6300   6.183   3.850   8.017  0.1889 -0.0637  0.2697
 6301W        W 6301   1.635   6.162   0.981  0.0709  0.1445 -0.1154
 6302W        W 6302   7.618   7.262  10.258  0.2488  0.1779  0.0331
 6303W        W 6303   7.462   0.835   8.102 -0.1851  0.1517  0.0899
 6304W        W 6304   0.333   9.113   6.520  0.0258  0.1214 -0.0717
 6305W        W 6305   6.692   7.290   0.290  0.1613 -0.2629  0.2473
 6306W        W 6306   0.895   3.616   6.353  0.1393 -0.1702  0.1026
 6307W        W 6307   0.727   4.071   2.378  0.0788 -0.1045 -0.0163
 6308W        W 6308   9.612   2.078   7.386 -0.2014 -0.0801 -0.0602
 6309W        W 6309   1.024   7.467   4.383  0.0997 -0.0109  0.0767
 6310W        W 6310  10.304   6.833   4.517 -0.0298  0.0219 -0.0938
 6311W        W 6311   5.376   6.921   6.135 -0.1309 -0.2685  0.0548
 6312W        W 6312   1.093  10.308   1.751  0.1353  0.1139 -0.4688
 6313W        W 6313   4.195   4.332   1.474  0.0837  0.1931  0.0898
 6314W        W 6314   9.689   0.247   8.816 -0.3433 -0.3476 -0.0903
 6315W        W 6315   9.195   4.876   5.358  0.0341  0.2852 -0.2136
 6316W        W 6316   8.153   8.911   6.261 -0.0236  0.2855 -0.1498
 6317W        W 6317   4.340   4.325   4.182  0.1273  0.1988  0.1195
 6318W        W 6318   7.435   2.385   9.472 -0.0379  0.0320 -0.2013
 6319W        W 6319   9.448   8.182   0.999  0.0556 -0.0864  0.1774
 6320W        W 6320   6.059   5.203   1.595 -0.4564  0.1740  0.2147
 6321W        W 6321   3.625   7.509   9.847 -0.0833 -0.0445  0.1245
 6322W        W 6322   3.646   8.016   8.657  0.0007 -0.1350 -0.0918
 6323W        W 6323   2.807   7.899   8.821 -0.1320 -0.3863 -0.2550
 6324W        W 6324   4.517   0.935   1.972 -0.2045 -0.2898 -0.0462
 6325W        W 6325   7.335   2.069   5.592 -0.0793 -0.1314  0.1322
 6326W        W 6326   6.852   8.084   3.251 -0.0450 -0.3047  0.2534
 6327W        W 6327   8.443   9.131  10.033  0.1717 -0.0212  0.0803
 6328W        W 6328   5.909   2.535   3.836 -0.1111 -0.0535  0.3525
 6329W        W 6329   4.014   0.951   4.115 -0.0117 -0.0387 -0.1080
 6330W        W 6330   2.063   3.385  10.005 -0.2395 -0.0511 -0.3162
 6331W        W 6331  10.268   9.551   2.347 -0.0372 -0.1210  0.2511
 6332W        W 6332   1.109   9.254   0.824 -0.5588  0.0624  0.0041
 6333W        W 6333   7.156   1.314  10.004 -0.1044 -0.1075 -0.2469
 6334W        W 6334   9.483   7.092   2.028  0.0177  0.2175 -0.1010
 6335W        W 6335   7.163   1.097   2.602  0.1306  0.0336  0.0125
 6336W        W 6336   1.283   2.005   7.408  0.2356 -0.0791  0.1340
 6337W        W 6337   5.463   4.381   5.387 -0.3192  0.2429 -0.1309
 6338W        W 6338   9.900   3.443   4.127  0.0670  0.1282 -0.0418
 6339W        W 6339   3.483   9.071   3.592 -0.0903  0.1851  0.1732
 6340W        W 6340   7.712   8.875   9.512  0.0479 -0.1047  0.0587
 6341W        W 6341   3.655   9.308   2.547 -0.3421  0.4384 -0.0281
 6342W        W 6342   6.350   1.093   0.948 -0.1954  0.1010  0.0814
 6343W        W 6343   8.210   4.386   6.139 -0.0340  0.2071 -0.0839
 6344W        W 6344   5.241   7.648   1.617  0.1598 -0.1308 -0.1144
 6345W        W 6345   8.267   8.349   3.149  0.0139 -0.2364  0.1467
 6346W        W 6346   4.583   0.030   9.570 -0.0233  0.0685  0.0346
 6347W        W 6347   3.510   0.919   9.948  0.0588  0.3171 -0.0727
 6348W        W 6348   8.321   6.765   6.691  0.0105 -0.1403  0.0225
 6349W        W 6349   1.309   3.266   5.103 -0.2452 -0.0433  0.0574
 6350W        W 6350   2.971   0.497   8.861  0.3883 -0.0293 -0.0176
 6351W        W 6351   7.220   9.301   7.706  0.1143  0.2551  0.0080
 6352W        W 6352   4.641   7.089   6.066  0.1803  0.2927 -0.1082
 6353W        W 6353   2.382  10.148   1.832 -0.1368 -0.0599  0.0361
 6354W        W 6354   3.942   6.130   2.218 -0.2453 -0.3431 -0.1706
 6355W        W 6355   6.731   6.053   2.909 -0.1978 -0.2266 -0.1905
 6356W        W 6356   7.999   8.798   5.535 -0.0116 -0.0670  0.1243
 6357W        W 6357   6.999   5.618  10.322 -0.0501 -0.0660 -0.0507
 6358W        W 6358   3.592   6.897   9.256 -0.1174 -0.0989  0.1236
 6359W        W 6359   9.486   8.206   1.742 -0.1016  0.5627 -0.3895
 6360W        W 6360   8.264   1.032   3.176 -0.0725 -0.0258 -0.0094
 6361W        W 6361   4.790   1.480   2.588  0.1348 -0.0353  0.3114
 6362W        W 6362   3.572   7.915   0.831  0.1734  0.2046 -0.2109
 6363W        W 6363   2.861   1.327   6.112 -0.1123 -0.2025 -0.2489
 6364W        W 6364   3.072   7.551   4.646 -0.0936 -0.1995 -0.1869
 6365W        W 6365   8.463   7.495   5.722  0.0190 -0.1877 -0.1456
 6366W        W 6366   5.763   6.212   2.109  0.0192 -0.0082  0.0271
 6367W        W 6367   3.556   5.191   3.454 -0.2648  0.1859  0.3738
 6368W        W 6368   6.891   9.886   2.303  0.3662 -0.1387 -0.3270
 6369W        W 6369   4.153   2.602   3.045  0.2309  0.2068 -0.2233
 6370W        W 6370   4.311   0.215   2.433  0.1356 -0.1058  0.2671
 6371W        W 6371   1.968   5.233   3.895 -0.3675 -0.0674  0.1355
 6372W        W 6372   0.393   3.012   1.099 -0.4142  0.0406  0.1709
 6373W        W 6373   1.128  10.276   6.763 -0.0371  0.2894  0.4407
 6374W        W 6374   5.529  10.002   5.485  0.1258  0.0402  0.0995
 6375W        W 6375   7.680   2.790   3.485 -0.1740 -0.3004 -0.1493
 6376W        W 6376   4.271   1.677   0.509 -0.1134  0.1137 -0.3410
 6377W        W 6377   9.945   1.630   5.590 -0.1849 -0.3142  0.3756
 6378W        W 6378   9.332   2.131   3.755 -0.2579  0.2363 -0.0367
 6379W        W 6379   3.077   3.545   9.136  0.0646  0.0199  0.1773
 6380W        W 6380   0.611   2.773   5.073 -0.1299  0.4029  0.2674
 6381W        W 6381   9.305   3.484   6.332 -0.1394  0.0353 -0.0080
 6382W        W 6382   3.026   9.965   6.392 -0.0965 -0.0894  0.0617
 6383W        W 6383   9.358   0.145   3.779 -0.1959  0.5029  0.2628
 6384W        W 6384   9.522   3.456   7.543  0.2197 -0.3256  0.1793
 6385W        W 6385   0.703   9.179   7.380 -0.0514 -0.0552  0.1213
 6386W        W 6386   3.482   4.000   0.386  0.0753 -0.0971  0.0713
 6387W        W 6387   5.686   9.727   5.975 -0.2809  0.0042 -0.3389
 6388W        W 6388   1.765   8.786   2.694 -0.1043 -0.0140  0.1128
 6389W        W 6389   5.330   9.541   3.750 -0.3604  0.0780  0.1955
 6390W        W 6390   7.301   1.037   4.621 -0.1069  0.0157 -0.1684
 6391W        W 6391   6.962   7.242   3.412  0.0964 -0.0891 -0.1130
 6392W        W 6392   2.875   7.115   0.103 -0.2262  0.3938 -0.0076
 6393W        W 6393   7.179   6.516   7.827  0.3706  0.0593  0.0521
 6394W        W 6394   8.567   8.694   7.708 -0.2057  0.1736  0.1386
 6395W        W 6395   6.595   0.376   2.105 -0.0421  0.1630  0.0276
 6396W        W 6396   8.728   1.579   2.080  0.2509  0.1357 -0.1192
 6397W        W 6397   5.714   5.598   4.547 -0.1026  0.3529 -0.2114
 6398W        W 6398  10.036   8.590   8.893 -0.1254  0.3045  0.1102
 6399W        W 6399   6.035   5.673   0.014 -0.0263  0.0236 -0.1216
 6400W        W 6400   8.089   0.070   7.454  0.1112  0.1252  0.1253
 6401W        W 6401   1.163   8.554   8.146  0.1718 -0.0739 -0.1256
 6402W        W 6402   8.006   0.891   5.334  0.2082 -0.0536  0.4001
 6403W        W 6403   4.076   7.135   4.608 -0.2177 -0.0454  0.1163
 6404W        W 6404   4.365   5.829   4.789  0.3584 -0.1952 -0.0444
 6405W        W 6405   3.033   5.677   5.389 -0.2712  0.0757 -0.1376
 6406W        W 6406   3.393   2.065   0.258 -0.2759 -0.1827 -0.1208
 6407W        W 6407   9.746   1.658   5.138  0.0833 -0.1213 -0.1748
 6408W        W 6408   7.713   0.563   9.243  0.1727  0.0795 -0.2588
 6409W        W 6409   7.265   3.619   5.249  0.2084  0.2016 -0.2557
 6410W        W 6410   7.099   4.840   3.337 -0.1206  0.2621  0.1493
 6411W        W 6411   5.622   1.926   2.925  0.1389 -0.3158  0.0532
 6412W        W 6412   7.098   4.381   9.190  0.1135  0.0096 -0.1267
 6413W        W 6413   9.211   4.322   5.398 -0.0838  0.2771  0.1525
 6414W        W 6414   5.583   5.131   8.057  0.0842  0.0283 -0.1932
 6415W        W 6415   2.713   8.962   1.321  0.2802 -0.0359  0.1140
 6416W        W 6416   8.589  10.261   5.175  0.2138  0.2555 -0.2510
 6417W        W 6417   0.676   6.954   2.944 -0.0984 -0.0549  0.2552
 6418W        W 6418   8.312  10.027   0.709 -0.1123  0.0795  0.0296
 6419W        W 6419   1.012   7.510   1.505 -0.1052 -0.0439 -0.1035
 6420W        W 6420   7.288   7.940   1.851  0.6042 -0.0200  0.4135
 6421W        W 6421   0.851   6.772   6.382  0.1361 -0.0766  0.2327
 6422W        W 6422   0.373   1.578   2.360  0.1123 -0.0141  0.1105
 6423W        W 6423   4.648   4.902   0.807 -0.0952 -0.0844  0.3667
 6424W        W 6424   6.863   2.754   9.631  0.0087 -0.1033 -0.3850
 6425W        W 6425   1.613   5.284   5.697  0.0874  0.1495 -0.1445
 6426W        W 6426   7.492   6.246   2.178 -0.1472  0.0137  0.1682
 6427W        W 6427   4.710   6.926   4.177 -0.2382  0.2160  0.2124
 6428W        W 6428   9.830   0.509   7.214 -0.1506 -0.2807 -0.2694
 6429W        W 6429   5.655   8.180   6.221  0.1739  0.2545  0.1961
 6430W        W 6430   6.511   4.132  10.159  0.2816 -0.0195 -0.1413
 6431W        W 6431   3.823   0.356   6.507 -0.3069 -0.0067 -0.3240
 6432W        W 6432   3.192   8.057   7.857  0.1281 -0.1023 -0.0023
 6433W        W 6433   0.496   3.101   8.722  0.0085 -0.1636 -0.1139
 6434W        W 6434   1.548   7.218   5.507 -0.2984  0.2160  0.2037
 6435W        W 6435   1.041   2.692   9.509  0.0737 -0.1064  0.0264
 6436W        W 6436   7.908   7.931   3.017 -0.1709  0.0522  0.0665
 6437W        W 6437   8.615   5.686   3.134  0.2126  0.0473  0.2696
 6438W        W 6438   6.702   8.794   7.395  0.1774 -0.1715  0.3243
 6439W        W 6439   3.848   7.975   9.313  0.0041 -0.2259  0.2551
 6440W        W 6440   5.549   2.241   3.599  0.0498 -0.3425 -0.1411
 6441W        W 6441   6.106   4.059   1.323 -0.0651 -0.1889 -0.0056
 6442W        W 6442   6.846   7.494   4.335 -0.0059  0.1500  0.3660
 6443W        W 6443   6.842   0.826   2.311 -0.0735 -0.4206  0.3405
 6444W        W 6444   8.430   8.018   9.566 -0.3629 -0.2563  0.2850
 6445W        W 6445   3.420   9.919   1.228 -0.1385 -0.3925  0.2760
 6446W        W 6446   7.038   9.260   9.843  0.3611 -0.1701  0.1009
 6447W        W 6447   9.774   8.271   2.799 -0.2965 -0.1917 -0.1234
 6448W        W 6448   6.706  10.190   1.970  0.1702 -0.2474 -0.4111
 6449W        W 6449   2.134   8.252   0.994 -0.3944  0.0166 -0.1653
 6450W        W 6450   8.277   4.298   2.937  0.1289  0.1658  0.1403
 6451W        W 6451   6.205   7.886   8.900 -0.0723 -0.3008 -0.0286
 6452W        W 6452   1.233   4.284   4.372  0.2804  0.1851 -0.1636
 6453W        W 6453   2.332   7.198   8.239  0.4219  0.2123  0.2771
 6454W        W 6454   8.956   8.638   6.864  0.3656 -0.0090  0.4228
 6455W        W 6455   1.419   2.358   2.512  0.0416 -0.0008  0.1210
 6456W        W 6456   9.189   0.070   5.215  0.1683  0.0379 -0.0749
 6457W        W 6457   3.498   3.428   3.947 -0.0299  0.2332  0.1798
 6458W        W 6458   2.434   9.574   0.273  0.0294  0.1276 -0.0431
 6459W        W 6459   4.200   4.428   8.759 -0.0630 -0.1544  0.2462
 6460W        W 6460   7.206   0.413   0.776  0.0090  0.0784  0.0834
 6461W        W 6461   9.365   3.608   3.880 -0.0355 -0.0030  0.2322
 6462W        W 6462   5.761  10.140   6.304  0.1009 -0.0479  0.1052
 6463W        W 6463   1.083   7.964   0.842  0.1792 -0.1513  0.2919
 6464W        W 6464   8.369   5.812   2.218  0.0491 -0.0376 -0.1045
 6465W        W 6465   7.729   7.344   1.361  0.1843 -0.3051  0.0468
 6466W        W 6466   8.235   1.823   4.948  0.2135 -0.0218 -0.3528
 6467W        W 6467   7.169   4.235   0.454 -0.1967  0.1803  0.5334
 6468W        W 6468  10.086   5.278   7.333 -0.2236  0.2411 -0.5458
 6469W        W 6469   2.083   1.534   0.747 -0.1318 -0.0531 -0.2263
 6470W        W 6470   1.031   3.112   1.847 -0.1380  0.0324 -0.2946
 6471W        W 6471   3.715   1.994   9.826 -0.0770  0.0517 -0.0287
 6472W        W 6472   8.589   2.234   1.539 -0.0311  0.2645  0.1350
 6473W        W 6473   8.012   2.598   5.439  0.1949  0.1083 -0.0120
 6474W        W 6474   8.992   0.185   4.080 -0.0874 -0.0500 -0.5075
 6475W        W 6475   0.405   2.932   7.466 -0.0253  0.0504 -0.1136
 6476W        W 6476   2.787   0.871   4.721 -0.0500 -0.2357  0.1488
 6477W        W 6477   8.096   6.487   0.935  0.2183  0.0304  0.0436
 6478W        W 6478   8.541   0.044   8.281 -0.2878  0.3465  0.1558
 6479W        W 6479   6.140   6.791   1.445  0.0648  0.1332  0.0650
 6480W        W 6480   0.633  10.291   5.700 -0.1243  0.0430 -0.2063
 6481W        W 6481   1.950   7.498   5.598  0.1835 -0.4286 -0.0813
 6482W        W 6482   5.626   6.768   3.428  0.1025  0.4648  0.0385
 6483W        W 6483   2.807   6.257   0.036 -0.0258  0.0900 -0.2597
 6484W        W 6484   1.588   9.921   4.823 -0.1891  0.1620 -0.1478
 6485W        W 6485   0.370   1.125   1.464  0.0356  0.0385 -0.4387
 6486W        W 6486   5.468   8.725   9.832 -0.1168 -0.0132 -0.0373
 6487W        W 6487   5.546   7.452   9.425 -0.2232 -0.0760  0.0728
 6488W        W 6488   8.166   2.799   2.693 -0.0191 -0.0973 -0.1870
 6489W        W 6489   4.686   9.291   7.301 -0.0916 -0.2563  0.1740
 6490W        W 6490   9.039   8.827   3.265 -0.0996  0.1224 -0.0972
 6491W        W 6491   7.048   6.480   2.661  0.0082 -0.0346 -0.3359
 6492W        W 6492   1.604   4.329   7.649 -0.0510  0.0939 -0.2586
 6493W        W 6493   2.614   7.415   3.788  0.0045  0.3763 -0.0932
 6494W        W 6494   4.275   1.146   3.561 -0.1410  0.1043  0.0374
 6495W        W 6495   5.672   6.936   4.335  0.0994  0.0253  0.2011
 6496W        W 6496   5.936   6.539   5.623 -0.2517 -0.0170 -0.0410
 6497W        W 6497   0.670   7.315   2.264 -0.1375  0.3791  0.1895
 6498W        W 6498   7.846   4.352   6.518  0.0615  0.0946  0.0601
 6499W        W 6499   1.961   8.632   3.469  0.0011 -0.0600 -0.0669
 6500W        W 6500   3.743  10.062   7.201 -0.0326 -0.0674 -0.0879
 6501W        W 6501   1.061   8.719   9.116  0.0245  0.0591  0.3305
 6502W        W 6502   4.458   6.467   4.079  0.2109  0.1875 -0.1343
 6503W        W 6503   0.123   1.214   5.512  0.1766 -0.1042 -0.0511
 6504W        W 6504   8.705   8.428   0.328 -0.2425 -0.2041 -0.1752
 6505W        W 6505   6.256   5.811   7.231  0.2229  0.0190  0.0996
 6506W        W 6506   1.102   1.422   9.094 -0.0571  0.2582 -0.3344
 6507W        W 6507   7.867   3.915   1.937 -0.3123  0.2747 -0.3648
 6508W        W 6508   2.113   6.100   8.772 -0.1522 -0.3002  0.0561
 6509W        W 6509   9.034   3.630   1.955 -0.1053  0.0930  0.1412
 6510W        W 6510  10.140   6.453   0.390  0.0628  0.2347 -0.1846
 6511W        W 6511   2.520   1.182   3.687 -0.1462  0.0171 -0.0134
 6512W        W 6512   9.521   8.972   2.295 -0.1849 -0.2742 -0.0824
 6513W        W 6513   3.417   3.075   7.533  0.3563 -0.0967 -0.2121
 6514W        W 6514   5.141   8.093   9.129  0.0334 -0.1516  0.3876
 6515W        W 6515  10.237   2.678   4.593 -0.1069  0.0907  0.2467
 6516W        W 6516   3.647   4.588   3.331  0.0684  0.0712  0.6877
 6517W        W 6517   1.777   8.345   2.115  0.1782  0.2262 -0.0852
 6518W        W 6518   4.901   9.236   0.867 -0.0283  0.0851 -0.2083
 6519W        W 6519   0.572   5.534   9.038  0.2704 -0.3042  0.2449
 6520W        W 6520   6.876   6.943   1.211 -0.0680  0.2818 -0.0121
 6521W        W 6521   1.793   9.539   2.304  0.1253 -0.0052 -0.1260
 6522W        W 6522   5.857   0.853   8.602  0.1116 -0.2911 -0.0864
 6523W        W 6523   2.591   6.369   6.099  0.0753 -0.1295 -0.2831
 6524W        W 6524   6.846   0.607   9.804  0.1062 -0.1117 -0.0091
 6525W        W 6525   5.467  10.289   5.027  0.0095  0.1882  0.0479
 6526W        W 6526   1.366   9.053   2.910  0.1842  0.1877 -0.0291
 6527W        W 6527   9.625   5.904   3.894 -0.2519 -0.2789  0.0224
 6528W        W 6528   3.808   3.834   4.120  0.2593 -0.0808 -0.1893
 6529W        W 6529   1.114   5.624   1.700 -0.1543  0.1076  0.2224
 6530W        W 6530   0.909   5.902   7.102 -0.0536 -0.2232 -0.2809
 6531W        W 6531   5.894   6.426   3.099 -0.0142 -0.0733 -0.0965
 6532W        W 6532   0.159   6.413   3.700 -0.1076  0.0393  0.3074
 6533W        W 6533   9.718   1.984  10.246  0.4045  0.0101  0.1182
 6534W        W 6534   7.806   2.189   5.792  0.1305  0.0041  0.0749
 6535W        W 6535   2.533   6.178   4.823 -0.0471 -0.0541  0.0389
 6536W        W 6536   6.902   3.964   5.191  0.2018 -0.1887  0.0051
 6537W        W 6537   9.019   4.223   6.898 -0.0615  0.0651 -0.1319
 6538W        W 6538  10.314   6.291   9.299  0.1493  0.0507  0.2425
 6539W        W 6539   8.659   9.505   2.899 -0.1016  0.0309  0.2354
 6540W        W 6540   6.235   1.321   2.577  0.0791 -0.1340  0.0467
 6541W        W 6541   8.428   3.794   5.298  0.0129 -0.1007  0.3883
 6542W        W 6542   5.286   0.887   7.402 -0.2425  0.3387 -0.0595
 6543W        W 6543   0.919   1.762   3.230 -0.0328  0.1045  0.0349
 6544W        W 6544   3.144   9.834   5.081  0.2627 -0.1300 -0.1529
 6545W        W 6545   0.411   0.251   9.339 -0.1403 -0.0816  0.0186
 6546W        W 6546   6.299   2.390   4.849  0.3323 -0.1235 -0.1964
 6547W        W 6547   8.540   0.523   8.335 -0.1137  0.0716 -0.2068
 6548W        W 6548   0.018   5.060   0.310  0.0030 -0.1062 -0.0035
 6549W        W 6549   4.334   6.096   0.485  0.0235 -0.2022 -0.1654
 6550W        W 6550   5.648   2.193  10.284 -0.1698 -0.1089  0.0163
 6551W        W 6551   7.410   5.623   2.186  0.3676  0.2285 -0.3381
 6552W        W 6552   9.290   1.185   1.922 -0.3312 -0.0510 -0.0929
 6553W        W 6553   4.147   0.939   4.580  0.1555  0.0464 -0.1921
 6554W        W 6554  10.282   2.450   0.673  0.0574 -0.3220 -0.0469
 6555W        W 6555   9.126   4.822   8.593  0.1524 -0.0546 -0.1286
 6556W        W 6556   2.995   9.010   6.347 -0.1465 -0.1611  0.4009
 6557W        W 6557  10.024   9.354  10.247 -0.4599 -0.2191 -0.1583
 6558W        W 6558   3.859   4.572  10.272 -0.3089  0.1036  0.1041
 6559W        W 6559   6.581  10.206   0.998  0.0330  0.4416 -0.0810
 6560W        W 6560   2.588   0.695   7.572 -0.0514  0.0802 -0.0376
 6561W        W 6561   1.670   7.246   8.851 -0.0935 -0.2297 -0.1462
 6562W        W 6562   3.378   7.040   7.851  0.1296 -0.1096 -0.1961
 6563W        W 6563   1.439   3.729   9.790  0.3199 -0.1324 -0.3296
 6564W        W 6564   9.732   1.956   2.149  0.0987 -0.1017  0.0555
 6565W        W 6565   7.084   7.952   1.330 -0.1181  0.1639  0.3522
 6566W        W 6566   3.459   6.302   7.142 -0.1298 -0.3174  0.0116
 6567W        W 6567   0.468   7.619   9.779  0.1581  0.1466  0.1648
 6568W        W 6568   7.604   6.625   7.991  0.3435 -0.0845 -0.0566
 6569W        W 6569   9.966   9.121   2.538  0.0235 -0.0808 -0.1216
 6570W        W 6570   3.578   3.169   2.518  0.0810 -0.2621 -0.1610
 6571W        W 6571   9.546   8.603   1.283 -0.2528 -0.0626 -0.0371
 6572W        W 6572   7.539  10.147   4.996 -0.0300 -0.2418  0.1027
 6573W        W 6573   1.816   9.883   5.610 -0.0873  0.0406  0.1779
 6574W        W 6574   2.128   7.317   3.873 -0.0602 -0.0230 -0.1055
 6575W        W 6575   8.954   3.555   5.906  0.2788  0.3340  0.2476
 6576W        W 6576   5.844   9.745   1.540  0.3205  0.0701  0.1872
 6577W        W 6577   3.186   6.524   7.770  0.4028  0.2133 -0.3259
 6578W        W 6578   0.262   4.054   1.705  0.0665  0.3014 -0.1552
 6579W        W 6579   4.673   3.162   6.697  0.3282 -0.3350 -0.0100
 6580W        W 6580   9.479   9.481   2.692 -0.3674 -0.1840  0.1461
 6581W        W 6581   2.541   3.441   9.889 -0.0492 -0.0873 -0.1141
 6582W        W 6582   9.600   3.896   2.739  0.3730 -0.0992  0.0626
 6583W        W 6583   9.707   3.091   2.012 -0.3016 -0.2250  0.0841
 6584W        W 6584   4.000   6.572   3.802  0.0161 -0.0306  0.1850
 6585W        W 6585   2.215   1.778   6.450  0.0015 -0.1129 -0.0578
 6586W        W 6586   7.050   3.781   9.113  0.1524 -0.0125  0.2510
 6587W        W 6587   1.985   0.344   0.750 -0.3274  0.2293 -0.0033
 6588W        W 6588   2.754   3.045   6.973  0.2485 -0.0173  0.0739
 6589W        W 6589   8.122   4.689   5.719 -0.0633  0.0443 -0.2471
 6590W        W 6590   1.819   7.352   9.704 -0.2976  0.2784  0.0514
 6591W        W 6591   9.968   9.771   4.293 -0.0370 -0.0513 -0.1402
 6592W        W 6592   8.455   6.765   8.776  0.2464 -0.2704 -0.0116
 6593W        W 6593   0.740   2.097   5.214 -0.1116  0.0426  0.2609
 6594W        W 6594   1.794   4.605   3.852  0.2636 -0.1518  0.0713
 6595W        W 6595   9.283   3.932   3.078  0.0305 -0.0705 -0.0131
 6596W        W 6596   1.258   4.301   1.834  0.2022 -0.0978 -0.1460
 6597W        W 6597   1.892   5.093   2.938 -0.5692 -0.4239  0.0699
 6598W        W 6598   7.170   3.690   1.456  0.3834  0.1371 -0.5412
 6599W        W 6599   8.716   7.057   0.650  0.0127  0.3814  0.0759
 6600W        W 6600   3.518   7.008   5.311  0.0070  0.2291  0.0075
 6601W        W 6601   9.820   4.379   4.849 -0.2174 -0.2945 -0.3021
 6602W        W 6602   4.807   7.526   5.074  0.1091 -0.2230  0.1759
 6603W        W 6603   9.988   7.117   3.543 -0.3082  0.0801 -0.1900
 6604W        W 6604   9.343   7.855   8.009 -0.0888 -0.1637 -0.1459
 6605W        W 6605   8.026   3.311   5.894  0.1305  0.0605  0.2206
 6606W        W 6606   0.165   0.154  10.266 -0.0191 -0.0277 -0.1619
 6607W        W 6607   8.036   5.948   3.417  0.1066 -0.0055 -0.0566
 6608W        W 6608   0.154   6.860   9.439 -0.1111  0.0815  0.0046
 6609W        W 6609   3.964   2.689   6.207 -0.1722  0.2066  0.2597
 6610W        W 6610   7.523   6.242   3.544  0.1066  0.1623  0.2207
 6611W        W 6611   1.795   1.154   7.356  0.2279  0.1028 -0.0478
 6612W        W 6612   8.901   0.297   2.352 -0.1850  0.1655  0.1999
 6613W        W 6613   4.223   0.238   5.420  0.1433  0.0905 -0.2651
 6614W        W 6614   6.240   2.944   1.694  0.1050  0.2309  0.1481
 6615W        W 6615   8.777   1.769   6.206 -0.0520  0.0517 -0.2393
 6616W        W 6616   0.807   1.232   3.244 -0.2089 -0.0290 -0.2539
 6617W        W 6617   0.631   0.746   8.392  0.3014 -0.0861  0.0850
 6618W        W 6618   4.300  10.179   4.786 -0.1430 -0.0519  0.2000
 6619W        W 6619   3.527   4.363   0.776  0.3727 -0.0907  0.1923
 6620W        W 6620   8.265   6.989   9.201  0.0011 -0.1401 -0.0488
 6621W        W 6621   2.973   7.460   7.127 -0.2516 -0.4643 -0.0036
 6622W        W 6622   6.888   9.480   8.059  0.0542 -0.1089 -0.0679
 6623W        W 6623   1.991   5.638   1.504 -0.0524 -0.1422 -0.2986
 6624W        W 6624   2.984   3.555   3.902 -0.2706  0.0108  0.1227
 6625W        W 6625   7.140   1.362   7.021  0.1286 -0.0433 -0.1748
 6626W        W 6626   0.078   2.188   4.574 -0.2210  0.2210 -0.3609
 6627W        W 6627   3.166   7.735   2.367 -0.2552  0.0851 -0.2579
 6628W        W 6628   7.662   2.705   9.121  0.2643 -0.0975  0.0347
 6629W        W 6629   0.909   7.237   9.809 -0.1759  0.0428 -0.1022
 6630W        W 6630   4.809   6.141   2.067  0.1843  0.1285  0.0906
 6631W        W 6631   3.882   7.831   6.170 -0.0009  0.0003  0.1781
 6632W        W 6632   6.588   7.026   1.704  0.1036 -0.3568  0.0660
 6633W        W 6633   5.260   4.274   9.538  0.0253 -0.0007  0.2123
 6634W        W 6634   6.081   1.865   1.709  0.2205 -0.3826 -0.1029
 6635W        W 6635   1.957   8.381   5.597  0.0470 -0.1593  0.0674
 6636W        W 6636   3.497   1.016   3.966  0.1451  0.0484 -0.2057
 6637W        W 6637   5.719   1.743   7.692  0.1677  0.0308  0.2351
 6638W        W 6638   7.351   0.178   0.330  0.0941 -0.1256  0.0360
 6639W        W 6639   9.257   9.351   2.163 -0.1261 -0.0005 -0.1543
 6640W        W 6640   1.422   8.164   8.398 -0.0277 -0.0635  0.0826
 6641W        W 6641   4.487   5.959   6.774  0.0197 -0.0964 -0.1588
 6642W        W 6642   8.638   9.586   0.166 -0.0365  0.3743  0.0446
 6643W        W 6643   4.932   0.699   4.383  0.1515  0.0779  0.0517
 6644W        W 6644   2.305   6.792   7.874 -0.0381  0.1766 -0.1691
 6645W        W 6645   6.674   3.422   5.991 -0.1613 -0.0983 -0.1358
 6646W        W 6646   0.527   5.863   4.719 -0.2636 -0.0119 -0.0936
 6647W        W 6647   2.828   4.291   8.842  0.1370 -0.1026 -0.1879
 6648W        W 6648   9.572   5.729   7.876 -0.2359 -0.0793  0.1721
 6649W        W 6649   5.979   8.725   3.691  0.1740 -0.0829  0.1334
 6650W        W 6650   0.326   5.058   5.177  0.3465  0.0185  0.1590
 6651W        W 6651   2.298   4.579   9.942  0.1925  0.0034 -0.0386
 6652W        W 6652  10.099   6.088   3.953  0.1632  0.1824  0.0558
 6653W        W 6653   3.921   0.410   5.012  0.2071 -0.0676 -0.2345
 6654W        W 6654   6.513   7.252   4.846 -0.3608 -0.1127 -0.0924
 6655W        W 6655   1.350   9.052   9.985  0.3162 -0.0158 -0.1016
 6656W        W 6656   2.694   7.289   5.862  0.1475 -0.1276  0.0106
 6657W        W 6657   8.349   9.516   9.265 -0.0073  0.0280 -0.1512
 6658W        W 6658   4.113   3.036   3.331 -0.0257  0.1275  0.0585
 6659W        W 6659   6.833   0.271   3.376  0.1481 -0.0020  0.2209
 6660W        W 6660   8.449   3.646   0.622  0.0009  0.0720 -0.1796
 6661W        W 6661  10.077  10.192   0.087  0.1822 -0.0147 -0.0549
 6662W        W 6662   3.277   4.214   5.604 -0.0127  0.0098 -0.0247
 6663W        W 6663   0.290   6.497   2.311 -0.0272 -0.2724 -0.1572
 6664W        W 6664   1.527   0.604   3.436 -0.2601  0.2222  0.0451
 6665W        W 6665   7.272   6.202   6.609  0.1278  0.1209 -0.0787
 6666W        W 6666   0.837  10.026   8.770  0.2488  0.1013  0.1102
 6667W        W 6667   4.202   7.186   3.227  0.0765  0.0782  0.1439
 6668W        W 6668   9.863   8.376   3.604 -0.5287  0.1212 -0.0007
 6669W        W 6669   4.631   1.593   1.261 -0.3566 -0.0249  0.1796
 6670W        W 6670   6.723   7.139   9.210  0.2374  0.1125  0.0081
 6671W        W 6671   8.947   0.884  10.001 -0.0841  0.2164 -0.2166
 6672W        W 6672   2.173   0.229   1.855 -0.2280  0.4482  0.0638
 6673W        W 6673   0.099   8.368   0.879  0.1794  0.3352  0.1012
 6674W        W 6674   2.418   1.480   2.964  0.0936  0.0768 -0.0798
 6675W        W 6675   4.417   6.934   5.051 -0.0113  0.3105  0.1992
 6676W        W 6676  10.338   9.895   2.684 -0.0293  0.0286  0.3547
 6677W        W 6677   0.658   6.267   8.473 -0.0054  0.0152 -0.0695
 6678W        W 6678   1.346   1.230   3.170 -0.2775  0.0587 -0.5376
 6679W        W 6679   2.324   3.528   6.095 -0.0106  0.2248 -0.0525
 6680W        W 6680   5.098   5.524   7.376 -0.1041  0.1641 -0.0070
 6681W        W 6681   0.554   7.191   8.606  0.3170 -0.3168  0.0375
 6682W        W 6682   8.357   0.530   9.419 -0.0310  0.1111  0.1404
 6683W        W 6683   1.067   4.883   8.409 -0.2132 -0.1366  0.4014
 6684W        W 6684   7.172   8.664   6.150 -0.1596  0.2622 -0.0571
 6685W        W 6685   7.681   2.472   8.671  0.1025 -0.3103 -0.2883
 6686W        W 6686   2.885   0.773   5.227 -0.2885  0.1113  0.2347
 6687W        W 6687   4.850   0.938   2.745  0.0801  0.0143 -0.0527
 6688W        W 6688   3.456   2.604   7.352 -0.1302 -0.0952 -0.0124
 6689W        W 6689   1.311   1.173   4.626 -0.5103 -0.0426 -0.1685
 6690W        W 6690  10.033   8.386   4.155  0.2579 -0.0390 -0.1281
 6691W        W 6691   2.418   9.402   7.909 -0.0575  0.0474  0.2862
 6692W        W 6692   0.467   3.235   3.805  0.2026  0.0408 -0.0372
 6693W        W 6693   0.902   4.470   9.384  0.3544 -0.2744 -0.0365
 6694W        W 6694   7.871   0.505   7.728 -0.0490  0.1742 -0.1105
 6695W        W 6695   0.997  10.099  10.047 -0.0024 -0.1291 -0.2512
 6696W        W 6696   7.991   8.942   8.599 -0.0394 -0.2181 -0.2636
 6697W        W 6697   5.716   8.047   8.678  0.0535 -0.1088  0.1070
 6698W        W 6698   2.749   8.387   2.198  0.4782 -0.1619  0.2143
 6699W        W 6699   4.860   1.302   6.610  0.3008  0.0554  0.4720
 6700W        W 6700   8.630   7.547   3.363  0.1275  0.2068 -0.0725
 6701W        W 6701   0.830   4.199   1.054  0.1470 -0.3216 -0.1957
 6702W        W 6702   0.778   2.629   8.532  0.1157 -0.1497  0.0610
 6703W        W 6703   4.627   0.820   6.728 -0.1560  0.0568  0.0433
 6704W        W 6704   1.891   6.498   7.824  0.0755  0.2570  0.0159
 6705W        W 6705   0.556   2.538   5.551 -0.0363  0.4473  0.1069
 6706W        W 6706   2.450   1.216   1.121 -0.0686 -0.0649 -0.0968
 6707W        W 6707   2.113   2.479   2.645 -0.0320  0.0621  0.2742
 6708W        W 6708   9.080   7.986   8.949 -0.2430 -0.1621 -0.2299
 6709W        W 6709   9.784   2.212   6.536 -0.0510 -0.1373 -0.0832
 6710W        W 6710   3.721   0.262   3.240 -0.2008 -0.0889 -0.3039
 6711W        W 6711   8.913   3.336   2.309 -0.0957 -0.0789 -0.0597
 6712W        W 6712   5.826   7.208   3.437 -0.0124 -0.0307 -0.0640
 6713W        W 6713   8.078   3.759  10.025 -0.3448 -0.0175 -0.0376
 6714W        W 6714   3.208   9.549   7.347  0.2585  0.1385 -0.0507
 6715W        W 6715   5.629   1.319   5.828 -0.3253  0.1803 -0.1881
 6716W        W 6716   5.059   7.174   5.872 -0.0965 -0.0554  0.1622
 6717W        W 6717   2.482   1.692   6.036  0.0535 -0.1543 -0.2187
 6718W        W 6718   8.019   2.414   6.148  0.1401  0.1515  0.1727
 6719W        W 6719   8.360  10.074   7.716 -0.0551 -0.0148  0.1373
 6720W        W 6720   9.713  10.128   7.589 -0.4790  0.0262 -0.2185
 6721W        W 6721   4.047   3.433   2.985 -0.0561  0.0900 -0.1979
 6722W        W 6722   9.118   7.186   7.659  0.0787  0.3767 -0.2658
 6723W        W 6723   8.275   1.602   2.329  0.0965 -0.4143  0.0154
 6724W        W 6724   7.273   4.588   4.722 -0.1520  0.2876 -0.1081
 6725W        W 6725   5.605   9.071   7.352 -0.1966 -0.2012 -0.1534
 6726W        W 6726   3.447   2.385   0.672  0.1746 -0.0811  0.2922
 6727W        W 6727   6.145   1.166   8.910 -0.2800  0.1205 -0.2739
 6728W        W 6728   3.041   7.848   7.381 -0.1065 -0.1361  0.2248
 6729W        W 6729  10.218   8.843   8.481  0.0695  0.4489  0.1230
 6730W        W 6730   3.805   7.825   6.675 -0.1022 -0.0459  0.3333
 6731W        W 6731   4.187   2.423   7.596 -0.2167  0.0725 -0.0582
 6732W        W 6732   0.143   4.107   4.387  0.2163  0.2209 -0.3503
 6733W        W 6733   1.552   6.847   4.457 -0.2596 -0.0558  0.1220
 6734W        W 6734   5.247   9.211   2.812 -0.0787 -0.0768 -0.3093
 6735W        W 6735   1.087   8.562   0.864  0.2991 -0.3564 -0.0207
 6736W        W 6736  10.288   3.246   1.250 -0.0358 -0.1113  0.1598
 6737W        W 6737   0.339   2.002   9.763  0.1019  0.1896 -0.0441
 6738W        W 6738   0.789   4.379  10.309 -0.2159 -0.4625  0.0554
 6739W        W 6739   6.010   1.574   2.140 -0.1922  0.1080  0.2300
 6740W        W 6740   6.064   7.510   6.658  0.1970  0.0604  0.0120
 6741W        W 6741   2.262   5.313   8.019 -0.3022 -0.0486  0.2779
 6742W        W 6742   7.354   2.377   6.516 -0.3306 -0.0586 -0.3345
 6743W        W 6743   8.551   8.708   9.222  0.2272  0.1147 -0.0735
 6744W        W 6744   3.541   7.108   6.546  0.2312 -0.0911 -0.0565
 6745W        W 6745   1.181   2.146   5.630 -0.1608 -0.0141 -0.0961
 6746W        W 6746   1.874   9.792   3.206  0.1036 -0.0454 -0.1426
 6747W        W 6747   7.025   9.273   2.794 -0.0372  0.2104 -0.2906
 6748W        W 6748   2.438   9.360   1.892  0.0039 -0.0532  0.3691
 6749W        W 6749   1.003   9.880   9.450  0.2315  0.2653 -0.1578
 6750W        W 6750   5.823   7.119   9.688 -0.0044 -0.0581 -0.1269
 6751W        W 6751   6.270   5.164   9.074  0.2103  0.0088 -0.0987
 6752W        W 6752   0.300   5.899   9.245 -0.1546 -0.0916 -0.2414
 6753W        W 6753   6.942   7.165   0.763  0.0722  0.1394  0.1939
 6754W        W 6754   6.595   8.447   5.164  0.1221 -0.0200 -0.0758
 6755W        W 6755   3.424   1.967   7.117  0.1466  0.1035 -0.0908
 6756W        W 6756   3.081   1.789   9.233  0.2138 -0.1272  0.1174
 6757W        W 6757   1.906   8.185   2.590 -0.1786 -0.0037  0.0801
 6758W        W 6758   4.203   3.369   6.576  0.0595  0.1878 -0.0561
 6759W        W 6759  10.212   0.227   7.039  0.0842  0.2782 -0.3306
 6760W        W 6760   1.523  10.281   3.964 -0.1054 -0.0531  0.2530
 6761W        W 6761   8.077   1.462   9.617  0.2269  0.1207  0.1173
 6762W        W 6762   3.087   1.444   8.588  0.2870 -0.1483  0.0056
 6763W        W 6763   9.074   9.505   7.917 -0.0124  0.1392 -0.6622
 6764W        W 6764   8.815   9.541   1.015 -0.2814  0.2937  0.2828
 6765W        W 6765   8.196  10.166   8.676  0.0557 -0.5231  0.4012
 6766W        W 6766   3.854   7.653   1.260 -0.0072  0.1174  0.0801
 6767W        W 6767   3.088   7.477   3.670 -0.1063 -0.1023  0.0661
 6768W        W 6768   9.926   2.095   7.003 -0.2657  0.1617 -0.1288
 6769W        W 6769   8.885   9.087   2.408 -0.1284 -0.1308  0.3023
 6770W        W 6770   4.674   5.443   5.348 -0.0145 -0.2535  0.0447
 6771W        W 6771   3.705   7.426   3.252 -0.0607  0.0246  0.0718
 6772W        W 6772   6.384   6.750   6.106 -0.3249 -0.1357  0.0133
 6773W        W 6773   5.071   3.162   4.423  0.1043 -0.3494  0.1033
 6774W        W 6774  10.014   9.686   7.636  0.1376  0.1868  0.1343
 6775W        W 6775   9.315   9.660   6.135  0.0386 -0.0517  0.0458
 6776W        W 6776   9.591   8.549   3.228 -0.1451 -0.3898 -0.1364
 6777W        W 6777   1.147   9.697   0.670 -0.1078  0.0526  0.0393
 6778W        W 6778   8.400   7.154   2.909  0.2234  0.0911  0.1062
 6779W        W 6779   2.145   1.087   3.947  0.1581  0.2814 -0.1433
 6780W        W 6780   1.071   6.490   5.121 -0.0791  0.2929 -0.0360
 6781W        W 6781   1.540   9.321   5.369 -0.0320  0.1479 -0.0802
 6782W        W 6782   5.639   3.950   5.526 -0.0024  0.1426  0.1054
 6783W        W 6783  10.088   3.157   9.245 -0.0935  0.1159 -0.0709
 6784W        W 6784  10.306   8.000   3.925  0.2485 -0.2372 -0.1944
 6785W        W 6785   8.868   2.398   6.120 -0.0538  0.0761 -0.1462
 6786W        W 6786   0.748   6.709   2.013 -0.0970 -0.3514  0.1840
 6787W        W 6787   7.388   6.374  10.173  0.1741  0.0796 -0.2113
 6788W        W 6788  10.291   1.376   5.983  0.0058 -0.0123 -0.0929
 6789W        W 6789   6.121   4.015   6.182  0.0351 -0.1059 -0.4302
 6790W        W 6790   4.280   6.061  10.280 -0.0354 -0.1958 -0.5375
 6791W        W 6791   9.628   0.432   0.110 -0.0412  0.4001 -0.0791
 6792W        W 6792   6.291   3.457   9.423  0.2188  0.1567  0.0279
 6793W        W 6793   0.727  10.237   7.161  0.0716  0.0919 -0.1285
 6794W        W 6794   0.643   1.125   2.404 -0.0679 -0.1444  0.0186
 6795W        W 6795   5.570   9.538   4.658  0.2356 -0.3796  0.3420
 6796W        W 6796   3.063   2.161   1.599 -0.0033 -0.1722  0.0794
 6797W        W 6797   0.502   2.301   1.945  0.0911 -0.0995  0.0105
 6798W        W 6798   8.822   8.193   8.568 -0.0494  0.0911  0.1339
 6799W        W 6799   5.802   8.273   5.546  0.3002 -0.0478  0.0908
 6800W        W 6800   7.612   1.542   9.890 -0.1728 -0.0829  0.0098
 6801W        W 6801   5.989   4.400   2.645 -0.2481 -0.1638  0.0450
 6802W        W 6802   0.827   1.538   8.664 -0.1297  0.0543  0.0105
 6803W        W 6803   0.458   0.834   4.678  0.1590 -0.1145 -0.0685
 6804W        W 6804   5.432   0.804   1.159 -0.4385  0.3988  0.1949
 6805W        W 6805   1.486   0.164   0.709  0.0698  0.2373 -0.1007
 6806W        W 6806   3.843   9.943   2.234 -0.0252  0.3454  0.2294
 6807W        W 6807  10.030   6.439   7.125  0.1096  0.1727  0.2144
 6808W        W 6808   5.685   9.254   3.133 -0.1864 -0.2663  0.0191
 6809W        W 6809   6.252   5.577   8.427  0.0694 -0.1312  0.0212
 6810W        W 6810   9.430   5.492   1.694  0.0277  0.0692 -0.2560
 6811W        W 6811   8.986   2.575   5.343  0.0671 -0.1662  0.0571
 6812W        W 6812   3.859   1.928   6.224 -0.1740  0.2526 -0.0051
 6813W        W 6813   3.282   7.867   6.954 -0.1509 -0.0015 -0.1114
 6814W        W 6814   9.638   3.149   4.795  0.1318 -0.2413 -0.1964
 6815W        W 6815   3.022   6.872   9.304 -0.1828  0.1388 -0.0330
 6816W        W 6816   4.628   2.573   3.746 -0.0933  0.5942  0.1920
 6817W        W 6817   0.681   4.543   6.802  0.1492  0.2518 -0.1759
 6818W        W 6818   7.420   9.559   5.397  0.1400 -0.3885  0.1457
 6819W        W 6819   5.493   2.208   7.281  0.2011 -0.1576  0.2814
 6820W        W 6820   7.154   8.320   3.802  0.3062  0.0919 -0.0970
 6821W        W 6821   5.790   6.293   1.113  0.0357 -0.0343 -0.1494
 6822W        W 6822   5.014   1.069   7.045 -0.0738 -0.2037 -0.3389
 6823W        W 6823   8.938   8.152   8.085  0.1981  0.0720  0.3473
 6824W        W 6824   0.157  10.012  10.060  0.0049  0.1942  0.3361
 6825W        W 6825   0.238   5.426   5.555 -0.2446  0.2248  0.0710
 6826W        W 6826  10.131   9.842   6.240 -0.1650  0.2560  0.0849
 6827W        W 6827   3.262   0.604   4.664 -0.3256 -0.1433 -0.0538
 6828W        W 6828   6.447   6.271   6.306 -0.3865  0.2108 -0.3640
 6829W        W 6829   1.610   8.379   7.954  0.1575  0.2313  0.0105
 6830W        W 6830   0.748   2.974   4.569 -0.0052 -0.1269 -0.0172
 6831W        W 6831   4.657   8.465   4.766 -0.1253  0.0453 -0.0016
 6832W        W 6832   6.210   8.682   1.937 -0.2373 -0.1272 -0.4733
 6833W        W 6833   2.757   9.279   0.467  0.0585 -0.0783 -0.1296
 6834W        W 6834   8.398   2.611   5.838 -0.0805  0.1602 -0.2632
 6835W        W 6835   2.473   4.721   8.621 -0.1347 -0.4299  0.2410
 6836W        W 6836   9.903   8.122   0.026  0.2815 -0.2103 -0.2575
 6837W        W 6837   3.074  10.059   1.554  0.0457 -0.1700 -0.2942
 6838W        W 6838   6.834   5.475   9.013 -0.1264 -0.1025  0.1419
 6839W        W 6839   8.863   8.582   1.696 -0.3010  0.0198  0.0603
 6840W        W 6840   5.076   1.101   4.034  0.1739 -0.3398 -0.4284
 6841W        W 6841   7.845   7.093   8.973 -0.0064 -0.0608  0.0449
 6842W        W 6842  10.238   3.358  10.053  0.3309  0.1967 -0.1338
 6843W        W 6843  10.236   1.351   2.669  0.1996 -0.0663  0.0682
 6844W        W 6844   7.069   5.709   9.385 -0.2710  0.0321  0.0372
 6845W        W 6845   9.709   4.763   6.709 -0.1250 -0.1198 -0.2875
 6846W        W 6846   5.032   5.701   0.438  0.0939 -0.1469 -0.2655
 6847W        W 6847   0.565   3.841   4.514 -0.0663 -0.0961  0.2315
 6848W        W 6848   1.001   6.337   3.957 -0.1897 -0.0459 -0.0464
 6849W        W 6849   9.589   4.971   2.614 -0.1175 -0.0735 -0.1232
 6850W        W 6850   2.671   9.276   3.264 -0.0305 -0.0713  0.1417
 6851W        W 6851   7.584   2.811   5.159 -0.0757 -0.4079  0.1739
 6852W        W 6852   3.323   1.942   3.598  0.0444  0.1534  0.3233
 6853W        W 6853   3.272   2.963   6.991 -0.0905 -0.0983 -0.0882
 6854W        W 6854   0.691   5.213   8.395 -0.2711 -0.2428 -0.0184
 6855W        W 6855   2.139   1.040   0.725 -0.3266  0.0922  0.0644
 6856W        W 6856  10.264   5.200   6.458 -0.0675  0.1090  0.0395
 6857W        W 6857   7.830   9.344   6.213 -0.1042 -0.0574 -0.1383
 6858W        W 6858   8.995   4.397   4.105  0.0690 -0.2091 -0.0724
 6859W        W 6859   0.998   7.171   1.845 -0.3319  0.1132  0.0407
 6860W        W 6860   3.709   8.370   4.254  0.1530 -0.0771  0.1775
 6861W        W 6861   0.639   8.676   7.605  0.2086  0.0461 -0.1514
 6862W        W 6862   6.334   0.600   8.429  0.0764  0.1357  0.1997
 6863W        W 6863   4.203   6.214   0.987  0.0283  0.2695 -0.0025
 6864W        W 6864   6.366   2.182   3.862 -0.1568  0.0464  0.0725
 6865W        W 6865   5.866   6.929   5.938 -0.1431 -0.1662  0.1005
 6866W        W 6866   8.547   9.153   1.341  0.1627  0.2900  0.0183
 6867W        W 6867   3.592   1.293   4.424 -0.0929  0.2215  0.2255
 6868W        W 6868   4.866   2.718   6.980  0.1220  0.0565 -0.0517
 6869W        W 6869   7.800   7.223   0.419  0.2345  0.2429  0.1680
 6870W        W 6870   5.716   6.790   6.618  0.2632 -0.0506 -0.0192
 6871W        W 6871   3.377   3.966   7.858  0.1647  0.2890  0.0151
 6872W        W 6872   0.634   0.341   2.649  0.1925 -0.0856  0.2387
 6873W        W 6873   5.356   3.133   7.778 -0.1278  0.2144 -0.2656
 6874W        W 6874   7.332   0.673   8.985  0.0249  0.3927  0.0011
 6875W        W 6875   7.957   4.322   7.782 -0.0988  0.1249 -0.2232
 6876W        W 6876  10.103   7.076   1.942 -0.1204 -0.2852  0.0691
 6877W        W 6877   9.495   1.830   0.832 -0.2725  0.0233 -0.0501
 6878W        W 6878   9.778   5.552   8.891  0.3987  0.1039  0.1588
 6879W        W 6879   5.242   2.265   6.167  0.1202 -0.1718 -0.0162
 6880W        W 6880   6.147   7.859   5.358  0.1804 -0.0163 -0.2405
 6881W        W 6881   2.675   5.988   4.343 -0.1636 -0.2857  0.4894
 6882W        W 6882   9.529   5.097   2.178  0.1164 -0.2668 -0.1819
 6883W        W 6883   8.659   9.431   8.266 -0.0947  0.0996  0.3374
 6884W        W 6884   8.833   6.173   9.989 -0.0036 -0.1590 -0.0710
 6885W        W 6885   6.637   9.885   0.194 -0.0651 -0.0195 -0.0898
 6886W        W 6886   4.468   9.259   0.567  0.0835 -0.2096  0.2350
 6887W        W 6887   8.387   5.791   0.455 -0.2267  0.0368 -0.1047
 6888W        W 6888   0.576   2.730   2.933  0.0606 -0.0096 -0.0844
 6889W        W 6889   9.687   5.127   7.149 -0.2000 -0.4250  0.0265
 6890W        W 6890   2.967   5.069   1.449  0.0197  0.2085 -0.1227
 6891W        W 6891   2.329   6.869   3.785  0.0778  0.1731 -0.3316
 6892W        W 6892   6.474   4.526   8.073  0.1318 -0.0644  0.0014
 6893W        W 6893   3.613   4.959   8.010 -0.2766 -0.0693 -0.0513
 6894W        W 6894   8.371   2.551   3.226 -0.0509  0.0995  0.2232
 6895W        W 6895   6.894   0.441   5.396  0.1772 -0.0324 -0.2544
 6896W        W 6896  10.135  10.278   2.152  0.0478  0.1911  0.0459
 6897W        W 6897   5.040   5.250   9.639  0.0726  0.3269 -0.1392
 6898W        W 6898   8.011   6.364   2.612 -0.2867 -0.3740  0.0956
 6899W        W 6899   6.810   1.267   0.676 -0.1276 -0.0875 -0.1479
 6900W        W 6900   3.434   2.056   2.602  0.0723 -0.0964 -0.0863
 6901W        W 6901   6.894   3.779   5.707  0.2313 -0.0986 -0.1956
 6902W        W 6902   5.030   5.668   4.418  0.2344 -0.1240  0.2168
 6903W        W 6903   1.745   5.813   7.716  0.0956  0.1810  0.0618
 6904W        W 6904   7.069   4.262   6.854  0.1976 -0.0504  0.1390
 6905W        W 6905   1.625   1.155   5.067  0.2038  0.1300  0.2442
 6906W        W 6906   1.868   1.480   3.090 -0.1204  0.1186 -0.0355
 6907W        W 6907   2.898   0.158   9.976 -0.2899  0.2302 -0.1248
 6908W        W 6908   7.481   5.467   5.243 -0.0712  0.1541 -0.0772
 6909W        W 6909   2.855   5.782   3.492 -0.4094  0.1806  0.1180
 6910W        W 6910   3.674   0.156   4.652  0.1744 -0.1380 -0.0361
 6911W        W 6911   2.833   6.469   9.883 -0.1182 -0.2463  0.0643
 6912W        W 6912   8.226   0.041   7.006 -0.4299  0.2542  0.2793
 6913W        W 6913   5.261   5.508   1.618  0.3502 -0.5210  0.1153
 6914W        W 6914   5.880   4.195   4.508  0.2149 -0.0296 -0.0782
 6915W        W 6915   7.111   1.061   5.530 -0.0618  0.1097 -0.0270
 6916W        W 6916   7.520   4.896   5.491  0.1621  0.0006 -0.0106
 6917W        W 6917  10.143   2.258   5.561  0.0613  0.0594 -0.3913
 6918W        W 6918   9.732   1.699   0.400  0.0940 -0.2702 -0.0467
 6919W        W 6919   0.038   7.672   2.576 -0.0650  0.0149 -0.1306
 6920W        W 6920   7.893   2.306   7.759  0.2627  0.0486 -0.1614
 6921W        W 6921   0.187   5.988   7.756  0.2859 -0.2201 -0.1227
 6922W        W 6922   0.263   0.474   2.921 -0.1130  0.1910  0.0969
 6923W        W 6923   2.862   3.238   4.431  0.0307  0.0739  0.1844
 6924W        W 6924   0.853   6.430   7.414  0.2675 -0.0717 -0.1363
 6925W        W 6925   6.306   7.484  10.327 -0.0432  0.2646 -0.1739
 6926W        W 6926   6.109   9.481   2.801 -0.0970 -0.1464  0.2307
 6927W        W 6927   7.434   7.407   5.660  0.0872 -0.0471 -0.0562
 6928W        W 6928   7.984   6.288   1.393 -0.1226 -0.0424  0.1923
 6929W        W 6929   6.386   5.601   2.711  0.1220  0.1297 -0.1914
 6930W        W 6930   3.815   3.149   9.029  0.0892  0.0666 -0.0741
 6931W        W 6931   5.098   5.832   9.689 -0.1059 -0.0761  0.1583
 6932W        W 6932   4.186   7.443   6.884 -0.0098 -0.0258  0.2654
 6933W        W 6933   4.785   8.046   7.824  0.2519  0.0948 -0.2307
 6934W        W 6934   0.657  10.158   8.324  0.0588  0.1241 -0.0941
 6935W        W 6935   9.502   1.058   6.316  0.0375  0.2256  0.3279
 6936W        W 6936   9.280   2.623   0.523 -0.2493  0.0095  0.2740
 6937W        W 6937   2.495   4.785   5.857  0.1401  0.0003 -0.3300
 6938W        W 6938   6.560   5.574   0.180 -0.2509  0.0154 -0.0174
 6939W        W 6939   9.103   6.303   8.682 -0.0604  0.1715  0.2869
 6940W        W 6940   4.936   6.662   5.983  0.1295  0.2651  0.4582
 6941W        W 6941   1.511  10.025   0.914  0.0148 -0.5027 -0.0298
 6942W        W 6942   8.240   9.840   6.743 -0.2370 -0.2280 -0.1858
 6943W        W 6943   5.850   9.518   4.060  0.0710  0.5039  0.1139
 6944W        W 6944   9.111   4.072   3.757 -0.1673  0.2461 -0.1479
 6945W        W 6945   3.492   6.461   5.361  0.0535 -0.1001  0.1303
 6946W        W 6946   2.885   5.316   7.870 -0.0266  0.0645  0.1217
 6947W        W 6947   7.524   7.062   5.102 -0.1372  0.1712 -0.2081
 6948W        W 6948   8.850  10.309   1.525  0.5059 -0.1336 -0.3222
 6949W        W 6949   3.657   3.714   4.755 -0.0813  0.5600 -0.2333
 6950W        W 6950   9.589   8.224  10.000  0.0457  0.0407  0.0177
 6951W        W 6951   7.158   5.163   0.948  0.1715  0.1212 -0.1332
 6952W        W 6952   2.868   7.660   2.819  0.0357 -0.1151  0.1558
 6953W        W 6953   0.307   3.810   8.119 -0.1167  0.1804  0.2034
 6954W        W 6954   4.374   3.516   6.992 -0.1326  0.2044  0.1705
 6955W        W 6955   2.949   4.385   5.209  0.0815  0.3250  0.0450
 6956W        W 6956   0.108   8.873   2.688 -0.1595  0.0387  0.1589
 6957W        W 6957   7.184   0.921   0.873 -0.2133  0.1365  0.2169
 6958W        W 6958   9.753   9.710   5.577 -0.1095 -0.0867  0.1618
 6959W        W 6959   5.030   3.686   4.358 -0.0802 -0.0236  0.5087
 6960W        W 6960  10.206   2.912   2.128  0.0819 -0.1057 -0.0693
 6961W        W 6961   9.294   5.167   3.209  0.2587 -0.0349  0.1000
 6962W        W 6962   6.849   3.207   7.683 -0.0171  0.1689 -0.4209
 6963W        W 6963   7.159   2.362   5.192 -0.0871 -0.1407  0.3159
 6964W        W 6964   6.076   2.998   3.600  0.0763  0.3273 -0.1366
 6965W        W 6965   1.308   4.214   5.731 -0.1261  0.0916  0.0868
 6966W        W 6966   6.286   2.923   8.507  0.0538  0.0675 -0.1528
 6967W        W 6967   5.784   3.627   6.571  0.1016 -0.0303  0.1959
 6968W        W 6968   4.119   7.458   9.882  0.3030  0.0733  0.1665
 6969W        W 6969   2.702   4.891   7.556 -0.0270  0.0973  0.2131
 6970W        W 6970   8.939   1.821  10.135 -0.1501 -0.1451 -0.3147
 6971W        W 6971   8.384   8.949   2.518 -0.0284 -0.0812 -0.0709
 6972W        W 6972   6.705   0.344   4.568  0.0649  0.2291 -0.0683
 6973W        W 6973   1.309   5.773   3.306  0.0655 -0.0984 -0.0564
 6974W        W 6974   2.596   8.499   0.086 -0.2056 -0.1067  0.1101
 6975W        W 6975   5.452   8.662   6.411  0.0449 -0.0583  0.1500
 6976W        W 6976   6.593   3.041   8.113  0.0781  0.1348 -0.2835
 6977W        W 6977   3.183   8.027   2.778 -0.2472 -0.1728 -0.0641
 6978W        W 6978   8.383   6.011  10.301 -0.1649 -0.1298 -0.2531
 6979W        W 6979   8.365   4.746   8.540 -0.0785  0.0513 -0.1143
 6980W        W 6980   7.695   4.022   5.489  0.0060 -0.1856  0.2324
 6981W        W 6981   7.847   8.823   5.037 -0.1391  0.1151  0.0380
 6982W        W 6982   7.516   1.395   1.282  0.0671 -0.1742  0.2720
 6983W        W 6983   5.799   3.836   0.443  0.0936 -0.1747 -0.1844
 6984W        W 6984   3.121   4.594   4.179  0.0247 -0.1146  0.0703
 6985W        W 6985   2.272   2.295   9.516  0.3782  0.1500 -0.0582
 6986W        W 6986  10.285   6.744   2.769 -0.0817 -0.2585  0.1025
 6987W        W 6987   9.785   1.401   7.539  0.0716  0.2314 -0.1177
 6988W        W 6988   6.999   5.762   5.864  0.0878  0.1334 -0.0259
 6989W        W 6989   1.665   3.035   8.372 -0.1788 -0.1925 -0.4240
 6990W        W 6990   2.318   6.234   1.673 -0.0631 -0.0053  0.0530
 6991W        W 6991   8.396   6.392   5.818 -0.0325 -0.0165 -0.2321
 6992W        W 6992   1.809   1.574   9.672 -0.0806  0.2159  0.2349
 6993W        W 6993   1.346   9.642   9.777  0.2150  0.5727 -0.2395
 6994W        W 6994   4.874   4.537   2.696 -0.1853 -0.0766 -0.4272
 6995W        W 6995   0.788   8.326   8.519  0.2252 -0.0279  0.1331
 6996W        W 6996   6.637   8.093  10.038 -0.2308 -0.0610 -0.3190
 6997W        W 6997   5.284   8.629   6.855 -0.4492 -0.1143  0.0713
 6998W        W 6998   7.125   6.300   0.420 -0.0179  0.0003  0.1073
 6999W        W 6999   2.076   4.021   6.067 -0.2603 -0.0270  0.0886
 7000W        W 7000   2.232   9.288   1.403 -0.1431 -0.2494  0.0645
 7001W        W 7001   3.020   0.117   2.722 -0.0074  0.0711  0.0476
 7002W        W 7002  10.208   5.035   5.548  0.0774  0.2024 -0.2178
 7003W        W 7003   3.380   7.086   7.007  0.2689 -0.1288  0.0171
 7004W        W 7004   9.440   2.059   7.904 -0.3331  0.1359  0.3163
 7005W        W 7005   0.168   2.844   3.824  0.3115 -0.1259  0.0625
 7006W        W 7006   0.190   0.395   5.272  0.1712 -0.3616  0.1193
 7007W        W 7007   0.986   5.075   7.615 -0.1970  0.1254 -0.3740
 7008W        W 7008   0.522   2.608   9.446 -0.0467 -0.0400  0.0221
 7009W        W 7009   4.258   9.587   6.968 -0.3023 -0.0861  0.1166
 7010W        W 7010   7.638   1.943   6.524  0.3228 -0.0368  0.0924
 7011W        W 7011   2.649   1.939   3.832 -0.4282  0.2662 -0.2551
 7012W        W 7012   3.196   2.739   9.510  0.3627  0.0162 -0.4168
 7013W        W 7013   4.767   6.977   8.822 -0.1048 -0.0202 -0.1323
 7014W        W 7014  10.030   0.755   7.694 -0.1922  0.2810  0.2358
 7015W        W 7015   9.247   1.606   1.262  0.2015  0.2043 -0.1259
 7016W        W 7016   5.156   0.410   7.674  0.0194  0.0892 -0.2823
 7017W        W 7017   5.555   0.511   3.365  0.0000  0.0440 -0.2330
 7018W        W 7018   3.214   6.140   3.045  0.4076 -0.0130  0.0898
 7019W        W 7019   4.278   1.168   1.131  0.0975 -0.0055 -0.1796
 7020W        W 7020   8.814   7.780   9.319  0.0255 -0.1833  0.2955
 7021W        W 7021   1.853   0.545   6.332  0.0491  0.1534 -0.0266
 7022W        W 7022   5.035   9.766   6.325  0.1222  0.1298  0.1806
 7023W        W 7023   8.873   8.873   9.707 -0.4281 -0.0266 -0.2851
 7024W        W 7024   8.508   0.901   7.993  0.0390 -0.2257 -0.3305
 7025W        W 7025   9.516   6.735   0.675 -0.1855 -0.2112 -0.0304
 7026W        W 7026   5.444   6.648   9.123  0.0564  0.2970 -0.2705
 7027W        W 7027   0.300   9.769   1.948 -0.2668 -0.0726  0.1076
 7028W        W 7028   9.382   4.067   5.032 -0.2680  0.0476 -0.5022
 7029W        W 7029   5.331   4.274   3.403 -0.0022  0.0058 -0.0439
 7030W        W 7030   2.974   2.690   6.685 -0.1181  0.0279 -0.1265
 7031W        W 7031   2.891   7.776   5.674 -0.1332 -0.3262  0.0086
 7032W        W 7032   6.593   4.272   1.926 -0.1003  0.0934 -0.0981
 7033W        W 7033   6.620   4.152   1.254 -0.1538 -0.2093 -0.1107
 7034W        W 7034   3.369   1.456   1.607 -0.0223  0.0154 -0.1410
 7035W        W 7035   6.796   0.708   4.265  0.0025  0.0152 -0.2550
 7036W        W 7036   3.295   8.876   9.879  0.4049 -0.3021  0.2937
 7037W        W 7037   2.485   4.887   1.577 -0.1568 -0.2463  0.1208
 7038W        W 7038   3.995   2.057   1.445  0.1479 -0.2303  0.0364
 7039W        W 7039   0.353   7.632   9.286  0.0218 -0.4027  0.0176
 7040W        W 7040   4.322   1.035   2.490 -0.2037  0.0315 -0.1167
 7041W        W 7041   4.850   8.244   4.321 -0.1610  0.0278 -0.0344
 7042W        W 7042   3.875  10.285   2.600 -0.2446  0.0665 -0.1977
 7043W        W 7043   6.477   9.087   2.603  0.0524 -0.3137 -0.1812
 7044W        W 7044   3.691   2.724   4.184  0.0290  0.0824 -0.1812
 7045W        W 7045   2.927   2.939   9.953 -0.3052  0.1087 -0.3460
 7046W        W 7046   8.633   7.806   7.127  0.0594 -0.5049 -0.1213
 7047W        W 7047   9.145   3.762   4.682  0.0261  0.1476 -0.1912
 7048W        W 7048   2.895   1.923   9.678  0.0037 -0.0106  0.2195
 7049W        W 7049   9.736   0.348   7.815 -0.1601 -0.1425  0.1772
 7050W        W 7050   2.241   1.299   9.815  0.2379  0.1162 -0.1356
 7051W        W 7051   1.150   1.422   0.554 -0.2819  0.2952  0.2988
 7052W        W 7052   0.210   1.874   4.964 -0.0319 -0.1463  0.1115
 7053W        W 7053   0.919   8.903   1.184  0.0344 -0.0043  0.0582
 7054W        W 7054   1.736   0.778   0.872 -0.0847  0.0922  0.2014
 7055W        W 7055   6.587   2.188   5.222 -0.2625  0.1165 -0.2924
 7056W        W 7056   7.876   3.206   2.937 -0.1821  0.0432  0.0339
 7057W        W 7057   2.920   4.636   0.926  0.2847 -0.0023  0.2762
 7058W        W 7058   8.795   6.774   5.210 -0.2447 -0.1993 -0.2674
 7059W        W 7059   5.275   5.840   4.888  0.1385 -0.1158 -0.0497
 7060W        W 7060   0.094   3.476   2.580  0.0576  0.0483 -0.2508
 7061W        W 7061   9.302   5.186   4.608  0.1030 -0.1361  0.1265
 7062W        W 7062   5.167   8.301   8.648 -0.0391 -0.1561  0.1187
 7063W        W 7063   5.331   3.403   6.087 -0.3201 -0.0569  0.0898
 7064W        W 7064   1.546   2.719   9.810  0.1756  0.3076 -0.1519
 7065W        W 7065   2.037   6.175   7.475 -0.2932 -0.1205 -0.0575
 7066W        W 7066   2.337   6.908   7.102  0.1727 -0.3304  0.3889
 7067W        W 7067   8.301   4.595   7.565 -0.0245 -0.1512  0.3148
 7068W        W 7068   6.931   8.198   8.169 -0.1163 -0.0933  0.0768
 7069W        W 7069   0.031   2.492   1.149  0.1997  0.0650 -0.1514
 7070W        W 7070   9.040   1.376   4.703 -0.1140  0.0404  0.2490
 7071W        W 7071  10.055   3.630   9.371 -0.2643  0.4605 -0.1491
 7072W        W 7072   2.436   2.186   7.936 -0.1524 -0.0454 -0.0539
 7073W        W 7073   7.463   5.079   9.787 -0.0200 -0.1038  0.2621
 7074W        W 7074   5.529   5.277   2.826  0.0785 -0.1822  0.0359
 7075W        W 7075   4.769   2.394   0.177  0.3182  0.2673  0.0831
 7076W        W 7076   5.878   4.122   6.572 -0.0177  0.2353  0.0316
 7077W        W 7077   8.515   1.680   3.922 -0.1315 -0.1114 -0.2009
 7078W        W 7078   1.529   7.550   5.931 -0.1776 -0.3825  0.3877
 7079W        W 7079   9.452   1.193   4.989 -0.0475  0.2070  0.1060
 7080W        W 7080   2.841   9.521  10.333 -0.2398  0.0997 -0.2786
 7081W        W 7081   1.325   0.168   8.740  0.0260 -0.1886 -0.0660
 7082W        W 7082   5.870   3.898   2.346 -0.0168  0.0503 -0.0156
 7083W        W 7083   9.628   4.470   7.764 -0.2263 -0.0152  0.1800
 7084W        W 7084   9.047   6.357   2.702 -0.2965 -0.1204 -0.0320
 7085W        W 7085   4.577   1.223   3.035 -0.0807 -0.1074  0.3423
 7086W        W 7086   9.385   5.104   9.571 -0.0709  0.1403  0.2137
 7087W        W 7087   0.686   3.754   4.998 -0.1504 -0.1153 -0.2135
 7088W        W 7088   2.289   1.999   4.213  0.1076  0.2040 -0.0634
 7089W        W 7089   5.535   4.182   7.446  0.0961 -0.0577 -0.1602
 7090W        W 7090   2.169   3.452   9.034 -0.2486 -0.0374  0.1803
 7091W        W 7091   7.647   3.321   9.788  0.0793 -0.0509  0.0221
 7092W        W 7092   9.747   1.202   2.659 -0.0949 -0.1643  0.3063
 7093W        W 7093   4.444   3.408   1.169 -0.0132 -0.0001  0.0880
 7094W        W 7094   0.038   2.135   6.639 -0.1326 -0.0075  0.1027
 7095W        W 7095   3.962   5.445   6.113 -0.0618  0.0162  0.1637
 7096W        W 7096   9.453   8.897   8.679  0.0787 -0.0780 -0.0356
 7097W        W 7097   6.970   6.939   7.577 -0.5752  0.1138  0.1210
 7098W        W 7098   7.914   5.166   4.885 -0.1394 -0.1944 -0.3299
 7099W        W 7099   1.974   8.415   8.253  0.3854 -0.1658 -0.0119
 7100W        W 7100   5.223   9.581   1.499  0.2449  0.2330  0.3088
 7101W        W 7101   7.780   3.283   4.290 -0.1407  0.0826  0.1525
 7102W        W 7102   5.900   0.605   8.168  0.1585 -0.1213 -0.1502
 7103W        W 7103   1.156   3.251   8.314 -0.0131  0.1557 -0.2687
 7104W        W 7104   2.004   1.597   2.581  0.0252 -0.2602 -0.1904
 7105W        W 7105   5.622   6.865   7.209 -0.1019  0.0782  0.0037
 7106W        W 7106   6.223   4.002   2.770  0.1173  0.1464  0.2920
 7107W        W 7107   6.741   3.531   8.190 -0.1140  0.1289  0.1148
 7108W        W 7108  10.167   9.476   5.850 -0.2498  0.1289  0.0117
 7109W        W 7109   5.823   8.294   4.473  0.1419 -0.2688  0.4417
 7110W        W 7110   9.284   3.983   4.212  0.0434 -0.2473  0.4328
 7111W        W 7111   0.379   8.712   3.619 -0.0007  0.1718  0.2278
 7112W        W 7112   2.764   2.650   5.566 -0.1305  0.0508  0.2834
 7113W        W 7113   0.879   9.227   4.621  0.2116  0.0288  0.1165
 7114W        W 7114   2.466   6.570   1.198  0.1417  0.1074  0.0983
 7115W        W 7115   1.562   2.910   6.167 -0.1157  0.1017  0.4736
 7116W        W 7116   6.328   4.628  10.193  0.0731  0.0235  0.0321
 7117W        W 7117   0.238   1.494   0.352 -0.0757  0.1897  0.1071
 7118W        W 7118   0.717   1.855   2.156 -0.1060 -0.1384 -0.0811
 7119W        W 7119   8.576   8.738   3.471  0.1109 -0.1050 -0.0506
 7120W        W 7120   2.965   8.770   8.563 -0.1622 -0.4901 -0.2885
 7121W        W 7121   2.483   2.189   0.774 -0.4001 -0.3701 -0.2571
 7122W        W 7122   4.000   3.366   8.377 -0.3814  0.2371  0.1439
 7123W        W 7123   7.086   7.139   5.360 -0.0919  0.1214 -0.1733
 7124W        W 7124   4.099   1.254   7.450  0.1544  0.1482  0.0949
 7125W        W 7125   9.337   1.109   9.784 -0.0132  0.0421  0.2003
 7126W        W 7126   4.691   4.934   3.842  0.1261  0.3946  0.0716
 7127W        W 7127   2.021   4.910   9.506  0.3160  0.0842  0.2046
 7128W        W 7128   3.836  10.194   0.347  0.2473 -0.0085 -0.0560
 7129W        W 7129   5.602   2.754   2.663 -0.3175 -0.1359 -0.0740
 7130W        W 7130  10.116   3.722   1.116 -0.2047  0.0781 -0.0686
 7131W        W 7131   7.207   1.608   6.469  0.3046  0.3098  0.1681
 7132W        W 7132   0.383   0.204   3.361  0.1578 -0.0719 -0.0352
 7133W        W 7133   1.662   2.014   5.818  0.0202  0.0386 -0.2169
 7134W        W 7134   3.659   9.422   8.194 -0.0509  0.1774 -0.1081
 7135W        W 7135   7.419  10.327   6.632  0.2053  0.2710  0.2901
 7136W        W 7136   2.168   8.614   3.897  0.2149  0.1563 -0.1700
 7137W        W 7137   6.038   1.366   4.812  0.0544  0.0304  0.2510
 7138W        W 7138   1.429   1.631   9.954 -0.1135  0.2667  0.0770
 7139W        W 7139   9.113   7.125   2.913  0.0296  0.1066  0.2434
 7140W        W 7140   9.430   2.656   1.054 -0.1634 -0.1022  0.0374
 7141W        W 7141   3.411   4.810   1.252 -0.3222 -0.1982 -0.0285
 7142W        W 7142   0.271   3.773   6.765  0.0331  0.1954  0.1603
 7143W        W 7143   1.133   2.369  10.338  0.0598  0.0309 -0.0418
 7144W        W 7144   0.469   1.390   7.213 -0.0581  0.0025  0.0022
 7145W        W 7145   1.428   5.826   1.341 -0.0286  0.0064  0.3049
 7146W        W 7146   6.938   1.957   8.814  0.1216 -0.1639  0.0235
 7147W        W 7147   4.384   7.375   8.941 -0.0606 -0.0155 -0.0490
 7148W        W 7148   0.738   2.704   9.922 -0.0361  0.1284 -0.0468
 7149W        W 7149   9.079   9.702   9.709  0.2094 -0.2684  0.4577
 7150W        W 7150   4.862  10.224   4.833 -0.1079 -0.2326  0.0706
 7151W        W 7151   2.416  10.281   1.361  0.0062  0.0302 -0.0349
 7152W        W 7152   6.500   6.893   7.253 -0.2715 -0.3070 -0.1771
 7153W        W 7153   2.280   7.028   5.710  0.0287  0.0674 -0.1349
 7154W        W 7154   0.005   9.850   4.606 -0.2373 -0.1953 -0.1299
 7155W        W 7155   0.807   1.932   7.468  0.0485  0.1965  0.1075
 7156W        W 7156   2.080  10.171   3.544 -0.2766  0.1150 -0.1474
 7157W        W 7157   8.977   0.963   4.354 -0.1736 -0.1084  0.2700
 7158W        W 7158   8.688   5.247   6.087  0.2498  0.1076  0.0024
 7159W        W 7159   3.729   2.402   4.711  0.0273  0.0756 -0.2590
 7160W        W 7160   5.728   5.125   8.868 -0.1004 -0.3625 -0.2021
 7161W        W 7161   1.372   3.306   6.416  0.0917 -0.0259 -0.0867
 7162W        W 7162   0.293   5.990   1.241  0.1999  0.1769 -0.3274
 7163W        W 7163   7.568   5.509   9.993 -0.0292  0.0114 -0.0601
 7164W        W 7164   4.944   6.709   9.329  0.3190 -0.1040  0.0786
 7165W        W 7165   6.613   6.290   7.220 -0.1041 -0.0105  0.1419
 7166W        W 7166   0.272   7.943   5.604  0.1783  0.2373 -0.0608
 7167W        W 7167   2.140   0.736   7.364 -0.1399 -0.2776 -0.1582
 7168W        W 7168   6.052   5.346   0.799  0.1511 -0.1066 -0.2411
 7169W        W 7169   7.387   1.947   6.069  0.2048 -0.2447 -0.0574
 7170W        W 7170   4.731   8.960   7.707  0.0644 -0.1493  0.2040
 7171W        W 7171   6.151   1.447   7.841 -0.0044 -0.1502  0.0377
 7172W        W 7172  10.251   0.110   2.689 -0.0918 -0.4068 -0.1432
 7173W        W 7173   4.367   7.743   8.557 -0.2726  0.0253 -0.1706
 7174W        W 7174   2.671   4.545   2.238 -0.0140  0.0457 -0.0836
 7175W        W 7175   1.906   2.319   4.469  0.0544 -0.0493  0.3017
 7176W        W 7176   8.434   9.244   3.245  0.1892  0.1667  0.0845
 7177W        W 7177   9.534   2.166   4.729  0.1909 -0.0200 -0.1709
 7178W        W 7178   9.488   0.641   3.702 -0.0267  0.1419  0.0086
 7179W        W 7179   9.295   1.317   6.738  0.1692 -0.0925 -0.0482
 7180W        W 7180   7.771   1.700   5.778  0.3316 -0.0204 -0.1453
 7181W        W 7181   8.075   2.837  10.324  0.1130 -0.2961 -0.2214
 7182W        W 7182   4.553   7.833   6.897 -0.1900  0.0097 -0.2209
 7183W        W 7183   1.772   0.966   0.370  0.2653  0.0136  0.3254
 7184W        W 7184   2.818   5.088   4.183  0.0220  0.1888 -0.0817
 7185W        W 7185   9.845   9.257   7.876  0.0159  0.1630  0.0301
 7186W        W 7186   0.921   2.797   7.370 -0.0533 -0.0200 -0.0705
 7187W        W 7187   4.602   7.706   3.384 -0.1330 -0.2788 -0.1869
 7188W        W 7188   7.768   5.124   7.333 -0.2433 -0.1831  0.0459
 7189W        W 7189   8.759  10.136   0.079  0.1436  0.0160 -0.1483
 7190W        W 7190   8.588   1.001   9.202 -0.1248 -0.1962 -0.1931
 7191W        W 7191   8.055   7.830   5.093  0.0342  0.2100 -0.1910
 7192W        W 7192   3.515   7.101  10.097 -0.4404  0.1470 -0.0471
 7193W        W 7193   6.174   1.848   9.265 -0.2387  0.2233  0.0358
 7194W        W 7194   1.721   7.973   5.714  0.1512  0.0969 -0.0425
 7195W        W 7195   3.467   2.846   1.821  0.1642 -0.1304  0.1512
 7196W        W 7196   3.135   1.720   1.226  0.1622 -0.1222  0.1507
 7197W        W 7197   3.571   9.007  10.246 -0.2768 -0.4831 -0.0331
 7198W        W 7198   2.817   9.600   9.798 -0.1304 -0.0287  0.0925
 7199W        W 7199   0.467   6.779   9.901 -0.1085 -0.0794 -0.0581
 7200W        W 7200   8.906   8.050   0.962  0.1179 -0.1401 -0.1373
 7201W        W 7201   8.815   3.912   8.842 -0.2379  0.3276  0.0587
 7202W        W 7202   7.798   0.611   7.250  0.1898  0.1147 -0.1662
 7203W        W 7203   2.733   2.184   1.221 -0.1396  0.1280  0.1359
 7204W        W 7204   2.897   4.640   7.204 -0.1475  0.1654 -0.1200
 7205W        W 7205   2.446   9.039   4.958  0.0264 -0.2566 -0.1981
 7206W        W 7206   7.837   4.195   2.698 -0.0790  0.0525  0.0060
 7207W        W 7207   4.317  10.218   7.021 -0.0111 -0.2772 -0.4749
 7208W        W 7208   2.574   2.349   7.467  0.1215 -0.1663 -0.0724
 7209W        W 7209   7.381  10.284   1.284  0.0163  0.2654 -0.0655
 7210W        W 7210   6.047   3.776   4.715  0.2182 -0.0436 -0.3170
 7211W        W 7211   8.391   1.890   1.821 -0.5751 -0.0793  0.0374
 7212W        W 7212   0.854   7.098   0.768 -0.1282  0.0592 -0.1266
 7213W        W 7213   5.989   5.370   2.070 -0.3933 -0.0455 -0.0876
 7214W        W 7214   0.209  10.148   6.951  0.1793 -0.0670  0.2033
 7215W        W 7215   8.804   6.837   7.726 -0.1112  0.0316  0.1501
 7216W        W 7216   7.828   3.651   3.992  0.4061  0.2898  0.3070
 7217W        W 7217   5.355   2.508   1.820 -0.0842  0.0838 -0.1008
 7218W        W 7218   6.612   2.998   5.616  0.1169  0.1854 -0.1142
 7219W        W 7219   3.126   0.974   4.324 -0.2206  0.1607 -0.1052
 7220W        W 7220  10.316   2.807   7.312  0.0897 -0.0705  0.0365
 7221W        W 7221   8.761   4.983   8.913  0.3631  0.1467 -0.2856
 7222W        W 7222   4.272   2.905   4.391  0.0779  0.0655 -0.2267
 7223W        W 7223   1.662   9.875   9.307  0.3044 -0.2151  0.0087
 7224W        W 7224   6.795   1.098   1.165 -0.2776  0.2312 -0.1151
 7225W        W 7225   0.357   2.008   9.041 -0.0926 -0.0443 -0.2168
 7226W        W 7226   7.891  10.124   0.471 -0.2626  0.0543 -0.1307
 7227W        W 7227   8.451   5.437   1.352 -0.1463 -0.0226 -0.2729
 7228W        W 7228   1.232   3.829   6.659 -0.0411  0.4225 -0.1086
 7229W        W 7229   9.983   1.643   7.170 -0.3677  0.1896 -0.0311
 7230W        W 7230   6.963   0.443   7.378  0.1650  0.0586 -0.0460
 7231W        W 7231   6.418   8.034   4.122  0.1631 -0.1505  0.0573
 7232W        W 7232   8.848   3.637   3.758  0.3247 -0.0755 -0.1137
 7233W        W 7233   1.047   6.833   4.743 -0.0006 -0.1379 -0.1923
 7234W        W 7234   5.149   2.385   4.807 -0.1017  0.2199 -0.2246
 7235W        W 7235   1.932   2.902   4.480  0.0334 -0.0391  0.0041
 7236W        W 7236   4.412   9.474   9.356  0.3279  0.5469 -0.0189
 7237W        W 7237   2.922   0.474   6.113 -0.1957 -0.0898  0.1873
 7238W        W 7238   8.820   2.960   2.718  0.0430  0.0490 -0.0763
 7239W        W 7239   7.288   7.764   4.310  0.0601  0.1193 -0.1275
 7240W        W 7240   0.743   2.813   3.599 -0.3133 -0.1978  0.1505
 7241W        W 7241   0.591   6.727   4.867  0.1463  0.1184 -0.1115
 7242W        W 7242   2.416   3.251   7.309 -0.1311 -0.1262 -0.1311
 7243W        W 7243   2.781   9.229   8.390 -0.0790  0.0375 -0.2020
 7244W        W 7244   3.191   3.293   5.125  0.2556 -0.2504  0.1334
 7245W        W 7245   8.443   9.637   5.790  0.2663  0.1906  0.4241
 7246W        W 7246   5.573   8.006   3.504  0.0017  0.3567 -0.0604
 7247W        W 7247   9.282   0.907   5.827  0.3765 -0.0881  0.1438
 7248W        W 7248   4.510   9.568   8.246 -0.2166  0.1618  0.0238
 7249W        W 7249   4.054   3.611   6.179 -0.3982 -0.4574 -0.0435
 7250W        W 7250   5.014   6.707   3.280  0.0987  0.0882 -0.2531
 7251W        W 7251   6.015   3.261   4.625  0.1172 -0.0071  0.0281
 7252W        W 7252   2.065   4.020   5.459  0.0118 -0.1687 -0.1986
 7253W        W 7253   4.466   5.234   7.410  0.0866 -0.2273  0.0077
 7254W        W 7254   3.719   0.718   8.005 -0.0421 -0.2686 -0.2330
 7255W        W 7255   4.848   2.224   5.219 -0.1052 -0.1722 -0.0520
 7256W        W 7256   3.541   8.870   9.323 -0.1144 -0.0630 -0.0657
 7257W        W 7257   2.479   8.935   8.761 -0.2089 -0.0977 -0.1575
 7258W        W 7258   2.240   3.659   6.578 -0.1721  0.1315 -0.1861
 7259W        W 7259   1.352   8.027   3.947  0.1496  0.0828 -0.0308
 7260W        W 7260   3.091   5.502   9.056 -0.0470  0.1536  0.0284
 7261W        W 7261   9.051   2.447   4.829 -0.0721  0.3005 -0.0483
 7262W        W 7262   4.767   1.522   0.250  0.0451  0.0997 -0.3926
 7263W        W 7263   7.558   8.197   9.102  0.0134  0.1247  0.0999
 7264W        W 7264   9.648  10.325  10.160  0.3130 -0.4652 -0.1188
 7265W        W 7265   6.902   8.338   5.905  0.0462  0.2614 -0.0429
 7266W        W 7266   1.581   2.710   7.910  0.0536 -0.0991  0.2418
 7267W        W 7267   5.374   6.456   0.771  0.0779 -0.3818 -0.0077
 7268W        W 7268   1.714   1.760   9.172 -0.0922 -0.0723  0.0619
 7269W        W 7269   1.796   9.355   9.836 -0.2044  0.1288  0.1090
 7270W        W 7270   5.460   5.423   5.614  0.1943 -0.0598 -0.0440
 7271W        W 7271  10.287   1.131  10.090  0.0679 -0.0471  0.2775
 7272W        W 7272   7.910   4.098   4.193 -0.1015 -0.1821  0.3110
 7273W        W 7273   7.393   8.534   2.652 -0.1282 -0.0569  0.0785
 7274W        W 7274   3.691   9.042   7.698 -0.2136 -0.1096  0.0099
 7275W        W 7275   0.561   5.914   6.370 -0.0093  0.0237  0.2786
 7276W        W 7276   8.333   9.486   6.271  0.3257  0.0583 -0.1903
 7277W        W 7277   3.571   4.870   2.911  0.0770  0.0361  0.2770
 7278W        W 7278   3.963   9.174   3.689  0.0406  0.0876  0.2755
 7279W        W 7279   3.022   7.214   0.628 -0.0823 -0.2349  0.1017
 7280W        W 7280   7.339   6.688   1.268  0.1236  0.0321  0.1877
 7281W        W 7281   6.844   7.523   5.711  0.4203 -0.1744 -0.1859
 7282W        W 7282   4.369   7.897   9.137 -0.1604 -0.0119  0.0457
 7283W        W 7283   6.536   3.137   1.070 -0.2522  0.0708  0.0366
 7284W        W 7284   8.238   1.268   5.033  0.3013  0.0523  0.1172
 7285W        W 7285   0.683   5.687   0.104 -0.0458 -0.0550  0.0175
 7286W        W 7286   4.702   9.308   1.331 -0.1271  0.1929  0.2723
 7287W        W 7287   1.691   9.581   1.453 -0.2449  0.3564 -0.1321
 7288W        W 7288   9.254   0.388   6.948 -0.2579  0.1126  0.1418
 7289W        W 7289   1.767   5.333   0.038 -0.2878 -0.4122 -0.0410
 7290W        W 7290   7.892  10.239  10.196  0.0072  0.0472  0.1247
 7291W        W 7291   0.479   9.381   8.147 -0.1385 -0.0562 -0.2741
 7292W        W 7292   8.959   5.234   4.268 -0.0693 -0.1045 -0.0915
 7293W        W 7293   7.855   1.068   3.405  0.0773 -0.0511  0.1819
 7294W        W 7294   3.489   1.564   8.236 -0.0715  0.2447 -0.0219
 7295W        W 7295   6.976   8.297   2.779  0.0489  0.3069 -0.1125
 7296W        W 7296   5.481   7.694   7.356 -0.0085  0.0187 -0.2425
 7297W        W 7297   4.169   7.509   9.364  0.0967 -0.0650 -0.0410
 7298W        W 7298   6.958   1.233   3.019 -0.0602 -0.4127  0.0447
 7299W        W 7299   5.671  10.306   7.117 -0.4201 -0.0993 -0.0632
 7300W        W 7300   9.268   6.864   4.233  0.0587  0.3796 -0.1933
 7301W        W 7301   2.692   8.636   6.130  0.1388 -0.1580  0.2284
 7302W        W 7302   1.117   5.536   8.336 -0.0073  0.1089  0.0095
 7303W        W 7303   1.746   3.229   9.506  0.0442  0.1530  0.1043
 7304W        W 7304   6.362   7.682   4.477  0.0702 -0.0560  0.1624
 7305W        W 7305  10.030   0.795   4.454  0.1065 -0.2136 -0.1018
 7306W        W 7306   5.023   6.146   4.145  0.0906  0.0574  0.0015
 7307W        W 7307  10.163   0.955   0.882 -0.0048  0.4149  0.0493
 7308W        W 7308   8.950  10.288   8.879 -0.1266  0.1996  0.0617
 7309W        W 7309   5.904   7.466   4.519 -0.1780 -0.1105  0.2708
 7310W        W 7310   1.290   8.345   3.515 -0.2121  0.3849 -0.1161
 7311W        W 7311   9.017   0.599   0.146  0.1296 -0.0339 -0.1556
 7312W        W 7312   6.598   0.883   9.314 -0.0497 -0.0068 -0.0727
 7313W        W 7313   7.697   9.682   6.614 -0.0577  0.1513  0.2586
 7314W        W 7314   6.613   8.261   6.887  0.4016 -0.2235 -0.0700
 7315W        W 7315   0.460   8.229   3.958 -0.1385  0.3047 -0.1380
 7316W        W 7316   7.716   2.740   4.074  0.0950 -0.2292  0.0663
 7317W        W 7317   6.248   3.323   5.533  0.3264 -0.0381  0.1190
 7318W        W 7318   7.690   3.825   7.701 -0.1093 -0.2938 -0.0542
 7319W        W 7319   4.644   7.515   7.331 -0.1125 -0.0122  0.2429
 7320W        W 7320   5.861   9.527   8.151 -0.0589 -0.1310 -0.0202
 7321W        W 7321   1.985   3.909   4.420  0.2755 -0.2579  0.1526
 7322W        W 7322   3.857   6.545   9.525 -0.1961 -0.1779 -0.1272
 7323W        W 7323   7.143   2.142  10.076  0.0225  0.0143 -0.0105
 7324W        W 7324   1.630   5.542   6.570 -0.1926 -0.1193 -0.0953
 7325W        W 7325   3.303   0.449  10.066  0.1882  0.0099 -0.0302
 7326W        W 7326   4.102   0.983   5.070 -0.2433  0.1274 -0.4361
 7327W        W 7327   2.327   9.054   0.432 -0.0628  0.2373  0.2518
 7328W        W 7328   3.085   2.556   3.892 -0.3228 -0.1283 -0.1380
 7329W        W 7329   0.558   3.588   9.877  0.0353  0.0400  0.2027
 7330W        W 7330   9.543   7.158   3.181  0.1729  0.2664  0.0314
 7331W        W 7331   7.895   0.151   4.846  0.1440  0.0620  0.1827
 7332W        W 7332   9.514   4.611   4.429  0.0218 -0.2267  0.1483
 7333W        W 7333   2.678   6.682   5.670 -0.2640 -0.0562  0.1567
 7334W        W 7334  10.189   0.757   5.438  0.2253  0.0165  0.0836
 7335W        W 7335   3.749   2.626   3.310 -0.0008 -0.1240  0.0076
 7336W        W 7336   2.813   0.959   2.608  0.0239 -0.1284 -0.0551
 7337W        W 7337   1.710   3.718   6.358  0.0839  0.0650  0.1609
 7338W        W 7338   6.577   4.564   6.560  0.0435  0.0459 -0.2121
 7339W        W 7339   3.346   6.099   3.654  0.0928  0.0469  0.2160
 7340W        W 7340   8.065   9.319   6.717 -0.0391 -0.1655  0.3780
 7341W        W 7341   3.442   1.429   3.652 -0.1468  0.0655  0.0352
 7342W        W 7342   9.322   0.715   7.917  0.3157 -0.0335 -0.1134
 7343W        W 7343   7.462   1.857   2.033  0.0799 -0.2483 -0.1768
 7344W        W 7344   4.688   4.828   9.722 -0.3927  0.1799  0.3632
 7345W        W 7345   7.985   6.651   5.835 -0.1385  0.2760  0.0138
 7346W        W 7346   8.619   9.911   2.272 -0.0874  0.1245 -0.1022
 7347W        W 7347   6.368   4.963   6.146 -0.2268  0.0493 -0.3172
 7348W        W 7348   6.632   6.688   9.456  0.3081 -0.0562  0.2326
 7349W        W 7349   2.380   5.352   7.456 -0.1454 -0.0370 -0.0387
 7350W        W 7350   5.370   7.898   8.270 -0.3014  0.0319 -0.5361
 7351W        W 7351   9.965   4.285   7.411  0.1049 -0.3364 -0.1399
 7352W        W 7352   0.554   3.343   6.013  0.0694  0.1508 -0.0867
 7353W        W 7353   4.764   4.128   5.890  0.1961  0.2130  0.1831
 7354W        W 7354   2.527   0.539   5.468 -0.0616 -0.0108 -0.1379
 7355W        W 7355   0.342   4.849   6.362 -0.3045  0.2812  0.3439
 7356W        W 7356   1.874   8.605   9.517 -0.2784 -0.1045  0.0180
 7357W        W 7357   0.212   2.029   0.931 -0.0130  0.2465  0.0583
 7358W        W 7358   3.340   0.517   4.161 -0.1599  0.0457  0.1388
 7359W        W 7359   6.383   1.916   2.358  0.1827  0.0721  0.1899
 7360W        W 7360   3.358   8.191   3.921 -0.2351 -0.1783 -0.0504
 7361W        W 7361   5.199   5.408  10.049 -0.3098  0.0592 -0.2030
 7362W        W 7362   8.957   3.015   4.991 -0.1219  0.0984 -0.1992
 7363W        W 7363   6.533   0.922   2.821 -0.1357 -0.0664 -0.2735
 7364W        W 7364   3.570   9.724   1.741 -0.1914  0.3447 -0.0064
 7365W        W 7365   3.449   5.590   4.821  0.0659 -0.0881 -0.0440
 7366W        W 7366   0.445   7.177   3.913  0.1464  0.3040 -0.0535
 7367W        W 7367   5.081   0.409   2.617  0.4280 -0.4268  0.0117
 7368W        W 7368   3.183   5.511   7.182 -0.3436  0.0548 -0.1117
 7369W        W 7369   3.870   9.735   2.689  0.1313  0.0899  0.0401
 7370W        W 7370   8.243   1.140   2.398  0.0133  0.0881 -0.0064
 7371W        W 7371   7.530   5.869   5.813  0.2319  0.2541 -0.1532
 7372W        W 7372   3.120   4.886   5.102 -0.0719 -0.3681  0.2735
 7373W        W 7373   8.416   9.976   6.228 -0.1318  0.0767 -0.1463
 7374W        W 7374  10.284   7.610   4.697 -0.3145  0.2759  0.3014
 7375W        W 7375   1.297   5.105   5.315 -0.3194  0.2963  0.2839
 7376W        W 7376   8.337   3.187   1.355  0.1259 -0.1662  0.0012
 7377W        W 7377   7.870   9.286   5.291  0.2537  0.2490  0.1231
 7378W        W 7378   3.871   1.938   0.009 -0.0722  0.0920 -0.2476
 7379W        W 7379   8.072   3.095   5.366 -0.2889  0.1539  0.1298
 7380W        W 7380   3.395   1.495   9.767 -0.1024  0.0274  0.0521
 7381W        W 7381   8.063   3.035   3.395 -0.0044 -0.0460 -0.0219
 7382W        W 7382   6.639   1.943   8.392  0.0706 -0.1207 -0.1233
 7383W        W 7383   3.893   3.271   4.246  0.1154  0.0102  0.0419
 7384W        W 7384   4.835   4.977   5.035 -0.0007  0.1229  0.1655
 7385W        W 7385   1.013   5.088   4.315 -0.4456 -0.1498 -0.0592
 7386W        W 7386   2.091   0.138   8.217  0.1325  0.0604  0.1576
 7387W        W 7387   6.704   1.444   5.360  0.0060  0.0687 -0.0327
 7388W        W 7388   8.550   8.061   0.590  0.2765  0.1414 -0.2124
 7389W        W 7389   5.402   0.592   4.573  0.0380 -0.0078  0.0360
 7390W        W 7390   9.704   9.570   3.387  0.1238 -0.1645 -0.0305
 7391W        W 7391   0.692   7.411   0.327 -0.1311  0.5012 -0.1863
 7392W        W 7392   4.242   1.553   3.240  0.0859 -0.1355  0.0286
 7393W        W 7393   2.359   3.212   0.034 -0.0187 -0.1736  0.5104
 7394W        W 7394   1.709   8.675  10.020 -0.1220 -0.1921  0.0899
 7395W        W 7395   8.638   2.913   7.850  0.1572  0.0395 -0.2392
 7396W        W 7396   6.056   5.439   6.163  0.0143 -0.0801 -0.0252
 7397W        W 7397   7.108   5.983   2.585  0.0967 -0.1752 -0.1686
 7398W        W 7398   8.674   1.626   4.927 -0.0952 -0.1312 -0.1610
 7399W        W 7399  10.201   0.211   8.951 -0.3116  0.3177  0.2955
 7400W        W 7400   4.874   9.485   9.539 -0.2198 -0.5279 -0.1754
 7401W        W 7401   0.627   1.647   6.168  0.1962  0.3225 -0.3148
 7402W        W 7402   8.014   5.368   4.438  0.2957  0.4313 -0.1438
 7403W        W 7403   6.537   4.364   8.559  0.1592 -0.1189  0.1350
 7404W        W 7404   6.500   5.971   7.647 -0.0193  0.0308 -0.1555
 7405W        W 7405   2.700   1.757   4.309  0.2634 -0.1981  0.0524
 7406W        W 7406   1.808   9.325   2.836  0.2100  0.3831 -0.0267
 7407W        W 7407   1.663   6.394   5.351 -0.2758  0.0062  0.2170
 7408W        W 7408   7.506   5.172   9.288 -0.0110  0.0753  0.0341
 7409W        W 7409  10.269   0.088   4.130 -0.1530 -0.2361  0.0833
 7410W        W 7410   3.885   2.216   7.996 -0.0040  0.0293 -0.0066
 7411W        W 7411   3.892   4.394   7.282  0.0577 -0.2252  0.0407
 7412W        W 7412   4.429   4.309   7.710 -0.0854  0.0948  0.5298
 7413W        W 7413   1.962   9.105   5.079  0.0973  0.0203 -0.2597
 7414W        W 7414   8.071   6.056   8.977  0.2314 -0.0843 -0.0430
 7415W        W 7415   8.177   9.514   1.440  0.1092  0.2366  0.2516
 7416W        W 7416   4.575   8.081   3.045  0.0613  0.0340 -0.1296
 7417W        W 7417   8.886   5.884   0.166  0.0719 -0.1108  0.2017
 7418W        W 7418   7.152   5.272   5.616  0.1117  0.0243  0.1163
 7419W        W 7419   9.389  10.159   3.263  0.1602  0.0675 -0.1743
 7420W        W 7420   2.846   1.016   5.642 -0.4464  0.1038 -0.1739
 7421W        W 7421   3.431   7.061   3.478 -0.0315 -0.0697 -0.2465
 7422W        W 7422   8.065   6.423   5.414  0.1364  0.0625 -0.0402
 7423W        W 7423   0.680   8.298   5.865  0.2063  0.0538  0.2040
 7424W        W 7424   7.249   1.178   0.339  0.3111  0.2912  0.0530
 7425W        W 7425   9.630   8.716   9.092  0.0120  0.0408 -0.0396
 7426W        W 7426   3.500   1.200   2.041  0.2310  0.3207  0.0487
 7427W        W 7427   1.043   8.257   7.192  0.2207 -0.0134  0.1329
 7428W        W 7428   1.864   5.704   5.775  0.1958 -0.2698 -0.2095
 7429W        W 7429   6.672   9.611   5.515  0.1836  0.1366 -0.0454
 7430W        W 7430   8.867   0.437   2.828  0.2054 -0.2299  0.2574
 7431W        W 7431   7.238   8.684   6.644 -0.1731  0.1163  0.2357
 7432W        W 7432   8.944   9.375   6.214  0.0622  0.1891  0.1233
 7433W        W 7433   8.492   0.340   3.839 -0.2409 -0.1641 -0.0885
 7434W        W 7434   0.268   2.142   5.385 -0.0061 -0.1294 -0.0050
 7435W        W 7435   8.190   1.510   5.501 -0.1784 -0.4657 -0.0298
 7436W        W 7436   1.924   8.244  10.144  0.1162 -0.0169 -0.0222
 7437W        W 7437   7.430   8.386   0.705 -0.0158 -0.3051  0.1898
 7438W        W 7438   8.745   1.029   2.536  0.1246 -0.0337  0.1251
 7439W        W 7439   9.671   9.726   7.997 -0.0604  0.0786 -0.0303
 7440W        W 7440   0.079   3.778   2.142 -0.0856  0.0852 -0.1993
 7441W        W 7441   6.085   0.726   9.547  0.0522  0.1094 -0.1317
 7442W        W 7442   7.163   3.188   6.957 -0.0522 -0.1025  0.1769
 7443W        W 7443   4.244   6.840   8.160 -0.1500 -0.0042  0.2476
 7444W        W 7444   2.531   7.249   7.773 -0.0409 -0.1427  0.1611
 7445W        W 7445   3.126   9.085   0.785 -0.0072  0.2985  0.3106
 7446W        W 7446   3.736   0.922   1.150  0.0528 -0.2092  0.0300
 7447W        W 7447   4.321   6.507   5.417 -0.0601 -0.1625 -0.0907
 7448W        W 7448   4.287   9.700   6.059 -0.0504 -0.0943 -0.0773
 7449W        W 7449  10.076   8.705   4.563  0.1752 -0.2931  0.1855
 7450W        W 7450   3.031   1.178   1.260 -0.1582  0.2476  0.1538
 7451W        W 7451   9.403   2.377   8.471 -0.1903 -0.1646  0.0530
 7452W        W 7452   1.061   4.358   8.376 -0.3710 -0.3014 -0.0261
 7453W        W 7453   5.889   0.643   0.518  0.0556 -0.0377  0.1426
 7454W        W 7454   1.941   8.761   1.112  0.1022  0.1623 -0.0984
 7455W        W 7455   3.603   4.898   5.242  0.1073  0.0449  0.0830
 7456W        W 7456   8.150   7.411   7.367 -0.0376  0.2350 -0.1061
 7457W        W 7457   7.192   6.206   9.358 -0.0639 -0.2054  0.0105
 7458W        W 7458   8.735   0.024   0.563  0.2458 -0.1142 -0.1807
 7459W        W 7459   7.701   7.525   4.020  0.0201  0.1035  0.4797
 7460W        W 7460  10.034   3.476   8.804 -0.0875  0.0279 -0.2646
 7461W        W 7461   3.366   7.097   0.242 -0.1791 -0.3601 -0.4141
 7462W        W 7462   9.436   7.667   9.178  0.0036 -0.0285 -0.0374
 7463W        W 7463   9.545   1.578   7.905  0.0823  0.1401  0.0246
 7464W        W 7464   5.530   6.410   6.942  0.0585  0.0378 -0.0919
 7465W        W 7465   7.334   4.844   8.340  0.1875  0.0020  0.0097
 7466W        W 7466   9.136   8.155   5.897  0.0116 -0.1818  0.0388
 7467W        W 7467   2.546   9.005   6.509  0.2669 -0.0675  0.1228
 7468W        W 7468   7.391   7.212   9.255  0.1587 -0.2556 -0.0415
 7469W        W 7469   9.354   0.653   8.923  0.0309 -0.1749  0.1087
 7470W        W 7470   8.244   0.795   1.820  0.1446 -0.0146 -0.1662
 7471W        W 7471   7.083   4.815   9.985  0.0904 -0.1235  0.0806
 7472W        W 7472   7.702   5.738   1.203  0.0939 -0.2729 -0.1830
 7473W        W 7473   9.140   1.060   8.732 -0.1847 -0.0857  0.3831
 7474W        W 7474   2.901   0.045   1.221  0.0628 -0.3760  0.2030
 7475W        W 7475   1.600   2.825   4.114 -0.1831 -0.1367  0.0438
 7476W        W 7476   0.337   9.421   7.587  0.0740 -0.0029 -0.0773
 7477W        W 7477   8.274   2.792   0.991 -0.3079  0.3194 -0.0429
 7478W        W 7478   1.711   6.172   5.805  0.1686  0.2135 -0.0588
 7479W        W 7479  10.250   3.627   3.444 -0.0479  0.0589 -0.0734
 7480W        W 7480   4.581   7.404   6.524 -0.1284  0.1463 -0.0989
 7481W        W 7481  10.203   6.936   5.466  0.3279 -0.0974 -0.2117
 7482W        W 7482   9.133   7.635   7.216  0.0947 -0.0276  0.0373
 7483W        W 7483   3.306   4.995   7.258 -0.0481 -0.0571 -0.0389
 7484W        W 7484   8.850   1.635   3.081  0.1672 -0.0442 -0.0773
 7485W        W 7485   8.312   2.402   0.543  0.0595  0.2261  0.0297
 7486W        W 7486   7.467   1.827   2.969 -0.3381 -0.1298 -0.0114
 7487W        W 7487   6.967   7.355   7.233 -0.3358 -0.0280 -0.0132
 7488W        W 7488  10.196   8.005   3.028  0.0324 -0.0127 -0.2324
 7489W        W 7489   3.579   3.122   5.487 -0.0735  0.0705  0.0575
 7490W        W 7490   8.154   7.630   1.569  0.1224 -0.2361 -0.2036
 7491W        W 7491   2.888   9.480   6.334 -0.0392 -0.2141 -0.0277
 7492W        W 7492   3.217   0.930   6.032 -0.0644  0.1081  0.1066
 7493W        W 7493   2.265   2.375   1.306 -0.1089  0.0058 -0.2440
 7494W        W 7494   1.158   6.277   3.463  0.1432 -0.5322  0.0408
 7495W        W 7495   7.688   1.058   7.047  0.0407  0.0146  0.0841
 7496W        W 7496   4.254   5.807   1.225  0.1693 -0.2252 -0.0040
 7497W        W 7497   3.961   7.745   3.654 -0.2318  0.0240 -0.3227
 7498W        W 7498   1.638   4.277   2.589  0.2277 -0.2318  0.0004
 7499W        W 7499   1.154   0.514   1.479  0.0594  0.0779  0.0424
 7500W        W 7500   4.292   4.752   9.374  0.1204  0.0115  0.0098
 7501W        W 7501   5.344   3.669   8.107  0.2909  0.3059 -0.0794
 7502W        W 7502   2.039   2.882   6.247  0.1526  0.0260  0.3403
 7503W        W 7503   9.265   8.330   2.897 -0.0947 -0.1118  0.0540
 7504W        W 7504   9.738   1.900   1.383 -0.1677 -0.2097 -0.0947
 7505W        W 7505   8.450   5.177   0.545  0.1478  0.0857 -0.2535
 7506W        W 7506  10.301   1.304   1.212 -0.3868  0.3232  0.0742
 7507W        W 7507   0.385   7.858   7.910  0.0362 -0.0766 -0.1794
 7508W        W 7508   5.367   9.442   6.143  0.0934 -0.0125  0.0291
 7509W        W 7509   8.795   5.584   2.358 -0.3973 -0.2258  0.1488
 7510W        W 7510   6.635   5.065   5.701 -0.3181  0.1430  0.0275
 7511W        W 7511   4.610   6.527   0.349 -0.0967 -0.3084  0.0144
 7512W        W 7512   5.189   1.787   6.638 -0.1285 -0.2470  0.0666
 7513W        W 7513   1.743   7.761   9.981 -0.4813  0.0151 -0.3978
 7514W        W 7514   4.145   8.828   7.685 -0.0895  0.1600  0.1767
 7515W        W 7515   9.115   4.824   9.183  0.1476  0.1873  0.0560
 7516W        W 7516   3.706   0.661   3.716  0.1620 -0.3351  0.3599
 7517W        W 7517   7.414   5.055   4.875  0.0251  0.1196  0.2300
 7518W        W 7518   4.783   3.352   5.121 -0.0918 -0.0657  0.4695
 7519W        W 7519   9.547   3.050   0.597  0.0923  0.0254  0.0590
 7520W        W 7520   8.769   5.371   7.332  0.1757 -0.2525 -0.0972
 7521W        W 7521   3.100   3.594   3.370 -0.1570 -0.0623 -0.0424
 7522W        W 7522   7.798   3.243   1.417  0.2268  0.1380  0.0022
 7523W        W 7523   1.176   3.039   9.761  0.1755 -0.2324  0.1195
 7524W        W 7524   2.664   5.668   0.947 -0.0693  0.1433  0.0042
 7525W        W 7525   6.920   4.875   1.782  0.2288  0.0183 -0.4998
 7526W        W 7526   0.527   1.026   7.922 -0.2317 -0.0130  0.0372
 7527W        W 7527   9.735   8.889   8.227  0.0210 -0.4061 -0.0467
 7528W        W 7528   0.680   4.852   7.238 -0.2264 -0.1130 -0.0026
 7529W        W 7529   1.262   0.904   9.284  0.0060 -0.0641 -0.2401
 7530W        W 7530   4.495   4.930   4.309 -0.2045 -0.0793 -0.2521
 7531W        W 7531   0.100   0.698   1.307 -0.1404 -0.3059 -0.1451
 7532W        W 7532   3.420   5.706   5.702 -0.1153  0.1464  0.3182
 7533W        W 7533   3.883   9.432  10.278  0.0594 -0.0017  0.0325
 7534W        W 7534   8.044   3.045   7.443 -0.2174 -0.2810  0.1898
 7535W        W 7535   7.294   8.533   1.757 -0.6858  0.1340  0.1711
 7536W        W 7536   3.087   8.886   5.824  0.0659 -0.0998  0.2147
 7537W        W 7537   4.065   9.154   2.774 -0.0211  0.0198  0.1441
 7538W        W 7538   7.171   6.782   3.499 -0.5094 -0.0428 -0.1761
 7539W        W 7539   8.981   8.144   1.647  0.2426 -0.1209  0.1951
 7540W        W 7540   3.665   4.216   2.872  0.2130 -0.3703 -0.0577
 7541W        W 7541   9.936   1.148   5.285 -0.1225 -0.1113  0.0840
 7542W        W 7542   7.282   2.734   8.852 -0.1883 -0.0422 -0.0154
 7543W        W 7543   3.018   5.342   4.934 -0.0997  0.1010 -0.3834
 7544W        W 7544   6.349   3.441   6.928  0.0664  0.3138  0.0862
 7545W        W 7545   3.967   6.487   8.464  0.0436  0.3815 -0.2092
 7546W        W 7546   3.592   6.264   4.769  0.0019  0.0140 -0.0649
 7547W        W 7547   9.428   5.560   5.961  0.4280 -0.0658 -0.1368
 7548W        W 7548   6.334   2.713   4.100 -0.2107 -0.2411  0.4123
 7549W        W 7549   2.669   7.209   2.897  0.2480  0.4366 -0.2818
 7550W        W 7550   8.699   8.898   0.338  0.3176 -0.1941 -0.3660
 7551W        W 7551   5.177   5.152   0.482  0.0983 -0.1043 -0.1407
 7552W        W 7552   9.886   7.438   2.315  0.3414 -0.5237  0.0079
 7553W        W 7553   3.724   5.870   6.272  0.1636 -0.1340  0.1222
 7554W        W 7554   0.327   5.292   6.113 -0.0698 -0.4628 -0.3275
 7555W        W 7555   5.265   5.913   6.429 -0.1733 -0.0164  0.1210
 7556W        W 7556   9.336   3.026   8.579  0.4367 -0.0700 -0.1973
 7557W        W 7557   1.233   6.576  10.306  0.1069 -0.1078 -0.0032
 7558W        W 7558   2.713   7.229   4.807 -0.1797 -0.0913  0.0305
 7559W        W 7559   9.481   3.067   7.208 -0.2274  0.2184 -0.2139
 7560W        W 7560   5.808   0.413   6.801 -0.1180  0.0889 -0.1403
 7561W        W 7561   8.350   9.398   5.397 -0.0977 -0.1905 -0.0054
 7562W        W 7562   9.495   7.899   2.548  0.2258 -0.3653  0.0594
 7563W        W 7563   2.096   8.526   2.959 -0.3020  0.0706 -0.0564
 7564W        W 7564   0.715   5.917   4.155  0.0526 -0.0225  0.1101
 7565W        W 7565   9.572  10.296   1.482 -0.2943 -0.2644 -0.2256
 7566W        W 7566   6.091   3.488   3.434  0.0902 -0.1444  0.0348
 7567W        W 7567   7.910   9.173   2.675 -0.1555 -0.1876  0.0827
 7568W        W 7568   1.122   3.959   0.657 -0.1754 -0.1318  0.0003
 7569W        W 7569   3.598   1.228   5.779  0.1541  0.4200 -0.0178
 7570W        W 7570   6.367   9.520   4.294 -0.1047 -0.0676 -0.1036
 7571W        W 7571   5.694   0.895   6.473  0.0812  0.0543  0.1780
 7572W        W 7572   7.174   0.887   8.566  0.0663 -0.0282  0.0972
 7573W        W 7573   4.828   2.197   2.582  0.2605  0.1575  0.0256
 7574W        W 7574   8.729   0.265   5.644 -0.1255  0.1210  0.0532
 7575W        W 7575   8.381   2.403   0.031  0.2656  0.0082 -0.0793
 7576W        W 7576   4.557   9.161   8.509 -0.1729  0.1686 -0.1801
 7577W        W 7577   9.663   1.447   5.963  0.0369  0.1337 -0.2173
 7578W        W 7578   6.950   4.708   7.860  0.0653  0.3447 -0.2336
 7579W        W 7579   3.656   3.815   3.212 -0.0769  0.3288 -0.0817
 7580W        W 7580   8.309   8.611   8.789  0.0787  0.0320 -0.0198
 7581W        W 7581   2.327   5.510   4.225 -0.1450 -0.0876 -0.1054
 7582W        W 7582   5.833   5.965   6.878  0.0783  0.1297 -0.1015
 7583W        W 7583   0.676   5.167   4.796  0.1494  0.0871 -0.5205
 7584W        W 7584   8.959   9.028   1.905 -0.0983  0.3059  0.0891
 7585W        W 7585   3.098   8.463   2.536  0.5213 -0.0539  0.3798
 7586W        W 7586   2.222   5.676   3.672 -0.2471 -0.1779  0.1076
 7587W        W 7587   7.179   3.085   9.872  0.1631 -0.1190 -0.2377
 7588W        W 7588   2.870   2.954   5.204 -0.1366  0.4464 -0.1418
 7589W        W 7589   8.837   8.570   2.575 -0.2443 -0.1038  0.0371
 7590W        W 7590   5.477   3.699   8.790 -0.1259  0.1207 -0.0955
 7591W        W 7591   3.177   6.933   1.186  0.2835 -0.1320  0.2188
 7592W        W 7592   6.746   3.735   7.661  0.0364 -0.2951 -0.2822
 7593W        W 7593   1.734   4.826   7.742 -0.1085 -0.0055  0.1189
 7594W        W 7594   5.099   2.313   1.367 -0.2300 -0.0144  0.0596
 7595W        W 7595   8.567   0.969   6.652 -0.0740  0.0483 -0.0701
 7596W        W 7596   8.580   6.570   0.809  0.2541 -0.1659  0.1701
 7597W        W 7597   3.594   0.886   6.508  0.2528  0.0740 -0.1768
 7598W        W 7598   4.601   2.099   1.403 -0.1441  0.0672  0.3122
 7599W        W 7599   8.113   7.513   4.419 -0.2104  0.0883 -0.1185
 7600W        W 7600   4.351   7.235   7.742 -0.1958 -0.2048 -0.1488
 7601W        W 7601   1.934   9.711  10.266 -0.3075 -0.3845 -0.1954
 7602W        W 7602   8.920   7.732   1.943 -0.1732 -0.1382 -0.4146
 7603W        W 7603   3.328   3.124   9.173 -0.1851 -0.0737  0.0380
 7604W        W 7604   8.267   5.847   8.566  0.2721  0.1554 -0.1594
 7605W        W 7605   5.885   5.595   2.593  0.0832  0.0173 -0.2406
 7606W        W 7606   4.270   3.148   8.750  0.1060 -0.2528 -0.1489
 7607W        W 7607   5.092   2.744   9.037 -0.2747 -0.0895 -0.0557
 7608W        W 7608   5.835   8.285   1.836  0.0782 -0.2689 -0.0910
 7609W        W 7609   1.647   1.291   0.779  0.3151  0.3995 -0.0838
 7610W        W 7610  10.117   2.025   5.154 -0.0672 -0.2167 -0.0908
 7611W        W 7611   5.811   7.635   8.305  0.0347  0.0952 -0.1505
 7612W        W 7612   3.947   1.607   5.668 -0.2261 -0.1215 -0.2413
 7613W        W 7613   1.278  10.193   9.111  0.3142 -0.1122 -0.2919
 7614W        W 7614   0.197   3.082   6.281 -0.1490  0.0509  0.0588
 7615W        W 7615   2.706   4.540   3.899 -0.2444  0.2396 -0.1289
 7616W        W 7616   7.468   9.080   9.937 -0.2306  0.2745 -0.0418
 7617W        W 7617   1.779   4.148   8.976  0.1323 -0.0629  0.0637
 7618W        W 7618  10.204   5.119   3.572 -0.2496 -0.1524  0.3001
 7619W        W 7619   9.729   2.514  10.196 -0.2481 -0.0542 -0.0477
 7620W        W 7620   2.522   8.396   2.729  0.4936 -0.1545 -0.2789
 7621W        W 7621   8.691   2.945   4.554  0.2255  0.1070 -0.0612
 7622W        W 7622   5.935   1.676   8.819 -0.1145  0.1456  0.0847
 7623W        W 7623   6.096   7.313   6.146  0.0762  0.1045  0.2232
 7624W        W 7624   6.255   2.321   4.353 -0.1218  0.0693  0.0997
 7625W        W 7625   4.406   0.809   0.669 -0.0307  0.0058  0.1678
 7626W        W 7626   3.025   1.837   5.095  0.0086 -0.3733  0.1134
 7627W        W 7627   2.840   9.755   4.647  0.1410 -0.2478  0.0890
 7628W        W 7628   2.301   7.902   0.543  0.2068  0.3425  0.0433
 7629W        W 7629   1.240   7.765   7.375 -0.0385 -0.0323  0.0156
 7630W        W 7630   4.471   4.935   6.986 -0.2233 -0.1175  0.2210
 7631W        W 7631   6.637   0.090   5.041  0.0873 -0.1005  0.1201
 7632W        W 7632   0.008   4.292   2.483  0.0432  0.1853 -0.0947
 7633W        W 7633   5.317   3.008   0.049 -0.2068 -0.1372  0.0186
 7634W        W 7634   9.328   2.530   7.291 -0.0746  0.1739  0.3022
 7635W        W 7635   9.887  10.058   4.741  0.0292 -0.2771  0.2522
 7636W        W 7636   1.865   6.664   8.998 -0.0732 -0.0612  0.2776
 7637W        W 7637   6.651   3.727   0.109  0.3063  0.2076 -0.0433
 7638W        W 7638   8.037   8.663   2.748 -0.0233  0.2651  0.0850
 7639W        W 7639   7.790   8.580   1.746 -0.2343  0.1643 -0.1700
 7640W        W 7640   9.335  10.162   9.723  0.2986 -0.1933 -0.1828
 7641W        W 7641   8.590   7.505   4.220 -0.1949  0.1124  0.5500
 7642W        W 7642   6.209   2.312   0.685  0.0388 -0.2647  0.0024
 7643W        W 7643   5.457   6.678   5.134 -0.0050 -0.2533 -0.0898
 7644W        W 7644   5.861   3.020   4.031 -0.0915 -0.1891  0.0279
 7645W        W 7645   8.188   9.146   0.965 -0.3203 -0.0009  0.3322
 7646W        W 7646   2.875   9.084   1.828  0.1176 -0.6042 -0.1659
 7647W        W 7647   9.844   9.865   8.457  0.1873 -0.1458 -0.2494
 7648W        W 7648   1.104   9.077   5.144 -0.3178 -0.2523 -0.1491
 7649W        W 7649   7.740   6.326   3.093 -0.3208 -0.1252 -0.0784
 7650W        W 7650   3.747   3.691   2.525  0.3138  0.1550 -0.1763
 7651W        W 7651   5.475   0.400   7.275  0.0048 -0.0616  0.1745
 7652W        W 7652   9.676   9.049   4.716  0.0718  0.2044  0.0345
 7653W        W 7653   2.776   9.558   5.236  0.0532  0.0542 -0.1305
 7654W        W 7654   8.719   8.121   4.519 -0.0014 -0.0355 -0.4553
 7655W        W 7655   2.752   0.103   1.725 -0.2754 -0.0699  0.1259
 7656W        W 7656   5.128  10.239   9.733  0.1078 -0.0328 -0.1740
 7657W        W 7657   3.163   3.069   3.186  0.1241  0.5522  0.1016
 7658W        W 7658   9.402   8.565   7.458  0.6123  0.2294  0.2037
 7659W        W 7659   4.648   2.902   3.131 -0.0843 -0.0235  0.0530
 7660W        W 7660   6.445   0.305   8.052  0.2041  0.1528 -0.0050
 7661W        W 7661   4.656   3.681   4.637  0.3504 -0.2456  0.0521
 7662W        W 7662   2.134  10.185  10.282  0.1944  0.1914  0.2944
 7663W        W 7663   9.773   0.118   2.881  0.1239 -0.1754  0.3548
 7664W        W 7664   4.542   4.310   5.039 -0.0627 -0.1135 -0.0755
 7665W        W 7665   0.307   7.228   0.761  0.0084  0.0494  0.0503
 7666W        W 7666   0.383   0.798   4.120 -0.2018 -0.2626  0.0325
 7667W        W 7667   6.855   3.339   9.191 -0.0503 -0.0174 -0.1185
 7668W        W 7668   4.928   2.553   9.569 -0.3577 -0.1574  0.1186
 7669W        W 7669   1.180   3.004   7.713  0.1851  0.1387 -0.2208
 7670W        W 7670   0.446   2.118   2.558  0.1336  0.1406  0.1392
 7671W        W 7671   7.620   6.572   5.208  0.0592  0.1764 -0.0963
 7672W        W 7672   0.356   6.534   7.372  0.4004  0.0366  0.0724
 7673W        W 7673   7.610   7.726  10.077 -0.2100  0.0264  0.1318
 7674W        W 7674   5.089   1.940   7.484  0.0013 -0.3107  0.0319
 7675W        W 7675   1.015   2.692   1.476 -0.2015  0.1690 -0.0932
 7676W        W 7676   0.557   2.173   6.282 -0.2682  0.0632 -0.1760
 7677W        W 7677   1.173   7.439   0.526  0.0954  0.3942  0.1411
 7678W        W 7678   9.716   7.729  10.140  0.0992  0.2192 -0.1633
 7679W        W 7679   6.573   5.049   7.351 -0.0103 -0.2249 -0.3194
 7680W        W 7680   9.419   9.351   8.206 -0.0600  0.0907 -0.0026
 7681W        W 7681   3.847   2.941   8.583  0.0413  0.0383 -0.1183
 7682W        W 7682   7.971   3.250   2.412 -0.0592 -0.0551 -0.1112
 7683W        W 7683   1.702   2.139   0.250  0.2557  0.0975 -0.2300
 7684W        W 7684   7.288   1.290   5.981 -0.2704  0.1083 -0.3109
 7685W        W 7685   3.496   6.596   3.739  0.0838 -0.1952  0.0653
 7686W        W 7686   3.955   6.997   6.802 -0.1295 -0.0262 -0.0726
 7687W        W 7687   0.936   3.190   6.617 -0.0712  0.1924 -0.0593
 7688W        W 7688   2.406   2.352   5.406  0.1928 -0.2273 -0.2646
 7689W        W 7689   5.549   5.731   8.992  0.1371 -0.3326 -0.1443
 7690W        W 7690   6.235   9.086   7.401 -0.0926  0.2068 -0.0333
 7691W        W 7691   1.281   9.321   3.995 -0.2084 -0.0776  0.0569
 7692W        W 7692   5.091   4.248   0.461 -0.2460 -0.0124 -0.1167
 7693W        W 7693   7.456  10.087   2.752  0.0666  0.0644 -0.1103
 7694W        W 7694   8.036   5.549   9.336 -0.1108  0.0653  0.4507
 7695W        W 7695   4.380   3.686   8.950 -0.0438 -0.1232 -0.0851
 7696W        W 7696   8.720   0.398   9.974 -0.2083  0.0008 -0.1552
 7697W        W 7697   6.113   6.693   4.296 -0.1247  0.1462 -0.0725
 7698W        W 7698   8.997   3.222   3.181  0.0788 -0.0730  0.0911
 7699W        W 7699   0.109   8.639   1.768  0.0339 -0.0874 -0.0038
 7700W        W 7700   8.030  10.143   9.690 -0.2238  0.0677 -0.4527
 7701W        W 7701   6.055   0.987   6.926  0.2265 -0.3018 -0.2219
 7702W        W 7702   1.790   0.935   2.963  0.2435 -0.1397 -0.1273
 7703W        W 7703   0.952   3.117   3.933 -0.1167  0.0131  0.3585
 7704W        W 7704   4.729   3.770  10.101  0.2440 -0.4694 -0.1521
 7705W        W 7705   8.764  10.236   4.662  0.0018  0.1011 -0.1854
 7706W        W 7706   1.520   0.701   8.609 -0.3633 -0.3268  0.2009
 7707W        W 7707   9.684   0.855   0.928  0.0515  0.0510 -0.3895
 7708W        W 7708   6.273   2.112   7.987 -0.1524  0.3031 -0.2319
 7709W        W 7709   7.486   2.596   5.592 -0.0970 -0.6085 -0.0336
 7710W        W 7710   7.483   4.205  10.305 -0.0761  0.1645 -0.2091
 7711W        W 7711   7.277   5.889   8.381 -0.1730 -0.0846 -0.4119
 7712W        W 7712   8.535   4.708  10.145  0.0810  0.3648 -0.1623
 7713W        W 7713   8.855   2.039   4.022 -0.0195 -0.0590  0.0469
 7714W        W 7714   2.460   0.367   4.195  0.0331  0.2022  0.1750
 7715W        W 7715   2.755   5.580   3.946  0.0370 -0.1636  0.0130
 7716W        W 7716   4.766   2.891   5.285 -0.0204 -0.0354  0.1586
 7717W        W 7717   0.045   3.910   9.627 -0.0468 -0.1097 -0.1474
 7718W        W 7718   9.306   0.177   6.069 -0.3271 -0.1334 -0.2707
 7719W        W 7719   0.629   3.365   4.279 -0.0823  0.1498  0.1296
 7720W        W 7720   6.091  10.018   2.850  0.0563  0.0885  0.1547
 7721W        W 7721   8.086   3.619   1.546 -0.1179  0.0800 -0.2728
 7722W        W 7722   7.356   0.347   1.651  0.1612 -0.1041 -0.2418
 7723W        W 7723   6.496   3.419   4.522 -0.0622 -0.0089  0.2744
 7724W        W 7724   3.048   9.701   8.276  0.0133  0.1846 -0.1409
 7725W        W 7725   8.713   1.962   7.772  0.1811 -0.0502 -0.2763
 7726W        W 7726  10.261   9.559   9.732  0.0420 -0.0323 -0.1586
 7727W        W 7727   7.066  10.076   6.297  0.0639  0.2467 -0.1684
 7728W        W 7728   5.248   2.032   8.562 -0.3168  0.1798 -0.2348
 7729W        W 7729   7.640  10.190   1.709 -0.0962  0.1335 -0.2149
 7730W        W 7730   7.690   8.683   5.967 -0.0171 -0.0981 -0.1165
 7731W        W 7731   1.939   2.497   7.148 -0.0903  0.0137  0.0229
 7732W        W 7732   5.407   9.349   0.116 -0.2369  0.1974 -0.1113
 7733W        W 7733   5.801   2.308   4.881  0.1127  0.1282 -0.1099
 7734W        W 7734   4.663   6.909   5.582  0.0770  0.0223 -0.0927
 7735W        W 7735   7.643   4.762   0.187 -0.0777 -0.1443  0.0838
 7736W        W 7736   4.754   1.691   5.810 -0.2184 -0.2113 -0.2303
 7737W        W 7737   7.085   8.836   3.000 -0.2570  0.2020 -0.0814
 7738W        W 7738   2.558   1.910   5.563 -0.2110  0.0567 -0.0557
 7739W        W 7739   8.392   1.058   5.675  0.1381 -0.1611  0.0512
 7740W        W 7740  10.004   4.274   4.376  0.1463 -0.2480 -0.2928
 7741W        W 7741   9.189   9.990   1.263  0.1494  0.0399 -0.3775
 7742W        W 7742   0.048   1.137   4.276  0.0088 -0.2402 -0.0064
 7743W        W 7743   1.156   2.357   8.632 -0.1555 -0.1365 -0.3372
 7744W        W 7744   8.673   2.741   1.362  0.0802  0.1301 -0.1587
 7745W        W 7745   1.073   2.839   4.922  0.4631  0.1801 -0.2193
 7746W        W 7746   0.160   3.326   7.268 -0.0431  0.0093  0.2381
 7747W        W 7747   5.875   3.406   6.065  0.0026 -0.1746 -0.0098
 7748W        W 7748   9.784   0.276   6.243  0.3420  0.0984 -0.3037
 7749W        W 7749   4.017   9.031   1.017  0.0965 -0.3540 -0.1285
 7750W        W 7750   0.703   1.359   6.739  0.2032 -0.1161 -0.2267
 7751W        W 7751   1.514   4.498   8.802 -0.1627  0.0279  0.0266
 7752W        W 7752   0.933   1.476   9.562 -0.2995  0.0972 -0.1031
 7753W        W 7753  10.064   7.190   8.461  0.1327  0.2953  0.2055
 7754W        W 7754   8.207   7.965   2.401 -0.0901  0.1629  0.0581
 7755W        W 7755   3.230   3.425   7.879  0.2075 -0.0480 -0.1389
 7756W        W 7756   5.617   5.671   8.510  0.1629  0.1373  0.4215
 7757W        W 7757   7.630   0.993   7.608  0.1900  0.2483  0.2159
 7758W        W 7758   2.237   4.847   5.121 -0.0704  0.1038 -0.0603
 7759W        W 7759   7.331   4.583   1.700  0.0928  0.0028  0.1802
 7760W        W 7760   1.604   2.660   8.814 -0.1751 -0.1052  0.0586
 7761W        W 7761   5.127   9.938   1.941 -0.0956  0.1995 -0.0516
 7762W        W 7762   0.049   9.172   4.562  0.3784 -0.0047  0.1638
 7763W        W 7763   0.265   5.444   4.816 -0.0888  0.2263  0.1759
 7764W        W 7764   4.000   6.952   5.298 -0.3010  0.4139  0.0374
 7765W        W 7765   2.882   9.140   5.481 -0.1137  0.0448 -0.1604
 7766W        W 7766   9.151   1.887   8.369  0.0859 -0.2423 -0.1305
 7767W        W 7767   0.178   5.107   7.357  0.1989  0.1618 -0.1014
 7768W        W 7768   2.574   8.293   0.666  0.3066  0.1069  0.1490
 7769W        W 7769   2.683   0.056   6.331 -0.1327 -0.1109 -0.0381
 7770W        W 7770   7.813   7.403   9.457  0.1008 -0.2861 -0.1034
 7771W        W 7771   0.803   4.850   5.180  0.3472  0.1856 -0.0362
 7772W        W 7772   0.092  10.230   9.211  0.0783  0.1499  0.1233
 7773W        W 7773   5.480   7.701   6.254  0.2313 -0.3134 -0.2707
 7774W        W 7774   9.790   6.257   8.402 -0.0609  0.2693 -0.3491
 7775W        W 7775   6.284   5.810   2.290  0.4574  0.2931  0.2923
 7776W        W 7776  10.076   4.596   7.879 -0.2289 -0.1472 -0.0067
 7777W        W 7777   4.242   3.516   3.471 -0.0365 -0.1235  0.0249
 7778W        W 7778  10.100   8.101   2.516 -0.2478  0.0222  0.1370
 7779W        W 7779   5.999   3.881   7.525  0.0253 -0.2728 -0.0719
 7780W        W 7780   0.348   1.845   3.489  0.2067 -0.1033 -0.0450
 7781W        W 7781   4.015   3.511   5.480 -0.1509  0.1274  0.3496
 7782W        W 7782   0.973   0.669   8.811 -0.2092 -0.1329 -0.2306
 7783W        W 7783   9.957   5.157   0.530 -0.1494 -0.0498 -0.2664
 7784W        W 7784   0.936   8.742   4.787  0.3991  0.1927  0.1493
 7785W        W 7785   7.033   0.745   7.802  0.1107  0.0444 -0.1375
 7786W        W 7786   4.228   0.960   6.552 -0.1788 -0.2208 -0.1708
 7787W        W 7787   3.915   7.873  10.216 -0.0171 -0.0187  0.3018
 7788W        W 7788  10.188   2.144  10.031  0.2707  0.1880 -0.2528
 7789W        W 7789   7.837   7.178   8.047  0.0060 -0.0714  0.1163
 7790W        W 7790   8.826   0.685   8.853 -0.4557  0.0572 -0.0763
 7791W        W 7791   9.595   3.326  10.199 -0.2003  0.4160 -0.0444
 7792W        W 7792   3.465   5.365   9.684  0.0222  0.0092  0.1116
 7793W        W 7793   9.529   4.915   3.701  0.0101 -0.1121 -0.1505
 7794W        W 7794   3.949   2.492   6.691  0.1015  0.1354 -0.1376
 7795W        W 7795   6.951   5.767   6.564  0.2091 -0.2500 -0.2029
 7796W        W 7796   4.524   8.815  10.059  0.0134  0.3157  0.3203
 7797W        W 7797   9.688   0.891   4.067 -0.1100 -0.2633 -0.2043
 7798W        W 7798   0.627   4.605   8.490 -0.1281 -0.0008  0.2086
 7799W        W 7799   6.333   5.305   3.116 -0.1135  0.0412 -0.2637
 7800W        W 7800   2.006   1.338   8.051  0.1333 -0.0502 -0.1131
 7801W        W 7801   6.707   1.603   1.029  0.4289  0.1662  0.4173
 7802W        W 7802   9.081   5.715   7.892  0.1514 -0.2270 -0.4110
 7803W        W 7803   9.380   9.606   7.590 -0.1254 -0.0578 -0.0956
 7804W        W 7804   0.396   1.823   6.686  0.1670 -0.0737  0.2802
 7805W        W 7805   9.768   3.166   1.511  0.0640  0.0728 -0.1181
 7806W        W 7806   1.212   6.305   7.003  0.1950 -0.0294  0.0462
 7807W        W 7807   9.665   3.429   6.920  0.0664 -0.0491  0.2404
 7808W        W 7808   9.684   2.822   8.007 -0.1957 -0.0184  0.0727
 7809W        W 7809   6.165   0.573   8.929  0.0967 -0.1030  0.0304
 7810W        W 7810   8.005   8.594   4.355 -0.1114  0.1245 -0.5171
 7811W        W 7811   1.727   0.729   9.316 -0.0076  0.0823  0.3012
 7812W        W 7812   3.226   2.755   5.523  0.0814 -0.2645 -0.1964
 7813W        W 7813   0.780   8.419   0.518 -0.1483 -0.2481  0.0211
 7814W        W 7814   8.021   6.215   4.918  0.3339 -0.2279 -0.0620
 7815W        W 7815   7.576   3.577   5.813 -0.3357  0.0033 -0.2372
 7816W        W 7816   8.987   1.695   5.658 -0.1460 -0.0699 -0.0041
 7817W        W 7817   2.470   8.141   9.268  0.1431  0.2309 -0.0139
 7818W        W 7818   0.783   8.391   4.481 -0.3502  0.1303  0.0645
 7819W        W 7819   1.936   8.576   4.348 -0.0360  0.0379  0.0251
 7820W        W 7820   0.734   7.661   6.626  0.0879 -0.0932  0.3365
 7821W        W 7821   7.891   2.623   8.183  0.0103 -0.3563 -0.2821
 7822W        W 7822   4.859   4.660   5.852  0.1586  0.1597  0.0267
 7823W        W 7823   2.943   7.025   9.929 -0.0436 -0.0762 -0.1381
 7824W        W 7824   3.925   1.220   6.907  0.1536 -0.1006  0.1436
 7825W        W 7825   5.444   6.320  10.064 -0.0489  0.1288 -0.3415
 7826W        W 7826   2.482   5.353   6.516 -0.0078  0.2186  0.1577
 7827W        W 7827   3.855   5.058   9.349 -0.2033 -0.1792 -0.0051
 7828W        W 7828   5.374   3.268   8.460  0.1874 -0.0361  0.0932
 7829W        W 7829   3.771   8.727   1.785 -0.1747  0.0183 -0.1626
 7830W        W 7830   9.999   3.789   0.648 -0.0838  0.1404  0.0900
 7831W        W 7831   8.358   5.787   7.225 -0.0780 -0.0235  0.1931
 7832W        W 7832   2.514   2.130   6.325  0.1288 -0.0704  0.2990
 7833W        W 7833   4.437   5.372   3.908  0.3630 -0.2866 -0.0729
 7834W        W 7834   0.226   3.029   6.849  0.3608 -0.2035 -0.0207
 7835W        W 7835   3.828   7.158   7.250 -0.0006 -0.2309 -0.1988
 7836W        W 7836   8.496   6.536   7.945 -0.1697  0.0240 -0.1383
 7837W        W 7837   5.333   7.482   2.057 -0.2736 -0.0021 -0.1162
 7838W        W 7838   1.917   3.245   6.497 -0.1133 -0.0150 -0.0599
 7839W        W 7839   2.510   3.777   8.401 -0.1976  0.1277  0.0999
 7840W        W 7840   4.042   3.963   9.562  0.3176  0.2784 -0.1243
 7841W        W 7841   6.308   2.614   7.702 -0.0282 -0.4041 -0.0915
 7842W        W 7842   5.181   1.500   0.612  0.3328 -0.2805  0.1330
 7843W        W 7843   5.895   5.818   3.526  0.2738  0.0913  0.0551
 7844W        W 7844   1.722   3.355   5.986  0.0856  0.0758 -0.0847
 7845W        W 7845   6.281   8.276   5.888  0.0430  0.2692  0.0560
 7846W        W 7846  10.046   6.138   6.382  0.2650 -0.1872 -0.1511
 7847W        W 7847   8.923   7.209   2.049  0.1721 -0.1483  0.0690
 7848W        W 7848   7.293   3.233   4.916 -0.1180 -0.1699 -0.0389
 7849W        W 7849   2.093  10.002   4.849  0.4380 -0.2035 -0.2496
 7850W        W 7850   1.210   8.821   5.890 -0.1594 -0.1630  0.0786
 7851W        W 7851   8.926   3.221   5.511  0.1512  0.1220 -0.0712
 7852W        W 7852   3.338   4.134   3.272  0.0466 -0.1966 -0.0990
 7853W        W 7853   2.912   8.880   3.435 -0.1994 -0.2557 -0.0136
 7854W        W 7854   4.746   6.490   1.633  0.2774  0.0632 -0.2682
 7855W        W 7855   3.687   4.835   7.496 -0.1173 -0.0921  0.0776
 7856W        W 7856   2.261   7.753   4.076  0.1724 -0.2310  0.1757
 7857W        W 7857   6.620   8.575   1.364  0.0867 -0.4344  0.0580
 7858W        W 7858   2.369   0.729   9.914 -0.0698 -0.1324 -0.1002
 7859W        W 7859   5.451   7.564   3.348  0.0518 -0.1781 -0.0288
 7860W        W 7860   6.071   2.115  10.026  0.4856  0.0029 -0.0786
 7861W        W 7861   0.178   8.110   1.819 -0.1738 -0.1833 -0.1342
 7862W        W 7862  10.290   1.570   3.611  0.0962  0.1095  0.0572
 7863W        W 7863   8.442   3.682   1.169 -0.3183 -0.3207 -0.0340
 7864W        W 7864   5.080   7.816   4.278 -0.1636  0.1014  0.1146
 7865W        W 7865   7.526   0.694   0.130 -0.2036 -0.2251  0.1748
 7866W        W 7866   1.127   5.040   2.470  0.0942  0.1866  0.1233
 7867W        W 7867   3.423   1.497   6.167  0.3052  0.0545 -0.0777
 7868W        W 7868   2.953   3.209   9.519  0.1652  0.1517 -0.1085
 7869W        W 7869  10.196   6.465   3.316  0.0403 -0.0036 -0.1731
 7870W        W 7870   1.061   9.123   2.033 -0.1665  0.0978 -0.0255
 7871W        W 7871   9.178   2.083   5.226  0.1185  0.0479 -0.0555
 7872W        W 7872   5.278   3.505   3.013 -0.1519  0.0596 -0.1381
 7873W        W 7873   1.031   9.571   1.707 -0.0803  0.0143 -0.1562
 7874W        W 7874   9.104   9.576   4.729 -0.2293  0.2169  0.0128
 7875W        W 7875   7.192   7.898   7.276  0.1574 -0.0587  0.2152
 7876W        W 7876   8.226   6.696   1.829  0.1273  0.1838 -0.0225
 7877W        W 7877   0.993   5.946   2.041  0.0445  0.1666 -0.1773
 7878W        W 7878   3.166   7.175   5.018 -0.0451  0.0565  0.2536
 7879W        W 7879   4.384   9.330   7.736 -0.1710 -0.0662  0.0086
 7880W        W 7880   6.801   0.975   4.735  0.1691  0.0961  0.1955
 7881W        W 7881   4.516   6.619   9.115  0.1209  0.1299  0.2881
 7882W        W 7882   1.268   3.996   2.908 -0.0715 -0.2596 -0.0636
 7883W        W 7883   9.963   1.905   4.620  0.1901  0.1252 -0.0889
 7884W        W 7884   3.844  10.261   6.769  0.1727 -0.2428 -0.0832
 7885W        W 7885   3.112   5.517   0.727 -0.1360  0.0397 -0.4197
 7886W        W 7886   2.823   7.917   4.060 -0.0208 -0.1136 -0.0639
 7887W        W 7887   1.135   1.125   8.703 -0.0146  0.2549  0.4102
 7888W        W 7888   1.378   1.149   9.990  0.0996 -0.0360 -0.3106
 7889W        W 7889   6.706   7.855   6.116 -0.0652 -0.1885  0.1030
 7890W        W 7890   5.581   2.232   5.380  0.2461  0.1636 -0.1187
 7891W        W 7891   8.076   4.440   0.436  0.4267  0.1997 -0.0942
 7892W        W 7892   6.602   8.502   7.766  0.0309 -0.4241  0.1026
 7893W        W 7893   5.414   1.786   1.034 -0.2862  0.1683 -0.1045
 7894W        W 7894   2.074   3.884   1.887 -0.4384 -0.0646  0.2011
 7895W        W 7895  10.157   9.205   1.141 -0.1130 -0.1808  0.0931
 7896W        W 7896   6.140   8.493   2.797 -0.2029  0.1694  0.1408
 7897W        W 7897  10.243   0.038   3.188  0.0611 -0.2917 -0.2525
 7898W        W 7898   1.269   4.238   7.174  0.0315  0.0227 -0.4140
 7899W        W 7899   7.269   7.114   0.338  0.0334  0.3246  0.0333
 7900W        W 7900   0.355   0.041   0.481 -0.1862  0.0641  0.0151
 7901W        W 7901   3.787   2.572   5.322 -0.0817 -0.0411  0.1941
 7902W        W 7902   2.040   8.775   8.558  0.0763  0.0156 -0.0085
 7903W        W 7903   0.967   6.969   4.217 -0.2133 -0.2674  0.0338
 7904W        W 7904   8.820   9.233   3.559 -0.2910 -0.0135 -0.1314
 7905W        W 7905   9.053   5.123  10.057 -0.0091 -0.2122  0.0074
 7906W        W 7906   3.294   9.520   7.872  0.2196 -0.4101 -0.2066
 7907W        W 7907   4.919   5.052   7.165 -0.0029 -0.5052  0.0764
 7908W        W 7908   2.650   2.073   9.262 -0.3450  0.4317  0.4938
 7909W        W 7909   1.679   5.700   9.576  0.1162 -0.0415  0.2785
 7910W        W 7910  10.225   8.871   6.827 -0.2071 -0.0228  0.1208
 7911W        W 7911   7.631   2.483   0.724  0.0349  0.1980  0.1664
 7912W        W 7912   7.944   1.704   2.761 -0.3154  0.2438 -0.0530
 7913W        W 7913   0.721   3.168  10.152 -0.0312  0.3637 -0.1867
 7914W        W 7914   2.597   7.880   7.768 -0.0726  0.1647  0.3230
 7915W        W 7915   7.068  10.313   7.508  0.0827 -0.2389 -0.0765
 7916W        W 7916   9.047   5.406   1.043  0.0166  0.0638 -0.1612
 7917W        W 7917   5.349   6.283   1.362 -0.3668 -0.0463  0.0396
 7918W        W 7918   0.009   1.177   1.750  0.0512  0.1252 -0.0380
 7919W        W 7919   9.524   7.144   7.194 -0.1280  0.0571  0.1738
 7920W        W 7920   7.695   4.275   9.414  0.1892  0.0153  0.2092
 7921W        W 7921   2.359   4.134   6.451  0.1860 -0.0840 -0.0167
 7922W        W 7922   4.838   8.854   0.556  0.1493 -0.0290  0.4265
 7923W        W 7923   6.787   2.565   4.298  0.0735  0.2121  0.1649
 7924W        W 7924   5.561   3.459   5.628  0.3664  0.0250  0.1874
 7925W        W 7925   7.841   5.610   2.535 -0.2189  0.1677  0.2246
 7926W        W 7926   7.714   7.885   4.636 -0.1822 -0.0059 -0.3774
 7927W        W 7927   7.545   2.897  10.146  0.2489 -0.2082 -0.3574
 7928W        W 7928   0.547   7.420   2.741  0.0648 -0.3908 -0.0856
 7929W        W 7929   7.468   7.553   8.118 -0.5273 -0.4070  0.2170
 7930W        W 7930   2.662   3.648   0.121  0.0060 -0.0225  0.0459
 7931W        W 7931   8.780   5.436   8.158 -0.0087 -0.0244  0.0367
 7932W        W 7932  10.096   0.021   6.612  0.0010  0.0452  0.1768
 7933W        W 7933   7.570   5.445   0.231 -0.0540 -0.1679 -0.1674
 7934W        W 7934   3.942   8.667   2.570  0.3013 -0.5534 -0.2007
 7935W        W 7935   8.425   2.602   6.373 -0.1725 -0.0988 -0.1457
 7936W        W 7936   0.474   4.516   5.259 -0.0004  0.1159  0.0495
 7937W        W 7937   3.589   8.776   7.256  0.1788 -0.3990  0.1933
 7938W        W 7938   5.969   7.904   4.809 -0.0273 -0.0419  0.0493
 7939W        W 7939   4.927   8.732   9.062 -0.1744  0.1988 -0.1569
 7940W        W 7940   5.748   0.341   0.983  0.1258 -0.1088  0.0693
 7941W        W 7941   5.166   2.435   7.691 -0.0001  0.0166 -0.0303
 7942W        W 7942  10.211   2.827   5.999 -0.1065 -0.0435  0.0727
 7943W        W 7943   0.592   7.758   1.445  0.1689 -0.0988  0.2264
 7944W        W 7944   2.614   5.024   9.900  0.0640  0.1475 -0.2593
 7945W        W 7945   6.853   5.432   2.612 -0.1876 -0.3355 -0.1940
 7946W        W 7946   4.776   2.039   6.200  0.1175 -0.0289 -0.0128
 7947W        W 7947   1.236   5.620   5.324  0.1027 -0.1051  0.1398
 7948W        W 7948   4.943   8.431   7.407 -0.1953 -0.2812 -0.3445
 7949W        W 7949   8.810   3.895   4.192 -0.3847  0.1773  0.0004
 7950W        W 7950   4.812   1.165  10.238 -0.1978 -0.1705 -0.3811
 7951W        W 7951   4.119   6.203   4.595 -0.3170 -0.0558 -0.2302
 7952W        W 7952   0.406   0.919   6.551  0.2176 -0.1681 -0.2529
 7953W        W 7953   5.319   0.916   1.958  0.3451 -0.2948 -0.2736
 7954W        W 7954   4.097   5.848   2.747  0.0412 -0.0134  0.1382
 7955W        W 7955   2.210   0.806   9.448 -0.0513  0.3466  0.0906
 7956W        W 7956   6.787   0.576   8.345 -0.1915 -0.0312 -0.1946
 7957W        W 7957   7.007   1.760   0.538 -0.0433 -0.1052  0.1184
 7958W        W 7958   1.565   8.447   0.859 -0.2695 -0.2650  0.1664
 7959W        W 7959   7.908   5.191   0.581  0.1764  0.0776 -0.1008
 7960W        W 7960   3.915   5.815   5.662 -0.1871 -0.3343 -0.0161
 7961W        W 7961   3.019   7.489   8.729  0.0277 -0.0469  0.0137
 7962W        W 7962   2.615   2.052   4.717  0.2528 -0.0191 -0.0638
 7963W        W 7963   7.912  10.170   6.546 -0.0213 -0.0784 -0.0279
 7964W        W 7964   9.245   5.752   5.049  0.0494  0.0677 -0.2387
 7965W        W 7965   0.568   8.771   2.498 -0.0148 -0.2740  0.3490
 7966W        W 7966   0.327   6.578   5.846  0.0681  0.1261  0.1896
 7967W        W 7967   4.323   3.240   1.698 -0.0802  0.0009  0.1465
 7968W        W 7968   1.910   6.298   1.960 -0.3451  0.0569 -0.1092
 7969W        W 7969   8.349   3.950   4.582 -0.1480 -0.0261  0.1790
 7970W        W 7970   0.841   0.457   8.031 -0.1540 -0.2182 -0.2695
 7971W        W 7971   6.448   7.478   4.022 -0.0385 -0.0770 -0.0217
 7972W        W 7972   4.151   8.457   8.061  0.0647 -0.2195  0.4023
 7973W        W 7973   8.757   8.342   3.015 -0.0124  0.2674  0.2278
 7974W        W 7974   7.735   1.951   4.781  0.0986 -0.1781 -0.1174
 7975W        W 7975   2.635   1.259   4.237  0.0969  0.0094  0.3275
 7976W        W 7976   3.022   0.533   7.835  0.2480  0.0102 -0.0084
 7977W        W 7977   9.293   4.709   6.459 -0.0469  0.6655 -0.2271
 7978W        W 7978   9.264   8.642   5.179 -0.1866 -0.0839 -0.0631
 7979W        W 7979   1.687   4.598   7.041 -0.0580 -0.0404 -0.0506
 7980W        W 7980   1.467   2.899   9.312 -0.1740 -0.0671  0.0555
 7981W        W 7981   3.171   2.247   7.548 -0.1317  0.1416  0.2421
 7982W        W 7982   5.988   2.796   5.687 -0.1420 -0.2873  0.1148
 7983W        W 7983   4.162   3.689   4.475  0.0497  0.2300  0.0987
 7984W        W 7984   4.387   3.833   7.875  0.1858  0.3590  0.0625
 7985W        W 7985   3.147   4.562   6.710  0.0222 -0.1421  0.0483
 7986W        W 7986   8.872   1.409   8.495  0.0170 -0.1883  0.1445
 7987W        W 7987   2.503   3.888   4.511  0.0091 -0.1508 -0.0073
 7988W        W 7988   9.516   0.409   0.799  0.0779 -0.1433  0.0571
 7989W        W 7989   6.995   4.212  10.298  0.1744  0.2881 -0.0436
 7990W        W 7990   0.589   5.904   5.447 -0.1931 -0.2081  0.2300
 7991W        W 7991   9.194   9.622   3.095 -0.1211  0.2595  0.3712
 7992W        W 7992  10.064   0.961   2.962  0.1388  0.1162 -0.0461
 7993W        W 7993   7.960   4.489   8.248  0.3165  0.2558  0.2474
 7994W        W 7994   1.462   6.832   5.178 -0.1264 -0.0760 -0.1463
 7995W        W 7995   5.168   1.567   4.295 -0.1710  0.2003  0.0317
 7996W        W 7996   1.117   8.162   2.214 -0.0492  0.2414  0.2694
 7997W        W 7997   0.225   0.834   2.596 -0.0811  0.0298  0.1814
 7998W        W 7998   6.799   2.981   8.848 -0.1834 -0.3498  0.1781
 7999W        W 7999   4.572   8.739   5.943 -0.2348 -0.0494  0.1832
 8000W        W 8000   9.093   4.693   5.957 -0.3130 -0.1845 -0.0709
 8001W        W 8001   6.535   1.083   8.509  0.0405  0.0051 -0.2683
 8002W        W 8002   4.554   7.041   1.564  0.2144 -0.1270  0.1078
 8003W        W 8003   4.133   5.076   2.134 -0.0869 -0.2368 -0.1898
 8004W        W 8004   9.529   9.179   7.427 -0.0814  0.1709 -0.2508
 8005W        W 8005   8.436   7.897   2.962 -0.2298  0.1683 -0.1688
 8006W        W 8006   3.524   7.569   6.340  0.1001  0.0255  0.0086
 8007W        W 8007   5.925   2.700   6.725  0.0573  0.3059 -0.0839
 8008W        W 8008   5.460   0.972   4.945 -0.3458  0.0625 -0.1758
 8009W        W 8009   4.408   2.188   2.802  0.1252  0.2388  0.0013
 8010W        W 8010   9.054   5.232   7.724 -0.1327 -0.1933  0.1840
 8011W        W 8011   3.705   7.829   2.456  0.2322  0.1095 -0.1845
 8012W        W 8012   3.357   8.508   4.652  0.0740 -0.3184 -0.3664
 8013W        W 8013   5.763   1.494   2.638  0.1703  0.1413 -0.0670
 8014W        W 8014   3.649   5.170   2.327 -0.2365  0.4024  0.0204
 8015W        W 8015   3.638   5.615   2.518  0.2780 -0.1748  0.2624
 8016W        W 8016   6.371   2.343   2.770  0.0615  0.0125 -0.2649
 8017W        W 8017   3.838   1.524  10.067 -0.0935 -0.1319 -0.0857
 8018W        W 8018   3.657   4.165   5.935 -0.1354  0.0722  0.1475
 8019W        W 8019   4.283   7.949   4.254  0.2729  0.1999  0.1039
 8020W        W 8020   9.713   7.754   0.835 -0.2331  0.0874  0.3227
 8021W        W 8021   2.437   9.514   0.768 -0.1801 -0.1277  0.0835
 8022W        W 8022   9.205   0.028   4.484  0.0885  0.3015 -0.0930
 8023W        W 8023   6.261  10.285   0.061 -0.2510  0.1877  0.2951
 8024W        W 8024   0.423   5.193   7.973 -0.2431  0.7382  0.0772
 8025W        W 8025   9.674   7.218   8.952 -0.0492  0.0379  0.2685
 8026W        W 8026   6.512   6.465   1.567 -0.0702  0.3111  0.0971
 8027W        W 8027   4.115   3.850   6.764 -0.3018  0.1337 -0.0619
 8028W        W 8028   0.157   5.064   9.112 -0.0349  0.3667 -0.0861
 8029W        W 8029   1.409   6.252   9.116 -0.2516  0.2249 -0.1752
 8030W        W 8030   2.239   9.080   7.499 -0.0599 -0.1334 -0.2400
 8031W        W 8031   6.648   8.164   3.676  0.0135 -0.1580 -0.0532
 8032W        W 8032   1.089   2.915   8.772 -0.1237  0.0206 -0.2231
 8033W        W 8033   4.445   9.175   5.767  0.1758  0.3517 -0.0289
 8034W        W 8034   1.704   3.748   7.750  0.0447  0.0770  0.2043
 8035W        W 8035   7.235   8.857   0.970  0.1461  0.1747 -0.0300
 8036W        W 8036   3.303   8.024   4.461 -0.2366 -0.3507  0.0166
 8037W        W 8037   0.680   6.351   1.266  0.5115 -0.3455 -0.1726
 8038W        W 8038   7.046   2.813   5.981 -0.0365 -0.1336  0.2395
 8039W        W 8039   7.285   9.697   2.471  0.1559 -0.0463  0.1334
 8040W        W 8040   1.373  10.323   7.913 -0.2106 -0.3944 -0.0578
 8041W        W 8041   6.799   2.427   3.753 -0.2589 -0.2758 -0.4382
 8042W        W 8042   7.460   9.259   2.395  0.0610  0.0933  0.0653
 8043W        W 8043   0.355   3.413   5.174 -0.4335 -0.1628  0.2314
 8044W        W 8044   9.386   3.832   5.935  0.1545  0.2361  0.0315
 8045W        W 8045   4.719   5.194  10.055  0.1558  0.0386  0.3633
 8046W        W 8046   3.825   1.778   3.450 -0.0421 -0.2173 -0.0458
 8047W        W 8047   4.377   1.896   8.063 -0.2021 -0.0040 -0.0738
 8048W        W 8048   9.669   6.738   1.220 -0.5385  0.0277 -0.0547
 8049W        W 8049   1.109   9.811   7.217 -0.1153 -0.0796  0.1249
 8050W        W 8050   0.869   1.225   4.919  0.0136 -0.4221 -0.3150
 8051W        W 8051   2.578   2.643   0.388 -0.2538 -0.0027  0.1492
 8052W        W 8052   5.473   0.311   2.860  0.4031 -0.0812 -0.2184
 8053W        W 8053   5.743   6.953   0.517 -0.1567  0.2278  0.3672
 8054W        W 8054   8.380   2.151   5.860  0.1619  0.0014  0.0370
 8055W        W 8055   9.840   1.747   3.070  0.1879  0.1885  0.0744
 8056W        W 8056   4.685   2.888   8.772  0.0926  0.3082  0.0173
 8057W        W 8057   4.690   3.390   8.616 -0.3015 -0.0706 -0.1368
 8058W        W 8058   9.707   6.116   5.875 -0.2974  0.1403 -0.1233
 8059W        W 8059   0.103   6.713   6.933 -0.0626 -0.2599 -0.2623
 8060W        W 8060   1.867   0.981   9.771  0.2146 -0.0450 -0.0426
 8061W        W 8061   7.153  10.149   3.249 -0.0519 -0.2964  0.1610
 8062W        W 8062   6.643   0.693   8.902 -0.0577  0.2392 -0.0466
 8063W        W 8063   6.985   1.406   8.569  0.3953  0.0265 -0.2310
 8064W        W 8064   1.192   9.296   5.967 -0.1291  0.1793 -0.0853
 8065W        W 8065   9.244   3.048   9.939 -0.1353  0.1247  0.0696
 8066W        W 8066   3.191  10.080   0.705  0.1139 -0.1382  0.1415
 8067W        W 8067   5.892   7.386   0.365 -0.1696  0.2777 -0.0115
 8068W        W 8068   5.340   4.779   3.348  0.0920  0.3128  0.0475
 8069W        W 8069   0.157   2.951   4.898  0.2693  0.0136  0.0200
 8070W        W 8070   6.084   3.762   5.773 -0.3215  0.0555 -0.0933
 8071W        W 8071   5.284   0.057   2.003 -0.0097 -0.0277  0.1015
 8072W        W 8072   2.162   3.825   0.062  0.0346 -0.2692  0.1542
 8073W        W 8073   2.662   2.466   1.641 -0.0546  0.0030 -0.1158
 8074W        W 8074   0.188  10.232   5.418 -0.1794 -0.0031  0.0494
 8075W        W 8075   1.142   6.420   2.160  0.0695 -0.0282  0.1015
 8076W        W 8076   6.114   6.046   9.240 -0.0784 -0.2599 -0.2991
 8077W        W 8077   4.321   6.491   1.932  0.0650  0.3787 -0.0700
 8078W        W 8078   1.360   9.795   3.455  0.2695 -0.1854 -0.0871
 8079W        W 8079   8.652   7.706   8.261  0.2647 -0.1612  0.2813
 8080W        W 8080   0.669   4.481   9.850  0.1461  0.2142  0.0103
 8081W        W 8081  10.045   8.300   5.826  0.0799  0.0060 -0.0511
 8082W        W 8082   0.782   2.234   3.049 -0.1815  0.0816  0.2294
 8083W        W 8083   9.541   4.756  10.056 -0.1685  0.0360  0.2379
 8084W        W 8084   5.767   7.910   7.855 -0.0106  0.1959 -0.2920
 8085W        W 8085   3.671   0.796   4.508 -0.1015 -0.0858  0.1869
 8086W        W 8086   8.058   0.093   9.077  0.3381 -0.1938 -0.3500
 8087W        W 8087   3.882   7.333   0.845  0.0692 -0.1052 -0.0096
 8088W        W 8088   3.942   7.328   0.364 -0.2335 -0.0478 -0.1552
 8089W        W 8089   0.109   8.368   5.540 -0.1942 -0.0681  0.0477
 8090W        W 8090   9.723   2.020   9.747 -0.0759  0.1917 -0.3025
 8091W        W 8091   8.530   2.322   0.970 -0.4437 -0.1652  0.3439
 8092W        W 8092   0.604   7.816   5.222 -0.0274 -0.1017 -0.0145
 8093W        W 8093   6.131   7.254   1.776  0.0403 -0.1481 -0.4762
 8094W        W 8094   5.028   2.175   3.013  0.0766  0.1517 -0.0310
 8095W        W 8095   1.916   2.008   1.396  0.0567  0.1876 -0.0096
 8096W        W 8096   5.947  10.003   3.974 -0.0098  0.0289  0.0893
 8097W        W 8097   8.919   5.901   7.462  0.2729 -0.1315  0.1568
 8098W        W 8098   0.277   4.745   5.671 -0.1918 -0.1843 -0.1290
 8099W        W 8099   3.877   1.229   2.537 -0.3068 -0.0850 -0.0561
 8100W        W 8100   8.165   7.104   5.748 -0.2509 -0.0884  0.1306
 8101W        W 8101   8.762   0.017   3.108 -0.1373 -0.1151 -0.1938
 8102W        W 8102   2.944   9.177   7.867 -0.1387  0.2646  0.1386
 8103W        W 8103   6.255   1.310   1.746  0.4714 -0.0391  0.1003
 8104W        W 8104   3.383   9.177   1.943 -0.0177  0.1654 -0.1040
 8105W        W 8105   4.200   0.824   9.876  0.0281  0.1805  0.2220
 8106W        W 8106   4.637   7.375  10.178 -0.0888 -0.3347 -0.3041
 8107W        W 8107   7.033   6.088   7.593  0.0435  0.2454  0.0054
 8108W        W 8108   5.334   7.138   4.817  0.1494  0.1494  0.1002
 8109W        W 8109   2.645   7.061   1.269  0.2812  0.1826  0.1803
 8110W        W 8110   6.727   2.604  10.076 -0.0891  0.1362 -0.2209
 8111W        W 8111   6.258   8.054   8.265  0.1119 -0.5287 -0.0464
 8112W        W 8112   6.297   9.903   8.727  0.0919 -0.0762  0.2360
 8113W        W 8113   7.277   9.156   6.135 -0.0651  0.1311 -0.0630
 8114W        W 8114   7.245   2.781   0.965 -0.1574  0.1921  0.2294
 8115W        W 8115   9.247   9.778   6.772  0.2308 -0.1286 -0.0221
 8116W        W 8116   5.723   3.416   3.762 -0.1889  0.0358 -0.2646
 8117W        W 8117   5.059  10.066   1.391  0.1175 -0.1783  0.0992
 8118W        W 8118   6.744   3.409   1.467 -0.0915 -0.0514 -0.0415
 8119W        W 8119   9.293   1.204   7.656 -0.1658  0.0066  0.2633
 8120W        W 8120   4.862   3.787   8.953  0.1122  0.1402 -0.2259
 8121W        W 8121   4.968   6.643   1.114 -0.3325  0.4290  0.1149
 8122W        W 8122   1.420   6.265   1.805 -0.2097  0.0699  0.1922
 8123W        W 8123   2.854   4.463   3.407 -0.3126 -0.2410 -0.0451
 8124W        W 8124   5.103   5.565   5.954  0.3028 -0.1625  0.0861
 8125W        W 8125   7.037   8.482   2.168  0.1223 -0.0570  0.0969
 8126W        W 8126   0.965   5.793   3.707  0.1025 -0.0039 -0.0089
 8127W        W 8127   8.209   8.266   0.332  0.0058 -0.0562 -0.1082
 8128W        W 8128   3.535   0.555   1.803 -0.2348  0.2656 -0.1233
 8129W        W 8129   9.800   8.037   6.629 -0.0572 -0.2328  0.2443
 8130W        W 8130   5.186  10.014   6.899 -0.0345 -0.1112 -0.1084
 8131W        W 8131   9.910   2.837   1.146 -0.0544  0.0883  0.0603
 8132W        W 8132   4.995   7.409   2.522 -0.0334 -0.2024  0.0527
 8133W        W 8133   9.610   8.331   2.348  0.0662  0.0907  0.2700
 8134W        W 8134   3.100   5.872   4.023  0.1760  0.1518  0.0512
 8135W        W 8135   8.239   2.651   4.304 -0.0286  0.2091  0.3685
 8136W        W 8136   9.713   6.337   5.431  0.4716 -0.1084 -0.1597
 8137W        W 8137   7.695   8.115   7.509  0.0273  0.1579 -0.2245
 8138W        W 8138   2.206   5.488   3.239  0.2220  0.1488 -0.1526
 8139W        W 8139   1.772   6.613   1.641 -0.0572  0.1233 -0.1627
 8140W        W 8140   5.520   3.602   7.631  0.2368 -0.2805 -0.1063
 8141W        W 8141   8.262   7.065   2.206 -0.2173 -0.2047  0.2191
 8142W        W 8142   9.260   6.060   4.146 -0.2215  0.2055 -0.0883
 8143W        W 8143   4.127  10.151   5.665  0.3008  0.0105 -0.0365
 8144W        W 8144   6.816   2.109   7.023  0.1351 -0.0182 -0.2863
 8145W        W 8145   1.649   5.944   4.399  0.2356  0.3243 -0.1715
 8146W        W 8146   1.839   7.929   8.286 -0.1605 -0.3618  0.3176
 8147W        W 8147   8.642   7.395   7.417 -0.0080  0.1693  0.0747
 8148W        W 8148   4.561   9.160   6.775  0.1463 -0.0924  0.1974
 8149W        W 8149   9.414   2.056   8.840 -0.1341  0.0763 -0.0637
 8150W        W 8150   3.258   8.332   7.438 -0.2148  0.1805  0.1831
 8151W        W 8151   2.314   1.935   6.958 -0.1914 -0.1199  0.0722
 8152W        W 8152   0.735   0.550   6.493 -0.1598 -0.0336 -0.0450
 8153W        W 8153   3.470   3.786   8.848 -0.1857  0.0956  0.0459
 8154W        W 8154   0.569   2.298  10.133 -0.1575 -0.2120 -0.3145
 8155W        W 8155   5.780   4.693   4.385 -0.2830 -0.2225  0.1351
 8156W        W 8156   7.689   2.823   9.641  0.3096 -0.0732  0.2619
 8157W        W 8157   5.845  10.176   4.667  0.0958 -0.0937  0.2734
 8158W        W 8158   6.395   2.962   9.942  0.0258 -0.0140 -0.1310
 8159W        W 8159   2.478   0.842   5.906  0.1477 -0.2017  0.1099
 8160W        W 8160   7.852   5.607   8.862 -0.0222 -0.3042 -0.0455
 8161W        W 8161   7.784   1.757   0.717  0.2897  0.0403  0.1650
 8162W        W 8162   3.859   7.109   9.646 -0.1073  0.0515 -0.1587
 8163W        W 8163   5.474   7.305   1.292 -0.1760 -0.3477 -0.0851
 8164W        W 8164   4.081   4.962   0.159  0.0057 -0.0899 -0.1120
 8165W        W 8165   2.019   9.348   3.512 -0.0884  0.1191 -0.0214
 8166W        W 8166   5.422   1.911   4.952 -0.0229 -0.0314  0.0963
 8167W        W 8167   5.225   1.406   5.603  0.0916 -0.2782  0.0076
 8168W        W 8168   6.040   1.378   8.449 -0.1475  0.0630 -0.0450
 8169W        W 8169   6.726   1.663   6.766  0.1172  0.0392 -0.1136
 8170W        W 8170   5.333   8.943   7.881  0.0682 -0.3023  0.2615
 8171W        W 8171   7.256   1.595   8.946 -0.1819 -0.0985 -0.1434
 8172W        W 8172   4.609   3.417   2.236  0.0113  0.0012  0.0618
 8173W        W 8173   7.138   4.735   4.306 -0.2338 -0.0112  0.1453
 8174W        W 8174   8.338   3.676   8.379 -0.0366  0.1408  0.1344
 8175W        W 8175   9.198   7.665   0.697  0.0751 -0.2183 -0.0843
 8176W        W 8176   7.872   4.960   6.463  0.0660  0.2017  0.2115
 8177W        W 8177   9.049   2.251   3.173  0.1216  0.1629  0.0060
 8178W        W 8178   1.807   8.375   8.716  0.1041  0.0201  0.2356
 8179W        W 8179   5.395   8.510   5.904 -0.2477  0.1507  0.0809
 8180W        W 8180   7.448   7.909   3.809 -0.1650 -0.1567 -0.0523
 8181W        W 8181   0.023   6.467   4.187  0.2303  0.0423  0.0659
 8182W        W 8182   1.407   8.672   1.242  0.1702  0.0266 -0.1981
 8183W        W 8183   4.277   2.315   6.006  0.2605  0.0369  0.0038
 8184W        W 8184   3.317   7.194   9.618 -0.2587  0.0441  0.0829
 8185W        W 8185   5.764   0.640   2.107 -0.0551  0.0704  0.1206
 8186W        W 8186  10.155   3.394   4.932  0.0097 -0.1109 -0.4191
 8187W        W 8187   9.999   6.981   7.079  0.1924  0.0433  0.2247
 8188W        W 8188   6.522   1.416   9.168 -0.2015 -0.0500 -0.2185
 8189W        W 8189   2.065   0.002   2.528 -0.0761  0.0085 -0.3048
 8190W        W 8190   0.176   6.267   6.176  0.0762 -0.0131  0.0327
 8191W        W 8191   2.927   2.090   7.172 -0.2102 -0.3057 -0.1317
 8192W        W 8192   5.965   2.667   4.521  0.0386 -0.3496  0.1669
 8193W        W 8193   5.926   6.448   6.147  0.1618  0.0581  0.2260
 8194W        W 8194   7.728   8.839   0.918  0.1192 -0.0345 -0.3475
 8195W        W 8195   3.277   5.274   3.006  0.0977  0.0764  0.0559
 8196W        W 8196   8.549   8.770   6.953  0.0763  0.0185 -0.2978
 8197W        W 8197   9.485   8.813   7.827  0.1365 -0.0274  0.0718
 8198W        W 8198   0.057   7.381   5.454  0.2050  0.3001 -0.3317
 8199W        W 8199   5.677   9.237   2.509  0.0177  0.1831 -0.1364
 8200W        W 8200   8.163   1.740   7.552 -0.2584  0.0901 -0.2150
 8201W        W 8201   8.944   6.217   6.223  0.1550 -0.3097 -0.1130
 8202W        W 8202   6.512   2.625   1.965  0.0262 -0.2222  0.0617
 8203W        W 8203   9.199   6.997   5.024  0.0746 -0.1743  0.0886
 8204W        W 8204   6.677   9.985   5.805  0.1704 -0.0289  0.2012
 8205W        W 8205   9.982   7.317  10.326  0.2698 -0.0118  0.0654
 8206W        W 8206   1.851   9.053   1.581  0.2876  0.2584  0.0488
 8207W        W 8207   8.832   2.706   2.297 -0.0919 -0.0739  0.1049
 8208W        W 8208   3.454   1.944   7.841 -0.0792  0.2274  0.0881
 8209W        W 8209   7.555   5.858   0.538 -0.2410 -0.0076 -0.2665
 8210W        W 8210   9.155   8.454   9.751  0.3170  0.1689 -0.1478
 8211W        W 8211   9.301   7.888   6.785 -0.1922  0.1640  0.1605
 8212W        W 8212   9.623  10.126   0.908 -0.1975 -0.1259  0.3140
 8213W        W 8213   2.443   5.208   3.609  0.0485 -0.0703 -0.0968
 8214W        W 8214   9.734   2.830   9.421  0.4496 -0.0630  0.0694
 8215W        W 8215   8.087   4.375   4.569 -0.1607 -0.2088 -0.2040
 8216W        W 8216   6.164   1.178   4.261 -0.1569  0.2020  0.1588
 8217W        W 8217   2.518   6.364   6.983 -0.1833 -0.0589 -0.1953
 8218W        W 8218   5.003  10.239   6.494  0.1291 -0.1720 -0.0504
 8219W        W 8219   5.154   1.746   9.111  0.0104  0.1224  0.2947
 8220W        W 8220   0.529   7.260   5.351 -0.0223  0.0135  0.0616
 8221W        W 8221   4.095   8.977  10.211  0.1548 -0.2206 -0.1498
 8222W        W 8222   3.055   5.560   0.166 -0.0661 -0.1913  0.0392
 8223W        W 8223   6.905   9.556   5.950  0.2033  0.2304 -0.2067
 8224W        W 8224   6.638   4.971   9.880 -0.1833 -0.1108 -0.1152
 8225W        W 8225   0.961   0.792   4.620  0.1573 -0.0242  0.1234
 8226W        W 8226   8.358   1.510   0.445  0.0999 -0.1735 -0.2455
 8227W        W 8227   3.643   0.233   7.919 -0.0097  0.1348 -0.0182
 8228W        W 8228   0.335   0.969   0.879  0.1278 -0.1424  0.2306
 8229W        W 8229   2.941   1.722   1.874  0.2989  0.1310  0.2057
 8230W        W 8230  10.194   2.377   6.243 -0.0722  0.2434 -0.1513
 8231W        W 8231   0.447   2.723   0.011 -0.2548 -0.3387  0.2524
 8232W        W 8232   2.708   7.120   2.131  0.1049  0.0550 -0.0680
 8233W        W 8233   2.490   2.114   3.302  0.1850  0.0259 -0.1946
 8234W        W 8234   2.259   8.037   8.610 -0.0514 -0.1861  0.4289
 8235W        W 8235   9.063   7.469   1.563  0.2468  0.1932  0.2613
 8236W        W 8236   9.514   4.430   3.952  0.0498  0.1456 -0.2074
 8237W        W 8237   8.055   2.820   8.717 -0.2267  0.0702  0.0628
 8238W        W 8238   1.869   2.549   5.955  0.1411 -0.3377  0.0027
 8239W        W 8239   1.679  10.337   8.415  0.1738 -0.2909  0.0914
 8240W        W 8240   3.628   6.052   8.398 -0.2291  0.2287 -0.1263
 8241W        W 8241   7.889   5.387   6.829  0.2663 -0.0767  0.1068
 8242W        W 8242   2.419   4.762   7.063 -0.1546  0.0371 -0.0096
 8243W        W 8243   0.441   7.680   7.371 -0.0119 -0.0193  0.1768
 8244W        W 8244   2.967   8.426   4.263 -0.1597  0.0933 -0.0624
 8245W        W 8245   6.758  10.055  10.051  0.0948  0.1608  0.1490
 8246W        W 8246   2.273   1.676   7.837 -0.1793  0.2002  0.1164
 8247W        W 8247   5.313   4.749   4.197 -0.1343 -0.0972  0.0856
 8248W        W 8248   4.352   3.624   5.076  0.1014 -0.1605 -0.0262
 8249W        W 8249   3.515   8.321   9.211  0.1439 -0.3987 -0.5200
 8250W        W 8250   2.461   0.335   7.174  0.1319 -0.1495 -0.0767
 8251W        W 8251   2.045   0.541   6.822  0.2990 -0.0713  0.0960
 8252W        W 8252   7.538   9.256   6.796 -0.0430 -0.3135  0.1376
 8253W        W 8253   3.650   7.366   2.349 -0.1610 -0.2053  0.1201
 8254W        W 8254   0.538   1.875   4.516 -0.3621 -0.0449  0.0808
 8255W        W 8255   4.370   5.059   5.298 -0.0120 -0.1404  0.1626
 8256W        W 8256   3.688   9.672   0.424  0.0433  0.1014  0.0906
 8257W        W 8257   5.009   2.118   7.028  0.1780 -0.0187  0.1238
 8258W        W 8258   6.900   2.491   4.783 -0.0716 -0.1049  0.0919
 8259W        W 8259   0.352   1.472   0.897 -0.1080  0.1103  0.1350
 8260W        W 8260   6.329   8.552   9.528  0.0824  0.0949  0.4150
 8261W        W 8261   2.068   4.040   7.665  0.1003 -0.1102 -0.0266
 8262W        W 8262   1.269   5.956   9.635  0.1844  0.2219  0.3072
 8263W        W 8263   0.933   0.736   2.460  0.2964  0.2147 -0.1176
 8264W        W 8264   5.764   1.125   2.331  0.1203  0.0568  0.2353
 8265W        W 8265   4.330   1.800   6.032  0.1772 -0.2494  0.0562
 8266W        W 8266   5.113   3.985   2.991 -0.0529 -0.2481  0.0869
 8267W        W 8267  10.103   1.765   0.149 -0.2220 -0.0340 -0.1136
 8268W        W 8268   8.946   1.424   9.749 -0.0531  0.1393  0.0026
 8269W        W 8269   4.090   5.638   4.300  0.3390 -0.1821 -0.3622
 8270W        W 8270   0.201   2.586   6.586 -0.0060 -0.0669  0.1467
 8271W        W 8271   0.174   0.896   8.584  0.1030  0.2409  0.0020
 8272W        W 8272   9.107   7.763   8.446  0.1091  0.2124  0.0094
 8273W        W 8273   5.671   6.109   2.599 -0.1665 -0.1070 -0.0542
 8274W        W 8274   4.620   5.804   0.866 -0.0124  0.0632  0.0147
 8275W        W 8275   6.356   9.525   0.636  0.2172  0.0647 -0.2016
 8276W        W 8276   5.103   1.262   6.147 -0.0339 -0.2022 -0.3780
 8277W        W 8277   6.247   5.203  10.221  0.0188  0.0134  0.0562
 8278W        W 8278   7.251   6.668   2.176  0.1107  0.0324  0.1672
 8279W        W 8279   6.525   1.561   2.990  0.1274 -0.1970  0.1793
 8280W        W 8280   6.525   4.682   0.558  0.0476  0.1431 -0.2911
 8281W        W 8281   2.321   7.788   8.145  0.1784 -0.4252  0.0023
 8282W        W 8282   4.356   8.116   3.567  0.2380  0.0164 -0.0405
 8283W        W 8283   1.550   5.138   3.586 -0.3380 -0.0251  0.2261
 8284W        W 8284   2.673   1.435   8.143 -0.2897 -0.1590 -0.1955
 8285W        W 8285   6.592   4.823   8.783  0.0124 -0.1481  0.2331
 8286W        W 8286   7.801   4.735   7.620 -0.0529 -0.0179 -0.1403
 8287W        W 8287   4.363   5.524   6.583  0.2483  0.3494  0.0092
 8288W        W 8288   1.222   6.715   1.747  0.1469 -0.3855  0.0497
 8289W        W 8289   2.038  10.009   8.399  0.0715  0.0677  0.1285
 8290W        W 8290   1.614   2.445   5.569  0.1059  0.6736 -0.1181
 8291W        W 8291   0.826   1.709   8.017  0.0895 -0.0678  0.0201
 8292W        W 8292   0.104   8.928   3.258  0.1360  0.1061 -0.0167
 8293W        W 8293   0.886   9.751   4.670  0.1269  0.3288  0.0830
 8294W        W 8294   2.806   9.437   1.065  0.0812  0.1087  0.0624
 8295W        W 8295   3.030   7.699   6.191  0.1367  0.2252  0.2383
 8296W        W 8296   0.928   9.593   3.359  0.1355  0.1445 -0.3170
 8297W        W 8297   1.403   1.107   5.919 -0.1170 -0.0592 -0.0229
 8298W        W 8298   6.953   4.532   7.351  0.1264 -0.0735 -0.0275
 8299W        W 8299   2.755   2.245   5.859  0.1865  0.0057 -0.3615
 8300W        W 8300   1.083   0.752   2.006  0.0700  0.0688  0.0049
 8301W        W 8301   9.170   6.655   3.155 -0.1378  0.0293  0.1076
 8302W        W 8302   6.808   6.052   3.440 -0.1217 -0.1328 -0.1313
 8303W        W 8303   5.498   8.645   0.486 -0.2410  0.0833  0.0019
 8304W        W 8304   0.049   5.528   7.990 -0.3307 -0.4038 -0.0433
 8305W        W 8305   7.494   1.349   7.922 -0.1108  0.2444  0.0105
 8306W        W 8306   6.238   4.951   4.736 -0.1122  0.1262 -0.1723
 8307W        W 8307   4.912   8.237   6.104  0.2369 -0.0523 -0.0750
 8308W        W 8308   3.278   1.264   2.534 -0.0674  0.1051 -0.0555
 8309W        W 8309   1.706   3.258   7.868 -0.1152 -0.0695 -0.0365
 8310W        W 8310   1.259   4.116   0.206  0.2964  0.0070 -0.1665
 8311W        W 8311   1.619   1.087   8.921 -0.2379 -0.0310 -0.0863
 8312W        W 8312   5.820   7.946   6.668  0.0692 -0.0959  0.2223
 8313W        W 8313   4.266   9.825   8.765 -0.2068 -0.0572  0.1182
 8314W        W 8314   0.950   9.053   2.561 -0.2109 -0.0894  0.0524
 8315W        W 8315   7.831   7.636   3.565 -0.0596 -0.0687 -0.2253
 8316W        W 8316   8.097   9.659   0.370  0.2993  0.1336  0.2090
 8317W        W 8317   5.263   9.509   9.938 -0.4280 -0.1121 -0.0842
 8318W        W 8318   1.505   6.886   1.287 -0.0184  0.3038 -0.2299
 8319W        W 8319   8.809   5.924   6.974 -0.1238  0.0786 -0.0761
 8320W        W 8320   4.757   4.750   7.475  0.1958  0.1608 -0.1534
 8321W        W 8321   4.702   7.877   3.908  0.0122 -0.3461  0.0309
 8322W        W 8322   8.274   7.075   1.461  0.0796  0.0315  0.1395
 8323W        W 8323   0.515   6.297   9.508 -0.1334 -0.1476  0.3095
 8324W        W 8324   3.345   1.035   7.800 -0.0615  0.1291  0.0636
 8325W        W 8325   3.051   9.191   3.861  0.0653  0.0539 -0.2413
 8326W        W 8326   0.672   8.263   0.056  0.0007  0.0465 -0.0108
 8327W        W 8327   7.654   8.317   1.156 -0.2473  0.0696 -0.0963
 8328W        W 8328   8.721   8.093   3.447 -0.1022 -0.1726 -0.0969
 8329W        W 8329  10.335   6.798   8.555 -0.2485 -0.0012 -0.1057
 8330W        W 8330   4.334  10.232   1.508  0.1047 -0.1262  0.0395
 8331W        W 8331   6.705   4.063   4.755  0.1340 -0.0929  0.0073
 8332W        W 8332   4.830   0.302   0.060  0.3467 -0.2324 -0.1511
 8333W        W 8333   7.190   5.199   4.107  0.1390 -0.0572 -0.2982
 8334W        W 8334   1.732   9.880   2.715 -0.1169 -0.0940 -0.0034
 8335W        W 8335   2.080   1.241   4.844  0.1117  0.0760 -0.3216
 8336W        W 8336   4.841   0.238   0.807  0.0434 -0.4833  0.0691
 8337W        W 8337   7.069   4.375   2.247  0.1343  0.0856 -0.1908
 8338W        W 8338   4.776   7.600   0.874 -0.2445  0.0965 -0.0295
 8339W        W 8339   9.667   4.900   4.838 -0.1556  0.1492 -0.3926
 8340W        W 8340   0.268   1.446   7.847 -0.0466 -0.0895  0.1346
 8341W        W 8341   7.749   4.711   4.793  0.0177 -0.0171 -0.0156
 8342W        W 8342   5.944   0.308   9.306  0.1960 -0.3778  0.1648
 8343W        W 8343   9.701   6.222   1.960 -0.4359  0.1735  0.0190
 8344W        W 8344   4.260   8.714   6.691  0.3242  0.0129  0.1476
 8345W        W 8345   0.893   7.709   3.022  0.2344  0.1083 -0.0393
 8346W        W 8346   9.846   1.058   9.870 -0.0997 -0.1259  0.0619
 8347W        W 8347   5.786   0.869   9.147 -0.0111  0.1318 -0.0692
 8348W        W 8348   2.891   6.302   3.580  0.1657 -0.4630 -0.1176
 8349W        W 8349   6.419   6.181   1.980  0.0347  0.0869 -0.0026
 8350W        W 8350   7.276   6.194   3.088  0.1716  0.0617  0.1180
 8351W        W 8351   5.440   8.128   7.105  0.0408  0.0011  0.2212
 8352W        W 8352   2.822   9.680   7.624  0.3361 -0.1218 -0.1331
 8353W        W 8353   6.263   2.704   5.281 -0.1668  0.3333 -0.1168
 8354W        W 8354   1.030   6.002   7.595  0.1056 -0.0737  0.0315
 8355W        W 8355   7.966   1.474   4.663 -0.0419  0.1604  0.0423
 8356W        W 8356   9.280   3.119   3.781  0.2907 -0.3775  0.0869
 8357W        W 8357   2.174   6.620   6.112  0.0897 -0.0649 -0.0102
 8358W        W 8358   7.780   4.820   8.559  0.1686 -0.2102  0.1086
 8359W        W 8359   8.801   7.818   6.635 -0.0090 -0.2478 -0.3512
 8360W        W 8360   9.311   9.821   3.589 -0.3072  0.0973 -0.0797
 8361W        W 8361   3.236   6.978   8.848 -0.0388  0.2889 -0.1805
 8362W        W 8362   2.223   2.284   4.929 -0.0006 -0.2007  0.0084
 8363W        W 8363   9.464   0.904   4.582  0.0847 -0.2858  0.2498
 8364W        W 8364   5.271   9.896   4.728  0.0924  0.3061  0.2402
 8365W        W 8365   3.841   9.320   5.099  0.0460  0.0824 -0.2578
 8366W        W 8366   2.999   8.120   9.294  0.2315 -0.0904 -0.0250
 8367W        W 8367   8.019   0.722   8.191 -0.3386  0.0598  0.0241
 8368W        W 8368   6.359   5.770   3.342  0.0762 -0.0076 -0.1145
 8369W        W 8369   9.088   1.989   2.688  0.0864  0.0208 -0.1823
 8370W        W 8370   4.008   9.803   8.295 -0.1352  0.3542 -0.2153
 8371W        W 8371   1.406   7.256   6.312  0.1109 -0.0338  0.1729
 8372W        W 8372   1.440   3.797   4.316 -0.1497  0.3577  0.2405
 8373W        W 8373   9.213   5.574   8.346  0.0344 -0.2688  0.1878
 8374W        W 8374   6.086   1.916   6.071 -0.1572 -0.2005 -0.0077
 8375W        W 8375   1.078   1.978   6.093 -0.0628  0.1158 -0.1660
 8376W        W 8376   7.953   3.933   3.174  0.0681 -0.1375 -0.3031
 8377W        W 8377   8.839   5.483   8.720 -0.1087 -0.5763 -0.1288
 8378W        W 8378   6.662   2.099   4.535 -0.1920 -0.2451 -0.1279
 8379W        W 8379   4.905   6.959   6.504  0.1214 -0.2263 -0.0722
 8380W        W 8380   1.455   8.407   9.217 -0.1944  0.1642 -0.2068
 8381W        W 8381   8.761   4.572   6.440  0.1065 -0.0563 -0.0008
 8382W        W 8382   5.883   6.542   8.905  0.1193 -0.4949  0.1880
 8383W        W 8383   7.546   5.482   4.635 -0.0520 -0.2141  0.0604
 8384W        W 8384   2.150   3.548   8.087  0.2867  0.0469 -0.1963
 8385W        W 8385   5.824   8.926   8.351  0.2314  0.0573  0.0632
 8386W        W 8386   1.830   2.945   6.923 -0.0088  0.0354 -0.0965
 8387W        W 8387   1.520   9.443   7.960  0.1095 -0.2294 -0.2798
 8388W        W 8388   4.831   8.014   5.639 -0.2681  0.1087 -0.1316
 8389W        W 8389   0.248   0.761   1.770 -0.1841 -0.1042  0.1670
 8390W        W 8390   3.239   2.370   5.902  0.0048  0.1558  0.2203
 8391W        W 8391   4.098   6.524   0.119  0.1470 -0.0038  0.3717
 8392W        W 8392   5.011   9.776   8.265  0.1533  0.0377  0.1786
 8393W        W 8393   0.155   0.442   4.345  0.1670  0.0830  0.0872
 8394W        W 8394   3.839   6.950   2.013 -0.0463  0.1160 -0.1258
 8395W        W 8395   0.346   3.094   1.587 -0.1242 -0.0056 -0.0945
 8396W        W 8396   3.087   4.707   9.114 -0.2402 -0.1330  0.0181
 8397W        W 8397   1.556   5.284   1.606  0.1712 -0.0238 -0.2474
 8398W        W 8398   5.453   1.728   7.114  0.1898 -0.2906  0.2474
 8399W        W 8399   0.333   9.502   8.585  0.1113 -0.0894 -0.1187
 8400W        W 8400   2.208   9.221  10.285 -0.1985  0.1913 -0.1554
 8401W        W 8401  10.094   5.928   5.441  0.1407 -0.2729 -0.1407
 8402W        W 8402   5.584   6.589   2.477  0.2667 -0.0348 -0.0430
 8403W        W 8403   6.252   9.844   9.208  0.2718  0.0790  0.0778
 8404W        W 8404   4.293   9.907   1.070 -0.0369 -0.1138  0.0337
 8405W        W 8405   7.996   6.101   5.937 -0.1653  0.0733 -0.0028
 8406W        W 8406   0.104   6.643   5.053  0.0884 -0.1842 -0.0220
 8407W        W 8407  10.260   7.664   6.446  0.2607  0.1448 -0.1895
 8408W        W 8408   5.548   5.406   0.123 -0.2981  0.1144 -0.1174
 8409W        W 8409   2.447   8.320   4.230 -0.2740 -0.1956  0.0522
 8410W        W 8410   6.906   6.300   9.777  0.0365  0.0212 -0.0723
 8411W        W 8411   6.700   7.814   7.230  0.1629 -0.0973  0.1624
 8412W        W 8412   0.470   8.501   3.169 -0.0240  0.1526  0.3242
 8413W        W 8413   9.750   5.168   6.214 -0.1544 -0.1373 -0.1255
 8414W        W 8414   9.253   6.228   1.027  0.1247 -0.0581  0.2387
 8415W        W 8415   8.064   0.659   6.222 -0.1888  0.0676 -0.1861
 8416W        W 8416   2.205   4.358   4.657 -0.2163 -0.1136  0.2640
 8417W        W 8417   3.193   8.223   2.150  0.0111 -0.0908 -0.0982
 8418W        W 8418   8.466   1.840   4.508  0.2626 -0.1685 -0.1286
 8419W        W 8419   9.519   9.547   4.994  0.1722 -0.2694  0.4370
 8420W        W 8420   1.922   6.039   6.986 -0.1065  0.0182 -0.3321
 8421W        W 8421   3.684   8.074   7.922 -0.0609  0.0034 -0.0245
 8422W        W 8422   0.741   7.283   6.295 -0.1165  0.1721  0.1479
 8423W        W 8423   4.517   1.530   7.370 -0.0838 -0.0059  0.0254
 8424W        W 8424   4.188   7.098   5.782 -0.1810  0.2564 -0.0567
 8425W        W 8425   3.132   1.504   7.916 -0.0814 -0.0828  0.1070
 8426W        W 8426   6.395   3.548   6.378 -0.0492  0.0219  0.1441
 8427W        W 8427   0.339   9.006   8.427  0.1809  0.0518  0.0416
 8428W        W 8428   6.926   0.527   9.344  0.1760 -0.0826 -0.2070
 8429W        W 8429   6.355   6.830   8.962  0.2424 -0.0441  0.3825
 8430W        W 8430   8.154   4.070   3.746  0.0900  0.1285 -0.4342
 8431W        W 8431   7.665   5.233   1.285  0.2720  0.2045 -0.1004
 8432W        W 8432   4.985   2.895   0.462  0.2403 -0.1151 -0.1105
 8433W        W 8433   5.506  10.329   6.635 -0.1161  0.2945  0.0352
 8434W        W 8434   8.763   7.132   9.535 -0.1926 -0.0211 -0.1746
 8435W        W 8435   2.795   5.654   2.235  0.0080 -0.0412  0.0340
 8436W        W 8436  10.012   8.830   9.471  0.0925  0.1415 -0.2977
 8437W        W 8437   5.861   9.529  10.302  0.0453  0.0469 -0.0324
 8438W        W 8438   6.931   9.105   9.347 -0.1605  0.3819 -0.3718
 8439W        W 8439   9.673   8.149   8.967 -0.1656  0.0649 -0.2148
 8440W        W 8440   5.498   6.109   4.424 -0.0249 -0.0783 -0.2791
 8441W        W 8441   1.534   4.240   3.606 -0.1823 -0.1628  0.1670
 8442W        W 8442   7.777   5.269   2.917 -0.0939  0.1789 -0.2173
 8443W        W 8443   6.682   1.547   3.870 -0.2644  0.0831 -0.1981
 8444W        W 8444   7.151   4.677   0.155  0.0258  0.1339  0.0024
 8445W        W 8445   1.842   7.181   6.030  0.0280 -0.0309  0.1540
 8446W        W 8446   0.055   8.356   8.646  0.1109 -0.1513  0.1207
 8447W        W 8447   9.545   4.899   5.782  0.1422 -0.3186  0.3508
 8448W        W 8448   7.934   3.319  10.274  0.0196 -0.0734 -0.2043
 8449W        W 8449   2.549   1.203  10.231  0.4483  0.1825  0.1862
 8450W        W 8450   2.575   0.489   1.945 -0.1087  0.1586  0.2790
 8451W        W 8451   6.752   5.049   2.989 -0.0301 -0.0649 -0.0192
 8452W        W 8452   6.589   7.168   8.593 -0.0939 -0.1188 -0.0542
 8453W        W 8453   4.818   9.754   4.482  0.1778 -0.1359  0.3322
 8454W        W 8454  10.248   5.618   3.757  0.3747  0.3214 -0.1619
 8455W        W 8455   1.761   7.587   3.849 -0.0011 -0.0573 -0.1867
 8456W        W 8456   8.098   9.902   9.155 -0.2387  0.0520  0.1344
 8457W        W 8457   3.152   5.473   4.443 -0.1203  0.2424  0.4393
 8458W        W 8458   1.338   2.607   1.076 -0.1418  0.0719  0.3059
 8459W        W 8459   4.637   0.368   4.534  0.0665 -0.0276  0.1139
 8460W        W 8460   4.602   7.876   4.619 -0.2922  0.0803  0.0791
 8461W        W 8461   3.755   7.865   4.201 -0.2070 -0.2300 -0.2311
 8462W        W 8462   3.010   7.039   7.410 -0.1737 -0.0273 -0.1717
 8463W        W 8463   1.637   9.801   7.683  0.1068 -0.0934 -0.3703
 8464W        W 8464   0.889   5.518   7.394  0.1002 -0.0187  0.0470
 8465W        W 8465   6.960   7.521   9.551  0.2823 -0.1323 -0.2233
 8466W        W 8466   6.191   5.717   4.842 -0.1751  0.0425 -0.0272
 8467W        W 8467   4.398   0.679   5.782  0.0341 -0.1632  0.1968
 8468W        W 8468   3.537   9.564   3.574 -0.0449 -0.1337  0.1312
 8469W        W 8469   4.990  10.227   5.690  0.0350 -0.3112 -0.5199
 8470W        W 8470   8.338   6.186   3.057  0.0208 -0.0871  0.1085
 8471W        W 8471  10.315   4.040   7.078  0.2563  0.1189  0.1970
 8472W        W 8472   6.101   2.099   5.503  0.1731 -0.0565 -0.0310
 8473W        W 8473   1.003   2.384   6.448  0.1321  0.0091 -0.0268
 8474W        W 8474   0.444   2.650   7.052  0.0468 -0.0887 -0.3508
 8475W        W 8475   6.886   6.381  10.285 -0.0378  0.1391  0.2519
 8476W        W 8476   1.043   1.504   7.264  0.1081 -0.0022 -0.2185
 8477W        W 8477   8.667   0.290   0.123 -0.1710 -0.0459  0.0710
 8478W        W 8478   3.129   7.075   4.020 -0.1455  0.1611  0.1573
 8479W        W 8479   8.032   3.224   1.002 -0.1512 -0.0206  0.3485
 8480W        W 8480   9.804   2.007   3.860  0.1288 -0.0118 -0.0503
 8481W        W 8481   5.513   7.736   3.947 -0.1683  0.1720  0.1919
 8482W        W 8482   8.387   3.161   8.316 -0.0147 -0.1925 -0.0609
 8483W        W 8483   2.045   7.322   7.370  0.2936  0.0265 -0.0465
 8484W        W 8484   0.709   5.472   5.784 -0.2205 -0.0093  0.1464
 8485W        W 8485   7.728   1.504   6.269  0.0758  0.0242 -0.2259
 8486W        W 8486   7.623   9.691   9.045  0.0046 -0.1185  0.0585
 8487W        W 8487   5.120   2.779   9.947  0.1857  0.2957 -0.0715
 8488W        W 8488   3.371   3.299   1.631 -0.0888  0.2081  0.2928
 8489W        W 8489   5.619   9.493   5.511 -0.2796 -0.1515  0.1486
 8490W        W 8490   1.938   9.414   0.347 -0.1928 -0.0008 -0.4187
 8491W        W 8491   6.263   5.381   7.091  0.0194  0.0162 -0.1596
 8492W        W 8492  10.114   1.678   6.649 -0.0186  0.0656  0.1098
 8493W        W 8493   9.895   8.807   3.924  0.3744 -0.1965 -0.1318
 8494W        W 8494   3.199   5.021   0.612 -0.0835  0.2530 -0.1313
 8495W        W 8495   1.223   8.029   4.548  0.0905  0.1020 -0.1761
 8496W        W 8496   9.402   5.442   9.192  0.0262 -0.0817 -0.2087
 8497W        W 8497   5.723   9.705   9.798  0.0501  0.3065 -0.2441
 8498W        W 8498   4.534   8.903   4.538  0.0211  0.1449 -0.3127
 8499W        W 8499   1.905   5.580   8.721 -0.0829 -0.0019  0.1928
 8500W        W 8500   3.191   0.921   8.679 -0.0220 -0.1589 -0.2003
 8501W        W 8501   0.511   6.306   5.125 -0.2120 -0.1407 -0.2856
 8502W        W 8502   9.768   6.948   6.601  0.1631 -0.4625 -0.1301
 8503W        W 8503   5.781   3.756   8.378 -0.1747 -0.1808  0.1487
 8504W        W 8504   0.154   0.286   1.891 -0.0885 -0.2193  0.0389
 8505W        W 8505   1.490   8.896   7.120 -0.0853  0.0135  0.1848
 8506W        W 8506   3.455   3.522   9.494  0.2181  0.2264 -0.0041
 8507W        W 8507   4.371   8.222   5.931  0.2426  0.3029  0.1187
 8508W        W 8508   0.980   2.084   2.615 -0.2552 -0.1777  0.3004
 8509W        W 8509   0.261   4.929   6.875  0.1365 -0.3034 -0.3166
 8510W        W 8510   8.435   2.652   8.247  0.1890 -0.0178  0.0153
 8511W        W 8511   7.870   7.370   6.928  0.0915  0.1407  0.0449
 8512W        W 8512   5.066   3.388   6.516  0.4592 -0.0137  0.3893
 8513W        W 8513   5.181   0.912   6.458  0.2394 -0.0473  0.0525
 8514W        W 8514  10.038   8.578  10.161  0.0978 -0.1342  0.0234
 8515W        W 8515   3.440   7.484   2.798 -0.4443 -0.0496  0.3605
 8516W        W 8516   4.459   6.095   2.438 -0.0130  0.2398  0.1082
 8517W        W 8517   0.631   2.781   6.583 -0.4272 -0.1154 -0.2319
 8518W        W 8518   7.420   4.412   5.834  0.0947 -0.4648  0.1598
 8519W        W 8519   6.851   0.022   9.482 -0.0954 -0.3353 -0.0531
 8520W        W 8520   3.901   8.631   4.609  0.1320  0.1849  0.0630
 8521W        W 8521   9.855   2.671   0.623 -0.1556  0.2957 -0.2846
 8522W        W 8522   6.808   9.834   0.649  0.0140 -0.1115 -0.2746
 8523W        W 8523   3.970   0.717   5.499  0.0760  0.1257 -0.1800
 8524W        W 8524   3.500   4.926   4.316 -0.0143  0.0639  0.1609
 8525W        W 8525   4.781   2.860   0.010 -0.0127  0.1448  0.0492
 8526W        W 8526   4.295   5.463   2.496  0.0147  0.1952  0.0793
 8527W        W 8527   8.006   6.943   5.307 -0.2665  0.2126  0.0937
 8528W        W 8528   5.527   2.971   8.812 -0.0322  0.2058 -0.2615
 8529W        W 8529   4.219   0.171   3.445 -0.3402  0.2427  0.2100
 8530W        W 8530   8.422   6.660   3.796 -0.0658  0.1138 -0.0736
 8531W        W 8531   6.078   3.138   6.507 -0.1816 -0.2603  0.2267
 8532W        W 8532   1.527   2.140  10.061  0.3431 -0.2888  0.2450
 8533W        W 8533   2.129   9.085   4.097 -0.3421 -0.1845 -0.0017
 8534W        W 8534   1.090  10.253   1.045  0.1627  0.1648 -0.1441
 8535W        W 8535   1.254   2.000   0.429  0.2776 -0.0217 -0.2147
 8536W        W 8536   8.027   9.448   3.566  0.2157  0.0296 -0.0738
 8537W        W 8537   4.969   3.179   2.944 -0.2565 -0.3879  0.3321
 8538W        W 8538   4.041   8.494  10.105 -0.1396 -0.3437 -0.0064
 8539W        W 8539   5.894   6.890   2.854  0.1876  0.1110 -0.0710
 8540W        W 8540   4.468   7.588   2.341  0.0982  0.0825  0.0830
 8541W        W 8541   4.727   2.230   7.859 -0.1226  0.0284  0.2309
 8542W        W 8542   1.483   7.912   1.871  0.0002 -0.2785  0.0048
 8543W        W 8543   3.492   2.020   4.968 -0.0691  0.2473 -0.0718
 8544W        W 8544   2.111   5.620   6.723 -0.2695  0.2949 -0.0036
 8545W        W 8545   5.560   6.237   5.004 -0.2125  0.1255  0.0973
 8546W        W 8546   2.987   5.772   1.741  0.0395 -0.1052 -0.0039
 8547W        W 8547   9.034   3.242   7.643 -0.0065 -0.4489 -0.0933
 8548W        W 8548   1.528   2.403   0.636  0.0538  0.0858  0.0378
 8549W        W 8549   9.605   2.859   0.174  0.1954  0.1669  0.1393
 8550W        W 8550   8.284   0.321   2.175 -0.1361  0.0012 -0.1327
 8551W        W 8551   9.186   9.988   4.960 -0.0948 -0.2797  0.0525
 8552W        W 8552   6.646   1.194   3.424 -0.2849 -0.1009  0.3233
 8553W        W 8553   0.452   8.791   1.459  0.0502  0.2415 -0.4596
 8554W        W 8554   5.194   4.637   7.265 -0.0019  0.1110 -0.0888
 8555W        W 8555   2.836   8.535   7.064 -0.2493  0.2946  0.1342
 8556W        W 8556   2.360   4.975   4.048  0.3657  0.0142 -0.2521
 8557W        W 8557   3.031   3.233   1.179  0.1040  0.2439  0.1733
 8558W        W 8558   1.788   2.909   0.971 -0.0314 -0.2167 -0.0652
 8559W        W 8559   9.855   2.320   8.614  0.1328  0.1805 -0.2360
 8560W        W 8560   5.070   2.228   3.540 -0.0634 -0.0354  0.1277
 8561W        W 8561   4.464   1.423   2.137 -0.2085 -0.2524  0.3114
 8562W        W 8562   3.906   5.266  10.011 -0.1610 -0.0615 -0.0582
 8563W        W 8563   3.354   2.450   6.850 -0.1191 -0.1075  0.3747
 8564W        W 8564   2.631   5.561   9.319 -0.1226 -0.2366  0.3354
 8565W        W 8565   4.886   4.666   8.030  0.0511 -0.3889 -0.1500
 8566W        W 8566   7.398   7.461   8.582  0.0442  0.0663  0.2367
 8567W        W 8567   8.174   2.297   8.549 -0.3027 -0.1992 -0.1094
 8568W        W 8568   3.994   3.619   0.930  0.1118 -0.1219  0.3077
 8569W        W 8569   0.260   9.161   5.919  0.2730 -0.5205 -0.1993
 8570W        W 8570   1.884   8.745   0.317  0.0638  0.2015 -0.6252
 8571W        W 8571   9.806   2.671   6.305  0.0877 -0.2310  0.1531
 8572W        W 8572   9.930   3.117   3.061  0.1104 -0.0140 -0.2254
 8573W        W 8573   3.913   4.171   6.427 -0.2007 -0.0180  0.0405
 8574W        W 8574   9.728   1.720   9.052  0.0448 -0.2549 -0.2479
 8575W        W 8575   2.141   5.215   4.631  0.0226 -0.1023  0.0398
 8576W        W 8576   2.422   6.739   8.637  0.1102 -0.0860  0.0754
 8577W        W 8577   8.994   3.778   5.470  0.1474 -0.1171 -0.1727
 8578W        W 8578   2.826   3.819   2.475 -0.0342 -0.0894 -0.2395
 8579W        W 8579   7.013   0.014   5.817  0.2201  0.2792 -0.0803
 8580W        W 8580   8.777   3.216   1.245  0.0199 -0.5650 -0.0255
 8581W        W 8581   9.918   3.816   5.827 -0.1386  0.0337 -0.0972
 8582W        W 8582   7.595   8.548   7.003 -0.0954  0.2386  0.0908
 8583W        W 8583   0.289   6.704   7.811  0.0876 -0.1425  0.1621
 8584W        W 8584   8.332   0.524   7.319  0.0828  0.3230 -0.0023
 8585W        W 8585   6.937   6.962   9.770 -0.2417 -0.0151  0.0958
 8586W        W 8586   7.185   9.555   0.333 -0.2451  0.1063  0.1581
 8587W        W 8587   4.286   5.869   6.202 -0.2052  0.2627 -0.2104
 8588W        W 8588   3.966   4.557   1.047 -0.1436  0.0174 -0.1485
 8589W        W 8589   3.773   6.317   7.551  0.1167 -0.0383 -0.3028
 8590W        W 8590   1.866   3.071   8.995 -0.0392 -0.0321  0.2990
 8591W        W 8591   0.258   4.711   8.135 -0.3122 -0.1254 -0.0724
 8592W        W 8592   4.736   5.666  10.024 -0.3032  0.3192 -0.0373
 8593W        W 8593   6.337   1.227   5.609  0.0422 -0.2645 -0.0479
 8594W        W 8594   7.325   0.175   6.148 -0.0288  0.1944 -0.2920
 8595W        W 8595   1.958   3.066   1.432 -0.2168 -0.1132 -0.2784
 8596W        W 8596   5.631   6.029   0.159 -0.2970 -0.0341 -0.1003
 8597W        W 8597   3.889   2.612   2.011  0.0132 -0.0479  0.0837
 8598W        W 8598   7.874  10.227   5.407 -0.4335  0.0624 -0.0264
 8599W        W 8599   0.526   0.378   0.941 -0.0962  0.0910 -0.0247
 8600W        W 8600   0.033   8.489   8.173  0.0132  0.3064  0.3434
 8601W        W 8601   8.486   4.312   0.110  0.1946  0.1717 -0.5527
 8602W        W 8602   4.254   1.590   0.038 -0.0046  0.0830  0.1843
 8603W        W 8603   6.598   0.078   6.152 -0.0559  0.0389  0.2285
 8604W        W 8604   8.897   4.211   3.240  0.0414  0.2065  0.0620
 8605W        W 8605   7.582   0.711   0.614 -0.0389  0.3887 -0.0659
 8606W        W 8606   6.903   2.877   1.343 -0.0552  0.1117 -0.2410
 8607W        W 8607   4.024   5.035   7.195 -0.0183 -0.0494  0.1183
 8608W        W 8608   3.873   9.804   4.070 -0.1319  0.1011 -0.1623
 8609W        W 8609   4.455   9.856   3.381 -0.2251 -0.2265 -0.0842
 8610W        W 8610   4.717   8.201   8.882 -0.0802 -0.1659 -0.0862
 8611W        W 8611   6.189   8.685   5.443  0.0692 -0.0807  0.0840
 8612W        W 8612   1.949   2.759   9.521  0.2362  0.0268  0.4066
 8613W        W 8613   2.604   0.586   0.582  0.0811 -0.2268  0.1184
 8614W        W 8614   2.901   5.041   2.788 -0.0133  0.1992  0.0710
 8615W        W 8615   3.871   2.808   7.643 -0.1005  0.1012  0.3538
 8616W        W 8616   6.401   0.807   5.874  0.2210  0.1087 -0.4053
 8617W        W 8617   2.169   0.904   8.935  0.0876  0.0321  0.0698
 8618W        W 8618   4.315  10.195  10.001 -0.0222 -0.0039  0.0196
 8619W        W 8619   1.442   3.080   1.517 -0.0140 -0.0899 -0.3910
 8620W        W 8620   6.298   9.832  10.092  0.0675 -0.1178  0.0119
 8621W        W 8621   3.459   1.770   5.386 -0.0432  0.0069  0.2565
 8622W        W 8622   8.148   7.905   8.752 -0.4942 -0.0542  0.3385
 8623W        W 8623   3.071   6.927   2.873  0.3819 -0.1742 -0.0827
 8624W        W 8624   2.679   8.422   8.885 -0.0194  0.0187  0.0126
 8625W        W 8625   7.502   2.533   6.072  0.0699  0.1961 -0.3658
 8626W        W 8626   0.987   2.066   4.677 -0.0748  0.0124  0.1577
 8627W        W 8627   8.628   4.523   5.916  0.1076  0.0175 -0.1426
 8628W        W 8628   7.799   9.753   5.160  0.1420  0.2069 -0.2008
 8629W        W 8629   5.651   1.286   0.120  0.2662 -0.2041  0.2940
 8630W        W 8630   2.561   5.372   5.146 -0.0515 -0.0066 -0.0275
 8631W        W 8631   3.094   1.854   6.160  0.1216  0.0473  0.1695
 8632W        W 8632   6.176   3.486   0.891  0.0308 -0.1122  0.0625
 8633W        W 8633   4.276   4.020   0.235  0.2656 -0.3597 -0.1834
 8634W        W 8634   7.321   1.908   9.324 -0.2162  0.0176  0.1914
 8635W        W 8635   7.126   4.748   6.692  0.1667  0.1888  0.1651
 8636W        W 8636   5.630   3.568   2.579  0.0932 -0.4987  0.1464
 8637W        W 8637   8.236   0.716   4.116  0.1283 -0.2414  0.2110
 8638W        W 8638   0.476   6.810   1.013 -0.0308 -0.1210  0.3480
 8639W        W 8639   7.463   5.353   7.739 -0.1365 -0.3027  0.2879
 8640W        W 8640   5.689   3.959   7.918 -0.3726  0.0607  0.0814
 8641W        W 8641   1.671   4.817   1.494 -0.0875  0.1782  0.0907
 8642W        W 8642   1.289   9.587   2.953  0.2097 -0.0479 -0.0847
 8643W        W 8643   8.788   3.564   5.006  0.0379  0.0341 -0.1096
 8644W        W 8644   4.979   4.129   4.544 -0.0752  0.0515 -0.0277
 8645W        W 8645   4.793   7.461   5.588  0.2649 -0.1521 -0.3161
 8646W        W 8646   1.773   4.120   0.291  0.1285 -0.1451 -0.2217
 8647W        W 8647   0.779   3.263   7.997  0.0807 -0.0127 -0.0971
 8648W        W 8648   1.656   7.530   2.662 -0.0450  0.2681 -0.0001
 8649W        W 8649   7.319   3.170   4.011  0.0577  0.1174 -0.0405
 8650W        W 8650   2.329   3.707   3.612 -0.0882  0.1979 -0.1555
 8651W        W 8651   1.705   7.501   2.038  0.0293  0.2459 -0.1073
 8652W        W 8652   2.394   4.390   1.206 -0.0231  0.1236  0.0495
 8653W        W 8653   2.007   6.715   7.356  0.0270  0.1768 -0.0096
 8654W        W 8654   3.819   6.899   2.603  0.0702  0.1956 -0.2564
 8655W        W 8655   7.186   2.169   8.014  0.0538 -0.0136 -0.0956
 8656W        W 8656   8.416   4.212   8.495 -0.1860  0.1946  0.1932
 8657W        W 8657   7.000   3.371   0.308  0.0284 -0.0926  0.0234
 8658W        W 8658   1.894   2.187   6.303 -0.1365 -0.1806 -0.0719
 8659W        W 8659   9.433   6.073   6.316  0.0169 -0.2281 -0.1363
 8660W        W 8660   9.568   6.126   4.945 -0.1108 -0.1292 -0.0776
 8661W        W 8661   9.361   5.798   8.843 -0.0956  0.0245  0.2304
 8662W        W 8662   7.241   7.589   2.351 -0.1661 -0.1560  0.0169
 8663W        W 8663   5.407   2.014   2.044 -0.0535 -0.1266  0.0990
 8664W        W 8664   7.712   5.653   8.043  0.1178  0.0766 -0.2280
 8665W        W 8665   1.535   0.517   0.319  0.0514  0.0477 -0.0438
 8666W        W 8666   5.434   5.729   2.692  0.2370 -0.1100  0.0034
 8667W        W 8667   7.970   0.581   3.049  0.0266 -0.0794 -0.1222
 8668W        W 8668   5.699   1.102   8.196 -0.1904  0.0743  0.3671
 8669W        W 8669   2.424   3.102   8.756 -0.1246 -0.0064 -0.2346
 8670W        W 8670   0.849   7.783   7.691 -0.1931  0.3858 -0.0821
 8671W        W 8671   2.922   4.121   7.138  0.0598 -0.0258 -0.3192
 8672W        W 8672  10.155   5.460   8.464  0.1216  0.0344  0.1245
 8673W        W 8673   7.336   6.285   8.744  0.0021  0.0011 -0.1060
 8674W        W 8674   6.290   0.342   3.569 -0.0214 -0.0770  0.1883
 8675W        W 8675   0.927   7.718   6.161  0.0083  0.0375 -0.2496
 8676W        W 8676   9.214   1.684   7.539  0.0868 -0.2315 -0.0098
 8677W        W 8677   0.265   2.980   9.938 -0.0196  0.0219  0.0965
 8678W        W 8678   1.646   7.626   1.530 -0.1278  0.0572 -0.1011
 8679W        W 8679   8.423  10.243   3.482  0.0494 -0.1564  0.2150
 8680W        W 8680   3.003   4.594  10.064 -0.1793  0.0663 -0.1233
 8681W        W 8681   0.791   2.255   1.145  0.0463  0.1538 -0.0504
 8682W        W 8682   5.927   3.066   1.332 -0.0826 -0.1082 -0.1742
 8683W        W 8683   1.787   4.376   5.710  0.1598 -0.2102 -0.1951
 8684W        W 8684   5.825   0.118   5.360  0.3810  0.0025 -0.1421
 8685W        W 8685   5.340   1.200   9.228 -0.2946 -0.0057 -0.1431
 8686W        W 8686   1.901  10.054   7.313 -0.0458 -0.0796 -0.2118
 8687W        W 8687  10.097   0.977   7.208  0.0811  0.0806 -0.0687
 8688W        W 8688   4.304   3.006   6.271 -0.2852  0.2640  0.3028
 8689W        W 8689   0.722   9.513   5.044  0.1634  0.1203 -0.0580
 8690W        W 8690   1.754   7.288   1.144  0.2430  0.0119  0.3946
 8691W        W 8691   6.955   1.138   8.978 -0.1050 -0.2660 -0.2497
 8692W        W 8692   6.737   2.988   1.745  0.1889 -0.2010  0.0687
 8693W        W 8693   6.640   6.700   3.579  0.0721  0.0364  0.2926
 8694W        W 8694   0.203   3.544   1.614  0.0979 -0.0813  0.0463
 8695W        W 8695   0.254   5.928   3.903  0.2187 -0.0255 -0.0188
 8696W        W 8696   1.658   1.556   1.358  0.1510  0.0663 -0.1294
 8697W        W 8697   6.581   9.645   1.081  0.1471 -0.1929 -0.0859
 8698W        W 8698  10.257   1.536   5.159 -0.1360  0.2573 -0.0649
 8699W        W 8699   9.117   8.247   6.503 -0.0884  0.0633 -0.1094
 8700W        W 8700   2.337   3.817   0.945  0.1398 -0.3955  0.0483
 8701W        W 8701   9.791   2.940   7.583  0.2955  0.0866 -0.3284
 8702W        W 8702   2.348   5.815   7.138 -0.3775 -0.0771 -0.1730
 8703W        W 8703   3.463   8.420   5.628  0.1648 -0.2568 -0.1215
 8704W        W 8704   2.824   8.044  10.242  0.4633  0.3503 -0.0594
 8705W        W 8705   0.348   3.964   3.292  0.1229 -0.3126 -0.1805
 8706W        W 8706   1.169   0.925   6.429  0.1334  0.1430  0.1752
 8707W        W 8707   8.544   0.227   8.783  0.1652 -0.0019  0.1527
 8708W        W 8708   5.288   7.844   2.465 -0.4121 -0.1572 -0.1482
 8709W        W 8709   6.340   6.182   4.827  0.2129 -0.1099 -0.1267
 8710W        W 8710   5.425  10.303   7.536 -0.2193 -0.0689  0.1611
 8711W        W 8711   7.114   9.104   2.097  0.0721 -0.0679  0.3460
 8712W        W 8712  10.221   0.223   0.392  0.2077 -0.0984  0.0279
 8713W        W 8713   7.617   0.159   8.822  0.0365  0.0429 -0.0379
 8714W        W 8714   5.499   4.267   9.959  0.1972  0.0194 -0.1454
 8715W        W 8715   8.272   4.653   6.653  0.3716 -0.0755  0.0975
 8716W        W 8716   9.005   0.438   4.657 -0.2443 -0.1167 -0.1080
 8717W        W 8717   6.296   7.709   7.886  0.2202 -0.0349 -0.1943
 8718W        W 8718   8.664   2.159   8.363  0.2543  0.2325  0.0390
 8719W        W 8719   3.239   9.471  10.031  0.0800  0.1625 -0.0476
 8720W        W 8720   6.159  10.041   6.017  0.0944 -0.4164  0.0199
 8721W        W 8721   8.435   7.789   0.133  0.1185 -0.1127  0.0475
 8722W        W 8722   8.403   7.594   9.960 -0.3419  0.1638  0.0012
 8723W        W 8723   6.563   2.480   0.297 -0.0425  0.1159  0.2563
 8724W        W 8724   1.569   6.404   7.441 -0.2040 -0.3282  0.0772
 8725W        W 8725   8.943   4.922   2.672  0.3588  0.1192 -0.0178
 8726W        W 8726   9.532   8.800   2.781 -0.2431 -0.2327  0.0044
 8727W        W 8727   8.356   4.240   9.904  0.0075 -0.1440 -0.0025
 8728W        W 8728   4.205   5.684   7.655  0.0928  0.1555 -0.2390
 8729W        W 8729   4.473   9.700   5.534 -0.0643 -0.1575  0.0476
 8730W        W 8730   2.018   9.436   6.823 -0.0850 -0.0093  0.0200
 8731W        W 8731   7.947   1.018   8.778  0.0014 -0.0145  0.0644
 8732W        W 8732   1.301   0.528   7.722  0.2114  0.1029  0.1433
 8733W        W 8733   4.699   3.783   7.415 -0.0581  0.0994  0.2007
 8734W        W 8734   9.139   2.581   2.709  0.1735 -0.3631 -0.2599
 8735W        W 8735   4.500   2.853   5.771 -0.0568  0.0672  0.0038
 8736W        W 8736   6.805   8.599   3.400  0.1509  0.0103 -0.2174
 8737W        W 8737   1.671   5.455   5.068 -0.3051  0.4118  0.1769
 8738W        W 8738   8.113   2.077  10.095 -0.0483  0.1862  0.1439
 8739W        W 8739   2.051   3.590   1.468  0.0015 -0.4783 -0.2434
 8740W        W 8740   7.410   9.363   9.535 -0.2986 -0.1961 -0.0036
 8741W        W 8741   2.964   6.618   6.993  0.3731 -0.1328 -0.1403
 8742W        W 8742   2.720   2.651   9.549  0.1511 -0.3463  0.0211
 8743W        W 8743   1.608   8.096   5.228 -0.1202  0.2628  0.0335
 8744W        W 8744   8.565   0.850   3.583 -0.0001 -0.1379  0.0592
 8745W        W 8745   6.631   5.490   8.055 -0.1323  0.0239 -0.0613
 8746W        W 8746   4.116   8.247   8.872  0.2491 -0.1770  0.2132
 8747W        W 8747   2.395   3.119   9.459 -0.0124 -0.2194  0.0785
 8748W        W 8748   3.140   9.355   3.372  0.2243  0.3272 -0.1182
 8749W        W 8749   5.792   0.331   4.836  0.0886 -0.0417  0.1573
 8750W        W 8750   9.726   5.911   2.932 -0.2790  0.3047 -0.1205
 8751W        W 8751   5.304   8.691   8.317  0.0258  0.2675 -0.0196
 8752W        W 8752   2.123   4.334   0.748 -0.1151  0.3272  0.0967
 8753W        W 8753   2.402   8.243   6.388 -0.0760  0.0396  0.3770
 8754W        W 8754   2.990   9.639   3.754  0.2402  0.1234 -0.0757
 8755W        W 8755   3.005   0.436   5.569 -0.0618 -0.3397  0.2133
 8756W        W 8756   7.662   3.431   3.364 -0.1069 -0.0918  0.0501
 8757W        W 8757   3.648   4.574   1.947 -0.0556  0.2006 -0.0044
 8758W        W 8758   6.661  10.023   8.991  0.0190 -0.1720  0.0746
 8759W        W 8759   1.101   0.819   8.318 -0.3421  0.1443 -0.0315
 8760W        W 8760   8.976   7.264   6.372  0.2343 -0.2498  0.0625
 8761W        W 8761   9.008   2.718   0.076  0.4275 -0.1452 -0.0799
 8762W        W 8762   4.306   2.921   7.383  0.0701 -0.3546  0.0585
 8763W        W 8763   3.849   2.155   2.136 -0.0847  0.1348 -0.2566
 8764W        W 8764   5.673   7.263   6.430  0.0215 -0.0826  0.1290
 8765W        W 8765   2.356   3.032   5.354  0.4848 -0.0658  0.0257
 8766W        W 8766   2.174   1.377   4.397  0.0487 -0.0287 -0.1742
 8767W        W 8767   4.876   5.377   0.784  0.1151 -0.3072  0.0429
 8768W        W 8768   5.023   4.284   6.960  0.1321 -0.3596  0.1385
 8769W        W 8769   9.021   6.397   3.645  0.0710  0.0698  0.2002
 8770W        W 8770   1.157   6.561   9.400 -0.1124  0.1029 -0.1574
 8771W        W 8771   2.719   5.269   8.338  0.1497 -0.1560  0.2392
 8772W        W 8772   2.340   8.180   3.680  0.0995 -0.1866 -0.2953
 8773W        W 8773   5.169   5.005   7.732  0.3428  0.0037 -0.1949
 8774W        W 8774   8.449   9.415   2.365 -0.0316  0.2953  0.3030
 8775W        W 8775   1.663   5.128   9.258 -0.1052  0.0325  0.0225
 8776W        W 8776   2.423   0.284   0.944 -0.1854  0.0446  0.0386
 8777W        W 8777   7.881   7.504   8.478  0.1601 -0.1107 -0.0005
 8778W        W 8778   0.733   0.787   5.094  0.2668 -0.1929 -0.0757
 8779W        W 8779   5.023   4.559   1.802  0.3447 -0.3964 -0.2261
 8780W        W 8780   3.566   5.607   0.485  0.0715  0.4332  0.0179
 8781W        W 8781   3.918   3.954   8.619 -0.2054  0.1737 -0.0665
 8782W        W 8782   3.250   3.944   6.782 -0.2234 -0.0855  0.1726
 8783W        W 8783   2.165   1.426   8.868  0.1197 -0.0311 -0.1538
 8784W        W 8784   2.885   3.537   2.015  0.0517 -0.1166  0.0948
 8785W        W 8785   6.497   2.353   9.301  0.1629  0.3640 -0.2265
 8786W        W 8786   3.029   1.415  10.101 -0.4330  0.1027  0.2023
 8787W        W 8787   5.041   1.386   4.768 -0.0937 -0.0215  0.0172
 8788W        W 8788   6.939   8.185   0.859 -0.0852  0.2198  0.1714
 8789W        W 8789   6.176   0.040   6.497  0.2100  0.2410 -0.0554
 8790W        W 8790   1.907   5.837   9.158 -0.2749 -0.1272  0.2810
 8791W        W 8791   5.297   6.271   9.542  0.1044  0.0751 -0.2090
 8792W        W 8792  10.169   6.223   4.984 -0.0097 -0.0608 -0.3317
 8793W        W 8793   2.005   3.957   3.334 -0.0736  0.0393 -0.0575
 8794W        W 8794   9.434   8.730   6.534 -0.2945 -0.3024 -0.0991
 8795W        W 8795   2.445   5.943   9.128  0.1975 -0.3299  0.1858
 8796W        W 8796   8.088   2.781   1.597 -0.0590  0.1826  0.3773
 8797W        W 8797   8.532   0.834   0.073  0.2316 -0.0895  0.2172
 8798W        W 8798   1.710   4.161   4.118 -0.0908  0.2795  0.2535
 8799W        W 8799   8.141   5.587   3.093 -0.1950  0.1827 -0.0521
 8800W        W 8800   7.007   8.820   3.811 -0.1612 -0.0497  0.0631
 8801W        W 8801   3.345   1.979   6.558  0.1028 -0.0942 -0.2085
 8802W        W 8802   4.094   9.814   5.196 -0.0162  0.1267 -0.2491
 8803W        W 8803   1.258   3.481   7.799 -0.0083 -0.0856 -0.1079
 8804W        W 8804   1.579   3.714   4.839  0.0429  0.0847  0.3416
 8805W        W 8805   1.181   0.533   5.647 -0.0675  0.0703  0.0386
 8806W        W 8806   4.204   6.152   3.146  0.1249 -0.4746 -0.0199
 8807W        W 8807   2.526   1.366   1.909 -0.0781 -0.3552 -0.2171
 8808W        W 8808   9.747   1.089   7.932  0.1239  0.5988  0.1837
 8809W        W 8809   1.701   1.471   4.638 -0.0496  0.3841 -0.1127
 8810W        W 8810   9.520   3.137   4.269  0.0115 -0.1790 -0.1035
 8811W        W 8811   1.797   5.913   3.189  0.0722  0.0389 -0.0440
 8812W        W 8812   1.073   1.145   2.757 -0.0422 -0.0170 -0.1768
 8813W        W 8813   5.133   4.300   9.052  0.1213  0.2779 -0.1572
 8814W        W 8814   8.351   9.184   1.882 -0.0080 -0.0547 -0.0019
 8815W        W 8815   1.294   9.848   3.960 -0.1553 -0.1191  0.0193
 8816W        W 8816   8.926   2.542   8.459 -0.3259  0.3493  0.0389
 8817W        W 8817   0.208   9.090   2.233  0.0713  0.0297 -0.0065
 8818W        W 8818   2.204   8.556   9.024 -0.1549 -0.3589 -0.1200
 8819W        W 8819   5.664   3.277  10.129  0.1639 -0.0499 -0.0390
 8820W        W 8820   8.827   9.534   1.993  0.2075 -0.2076  0.1541
 8821W        W 8821   6.591   0.192   8.677 -0.0779  0.0367  0.2758
 8822W        W 8822   6.161   1.705   3.848  0.0214  0.3001 -0.0306
 8823W        W 8823   6.118   4.225   0.836 -0.3563 -0.1146  0.0050
 8824W        W 8824   8.505   0.890   5.129  0.0824  0.1473 -0.3609
 8825W        W 8825   9.387   2.203   1.775 -0.0866 -0.1594  0.2051
 8826W        W 8826   9.520   0.880   5.380  0.0124 -0.0992 -0.2269
 8827W        W 8827   4.936   4.816   8.627  0.3911 -0.0403 -0.1996
 8828W        W 8828   9.269   5.285   0.186  0.0098  0.2869 -0.1641
 8829W        W 8829   7.991   5.096   8.921  0.0394  0.0383 -0.0933
 8830W        W 8830   4.375   4.669   2.435  0.0721 -0.0378  0.0397
 8831W        W 8831   8.485   9.063   6.590 -0.1920  0.1077 -0.0740
 8832W        W 8832   5.680   9.804   5.047 -0.2494 -0.2682 -0.0806
 8833W        W 8833   8.641   0.557   0.548  0.2397  0.0722  0.1703
 8834W        W 8834   1.365   6.338   9.917 -0.0455  0.0380  0.0413
 8835W        W 8835   6.975   6.972   6.561  0.0360 -0.0946 -0.1584
 8836W        W 8836   9.863   3.831   7.287  0.0795 -0.0303 -0.0205
 8837W        W 8837   2.712   7.145   8.829 -0.0673 -0.0682 -0.0459
 8838W        W 8838   5.177   4.941   2.849  0.0389  0.0469 -0.1027
 8839W        W 8839   6.259   1.836   0.946 -0.1488  0.0969 -0.0469
 8840W        W 8840   9.326   2.358   6.464 -0.1928  0.0686  0.2770
 8841W        W 8841   0.264   6.916   2.023 -0.1595 -0.2440  0.1064
 8842W        W 8842   2.996   4.003   3.665 -0.0758 -0.0035  0.2422
 8843W        W 8843   0.209   1.128   2.186  0.1430 -0.1125  0.1631
 8844W        W 8844  10.196   7.526   4.015  0.0080  0.0011 -0.1968
 8845W        W 8845   4.345  10.275   1.981  0.0236 -0.1070  0.3114
 8846W        W 8846   5.050   2.830   5.740 -0.1758  0.0712  0.1674
 8847W        W 8847   7.969   7.869   1.067  0.1358  0.1884  0.0171
 8848W        W 8848   2.878   9.411   4.290  0.0590 -0.0691 -0.3473
 8849W        W 8849  10.154   4.976   3.043  0.3198  0.4043 -0.2420
 8850W        W 8850   8.380   4.368   4.186  0.1278  0.0847  0.0923
 8851W        W 8851   7.716   5.545   3.568  0.1504 -0.0738  0.3786
 8852W        W 8852   3.677   8.278   2.000 -0.2703  0.0774 -0.0553
 8853W        W 8853   9.407   9.845   2.249  0.0753 -0.2362 -0.0395
 8854W        W 8854   3.751   8.244   7.169 -0.1198  0.1963 -0.0625
 8855W        W 8855   3.460   6.578   2.838 -0.0275  0.0522 -0.0242
 8856W        W 8856   6.850   0.287   7.793 -0.0974  0.0962  0.2421
 8857W        W 8857   3.856   2.341   0.309  0.0115 -0.1778 -0.1814
 8858W        W 8858   8.885   8.596   7.326  0.1026 -0.1061 -0.1091
 8859W        W 8859   1.067   5.315   3.319  0.2334 -0.0636 -0.3054
 8860W        W 8860   4.585   2.473   4.275  0.0076 -0.0857 -0.0184
 8861W        W 8861   3.196   9.597   0.804  0.0510  0.1099 -0.2589
 8862W        W 8862   4.487   5.969   7.935 -0.0046 -0.0563 -0.2500
 8863W        W 8863   8.767   4.595   5.079 -0.3562  0.1033  0.0376
 8864W        W 8864   6.156   4.199   9.346 -0.0402  0.0100  0.0882
 8865W        W 8865   7.647  10.116   8.236  0.4300  0.1400 -0.2591
 8866W        W 8866   8.917   2.751   0.899 -0.0039  0.2442 -0.0494
 8867W        W 8867   2.021   4.469   7.425 -0.0861 -0.0069  0.1331
 8868W        W 8868   1.089   2.853   6.237  0.0659  0.2783  0.1029
 8869W        W 8869   5.315   4.694   8.356 -0.0049  0.0474 -0.0514
 8870W        W 8870   2.302   6.006   1.150  0.0420 -0.1303  0.1335
 8871W        W 8871   8.428   5.573   9.023  0.0950 -0.0259 -0.0412
 8872W        W 8872   1.109   1.877   8.462 -0.0923 -0.3559  0.0425
 8873W        W 8873  10.209   7.746   2.060 -0.0185  0.2311  0.0435
 8874W        W 8874   3.393   5.123   9.216  0.2950 -0.2861 -0.3355
 8875W        W 8875   3.766   6.865   8.641  0.0537 -0.0504  0.3663
 8876W        W 8876   4.361   5.326   0.893 -0.0960 -0.1063  0.0582
 8877W        W 8877   6.849   1.777   4.863  0.1175 -0.2472 -0.0910
 8878W        W 8878   3.043   0.327   0.826 -0.1105  0.0995  0.1289
 8879W        W 8879   7.305   2.000   6.881 -0.0378  0.1441 -0.1701
 8880W        W 8880   1.915   7.434   6.472 -0.0826 -0.1913 -0.2183
 8881W        W 8881   9.803   6.807   8.214 -0.0460  0.2928  0.2036
 8882W        W 8882   7.055   0.876   6.700 -0.1227  0.0645 -0.0864
 8883W        W 8883   5.804   5.645   4.067  0.2817 -0.2024 -0.1868
 8884W        W 8884   7.315   5.961   1.842 -0.2345  0.1636 -0.3424
 8885W        W 8885   9.654   7.531   4.106 -0.1553 -0.1070 -0.0204
 8886W        W 8886   6.144   6.389   7.038 -0.1107 -0.1867  0.0264
 8887W        W 8887   3.047   5.639   5.986  0.0029  0.2464  0.2275
 8888W        W 8888   4.146   6.384   9.961 -0.0885 -0.1021 -0.1984
 8889W        W 8889   5.864   6.737   3.879  0.1491  0.0341  0.1476
 8890W        W 8890   5.381   3.755   3.859  0.0414 -0.0200 -0.0376
 8891W        W 8891   3.457   3.333   8.639 -0.0896  0.2919  0.2747
 8892W        W 8892   6.946   2.695   8.457  0.0569 -0.3070 -0.1620
 8893W        W 8893   1.374   2.368   9.228 -0.0694 -0.1549  0.0981
 8894W        W 8894   1.153   1.463   3.614  0.0831  0.0290 -0.0894
 8895W        W 8895   3.487   6.588   1.428  0.0749  0.2319  0.1357
 8896W        W 8896   4.547   1.184   3.982 -0.2069 -0.1717  0.1153
 8897W        W 8897   7.631   1.179   9.086 -0.0412  0.1132  0.0277
 8898W        W 8898   8.735   9.825   4.992  0.0619 -0.0082  0.1958
 8899W        W 8899   6.397   6.470   9.901  0.1412  0.1241 -0.0574
 8900W        W 8900   8.306   7.397   8.234  0.0057  0.2761  0.0361
 8901W        W 8901   5.399   9.003   9.003  0.0312  0.2084 -0.0639
 8902W        W 8902   6.808   0.981   3.858 -0.2012 -0.1964  0.0043
 8903W        W 8903   9.571   1.768   6.846 -0.1760  0.1844  0.1967
 8904W        W 8904   2.575   1.055   0.365  0.2075 -0.2286 -0.1127
 8905W        W 8905   7.728   7.171   2.354 -0.1674 -0.0186  0.3738
 8906W        W 8906   1.633   0.279  10.178  0.0088 -0.0602  0.1043
 8907W        W 8907   7.158   8.277   6.928  0.1014 -0.0858  0.3414
 8908W        W 8908   5.262   4.083   4.965  0.1937  0.0798 -0.0864
 8909W        W 8909   5.786   1.075   1.876  0.1767 -0.0152  0.1006
 8910W        W 8910   9.061   6.579   0.526 -0.0513  0.1947 -0.2765
 8911W        W 8911   3.118   0.305   9.573  0.1279 -0.0192 -0.1516
 8912W        W 8912   9.464   9.825   9.375 -0.1734 -0.3312 -0.0015
 8913W        W 8913   4.910   9.215   9.088 -0.1095 -0.2402  0.2615
 8914W        W 8914   3.616   2.864   0.739 -0.0548  0.3813 -0.0186
 8915W        W 8915   5.742   9.012   0.264 -0.0893  0.0987  0.3155
 8916W        W 8916   6.167   3.463   2.446  0.3765  0.1742 -0.2374
 8917W        W 8917   1.602   1.174   8.395  0.4651  0.1787  0.2765
 8918W        W 8918   0.294   7.168   9.060 -0.0980  0.0587 -0.1017
 8919W        W 8919   4.814   0.717   3.879  0.0650  0.1910 -0.1599
 8920W        W 8920  10.056  10.074   8.849 -0.1550 -0.3406  0.0459
 8921W        W 8921   0.479   8.311   1.469  0.3312 -0.1113  0.2528
 8922W        W 8922   8.388   6.852   0.263  0.1459  0.0384  0.1697
 8923W        W 8923   1.209   4.014   2.350  0.2720 -0.1650  0.0186
 8924W        W 8924   8.419   6.752   9.698 -0.0110  0.1168 -0.1990
 8925W        W 8925   5.947   5.077   7.422 -0.1578 -0.2134  0.0637
 8926W        W 8926   0.423   0.684   6.084 -0.1324  0.0803 -0.1147
 8927W        W 8927   7.457   7.294   0.757 -0.2287 -0.0332 -0.6581
 8928W        W 8928   8.242   2.666   6.915 -0.2359 -0.4513 -0.1387
 8929W        W 8929   0.746   0.802   0.665  0.0115 -0.0793  0.0397
 8930W        W 8930   0.380   4.172   5.652 -0.0195  0.0173  0.1664
 8931W        W 8931   8.241   4.732   1.261  0.3015 -0.2490  0.3548
 8932W        W 8932   0.251   9.377   9.130 -0.0263  0.1569 -0.1478
 8933W        W 8933   3.340   0.277   2.249 -0.0763 -0.1906  0.0979
 8934W        W 8934   8.130  10.040   1.295  0.2354  0.1511 -0.0924
 8935W        W 8935   4.377   6.141   7.433  0.0525  0.0847 -0.1497
 8936W        W 8936   8.097   5.003   2.565 -0.0053  0.3348  0.0586
 8937W        W 8937   8.552  10.332   6.641 -0.1248  0.4282  0.1364
 8938W        W 8938   5.362   4.030   6.571 -0.0512  0.0324  0.4115
 8939W        W 8939   4.915   4.742   0.384  0.1680 -0.0015  0.2778
 8940W        W 8940   2.441   4.476   7.828 -0.1749 -0.0054  0.0943
 8941W        W 8941   4.340   4.152   3.357  0.1420  0.0554  0.0899
 8942W        W 8942   4.240   5.274   9.096  0.0180  0.2311 -0.0355
 8943W        W 8943   2.608   4.801   0.001  0.1033 -0.1776 -0.0446
 8944W        W 8944   1.402   6.384   4.821 -0.2723 -0.0157  0.1377
 8945W        W 8945   5.894   2.347   2.782  0.1029 -0.5863 -0.1321
 8946W        W 8946   0.282   3.686   5.616 -0.1269 -0.2087 -0.2755
 8947W        W 8947   0.262   7.630   6.774 -0.3519 -0.0252  0.3955
 8948W        W 8948   5.235   0.896   3.548 -0.0031 -0.1194  0.1468
 8949W        W 8949   2.185   9.605   4.036  0.0572 -0.0288 -0.0878
 8950W        W 8950  10.158   1.182   8.809  0.3083 -0.3045  0.2583
 8951W        W 8951   4.651   3.017   3.637 -0.0554  0.2294  0.1811
 8952W        W 8952   2.690   3.806   3.304  0.1055  0.0546  0.1625
 8953W        W 8953   5.475   1.783   0.202  0.2439  0.2173 -0.1571
 8954W        W 8954   3.958   9.858   6.579 -0.0995 -0.1556  0.1656
 8955W        W 8955   6.576   2.578   7.269  0.2913  0.2159  0.0814
 8956W        W 8956   4.341   4.953  10.096  0.4084  0.1506  0.3252
 8957W        W 8957   2.371   5.576   5.770  0.0320 -0.1992 -0.1520
 8958W        W 8958   7.602   1.638   0.242  0.0084  0.1627 -0.0789
 8959W        W 8959   7.920   5.840   5.379  0.2122 -0.0428 -0.0861
 8960W        W 8960   7.053   9.853   7.670  0.2087 -0.3401  0.0289
 8961W        W 8961   0.693   6.777   9.451  0.1011 -0.0047 -0.3107
 8962W        W 8962   6.208   9.377   9.018  0.0965  0.0930 -0.0187
 8963W        W 8963   9.866   7.493   1.778  0.3131 -0.0368 -0.0695
 8964W        W 8964   0.699   9.165   9.245 -0.1768  0.1097 -0.0675
 8965W        W 8965   0.018   5.229   9.766  0.3961 -0.0813  0.0147
 8966W        W 8966   5.615   2.699   7.980  0.1116 -0.0589 -0.0319
 8967W        W 8967   6.042   5.910   6.337 -0.0305  0.1535 -0.1327
 8968W        W 8968   7.880   1.048   3.888 -0.0960  0.1861 -0.0231
 8969W        W 8969   8.489   8.492   9.724  0.2429 -0.0228  0.0150
 8970W        W 8970   3.159   0.822   2.234  0.2056  0.0758  0.0383
 8971W        W 8971   3.391   5.542   1.994 -0.3124 -0.0133  0.2141
 8972W        W 8972   1.274   7.982   2.715  0.0785 -0.2287  0.1560
 8973W        W 8973  10.058   0.495   0.948 -0.2794  0.0558  0.3513
 8974W        W 8974   5.287   6.457   2.007 -0.0539  0.0734  0.0338
 8975W        W 8975   9.147   8.606   8.410  0.0207  0.0260  0.0709
 8976W        W 8976  10.116   7.009   9.850  0.1777  0.0389  0.2458
 8977W        W 8977   3.869   5.270   3.870  0.1932 -0.2481 -0.1011
 8978W        W 8978   0.328   2.288   3.075  0.3666 -0.1092  0.1752
 8979W        W 8979   7.297   9.657   3.493 -0.3331 -0.2265 -0.3157
 8980W        W 8980   9.999   2.488   3.783 -0.2478 -0.0065 -0.0258
 8981W        W 8981   9.356   9.529   1.246 -0.3252 -0.0287 -0.0380
 8982W        W 8982   8.780   2.419   7.934  0.0325 -0.1051 -0.4539
 8983W        W 8983   7.858   1.549   3.274 -0.0035 -0.0822  0.2810
 8984W        W 8984   2.086   5.601   9.961  0.1681  0.0023  0.0019
 8985W        W 8985  10.065   0.991   6.630  0.2143 -0.0068  0.0059
 8986W        W 8986   9.538   2.626   8.954  0.0529 -0.1144  0.0418
 8987W        W 8987   8.975   5.559   4.642  0.1961 -0.0233  0.2721
 8988W        W 8988   2.971   2.280   0.325  0.0388 -0.1922  0.0986
 8989W        W 8989   6.232   3.855   4.286  0.2471 -0.0297  0.0090
 8990W        W 8990   0.211   0.952   3.045  0.0951  0.2187  0.3476
 8991W        W 8991   2.241   4.511   0.273  0.1742  0.1608 -0.1751
 8992W        W 8992   3.101   1.686   7.376 -0.3745  0.3211 -0.0244
 8993W        W 8993   3.128   1.500   4.230  0.0658 -0.0603  0.0273
 8994W        W 8994   1.291   9.551   2.260 -0.0770  0.2667  0.1333
 8995W        W 8995  10.107   8.951   1.993  0.2162  0.1413 -0.1713
 8996W        W 8996   3.901   9.024   2.214  0.0636 -0.1071  0.0508
 8997W        W 8997   2.503   1.715   8.515  0.4131 -0.2547  0.1734
 8998W        W 8998   2.381  10.036   3.138 -0.1019 -0.0759 -0.0132
 8999W        W 8999   7.587   3.766   4.928  0.0226  0.2124  0.2163
 9000W        W 9000   8.006   6.898   2.656 -0.0103  0.0277  0.0840
 9001W        W 9001   1.910   0.590   8.294  0.1588  0.2723 -0.1335
 9002W        W 9002   1.681   1.698   1.841 -0.0028  0.1502  0.0489
 9003W        W 9003   8.385   5.122   9.237 -0.2604 -0.2252  0.1866
 9004W        W 9004   5.013   5.983   1.592  0.1283  0.0611 -0.1525
 9005W        W 9005   5.583   6.298   6.471  0.0485  0.2495 -0.0104
 9006W        W 9006   1.141   6.479   4.419  0.0407  0.0891 -0.0333
 9007W        W 9007   7.254   0.538   4.387  0.0334 -0.1629  0.2737
 9008W        W 9008   5.487   1.812  10.078 -0.3047  0.2868  0.0208
 9009W        W 9009   0.683   8.785   5.245  0.3120  0.0478 -0.1547
 9010W        W 9010   0.196   2.493   9.794 -0.0118 -0.0324 -0.1432
 9011W        W 9011   4.715   6.942   7.400 -0.3723  0.0839 -0.0660
 9012W        W 9012   2.433   0.846   8.062  0.1311 -0.2802 -0.3753
 9013W        W 9013   2.188   6.047   4.550  0.1062 -0.0378  0.1915
 9014W        W 9014   1.357   7.293   3.633  0.2823 -0.4378 -0.0374
 9015W        W 9015   8.820   6.670  10.016  0.1082  0.2129  0.0792
 9016W        W 9016   8.417   5.156  10.005 -0.1101 -0.2938  0.2464
 9017W        W 9017   0.671   1.589   3.732 -0.1942  0.1960 -0.0912
 9018W        W 9018   7.268   7.036   2.558 -0.0385 -0.1250 -0.0301
 9019W        W 9019   7.903   9.869   7.882  0.0411  0.2184 -0.3171
 9020W        W 9020   5.287   0.446   6.368 -0.1746 -0.2054  0.0087
 9021W        W 9021   5.748   3.366   8.072 -0.2579  0.1033 -0.2592
 9022W        W 9022   9.469   0.195   7.450 -0.4352 -0.1695 -0.2286
 9023W        W 9023   7.390   0.257   3.990 -0.1687  0.1428 -0.4077
 9024W        W 9024   0.553   9.903  10.322 -0.0392 -0.1943 -0.0136
 9025W        W 9025   1.245   9.056   8.834  0.3374  0.1182  0.1498
 9026W        W 9026   9.868   1.582   4.209 -0.0431 -0.2379  0.1865
 9027W        W 9027   0.867   9.674   8.438 -0.0661 -0.0346 -0.3391
 9028W        W 9028   6.039   6.325   7.860 -0.1758  0.2443 -0.1427
 9029W        W 9029   7.872   9.669   1.781  0.0257  0.0660 -0.0357
 9030W        W 9030   8.520   2.315   9.490  0.0058  0.1396 -0.0133
 9031W        W 9031   0.609   5.286   7.011 -0.2432  0.0423 -0.2028
 9032W        W 9032   6.465   9.055   8.763  0.0851 -0.3633  0.1531
 9033W        W 9033   9.764   9.427   6.138  0.2558  0.0954  0.0452
 9034W        W 9034   7.038   1.582   8.016 -0.0412 -0.1045 -0.2450
 9035W        W 9035   6.984   8.329   7.421 -0.0541 -0.0779  0.2076
 9036W        W 9036   4.356   2.104   0.175 -0.1940  0.0541  0.1427
 9037W        W 9037   5.644   0.990   9.662  0.2081  0.4572 -0.0801
 9038W        W 9038   9.679   8.224   4.586 -0.2724 -0.0681 -0.2425
 9039W        W 9039   5.166   6.002   9.086  0.1019  0.0746 -0.2213
 9040W        W 9040   9.410   1.606   2.729 -0.0161 -0.3938 -0.0816
 9041W        W 9041   3.829   5.555   7.023 -0.2297 -0.1935  0.1725
 9042W        W 9042   7.549   5.232   8.786  0.2741  0.0117  0.1752
 9043W        W 9043   3.055   1.177   7.259 -0.2875  0.1326  0.4149
 9044W        W 9044   0.301   8.105   2.367 -0.1768 -0.2278  0.0296
 9045W        W 9045   0.450   6.214   0.817 -0.2021  0.1241 -0.2633
 9046W        W 9046   0.758   3.960   8.607 -0.1185 -0.4074 -0.0786
 9047W        W 9047   3.532   6.441   2.264  0.1892  0.1606 -0.1683
 9048W        W 9048   4.849   7.454   8.618  0.0892  0.0282  0.1536
 9049W        W 9049   5.340   5.511   3.941  0.3906 -0.3698  0.0608
 9050W        W 9050   7.099   2.323   0.711 -0.1678 -0.1045  0.0081
 9051W        W 9051   2.358   7.024  10.231 -0.1851 -0.1574 -0.0640
 9052W        W 9052   6.849   5.930   0.417  0.2603  0.0401 -0.3596
 9053W        W 9053   4.830   9.703   3.806 -0.0809 -0.0538  0.0468
 9054W        W 9054   1.288   9.106   1.560  0.1698  0.0319  0.1298
 9055W        W 9055   3.188   9.095   1.331 -0.0287 -0.0352 -0.0400
 9056W        W 9056   0.446   8.142   9.464  0.0567  0.0193  0.3704
 9057W        W 9057   7.041   7.340   7.927  0.1103  0.1151  0.1058
 9058W        W 9058   1.417   0.136   4.919  0.0936 -0.2234  0.1302
 9059W        W 9059   8.365   4.142   9.043  0.6199  0.0660  0.1639
 9060W        W 9060   0.855   5.582   6.740  0.3438  0.1295  0.0451
 9061W        W 9061   5.308   9.105   6.745 -0.2183 -0.1355  0.0114
 9062W        W 9062   4.858   8.752   0.075  0.2688  0.0777  0.2043
 9063W        W 9063   7.745   2.130   9.231  0.1083 -0.0854 -0.0984
 9064W        W 9064   9.167   8.769   9.308  0.0701  0.0407  0.0809
 9065W        W 9065   1.648   8.320   3.026  0.1868 -0.0405  0.1519
 9066W        W 9066   8.889   9.689   7.110  0.0870 -0.2402  0.2879
 9067W        W 9067   6.550   2.147  10.214 -0.1580  0.2126 -0.0196
 9068W        W 9068   2.001   9.816   9.749  0.0103 -0.1156  0.0538
 9069W        W 9069   1.849   7.301   3.427  0.1134 -0.0473  0.2253
 9070W        W 9070   8.382   8.198   8.370  0.4651  0.4267  0.0387
 9071W        W 9071   7.981   4.516   8.913  0.3017  0.1618  0.1075
 9072W        W 9072   6.365   6.870   7.790 -0.3645 -0.2106  0.1118
 9073W        W 9073   4.206   6.929   9.369 -0.3892  0.1072 -0.1026
 9074W        W 9074   8.564   6.210   3.636 -0.2235 -0.0931  0.2062
 9075W        W 9075   0.538   3.537   2.383  0.1890  0.1453 -0.0219
 9076W        W 9076   5.539   9.762   1.144 -0.1030  0.0467 -0.0631
 9077W        W 9077   3.828  10.269   5.238 -0.2193  0.2239  0.1610
 9078W        W 9078   6.957  10.020   8.633  0.0141 -0.1591  0.2569
 9079W        W 9079   7.534   5.971   4.971  0.0086 -0.1786 -0.1131
 9080W        W 9080   1.350   0.371   8.198  0.1543 -0.2073  0.0706
 9081W        W 9081   1.306   3.891   6.141 -0.1911  0.1767  0.0815
 9082W        W 9082   9.600   5.098   4.192  0.1114 -0.1911  0.3041
 9083W        W 9083   8.782   6.372   9.537  0.2153  0.0946  0.1567
 9084W        W 9084   7.356   7.876   0.923  0.0392  0.0439  0.2823
 9085W        W 9085   7.606   3.245   9.339  0.2978 -0.1644 -0.0696
 9086W        W 9086   4.805   8.363   3.600  0.1031  0.2102  0.2117
 9087W        W 9087   1.695   8.168   4.726 -0.1988  0.0621  0.0163
 9088W        W 9088   3.078   5.216   9.981 -0.1902 -0.3042  0.0971
 9089W        W 9089   0.176   5.826   5.132 -0.3255  0.2547 -0.1621
 9090W        W 9090   3.687   9.134   1.485 -0.1124  0.0390  0.2699
 9091W        W 9091   0.853   7.143   3.695  0.1316 -0.1513  0.3250
 9092W        W 9092   0.848   5.906   1.250 -0.3084  0.2889  0.1288
 9093W        W 9093   2.481   2.491   2.967 -0.0098  0.2305 -0.3747
 9094W        W 9094   4.217   3.805   2.364 -0.0595  0.3454  0.1853
 9095W        W 9095   3.291   4.833   9.660  0.1442 -0.1760 -0.1726
 9096W        W 9096   6.135   7.245   8.194 -0.0254  0.0099 -0.1525
 9097W        W 9097   5.293   6.539   4.669  0.3081  0.0188 -0.3169
 9098W        W 9098   7.616   6.307   0.425 -0.2594 -0.2055  0.1875
 9099W        W 9099   6.941   7.796   2.740 -0.3558  0.1636 -0.1532
 9100W        W 9100   4.664   2.786   4.714  0.2708  0.0811  0.2878
 9101W        W 9101   4.417   6.684   1.163 -0.0371  0.0891  0.1907
 9102W        W 9102   2.906   3.659   8.116 -0.1213 -0.1225 -0.1540
 9103W        W 9103   5.397   6.316   3.293 -0.3458  0.1053 -0.0915
 9104W        W 9104   8.074   5.211   3.553  0.1746  0.0728 -0.0774
 9105W        W 9105   2.452   0.173   3.147  0.2010  0.1556 -0.1482
 9106W        W 9106   4.188   4.843   0.646  0.0435  0.1688  0.0607
 9107W        W 9107   2.039   1.346   2.115  0.2569 -0.0039 -0.0232
 9108W        W 9108   7.373   3.387  10.274 -0.0995  0.0048 -0.2131
 9109W        W 9109   5.613   2.077   9.096 -0.1334 -0.0996 -0.2243
 9110W        W 9110   3.692   8.210   0.114 -0.0383 -0.2041  0.0387
 9111W        W 9111   8.430   6.207   7.535 -0.0777 -0.2681 -0.0836
 9112W        W 9112   4.052   3.898   5.803 -0.5448 -0.1907 -0.1632
 9113W        W 9113   2.536   3.112   5.981  0.0667 -0.2365 -0.2871
 9114W        W 9114   9.601   3.639   8.051  0.0096 -0.1497 -0.0507
 9115W        W 9115   5.041   9.008   8.642 -0.0990  0.0518 -0.1684
 9116W        W 9116   4.206   5.271   8.569  0.0527  0.2305 -0.0433
 9117W        W 9117   8.041   5.679   9.806 -0.1410 -0.0004  0.0505
 9118W        W 9118   3.440   6.640   4.444 -0.0968  0.0787 -0.0351
 9119W        W 9119   5.402   4.557   1.470  0.0568  0.3029 -0.3666
 9120W        W 9120  10.322   1.065   9.514  0.1702 -0.3400 -0.0271
 9121W        W 9121   8.920   2.265   0.639 -0.1180  0.0563  0.1893
 9122W        W 9122   2.069   7.688   2.417  0.0536 -0.1539  0.1658
 9123W        W 9123   4.428   6.013   5.266  0.2379 -0.3495 -0.1733
 9124W        W 9124   0.997   7.288   7.433 -0.3090  0.0711 -0.1720
 9125W        W 9125   1.808   7.801   3.049 -0.3350  0.1711  0.0170
 9126W        W 9126   6.399   4.583   1.002  0.1957 -0.2539  0.0169
 9127W        W 9127  10.024   8.529   0.423  0.3950  0.1196 -0.4833
 9128W        W 9128   6.866   3.923   2.263  0.2912 -0.3115 -0.0107
 9129W        W 9129   7.276   2.573   9.915 -0.4051  0.0481 -0.2314
 9130W        W 9130   5.568   4.813   7.622 -0.0873  0.1259  0.0709
 9131W        W 9131   1.353   1.629   5.859  0.2654  0.1295  0.1923
 9132W        W 9132   0.951   9.315   0.388  0.1316  0.0041  0.3384
 9133W        W 9133   8.402   8.572   5.252 -0.1890 -0.1078 -0.0755
 9134W        W 9134   1.366   4.035   8.006  0.2410  0.1964  0.1329
 9135W        W 9135   5.347   6.303   5.531  0.2039  0.1048  0.0226
 9136W        W 9136   5.418   0.932   5.527 -0.0841 -0.0359 -0.0802
 9137W        W 9137   1.010   6.765   8.619  0.0201  0.0967  0.0376
 9138W        W 9138   3.598   8.838   4.979  0.0882 -0.1287 -0.0365
 9139W        W 9139   5.992   2.354   1.850  0.1181  0.1359 -0.0818
 9140W        W 9140   0.717   6.504   8.983  0.3554 -0.1376  0.1383
 9141W        W 9141  10.142   9.478   8.258 -0.0239 -0.1767 -0.0288
 9142W        W 9142   9.124  10.297   0.874  0.0029 -0.0641 -0.0488
 9143W        W 9143   8.643   5.262   3.414 -0.2103  0.2112  0.2187
 9144W        W 9144   2.060   2.622   8.695  0.0551 -0.1145  0.0328
 9145W        W 9145   3.538  10.338   6.247 -0.0122  0.1152  0.6112
 9146W        W 9146   9.663   4.109   1.928 -0.0786  0.0705  0.3327
 9147W        W 9147   3.465   5.124   4.776  0.0894 -0.0722  0.0520
 9148W        W 9148   1.648   4.059   5.216 -0.4064 -0.1186 -0.3575
 9149W        W 9149   5.284   6.829   8.278 -0.1355  0.0210 -0.0260
 9150W        W 9150   4.768   4.629   6.734 -0.0560  0.1481  0.1004
 9151W        W 9151   6.397   6.377   5.825 -0.1684 -0.1879  0.1102
 9152W        W 9152   2.563   2.805   2.541  0.0381  0.1892 -0.0571
 9153W        W 9153   6.795   9.369   2.391  0.2204 -0.1159  0.2014
 9154W        W 9154   7.023   2.931   2.552 -0.1626  0.0792 -0.2034
 9155W        W 9155   5.988   9.256   1.783 -0.2442  0.1481 -0.2218
 9156W        W 9156   2.893   4.558   4.731  0.1700  0.1508  0.0630
 9157W        W 9157   4.638   5.566   9.541  0.0812 -0.1857  0.1235
 9158W        W 9158   8.416   0.796   9.902 -0.1272 -0.0596 -0.0535
 9159W        W 9159   9.294   0.545   5.039  0.3081  0.1730  0.4899
 9160W        W 9160   6.787   4.092   8.155 -0.1864  0.3904  0.1115
 9161W        W 9161   3.133   4.212   2.426  0.0573  0.0986 -0.0550
 9162W        W 9162   9.631   6.624   4.956  0.1208  0.1145 -0.0656
 9163W        W 9163   4.402  10.210   7.567 -0.1367 -0.1976 -0.0218
 9164W        W 9164   4.439   1.373   6.289 -0.1419 -0.1375  0.1027
 9165W        W 9165  10.145  10.333   8.457 -0.4064 -0.2479  0.2182
 9166W        W 9166   4.084   2.963   9.798  0.1592 -0.1755  0.1101
 9167W        W 9167   9.239   2.614   3.760 -0.0757 -0.2422 -0.3291
 9168W        W 9168   8.519   7.082   6.412  0.1256  0.2878  0.0500
 9169W        W 9169   0.329   8.165   9.962 -0.0276 -0.2654 -0.0359
 9170W        W 9170  10.119   9.630   9.243 -0.0418 -0.2552 -0.0419
 9171W        W 9171   2.384   6.416   3.551 -0.0387  0.0837  0.1498
 9172W        W 9172   0.747   5.083   2.957 -0.1939 -0.3620 -0.0271
 9173W        W 9173   6.750   9.562   8.746 -0.1976  0.1159 -0.0112
 9174W        W 9174   1.529   0.803   8.048 -0.1868 -0.1053 -0.1974
 9175W        W 9175   3.166   7.481  10.000  0.3863 -0.0521  0.1347
 9176W        W 9176   1.616   9.866   0.351  0.0689 -0.4458 -0.2190
 9177W        W 9177   7.246   6.759   3.005 -0.5143 -0.3994 -0.0580
 9178W        W 9178   0.799   4.760   3.410 -0.0123 -0.1525  0.1008
 9179W        W 9179   8.583   4.519   1.631 -0.1709 -0.0091 -0.0154
 9180W        W 9180   6.610   4.612   1.495 -0.1203  0.2098  0.0506
 9181W        W 9181   9.499   1.636   4.712 -0.1899 -0.0954  0.0232
 9182W        W 9182   4.565   4.116   8.711  0.2454  0.0093  0.0320
 9183W        W 9183   7.274   2.261   9.006  0.1517 -0.0670  0.2055
 9184W        W 9184   5.579   5.003   9.321 -0.0716  0.0450  0.1422
 9185W        W 9185   4.698   1.734   4.338  0.0942  0.1420  0.0740
 9186W        W 9186   7.066   2.828   2.052 -0.0995 -0.2903 -0.2768
 9187W        W 9187   2.048  10.019   0.540 -0.1203 -0.2001 -0.0049
 9188W        W 9188   7.903   8.427  10.256 -0.2215 -0.0209 -0.2139
 9189W        W 9189   5.117   3.204   3.390  0.0146 -0.0696 -0.3922
 9190W        W 9190   4.879   1.846   2.198 -0.1815 -0.1850  0.0707
 9191W        W 9191   3.214   5.790   6.476  0.2495 -0.0096  0.3254
 9192W        W 9192   3.753   6.350   1.795 -0.1200  0.1027  0.1222
 9193W        W 9193   7.412   6.149   7.147 -0.0382 -0.2275  0.1790
 9194W        W 9194   9.527   2.822   3.391  0.0141 -0.1557  0.3286
 9195W        W 9195   1.696   1.080   3.474 -0.1983 -0.1195 -0.0515
 9196W        W 9196   8.956   8.107   4.060 -0.0628 -0.5022  0.1785
 9197W        W 9197   2.851   4.169   8.277 -0.0534  0.0298  0.4206
 9198W        W 9198   5.773   2.736   9.974 -0.0817 -0.1715 -0.1418
 9199W        W 9199   0.920   2.587   6.920  0.0552  0.0596 -0.1528
 9200W        W 9200   4.035   5.783   0.752  0.0350 -0.2405  0.2744
 9201W        W 9201   6.073   8.227   1.208  0.2390 -0.2599  0.0472
 9202W        W 9202   5.585   4.707   3.777 -0.0886  0.1606  0.1834
 9203W        W 9203   5.791   8.769   4.191 -0.2117  0.0352  0.4370
 9204W        W 9204   5.276   4.323   5.922  0.0579  0.0609 -0.0387
 9205W        W 9205   3.733   8.824   4.040 -0.2425 -0.1455  0.0093
 9206W        W 9206   3.243   0.166   1.772  0.0808 -0.1705  0.1761
 9207W        W 9207   5.410   4.441   4.668  0.2314  0.0070 -0.1736
 9208W        W 9208   6.308   8.217   4.631  0.2048  0.4615 -0.1332
 9209W        W 9209   0.609   1.204   5.399  0.2858 -0.0327 -0.0036
 9210W        W 9210   4.100   2.131   3.683  0.5219  0.2641 -0.2229
 9211W        W 9211   4.483   8.281   5.411 -0.0016 -0.2933  0.0096
 9212W        W 9212   0.807   3.890  10.217 -0.3591  0.1557 -0.1326
 9213W        W 9213   8.332   9.086   8.927  0.0205 -0.2156 -0.2949
 9214W        W 9214   7.778   6.728   2.148 -0.1000  0.0716 -0.1866
 9215W        W 9215   0.988   0.286  10.164 -0.0830  0.1146  0.1782
 9216W        W 9216   8.034   5.120   1.035 -0.2523 -0.4799  0.1608
 9217W        W 9217   5.762   6.991   5.387 -0.0576 -0.0305  0.1058
 9218W        W 9218   6.578   0.700   3.439 -0.0825 -0.0808  0.3283
 9219W        W 9219   4.150   7.364   1.636  0.3847  0.1985  0.2425
 9220W        W 9220   8.885   6.951   0.150  0.4929  0.1403  0.3239
 9221W        W 9221   5.456   8.571   3.627  0.0195  0.0668  0.0885
 9222W        W 9222   2.498   6.316   7.912 -0.1148 -0.1833  0.0649
 9223W        W 9223   6.654   6.680   4.183  0.2379  0.1888 -0.2672
 9224W        W 9224   5.430   2.596   0.580  0.0135  0.1302  0.0742
 9225W        W 9225   1.683   3.845   7.216  0.0339 -0.2368  0.0911
 9226W        W 9226   7.901   8.205   0.703  0.2533 -0.1997  0.1097
 9227W        W 9227   2.338   4.878   1.071  0.0920 -0.0756  0.1787
 9228W        W 9228   3.607   2.331  10.170  0.3805 -0.1667  0.2599
 9229W        W 9229   1.556   8.249   9.809  0.2079  0.1544 -0.0177
 9230W        W 9230   3.786   4.528   4.892 -0.0809  0.1810  0.2089
 9231W        W 9231   8.394   8.696   5.897  0.0482 -0.2151 -0.0453
 9232W        W 9232   7.604   6.929   8.548  0.3057 -0.3001 -0.0563
 9233W        W 9233   4.063   8.104   8.359 -0.3010  0.2304 -0.0315
 9234W        W 9234   9.182   4.862   4.105  0.2235  0.2167 -0.0334
 9235W        W 9235   5.384   4.705   0.401  0.0146  0.1850  0.0136
 9236W        W 9236   5.951   0.951   7.720 -0.3078  0.2282  0.0069
 9237W        W 9237   7.591   4.153   4.553  0.1408 -0.0446  0.0754
 9238W        W 9238   5.951   3.595   2.930  0.3353 -0.2989  0.1327
 9239W        W 9239   0.520   8.184   7.552 -0.1543 -0.1907  0.1223
 9240W        W 9240   9.271   1.199   2.440 -0.0565  0.0344 -0.0953
 9241W        W 9241   0.550   5.139   0.171 -0.0524 -0.0877 -0.0187
 9242W        W 9242   9.941   9.908  10.031  0.0904 -0.1947 -0.2216
 9243W        W 9243   8.551   7.557   6.267 -0.1292  0.1269 -0.1768
 9244W        W 9244   4.805   8.411   1.463 -0.0565  0.0302  0.5176
 9245W        W 9245   7.566   4.844   2.979 -0.0446 -0.3665 -0.1640
 9246W        W 9246   4.154   6.387   7.923  0.1816 -0.1159  0.0261
 9247W        W 9247   9.226   3.084   9.429  0.3437  0.1019 -0.1274
 9248W        W 9248   6.337   6.774   8.404  0.0221 -0.0593 -0.0445
 9249W        W 9249   5.174   5.114   8.957  0.0109  0.2035 -0.5029
 9250W        W 9250   0.781   1.709   1.335 -0.1064  0.2345 -0.2837
 9251W        W 9251   5.383   9.447   7.077  0.1922 -0.2400  0.3900
 9252W        W 9252   3.827   3.715   7.130  0.1489  0.2426 -0.1451
 9253W        W 9253   8.248   5.864   2.664  0.0074 -0.2080 -0.1176
 9254W        W 9254   1.657   2.298   7.587 -0.3859 -0.1298 -0.2061
 9255W        W 9255   6.355   2.750   6.362 -0.2002 -0.2656 -0.1013
 9256W        W 9256   9.279   0.564   4.124  0.2037  0.0952 -0.0097
 9257W        W 9257   4.633   7.105   9.740  0.1027 -0.0920 -0.1358
 9258W        W 9258   9.032   1.769   0.690  0.2106 -0.0990 -0.0064
 9259W        W 9259   5.403   8.292   3.159 -0.2483 -0.0755  0.1641
 9260W        W 9260   4.205   3.773   1.502 -0.1718  0.3374 -0.3412
 9261W        W 9261   2.813   0.127   9.194  0.4199 -0.0026 -0.0327
 9262W        W 9262   9.254   3.425   5.038 -0.1185 -0.0877 -0.1291
 9263W        W 9263   3.214   8.698   3.930  0.4491  0.0252 -0.1200
 9264W        W 9264   2.535   6.328   5.346  0.2696 -0.2335  0.1469
 9265W        W 9265   7.735   7.031   6.103 -0.2048  0.0713  0.0096
 9266W        W 9266  10.067   5.120   8.810  0.3596 -0.2218 -0.1961
 9267W        W 9267   5.759   6.342   7.409 -0.1264  0.1335  0.2096
 9268W        W 9268   7.030   7.473   8.933 -0.1199 -0.2774 -0.0320
 9269W        W 9269   2.860   1.363   2.303  0.0039 -0.3115 -0.1371
 9270W        W 9270   4.751   5.672   2.354 -0.0096 -0.0132  0.0196
 9271W        W 9271   3.254   0.122   7.637 -0.1327 -0.0186 -0.1367
 9272W        W 9272   6.416   8.985   9.249 -0.1639 -0.0784 -0.0718
 9273W        W 9273   8.621   8.245   5.738 -0.1810 -0.0223 -0.0582
 9274W        W 9274   7.487   4.665  10.096 -0.2252 -0.3334  0.0332
 9275W        W 9275   9.196   7.972   9.595  0.0658  0.1013  0.0924
 9276W        W 9276   1.273   4.738   3.618  0.5400  0.1276  0.1549
 9277W        W 9277   9.754   0.117   0.490  0.1380 -0.0960  0.1511
 9278W        W 9278   6.800   3.277  10.175 -0.1831 -0.1735  0.1950
 9279W        W 9279   6.265   6.965   0.364 -0.0398 -0.0246  0.2563
 9280W        W 9280   2.261   4.314   8.966  0.0987 -0.1648 -0.2372
 9281W        W 9281  10.256  10.213   7.629  0.0720  0.0571  0.0772
 9282W        W 9282   7.686   7.946   6.061  0.0059 -0.2559  0.0117
 9283W        W 9283   3.197   7.465   6.674  0.0222 -0.0625  0.1184
 9284W        W 9284   6.828   4.296   0.790 -0.2622 -0.2934 -0.0529
 9285W        W 9285   1.130   6.659   2.950  0.1742 -0.0686 -0.1034
 9286W        W 9286   6.603   8.871   0.849  0.5356  0.0363  0.1636
 9287W        W 9287   8.758   0.637   4.102  0.0075 -0.0632 -0.0061
 9288W        W 9288   6.739   3.262   9.636 -0.0520  0.1363 -0.1654
 9289W        W 9289  10.003   7.899   4.317  0.0664 -0.2450 -0.2435
 9290W        W 9290   6.796   3.368   5.292 -0.0880 -0.0249 -0.0629
 9291W        W 9291   1.650   4.289   3.085  0.1893 -0.3263 -0.0192
 9292W        W 9292   2.373   2.585   5.957  0.2094  0.0285  0.0849
 9293W        W 9293   8.467   1.924   2.823 -0.0647  0.2835 -0.0652
 9294W        W 9294   9.604   8.558   0.049  0.0345  0.2312 -0.2611
 9295W        W 9295   1.734   7.247   5.063 -0.3139  0.1931  0.1899
 9296W        W 9296   3.682   0.717   0.038 -0.2342 -0.0783  0.0131
 9297W        W 9297   0.140  10.112   1.563  0.1914 -0.0718  0.1169
 9298W        W 9298   1.453   0.524   3.916 -0.1552  0.0354  0.0024
 9299W        W 9299   8.836   6.147   7.902 -0.0763 -0.3809  0.1474
 9300W        W 9300   8.508   2.410   5.343  0.4168 -0.0638 -0.1400
 9301W        W 9301   2.636   5.330   1.813 -0.0551 -0.1139 -0.0814
 9302W        W 9302   5.893   3.287   8.603 -0.0877 -0.0183 -0.1463
 9303W        W 9303   1.169   7.805   5.709 -0.0659  0.1195  0.0781
 9304W        W 9304   8.512   3.674   9.231 -0.0101  0.1098  0.0879
 9305W        W 9305   8.489   1.938   0.132 -0.2517 -0.0550 -0.1184
 9306W        W 9306   7.192   5.590   3.569 -0.0361  0.2373 -0.1294
 9307W        W 9307   1.507   3.725   2.052  0.0306  0.4222 -0.0181
 9308W        W 9308   0.861   3.823   3.190 -0.1320 -0.0642  0.2541
 9309W        W 9309  10.058   4.673  10.055 -0.0065  0.0833  0.1005
 9310W        W 9310   1.095   4.691   4.083  0.2657 -0.2059  0.1540
 9311W        W 9311   0.049   2.865   0.355 -0.1994  0.0634 -0.0156
 9312W        W 9312   5.361   8.121   6.577  0.0651  0.1060  0.0034
 9313W        W 9313   0.343   1.338   5.007  0.1095  0.3728 -0.1769
 9314W        W 9314   3.493   8.022   3.426  0.1133 -0.0059 -0.1736
 9315W        W 9315   6.150   1.563   6.879  0.4612 -0.1924 -0.1500
 9316W        W 9316   6.139   0.804   5.421 -0.1096 -0.0800  0.1992
 9317W        W 9317   6.080   1.736   3.278 -0.1557  0.0988  0.2667
 9318W        W 9318   2.064   6.394   3.923  0.0259  0.0018  0.2127
 9319W        W 9319   0.382   5.716   2.165 -0.2031 -0.2388  0.1638
 9320W        W 9320   1.587   3.456   6.796  0.1626 -0.1968 -0.0129
 9321W        W 9321   2.947   6.096   7.755  0.2396 -0.1770  0.0921
 9322W        W 9322   2.134   3.524   3.165 -0.1717  0.0845 -0.0092
 9323W        W 9323   9.061   7.324   0.397 -0.4790 -0.2411  0.0662
 9324W        W 9324   0.173   9.931   5.911 -0.1061 -0.2004  0.4262
 9325W        W 9325   9.573   2.301   0.740  0.0069 -0.2411  0.1685
 9326W        W 9326   4.454   0.694   4.871  0.0282  0.2183  0.1716
 9327W        W 9327   0.439   2.151   7.197 -0.2384  0.2327  0.1587
 9328W        W 9328   1.721   1.946   2.900  0.1577 -0.0881  0.0013
 9329W        W 9329   5.374   8.238   4.314  0.0489 -0.0495  0.1324
 9330W        W 9330   7.607   0.463   1.104  0.1950  0.1216  0.0405
 9331W        W 9331   5.313   8.128   7.666 -0.0831 -0.2787 -0.1688
 9332W        W 9332   3.672   0.375   1.256 -0.0880  0.1457 -0.0424
 9333W        W 9333   3.220   8.534   6.207  0.3918  0.0739  0.3585
 9334W        W 9334   3.856   9.045   6.879 -0.1984  0.4383  0.0536
 9335W        W 9335   8.279   3.287   0.309  0.0333  0.0948 -0.1107
 9336W        W 9336   2.966   8.136   1.738 -0.1905  0.1197 -0.1403
 9337W        W 9337   7.674   0.987   6.102  0.0274  0.0296  0.0025
 9338W        W 9338   1.024   7.282   5.773  0.3209 -0.0291  0.0308
 9339W        W 9339   2.587   5.578   9.935  0.1022  0.1614  0.3634
 9340W        W 9340   0.979   5.446   0.471 -0.1523 -0.1541 -0.1616
 9341W        W 9341   5.044   2.572   4.375 -0.0149  0.0890 -0.1548
 9342W        W 9342   6.683   5.805   5.058 -0.2174  0.3449  0.0463
 9343W        W 9343   7.612   2.949   4.588  0.2748 -0.0971  0.1212
 9344W        W 9344   0.712   1.092   3.736 -0.1194 -0.0972  0.1799
 9345W        W 9345   0.594   6.275   6.980 -0.0270 -0.4684 -0.3185
 9346W        W 9346   7.438   5.722   6.769  0.0109 -0.0811  0.0979
 9347W        W 9347   7.682   2.359   6.931 -0.0715 -0.2982 -0.1161
 9348W        W 9348   6.949   0.134   4.189 -0.2494  0.2995 -0.0774
 9349W        W 9349   7.569   9.154   9.098  0.0075  0.0516 -0.1313
 9350W        W 9350   9.698   9.655   8.952 -0.0479  0.0563  0.0303
 9351W        W 9351   1.857   7.056   2.996 -0.2596 -0.3319 -0.0246
 9352W        W 9352   3.491   6.486   8.668 -0.0540 -0.1943  0.1570
 9353W        W 9353   8.301   7.103   7.764  0.1101  0.2196  0.1139
 9354W        W 9354   6.593   1.825   7.787  0.0983 -0.1292  0.0246
 9355W        W 9355   9.737   0.156   9.680 -0.0134 -0.0245  0.0379
 9356W        W 9356   3.763   8.474   7.633 -0.0028 -0.0569 -0.2551
 9357W        W 9357   0.960   7.152   6.718 -0.2319 -0.1515  0.1503
 9358W        W 9358   3.193   2.968   4.667 -0.1349  0.1255  0.2412
 9359W        W 9359   3.784   3.013   2.981  0.0820  0.1411 -0.0438
 9360W        W 9360   3.275   8.606   7.846 -0.3193  0.0436 -0.2741
 9361W        W 9361   6.429   1.609   6.393  0.3358  0.2026 -0.3581
 9362W        W 9362   8.610   6.295   8.827  0.0694 -0.2836 -0.1960
 9363W        W 9363   9.153   4.211   6.331  0.2556  0.2882 -0.0270
 9364W        W 9364   3.184   6.289   8.235 -0.3170 -0.1280  0.3522
 9365W        W 9365   6.116   5.087   2.607  0.2830  0.2544  0.0579
 9366W        W 9366   7.112   0.044   2.405  0.0570  0.0949 -0.0406
 9367W        W 9367   9.604   0.363   8.343 -0.0442 -0.0563  0.1472
 9368W        W 9368   1.747   9.377   4.262  0.0543  0.1578 -0.1139
 9369W        W 9369   5.184   1.482  10.226 -0.0497 -0.0763 -0.1801
 9370W        W 9370   1.031   6.666   0.970  0.1166 -0.2100 -0.1037
 9371W        W 9371   3.055   6.419   2.405  0.0471  0.1064 -0.0716
 9372W        W 9372   1.824   3.330   1.861 -0.0467  0.1973 -0.2308
 9373W        W 9373  10.176   1.860   1.164 -0.0670 -0.0070  0.1235
 9374W        W 9374   2.280   7.370   1.979  0.1921 -0.0136 -0.1856
 9375W        W 9375   9.035   1.620   7.984  0.2259  0.0459 -0.1588
 9376W        W 9376   9.759   3.002   3.809  0.0960 -0.0106 -0.2478
 9377W        W 9377   9.116   6.482   6.793  0.0066  0.2181  0.1178
 9378W        W 9378   0.880   0.977   7.436  0.1957 -0.0456 -0.0407
 9379W        W 9379   5.034   1.044   0.348 -0.2852  0.3127  0.1823
 9380W        W 9380   1.730   9.118  10.263  0.2301  0.0148 -0.2068
 9381W        W 9381   7.753   3.287   5.025 -0.2581 -0.1266 -0.2132
 9382W        W 9382   0.800   8.316   2.598  0.2334 -0.0856  0.0065
 9383W        W 9383   9.402   8.360   6.902  0.2601 -0.0862 -0.3934
 9384W        W 9384   3.651   7.432   3.894  0.3967  0.3124  0.1032
 9385W        W 9385   3.592   7.544   0.066  0.0317  0.3184  0.2589
 9386W        W 9386   5.115   5.356   2.502  0.0905  0.1918 -0.0202
 9387W        W 9387   6.539   5.167   8.445  0.1524 -0.0801  0.2249
 9388W        W 9388   9.995  10.085   7.157 -0.1760  0.0655  0.0489
 9389W        W 9389   6.414   8.769   6.535  0.0291 -0.1012  0.2367
 9390W        W 9390   3.516   1.371   1.131  0.0494 -0.1492  0.1713
 9391W        W 9391   3.227   7.835   8.441  0.0630  0.2300 -0.3421
 9392W        W 9392   8.050   2.814   2.157  0.0789 -0.1830  0.1630
 9393W        W 9393   8.635   4.238   7.230 -0.0507  0.3962 -0.0704
 9394W        W 9394   9.237   6.168   5.386 -0.1538  0.0732  0.3192
 9395W        W 9395   6.874   0.592   1.200 -0.0787 -0.2706 -0.0815
 9396W        W 9396   9.715   4.923   7.978 -0.0225  0.1415 -0.0006
 9397W        W 9397   2.074   9.148   0.802  0.2884 -0.0249  0.2296
 9398W        W 9398   5.537   2.135   8.100 -0.0061 -0.0663  0.1798
 9399W        W 9399   4.064   1.107  10.245  0.4398 -0.0785 -0.1914
 9400W        W 9400   3.030   8.164   0.684  0.3177  0.1491  0.2320
 9401W        W 9401   4.996   7.313   4.067  0.1012 -0.1652 -0.0658
 9402W        W 9402   8.406   3.704   4.008  0.0602 -0.0610  0.1904
 9403W        W 9403   2.916   4.641   0.363 -0.1488 -0.1220  0.1274
 9404W        W 9404   8.556   8.663   1.141  0.0469  0.1405  0.2818
 9405W        W 9405   2.658  10.134   3.593 -0.3536  0.3290 -0.1029
 9406W        W 9406   1.395   6.916   7.791 -0.1099 -0.3030 -0.0794
 9407W        W 9407   2.098   1.843   4.665  0.0469  0.0495 -0.0803
 9408W        W 9408   5.129   3.872   0.033  0.0318  0.0744  0.0647
 9409W        W 9409  10.030   8.666   5.426 -0.0320  0.0789 -0.3258
 9410W        W 9410   5.564   9.880   4.289 -0.0410 -0.1138  0.2117
 9411W        W 9411   8.713   0.097   6.101  0.0889  0.0239 -0.0498
 9412W        W 9412   2.177   2.021   2.816  0.2066  0.1503 -0.0337
 9413W        W 9413   6.137   2.771   2.624 -0.0159 -0.2486 -0.2039
 9414W        W 9414   8.055   7.463  10.268 -0.2124 -0.2252  0.3761
 9415W        W 9415   3.280   1.512   3.170 -0.0344 -0.0088  0.0005
 9416W        W 9416   9.230   0.374   9.743  0.2881  0.0980  0.1572
 9417W        W 9417   6.741   0.545   6.924 -0.3272  0.1439  0.0832
 9418W        W 9418   9.651   1.942   8.340 -0.1705  0.0641  0.2840
 9419W        W 9419   1.953   1.472   3.669 -0.0396 -0.1501 -0.1847
 9420W        W 9420   5.846   0.540   5.720  0.0466 -0.0381  0.0978
 9421W        W 9421   8.131   2.818   9.320  0.1077  0.1493 -0.0906
 9422W        W 9422   8.188   5.827   1.143 -0.1989  0.1083 -0.2364
 9423W        W 9423   7.977   8.689   6.730 -0.3622 -0.0113  0.1147
 9424W        W 9424   5.013   3.881   2.141 -0.3389  0.0772 -0.2594
 9425W        W 9425   0.810   9.408   4.135  0.1333 -0.0159  0.1364
 9426W        W 9426   1.857   2.801   0.445 -0.0128  0.0857  0.0691
 9427W        W 9427   3.722   7.940   2.953  0.0244  0.3203 -0.0323
 9428W        W 9428   8.528  10.114   5.747  0.1293 -0.0444 -0.2017
 9429W        W 9429   7.117  10.063   0.223 -0.0754 -0.0948  0.0263
 9430W        W 9430   3.031   1.071   3.023  0.0883 -0.1745 -0.1831
 9431W        W 9431   4.725   4.722  10.246 -0.1117  0.3354  0.0804
 9432W        W 9432   9.934   7.611   9.691 -0.2720 -0.1603 -0.2164
 9433W        W 9433   2.689   6.713   4.971 -0.0749  0.2462  0.1788
 9434W        W 9434   1.371   2.418   7.190 -0.0484  0.0661  0.0909
 9435W        W 9435   3.042   3.062   2.666 -0.0515  0.0153  0.2699
 9436W        W 9436   7.039   3.573   2.574  0.0971  0.1032  0.1216
 9437W        W 9437   7.280   2.550   4.404 -0.0112  0.1053 -0.0577
 9438W        W 9438  10.155   0.477   8.514 -0.5496 -0.3267 -0.0629
 9439W        W 9439   0.406   3.712   2.904  0.2492 -0.2119  0.1194
 9440W        W 9440   5.640   0.406   8.807 -0.2212  0.1620 -0.1494
 9441W        W 9441   2.762   0.988   8.425 -0.0555  0.3057 -0.1792
 9442W        W 9442   9.483   8.703   3.725 -0.0862 -0.2702  0.1088
 9443W        W 9443   0.429   3.496   3.380 -0.2828  0.2548  0.0246
 9444W        W 9444   7.680   2.465   1.648 -0.0885  0.0693 -0.0737
 9445W        W 9445   5.881   9.855   0.730 -0.3120 -0.1826  0.0068
 9446W        W 9446   0.058   8.268   0.053 -0.0220 -0.2664 -0.2739
 9447W        W 9447   4.448   0.341   0.436 -0.2176  0.2308 -0.2735
 9448W        W 9448   8.806   3.439   0.317  0.1087 -0.0504 -0.1420
 9449W        W 9449   6.772   6.955   3.018 -0.0201  0.2100 -0.0272
 9450W        W 9450   7.082   2.947   0.019 -0.1552  0.1448  0.2555
 9451W        W 9451   8.780   4.444   9.766  0.0240 -0.0439  0.0634
 9452W        W 9452   2.731   3.994   6.089  0.0295 -0.2780 -0.0512
 9453W        W 9453   4.351   6.669   5.948 -0.2285  0.0849  0.3453
 9454W        W 9454   4.136   7.766   3.187  0.2695  0.0826  0.0973
 9455W        W 9455   6.663   9.279   7.048  0.0755  0.0391  0.0980
 9456W        W 9456   8.319   5.932   9.374  0.0759 -0.1325  0.2880
 9457W        W 9457   6.504   8.585   2.466 -0.2794 -0.1126 -0.2312
 9458W        W 9458   4.492   5.740   8.688 -0.1015  0.0337  0.1661
 9459W        W 9459   7.437   6.854   9.778  0.2903 -0.1683 -0.0014
 9460W        W 9460  10.251   2.920   9.632 -0.1092  0.1663  0.1086
 9461W        W 9461   4.436   4.135   5.507 -0.0839  0.0837  0.0822
 9462W        W 9462   4.879   9.436   5.426  0.0907 -0.1745  0.2214
 9463W        W 9463   1.517   4.057   8.501  0.1674 -0.2172 -0.2524
 9464W        W 9464  10.103   0.330   3.596 -0.4011  0.1920  0.2766
 9465W        W 9465   1.341   8.521   4.426 -0.1144 -0.1432  0.1215
 9466W        W 9466   7.095   7.662   4.749  0.3381 -0.2296  0.1377
 9467W        W 9467   6.818   7.798   0.093 -0.1398  0.1331  0.0703
 9468W        W 9468   5.881   1.870   4.598  0.0087 -0.0319  0.0990
 9469W        W 9469   0.432   2.546   0.854 -0.0801  0.4920  0.1359
 9470W        W 9470   5.167   5.863  10.260 -0.2666 -0.0444 -0.2665
 9471W        W 9471   7.628   4.927   0.899 -0.1825 -0.2620 -0.1793
 9472W        W 9472   4.378   1.908   2.341 -0.1014  0.0064 -0.2773
 9473W        W 9473   0.519   4.547   2.410  0.1803  0.2633  0.0431
 9474W        W 9474   2.103   6.770   3.360  0.1655 -0.2411 -0.2263
 9475W        W 9475   7.199   8.728   7.257 -0.1767  0.3850  0.0801
 9476W        W 9476   7.857   6.757   9.369 -0.0206 -0.3356 -0.0677
 9477W        W 9477   9.518   9.454   4.467  0.2306 -0.1153  0.1447
 9478W        W 9478   8.082   2.320   4.995  0.2521  0.0607 -0.1434
 9479W        W 9479   1.710   4.372   4.589  0.0153  0.0080  0.2574
 9480W        W 9480   2.297   1.757   1.183  0.1399 -0.0575  0.0319
 9481W        W 9481   7.221   9.761  10.053  0.1763  0.2409 -0.0436
 9482W        W 9482   0.042   6.905  10.242  0.2380 -0.1495 -0.5242
 9483W        W 9483   6.316   6.288   3.426  0.1229  0.0370 -0.1219
 9484W        W 9484   6.594   6.022  10.172 -0.1539  0.0192 -0.3143
 9485W        W 9485   4.582   0.268   5.077 -0.2162  0.4245  0.0082
 9486W        W 9486   9.844   1.032   5.774  0.1223  0.1490 -0.0286
 9487W        W 9487   9.947   2.736   5.612  0.2385 -0.0804 -0.2761
 9488W        W 9488   0.079   9.865   3.199  0.2049 -0.1703  0.1350
 9489W        W 9489   8.348   4.911   2.078  0.0866 -0.0262  0.0180
 9490W        W 9490   2.261   2.354   6.688 -0.0663  0.2732 -0.2698
 9491W        W 9491   7.315   2.533   2.336 -0.1550 -0.1344 -0.2149
 9492W        W 9492   4.556  10.185   6.295 -0.1240  0.2160 -0.3435
 9493W        W 9493   7.067   4.012   7.339 -0.0898 -0.0472 -0.0544
 9494W        W 9494   1.707   6.470   6.943 -0.0249 -0.0391 -0.2037
 9495W        W 9495  10.192   0.688   4.001  0.0394  0.1049 -0.0345
 9496W        W 9496   7.357   5.395   8.330  0.5028  0.3878  0.0386
 9497W        W 9497   4.800   4.550   1.369  0.0462  0.0682 -0.1264
 9498W        W 9498   0.162   6.261   8.596 -0.1641 -0.1136  0.3697
 9499W        W 9499   4.632   0.502   3.074  0.0418 -0.1539 -0.1718
 9500W        W 9500   5.673   7.479   8.890 -0.1370  0.0736 -0.2886
 9501W        W 9501   9.761   5.741   8.428  0.5658 -0.0955  0.2004
 9502W        W 9502   7.639   7.898   1.447 -0.0388  0.3435 -0.3217
 9503W        W 9503   8.399   6.031   8.100  0.2215 -0.1568  0.0372
 9504W        W 9504   7.689   1.312   4.227  0.2723  0.1951  0.1698
 9505W        W 9505   0.534   0.729   3.344 -0.0120  0.1180 -0.3168
 9506W        W 9506   9.097   6.919   3.708  0.1946  0.1587 -0.1460
 9507W        W 9507   7.165   7.880   5.526 -0.2305 -0.1893 -0.3371
 9508W        W 9508   7.185   8.569   4.363  0.0617 -0.1654  0.1086
 9509W        W 9509   8.284   3.187   1.858 -0.2131  0.1333 -0.1553
 9510W        W 9510   5.282   0.066   4.581  0.2460  0.0219 -0.0710
 9511W        W 9511   9.341   7.253   2.445 -0.0261  0.2349 -0.0853
 9512W        W 9512   2.312   9.778   1.308 -0.0385 -0.4702  0.1484
 9513W        W 9513   6.446   2.815   4.587  0.2196  0.0142 -0.0861
 9514W        W 9514   3.923   1.413   6.102  0.1940  0.2624 -0.2199
 9515W        W 9515   7.398   9.186   3.832 -0.1535  0.0354  0.3284
 9516W        W 9516   5.412   1.829   3.803 -0.0009  0.1002  0.0897
 9517W        W 9517   4.098   8.686   3.643  0.2146  0.2992  0.0377
 9518W        W 9518   7.800   8.945  10.283  0.3239 -0.1558 -0.0889
 9519W        W 9519   5.472   2.968   5.618 -0.1148  0.2974 -0.3195
 9520W        W 9520   9.058   6.802   2.367 -0.0185  0.1328  0.2106
 9521W        W 9521   0.494   6.732   8.556  0.1379 -0.0843  0.2476
 9522W        W 9522   9.626   7.380   5.163  0.1133 -0.0155  0.0569
 9523W        W 9523   8.765   0.473   1.917  0.2352  0.2980 -0.0603
 9524W        W 9524   9.831   2.582   7.240 -0.2212 -0.0092  0.2254
 9525W        W 9525   9.628   0.443   4.488 -0.1538  0.1944  0.1732
 9526W        W 9526   3.216   1.210   6.473  0.1910  0.1780 -0.1036
 9527W        W 9527   2.807   5.203   0.975  0.0873  0.7242  0.2091
 9528W        W 9528   1.122   7.858   8.100 -0.0136 -0.1978 -0.3015
 9529W        W 9529   8.790   0.468   1.439  0.0655 -0.0551  0.0512
 9530W        W 9530   7.087   0.837   6.177  0.2717  0.1815 -0.1072
 9531W        W 9531   3.707   6.632  10.095 -0.0375 -0.0604 -0.0828
 9532W        W 9532   3.165   8.631   9.048  0.4902 -0.0355  0.0364
 9533W        W 9533   4.371   5.387  10.329 -0.1215 -0.0605  0.1843
 9534W        W 9534   3.855   7.774   0.471  0.1187 -0.3048  0.0783
 9535W        W 9535   8.805   4.061   4.938 -0.0528  0.0928 -0.2329
 9536W        W 9536   6.398   6.026   9.707 -0.0363  0.0290  0.0141
 9537W        W 9537   1.767   0.077   0.295  0.0624 -0.2332 -0.1973
 9538W        W 9538   9.650   2.116   5.250 -0.0717  0.1572  0.2612
 9539W        W 9539   5.992   5.925   8.757 -0.4695 -0.1874 -0.2313
 9540W        W 9540   9.721   6.329   6.719  0.2511 -0.0604 -0.1271
 9541W        W 9541   3.077   3.267   5.705 -0.2633  0.0360  0.0916
 9542W        W 9542   0.079   3.740   4.729 -0.0229  0.1126 -0.0819
 9543W        W 9543   0.653   7.818   8.315 -0.2103  0.1322 -0.3745
 9544W        W 9544   3.448   0.050   4.199 -0.0438 -0.3208 -0.0826
 9545W        W 9545   5.104  10.243   3.580  0.1158  0.0843  0.2840
 9546W        W 9546   0.790   0.139   1.356 -0.1241 -0.0597  0.2290
 9547W        W 9547   0.131   3.371   8.997  0.1404 -0.2240  0.0905
 9548W        W 9548   6.131   2.189   0.147 -0.0981 -0.0929  0.0457
 9549W        W 9549   0.845   9.159   3.686  0.3797 -0.3810  0.2377
 9550W        W 9550   4.661   6.877   0.666  0.0122 -0.1108 -0.1115
 9551W        W 9551   2.986   2.670   7.407 -0.0887 -0.1635 -0.0698
 9552W        W 9552   1.818   6.448   4.519  0.2010  0.0780 -0.0797
 9553W        W 9553   9.948   9.980   1.456 -0.0820 -0.1472 -0.1719
 9554W        W 9554   2.935   4.834   6.047  0.2281  0.0055  0.1023
 9555W        W 9555   4.323   4.891   1.489 -0.2258 -0.0794 -0.4234
 9556W        W 9556   1.007   5.666   2.845 -0.2789 -0.1848 -0.4301
 9557W        W 9557   7.243   2.352   1.877 -0.1642  0.0142 -0.0169
 9558W        W 9558   9.999   2.461   2.137  0.1126  0.3392  0.1333
 9559W        W 9559   4.682   2.463   1.069  0.1892  0.0130  0.1372
 9560W        W 9560   0.413  10.318   8.775 -0.0948  0.0157 -0.3211
 9561W        W 9561   9.114   8.960   3.839  0.0558 -0.0142  0.0214
 9562W        W 9562   1.415   9.587  10.303 -0.0993  0.0523  0.1456
 9563W        W 9563   6.084   6.396   2.426  0.3289  0.0328 -0.0298
 9564W        W 9564   1.131   4.670   6.950 -0.0029 -0.1699 -0.1355
 9565W        W 9565   0.087   7.326   9.570 -0.2013 -0.1978  0.1823
 9566W        W 9566   4.013   6.119   7.036  0.0923 -0.0347 -0.0109
 9567W        W 9567   8.315   9.831   4.231  0.0417 -0.2540 -0.0819
 9568W        W 9568   8.923   0.599   6.098 -0.0440  0.0446 -0.0846
 9569W        W 9569   3.893   2.094   6.981 -0.2715  0.0729  0.0291
 9570W        W 9570   0.408   1.267   5.911  0.0285 -0.4405 -0.3777
 9571W        W 9571   9.038   8.977   8.117  0.1799  0.2376 -0.1508
 9572W        W 9572   5.166   6.721   1.558  0.1980  0.0471 -0.1876
 9573W        W 9573   6.474   3.855   3.432  0.0145  0.2877 -0.2513
 9574W        W 9574   6.593   9.172   3.098  0.2501 -0.0623  0.0334
 9575W        W 9575   3.631   9.718   9.950 -0.0196 -0.1614  0.1103
 9576W        W 9576   0.213   5.067   4.512 -0.4049 -0.1305 -0.3628
 9577W        W 9577   7.433   6.777   6.508  0.2962 -0.1762 -0.0478
 9578W        W 9578   9.179   0.721   1.188 -0.0368  0.2101 -0.1559
 9579W        W 9579   0.530   0.341   4.801  0.2053  0.0396 -0.0872
 9580W        W 9580   7.534   2.851   6.972  0.1541  0.0122  0.0439
 9581W        W 9581   9.984   8.927   7.504 -0.1948 -0.1495 -0.0312
 9582W        W 9582   1.123   1.225   2.147  0.2233 -0.0912  0.1735
 9583W        W 9583   6.082   6.920   6.985  0.3753 -0.0980 -0.3968
 9584W        W 9584   3.872   4.081  10.287 -0.0749 -0.1503 -0.1792
 9585W        W 9585  10.331   2.058   3.730  0.1007  0.0254  0.2050
 9586W        W 9586   1.950   8.585   4.843  0.0009  0.0875  0.3855
 9587W        W 9587   8.601   8.273   1.406  0.0863  0.4041  0.1843
 9588W        W 9588   2.416   9.657   8.427 -0.0299 -0.2333  0.1245
 9589W        W 9589   0.383   5.872   8.196 -0.0541 -0.1458  0.0917
 9590W        W 9590   3.428   9.228   7.060 -0.1181  0.0527  0.0100
 9591W        W 9591   5.706   5.794  10.011 -0.0301  0.0085  0.1902
 9592W        W 9592   0.347   4.151   0.168  0.0769  0.1188  0.0553
 9593W        W 9593   7.235   9.444   8.438 -0.2194 -0.4211  0.0534
 9594W        W 9594   6.709   6.606   2.013  0.1434  0.1172  0.0499
 9595W        W 9595   6.348   6.028   0.325  0.0167 -0.3617  0.0968
 9596W        W 9596   9.272   1.217   9.166  0.1135 -0.2028 -0.1393
 9597W        W 9597   8.356   7.593   9.175  0.1332  0.0834  0.2069
 9598W        W 9598   3.557   2.957   1.346 -0.4596  0.2297 -0.1218
 9599W        W 9599   2.110   3.491   7.607  0.0905  0.0430 -0.1182
 9600W        W 9600   3.799   3.199   6.222 -0.0186  0.2834  0.1152
 9601W        W 9601   4.868   7.918   6.466  0.2226  0.2429 -0.0776
 9602W        W 9602   5.747   7.896   9.686 -0.1476  0.0497  0.0122
 9603W        W 9603   5.473   8.561   7.395 -0.0834  0.1880  0.0693
 9604W        W 9604   8.679   7.195   3.744 -0.0079  0.2093  0.2451
 9605W        W 9605   8.498   1.595   5.874  0.1281  0.0577 -0.3065
 9606W        W 9606  10.080   6.457   8.892 -0.0904 -0.1280 -0.2052
 9607W        W 9607   7.297   3.300   1.737  0.0465 -0.0905  0.1176
 9608W        W 9608   2.105  10.313   9.735 -0.0454  0.0590 -0.1157
 9609W        W 9609   6.448   6.420   8.100  0.2436  0.0655 -0.2311
 9610W        W 9610   6.877   6.524   3.153  0.0189 -0.2036 -0.3623
 9611W        W 9611   7.237   7.419   1.153  0.3620  0.1499  0.3037
 9612W        W 9612   3.042   6.575   6.148  0.0404 -0.2139 -0.0605
 9613W        W 9613   7.077   6.614   5.336 -0.0289  0.0666 -0.2506
 9614W        W 9614   2.483   6.849   9.753  0.1586 -0.1179 -0.1939
 9615W        W 9615  10.120   2.945   3.488  0.0302 -0.1452  0.0280
 9616W        W 9616   9.011  10.182   5.700 -0.1735 -0.1819  0.1796
 9617W        W 9617   1.623   1.625   0.156 -0.1378  0.3624 -0.0365
 9618W        W 9618   9.926   5.639   4.240 -0.0038  0.0226 -0.3728
 9619W        W 9619   7.110   7.632   0.537  0.0796 -0.1355 -0.2759
 9620W        W 9620   7.740   0.291   6.436 -0.0237 -0.2937  0.1437
 9621W        W 9621   9.184   8.177   0.537  0.0291  0.2340  0.0507
 9622W        W 9622   1.992   4.840   6.745 -0.1122 -0.0169 -0.0632
 9623W        W 9623   1.567   6.253   0.085 -0.1697 -0.4715 -0.1629
 9624W        W 9624   4.364   7.423   4.835  0.3141  0.2184  0.0403
 9625W        W 9625   0.739   7.521   8.968 -0.0818  0.1455 -0.1439
 9626W        W 9626   1.083   0.111   7.471  0.0200 -0.0453 -0.2404
 9627W        W 9627   2.719   4.335   9.746 -0.1594  0.2448  0.2789
 9628W        W 9628   2.961   7.058   1.713  0.1179 -0.0979  0.0739
 9629W        W 9629   3.265   9.888   3.372  0.0465 -0.1052  0.0734
 9630W        W 9630   7.708   2.816   2.544 -0.2721 -0.2312 -0.0307
 9631W        W 9631   3.437   2.275   5.451  0.3843  0.2633  0.3053
 9632W        W 9632   0.004   4.422   4.764  0.0666  0.2253  0.0315
 9633W        W 9633   0.726   2.719   7.869 -0.0852  0.1547 -0.3348
 9634W        W 9634   6.490   0.374   9.466  0.0648  0.2913  0.1191
 9635W        W 9635   9.265   3.383   1.557 -0.1471 -0.1529  0.1664
 9636W        W 9636   6.990   9.945   2.823 -0.0151  0.0919 -0.0446
 9637W        W 9637   6.343   5.589   1.713 -0.2097 -0.0086 -0.0542
 9638W        W 9638   4.900   6.123   5.133  0.1485 -0.1679 -0.0026
 9639W        W 9639   8.413   4.007   3.314  0.0391  0.3277 -0.1338
 9640W        W 9640   7.934   9.461   2.247 -0.1973  0.0327 -0.0886
 9641W        W 9641   8.676   3.355   6.955 -0.3239 -0.0792  0.2850
 9642W        W 9642   7.918   1.213   2.885 -0.2742  0.0190 -0.0314
 9643W        W 9643   7.046   4.421   6.313  0.0373  0.0316 -0.0205
 9644W        W 9644   5.865   6.309   4.109  0.3302  0.1778  0.0291
 9645W        W 9645   2.510   7.987   1.967  0.0190 -0.1437 -0.0575
 9646W        W 9646   0.020   2.698   2.916 -0.0429 -0.1608 -0.1287
 9647W        W 9647   1.430   9.934   5.323  0.0679  0.0926 -0.0474
 9648W        W 9648   0.743   4.110   7.059  0.0281 -0.0082  0.0336
 9649W        W 9649   3.199   4.086   4.144 -0.1554 -0.3165 -0.1026
 9650W        W 9650   4.344   9.324   5.231  0.2445 -0.1537 -0.1651
 9651W        W 9651   6.212   0.619   0.952  0.0775 -0.3584  0.2687
 9652W        W 9652   5.287   5.284   4.666  0.1438 -0.2473 -0.0095
 9653W        W 9653   9.428   3.587   5.465  0.2479  0.0521  0.1611
 9654W        W 9654   5.444   1.124   1.515  0.1583 -0.2824 -0.1827
 9655W        W 9655   0.816   0.118   3.130  0.2655  0.0605 -0.2785
 9656W        W 9656  10.207   5.987   5.953  0.2722  0.0119 -0.1196
 9657W        W 9657   0.694   7.592   0.807  0.0139 -0.1202 -0.0639
 9658W        W 9658   2.571   6.179   7.442 -0.0345 -0.1236 -0.0869
 9659W        W 9659   1.220   2.732   8.273 -0.1199 -0.4086 -0.0570
 9660W        W 9660   8.486   2.618   4.876  0.3236 -0.0659  0.0540
 9661W        W 9661   0.380   1.769   8.245 -0.0158  0.0238  0.0123
 9662W        W 9662   7.727   1.151   4.971  0.0310  0.1972 -0.0610
 9663W        W 9663   6.049   1.265   9.447 -0.2408 -0.1377  0.0838
 9664W        W 9664   5.688   2.114   1.596  0.0154  0.2318 -0.0227
 9665W        W 9665   5.615   8.608   8.742  0.2186 -0.1560  0.0821
 9666W        W 9666   1.486   2.018   1.024  0.0113  0.0159  0.1538
 9667W        W 9667   8.383   6.519  10.200 -0.2173 -0.0589 -0.1938
 9668W        W 9668   2.600   1.659   9.935 -0.0942  0.0121 -0.0662
 9669W        W 9669   9.513   7.493   6.190 -0.0653 -0.1401 -0.2013
 9670W        W 9670   0.388   6.971   2.518 -0.0626 -0.2280  0.0663
 9671W        W 9671   6.010   1.301   6.434 -0.2173  0.0867 -0.1070
 9672W        W 9672   9.805   0.370   3.979  0.2435 -0.0038  0.4026
 9673W        W 9673   3.529   8.676   2.246  0.1178 -0.2623  0.0849
 9674W        W 9674   7.131   1.195   4.205  0.2020 -0.1682 -0.0004
 9675W        W 9675   1.896   2.573   1.533 -0.1074  0.1859  0.0697
 9676W        W 9676   5.895   4.997   3.288  0.0897  0.4585  0.0971
 9677W        W 9677   0.015   8.198   9.112 -0.1148 -0.0730  0.1539
 9678W        W 9678   9.599   9.490   9.846 -0.1340  0.3038  0.0598
 9679W        W 9679   0.162   8.678   5.947 -0.0338  0.0131  0.0576
 9680W        W 9680   7.218   7.734   3.407  0.0359 -0.1730  0.0322
 9681W        W 9681   3.354   6.586   9.670  0.0850 -0.0896 -0.0070
 9682W        W 9682   7.754   0.921   2.495  0.0746 -0.2000 -0.3062
 9683W        W 9683   0.393   2.549   8.935  0.0912 -0.4084  0.0019
 9684W        W 9684   9.563   4.282   6.603 -0.0397 -0.4730 -0.0058
 9685W        W 9685   3.092   9.396   2.547  0.1995 -0.1202 -0.2637
 9686W        W 9686   8.464   1.031   8.683  0.0375 -0.0901  0.1672
 9687W        W 9687   0.838  10.230   7.895  0.2978 -0.1130  0.2221
 9688W        W 9688   5.389   9.130   0.632  0.0908  0.1541 -0.2176
 9689W        W 9689   4.367   7.878   6.450  0.2308  0.1687 -0.0890
 9690W        W 9690   4.141   0.672   2.173 -0.0467 -0.1650 -0.3426
 9691W        W 9691   9.074   2.414   1.372 -0.2414  0.0609 -0.1236
 9692W        W 9692   8.112   6.819   6.274  0.1103 -0.2545 -0.0388
 9693W        W 9693   3.984   9.988   1.755 -0.2400 -0.3282 -0.1825
 9694W        W 9694   1.375   4.774   4.545 -0.2425 -0.1896  0.1503
 9695W        W 9695   6.511   7.777   4.974  0.2519  0.0006 -0.4363
 9696W        W 9696   4.198   8.223   6.888 -0.2400  0.2277 -0.0385
 9697W        W 9697   5.219   0.799   3.007 -0.1004  0.3173 -0.2722
 9698W        W 9698   6.919   7.562   5.184 -0.0354  0.3210 -0.1281
 9699W        W 9699   7.876   5.770   6.356 -0.2982 -0.2283  0.2125
 9700W        W 9700   7.258   0.365   8.539 -0.1570 -0.2454 -0.0499
 9701W        W 9701   7.153   3.778   0.092  0.2400  0.1361 -0.4131
 9702W        W 9702   1.033   7.256   3.231  0.3919  0.0141  0.2473
 9703W        W 9703   7.638   5.750   3.093  0.0463 -0.2146  0.2789
 9704W        W 9704   4.866   8.499   3.133 -0.0104  0.0073 -0.0242
 9705W        W 9705   0.296   2.982   2.535 -0.1193  0.3230 -0.1536
 9706W        W 9706   6.957   5.200   7.809  0.0266 -0.1342 -0.1130
 9707W        W 9707   5.817   5.786   0.999 -0.3243 -0.1157 -0.2791
 9708W        W 9708   6.448   0.899   9.846  0.0529 -0.0971  0.0388
 9709W        W 9709   2.138   1.821   1.968 -0.1432  0.0310  0.2361
 9710W        W 9710   8.665   7.124   2.482  0.0101 -0.3363  0.0400
 9711W        W 9711   7.415   2.833   1.483 -0.4794 -0.0861  0.1608
 9712W        W 9712   8.341   7.676   7.828 -0.1202 -0.0357  0.0417
 9713W        W 9713   9.992   4.373   6.901 -0.0298 -0.0296  0.0121
 9714W        W 9714   1.770   3.736   9.342 -0.1925 -0.0732  0.1871
 9715W        W 9715   2.016   7.814   4.566  0.0345 -0.1310  0.0400
 9716W        W 9716   1.198   5.162   4.824 -0.1990  0.0303 -0.0062
 9717W        W 9717   3.838   9.572   7.749 -0.2826  0.0014  0.1064
 9718W        W 9718   0.053   4.118   6.506  0.1861 -0.0427  0.2598
 9719W        W 9719   0.354   4.212   2.785  0.1399  0.6028  0.1626
 9720W        W 9720   6.140   0.782   2.422  0.0240 -0.1768 -0.1187
 9721W        W 9721   0.381   3.381   7.732  0.0553  0.1873 -0.1461
 9722W        W 9722   1.121   0.062   5.874  0.1456  0.3561  0.4191
 9723W        W 9723   0.740   2.110   3.546  0.0506  0.0386  0.1044
 9724W        W 9724   7.604   0.357   8.171 -0.0144  0.1668  0.0218
 9725W        W 9725   6.347   9.200   1.085  0.0436 -0.0231  0.1300
 9726W        W 9726   5.666   1.653   0.638 -0.1061 -0.0865  0.0870
 9727W        W 9727   5.233   9.518   2.421  0.2560 -0.1460  0.1240
 9728W        W 9728   4.905   7.870   2.073  0.1450  0.0041  0.1390
 9729W        W 9729   1.839   8.104   4.067  0.1020  0.1077  0.3003
 9730W        W 9730   6.101   9.976   7.328 -0.0204  0.0744  0.0483
 9731W        W 9731   6.307   2.688   1.034 -0.0577  0.2965 -0.1384
 9732W        W 9732   9.111   7.403   3.354  0.0316 -0.0514  0.0084
 9733W        W 9733   9.991   6.984   4.900 -0.0299 -0.3181  0.1152
 9734W        W 9734   9.703   0.399   5.301  0.1797 -0.1877 -0.1424
 9735W        W 9735   8.916   2.972   7.241 -0.2785  0.0538  0.1482
 9736W        W 9736   2.027   5.989   8.124  0.1619  0.1993 -0.1979
 9737W        W 9737   3.412   6.337   9.202 -0.2513  0.4583  0.2026
 9738W        W 9738   6.706   6.108   9.267  0.0783 -0.1308  0.4508
 9739W        W 9739   5.578   6.895  10.086 -0.2371 -0.2681  0.5454
 9740W        W 9740   0.736   4.980   6.614 -0.2390  0.2020  0.1535
 9741W        W 9741   2.457   8.869   2.085 -0.1364  0.1069 -0.2623
 9742W        W 9742   3.139   8.403   3.377  0.2650  0.2567  0.2576
 9743W        W 9743   5.834   4.632   4.869  0.0498 -0.0764  0.1040
 9744W        W 9744   2.492   7.338   9.859 -0.0945  0.2195  0.0125
 9745W        W 9745   8.350   5.950   5.561  0.2489  0.0549 -0.1448
 9746W        W 9746   4.255   2.447   5.538 -0.0876 -0.0564 -0.2495
 9747W        W 9747   6.942   2.570   9.175  0.2871  0.2258  0.1462
 9748W        W 9748   1.423   3.244   3.328  0.1015  0.0328 -0.0770
 9749W        W 9749   8.810   5.894   8.388  0.0970 -0.2864  0.2139
 9750W        W 9750   2.939   5.322   3.455  0.0165 -0.0365 -0.1420
 9751W        W 9751   3.915   1.312   0.296 -0.2820  0.3841  0.2105
 9752W        W 9752   5.194   8.123   3.823 -0.1065  0.1196 -0.0519
 9753W        W 9753   4.376   5.813   9.199  0.1282  0.0099  0.0703
 9754W        W 9754   6.891   1.724   7.406  0.2697  0.0925  0.2184
 9755W        W 9755   7.297   1.403   1.793 -0.4342  0.0203  0.0760
 9756W        W 9756   9.830   5.357   3.803  0.0465  0.1276 -0.3181
 9757W        W 9757   9.396   9.998   7.218  0.1827  0.1621 -0.0349
 9758W        W 9758   0.608   9.915   6.126  0.1708  0.1111  0.1281
 9759W        W 9759   5.613   5.144   4.231 -0.0030  0.2806 -0.1141
 9760W        W 9760   8.805  10.299   2.003  0.1374 -0.5464  0.0209
 9761W        W 9761   3.309   6.477   0.509  0.1343  0.2944 -0.1947
 9762W        W 9762   7.544   0.211   7.411 -0.1352  0.1645  0.0910
 9763W        W 9763   9.618   5.255   7.616  0.1135 -0.1136  0.2207
 9764W        W 9764   9.225   2.021   6.132  0.3046  0.0618  0.4379
 9765W        W 9765   9.785   1.176   0.541  0.0374  0.2875  0.0830
 9766W        W 9766   7.820   6.065   6.780  0.1040 -0.2562 -0.1046
 9767W        W 9767   0.012   5.991   1.904  0.0508  0.1986 -0.4159
 9768W        W 9768   1.552   5.007   0.370 -0.2020 -0.2024  0.0371
 9769W        W 9769   6.408   1.424   9.812 -0.0264 -0.2581 -0.1727
 9770W        W 9770   2.128   6.307   3.113  0.1384  0.3486  0.1614
 9771W        W 9771   8.053   1.331   1.975 -0.2283  0.1613  0.0612
 9772W        W 9772   6.274   7.089   9.431 -0.0808  0.1034 -0.1512
 9773W        W 9773   8.860   1.555   2.587  0.0019  0.0657  0.0392
 9774W        W 9774   5.498   5.608   0.616  0.0366 -0.1271 -0.1377
 9775W        W 9775   3.576   0.614   9.605 -0.1162  0.0607  0.3551
 9776W        W 9776   0.838   6.771   3.399  0.3393  0.1437 -0.3769
 9777W        W 9777   0.979   1.878   0.856 -0.0918  0.2055  0.0520
 9778W        W 9778   1.925   6.499   2.444  0.2128  0.0427 -0.0158
 9779W        W 9779   7.908   6.190   7.990  0.2991 -0.0367  0.2697
 9780W        W 9780   1.948   9.124   8.020 -0.1070 -0.0934 -0.3131
 9781W        W 9781   0.085   7.157   4.991  0.0311  0.0306 -0.0352
 9782W        W 9782   9.729   3.591   3.217  0.0886  0.0049  0.1017
 9783W        W 9783   0.357   6.388   1.635 -0.0349  0.2102 -0.1048
 9784W        W 9784   2.368   0.523   6.311  0.1649  0.2230  0.2283
 9785W        W 9785   5.764  10.049   7.755  0.1578  0.3359 -0.0301
 9786W        W 9786   3.312   8.825   3.181 -0.4432 -0.1268 -0.0465
 9787W        W 9787   5.541   3.414   1.334 -0.4900  0.0109 -0.0587
 9788W        W 9788   5.409   6.716   2.919  0.0873 -0.2936  0.0609
 9789W        W 9789   0.286   8.486   0.460 -0.1018  0.1468 -0.0979
 9790W        W 9790   5.766   1.449   3.594  0.1819  0.1830  0.0336
 9791W        W 9791   3.003   5.617   9.639 -0.0249  0.2437  0.0281
 9792W        W 9792   3.271   2.596   3.401  0.1391 -0.1325 -0.3481
 9793W        W 9793   9.233   0.328   3.191  0.0064 -0.0015 -0.2952
 9794W        W 9794   9.029   7.164   7.155  0.2356 -0.2969  0.0262
 9795W        W 9795   1.925   9.442   9.309 -0.0104  0.1508 -0.0368
 9796W        W 9796   2.411   1.235   2.471  0.4115 -0.3315  0.1371
 9797W        W 9797   9.735   7.917   3.790  0.1962  0.0835  0.0655
 9798W        W 9798   8.164   7.353   3.821  0.2639  0.3333 -0.2998
 9799W        W 9799   6.111   3.146  10.258 -0.1184  0.0740 -0.1125
 9800W        W 9800   8.683   8.037   2.558 -0.0253 -0.1668 -0.1220
 9801W        W 9801   0.113   4.636   4.251 -0.3703  0.0053 -0.3170
 9802W        W 9802   3.589   1.970   1.246  0.0117 -0.0898  0.1239
 9803W        W 9803   2.968   1.061   3.895  0.0967 -0.2097 -0.1123
 9804W        W 9804   6.636   0.434   2.613  0.1111  0.1215  0.0221
 9805W        W 9805   7.940   7.767   6.461 -0.3420 -0.4064 -0.1756
 9806W        W 9806   9.368   7.362   0.001 -0.2537  0.1293  0.2038
 9807W        W 9807   9.604   1.288   3.107 -0.0097  0.0833  0.0954
 9808W        W 9808   6.792   3.843   6.950 -0.0379  0.1172 -0.0825
 9809W        W 9809   5.102   2.798   3.782  0.1798  0.0755  0.0730
 9810W        W 9810   5.302   9.784   9.541  0.0954  0.0763 -0.1198
 9811W        W 9811   4.658   6.538   8.636 -0.1206  0.0035 -0.2348
 9812W        W 9812   0.526   7.262   1.787  0.1293  0.0645 -0.0048
 9813W        W 9813   7.474   7.570   5.111  0.0507 -0.1872 -0.1910
 9814W        W 9814   9.737   5.292   2.986  0.3553 -0.0088 -0.4826
 9815W        W 9815   2.057   2.652   7.807 -0.0559 -0.0344  0.1064
 9816W        W 9816   6.743   6.017   4.541 -0.1107 -0.0952  0.1276
 9817W        W 9817   4.253   5.623   9.861 -0.2511  0.0194  0.3183
 9818W        W 9818   6.697   5.609   5.516 -0.1709 -0.1115  0.2152
 9819W        W 9819   4.905   8.810   2.684  0.0779  0.1576  0.2359
 9820W        W 9820   0.739   9.083   6.113 -0.2863  0.4180 -0.0952
 9821W        W 9821   8.411   1.483   6.433 -0.3320  0.1317 -0.2638
 9822W        W 9822   8.254   3.237   4.095  0.0057  0.1736 -0.1448
 9823W        W 9823   3.000   1.892   2.459  0.1287 -0.0609  0.1547
 9824W        W 9824   3.706   9.309   3.079 -0.0547  0.2876 -0.0027
 9825W        W 9825   1.448   0.943   2.370  0.0940  0.1885  0.2575
 9826W        W 9826   4.710   8.766   4.095 -0.2250 -0.2193  0.2736
 9827W        W 9827   0.645   0.702  10.193  0.0890 -0.2630  0.0464
 9828W        W 9828   9.093   1.097   5.353 -0.0981  0.3024 -0.0912
 9829W        W 9829   7.141   3.797   6.569  0.0345 -0.1112  0.1760
 9830W        W 9830   7.609   4.330   8.586 -0.1158  0.4504 -0.0086
 9831W        W 9831   7.509   2.115   1.039  0.0693  0.1709 -0.1710
 9832W        W 9832   8.605   8.812   2.978  0.0263  0.2624 -0.1746
 9833W        W 9833   8.974   1.183   6.378  0.1966  0.1386 -0.2376
 9834W        W 9834   0.218   4.748   2.740  0.0752 -0.2236 -0.0601
 9835W        W 9835   2.928   7.692   5.079  0.1831  0.0443 -0.3675
 9836W        W 9836   4.204   1.750   9.872 -0.0452  0.2202 -0.0181
 9837W        W 9837   4.808   7.287   6.908 -0.1100 -0.1788 -0.1561
 9838W        W 9838   0.759   2.894   5.820 -0.2753  0.1248  0.0726
 9839W        W 9839   6.250  10.201   2.238  0.0143 -0.1526 -0.1674
 9840W        W 9840   3.615   6.196   5.819  0.1924 -0.3618  0.0326
 9841W        W 9841   4.608   2.848   9.260  0.2116 -0.2122  0.0712
 9842W        W 9842  10.239   2.897   1.622  0.0540 -0.1773  0.1514
 9843W        W 9843   8.741   2.907   6.659  0.3611 -0.0587 -0.3885
 9844W        W 9844   9.407   1.652   1.774 -0.5963 -0.6024  0.2488
 9845W        W 9845   4.151   0.356   1.376  0.0519 -0.0950 -0.1969
 9846W        W 9846   6.644   6.912  10.260  0.2570 -0.0101  0.2857
 9847W        W 9847   0.698   3.058   2.174  0.0082 -0.1194 -0.2360
 9848W        W 9848   0.551   2.614   1.375 -0.1022 -0.2629  0.2972
 9849W        W 9849   9.052   0.780   2.201  0.1809  0.1583 -0.1652
 9850W        W 9850   1.582   3.253   9.999  0.0303 -0.0961  0.1927
 9851W        W 9851   5.039   8.004   3.364  0.2010 -0.1521 -0.0247
 9852W        W 9852   3.920   4.849   9.816  0.0358  0.0764 -0.2549
 9853W        W 9853   5.697   5.150   0.504 -0.0995 -0.0242 -0.2615
 9854W        W 9854   4.119   2.495   4.034 -0.0898  0.1075  0.2521
 9855W        W 9855   0.644   1.026   1.881 -0.1258 -0.1503  0.1310
 9856W        W 9856   6.557   6.688   6.822  0.1166  0.0476 -0.1692
 9857W        W 9857   5.787   3.867   4.117  0.0401  0.0064 -0.2331
 9858W        W 9858   2.893   1.782   3.329 -0.1914 -0.0967 -0.1369
 9859W        W 9859   7.311   0.168   9.303 -0.4782  0.1523 -0.0886
 9860W        W 9860   9.815   9.613   1.117 -0.1443 -0.1359  0.0724
 9861W        W 9861   6.039   0.497   0.026  0.0244 -0.0565  0.0535
 9862W        W 9862   2.363  10.033   7.518 -0.0392 -0.0390 -0.1666
 9863W        W 9863   7.945  10.057   5.896  0.0817 -0.3059  0.0409
 9864W        W 9864   9.765   6.515   6.189  0.0377 -0.0216  0.0602
 9865W        W 9865   7.735   0.776   4.299 -0.0939 -0.3448 -0.0271
 9866W        W 9866  10.329   3.838   8.584 -0.0840  0.1044 -0.3187
 9867W        W 9867   5.596   8.840   2.785  0.1923  0.2867 -0.0566
 9868W        W 9868   3.072   6.963   4.533 -0.1251 -0.0588 -0.0991
 9869W        W 9869   3.362   6.951   2.402  0.1018 -0.3177 -0.1267
 9870W        W 9870   9.720   9.378   2.049 -0.0978 -0.0722  0.2492
 9871W        W 9871   6.589   8.307   0.416  0.2453 -0.1470 -0.0065
 9872W        W 9872   5.227   1.728   6.052  0.4309  0.2195  0.0362
 9873W        W 9873   5.547   0.030   4.068  0.1764  0.1380 -0.1666
 9874W        W 9874   0.553   0.020   3.876  0.2857 -0.0005 -0.3477
 9875W        W 9875   3.148   8.900   7.477 -0.0449 -0.0967 -0.1660
 9876W        W 9876   3.189   0.442   1.304  0.2730 -0.0557 -0.2411
 9877W        W 9877   7.113   6.924   7.030  0.0481 -0.1917  0.2004
 9878W        W 9878  10.156   9.000   5.010 -0.2923 -0.1028  0.0618
 9879W        W 9879   6.107   7.518   9.835 -0.4292 -0.0341  0.1397
 9880W        W 9880   0.846   2.778   0.946  0.2350  0.1880 -0.2373
 9881W        W 9881   1.882   7.130   6.927 -0.4512  0.1645 -0.0986
 9882W        W 9882   9.358   6.332   2.333 -0.2158 -0.1730 -0.5456
 9883W        W 9883   8.377   0.360   7.797  0.0147  0.1026 -0.2212
 9884W        W 9884   8.007   1.745   6.810  0.0354  0.1576  0.2671
 9885W        W 9885   6.088   4.194   8.350 -0.0610  0.4671 -0.1976
 9886W        W 9886   0.664   9.805   9.821  0.1547 -0.1298 -0.0235
 9887W        W 9887   2.680   1.419   5.390 -0.1904 -0.2397 -0.2744
 9888W        W 9888   6.321   9.504   3.818  0.1607 -0.1978  0.0020
 9889W        W 9889   1.901   7.062   7.798 -0.2888  0.1581  0.0938
 9890W        W 9890   5.187   9.578   4.235 -0.1754 -0.0928  0.0830
 9891W        W 9891   9.436   3.021   5.413  0.0852  0.0510 -0.2403
 9892W        W 9892   1.233   2.847  10.250 -0.0058 -0.0508  0.2387
 9893W        W 9893   4.937   8.222   2.419 -0.0281  0.2682  0.0502
 9894W        W 9894   0.425   9.944   4.955  0.3037 -0.0327 -0.1226
 9895W        W 9895   7.714   8.635   8.243 -0.0925 -0.0714 -0.0065
 9896W        W 9896   7.709   5.040   8.067 -0.0030 -0.2258  0.0137
 9897W        W 9897   5.615   6.657   9.622 -0.3242  0.0748  0.0269
 9898W        W 9898   1.230   3.898   3.913  0.0497  0.1392 -0.1162
 9899W        W 9899   7.597   9.128   5.658 -0.1337  0.0594  0.2400
 9900W        W 9900   3.086   2.232   4.767 -0.3823  0.0461 -0.0476
 9901W        W 9901   1.446   3.285   0.143 -0.0923 -0.3156  0.2653
 9902W        W 9902   4.307   7.938   5.004  0.1891 -0.0846 -0.1080
 9903W        W 9903   8.089   9.368  10.289 -0.1579 -0.0924 -0.0550
 9904W        W 9904   9.871   1.701   2.523  0.0142  0.1826 -0.4551
 9905W        W 9905   4.679   0.060   2.720 -0.0774  0.1552 -0.0952
 9906W        W 9906   2.670   1.594   9.017  0.1070 -0.0885 -0.0169
 9907W        W 9907   0.516   2.093   3.974 -0.4839  0.3313  0.1810
 9908W        W 9908   8.098   3.507   3.584  0.0115  0.1534 -0.0004
 9909W        W 9909   6.607   4.419   9.116  0.2444 -0.1496 -0.0945
 9910W        W 9910   5.424   2.414   9.902  0.0826 -0.1809  0.1774
 9911W        W 9911   4.819   6.549   4.483 -0.0907 -0.1685  0.1012
 9912W        W 9912   1.836   7.361   4.510  0.2207  0.1331  0.1410
 9913W        W 9913   7.524   6.569   2.589  0.3155  0.1288 -0.0318
 9914W        W 9914   8.640   2.351   4.489  0.0037  0.2322 -0.0091
 9915W        W 9915   3.487   4.839  10.092 -0.0245 -0.2522  0.0588
 9916W        W 9916   2.376   0.107   8.884  0.1891 -0.3315 -0.0070
 9917W        W 9917   2.321   8.237   1.453 -0.0885 -0.0416 -0.0688
 9918W        W 9918   0.547  10.275   1.878  0.2700  0.3609  0.2829
 9919W        W 9919   5.926   5.041   5.214  0.0914  0.2468 -0.1839
 9920W        W 9920   5.437   2.859   1.433 -0.0841 -0.2380  0.1789
 9921W        W 9921   9.551   0.888   2.240  0.0437  0.3625 -0.1014
 9922W        W 9922   0.359   4.705   7.638 -0.0539 -0.0759 -0.0255
 9923W        W 9923   0.588   5.016   8.887  0.2475  0.2061 -0.4268
 9924W        W 9924   2.636   9.434   2.763  0.2068 -0.0922  0.2816
 9925W        W 9925   2.502   5.861   5.192  0.0604 -0.3291 -0.0012
 9926W        W 9926   3.454   7.308   4.387  0.0944  0.0383 -0.0165
 9927W        W 9927   6.010   8.133   9.302  0.0637 -0.0687  0.0503
 9928W        W 9928   5.246   1.387   3.643 -0.3517 -0.2881 -0.1815
 9929W        W 9929   4.459   7.475   2.900 -0.2119 -0.0298  0.0321
 9930W        W 9930   7.539   7.327   7.627  0.1387 -0.1813  0.0780
 9931W        W 9931   5.910   8.608   6.039  0.2104  0.0199 -0.3176
 9932W        W 9932   2.426   7.834   4.993 -0.0364  0.1554 -0.0483
 9933W        W 9933   2.305   2.796   6.893 -0.0250  0.0647 -0.3372
 9934W        W 9934   3.446   7.565   7.949  0.0087 -0.0238  0.0616
 9935W        W 9935   6.415   8.288   9.115 -0.1168  0.0920 -0.0028
 9936W        W 9936   2.052   3.448   7.002 -0.3094  0.0256  0.2242
 9937W        W 9937   1.610   0.664   5.932  0.1094 -0.0595 -0.2717
 9938W        W 9938   1.150   0.348   4.446  0.0171 -0.2071  0.0584
 9939W        W 9939   8.465   0.055   1.163  0.0886  0.4814 -0.1329
 9940W        W 9940   6.139   9.255   2.283  0.2385  0.1207  0.1748
 9941W        W 9941   7.961   2.442   9.543  0.1621 -0.0637 -0.1546
 9942W        W 9942   9.450   5.671   4.468 -0.1808 -0.3045 -0.0796
 9943W        W 9943   7.168   5.976   0.843  0.2538  0.0412  0.3863
 9944W        W 9944   3.502   9.977   8.075 -0.0152 -0.1152  0.3573
 9945W        W 9945   6.025   0.748   4.964 -0.0961  0.1372  0.0924
 9946W        W 9946   1.951  10.179   1.567 -0.1450  0.1813  0.2350
 9947W        W 9947   9.701   9.612   7.199 -0.0338  0.1337  0.2560
 9948W        W 9948   2.578   1.370   4.721 -0.0680 -0.0039  0.4052
 9949W        W 9949   6.193   9.206   6.838  0.0085 -0.0552 -0.2184
 9950W        W 9950   4.576   3.974   1.241  0.0830  0.3161 -0.3246
 9951W        W 9951   8.650   0.469   6.927  0.2807  0.0837  0.4457
 9952W        W 9952   1.933   0.747   5.009  0.0891 -0.0666  0.0119
 9953W        W 9953   8.158  10.270   3.910 -0.1213 -0.1453  0.2501
 9954W        W 9954   1.998   9.913   6.808 -0.2978  0.1227 -0.0992
 9955W        W 9955  10.109   5.161  10.253 -0.0114 -0.2682  0.1093
 9956W        W 9956   1.154   1.465   6.317  0.0427  0.4518 -0.2116
 9957W        W 9957   4.580   4.517   8.440  0.1636 -0.1297 -0.1221
 9958W        W 9958   9.995   0.945   1.362 -0.1144 -0.0079  0.0173
 9959W        W 9959   2.057  10.242   6.419 -0.3663 -0.0038  0.0236
 9960W        W 9960   7.903   4.611   9.780  0.0765 -0.0508  0.0620
 9961W        W 9961   1.790   8.065   3.546 -0.0109  0.0863 -0.1072
 9962W        W 9962   5.086   2.406   2.202  0.0901  0.1164  0.1372
 9963W        W 9963   9.790  10.246   3.805 -0.0713  0.1010 -0.2868
 9964W        W 9964   9.046  10.277   8.270 -0.2192 -0.0597 -0.0229
 9965W        W 9965   4.513   4.231   2.879 -0.2476 -0.1700  0.2524
 9966W        W 9966   6.193   1.895   2.811 -0.2553 -0.2499  0.0141
 9967W        W 9967   3.678   7.163   6.085  0.0209  0.0689  0.0437
 9968W        W 9968   6.359   8.353   3.276 -0.1840  0.2328 -0.1817
 9969W        W 9969   0.889   6.961   9.053  0.0530 -0.0476 -0.1156
 9970W        W 9970   9.099   0.796   6.656  0.0431 -0.1018 -0.1147
 9971W        W 9971   4.321   5.762   3.539 -0.1226  0.1320  0.0916
 9972W        W 9972   3.488   8.895   8.634 -0.1368 -0.1806  0.0158
 9973W        W 9973   1.148   2.829   2.344  0.1175  0.2633 -0.1041
 9974W        W 9974  10.329   1.574   4.636 -0.2389  0.0668  0.0699
 9975W        W 9975   9.619   2.617   4.087 -0.2479  0.1905  0.0841
 9976W        W 9976   5.174   4.826   5.421  0.1461 -0.0226  0.1664
 9977W        W 9977   5.633   5.457   5.134  0.1124 -0.2653  0.3984
 9978W        W 9978   9.224   1.147   0.939  0.2149 -0.2411 -0.1355
 9979W        W 9979   6.362   6.604   2.966  0.1846  0.0626 -0.2480
 9980W        W 9980   1.777   4.036   6.715  0.0330 -0.0788 -0.1785
 9981W        W 9981   0.107   1.043   3.625 -0.0550  0.0218 -0.1138
 9982W        W 9982   7.060   0.602   0.316 -0.0646  0.1081  0.0755
 9983W        W 9983   4.948   1.296   7.467  0.1038 -0.0381 -0.1346
 9984W        W 9984   0.058   1.969   0.492 -0.1350  0.2792  0.0737
 9985W        W 9985   2.980   6.004   7.063 -0.1190 -0.4441  0.1799
 9986W        W 9986   6.717   5.354   1.110  0.1028 -0.1294  0.3707
 9987W        W 9987   9.167   2.873   1.540  0.4197 -0.1694 -0.2675
 9988W        W 9988   6.371  10.187   8.344  0.1245  0.1205  0.2220
 9989W        W 9989   7.760   7.465   3.066  0.2249 -0.1427  0.1118
 9990W        W 9990   1.948   2.370   9.155  0.2856  0.1665  0.2845
 9991W        W 9991   5.477   4.110   8.514  0.0184 -0.1181 -0.1928
 9992W        W 9992   8.528   1.953   0.627  0.1250  0.2035  0.0218
 9993W        W 9993   5.396   6.083   3.835 -0.0546  0.0811  0.0745
 9994W        W 9994   2.156   4.868   0.634 -0.3745 -0.0069 -0.0831
 9995W        W 9995  10.146   7.005   9.032 -0.0992  0.2107 -0.2646
 9996W        W 9996   7.954   7.171   1.803  0.0855 -0.1701  0.1805
 9997W        W 9997   8.968   4.068  10.319 -0.0755  0.1036  0.1926
 9998W        W 9998   8.118   0.042   8.043 -0.0933 -0.2718 -0.0960
 9999W        W 9999   9.770   6.261   1.140 -0.0344  0.0499 -0.2661
10000W        W10000   3.291   2.820   8.355 -0.0047  0.4005 -0.4010
10001W        W10001   6.147   5.141   9.730  0.0452  0.1086  0.0512
10002W        W10002   2.761   5.114   2.296  0.1758 -0.0033 -0.1194
10003W        W10003   8.312  10.286   1.860 -0.1059  0.0817 -0.1007
10004W        W10004   5.505   7.851   4.602  0.0119 -0.1034  0.1780
10005W        W10005   9.606   5.810   5.418  0.1566  0.1694  0.1546
10006W        W10006   6.561   2.104   1.923 -0.0992  0.0955 -0.0332
10007W        W10007   8.095   3.695   2.700  0.0431 -0.0756 -0.1354
10008W        W10008   2.231   6.071   5.945  0.0125  0.2630 -0.0033
10009W        W10009   7.173   7.431   3.856 -0.1189 -0.2687 -0.0568
10010W        W10010   3.766   0.628   7.022 -0.1903 -0.0236 -0.2559
10011W        W10011   6.351   2.446   9.801 -0.1449 -0.0190  0.1149
10012W        W10012   1.643   9.045   3.702 -0.2816 -0.2640  0.1727
10013W        W10013   2.577   8.663   9.930  0.0144 -0.2083  0.1044
10014W        W10014   3.420   1.177   0.052 -0.0138 -0.0164  0.1776
10015W        W10015   6.825   5.831   7.066  0.0579 -0.1743 -0.0362
10016W        W10016   2.871   1.999   6.721 -0.0906  0.1153  0.0850
10017W        W10017   6.100   4.313   7.312 -0.3977 -0.3839 -0.2707
10018W        W10018   3.356   8.301   1.039  0.0466 -0.2074 -0.0618
10019W        W10019   4.124   8.225   2.839 -0.0991  0.3332  0.2180
10020W        W10020   7.639   2.051  10.272 -0.0904 -0.2604  0.1161
10021W        W10021   1.043   3.793   4.606 -0.1465  0.0113  0.1084
10022W        W10022   4.487   4.986   5.796 -0.2276  0.0076 -0.0002
10023W        W10023   9.689   5.430   0.900  0.0277  0.1128  0.3494
10024W        W10024   1.323   2.791   0.387  0.2426 -0.0215 -0.1272
10025W        W10025   2.633   5.275   6.041  0.1784  0.0511 -0.3100
10026W        W10026   6.842   7.445   1.516  0.1889 -0.0200  0.1503
10027W        W10027   5.234   2.618   5.303 -0.1871 -0.2934 -0.1322
10028W        W10028   1.506   3.955   1.485  0.1316  0.0952 -0.0510
10029W        W10029   9.773   0.639   2.630  0.1760  0.1255  0.1044
10030W        W10030   0.521   9.257   5.420 -0.1308 -0.1478  0.1622
10031W        W10031   3.339   4.159   8.504 -0.0204 -0.0396 -0.0016
10032W        W10032   2.397   9.777   2.247 -0.4101 -0.2735  0.0815
10033W        W10033   5.930   7.936  10.119 -0.0986  0.1579 -0.0264
10034W        W10034   2.188   1.910   9.796  0.2583 -0.0886 -0.0085
10035W        W10035   8.853   4.815   7.422  0.0089 -0.3752 -0.0438
10036W        W10036   3.424   0.286   3.729  0.0496 -0.1622  0.2317
10037W        W10037   1.839  10.176   5.220 -0.0043  0.2038  0.1609
10038W        W10038   3.450   2.843   6.053  0.3113 -0.1647  0.1219
10039W        W10039   1.957   3.415   0.234  0.0054 -0.1939 -0.0055
10040W        W10040   0.734   2.907   9.123  0.1064  0.0470 -0.1981
10041W        W10041   2.215   8.649   0.744  0.0409  0.0154  0.0520
10042W        W10042   3.093   5.039   0.112  0.0770 -0.1647  0.1710
10043W        W10043   3.121   4.509   2.001 -0.0159 -0.0669 -0.2021
10044W        W10044   9.064   2.812   8.945  0.1199  0.1090 -0.2668
10045W        W10045   5.131   9.275   7.494  0.0361 -0.0325 -0.0790
10046W        W10046   7.671   9.795   9.941 -0.3884  0.3951  0.0502
10047W        W10047   0.661   1.625   9.199 -0.2204 -0.0053  0.1110
10048W        W10048   2.920   7.977   3.581  0.2801 -0.1064  0.1343
10049W        W10049   1.661   4.270   6.218  0.2601  0.2778 -0.1750
10050W        W10050   7.096   0.904  10.232 -0.0151  0.2254  0.0780
10051W        W10051   2.119   4.533   6.100  0.2323 -0.0858  0.1960
10052W        W10052   0.290   4.904   3.203 -0.0734 -0.2056 -0.2060
10053W        W10053   6.652   9.722   1.887  0.1710 -0.0762 -0.0355
10054W        W10054   8.884   2.209   0.121  0.1490  0.2178  0.0090
10055W        W10055   7.054   7.374  10.213  0.2047  0.2127  0.1476
10056W        W10056   7.979   6.682   0.515  0.2667  0.1508  0.4683
10057W        W10057   9.488   8.155   5.086 -0.2771  0.0693  0.5238
10058W        W10058   7.193   3.912   3.116  0.1817  0.0271 -0.1617
10059W        W10059   1.099   6.275   8.721  0.0299 -0.2419  0.0991
10060W        W10060   7.406   7.733   9.093  0.0239  0.1432 -0.2807
10061W        W10061   3.266   1.070   4.755  0.1192 -0.1897 -0.0929
10062W        W10062   4.714   5.802   7.466  0.1632  0.0629 -0.2268
10063W        W10063   7.053   9.223   5.566 -0.0224 -0.1985 -0.2767
10064W        W10064   5.481   6.326   7.901 -0.2171 -0.0574 -0.1084
10065W        W10065   6.484   3.777   5.435  0.0525  0.0951  0.0542
10066W        W10066   7.059   9.389   5.077 -0.2067 -0.2961 -0.1850
10067W        W10067   4.930   4.514   3.205 -0.2319  0.0118 -0.3262
10068W        W10068   2.164   1.073   3.330 -0.1732  0.1070  0.4166
10069W        W10069   5.682   6.235   9.197 -0.1511 -0.1751  0.0011
10070W        W10070   8.325   3.515   9.683 -0.0982  0.0113  0.0811
10071W        W10071   4.291   6.142   5.763  0.1730  0.0770  0.0924
10072W        W10072  10.078   7.584   1.268 -0.1177 -0.0478  0.2994
10073W        W10073   0.914   4.467   7.513 -0.4388 -0.0605  0.0732
10074W        W10074   7.458   9.790   0.660 -0.1214  0.1719 -0.2041
10075W        W10075   5.157   4.424  10.330  0.0066 -0.1210 -0.0500
10076W        W10076  10.190   6.510   8.171 -0.0931  0.2021  0.2876
10077W        W10077   7.430   9.659   8.024 -0.3347 -0.0435 -0.0334
10078W        W10078   3.041   7.544   0.206  0.2559 -0.0246  0.1055
10079W        W10079   3.439   1.005   6.957  0.2677  0.0517 -0.1883
10080W        W10080   5.044   7.571   3.607 -0.2325 -0.1551  0.1971
10081W        W10081   5.288   8.201   5.268 -0.0863  0.0220  0.0278
10082W        W10082   7.540   9.079   1.803  0.4324 -0.3006 -0.4412
10083W        W10083   7.942   0.624   5.733 -0.0934  0.2142  0.0885
10084W        W10084   5.083   5.765   5.483  0.0654  0.0909  0.2992
10085W        W10085   7.601   6.325   4.624 -0.2347  0.0704  0.2174
10086W        W10086   2.370   6.430  10.141 -0.2703 -0.3069  0.4687
10087W        W10087   4.862   3.676   7.925 -0.2413  0.2114 -0.0420
10088W        W10088   6.948  10.096   6.864  0.4324 -0.1521 -0.0229
10089W        W10089   9.278   4.113   8.068  0.0017 -0.2590 -0.2304
10090W        W10090   3.940   5.050   1.106  0.0129 -0.2334 -0.0004
10091W        W10091   4.887   0.779   9.357 -0.1197 -0.1506  0.0449
10092W        W10092   4.959   6.121   7.754  0.0379 -0.0745  0.0312
10093W        W10093   9.528   7.167   8.500 -0.0225  0.2537 -0.2774
10094W        W10094   3.950   6.209   5.327 -0.0607  0.0448 -0.1595
10095W        W10095   5.450   2.309   2.518  0.0400  0.1823  0.2435
10096W        W10096   2.693   7.238   6.446  0.0036  0.0463  0.1995
10097W        W10097   7.031   9.192   6.680  0.0002  0.2426  0.0124
10098W        W10098   9.648  10.046   5.240 -0.0604 -0.2113 -0.0557
10099W        W10099   9.772   6.102   7.440  0.2831 -0.0862 -0.3569
10100W        W10100   6.491   7.546   6.412 -0.1130 -0.1659  0.0014
10101W        W10101   1.039   9.928   5.659 -0.0039 -0.0269  0.0349
10102W        W10102   1.922   2.958  10.252  0.0403 -0.1206 -0.0743
10103W        W10103   1.675   7.830   9.518 -0.1279  0.1292 -0.0909
10104W        W10104   9.995   5.891   6.842  0.0895 -0.2427 -0.2434
10105W        W10105   0.582   1.959   5.768 -0.1038  0.2189 -0.0483
10106W        W10106   6.497   9.088  10.086  0.3391  0.0370 -0.1111
10107W        W10107   5.333   7.081   6.746  0.0156  0.0865 -0.1265
10108W        W10108   8.752   9.154   9.281 -0.2629  0.0901  0.0842
10109W        W10109   3.597   3.804   1.711 -0.2141 -0.2580 -0.0535
10110W        W10110   2.921   1.479   2.800 -0.0128 -0.1824  0.0811
10111W        W10111   1.235   1.257   5.450 -0.0903  0.1454  0.0360
10112W        W10112   8.189   9.677   9.812 -0.4309  0.0258 -0.0314
10113W        W10113   5.503   7.474   9.942  0.2582  0.1886  0.1246
10114W        W10114   3.886   1.863   4.504  0.0816  0.0024  0.0038
10115W        W10115   8.393   5.295   8.584  0.4223  0.1866  0.3377
10116W        W10116   2.693   4.585   9.360 -0.0317 -0.2484  0.1065
10117W        W10117   9.965   6.471   4.595  0.0283 -0.1464  0.1062
10118W        W10118   9.739   2.932   9.914 -0.1607 -0.1206 -0.4604
10119W        W10119   8.174   0.453   6.739  0.0214 -0.0719  0.0499
10120W        W10120   6.845   6.384   1.210 -0.0572 -0.1975 -0.2973
10121W        W10121   7.238   0.950   1.426  0.1456 -0.0656  0.0765
10122W        W10122   8.033   1.855   3.634  0.1179 -0.0663  0.0135
10123W        W10123   3.056   5.553   1.292  0.5201 -0.0341  0.2088
10124W        W10124   1.315   8.388   0.399 -0.2515 -0.1590 -0.1077
10125W        W10125   1.218   4.827   6.382 -0.2151 -0.0774 -0.0566
10126W        W10126   6.101   6.350   8.503 -0.2197  0.0584 -0.3021
10127W        W10127   7.897   6.399   0.049 -0.2483  0.0451 -0.2108
10128W        W10128   8.532   7.586   2.336  0.1392  0.2324  0.1198
10129W        W10129   2.031   6.911   9.402 -0.0518  0.1584  0.2147
10130W        W10130   1.234   1.610   7.737 -0.0477  0.0908 -0.5000
10131W        W10131   4.332   4.177   9.174 -0.1952  0.4050 -0.0206
10132W        W10132   3.819   3.678   8.022  0.2396  0.0263 -0.1354
10133W        W10133   1.407   7.372   9.953  0.1540 -0.1990 -0.1418
10134W        W10134   2.332   9.714   3.557 -0.0325 -0.4393 -0.1569
10135W        W10135   3.496   8.338   8.287 -0.0595 -0.0725  0.1798
10136W        W10136   2.041   5.132   1.656 -0.2486 -0.1531 -0.2684
10137W        W10137   4.935   0.275   4.125 -0.2494 -0.2464 -0.2222
10138W        W10138   3.097   6.613   3.988  0.1401  0.1850 -0.0251
10139W        W10139   1.822   1.009   4.365  0.4405  0.0094  0.1475
10140W        W10140   7.059   4.565   8.750  0.0234  0.3265 -0.0774
10141W        W10141   2.087   8.226   5.162  0.1932  0.0815 -0.0474
10142W        W10142   2.878   8.643   9.564 -0.2050 -0.0263 -0.1727
10143W        W10143   6.513   9.810   7.636  0.0582 -0.1030 -0.0730
10144W        W10144   1.480   8.641   8.491  0.0559  0.0081  0.0493
10145W        W10145   3.321   9.649   2.910 -0.0586 -0.0156 -0.0649
10146W        W10146   0.954   3.630   9.566 -0.5037 -0.4098 -0.1030
10147W        W10147   1.753   4.969   8.282  0.0990 -0.0105  0.0756
10148W        W10148   8.508   1.188   9.662 -0.1207 -0.1124 -0.0657
10149W        W10149   9.258   0.458   5.568 -0.3377  0.1337  0.2278
10150W        W10150   8.109   0.638   0.318 -0.0828 -0.2771  0.0167
10151W        W10151   4.125   4.996   2.701 -0.1420  0.2582  0.0584
10152W        W10152   8.051   4.815   4.307 -0.1191  0.1302 -0.0435
10153W        W10153   1.251   6.701   6.089  0.1032 -0.1809  0.1385
10154W        W10154   4.419   9.262   2.008 -0.0639 -0.1227  0.0660
10155W        W10155   8.727   6.769   7.092 -0.1521 -0.0576 -0.1389
10156W        W10156   5.321   1.633   2.388  0.2724  0.0606  0.1142
10157W        W10157   4.793   6.920   7.951  0.0208  0.1761  0.1053
10158W        W10158   7.462   6.834   4.625  0.0023  0.1542 -0.1053
10159W        W10159   4.017   5.519   0.261 -0.0670  0.0513  0.1136
10160W        W10160   7.506   7.396   4.586 -0.0550 -0.1148  0.2247
10161W        W10161   4.261   5.682   7.085 -0.0136  0.3579 -0.0077
10162W        W10162   3.062   8.963   4.423  0.1069 -0.2732 -0.2363
10163W        W10163   5.652   0.362   7.788  0.0054 -0.0183 -0.0815
10164W        W10164   0.592   0.017  10.013  0.0390  0.0160  0.0584
10165W        W10165   5.294   3.184   2.601  0.2356  0.1886  0.1027
10166W        W10166   0.753   9.231   8.611  0.0427 -0.2164 -0.0287
10167W        W10167   7.405   3.034   7.438  0.0184 -0.1056 -0.0972
10168W        W10168   5.903   2.180   9.507  0.3464 -0.2536 -0.0283
10169W        W10169   6.029   5.679   9.668  0.0266 -0.0239 -0.0423
10170W        W10170   4.117   6.292   1.469  0.0834  0.0518  0.1443
10171W        W10171   4.291   0.546   6.334  0.0242  0.0503  0.1545
10172W        W10172   1.464   5.807  10.070 -0.1445 -0.2183  0.3062
10173W        W10173   1.904   6.051   4.935  0.1063 -0.0132 -0.1987
10174W        W10174  10.102   6.450   7.661 -0.3241  0.1869  0.1588
10175W        W10175   7.043   5.354   9.874  0.0272  0.1360 -0.1719
10176W        W10176   5.867   6.200   9.709  0.0257 -0.0875 -0.0515
10177W        W10177   0.401   1.380   4.520 -0.2815 -0.0188 -0.2733
10178W        W10178   4.785   3.542   6.006  0.0676  0.0888 -0.0913
10179W        W10179   7.227   8.746   9.618  0.0656 -0.1145  0.4993
10180W        W10180   8.195   8.680   8.189  0.3753 -0.0722  0.0778
10181W        W10181   7.387   5.080   3.634 -0.0110  0.1865 -0.0985
10182W        W10182   4.093   0.389   4.514  0.3633  0.0763 -0.0844
10183W        W10183  10.182   4.970   8.314 -0.0592  0.2433 -0.1307
10184W        W10184   7.382   2.538   7.610  0.3521 -0.0762  0.2744
10185W        W10185   0.884   6.883   7.763  0.0420 -0.0316 -0.0082
10186W        W10186   3.790   4.350   3.994  0.3181 -0.2225  0.0259
10187W        W10187   5.548   6.785   1.187  0.0212  0.0056 -0.1758
10188W        W10188   4.928   6.249   9.975 -0.1255 -0.1058  0.0231
10189W        W10189   6.234   2.636  10.285 -0.1842  0.2631 -0.0502
10190W        W10190  10.281   7.768   7.682  0.2258 -0.0040 -0.0834
10191W        W10191   9.237   7.834  10.087  0.1303 -0.0342 -0.0654
10192W        W10192   9.905   2.216   1.733 -0.2108 -0.2209  0.1532
10193W        W10193   9.413   0.668   9.416  0.0922 -0.1714  0.1043
10194W        W10194   5.498   3.168   7.307  0.1234  0.0570 -0.1010
10195W        W10195   4.779   0.191   2.200  0.1419  0.0248  0.1579
10196W        W10196   5.419   5.235   0.942  0.1473  0.0143  0.0828
10197W        W10197   4.214  10.202   3.869 -0.1742 -0.1952  0.0540
10198W        W10198   3.242   8.118   4.950  0.0840  0.3106  0.1356
10199W        W10199   6.742   7.871   1.865 -0.0361  0.0984 -0.0731
10200W        W10200   2.960  10.169   2.189  0.0144  0.2153 -0.0946
10201W        W10201   0.641   0.294   4.314 -0.1942 -0.2604 -0.0619
10202W        W10202  10.231   6.621   6.492  0.3493 -0.0385 -0.1449
10203W        W10203   1.496   7.442   3.109 -0.2359  0.1131 -0.0503
10204W        W10204   2.034   1.999   0.907  0.0535  0.1982 -0.0474
10205W        W10205   4.746  10.107   0.983  0.1095 -0.3868  0.2351
10206W        W10206   3.280   3.344   9.921 -0.1530  0.1906 -0.3236
10207W        W10207   8.158   4.126   7.397  0.1325 -0.1576  0.0814
10208W        W10208   5.246   7.130   3.333  0.1548  0.0038 -0.0445
10209W        W10209   3.937   8.873   6.342 -0.3278 -0.1769  0.0326
10210W        W10210   5.187   4.944  10.278  0.2299  0.0508 -0.3078
10211W        W10211   0.514   7.350   3.257 -0.0912  0.0527 -0.2904
10212W        W10212   8.492   7.107  10.149  0.2331  0.2413  0.0749
10213W        W10213   8.620   2.158   4.956 -0.1589 -0.1997 -0.0787
10214W        W10214   1.216   3.692   8.620  0.1851 -0.1880  0.0807
10215W        W10215   6.702   8.731   5.601 -0.0391 -0.0995 -0.1396
10216W        W10216   7.001   2.818   7.354 -0.1199  0.0576 -0.0007
10217W        W10217   6.799   7.941   9.071  0.1299  0.3018  0.1074
10218W        W10218   1.003   4.073   9.810 -0.0900 -0.1076 -0.0385
10219W        W10219   5.300  10.097   6.070 -0.1264 -0.0917  0.1848
10220W        W10220   1.750   4.957   5.090  0.1245 -0.0007  0.1176
10221W        W10221   6.363   0.736   3.893  0.0664  0.1773  0.1449
10222W        W10222   7.674   2.255   5.243 -0.2140 -0.0365 -0.0515
10223W        W10223   7.216   4.040   9.540 -0.2513 -0.1246 -0.1914
10224W        W10224   7.833   8.645   0.398  0.0094 -0.0905 -0.1086
10225W        W10225   6.810   8.425   4.706  0.2467 -0.0817  0.1096
10226W        W10226   2.840   4.101   1.987  0.1737  0.2872  0.1260
10227W        W10227   8.980   2.627   9.428 -0.1008  0.2167 -0.1084
10228W        W10228   6.358   5.358   5.092  0.1158 -0.2425 -0.2684
10229W        W10229   8.908   2.575   9.965 -0.0245  0.0393  0.0272
10230W        W10230   6.288   2.268   1.367 -0.1037  0.0740 -0.3841
10231W        W10231   2.457   1.241   9.316  0.0190 -0.0617  0.2466
10232W        W10232   7.136   0.420  10.156  0.2052  0.2440 -0.0684
10233W        W10233   3.148  10.285   4.863  0.3277  0.2317  0.2718
10234W        W10234   8.755   4.712   3.824 -0.2345 -0.2573 -0.2544
10235W        W10235   9.657   7.664   8.730 -0.0181 -0.0225  0.0063
10236W        W10236   3.790   8.774   9.805 -0.2047  0.1527 -0.1614
10237W        W10237   2.312   2.927   3.197  0.1228  0.0587 -0.3716
10238W        W10238   8.238   9.108   0.420 -0.4267 -0.3916 -0.2167
10239W        W10239   7.872   5.866   0.133 -0.1059  0.2617 -0.1289
10240W        W10240   5.174   5.129   3.643 -0.0714  0.0182 -0.1661
10241W        W10241   0.145   0.556   0.621 -0.0046  0.2969  0.1605
10242W        W10242   4.666   2.260   7.374  0.1809  0.0567 -0.1530
10243W        W10243   2.162   2.130   5.845 -0.0201  0.3953  0.0520
10244W        W10244  10.000   3.122   0.114 -0.1658  0.1258  0.1080
10245W        W10245   7.519   7.269   3.478  0.1352 -0.1025 -0.1402
10246W        W10246   0.432   2.632   6.139 -0.1316 -0.0193  0.2463
10247W        W10247   0.402   0.375   7.834 -0.0008  0.2475 -0.3660
10248W        W10248   0.756   8.802   0.195 -0.2006  0.2088  0.0648
10249W        W10249   4.388   3.739   8.452  0.0764 -0.0494 -0.2507
10250W        W10250   3.377   8.819   5.403 -0.1585  0.2381 -0.2407
10251W        W10251   4.542   7.276   8.289  0.2369 -0.3049  0.0084
10252W        W10252   8.974   8.360   4.893  0.0371 -0.0646 -0.0721
10253W        W10253   1.928   5.290   7.654  0.2355  0.2001  0.1835
10254W        W10254   5.209   4.752   6.267  0.2275  0.0766  0.3577
10255W        W10255   5.647   4.427   6.286 -0.0717 -0.0630  0.0856
10256W        W10256   4.652   4.290   3.803 -0.0188  0.3180  0.2677
10257W        W10257   1.565   3.027   4.750  0.0695 -0.2497 -0.1556
10258W        W10258   7.989   2.167   0.850  0.0268  0.3234  0.0687
10259W        W10259   3.503   1.988   3.146 -0.0338  0.0252 -0.2024
10260W        W10260   4.556   6.602  10.220  0.0782  0.1023 -0.0377
10261W        W10261   8.461   5.414   2.738 -0.0570 -0.1478  0.0289
10262W        W10262   1.338   5.069  10.240  0.0153 -0.0207  0.0048
10263W        W10263   1.589   3.744   2.555 -0.2705  0.1536  0.3271
10264W        W10264   5.598   8.400   1.408  0.0141  0.0120  0.1015
10265W        W10265   0.359   5.427   6.654 -0.0919  0.5234 -0.0085
10266W        W10266   9.412   6.457   4.487 -0.0151 -0.0490  0.1210
10267W        W10267   0.279   9.820   7.862 -0.1843  0.2743 -0.1261
10268W        W10268   3.774   6.918   3.133  0.0198 -0.0647  0.2139
10269W        W10269   5.543   1.127   7.089 -0.3227 -0.1921  0.2787
10270W        W10270   6.400   6.313   8.918 -0.0036  0.1904  0.1625
10271W        W10271   8.613   6.905   4.183 -0.1873 -0.1258 -0.0836
10272W        W10272   3.329   8.662   0.378 -0.0124 -0.1903 -0.2503
10273W        W10273   1.601   8.964   0.693 -0.0844  0.2643  0.0642
10274W        W10274   6.914   6.628   4.680  0.0241  0.3641  0.0466
10275W        W10275   6.617   7.269   8.112  0.1515  0.1546 -0.3008
10276W        W10276  10.089  10.114   5.620 -0.0695 -0.0182 -0.0733
10277W        W10277   5.518   2.502   5.837  0.0486  0.1227  0.1553
10278W        W10278   1.619   5.007   2.171  0.2138  0.0980 -0.1045
10279W        W10279   8.268   6.330   8.493  0.1907  0.2194  0.1249
10280W        W10280   3.621   3.323   3.389 -0.1059  0.1935  0.0874
10281W        W10281   2.387   7.639   8.948 -0.3114 -0.1054 -0.0109
10282W        W10282   7.612   3.797   9.393 -0.2192  0.3008 -0.3758
10283W        W10283   2.652   0.977   1.559 -0.1243 -0.1676  0.0538
10284W        W10284   6.844   2.538   6.401 -0.0835  0.1962  0.0282
10285W        W10285   6.262   3.385   8.311 -0.1157 -0.0266  0.2167
10286W        W10286   0.203   3.333   9.551 -0.0790 -0.2046  0.1906
10287W        W10287   1.703   6.939   3.743  0.0008 -0.2720 -0.2050
10288W        W10288   3.424   9.846   9.118  0.1399 -0.1790  0.1565
10289W        W10289   0.807   4.237   2.830  0.0679  0.2672 -0.0022
10290W        W10290   4.704   5.108   9.242  0.0357  0.0873 -0.0384
10291W        W10291   4.773   5.459   3.429  0.1215  0.1291 -0.0296
10292W        W10292   3.882   6.483   9.031 -0.2272  0.1062 -0.2948
10293W        W10293   5.014   5.153   4.108 -0.4667 -0.2461  0.0597
10294W        W10294   1.628   2.126   8.780  0.2970 -0.3098  0.0881
10295W        W10295   2.088   4.995   5.946  0.0790 -0.0883  0.0998
10296W        W10296   1.893   0.455   9.798  0.0398 -0.0379  0.1137
10297W        W10297   9.927   0.821   3.453  0.3822 -0.2352  0.2310
10298W        W10298   3.597   2.362   6.267 -0.1599  0.0941  0.0362
10299W        W10299   9.323   8.822   7.086 -0.0950  0.0168 -0.2704
10300W        W10300   1.851   1.296  10.160  0.0172 -0.3625 -0.0867
10301W        W10301   6.333   3.375   7.792 -0.2295 -0.3872  0.1704
10302W        W10302   5.477   3.488   0.214 -0.4904 -0.0968 -0.0874
10303W        W10303   7.770   9.208   0.413  0.2633  0.2251  0.0689
10304W        W10304   6.124   1.409   1.193 -0.0843 -0.0811 -0.1975
10305W        W10305   6.087   8.354   5.082  0.0997  0.2476 -0.0440
10306W        W10306   3.249   7.289   2.072 -0.2198  0.2724  0.0315
10307W        W10307   6.546   3.765   9.076 -0.5393  0.0105 -0.0993
10308W        W10308   5.100   2.641   3.289 -0.1528  0.1525  0.1819
10309W        W10309   4.146   5.997   8.406 -0.1170  0.2552 -0.0054
10310W        W10310  10.209   3.803   4.020 -0.1030  0.0290 -0.0120
10311W        W10311   3.814   6.379   0.669 -0.2700 -0.1389  0.1303
10312W        W10312   0.645   7.708   5.788 -0.0253 -0.0865  0.1330
10313W        W10313   7.332   1.627   0.863 -0.0753 -0.1071 -0.0698
10314W        W10314   4.242   9.146   1.504 -0.1721  0.2395 -0.2930
10315W        W10315   5.271   0.996  10.047  0.1425  0.1739  0.0246
10316W        W10316   9.666   6.426   7.936  0.0798 -0.0059 -0.0570
10317W        W10317  10.322   8.116   6.594 -0.0622 -0.2867  0.0840
10318W        W10318  10.134   2.859   4.136  0.3568  0.1241 -0.1410
10319W        W10319   6.339   4.336   3.179 -0.0299  0.0146 -0.1451
10320W        W10320   5.528   8.849   1.205 -0.0404  0.1898 -0.2891
10321W        W10321   2.313   5.156   5.561  0.2378 -0.0848  0.3922
10322W        W10322   3.151   6.671   3.312  0.0928  0.1102  0.1240
10323W        W10323   4.493   7.350   3.864  0.2200  0.3223 -0.2076
10324W        W10324   0.908   2.457   5.935  0.0935 -0.0535  0.3590
10325W        W10325   7.233   2.105   4.627 -0.0652  0.0405  0.0903
10326W        W10326   8.255   5.282   7.242  0.0434 -0.1320 -0.1897
10327W        W10327   6.314   8.849   3.305 -0.0579 -0.1892 -0.0690
10328W        W10328   6.034   9.896   0.277  0.0234 -0.2415 -0.0103
10329W        W10329   3.998   7.673   4.615  0.1647 -0.2500 -0.2510
10330W        W10330   7.422   8.143   8.252  0.1134 -0.1493 -0.0461
10331W        W10331   3.688   1.565   7.648 -0.0472 -0.2209 -0.1060
10332W        W10332   9.862   6.576   3.739 -0.3908 -0.0059  0.0157
10333W        W10333   1.155   3.925   7.547  0.1348 -0.1813 -0.1495
10334W        W10334   0.766   1.814   6.988  0.2064  0.0491  0.1587
10335W        W10335   3.848   5.610   8.381  0.1020  0.3954  0.2175
10336W        W10336   4.302  10.046   2.476 -0.0100  0.0547 -0.0901
10337W        W10337   7.789   0.452   5.299 -0.0963  0.3000  0.2932
10338W        W10338   0.502   9.378   1.639  0.0165 -0.0013  0.1254
10339W        W10339   5.814   4.168   4.991  0.0511  0.0449 -0.0405
10340W        W10340   7.848   0.261   0.156  0.0166  0.0123 -0.1293
10341W        W10341   8.547   2.890   5.418  0.0645 -0.0026 -0.4217
10342W        W10342   5.150   0.175   6.929  0.3842 -0.1069  0.0412
10343W        W10343   4.915   5.375   0.138  0.2564  0.1757  0.1993
10344W        W10344   0.971   7.540  10.150  0.2459 -0.6005 -0.2113
10345W        W10345   0.314   2.781   2.035 -0.1973  0.0934 -0.1935
10346W        W10346   8.060  10.218   4.423  0.0097 -0.3542 -0.1417
10347W        W10347   3.292   5.111   5.780 -0.1334  0.0903 -0.2749
10348W        W10348   8.873   2.200   5.641 -0.2519  0.1522 -0.1158
10349W        W10349   8.639   4.409   4.623  0.3048 -0.0541 -0.1876
10350W        W10350   4.989   3.597   2.626 -0.1784 -0.2167  0.0389
10351W        W10351   2.389   0.370   2.697 -0.0430  0.0675  0.1544
10352W        W10352   5.372   4.412   2.914 -0.0756  0.1524  0.1512
10353W        W10353   5.191   6.247   2.636 -0.0803  0.2066  0.0574
10354W        W10354   7.428   3.237   2.695 -0.0807 -0.1379  0.2078
10355W        W10355   0.630   5.459   4.401 -0.1318  0.1484 -0.1605
10356W        W10356   6.757   5.131  10.332 -0.1529  0.0325 -0.1916
10357W        W10357   8.504   6.941   8.210  0.2583  0.0118  0.1593
10358W        W10358   3.325  10.124   2.945  0.1739  0.0787 -0.0218
10359W        W10359   6.340   3.840   2.152  0.1423 -0.2079 -0.0528
10360W        W10360   7.377   1.854   3.501 -0.3754  0.0294 -0.0230
10361W        W10361   0.631   0.644   1.342  0.2981 -0.0440 -0.0336
10362W        W10362   4.784   9.900   2.416  0.0648 -0.1999 -0.0520
10363W        W10363   0.982   8.802   3.207 -0.0177 -0.0364 -0.2823
10364W        W10364   2.728   1.542   6.579  0.1215  0.0478  0.1794
10365W        W10365   5.967   8.802   2.422  0.1395 -0.0296  0.1889
10366W        W10366   2.187   7.950   5.653 -0.1349 -0.1376 -0.0165
10367W        W10367   9.756   4.642   6.197 -0.1930 -0.0130 -0.1210
10368W        W10368  10.159   2.205   7.467  0.3150 -0.1597  0.0844
10369W        W10369   9.663  10.030   6.000  0.3247  0.1965 -0.0333
10370W        W10370   8.905   6.348   2.106 -0.0285 -0.0233 -0.2675
10371W        W10371   9.616   6.283   9.447  0.0488  0.0511 -0.0200
10372W        W10372   5.109   6.817   2.453  0.1471 -0.0023  0.1491
10373W        W10373   6.292   6.481   3.897 -0.1268 -0.2148  0.4781
10374W        W10374   7.987   6.428   3.929 -0.1732  0.0129 -0.0398
10375W        W10375   8.589   9.461   9.658  0.2015 -0.1052 -0.1860
10376W        W10376   6.978   4.233   1.611  0.1707  0.0201  0.3126
10377W        W10377   1.225   8.640   7.553  0.2395 -0.1444  0.0711
10378W        W10378   1.172  10.099   8.358 -0.1633 -0.2595  0.5269
10379W        W10379   7.421   2.484   0.085 -0.0207  0.3903  0.0860
10380W        W10380   4.143   0.374   3.020 -0.0457  0.0414  0.2861
10381W        W10381   1.536   7.824   0.945 -0.0320 -0.4017 -0.3760
10382W        W10382   8.904   0.900   4.911 -0.0139  0.4180 -0.0867
10383W        W10383   9.127   4.284   1.251 -0.1460 -0.0274 -0.0944
10384W        W10384   2.396   8.288   8.018 -0.0399  0.0727  0.1223
10385W        W10385   5.014   2.127   9.942 -0.2308 -0.2611 -0.2590
10386W        W10386   7.730   0.235   0.650  0.2486 -0.3198  0.4249
10387W        W10387   7.496   9.531   5.896  0.2604 -0.0813  0.1150
10388W        W10388   3.794   8.532   6.688  0.2650 -0.0488 -0.1248
10389W        W10389  10.316   8.849   0.160 -0.2343 -0.3109 -0.0167
10390W        W10390   0.137   7.952   1.316 -0.1607  0.3926 -0.3132
10391W        W10391   2.106  10.269   5.911 -0.1327  0.0660 -0.1892
10392W        W10392   3.506   9.714   6.407 -0.0537  0.0397  0.1206
10393W        W10393   1.187   4.559   9.841 -0.4634  0.0790 -0.0424
10394W        W10394   2.902   4.066   2.954  0.1647  0.2723 -0.0769
10395W        W10395   4.363   5.178   4.814 -0.2217 -0.0668 -0.2263
10396W        W10396   8.626   1.122   4.065  0.1222 -0.0461 -0.1318
10397W        W10397  10.126   8.313   9.728  0.2399 -0.0686 -0.1562
10398W        W10398   8.030   4.034   5.103 -0.0555 -0.2906  0.2114
10399W        W10399   5.312   2.042   0.551  0.3987  0.1175 -0.1564
10400W        W10400   9.882   8.887   3.388  0.1111 -0.0145 -0.0998
10401W        W10401   3.449   0.274   0.230  0.0509 -0.2210 -0.1069
10402W        W10402   5.597   4.268   6.936 -0.1650 -0.0903  0.1499
10403W        W10403   2.427   4.096   0.415 -0.2688 -0.0027  0.0226
10404W        W10404   1.212   0.101   3.443 -0.0849  0.2214 -0.0867
10405W        W10405   6.439   6.094   6.772 -0.2140 -0.1985  0.0612
10406W        W10406   7.535   7.950   6.789  0.0390  0.0644 -0.1116
10407W        W10407   9.399   6.783   2.714  0.0604  0.2234 -0.0548
10408W        W10408  10.263   9.335   6.737  0.1481  0.0942  0.1130
10409W        W10409   9.928   8.357   9.301 -0.0357 -0.3024 -0.3551
10410W        W10410   2.974   4.033   0.178 -0.0152 -0.1820 -0.1827
10411W        W10411   6.487   5.489   9.878 -0.2765  0.6284 -0.3456
10412W        W10412   5.122   6.743   5.512 -0.0568 -0.2283  0.2877
10413W        W10413   7.258   3.819   8.414 -0.1296 -0.3156 -0.1988
10414W        W10414   2.087   3.963   4.908 -0.2610 -0.3625  0.0291
10415W        W10415   3.998   1.728   5.114  0.0270 -0.0980 -0.2260
10416W        W10416   5.517   4.299   4.160 -0.1361  0.0059  0.0367
10417W        W10417   4.961   3.906   6.331 -0.3798 -0.1834 -0.3347
10418W        W10418   2.013   4.278  10.213 -0.3481  0.3634  0.1556
10419W        W10419   9.198   2.863   8.133  0.0194 -0.3890 -0.1985
10420W        W10420   5.490   0.310   9.674 -0.2716  0.2316 -0.1362
10421W        W10421   4.106   2.308  10.103 -0.0958 -0.1170 -0.3081
10422W        W10422   6.093   6.107  10.147 -0.0991  0.0788  0.1171
10423W        W10423   3.927   6.368   2.832  0.4224  0.0312  0.0313
10424W        W10424   9.065   0.649   0.682 -0.2698 -0.0915 -0.0082
10425W        W10425   1.647   5.901   5.378 -0.2667 -0.0149  0.3424
10426W        W10426   5.805   9.359   0.915 -0.0204 -0.0902  0.0018
10427W        W10427   4.655   5.852   5.672  0.1048  0.0779 -0.2010
10428W        W10428   4.640   6.124   1.277  0.1422  0.1811  0.0939
10429W        W10429   6.790   8.638   9.230 -0.0378  0.0321 -0.0855
10430W        W10430   6.594   9.080   3.631  0.0551 -0.1242 -0.0057
10431W        W10431   0.087   2.012   2.124 -0.2012  0.0906  0.1784
10432W        W10432   8.431   0.587   5.923 -0.1983  0.0090  0.0973
10433W        W10433   9.171   6.367   9.201 -0.0757  0.0724  0.0985
10434W        W10434   0.237   6.585   9.013 -0.0688 -0.3067 -0.0971
10435W        W10435   0.648   9.791   6.986  0.0384  0.1227 -0.2876
10436W        W10436   1.313   7.271   4.719  0.1595  0.2815  0.0637
10437W        W10437   8.893   1.868   3.539 -0.0841 -0.0516  0.1470
10438W        W10438   9.215   2.304   2.260  0.1672 -0.2101 -0.0410
10439W        W10439   1.029   8.980   4.244  0.2362  0.0509 -0.0853
10440W        W10440   0.546   8.557   0.978 -0.2023 -0.1222 -0.1796
10441W        W10441   0.298   2.935   3.320 -0.0075  0.0520  0.0972
10442W        W10442   0.020   8.413   1.350 -0.0292 -0.4029  0.0232
10443W        W10443   9.068   3.049   0.508  0.0919  0.0081 -0.4925
10444W        W10444   7.992   7.802   9.710  0.1624  0.0374  0.1869
10445W        W10445   4.186   4.400   5.827 -0.0310  0.1996 -0.4655
10446W        W10446   2.150   7.125   8.853  0.2472  0.0877  0.1261
10447W        W10447   3.654   3.780   6.389  0.1192  0.0096 -0.1154
10448W        W10448   0.948   6.994   5.392  0.1607 -0.2548  0.2140
10449W        W10449   8.480   3.422   5.595 -0.0654 -0.1134 -0.0997
10450W        W10450   2.615   6.644   7.463 -0.0599  0.1633  0.0418
10451W        W10451   6.648   8.084   8.603  0.0145 -0.2748  0.0495
10452W        W10452   9.443   3.673   9.796 -0.1789  0.0682 -0.3150
10453W        W10453   8.869   3.863   8.258 -0.1842  0.0246 -0.1512
10454W        W10454   9.788   6.678   9.802 -0.3218  0.4540 -0.1666
10455W        W10455   5.701   0.818   0.007 -0.1488 -0.1965  0.0303
10456W        W10456   5.679   5.390   1.310  0.0615  0.3168  0.0201
10457W        W10457   5.933   6.731   8.145  0.0976  0.0671 -0.0320
10458W        W10458   3.960   5.850   1.604  0.2132 -0.2070 -0.0459
10459W        W10459   7.250   3.521   7.552 -0.2692  0.0093 -0.0997
10460W        W10460  10.077   0.267   5.620 -0.0284  0.0269 -0.0296
10461W        W10461   6.517  10.120   1.522 -0.1836 -0.0308 -0.1019
10462W        W10462   9.772   1.425   1.081 -0.0183  0.2067  0.0140
10463W        W10463   7.132   5.797   5.362  0.4367  0.2680  0.0528
10464W        W10464   7.488   0.711   5.555 -0.1877  0.0037  0.0803
10465W        W10465   0.258   9.761   9.443  0.1556 -0.3637 -0.2382
10466W        W10466   9.026   5.169   3.689  0.2428  0.2043  0.4158
10467W        W10467   8.846   1.881   8.764 -0.1140  0.1404 -0.1922
10468W        W10468   6.035   3.951   3.303 -0.0866 -0.1863 -0.0149
10469W        W10469   5.000   7.721   7.063 -0.0198 -0.1620  0.0225
10470W        W10470   6.159   0.514   7.725 -0.0575 -0.1004 -0.1821
10471W        W10471   9.657   4.581   5.303  0.0481  0.3197 -0.3722
10472W        W10472   5.460   4.702   1.977 -0.2019 -0.0630  0.1243
10473W        W10473   6.603   0.719   7.595 -0.0732  0.0946  0.3486
10474W        W10474   1.273   3.052   0.909  0.2855 -0.4060  0.0022
10475W        W10475   9.527   3.982   7.614  0.4181 -0.0907 -0.2195
10476W        W10476   0.922   7.016   2.524  0.0927 -0.0913 -0.0827
10477W        W10477   1.943   8.983   3.115 -0.1017  0.1776  0.0190
10478W        W10478   6.977   1.810   1.772  0.0243 -0.1848 -0.0433
10479W        W10479   8.784   7.527   2.876  0.0409 -0.0321 -0.0211
10480W        W10480   7.642   2.986   0.326 -0.0875  0.0753 -0.2514
10481W        W10481   8.098   0.301   8.466 -0.4243 -0.0193 -0.1202
10482W        W10482   3.587   4.077   5.062 -0.0247 -0.0100  0.1669
10483W        W10483   7.789   3.189   3.809 -0.0183  0.0134  0.0173
10484W        W10484  10.283   7.230   6.767 -0.2513  0.1944 -0.3372
10485W        W10485   3.590   1.651   0.400  0.0114  0.0465  0.3048
10486W        W10486   7.781   0.646   1.600  0.1722 -0.0632  0.1533
10487W        W10487   9.712   4.099   0.364  0.1060  0.1148  0.2393
10488W        W10488   2.362   9.547   7.440 -0.3576 -0.2352 -0.0578
10489W        W10489   7.238   5.147  10.321 -0.0728  0.1301 -0.2329
10490W        W10490   9.065   1.128   3.885 -0.1619  0.2078  0.1042
10491W        W10491   0.160   9.517   0.011 -0.0395 -0.1509 -0.3692
10492W        W10492   5.737   4.775   2.794 -0.2197 -0.1724 -0.0902
10493W        W10493   9.137   4.771   1.331  0.3853 -0.3169  0.0327
10494W        W10494   5.041   8.519   7.931 -0.1750  0.0192 -0.0050
10495W        W10495   6.851   3.828   0.588 -0.1904 -0.0833 -0.0338
10496W        W10496   4.940   6.661   5.079  0.1045  0.3581 -0.0363
10497W        W10497   2.488   8.487   5.087 -0.2272 -0.4155 -0.1874
10498W        W10498   3.406   2.757   2.883  0.0006  0.2116 -0.2958
10499W        W10499   9.089   2.811   4.266  0.0065  0.0269  0.3141
10500W        W10500   3.434   4.261   6.468  0.1034 -0.1626  0.0487
10501W        W10501   3.336   2.609   5.030 -0.0599  0.1981 -0.0597
10502W        W10502   0.547   8.947   4.463  0.3390  0.0112  0.0460
10503W        W10503   8.344   4.010   1.717 -0.1727  0.0338 -0.1607
10504W        W10504   3.602   3.207   8.147 -0.0048 -0.0825 -0.0425
10505W        W10505   3.226   4.856   3.267 -0.2826  0.0802 -0.0747
10506W        W10506   9.921   1.577   8.624 -0.2689  0.0661  0.1404
10507W        W10507   2.405   7.816   2.749  0.1726  0.1199 -0.1521
10508W        W10508   1.245   4.141   8.966 -0.6176 -0.1998 -0.1040
10509W        W10509   7.851   0.260   1.930  0.2900  0.1265  0.0080
10510W        W10510   7.521   1.217   8.518 -0.1131  0.1246 -0.1650
10511W        W10511   8.673   9.397   4.064 -0.1257 -0.2266  0.3127
10512W        W10512   3.991   2.895   2.521  0.0071 -0.0479 -0.2368
10513W        W10513  10.234   5.508   9.129  0.0495  0.0801  0.4257
10514W        W10514   2.149   0.964   1.700 -0.2181  0.0028 -0.0613
10515W        W10515   7.872   5.097  10.202 -0.0807  0.0248  0.3508
10516W        W10516   0.346   0.724   9.391  0.2402  0.3096  0.2084
10517W        W10517   1.163   5.703   6.328  0.0062 -0.0024  0.1046
10518W        W10518   5.674  10.293   0.656 -0.2308  0.0493 -0.0260
10519W        W10519   9.649   9.871   1.826 -0.0585  0.0514  0.0826
10520W        W10520   1.606   3.564   8.321 -0.0367  0.0421  0.3143
10521W        W10521   1.461   8.988   2.371 -0.0979  0.2139  0.0542
10522W        W10522  10.250   8.423   3.263 -0.0090  0.2873  0.0839
10523W        W10523   2.116   3.467   5.646 -0.0765 -0.1354  0.0327
10524W        W10524   3.349   0.439   6.384  0.0649 -0.1031  0.0049
10525W        W10525   7.848   2.492  10.021 -0.0699  0.1324 -0.0164
10526W        W10526   2.754   2.116   2.011  0.0485  0.1048 -0.2345
10527W        W10527   3.652   4.277   1.429  0.1134  0.2694 -0.0080
10528W        W10528   8.089   6.934   8.510 -0.2023  0.2371 -0.4834
10529W        W10529   4.101   4.030   1.935  0.2753 -0.1354  0.2357
10530W        W10530   6.165   7.647   3.599  0.2612 -0.0921 -0.0326
10531W        W10531   8.157   9.060   7.831  0.0031  0.3322  0.1259
10532W        W10532   5.356   3.275   5.218  0.4641 -0.1541 -0.0784
10533W        W10533   2.120   5.521   6.227 -0.2350  0.1821 -0.0525
10534W        W10534   1.451  10.188   3.089  0.1081  0.0998  0.0440
10535W        W10535   2.155   6.353   0.817  0.2722  0.0369  0.0406
10536W        W10536   1.265   3.531   1.679  0.1164 -0.0571  0.0729
10537W        W10537   6.890   8.875   5.123 -0.2620  0.0457  0.1297
10538W        W10538   2.216   9.099   9.298  0.0309  0.3093  0.1828
10539W        W10539   6.730   9.322   7.523 -0.0428 -0.1894  0.1537
10540W        W10540   2.864   2.990   7.993 -0.0261 -0.3550 -0.1512
10541W        W10541   1.100   2.579   3.353 -0.3413  0.1355  0.0012
10542W        W10542   8.124   3.963   6.383  0.2136  0.4899 -0.0873
10543W        W10543   4.497   7.540   6.059 -0.0054  0.1964  0.2913
10544W        W10544  10.000   2.327   4.295  0.0235 -0.1480 -0.1113
10545W        W10545   3.572   3.536   0.607 -0.0657 -0.1006  0.0955
10546W        W10546   5.030   2.001   0.146  0.0733 -0.0549  0.4602
10547W        W10547   1.712   2.324   5.064  0.0307 -0.0245 -0.0724
10548W        W10548   8.639   9.968   9.663  0.1917  0.0438  0.1904
10549W        W10549   6.384   0.730   1.426 -0.3492 -0.1616 -0.1846
10550W        W10550   4.685   8.939   1.645  0.0996  0.0850 -0.0478
10551W        W10551   8.239   8.151   4.535  0.3634  0.0156  0.1572
10552W        W10552   7.133   5.219   2.272  0.1926 -0.1467 -0.1420
10553W        W10553   5.734   2.620   2.194 -0.3165  0.2824 -0.0182
10554W        W10554   1.846   8.134   0.623  0.1399  0.1727 -0.0432
10555W        W10555   7.534   3.177   5.534 -0.1319 -0.1428  0.0769
10556W        W10556   3.367   7.404   7.459  0.0710 -0.0559  0.2605
10557W        W10557   0.158   8.349   4.374 -0.0380  0.2744 -0.0039
10558W        W10558   5.184   6.795   0.518  0.0688 -0.0137  0.0430
10559W        W10559   4.347   4.642   3.509 -0.1757 -0.2238  0.0157
10560W        W10560   6.494   5.313   2.315  0.1471 -0.0300  0.0626
10561W        W10561   4.904   1.969   1.064  0.0265 -0.0769  0.2890
10562W        W10562   0.738   7.837   2.517 -0.2338  0.0550  0.0560
10563W        W10563   4.824   5.703   3.919 -0.1901 -0.0425 -0.1408
10564W        W10564   2.858   8.165   6.289 -0.0465 -0.0637  0.2685
10565W        W10565   2.511   5.113   9.391  0.2538  0.2865 -0.1901
10566W        W10566   2.302   0.880   4.406 -0.0559  0.3894 -0.1377
10567W        W10567   4.451   9.135   6.237 -0.1533 -0.1253  0.0856
10568W        W10568   5.813   1.456   1.594  0.2143 -0.0781 -0.4053
10569W        W10569   0.145   5.432   3.252  0.0467  0.0636  0.2949
10570W        W10570   0.711   6.851   1.528 -0.2768  0.4086  0.0514
10571W        W10571   1.191   6.467   7.745  0.1772  0.2339  0.0744
10572W        W10572   8.029   3.502   9.265  0.1352  0.0911  0.0075
10573W        W10573   5.220   9.080   9.520 -0.0500 -0.0641  0.1202
10574W        W10574   5.720   9.345   6.668 -0.1229 -0.1262  0.0879
10575W        W10575   6.911   9.294   0.875 -0.0486  0.0217  0.0235
10576W        W10576   1.285   2.111   3.650  0.3201  0.1070  0.1993
10577W        W10577   9.443   0.806   8.419 -0.4073  0.0776 -0.2717
10578W        W10578   4.132   2.491   1.143 -0.0440  0.3159 -0.0044
10579W        W10579   6.468   0.242   1.275 -0.0964  0.2496 -0.1790
10580W        W10580   4.611   9.795   0.084 -0.2071 -0.1313 -0.1668
10581W        W10581   2.228   6.999   6.568 -0.2124  0.0693  0.0197
10582W        W10582   2.900   8.326   5.809 -0.0439 -0.0984 -0.1166
10583W        W10583  10.223   3.505   6.962  0.3460  0.1300  0.1224
10584W        W10584   4.878   1.642   7.076  0.0844 -0.0645  0.3117
10585W        W10585   4.746   0.297   6.203  0.0728 -0.0474 -0.0739
10586W        W10586   6.269   3.086   5.979 -0.3616 -0.1602  0.0302
10587W        W10587   4.614   5.221   2.124 -0.2524  0.1837  0.1582
10588W        W10588   5.731   7.308   6.969 -0.1179  0.3279  0.1824
10589W        W10589   4.244   1.480   4.306 -0.3815 -0.0746 -0.1213
10590W        W10590   4.525   6.040   9.832  0.0160 -0.0853  0.0511
10591W        W10591   9.246   1.696   2.250  0.2538 -0.1596 -0.3416
10592W        W10592   3.989   1.982   2.644  0.0413  0.2659  0.3496
10593W        W10593   0.682   1.048   8.801  0.0056  0.0795 -0.0757
10594W        W10594   6.365   3.811   0.554 -0.0529 -0.0405 -0.3562
10595W        W10595   2.884  10.197   3.115  0.4468 -0.0476  0.1938
10596W        W10596   0.712   1.427   7.624  0.1943 -0.3559  0.1146
10597W        W10597   5.661   4.022   9.209 -0.3646  0.2454 -0.0123
10598W        W10598   4.527   3.767   1.866 -0.2362 -0.0722  0.0958
10599W        W10599   5.207   9.733   5.759  0.0309 -0.0648  0.0186
10600W        W10600   8.843   5.921   9.093 -0.0035 -0.0360  0.0905
10601W        W10601   2.070   9.627   4.518  0.1762  0.0340  0.0795
10602W        W10602   5.168   9.092   1.515  0.3011  0.3167 -0.0272
10603W        W10603   7.362   3.524   4.440  0.0817 -0.0962  0.1298
10604W        W10604   4.745   7.545   1.542 -0.0451 -0.0880 -0.1553
10605W        W10605   6.851   8.904   7.913 -0.0222  0.0817 -0.1620
10606W        W10606   5.081   2.463   8.605  0.0767  0.2225  0.2013
10607W        W10607   5.708   4.146   3.719 -0.0810 -0.3685  0.0458
10608W        W10608   4.622   1.201   4.456 -0.1012  0.0626 -0.3884
10609W        W10609   3.541   1.782   4.008 -0.0510 -0.0559 -0.2431
10610W        W10610   7.700   3.762   0.058  0.1749  0.0821 -0.0687
10611W        W10611   2.399   7.109   5.227 -0.0454 -0.0728 -0.1175
10612W        W10612   5.799   8.324   8.269  0.3946  0.1489 -0.1053
10613W        W10613   7.973   7.419   0.876 -0.1115 -0.0975 -0.1115
10614W        W10614   4.341   0.067   1.019 -0.3469  0.2306 -0.0276
10615W        W10615   2.542   7.428   7.278  0.0017 -0.3805 -0.2191
10616W        W10616   5.348   9.303   1.095  0.1952  0.0470  0.0212
10617W        W10617   4.435   4.874   8.821 -0.1412 -0.0988  0.4145
10618W        W10618   3.181   2.303   1.114  0.1725  0.0671  0.4169
10619W        W10619   2.736   1.047   8.940 -0.1334  0.0553 -0.0138
10620W        W10620   1.676   3.761  10.265 -0.2053 -0.2383 -0.1966
10621W        W10621   9.431   7.897   0.211 -0.0762  0.4241  0.0394
10622W        W10622   0.976   9.998   3.111 -0.0541  0.2235 -0.3293
10623W        W10623   2.706   0.008   0.561 -0.0487  0.2745  0.2028
10624W        W10624   4.476   4.439   0.956 -0.1197 -0.1430  0.0957
10625W        W10625   1.779   1.743   7.720  0.3036 -0.2682 -0.0341
10626W        W10626   2.729   1.108   9.731 -0.0699  0.0948  0.0420
10627W        W10627   6.931   9.819   9.611  0.0631  0.4772  0.0959
10628W        W10628   1.025   1.104   6.921  0.0967 -0.2370 -0.4396
10629W        W10629   6.208   3.515   1.458  0.2572  0.3494  0.0231
10630W        W10630   4.775   1.177   5.755 -0.5157  0.1311 -0.2447
10631W        W10631   3.857   6.047   3.539  0.0520  0.0532 -0.1708
10632W        W10632   8.708   0.911   3.031  0.3744  0.2052  0.1142
10633W        W10633   0.678   9.683   3.771 -0.0185 -0.0247 -0.0680
10634W        W10634   3.132  10.216   3.764  0.0173  0.0861 -0.1752
10635W        W10635   0.246   6.847   6.245  0.3338 -0.0369  0.1063
10636W        W10636   8.292   7.021   3.394  0.2727 -0.1816 -0.0741
10637W        W10637   8.227   4.938   0.163  0.1445  0.0262  0.2292
10638W        W10638   0.996   7.698   4.897 -0.3758 -0.0639  0.1277
10639W        W10639   1.107   3.277   5.974 -0.4592  0.2464  0.1020
10640W        W10640   7.770   8.050   1.962 -0.1620 -0.0592  0.0920
10641W        W10641   1.248   9.229   3.421 -0.1837  0.2735 -0.2603
10642W        W10642   5.064   9.505   8.698 -0.0754  0.2195  0.1869
10643W        W10643   1.416   0.742   9.775 -0.1378 -0.1531 -0.2900
10644W        W10644   9.943   9.554   2.958  0.0240 -0.1662 -0.1716
10645W        W10645   8.739   4.195   5.425 -0.2127 -0.1263 -0.2870
10646W        W10646   4.382   5.809   1.986  0.1961 -0.0888  0.0820
10647W        W10647   1.000   8.364   3.980 -0.0697 -0.1789 -0.0569
10648W        W10648   5.025   1.217   2.221 -0.1053 -0.0754  0.0965
10649W        W10649   2.461   7.569   5.538 -0.0734  0.1141 -0.3420
10650W        W10650   2.189   3.084   7.947 -0.1996 -0.0419 -0.1570
10651W        W10651   6.325   7.273   1.230 -0.0622  0.0963  0.2636
10652W        W10652   4.272   8.643   1.925 -0.0683  0.0831  0.2503
10653W        W10653   6.990   7.183   4.852 -0.0285  0.1774  0.1127
10654W        W10654   6.530   3.608   9.949 -0.1121  0.3693 -0.0581
10655W        W10655   8.501   5.187   3.872 -0.1499  0.0110  0.0773
10656W        W10656   2.708   0.891   6.303  0.0396 -0.2909 -0.1566
10657W        W10657   9.384   3.838   6.723 -0.2701  0.0801  0.3726
10658W        W10658   1.564   7.130   1.725  0.2689  0.3994 -0.0121
10659W        W10659   8.925   7.813   0.273 -0.3232 -0.1204  0.3758
10660W        W10660   0.915   1.861   6.558 -0.0427  0.0585  0.2776
10661W        W10661   3.647   4.734   6.857 -0.3401  0.1262  0.0983
10662W        W10662   4.749   2.708   7.515 -0.1137  0.0901 -0.1175
10663W        W10663   8.892   7.589   9.764  0.0732 -0.2593  0.0933
10664W        W10664   9.717   3.183   6.499  0.0616 -0.1003  0.0099
10665W        W10665   8.808   7.278   8.465  0.2332 -0.2108  0.0395
10666W        W10666   1.253   3.080   7.138 -0.0907 -0.0799 -0.0125
10667W        W10667   6.730   7.555   1.048 -0.0583  0.0133  0.0509
10668W        W10668   1.521   7.666   4.335  0.2288  0.0204 -0.0942
10669W        W10669   3.262   3.041   4.112 -0.2572  0.0874 -0.1052
10670W        W10670   8.021   9.076   4.609  0.1712  0.0152 -0.2832
10671W        W10671   7.247   5.015   1.492 -0.2123 -0.0732  0.1686
10672W        W10672   0.197   6.914   1.502 -0.2151 -0.0409 -0.2299
10673W        W10673   0.466   5.002   9.848 -0.1374  0.0340 -0.1616
10674W        W10674   8.858   7.439  10.273 -0.1232 -0.1524 -0.1427
10675W        W10675   2.922   9.834   2.675 -0.1829  0.1664 -0.2910
10676W        W10676   1.228   9.442   9.337  0.1154 -0.2365 -0.1755
10677W        W10677   7.214   2.860   6.532 -0.0832  0.0840 -0.0221
10678W        W10678   6.878   6.130   8.105  0.0397 -0.0114  0.0953
10679W        W10679   7.939   6.078   7.243 -0.0886 -0.0739 -0.1604
10680W        W10680   3.671   9.252   9.826 -0.2066 -0.1208 -0.2653
10681W        W10681   7.968   1.896   2.036  0.5012 -0.0900 -0.1705
10682W        W10682   4.677   5.170   2.674 -0.2439  0.0642  0.2995
10683W        W10683   3.447   6.724   7.397  0.0570  0.0734 -0.1377
10684W        W10684   2.298   8.789   1.554  0.1622  0.2837  0.1063
10685W        W10685   4.598   4.263   1.710  0.2414 -0.1501  0.0750
10686W        W10686  10.043   6.537  10.262  0.1484 -0.0090  0.3687
10687W        W10687   2.113   6.966   0.340  0.4240  0.2198 -0.1536
10688W        W10688   0.267   1.148   9.071  0.1604  0.2229 -0.4583
10689W        W10689   8.573   6.291   4.843  0.0713 -0.2582  0.0910
10690W        W10690   0.903   9.262   3.018 -0.5027 -0.1264  0.0488
10691W        W10691   1.713   0.772  10.224 -0.0910  0.3357 -0.0964
10692W        W10692  10.063   3.407   2.301 -0.0946 -0.0853 -0.0609
10693W        W10693   6.356   8.228   1.661  0.1202 -0.2243 -0.0590
10694W        W10694   6.894   5.803   9.843  0.2053 -0.0847 -0.0030
10695W        W10695   0.105   7.582   3.130 -0.3778  0.1437  0.1355
10696W        W10696   8.344   1.004   0.503  0.0341 -0.1792  0.2247
10697W        W10697   6.205   9.207   5.541 -0.1203 -0.0508 -0.0115
10698W        W10698   4.847   7.980   8.447 -0.0355  0.0098  0.1824
10699W        W10699   2.075   5.571   5.348 -0.0721  0.0512 -0.0617
10700W        W10700  10.045   7.951   8.759  0.0651 -0.1219  0.0519
10701W        W10701   0.307   8.026   4.780 -0.2145  0.1342  0.0105
10702W        W10702   6.082   3.817  10.324 -0.2432  0.0108  0.0622
10703W        W10703   1.433   5.489   7.430 -0.2249 -0.1847  0.0379
10704W        W10704   7.641   1.786   4.366  0.0287 -0.1095  0.0999
10705W        W10705   1.352   5.814   5.788  0.2447  0.0393 -0.2267
10706W        W10706   9.092   2.204   7.555 -0.1372 -0.0960 -0.0590
10707W        W10707   7.727   8.403   2.966  0.0397 -0.2440  0.4798
10708W        W10708   5.894   8.605   3.239  0.0824 -0.3047 -0.1662
10709W        W10709   9.122   5.493   9.648  0.2080  0.0434 -0.1103
10710W        W10710   0.048   0.614   3.392  0.1412 -0.0986  0.2475
10711W        W10711   7.373   0.545   9.615  0.1455  0.3602  0.0032
10712W        W10712   9.659   9.606   3.986  0.1405  0.0487  0.1620
10713W        W10713   0.228   2.332   5.851  0.0013 -0.0042 -0.1815
10714W        W10714   5.401   6.574   4.124  0.1219 -0.3573  0.0214
10715W        W10715   7.491   6.710   0.675  0.0570  0.0798  0.2459
10716W        W10716   1.617   6.540   4.093  0.0619  0.0412  0.1920
10717W        W10717  10.085   4.208   1.005 -0.2480  0.0579  0.2712
10718W        W10718   6.446   8.640   3.839  0.1798 -0.1532  0.0015
10719W        W10719   3.343   8.441   6.951 -0.3110  0.1571  0.0890
10720W        W10720   8.827   6.176   3.190 -0.0680  0.0057  0.0237
10721W        W10721   3.980   2.839   1.564  0.0847  0.0073 -0.0622
10722W        W10722   1.099   7.616   2.141 -0.2881  0.3964 -0.2164
10723W        W10723   5.427   7.499   7.970 -0.0554  0.0585  0.3145
10724W        W10724   3.479   7.790   1.984  0.0645 -0.3575  0.2785
10725W        W10725   7.785   0.226   5.943 -0.1311  0.2207  0.2375
10726W        W10726   6.200   2.379   2.287 -0.1055 -0.1174  0.0045
10727W        W10727   9.869   9.832   2.517 -0.0716  0.2500  0.0414
10728W        W10728   7.876   6.945   7.487 -0.1272  0.0988  0.4612
10729W        W10729   5.027   4.496   4.995 -0.0683  0.1415  0.1185
10730W        W10730   3.723   5.908   3.069 -0.1325  0.0967 -0.0238
10731W        W10731   8.148   1.225   4.256  0.0151  0.1036  0.0145
10732W        W10732   1.367   2.339   1.481  0.1141 -0.2108 -0.1079
10733W        W10733   4.680   2.193   8.415 -0.1510  0.0104  0.2684
10734W        W10734   4.803   8.920   5.491  0.0670 -0.0559 -0.1955
10735W        W10735   2.471   0.601   8.616 -0.1895 -0.0344  0.2026
10736W        W10736   5.533   7.102   3.835  0.2230 -0.0548 -0.1583
10737W        W10737   9.784   3.615   6.255  0.2233 -0.2984  0.0568
10738W        W10738   6.231   4.144   3.695  0.0970 -0.0034 -0.0299
10739W        W10739   0.740   0.448   5.444 -0.0277 -0.0223  0.0873
10740W        W10740   6.819   3.049   3.035 -0.3398  0.2349 -0.1422
10741W        W10741   8.794   9.712   5.461  0.0086 -0.1728  0.0378
10742W        W10742   7.386   6.741   6.015 -0.1165 -0.0905 -0.0946
10743W        W10743   2.687   4.958   4.977  0.2331 -0.1225  0.3662
10744W        W10744   2.892   9.897   1.088  0.1757  0.1406  0.1941
10745W        W10745   0.388   0.268   6.693 -0.0342  0.1923  0.1302
10746W        W10746   4.165   3.598   7.450  0.0672  0.0357 -0.1725
10747W        W10747   4.690   7.186   3.266  0.1981  0.2124 -0.0229
10748W        W10748   0.245   0.276   5.793  0.3094  0.2206 -0.0758
10749W        W10749   2.333   1.297   6.319  0.0749 -0.2834  0.2902
10750W        W10750   8.771   7.370   5.109 -0.0822  0.1995 -0.0543
10751W        W10751   5.497   3.851   4.526 -0.3155  0.1761 -0.2345
10752W        W10752   3.274   3.662   1.305 -0.1331  0.1186 -0.1569
10753W        W10753   5.815   5.434   9.258 -0.2085 -0.2761 -0.1081
10754W        W10754   5.756   6.745   2.027 -0.0466 -0.0009  0.0254
10755W        W10755   8.396   0.020  10.060 -0.0484 -0.0633  0.1610
10756W        W10756   3.007   8.652  10.192 -0.1335  0.1932 -0.1791
10757W        W10757   5.756  10.203   2.121  0.1213  0.1281 -0.1255
10758W        W10758   8.889   7.437   1.043  0.1298  0.0104  0.0001
10759W        W10759   0.950   7.504   5.347  0.0056 -0.0073 -0.2379
10760W        W10760   3.625   8.785   0.794  0.1550 -0.3060  0.1713
10761W        W10761   0.477   8.899   6.933 -0.1887  0.1395 -0.1314
10762W        W10762   9.345   6.778   9.615 -0.1136 -0.1538  0.3154
10763W        W10763   6.535   2.356   6.713  0.0441 -0.0287 -0.2086
10764W        W10764   4.676   7.030   2.464  0.0683  0.0484 -0.0001
10765W        W10765   7.386   5.075   0.496 -0.0992  0.1088  0.2725
10766W        W10766   8.841   4.090   1.840  0.0577 -0.0182  0.2993
10767W        W10767  10.007   8.747   1.003 -0.1418  0.0446 -0.1545
10768W        W10768   5.575   0.191   8.331  0.2651 -0.1100  0.1991
10769W        W10769   5.916  10.028   6.767 -0.1291  0.2986  0.3183
10770W        W10770   8.256   0.178   6.202 -0.1167  0.2433  0.0904
10771W        W10771   3.135   4.915   3.750  0.0704  0.1109  0.0608
10772W        W10772   8.649   9.455   8.830 -0.0496 -0.2656 -0.0951
10773W        W10773   5.422   1.444   1.930 -0.1422 -0.0292 -0.2272
10774W        W10774   4.498   0.413   1.889  0.0919 -0.0406  0.0393
10775W        W10775   6.689   5.551   7.499 -0.2441  0.2465  0.1950
10776W        W10776   0.688   5.928   3.196  0.0116  0.2678 -0.0313
10777W        W10777   2.163   4.434   9.470  0.0111 -0.1114  0.3550
10778W        W10778   2.904   2.437   7.925  0.1294 -0.1233  0.1130
10779W        W10779   1.714   0.501   4.417  0.0391 -0.0718  0.1321
10780W        W10780   6.051   7.173   7.480  0.0821 -0.1008  0.0460
10781W        W10781   0.795   4.517   5.675 -0.1880 -0.3104 -0.3392
10782W        W10782   7.361   4.869   7.662  0.4142  0.0016 -0.2061
10783W        W10783   8.245   9.944   8.227 -0.1077 -0.1937 -0.1369
10784W        W10784   3.151   5.349   2.470  0.3728 -0.1380  0.0247
10785W        W10785   9.669   8.694   4.354  0.3491  0.0619 -0.1026
10786W        W10786   8.033   4.538  10.265 -0.1158 -0.1285 -0.1888
10787W        W10787   8.538   4.148   6.621 -0.2106  0.0928  0.3442
10788W        W10788   8.099   8.538   9.413  0.0046  0.0112  0.3841
10789W        W10789   3.571   5.971   6.760  0.0066  0.0368  0.0591
10790W        W10790   1.872   3.412   3.548  0.0788  0.0857  0.0765
10791W        W10791   0.468   3.344   4.725  0.0641 -0.0892 -0.2056
10792W        W10792   8.730   9.782   1.493  0.1061 -0.0551  0.0292
10793W        W10793   0.897   3.340   7.458 -0.2338  0.2542 -0.1863
10794W        W10794   2.439   9.981   8.014  0.0837  0.0791  0.2681
10795W        W10795   2.821   0.289   5.129  0.0865  0.3262  0.0302
10796W        W10796  10.158   9.591   8.772 -0.1067 -0.2692  0.0529
10797W        W10797   6.203   8.210   2.236 -0.3030  0.0184 -0.3766
10798W        W10798   9.720   3.438   1.043  0.0850 -0.0850  0.2470
10799W        W10799   6.962   5.997   8.885 -0.0496  0.0761 -0.3550
10800W        W10800   0.636  10.124   9.178 -0.1877  0.2422  0.3045
10801W        W10801   6.469   5.085   7.844 -0.1097  0.3403 -0.1500
10802W        W10802   0.366   7.984   2.904 -0.1089  0.5641  0.2368
10803W        W10803   4.260   9.640   0.401  0.0955 -0.0681 -0.1156
10804W        W10804   8.503   5.456   9.597 -0.3883 -0.0425  0.0744
10805W        W10805   6.574   7.227   6.023  0.0170  0.2990 -0.0643
10806W        W10806   6.653   4.599   2.865  0.0761 -0.1193 -0.1936
10807W        W10807   6.360   5.595   6.628  0.0896  0.2348 -0.2932
10808W        W10808   1.055   8.205   9.458 -0.0032 -0.0913 -0.1913
10809W        W10809  10.055   0.153   4.639  0.0076  0.2458 -0.0471
10810W        W10810   2.721   6.934   4.223 -0.1221 -0.0030 -0.3694
10811W        W10811   3.610   0.793   5.024  0.0428  0.0576 -0.0842
10812W        W10812   8.895   3.751   6.728 -0.0302  0.0348  0.1347
10813W        W10813   7.382   8.149   2.359 -0.0890  0.2669  0.2303
10814W        W10814   4.252   6.642   7.527  0.5418  0.0154  0.2681
10815W        W10815   1.292   6.502   6.530  0.1480  0.1010 -0.0807
10816W        W10816   6.764   2.324   1.538  0.0749 -0.1062  0.3865
10817W        W10817   9.886   2.244   0.263 -0.3527  0.1037  0.2618
10818W        W10818   0.952   9.943   5.133  0.1108  0.0713  0.0611
10819W        W10819   3.766   0.792   6.018  0.2110 -0.0015  0.2804
10820W        W10820   3.212   6.016   4.607  0.0657 -0.2359  0.1463
10821W        W10821   9.878   2.613   3.030 -0.1957  0.0747 -0.0828
10822W        W10822   8.394   8.718   1.731 -0.0419 -0.1223  0.0197
10823W        W10823   9.673   0.539   5.821 -0.1349 -0.0472 -0.3995
10824W        W10824   6.675   8.615   8.735 -0.0932  0.0764 -0.0685
10825W        W10825   3.788   5.357   2.998 -0.0105  0.3091 -0.0452
10826W        W10826   5.795   4.358   5.750 -0.3413  0.1448  0.0140
10827W        W10827   6.840   9.523  10.293  0.2362  0.2191 -0.2365
10828W        W10828  10.084   0.039   1.704  0.1669 -0.0070 -0.0209
10829W        W10829   6.534   3.863   1.638 -0.0139  0.2299  0.4292
10830W        W10830   5.693   1.616   9.311  0.2509  0.1909 -0.1906
10831W        W10831   9.371   1.658   3.902  0.0729  0.2867 -0.4701
10832W        W10832   9.547   1.968   4.273 -0.1980  0.0240 -0.0727
10833W        W10833   0.762   6.348   6.166  0.0031 -0.2438  0.0309
10834W        W10834   1.769   0.444   3.005 -0.0519  0.1975  0.0090
10835W        W10835   2.682   4.381   6.787  0.2627  0.1169  0.2992
10836W        W10836  10.017   7.527   9.115 -0.0498 -0.1943  0.0725
10837W        W10837   8.843   5.525   0.572  0.0612  0.2463 -0.1704
10838W        W10838   3.943   4.378   9.378  0.0894 -0.2339  0.0414
10839W        W10839   6.431   6.724   4.747 -0.0748 -0.2195 -0.2544
10840W        W10840   5.276   2.514   0.096 -0.0769 -0.4791  0.1800
10841W        W10841   0.412   4.624   0.397  0.2357  0.3616  0.0558
10842W        W10842   7.436   0.287   3.094  0.1024 -0.0633  0.2284
10843W        W10843   3.790   6.054   1.167  0.1839 -0.0889  0.0415
10844W        W10844   9.087   9.904   1.887  0.0465  0.1614  0.2256
10845W        W10845   0.195   5.617   7.383 -0.0547 -0.1727 -0.0761
10846W        W10846   5.076   9.889   5.256 -0.2676 -0.1052  0.1437
10847W        W10847   3.295   9.398   8.623  0.0180 -0.1722  0.0315
10848W        W10848   6.866   4.675   9.512 -0.3094  0.0833 -0.1961
10849W        W10849   6.399   4.885   3.414  0.2348  0.0408 -0.0297
10850W        W10850   2.405   8.597   9.467  0.0195  0.2316  0.0457
10851W        W10851   3.248   3.441   6.662  0.1487  0.0291  0.0160
10852W        W10852   7.154   9.077   0.116 -0.1659  0.4784  0.1689
10853W        W10853   0.334   9.432   7.074  0.1708  0.0513  0.1738
10854W        W10854   1.173   5.977   4.504 -0.2972 -0.0201  0.2526
10855W        W10855   7.149   4.503   2.745  0.0605 -0.0262 -0.1958
10856W        W10856   6.155   9.091   4.516 -0.2477  0.2898 -0.0527
10857W        W10857   2.159   8.797   5.393 -0.1179 -0.0063  0.1569
10858W        W10858   7.792   5.916   3.903 -0.0243  0.0353 -0.1928
10859W        W10859   8.052   9.372   7.455  0.0566 -0.2142 -0.2881
10860W        W10860   6.345   7.658   2.723 -0.2963 -0.3109 -0.0187
10861W        W10861   0.405   7.283   7.709  0.0982 -0.1875  0.1700
10862W        W10862   8.099   3.464   6.923  0.0558  0.1082  0.0334
10863W        W10863   4.593   2.273   4.704  0.1588 -0.0583 -0.1302
10864W        W10864   5.735   5.510   6.666  0.0096  0.1801  0.3117
10865W        W10865   3.930   5.598   9.455  0.1778 -0.1750  0.0796
10866W        W10866   8.457  10.016   2.752 -0.2821 -0.1626 -0.3595
10867W        W10867   5.080   2.792   6.545  0.0125  0.0159 -0.1108
10868W        W10868   6.334   8.647   4.294 -0.1573  0.3485 -0.0676
10869W        W10869   5.914   4.626   6.665  0.3922  0.0611  0.1016
10870W        W10870   4.803   9.425   5.925  0.2070 -0.0410  0.2757
10871W        W10871   6.229   4.122   8.840  0.0486  0.0732  0.1260
10872W        W10872   8.430   2.116   6.386  0.0115  0.2589  0.0910
10873W        W10873   6.250  10.035   3.503 -0.2822 -0.1538  0.4242
10874W        W10874   1.600   5.801   1.782 -0.0584 -0.1031  0.2083
10875W        W10875   9.813   2.865   8.557  0.2937  0.4886 -0.0661
10876W        W10876   5.415   4.907   4.987  0.2470 -0.0690  0.0634
10877W        W10877   6.712   6.885   5.137  0.0691  0.1199 -0.0020
10878W        W10878   0.104   4.457   3.188  0.0743 -0.0046  0.0555
10879W        W10879   8.698   8.872   4.048  0.0979  0.2976 -0.1378
10880W        W10880   6.632   7.994   5.516 -0.0252  0.1068  0.0301
10881W        W10881   9.942   8.494   6.464  0.2421  0.1893  0.1703
10882W        W10882   2.190   0.413   4.572  0.1159  0.1513  0.1419
10883W        W10883   4.114   1.163   2.944  0.1325 -0.3182  0.0629
10884W        W10884   5.938   9.731   2.366  0.2223 -0.1922  0.0319
10885W        W10885   4.368   4.023   6.235  0.0529  0.2203 -0.1826
10886W        W10886   2.457   1.779   2.326 -0.0819  0.2084  0.1936
10887W        W10887   0.531   3.433   0.425  0.3351  0.0009  0.3286
10888W        W10888   9.698   7.548   6.627  0.0321  0.1380 -0.1996
10889W        W10889   3.203   4.417   6.050 -0.2148  0.2249  0.3708
10890W        W10890   4.858   8.010   0.132  0.1895 -0.0398 -0.0184
10891W        W10891   3.141   2.060   4.032 -0.0236  0.1945  0.1297
10892W        W10892   9.152   3.474   7.159 -0.0343 -0.4127  0.0428
10893W        W10893   5.927   3.057   7.589 -0.3355  0.1339 -0.2668
10894W        W10894   6.609   4.536   6.055  0.1729 -0.0746  0.1643
10895W        W10895   2.134   5.173   2.502 -0.0484  0.0921 -0.0092
10896W        W10896   2.626   9.574   5.725 -0.1419  0.0174  0.1681
10897W        W10897   5.002   0.492   1.190  0.0948 -0.2044  0.1591
10898W        W10898   1.362   2.631   1.904 -0.0540 -0.2061  0.0316
10899W        W10899   8.721   3.774   2.298  0.0633  0.1159 -0.1464
10900W        W10900   1.665   1.773   0.631 -0.1119  0.1099 -0.2598
10901W        W10901   5.802   5.998   8.164 -0.3592  0.2049 -0.1992
10902W        W10902   1.010   3.588   2.172  0.0063  0.0032 -0.0816
10903W        W10903   6.176   6.074   2.880  0.0221  0.0462  0.1941
10904W        W10904   6.958   5.667   4.193 -0.0782  0.0643  0.3937
10905W        W10905   2.605   7.648   3.341 -0.2574 -0.0063  0.0099
10906W        W10906   5.659   3.139   0.857  0.3088  0.0183  0.0297
10907W        W10907   1.714   3.597   5.373  0.1274 -0.1243  0.0263
10908W        W10908   0.706   6.385   3.068  0.0536  0.1424  0.0915
10909W        W10909   5.214   4.144   8.105  0.0648  0.1036  0.1513
10910W        W10910   5.833   9.262   5.958 -0.1305 -0.0579 -0.0256
10911W        W10911   9.140   7.614   5.383  0.3030 -0.4418 -0.2816
10912W        W10912   5.581   7.256   7.512 -0.2801 -0.1388  0.2517
10913W        W10913   0.435   4.184   9.468  0.1311  0.1548  0.1108
10914W        W10914   7.397   9.051   5.199 -0.1869  0.4906  0.0433
10915W        W10915   6.321   0.447   9.914 -0.0290  0.0046 -0.2502
10916W        W10916   3.991   4.923   3.252  0.1548  0.3318 -0.1348
10917W        W10917   6.969   8.967   8.857  0.0257  0.0828  0.2145
10918W        W10918   7.433   4.323   7.568 -0.0225 -0.1747  0.1533
10919W        W10919   7.500   1.420   2.743 -0.0670  0.1825  0.3289
10920W        W10920   7.254   1.549   5.553 -0.4102  0.2776 -0.4721
10921W        W10921   3.004   8.494   1.354 -0.0473  0.1087  0.2242
10922W        W10922  10.280   9.991   1.096  0.1293  0.2520  0.1585
10923W        W10923   1.272   6.162   6.152  0.1223 -0.1501 -0.0315
10924W        W10924   9.534   7.485   7.608  0.0243  0.2742 -0.4647
10925W        W10925   3.870   4.219   3.456 -0.2084 -0.3284  0.0570
10926W        W10926   1.803   0.250   2.128  0.0854  0.0189  0.0256
10927W        W10927   1.554   7.848   2.327 -0.1083  0.2657  0.2946
10928W        W10928   3.788   1.635   2.968  0.1193 -0.2802 -0.0856
10929W        W10929   1.898   5.590   7.249  0.0914 -0.0875 -0.1978
10930W        W10930   3.021   9.568   9.236 -0.0472  0.0361  0.2122
10931W        W10931   9.113   1.326  10.207 -0.0047  0.3026 -0.1655
10932W        W10932   8.679   6.327   6.604 -0.1459 -0.1647  0.1022
10933W        W10933   3.327   4.516   8.173 -0.1676 -0.4057 -0.0535
10934W        W10934   5.557   4.763   0.972 -0.0389 -0.4050 -0.1216
10935W        W10935   7.179   7.814   7.740 -0.0839  0.0551  0.0573
10936W        W10936   7.015   4.993   9.085  0.2817 -0.0820 -0.3142
10937W        W10937   9.389   8.292   9.331  0.2276  0.2297  0.0133
10938W        W10938   7.969   8.355   5.686  0.0266  0.0985 -0.1543
10939W        W10939   6.632   9.513   9.288  0.0131 -0.3445 -0.0056
10940W        W10940   5.159   6.408   6.592  0.1987  0.0529  0.0529
10941W        W10941   1.590   0.101   2.695  0.0443  0.0287 -0.0589
10942W        W10942   2.807   2.701   4.444  0.1412  0.0020 -0.2812
10943W        W10943   3.962   2.968   5.781 -0.2543  0.0912  0.2217
10944W        W10944   2.712   1.460   7.593 -0.0322  0.0551  0.0529
10945W        W10945   9.045   9.998   2.809  0.1659 -0.0199 -0.0330
10946W        W10946   3.148   7.728   3.211  0.1128  0.2751 -0.0812
10947W        W10947   3.382   7.901   0.345 -0.0889  0.1589 -0.0563
10948W        W10948   2.017   4.621   2.521  0.0575 -0.2332  0.0749
10949W        W10949   2.136   8.941   9.846  0.0683  0.1729 -0.1661
10950W        W10950   7.848   2.680   6.579  0.0250 -0.0443 -0.2256
10951W        W10951   4.975   4.245   5.414 -0.4561 -0.0187  0.1536
10952W        W10952   7.871   2.865   5.815 -0.0531 -0.0462  0.1528
10953W        W10953   6.608   5.659   0.720  0.0150 -0.0332 -0.1174
10954W        W10954   9.330   1.850   3.218 -0.0327 -0.1363  0.1012
10955W        W10955   0.899   3.706   2.719  0.2329  0.0278  0.0239
10956W        W10956   8.894  10.280   9.898 -0.3250  0.0288 -0.0086
10957W        W10957   1.503   5.290   6.196  0.1377  0.1095 -0.0710
10958W        W10958   3.211   5.107   8.774 -0.2629  0.4561  0.3036
10959W        W10959   9.219   5.661  10.169  0.3400 -0.1921  0.2787
10960W        W10960   7.860   1.483   8.773 -0.1157 -0.0335  0.1470
10961W        W10961   9.443   2.228   6.924  0.2254  0.0926  0.2223
10962W        W10962   6.407   7.140   4.357 -0.1727 -0.2659  0.1004
10963W        W10963   0.738   8.318   7.990 -0.0615  0.2350 -0.0305
10964W        W10964   6.338   7.649   8.476  0.2306  0.4016  0.0026
10965W        W10965   8.603   6.622   3.330  0.0124 -0.1140  0.0556
10966W        W10966   0.386   3.702  10.333 -0.3202 -0.0238 -0.1906
10967W        W10967   1.726   3.827   3.752  0.0921 -0.0478  0.2363
10968W        W10968   1.223   0.708  10.292  0.3047 -0.0369  0.3989
10969W        W10969   4.341   4.841   7.751 -0.1288  0.2337 -0.1859
10970W        W10970   6.787   9.278   0.382 -0.2411  0.1990 -0.5610
10971W        W10971   6.035  10.235   1.685 -0.2148  0.2275 -0.2767
10972W        W10972   8.891   8.747  10.182 -0.0329 -0.1816  0.1757
10973W        W10973   1.947   4.463   5.144 -0.5539  0.0224 -0.0852
10974W        W10974   4.160   2.968   3.884  0.1457 -0.2366  0.2489
10975W        W10975   0.264  10.189   2.292  0.0841  0.0612  0.0944
10976W        W10976   3.041   8.408   5.311  0.0505 -0.2854 -0.1665
10977W        W10977   4.635   3.805   3.635 -0.0355 -0.1711 -0.1971
10978W        W10978   2.969   9.973  10.080  0.3738 -0.2103  0.1635
10979W        W10979   6.934   6.870   5.774 -0.1411  0.2895 -0.1900
10980W        W10980   2.691   2.271   8.375 -0.1560  0.0183  0.2481
10981W        W10981   3.425   5.410   6.197 -0.0847  0.1020  0.0173
10982W        W10982   2.346   7.185   2.482  0.0614  0.2236  0.0883
10983W        W10983   6.633   8.024   1.282  0.2573  0.1457  0.1429
10984W        W10984   3.446   8.467  10.138  0.0274  0.3699 -0.2275
10985W        W10985   1.700   7.132   0.034 -0.0979  0.3523 -0.0510
10986W        W10986   8.735   6.549   8.413 -0.0744  0.3738  0.0948
10987W        W10987   1.515   1.574   8.777  0.1266 -0.3887 -0.2316
10988W        W10988   3.067   8.295   0.191 -0.2548  0.1719 -0.1021
10989W        W10989   6.201   0.324   5.981  0.0264 -0.0817  0.0995
10990W        W10990   8.205   4.194   5.518  0.3033 -0.0458 -0.0804
10991W        W10991   3.056  10.166   0.202 -0.0302 -0.0402 -0.2257
10992W        W10992   3.431   7.494   5.278  0.2856 -0.0898  0.0388
10993W        W10993   4.565   6.650   9.708 -0.5051 -0.1873 -0.0654
10994W        W10994   2.524   7.462   0.952  0.2161  0.1037  0.0690
10995W        W10995   1.987   0.255   1.265 -0.1726 -0.0176 -0.0365
10996W        W10996   8.399   7.374   6.953  0.1437  0.0765  0.0463
10997W        W10997   1.185   6.618   5.639  0.1299  0.0063 -0.0074
10998W        W10998   6.143   8.813  10.294 -0.0381 -0.0643  0.1305
10999W        W10999   3.974   8.377   5.610 -0.0975 -0.0753 -0.0546
11000W        W11000   3.638   5.375   4.260 -0.0051 -0.0538  0.0404
11001W        W11001   8.261   5.543   8.126 -0.1011 -0.0756 -0.2853
11002W        W11002   7.379   8.846   0.471  0.2146 -0.0713 -0.0105
11003W        W11003   5.236   3.706   5.313  0.0803 -0.2213 -0.0968
11004W        W11004   6.282   4.208   6.831 -0.3144  0.0106 -0.6156
11005W        W11005   6.223   6.711   1.877  0.1555  0.0896  0.0282
11006W        W11006   3.877   5.563   2.091  0.1865  0.0463  0.3417
11007W        W11007   8.051   1.699   4.104  0.0873 -0.2568  0.0546
11008W        W11008   1.344   6.208   2.980 -0.0841  0.1577 -0.0645
11009W        W11009   5.154   3.509   7.296 -0.3456  0.0874 -0.4231
11010W        W11010   9.205   7.440   8.829  0.2281 -0.3154  0.1501
11011W        W11011   9.667   7.050   6.130 -0.1299 -0.0523  0.1584
11012W        W11012   6.870   5.202   3.494 -0.1851 -0.2355  0.0132
11013W        W11013   1.007   2.514   5.306  0.2227 -0.1900  0.1780
11014W        W11014  10.262   5.934   8.340  0.0852 -0.4061  0.1193
11015W        W11015   1.535   4.948   9.788  0.1014  0.0996 -0.1099
11016W        W11016   7.658   3.969   3.632 -0.2799 -0.0685 -0.0959
11017W        W11017   9.668   8.976   5.231  0.1626  0.3332 -0.0623
11018W        W11018   8.100   8.170   1.500  0.1311 -0.1039 -0.2599
11019W        W11019   4.275   6.842   8.683  0.0668  0.1359  0.0331
11020W        W11020   4.214   1.550   2.617 -0.0564  0.0117  0.0119
11021W        W11021   5.031   4.983   1.103 -0.1038  0.0221 -0.0198
11022W        W11022   3.399   7.920  10.143 -0.0866 -0.3006  0.3971
11023W        W11023   8.533   6.336   5.348 -0.1493  0.0657 -0.0733
11024W        W11024   9.549   5.555   3.434  0.1504 -0.0847  0.2181
11025W        W11025   4.442   9.773   1.978 -0.1235  0.1246  0.1617
11026W        W11026   8.811   3.253   9.191  0.1610  0.0655  0.1039
11027W        W11027   3.998   9.103   9.417  0.1315 -0.1649 -0.1401
11028W        W11028   3.155  10.319   8.272  0.0634  0.1146  0.0305
11029W        W11029   2.308   5.697   8.436  0.1739  0.0618 -0.0601
11030W        W11030   1.970   1.213   1.150  0.0678 -0.1444  0.0777
11031W        W11031   1.099   9.587   8.871  0.0547 -0.0551  0.0835
11032W        W11032   1.482   0.372   1.803 -0.0029  0.1766  0.2326
11033W        W11033   4.530   0.351   7.052 -0.0135 -0.1892  0.2248
11034W        W11034   4.558   9.379   4.216  0.0910  0.0825 -0.0753
11035W        W11035   5.746   4.676   7.155  0.1274  0.1099  0.2212
11036W        W11036   5.033   3.030   9.492  0.0991 -0.0102 -0.3074
11037W        W11037   7.199   8.787   5.675 -0.0229  0.2811  0.0028
11038W        W11038   9.835   0.746   8.816  0.2072  0.2588  0.1905
11039W        W11039   5.403   2.379   6.734 -0.0084 -0.0705 -0.0901
11040W        W11040   6.295   0.530   7.218  0.0076 -0.2684 -0.0647
11041W        W11041   2.724   0.019   5.517 -0.0167  0.1809  0.1344
11042W        W11042   3.885   1.297   0.791 -0.2172  0.2786 -0.1942
11043W        W11043   7.641   4.594   4.340 -0.1122  0.2575 -0.1297
11044W        W11044   0.940   0.012   9.521  0.1134  0.0168 -0.0853
11045W        W11045   9.334   5.509   3.956  0.1264 -0.0064 -0.1148
11046W        W11046   8.049   2.199   6.647  0.2553  0.0031 -0.0258
11047W        W11047   4.771   8.055   9.472  0.0438  0.0216 -0.0210
11048W        W11048   9.903   2.191   2.605  0.0495  0.1760  0.1568
11049W        W11049   8.457   3.138   5.013 -0.0190 -0.0925  0.0375
11050W        W11050   7.585   9.404  10.278 -0.0189 -0.0795 -0.1189
11051W        W11051   1.421   5.625   9.101 -0.0754  0.2202  0.1462
11052W        W11052   8.977  10.013   7.453 -0.0051 -0.0864  0.0527
11053W        W11053   2.061   8.091   9.654 -0.0293 -0.2948  0.1431
11054W        W11054   7.983   7.526   5.978  0.0393  0.0952  0.0257
11055W        W11055  10.160  10.004   9.572 -0.0493  0.1023 -0.0473
11056W        W11056   1.282   7.052   9.549  0.1424 -0.0401 -0.3892
11057W        W11057   0.968   8.759   1.678  0.2341 -0.1273  0.2104
11058W        W11058   9.347   8.675   4.695  0.4474  0.1811 -0.1286
11059W        W11059   6.799   1.183   5.877 -0.0681 -0.0359 -0.2100
11060W        W11060   9.437   0.778   0.411 -0.0462  0.2296 -0.6038
11061W        W11061   9.387   0.385   2.240 -0.0844 -0.1207 -0.2292
11062W        W11062   3.665   4.849   3.755  0.0489 -0.1291  0.1020
11063W        W11063   3.794   1.240   3.388 -0.0522  0.0646 -0.1302
11064W        W11064   2.830   9.313   4.813  0.0064  0.1213  0.1502
11065W        W11065   2.502   4.784   4.515  0.2231  0.1983  0.1421
11066W        W11066   9.764   7.181   2.719  0.0437 -0.1955 -0.0058
11067W        W11067   7.501   4.346   3.062  0.0746 -0.3502 -0.0057
11068W        W11068   0.445   5.604   2.848  0.1388 -0.0526 -0.1258
11069W        W11069   3.523   7.331   8.822 -0.1627  0.0441  0.1914
11070W        W11070   9.513   4.172   7.081 -0.1714 -0.2161  0.0878
11071W        W11071   9.508   0.803   3.115  0.1034 -0.1050 -0.0961
11072W        W11072   8.570   1.843   5.383 -0.0480 -0.1372  0.0761
11073W        W11073   4.680   1.026   8.249  0.0426 -0.3252 -0.2294
11074W        W11074   6.102   4.226   0.255 -0.0885  0.2256  0.0263
11075W        W11075   5.793   4.343   8.767  0.1484 -0.1825 -0.1933
11076W        W11076   7.958   3.702   1.039 -0.2937  0.0647 -0.0068
11077W        W11077   3.502   0.229   7.225  0.2638  0.1164 -0.4386
11078W        W11078   4.592   8.608   7.047 -0.2110  0.1376  0.0267
11079W        W11079   1.170   0.646   7.232  0.3416 -0.1131  0.0145
11080W        W11080   1.489   3.712   0.431 -0.0568 -0.3866  0.1096
11081W        W11081   8.441   0.062   9.510 -0.0155 -0.3258  0.1168
11082W        W11082   9.008   2.319   9.031  0.1831  0.2037 -0.0120
11083W        W11083   9.497   7.271   5.657 -0.3208  0.2273  0.1732
11084W        W11084   5.038   7.689   5.961  0.1742 -0.0050 -0.3116
11085W        W11085  10.286   3.213   5.387 -0.4674 -0.0645 -0.0426
11086W        W11086   1.440   6.042   3.914  0.2513  0.0113 -0.1411
11087W        W11087   9.889   7.731   2.811  0.0942  0.2593  0.2485
11088W        W11088   1.059   7.883   8.604 -0.1030  0.1606 -0.1339
11089W        W11089   4.787   7.017   0.119 -0.0113 -0.2353 -0.0341
11090W        W11090   8.049   5.783   7.658  0.2817  0.1180 -0.0685
11091W        W11091   7.666   5.653   7.239  0.0099  0.1425  0.0732
11092W        W11092   6.029   9.698   6.400 -0.0377  0.1008  0.1972
11093W        W11093   5.680   5.962   3.088  0.2632  0.0798  0.1765
11094W        W11094   5.751   7.906   0.751  0.0454  0.0705 -0.1496
11095W        W11095   6.842   1.418   0.076 -0.1346  0.0262 -0.3239
11096W        W11096   8.555  10.128   9.127 -0.0874  0.0282 -0.0804
11097W        W11097   6.957   4.280   5.813  0.0698 -0.0052 -0.0737
11098W        W11098   5.729   2.709   5.171  0.2843  0.1026 -0.2244
11099W        W11099   0.586   0.840   7.020 -0.1135 -0.0545  0.0580
11100W        W11100   5.952   4.621   9.864 -0.1413  0.0175  0.1463
11101W        W11101   4.587   1.778   2.992  0.1012  0.2862 -0.0780
11102W        W11102   2.783   7.022   8.354  0.1009 -0.2410 -0.2779
11103W        W11103   8.934   0.899   8.258  0.0586 -0.0845 -0.1345
11104W        W11104   5.480   7.388   0.634 -0.2670  0.0312  0.0655
11105W        W11105   5.972   3.686   5.280  0.3074  0.1333  0.2417
11106W        W11106   4.611   8.364   9.835  0.1061 -0.2540 -0.1474
11107W        W11107   0.100   5.558   4.268  0.0981 -0.0041 -0.0584
11108W        W11108   4.704   3.338   9.157  0.1329 -0.1270  0.3025
11109W        W11109   1.483   1.123   1.219 -0.1168 -0.0164 -0.1527
11110W        W11110   2.076   2.551   9.946 -0.1199 -0.2297  0.1187
11111W        W11111   6.942   1.972   1.219 -0.0499 -0.1630  0.0028
11112W        W11112   1.314   9.917   1.429  0.1375  0.2485 -0.2336
11113W        W11113   0.098   9.537   4.951 -0.0634 -0.0821 -0.0947
11114W        W11114   3.989  10.291   4.332 -0.1842  0.0771 -0.2978
11115W        W11115   5.943   0.978   6.054  0.0295 -0.0472 -0.1935
11116W        W11116   5.680   4.273   0.646 -0.0941  0.0871 -0.0211
11117W        W11117   6.791   3.912   4.296 -0.4715  0.2213  0.0255
11118W        W11118   4.533  10.129   5.290 -0.0999 -0.2463  0.1209
11119W        W11119   8.878   1.545   4.271 -0.0286  0.0254 -0.1012
11120W        W11120   8.051   6.286   4.413 -0.1960  0.1385 -0.0368
11121W        W11121   9.278   5.253   8.756  0.3493 -0.4125  0.2110
11122W        W11122   3.911   7.374   5.031  0.1669  0.1193  0.0036
11123W        W11123   6.853   2.361   7.646  0.1271 -0.0655 -0.1037
11124W        W11124   4.181   7.560   8.062 -0.0501 -0.2555 -0.1421
11125W        W11125   5.826   0.934   0.899 -0.2211 -0.0759  0.1717
11126W        W11126   2.444   8.838   8.055  0.4705  0.1460 -0.1599
11127W        W11127   2.672   7.826   1.510 -0.0097  0.0886 -0.0919
11128W        W11128   0.967   0.989   1.494  0.0007 -0.2968  0.2368
11129W        W11129   6.156   8.718   1.083 -0.2717  0.0260 -0.0990
11130W        W11130   3.869  10.227   7.639  0.0839 -0.1809  0.2988
11131W        W11131   5.679   6.782   7.688 -0.1701  0.0757 -0.2508
11132W        W11132   2.708   4.563   2.971  0.3818  0.1783  0.2702
11133W        W11133   8.046   1.099   6.445  0.1478 -0.1924  0.1761
11134W        W11134   8.294   7.991   5.481 -0.4195 -0.2202  0.2905
11135W        W11135   8.718   9.880   8.070  0.0592  0.1070  0.0369
11136W        W11136   3.532   2.338   1.782 -0.2047 -0.1453 -0.0717
11137W        W11137   2.349   7.236   9.351 -0.0220 -0.1712 -0.1208
11138W        W11138   4.299   9.066   3.308 -0.0673 -0.0413 -0.2174
11139W        W11139   9.694   0.397   1.284  0.0834 -0.1644 -0.0555
11140W        W11140   0.280   0.873   7.445  0.1961 -0.3673  0.2979
11141W        W11141   9.635   9.157   3.072  0.0882 -0.2255  0.0341
11142W        W11142   1.960   6.850   5.362  0.1236  0.0171 -0.0915
11143W        W11143   4.456   2.962   1.283 -0.0848  0.1186 -0.0440
11144W        W11144   8.597   9.150   5.968  0.1146 -0.0147 -0.1548
11145W        W11145   2.823   9.232   7.382 -0.1432 -0.1871 -0.2398
11146W        W11146   1.395   7.896   0.490  0.0795  0.1270 -0.0423
11147W        W11147   4.789   2.203   5.754  0.3362  0.0585  0.1530
11148W        W11148   4.666   6.490   2.706 -0.0528  0.0836  0.3471
10.3385 10.3385 10.3385 0.0000 0.0000 0.0000 0.0000 0.0000 0.0000
