t=10000.0 ps
11148
    1COH    COH    1  10.098   1.496   5.847  0.2657  0.1353 -0.0799
    2COC    COC    2  10.311   1.385   5.954  0.6037 -0.0282  0.0202
    3COC    COC    3  10.304   1.502   6.227 -0.2063 -0.0137 -0.0420
    4COC    COC    4   0.219   1.507   6.371 -0.1606 -0.1712  0.5283
    5COC    COC    5   0.465   1.734   6.370  0.3123  0.1004 -0.0296
    6COC    COC    6   0.607   1.932   6.534 -0.1262 -0.0401  0.0763
    7COC    COC    7   0.478   2.214   6.634  0.4855  0.1701 -0.1500
    8COC    COC    8   0.463   2.457   6.464 -0.1395 -0.3152  0.2007
    9COC    COC    9   0.310   2.413   6.242  0.2666 -0.0793 -0.3770
   10COC    COC   10   0.245   2.128   6.265 -0.2021  0.1068 -0.2837
   11COC    COC   11  10.288   2.032   6.190  0.2938  0.1351 -0.2193
   12COC    COC   12  10.229   2.247   5.949  0.1945  0.0995 -0.3575
   13COC    COC   13   9.951   2.277   5.862 -0.1249  0.2334 -0.2285
   14COC    COC   14   9.778   2.149   5.639 -0.1022  0.1784 -0.4166
   15COC    COC   15   9.502   2.189   5.799 -0.1552 -0.0893 -0.1032
   16COC    COC   16   9.492   1.954   6.021  0.3385 -0.3213  0.3602
   17COC    COC   17   9.790   1.813   5.910  0.1943 -0.1291  0.1325
   18COC    COC   18   9.766   1.670   5.646  0.0241  0.3401 -0.1780
   19COC    COC   19   9.589   1.498   5.470  0.6093  0.0649 -0.6430
   20COC    COC   20   9.360   1.537   5.326 -0.0835  0.1939  0.1191
   21COC    COC   21   9.261   1.326   5.190  0.0403  0.2297  0.0668
   22COC    COC   22   9.502   1.126   5.217 -0.1884 -0.1782 -0.1796
   23COC    COC   23   9.535   0.846   5.209  0.2557  0.2308 -0.1027
   24COC    COC   24   9.787   0.763   5.391 -0.0444 -0.1648 -0.0238
   25COC    COC   25  10.035   0.605   5.273 -0.4635  0.2404  0.1468
   26COC    COC   26  10.264   0.780   5.190 -0.2938 -0.1792  0.2403
   27COC    COC   27   0.228   0.692   5.131  0.2177  0.5176 -0.1169
   28COC    COC   28   0.274   0.791   4.847  0.0845 -0.2119  0.0256
   29COC    COC   29   0.502   0.999   4.888 -0.0494  0.3349 -0.4661
   30COC    COC   30   0.734   1.177   4.802 -0.1880  0.3403  0.5091
   31COC    COC   31   0.817   1.161   4.513 -0.3320  0.4118 -0.0960
   32COC    COC   32   0.717   1.400   4.365 -0.5254 -0.1726  0.2881
   33COC    COC   33   0.904   1.616   4.261 -0.3168  0.1437  0.0893
   34COC    COC   34   1.071   1.904   4.368 -0.2411 -0.1262  0.2264
   35COC    COC   35   0.956   2.180   4.418  0.0239 -0.0552 -0.3487
   36COC    COC   36   0.820   2.257   4.695 -0.0312 -0.0604  0.2773
   37COC    COC   37   0.889   2.575   4.717  0.1861 -0.2309  0.1640
   38COC    COC   38   1.092   2.727   4.870  0.0638  0.0004 -0.0440
   39COC    COC   39   1.114   3.059   4.970 -0.0727 -0.2138  0.0177
   40COC    COC   40   0.975   3.288   4.821 -0.5130 -0.3067 -0.3508
   41COC    COC   41   1.077   3.534   4.900 -0.0810  0.1437 -0.1465
   42COC    COC   42   1.235   3.478   5.147 -0.1168 -0.1243  0.3533
   43COC    COC   43   1.016   3.457   5.348 -0.1829 -0.1013  0.3340
   44COC    COC   44   0.795   3.678   5.288  0.0235 -0.0010 -0.0269
   45COC    COC   45   0.711   3.784   5.036 -0.2272  0.0528 -0.4288
   46COH    COH   46   0.734   3.714   4.804  0.3114  0.0994  0.0624
   47COH    COH   47   1.743   7.290   1.731 -0.0205  0.3452  0.1324
   48COC    COC   48   1.584   7.194   1.530  0.1328  0.0455  0.0582
   49COC    COC   49   1.456   7.408   1.330 -0.2258 -0.0099 -0.1124
   50COC    COC   50   1.527   7.381   1.045 -0.0996 -0.0233  0.6671
   51COC    COC   51   1.290   7.341   0.851 -0.0187  0.2507  0.3538
   52COC    COC   52   1.156   7.611   0.762 -0.1748 -0.0570  0.0003
   53COC    COC   53   0.885   7.600   0.679  0.0658  0.0092 -0.2593
   54COC    COC   54   0.762   7.825   0.716  0.1415  0.1055  0.3151
   55COC    COC   55   0.717   8.083   0.585  0.0144 -0.1858 -0.0007
   56COC    COC   56   0.762   8.397   0.691  0.1643  0.0891  0.1269
   57COC    COC   57   0.869   8.353   0.971  0.0929  0.2043 -0.0385
   58COC    COC   58   0.952   8.466   1.273  0.3748  0.3639 -0.1047
   59COC    COC   59   0.860   8.776   1.331  0.0302  0.2532  0.0170
   60COC    COC   60   0.955   8.818   1.597 -0.4320  0.1618  0.5282
   61COC    COC   61   0.778   8.709   1.786  0.5305  0.2212 -0.1085
   62COC    COC   62   0.544   8.561   1.657  0.1600 -0.1754 -0.4159
   63COC    COC   63   0.330   8.645   1.442 -0.3742  0.1042  0.0419
   64COC    COC   64   0.490   8.558   1.172  0.2913 -0.0949 -0.2471
   65COC    COC   65   0.398   8.524   0.909  0.4441  0.1459  0.2780
   66COC    COC   66   0.524   8.776   0.816  0.2548  0.0091  0.1032
   67COC    COC   67   0.811   8.797   0.893 -0.1927 -0.0795 -0.1435
   68COC    COC   68   1.017   8.755   0.663 -0.3429  0.1567 -0.7447
   69COC    COC   69   1.265   8.561   0.715  0.3148  0.1680 -0.0843
   70COC    COC   70   1.448   8.696   0.881 -0.2134  0.2885  0.0579
   71COC    COC   71   1.266   8.786   1.139 -0.0575  0.1762 -0.1867
   72COC    COC   72   1.342   8.760   1.416 -0.0362  0.1136 -0.0165
   73COC    COC   73   1.468   8.595   1.663  0.0997 -0.2283 -0.0499
   74COC    COC   74   1.366   8.301   1.643 -0.0285 -0.2472 -0.2834
   75COC    COC   75   1.260   8.025   1.795  0.1861 -0.3926  0.2722
   76COC    COC   76   1.107   8.084   2.044  0.0928  0.2962  0.0033
   77COC    COC   77   0.888   8.028   2.285  0.1470 -0.0809  0.1377
   78COC    COC   78   0.887   7.846   2.538  0.0944  0.2080 -0.1740
   79COC    COC   79   1.090   7.919   2.793  0.0085  0.2076  0.4055
   80COC    COC   80   1.197   7.720   2.964 -0.1566 -0.1660 -0.2217
   81COC    COC   81   1.115   7.478   2.808 -0.0679 -0.0208 -0.5314
   82COC    COC   82   1.022   7.188   2.855 -0.2081 -0.2907 -0.1116
   83COC    COC   83   1.297   7.095   2.935 -0.2567 -0.1787 -0.1876
   84COC    COC   84   1.504   6.963   2.750 -0.3393  0.1459  0.2342
   85COC    COC   85   1.476   6.720   2.563  0.1661 -0.0201 -0.4922
   86COC    COC   86   1.441   6.463   2.598  0.1763 -0.3377 -0.1971
   87COC    COC   87   1.728   6.388   2.737  0.0178 -0.1098  0.0928
   88COC    COC   88   1.684   6.049   2.682  0.2007  0.3805  0.0364
   89COC    COC   89   1.783   5.819   2.525 -0.6065  0.0501 -0.0048
   90COC    COC   90   1.626   5.699   2.292  0.0922  0.4228 -0.0598
   91COC    COC   91   1.583   5.853   2.063 -0.2779  0.3837 -0.2000
   92COH    COH   92   1.399   5.947   1.896  0.0010 -0.4046 -0.5097
   93COH    COH   93   2.115   6.532   1.798 -0.4481  0.1151 -0.1143
   94COC    COC   94   2.377   6.656   1.869 -0.1812  0.0613 -0.1035
   95COC    COC   95   2.361   6.737   2.182  0.1258  0.0841 -0.0029
   96COC    COC   96   2.546   6.614   2.356 -0.2232  0.5055  0.0213
   97COC    COC   97   2.758   6.770   2.526  0.3436 -0.1030  0.2469
   98COC    COC   98   2.909   6.599   2.709 -0.2497  0.2641  0.2855
   99COC    COC   99   3.061   6.760   2.918  0.0080  0.1836 -0.1961
  100COC    COC  100   3.179   7.024   3.000 -0.0094 -0.0701  0.0340
  101COC    COC  101   3.315   7.191   2.862  0.0604 -0.3668 -0.2473
  102COC    COC  102   3.338   7.538   2.862  0.0683  0.2137 -0.0832
  103COC    COC  103   3.559   7.717   2.769  0.0185  0.1696  0.2271
  104COC    COC  104   3.836   7.855   2.839 -0.3461 -0.1109  0.0209
  105COC    COC  105   3.980   8.117   2.853  0.1655 -0.0074  0.3305
  106COC    COC  106   3.873   8.390   2.753  0.0614 -0.4961  0.0116
  107COC    COC  107   3.748   8.549   2.934  0.1912 -0.2242  0.2798
  108COC    COC  108   3.505   8.683   2.784 -0.1734  0.2943  0.1443
  109COC    COC  109   3.486   8.973   2.632  0.1686 -0.3411 -0.1668
  110COC    COC  110   3.371   9.254   2.605 -0.1060 -0.2798 -0.0707
  111COC    COC  111   3.395   9.444   2.351 -0.1304  0.0503 -0.3613
  112COC    COC  112   3.497   9.713   2.335 -0.0903  0.2095  0.2959
  113COC    COC  113   3.456   9.990   2.477  0.0671  0.3133  0.1240
  114COC    COC  114   3.180   9.999   2.522  0.2233 -0.3245  0.2505
  115COC    COC  115   3.123  10.155   2.274  0.0306 -0.1274 -0.2632
  116COC    COC  116   3.353  10.293   2.112 -0.1758  0.2460 -0.4345
  117COC    COC  117   3.541   0.048   2.349  0.2011 -0.1514  0.3898
  118COC    COC  118   3.525   0.364   2.459  0.3409  0.5077  0.0710
  119COC    COC  119   3.302   0.569   2.306  0.5157  0.1950 -0.3668
  120COC    COC  120   3.302   0.858   2.439 -0.4714 -0.0753 -0.1686
  121COC    COC  121   3.389   1.002   2.155 -0.0177  0.0172 -0.3050
  122COC    COC  122   3.378   1.281   2.229  0.0380 -0.1408  0.3666
  123COC    COC  123   3.267   1.509   2.383  0.0867 -0.1918 -0.1825
  124COC    COC  124   3.018   1.434   2.519  0.2967  0.2105  0.0566
  125COC    COC  125   3.098   1.620   2.765 -0.1564  0.1447 -0.0316
  126COC    COC  126   3.166   1.485   3.023  0.0735 -0.1317 -0.0996
  127COC    COC  127   3.341   1.620   3.238  0.3741  0.1975 -0.0746
  128COC    COC  128   3.474   1.818   3.381 -0.3026  0.2663 -0.1855
  129COC    COC  129   3.408   2.072   3.461  0.8186  0.1632 -0.0378
  130COC    COC  130   3.427   2.362   3.386  0.3465  0.0415  0.1774
  131COC    COC  131   3.684   2.258   3.196 -0.2189 -0.2192 -0.6048
  132COC    COC  132   3.924   2.108   3.356 -0.1404 -0.1955 -0.0264
  133COC    COC  133   3.899   1.820   3.349  0.2695  0.2310 -0.1151
  134COC    COC  134   3.989   1.550   3.317 -0.1895 -0.1742  0.0921
  135COC    COC  135   4.136   1.426   3.608 -0.0626  0.2890 -0.0006
  136COC    COC  136   4.423   1.438   3.698 -0.0669 -0.0454  0.5701
  137COC    COC  137   4.542   1.582   3.927  0.3555 -0.1068 -0.0312
  138COH    COH  138   4.583   1.818   4.049 -0.3727 -0.2244 -0.2893
  139COH    COH  139   0.900   3.604   6.971  0.2561  0.1326  0.1653
  140COC    COC  140   0.929   3.808   7.128 -0.0843  0.0663 -0.3756
  141COC    COC  141   0.676   3.890   7.326 -0.1770 -0.0399  0.3437
  142COC    COC  142   0.480   3.700   7.405 -0.0463 -0.1231  0.0674
  143COC    COC  143   0.188   3.523   7.411 -0.7768 -0.5011  0.1814
  144COC    COC  144   0.004   3.613   7.187 -0.2419  0.2883 -0.1509
  145COC    COC  145  10.299   3.913   7.211 -0.2795  0.1199 -0.0546
  146COC    COC  146  10.262   4.150   7.011  0.2339  0.1616  0.4640
  147COC    COC  147  10.195   4.345   7.220 -0.0386  0.2550  0.2342
  148COC    COC  148  10.091   4.201   7.481  0.1345 -0.1221  0.0810
  149COC    COC  149  10.054   3.880   7.594 -0.1125  0.0160  0.0722
  150COC    COC  150   9.870   3.667   7.404 -0.2570 -0.0988 -0.1190
  151COC    COC  151   9.931   3.383   7.362 -0.3229 -0.0176  0.4480
  152COC    COC  152   9.671   3.293   7.542 -0.1611  0.0624  0.3567
  153COC    COC  153   9.635   3.037   7.389 -0.0975 -0.0310 -0.3454
  154COC    COC  154   9.655   2.770   7.542 -0.1318 -0.0444  0.2211
  155COC    COC  155   9.436   2.798   7.732 -0.2791  0.3185  0.0226
  156COC    COC  156   9.558   2.701   7.980  0.1557  0.1941  0.1847
  157COC    COC  157   9.620   2.933   8.158 -0.0074  0.0000  0.1653
  158COC    COC  158   9.592   3.175   7.996 -0.5536 -0.2430 -0.2546
  159COC    COC  159   9.532   3.473   8.147 -0.1915  0.0381  0.0301
  160COC    COC  160   9.533   3.655   7.929  0.4445 -0.0810  0.1756
  161COC    COC  161   9.518   3.949   8.054 -0.2368  0.2486 -0.0204
  162COC    COC  162   9.406   4.246   8.024 -0.4251 -0.0805 -0.2975
  163COC    COC  163   9.406   4.509   8.234 -0.2209  0.0923  0.1251
  164COC    COC  164   9.175   4.678   8.120 -0.1201  0.2905 -0.0311
  165COC    COC  165   8.994   4.654   8.332  0.1349 -0.2265  0.0377
  166COC    COC  166   9.090   4.517   8.577 -0.1365  0.3860 -0.0375
  167COC    COC  167   8.931   4.427   8.832 -0.3442 -0.2657  0.0743
  168COC    COC  168   9.012   4.354   9.134  0.1128 -0.3514 -0.3225
  169COC    COC  169   9.228   4.141   9.113  0.4390 -0.1474  0.3900
  170COC    COC  170   9.082   3.887   9.246  0.1922  0.1964 -0.2248
  171COC    COC  171   8.816   3.962   9.322  0.4494  0.0071  0.1845
  172COC    COC  172   8.647   4.189   9.285  0.1504  0.5961  0.0262
  173COC    COC  173   8.559   4.384   9.061  0.5030 -0.1264  0.2156
  174COC    COC  174   8.465   4.223   8.813 -0.4320 -0.1796  0.1050
  175COC    COC  175   8.173   4.100   8.763  0.0516  0.0529 -0.0986
  176COC    COC  176   7.908   4.084   8.925 -0.2353  0.2070  0.2062
  177COC    COC  177   7.708   4.282   8.820 -0.3094  0.0955  0.2471
  178COC    COC  178   7.686   4.512   8.682 -0.1705  0.1195  0.3845
  179COC    COC  179   7.497   4.756   8.626 -0.0276  0.2690  0.1732
  180COC    COC  180   7.547   4.806   8.300  0.0391 -0.2524 -0.3876
  181COC    COC  181   7.375   5.015   8.158 -0.0333  0.1261 -0.2875
  182COC    COC  182   7.460   5.280   8.058  0.1517  0.1009 -0.5370
  183COC    COC  183   7.303   5.505   8.177  0.4456  0.0478 -0.0087
  184COH    COH  184   7.279   5.723   8.014 -0.4503 -0.3356 -0.0187
  185COH    COH  185   4.697   7.005   0.777  0.2467  0.4440 -0.2861
  186COC    COC  186   4.465   6.861   0.862  0.0961  0.3711 -0.0299
  187COC    COC  187   4.195   6.977   0.887  0.0716  0.1266  0.1257
  188COC    COC  188   3.884   6.983   0.773 -0.5233  0.2233 -0.0098
  189COC    COC  189   3.915   6.740   0.567  0.4647  0.0986  0.1602
  190COC    COC  190   3.783   6.621   0.335  0.1188 -0.1240  0.1510
  191COC    COC  191   3.533   6.498   0.345 -0.1165 -0.2165 -0.2373
  192COC    COC  192   3.314   6.536   0.549 -0.0329  0.1145 -0.0589
  193COC    COC  193   3.411   6.498   0.808  0.3560  0.0265  0.1361
  194COC    COC  194   3.656   6.630   0.862 -0.0182  0.6650 -0.2747
  195COC    COC  195   3.555   6.917   0.972 -0.1299 -0.3870 -0.0598
  196COC    COC  196   3.347   6.943   1.206  0.1693  0.2228  0.2406
  197COC    COC  197   3.425   6.792   1.461  0.2696 -0.5022 -0.2054
  198COC    COC  198   3.239   6.699   1.653 -0.0481  0.4295  0.2006
  199COC    COC  199   2.992   6.854   1.696  0.1832  0.0853  0.2286
  200COC    COC  200   2.746   6.815   1.537  0.4929 -0.3577  0.5075
  201COC    COC  201   2.796   7.080   1.308 -0.2657  0.3239 -0.1014
  202COC    COC  202   2.603   7.268   1.178 -0.3045 -0.2797 -0.1126
  203COC    COC  203   2.691   7.276   0.913 -0.2114  0.1356  0.2559
  204COC    COC  204   2.597   7.121   0.659 -0.1847 -0.3775  0.0383
  205COC    COC  205   2.305   7.048   0.744  0.1088  0.0521 -0.3843
  206COC    COC  206   2.092   7.227   0.547 -0.0792 -0.0471 -0.3019
  207COC    COC  207   1.918   7.328   0.756  0.3419 -0.2747  0.2397
  208COC    COC  208   2.084   7.411   1.034  0.6890  0.3170 -0.1237
  209COC    COC  209   2.205   7.182   1.250  0.1313 -0.0367  0.2315
  210COC    COC  210   2.386   6.973   1.361 -0.1649 -0.2179  0.0040
  211COC    COC  211   2.180   6.763   1.510 -0.3751  0.0243  0.4212
  212COC    COC  212   2.369   6.537   1.434 -0.2047  0.2220 -0.1287
  213COC    COC  213   2.262   6.279   1.566 -0.2176 -0.1227 -0.5828
  214COC    COC  214   2.383   6.004   1.624 -0.1474  0.1449 -0.2883
  215COC    COC  215   2.585   5.840   1.448  0.0671 -0.0260  0.0085
  216COC    COC  216   2.674   5.526   1.486  0.2114  0.0049  0.0543
  217COC    COC  217   2.547   5.293   1.621  0.1246  0.0890  0.1240
  218COC    COC  218   2.273   5.136   1.521 -0.3729 -0.2974  0.2390
  219COC    COC  219   2.114   5.192   1.272  0.1103 -0.2250 -0.0495
  220COC    COC  220   2.039   5.413   1.123 -0.0334 -0.3510  0.0167
  221COC    COC  221   1.835   5.640   1.217 -0.2079 -0.0143  0.3752
  222COC    COC  222   1.647   5.369   1.240 -0.2063 -0.1045 -0.4104
  223COC    COC  223   1.329   5.307   1.174 -0.0903  0.1484 -0.0010
  224COC    COC  224   1.066   5.481   1.089  0.2334  0.0962  0.1491
  225COC    COC  225   0.990   5.753   0.958 -0.0105 -0.0700 -0.5145
  226COC    COC  226   0.712   5.906   0.862  0.2458  0.1726 -0.3567
  227COC    COC  227   0.494   5.783   0.705 -0.1563 -0.5125  0.0735
  228COC    COC  228   0.279   5.959   0.568  0.2630 -0.1518  0.0504
  229COC    COC  229  10.304   6.038   0.515 -0.3173 -0.4771  0.0724
  230COH    COH  230  10.318   6.016   0.801 -0.7656  0.5916  0.1978
  231COH    COH  231   8.277   9.252   2.711 -0.7294  0.1079 -0.1697
  232COC    COC  232   8.043   9.258   2.675  0.3829  0.0967 -0.1213
  233COC    COC  233   7.862   9.158   2.919 -0.2321 -0.4591  0.1345
  234COC    COC  234   7.717   9.332   3.113 -0.0437  0.2309 -0.0144
  235COC    COC  235   7.770   9.668   3.159  0.0964  0.0565 -0.0297
  236COC    COC  236   7.962   9.753   3.414 -0.0529 -0.2637  0.1965
  237COC    COC  237   7.866   9.881   3.674  0.2667  0.0704 -0.2232
  238COC    COC  238   7.912   9.715   3.926 -0.1458  0.2634 -0.0691
  239COC    COC  239   8.187   9.493   3.919  0.1204  0.0860  0.1341
  240COC    COC  240   8.259   9.270   4.064  0.0167  0.2395  0.2665
  241COC    COC  241   8.135   9.126   4.293 -0.3724  0.0928  0.0426
  242COC    COC  242   7.911   8.952   4.397  0.1047  0.1361 -0.0167
  243COC    COC  243   7.733   8.944   4.631 -0.2260 -0.2232  0.0375
  244COC    COC  244   7.542   8.726   4.764 -0.1261  0.2380 -0.0434
  245COC    COC  245   7.400   8.475   4.757  0.2772 -0.0134 -0.0387
  246COC    COC  246   7.487   8.231   4.603 -0.1015  0.1368 -0.1029
  247COC    COC  247   7.766   8.125   4.482 -0.1081 -0.2860 -0.4096
  248COC    COC  248   8.017   8.124   4.617  0.2012 -0.1191  0.1668
  249COC    COC  249   8.267   8.195   4.503 -0.3353 -0.0249 -0.5902
  250COC    COC  250   8.283   8.302   4.223 -0.0458 -0.1376 -0.2361
  251COC    COC  251   8.187   8.063   4.121 -0.0455 -0.2315  0.4753
  252COC    COC  252   7.904   8.213   4.103 -0.4688  0.1117 -0.4273
  253COC    COC  253   7.925   8.295   3.824 -0.1896  0.1468 -0.0699
  254COC    COC  254   8.234   8.264   3.742 -0.0819  0.2164 -0.2367
  255COC    COC  255   8.337   8.506   3.595 -0.2643 -0.0483  0.2928
  256COC    COC  256   8.536   8.604   3.797 -0.1101  0.0215 -0.0353
  257COC    COC  257   8.799   8.762   3.747 -0.0355  0.1790 -0.4345
  258COC    COC  258   9.036   8.608   3.857  0.2112 -0.7121 -0.0237
  259COC    COC  259   8.981   8.459   4.103  0.4434  0.3677 -0.0237
  260COC    COC  260   8.838   8.240   4.178 -0.1950  0.0396 -0.2307
  261COC    COC  261   8.681   8.325   4.410 -0.2062 -0.1112  0.2083
  262COC    COC  262   8.817   8.436   4.677 -0.1884 -0.1062  0.1304
  263COC    COC  263   9.115   8.335   4.720  0.0124  0.3365  0.2032
  264COC    COC  264   9.158   8.160   4.482  0.0484 -0.1872  0.4911
  265COC    COC  265   9.029   7.907   4.421  0.3524 -0.3464  0.2522
  266COC    COC  266   9.193   7.701   4.323 -0.2127  0.3392  0.0855
  267COC    COC  267   9.404   7.708   4.116  0.1513 -0.0225 -0.0763
  268COC    COC  268   9.539   7.507   3.976  0.0205  0.1055 -0.0891
  269COC    COC  269   9.624   7.566   3.668  0.3786  0.2848  0.0812
  270COC    COC  270   9.665   7.880   3.667  0.1194  0.2366 -0.2091
  271COC    COC  271   9.528   8.144   3.614 -0.0026  0.2604  0.1390
  272COC    COC  272   9.288   8.088   3.529  0.4373 -0.0265  0.6014
  273COC    COC  273   9.252   7.863   3.324  0.1735  0.3296  0.0385
  274COC    COC  274   9.049   7.935   3.113  0.0601 -0.1460  0.1982
  275COC    COC  275   8.942   8.026   2.861  0.0033 -0.0502  0.1385
  276COH    COH  276   8.887   7.869   2.662  0.3063  0.1092 -0.2596
  277COH    COH  277   6.150   0.594   9.435  0.5373 -0.1389 -0.3370
  278COC    COC  278   6.372   0.525   9.486  0.1660 -0.3490 -0.5456
  279COC    COC  279   6.398   0.700   9.759  0.0848 -0.1310  0.2953
  280COC    COC  280   6.147   0.864   9.805 -0.1168  0.0641  0.0970
  281COC    COC  281   6.158   1.178   9.757 -0.1920  0.4620  0.6597
  282COC    COC  282   6.168   1.434   9.616  0.2367 -0.1596  0.1936
  283COC    COC  283   5.897   1.614   9.590 -0.2356  0.0573 -0.5153
  284COC    COC  284   5.726   1.667   9.874  0.2481  0.0864 -0.1119
  285COC    COC  285   5.827   1.938   9.931  0.1738 -0.1235  0.1588
  286COC    COC  286   6.108   1.964   9.839 -0.1312 -0.0161  0.3020
  287COC    COC  287   6.373   1.835   9.777  0.0754  0.1640  0.4846
  288COC    COC  288   6.545   1.609   9.860  0.1432  0.2867  0.1557
  289COC    COC  289   6.792   1.459   9.983  0.1922  0.1631  0.0840
  290COC    COC  290   6.959   1.591  10.236  0.1255  0.1507 -0.4342
  291COC    COC  291   7.047   1.879  10.141  0.0469 -0.4417 -0.5738
  292COC    COC  292   7.184   2.125   0.013  0.0970  0.1602  0.0766
  293COC    COC  293   7.114   2.373   0.180 -0.6386 -0.1599 -0.0203
  294COC    COC  294   6.900   2.565   0.265 -0.1990 -0.3553  0.0478
  295COC    COC  295   6.661   2.385   0.359  0.1291 -0.0417  0.0249
  296COC    COC  296   6.373   2.296   0.338  0.0938 -0.1118 -0.0568
  297COC    COC  297   6.321   2.416   0.063  0.6868 -0.6853  0.3949
  298COC    COC  298   6.104   2.643   0.156 -0.0346  0.1617  0.0223
  299COC    COC  299   5.812   2.698   0.033  0.1183  0.1811  0.5842
  300COC    COC  300   5.557   2.733   0.238  0.3700 -0.0025  0.1249
  301COC    COC  301   5.473   3.015   0.371 -0.4043  0.0117 -0.0390
  302COC    COC  302   5.153   3.035   0.401  0.0260 -0.2569  0.1645
  303COC    COC  303   4.987   3.154   0.181  0.5625  0.4583  0.1152
  304COC    COC  304   4.704   3.249   0.281  0.3269 -0.3446 -0.3893
  305COC    COC  305   4.422   3.264   0.143 -0.0587  0.2073 -0.8467
  306COC    COC  306   4.402   3.345  10.203  0.3418  0.1343  0.1115
  307COC    COC  307   4.554   3.437   9.921  0.1413 -0.2225  0.0755
  308COC    COC  308   4.830   3.540   9.805 -0.2537  0.2153 -0.0609
  309COC    COC  309   5.071   3.623   9.937  0.2307 -0.1645 -0.0796
  310COC    COC  310   5.291   3.462  10.037  0.2622  0.1268  0.0156
  311COC    COC  311   5.508   3.657  10.063  0.3325  0.0376  0.1610
  312COC    COC  312   5.737   3.689  10.232  0.0367  0.1477 -0.2508
  313COC    COC  313   5.715   3.392   0.040 -0.1856  0.2865  0.0665
  314COC    COC  314   5.876   3.216  10.244 -0.0554  0.1699  0.5380
  315COC    COC  315   6.064   3.326  10.053  0.3755 -0.5273 -0.0735
  316COC    COC  316   6.142   3.231   9.799 -0.0099 -0.2194 -0.2425
  317COC    COC  317   6.095   3.377   9.552  0.1327  0.1961 -0.1064
  318COC    COC  318   6.015   3.230   9.288 -0.2215  0.3375  0.2146
  319COC    COC  319   5.847   2.975   9.431 -0.1514 -0.0304  0.0535
  320COC    COC  320   5.854   2.688   9.440 -0.4554 -0.1837 -0.1924
  321COC    COC  321   5.971   2.404   9.308  0.0180 -0.1037 -0.3373
  322COH    COH  322   5.906   2.228   9.478  0.4012 -0.0900  0.4112
  323COH    COH  323   9.641   6.737   0.305 -0.0838 -0.1783 -0.0867
  324COC    COC  324   9.633   7.009   0.296  0.2925 -0.1924  0.0943
  325COC    COC  325   9.871   7.165   0.447  0.2002 -0.1286  0.2669
  326COC    COC  326   9.825   7.253   0.729  0.0740  0.1515  0.4028
  327COC    COC  327  10.115   7.406   0.841  0.3368  0.1401 -0.2480
  328COC    COC  328   0.056   7.496   0.834  0.0514 -0.1156 -0.2987
  329COC    COC  329   0.066   7.768   0.777 -0.6616 -0.2273 -0.1316
  330COC    COC  330  10.168   7.899   0.662  0.0487 -0.1210 -0.1972
  331COC    COC  331  10.144   8.179   0.518 -0.0379  0.0670  0.1359
  332COC    COC  332  10.050   8.088   0.258 -0.3149  0.6028 -0.1043
  333COC    COC  333   9.776   7.938   0.274 -0.0997  0.1450  0.3478
  334COC    COC  334   9.488   7.903   0.299  0.1510 -0.0806 -0.1216
  335COC    COC  335   9.347   7.925   0.539 -0.0571 -0.2744 -0.2004
  336COC    COC  336   9.037   8.044   0.553  0.0555  0.1087  0.2518
  337COC    COC  337   8.830   7.956   0.363 -0.2760 -0.0143 -0.1996
  338COC    COC  338   8.884   8.012   0.048  0.3187 -0.2206 -0.0160
  339COC    COC  339   8.867   7.862  10.134  0.5025  0.3559 -0.3618
  340COC    COC  340   8.714   7.605   9.991  0.2130  0.1011  0.0072
  341COC    COC  341   8.586   7.380   9.781 -0.1085 -0.2396  0.3302
  342COC    COC  342   8.358   7.258   9.895  0.8234 -0.2746 -0.3912
  343COC    COC  343   8.356   7.358  10.188 -0.1025 -0.1820 -0.0073
  344COC    COC  344   8.477   7.144   0.026 -0.0905 -0.1859  0.1739
  345COC    COC  345   8.740   7.122   0.223  0.1129 -0.1167  0.2362
  346COC    COC  346   8.641   7.270   0.447  0.2010  0.0911  0.0000
  347COC    COC  347   8.339   7.363   0.401  0.1392 -0.0250  0.1035
  348COC    COC  348   8.135   7.179   0.269  0.1030 -0.1622 -0.1368
  349COC    COC  349   7.882   7.290   0.240 -0.4871  0.0756 -0.2193
  350COC    COC  350   7.774   7.348  10.262 -0.3062 -0.0848 -0.2763
  351COC    COC  351   7.872   7.475  10.026  0.2772 -0.5583  0.0969
  352COC    COC  352   7.827   7.786  10.118  0.3585 -0.2403  0.0253
  353COC    COC  353   7.938   8.012   9.974  0.2461  0.0510 -0.2733
  354COC    COC  354   7.864   8.125   9.676 -0.1834 -0.4086 -0.0414
  355COC    COC  355   7.663   8.289   9.525  0.0788  0.4151 -0.0793
  356COC    COC  356   7.469   8.547   9.645 -0.0642 -0.5377  0.1562
  357COC    COC  357   7.213   8.647   9.606  0.0347 -0.0110 -0.3016
  358COC    COC  358   7.048   8.679   9.353  0.2467 -0.4983 -0.0664
  359COC    COC  359   7.120   8.416   9.205  0.0919 -0.1620  0.1781
  360COC    COC  360   7.220   8.459   8.951  0.3132  0.2262 -0.2317
  361COC    COC  361   7.167   8.747   8.919  0.0174  0.3840  0.2112
  362COC    COC  362   6.946   8.937   8.877  0.0800  0.0627  0.0956
  363COC    COC  363   6.766   8.966   8.619  0.2841  0.0533 -0.0591
  364COC    COC  364   6.807   9.148   8.354  0.0635 -0.0286 -0.4440
  365COC    COC  365   7.098   9.217   8.241  0.1244  0.3721 -0.3764
  366COC    COC  366   7.266   9.454   8.338  0.4904  0.2150  0.0391
  367COC    COC  367   7.520   9.407   8.213 -0.0205 -0.1764 -0.0975
  368COH    COH  368   7.592   9.272   7.994 -0.0750 -0.0821 -0.4521
  369COH    COH  369   2.206   1.621   7.663 -0.2115  0.2356 -0.0094
  370COC    COC  370   2.284   1.376   7.668 -0.1021  0.0147  0.1545
  371COC    COC  371   2.186   1.302   7.942 -0.1990 -0.0692 -0.0364
  372COC    COC  372   2.084   1.530   8.060 -0.3768 -0.1447 -0.0615
  373COC    COC  373   1.917   1.749   7.913 -0.2082 -0.0573 -0.2129
  374COC    COC  374   1.623   1.613   7.813  0.0067 -0.0624 -0.7080
  375COC    COC  375   1.522   1.792   7.621  0.1238  0.0192 -0.1231
  376COC    COC  376   1.703   2.033   7.561 -0.1452  0.2988  0.2023
  377COC    COC  377   1.872   2.160   7.335  0.1828 -0.3643 -0.2977
  378COC    COC  378   1.751   2.410   7.159  0.0316 -0.1057 -0.3725
  379COC    COC  379   1.750   2.645   6.984  0.2843 -0.5172 -0.2805
  380COC    COC  380   1.556   2.613   6.766 -0.0537 -0.1737 -0.0170
  381COC    COC  381   1.371   2.389   6.725  0.2051  0.2824 -0.0839
  382COC    COC  382   1.125   2.319   6.866 -0.0490 -0.1266  0.0822
  383COC    COC  383   0.924   2.106   6.848  0.2676  0.0806  0.2001
  384COC    COC  384   0.919   1.790   6.913 -0.0501 -0.1192  0.4217
  385COC    COC  385   0.979   1.829   7.199 -0.3226  0.0159  0.2288
  386COC    COC  386   1.137   1.662   7.391 -0.4296  0.4873  0.2131
  387COC    COC  387   1.398   1.520   7.299 -0.2879  0.0271 -0.1443
  388COC    COC  388   1.540   1.724   7.100 -0.1330 -0.0242  0.3773
  389COC    COC  389   1.664   1.462   6.939 -0.1540  0.0494  0.1198
  390COC    COC  390   1.590   1.124   6.966  0.1266 -0.0136  0.0995
  391COC    COC  391   1.835   0.919   6.992  0.1209 -0.2637  0.0986
  392COC    COC  392   2.050   1.168   6.981  0.1946  0.0118  0.3972
  393COC    COC  393   2.156   1.232   7.232  0.1069  0.1121 -0.2011
  394COC    COC  394   2.450   1.231   7.179 -0.1524 -0.0260  0.0350
  395COC    COC  395   2.544   0.986   7.363  0.0887  0.3744 -0.3945
  396COC    COC  396   2.661   1.066   7.653  0.0211  0.0020  0.2214
  397COC    COC  397   2.859   1.011   7.847  0.0799  0.2185  0.0356
  398COC    COC  398   2.796   0.830   8.083  0.1454  0.2707 -0.0680
  399COC    COC  399   2.559   0.735   7.957  0.0778  0.4461  0.1424
  400COC    COC  400   2.303   0.917   7.888 -0.0054  0.2279  0.0588
  401COC    COC  401   2.149   0.845   7.664  0.3626 -0.1877 -0.1887
  402COC    COC  402   1.875   1.001   7.533 -0.4164  0.3696  0.1539
  403COC    COC  403   1.732   1.238   7.397 -0.1278 -0.1439 -0.0777
  404COC    COC  404   1.458   1.122   7.464  0.1830 -0.1045 -0.0505
  405COC    COC  405   1.507   1.152   7.765  0.1288 -0.1616 -0.2989
  406COC    COC  406   1.378   1.025   8.006  0.5045 -0.1170  0.2577
  407COC    COC  407   1.053   1.025   7.899 -0.0207  0.3230 -0.3206
  408COC    COC  408   1.053   1.006   7.631  0.0060  0.1882  0.0240
  409COC    COC  409   1.000   0.911   7.343 -0.0086  0.1322 -0.0502
  410COC    COC  410   1.189   1.018   7.139 -0.0186 -0.0997  0.4601
  411COC    COC  411   0.934   1.020   6.934 -0.2083  0.4460 -0.3876
  412COC    COC  412   0.679   0.929   7.033 -0.1774 -0.3238 -0.1860
  413COC    COC  413   0.666   0.663   7.180 -0.3388  0.1195  0.1296
  414COH    COH  414   0.519   0.512   7.037 -0.2131 -0.2175  0.2195
  415COH    COH  415   1.380   1.857   9.218  0.0468  0.2087 -0.0553
  416COC    COC  416   1.186   2.009   9.321 -0.1177 -0.0338 -0.0988
  417COC    COC  417   0.989   2.205   9.225  0.0133 -0.1856  0.0854
  418COC    COC  418   0.753   2.105   9.057 -0.1370 -0.1947  0.0299
  419COC    COC  419   0.765   1.901   8.826 -0.0103  0.0484 -0.2392
  420COC    COC  420   1.052   1.926   8.670  0.1287  0.2579  0.2108
  421COC    COC  421   1.333   2.014   8.510 -0.2149  0.0758  0.3961
  422COC    COC  422   1.490   2.280   8.525  0.4399 -0.1932  0.0423
  423COC    COC  423   1.711   2.330   8.300  0.0344  0.0320  0.0695
  424COC    COC  424   1.665   2.503   8.059  0.0709 -0.2792  0.4400
  425COC    COC  425   1.391   2.622   7.947  0.1062 -0.0221  0.0449
  426COC    COC  426   1.331   2.762   7.668  0.2480 -0.0459  0.2092
  427COC    COC  427   1.107   2.911   7.532 -0.1331  0.1246  0.1940
  428COC    COC  428   0.960   3.073   7.701  0.5334 -0.2152  0.5640
  429COC    COC  429   0.624   3.072   7.668 -0.1659 -0.4187 -0.5148
  430COC    COC  430   0.629   3.103   7.366  0.1671  0.0162 -0.1021
  431COC    COC  431   0.781   2.823   7.286  0.3977  0.2070 -0.1688
  432COC    COC  432   0.565   2.571   7.331  0.2407  0.6729 -0.1492
  433COC    COC  433   0.438   2.409   7.086  0.0709 -0.0370  0.2802
  434COC    COC  434   0.171   2.495   7.129 -0.2428  0.0466 -0.2996
  435COC    COC  435   0.049   2.761   7.107  0.0163  0.1336  0.0141
  436COC    COC  436  10.199   2.864   6.865 -0.1997 -0.1369  0.0164
  437COC    COC  437  10.192   3.175   6.915 -0.3576 -0.0400 -0.1175
  438COC    COC  438   0.081   3.364   6.794 -0.2624 -0.0413 -0.4354
  439COC    COC  439   0.045   3.321   6.507 -0.0753  0.0400  0.0206
  440COC    COC  440   0.032   3.021   6.420  0.1967 -0.0468 -0.2415
  441COC    COC  441   0.127   2.751   6.494 -0.2389  0.4930  0.0535
  442COC    COC  442   0.274   2.671   6.775 -0.1286 -0.0321 -0.2516
  443COC    COC  443   0.384   2.941   6.856  0.0683  0.0371 -0.2038
  444COC    COC  444   0.680   2.965   6.835  0.3320  0.2542 -0.2051
  445COC    COC  445   0.907   2.937   6.626  0.1645 -0.2381 -0.0389
  446COC    COC  446   1.164   2.812   6.722 -0.3951  0.0541 -0.3839
  447COC    COC  447   1.388   3.000   6.889  0.0794  0.2786  0.0432
  448COC    COC  448   1.496   3.170   7.114 -0.0072 -0.1248  0.2243
  449COC    COC  449   1.564   2.951   7.346 -0.1064  0.0554  0.1160
  450COC    COC  450   1.735   2.733   7.478 -0.1558  0.3728 -0.1574
  451COC    COC  451   1.613   2.419   7.587 -0.1485 -0.0400  0.0662
  452COC    COC  452   1.393   2.256   7.752  0.0360  0.2253 -0.1280
  453COC    COC  453   1.106   2.403   7.734 -0.1041  0.3450  0.5011
  454COC    COC  454   0.944   2.544   7.580  0.5474 -0.0749  0.1326
  455COC    COC  455   0.691   2.609   7.762  0.7010  0.0760  0.1246
  456COC    COC  456   0.495   2.538   7.981  0.0642 -0.2028 -0.2830
  457COC    COC  457   0.670   2.430   8.198 -0.1038  0.1066  0.0585
  458COC    COC  458   0.738   2.684   8.388 -0.0160  0.5670  0.1008
  459COC    COC  459   0.515   2.677   8.559 -0.0406  0.2386  0.1372
  460COH    COH  460   0.309   2.680   8.367  0.0942  0.0266  0.3332
  461COH    COH  461   2.953   2.697   7.582  0.0460  0.2356 -0.2150
  462COC    COC  462   2.735   2.806   7.703  0.1204  0.0343  0.3467
  463COC    COC  463   2.657   3.064   7.544  0.0068  0.2896 -0.0351
  464COC    COC  464   2.877   3.249   7.510 -0.1222  0.0073 -0.4049
  465COC    COC  465   3.016   3.485   7.426  0.1637 -0.3887 -0.0901
  466COC    COC  466   3.159   3.649   7.165 -0.0699  0.2420  0.0045
  467COC    COC  467   3.141   3.888   7.053  0.1154  0.1181 -0.3853
  468COC    COC  468   3.035   4.105   7.239 -0.1220  0.5174  0.0519
  469COC    COC  469   2.883   3.939   7.427 -0.3471  0.0124 -0.1647
  470COC    COC  470   2.623   3.833   7.421 -0.0817  0.3482  0.3405
  471COC    COC  471   2.510   3.933   7.125  0.1060 -0.2573  0.1900
  472COC    COC  472   2.692   3.878   6.892  0.1560 -0.2321  0.1505
  473COC    COC  473   2.671   3.655   6.676 -0.1456 -0.0303  0.0717
  474COC    COC  474   2.839   3.725   6.448  0.2421  0.1275 -0.0731
  475COC    COC  475   3.038   3.951   6.580  0.0703 -0.1484  0.0851
  476COC    COC  476   3.038   4.187   6.430  0.2229 -0.2852 -0.0533
  477COC    COC  477   3.305   4.200   6.353 -0.3972  0.2616 -0.1768
  478COC    COC  478   3.505   4.403   6.473 -0.0463  0.1669  0.1400
  479COC    COC  479   3.673   4.358   6.716  0.0403 -0.7069  0.1829
  480COC    COC  480   3.966   4.483   6.700 -0.3082 -0.1962 -0.1304
  481COC    COC  481   4.104   4.183   6.709 -0.0804  0.0464 -0.0464
  482COC    COC  482   4.327   4.141   6.485  0.0686  0.1154 -0.2069
  483COC    COC  483   4.548   4.093   6.331  0.1828 -0.0104  0.0198
  484COC    COC  484   4.613   3.832   6.236  0.2951  0.1479 -0.0613
  485COC    COC  485   4.736   3.778   5.973 -0.2706  0.2520 -0.1375
  486COC    COC  486   4.622   3.651   5.729 -0.0523 -0.0386 -0.0590
  487COC    COC  487   4.603   3.360   5.880  0.3557 -0.3679  0.3696
  488COC    COC  488   4.920   3.295   5.891  0.2835 -0.0531 -0.1242
  489COC    COC  489   4.988   3.448   5.623 -0.1588  0.0006  0.1379
  490COC    COC  490   5.302   3.442   5.635 -0.5798  0.2054  0.0620
  491COC    COC  491   5.404   3.623   5.428 -0.0122  0.2721 -0.2044
  492COC    COC  492   5.233   3.812   5.267 -0.0961 -0.1018 -0.3842
  493COC    COC  493   5.120   4.033   5.089  0.0672 -0.1653 -0.3422
  494COC    COC  494   5.175   3.938   4.799 -0.1581 -0.0943 -0.0106
  495COC    COC  495   5.254   3.981   4.502  0.2957 -0.3022 -0.1448
  496COC    COC  496   5.388   3.740   4.422 -0.3596  0.1169  0.0014
  497COC    COC  497   5.326   3.510   4.633 -0.2405 -0.1541 -0.0405
  498COC    COC  498   5.636   3.391   4.628  0.1343 -0.1463  0.0145
  499COC    COC  499   5.888   3.525   4.650 -0.1889  0.0675  0.0227
  500COC    COC  500   5.907   3.811   4.748 -0.1172  0.2547  0.0496
  501COC    COC  501   5.851   4.098   4.823 -0.1850  0.6893  0.1346
  502COC    COC  502   5.586   4.171   4.650  0.0928 -0.3796 -0.3759
  503COC    COC  503   5.431   4.375   4.829  0.2511 -0.1670 -0.0676
  504COC    COC  504   5.614   4.559   4.948  0.2747 -0.1425 -0.2023
  505COC    COC  505   5.524   4.810   5.066  0.2064 -0.0263  0.0002
  506COH    COH  506   5.617   4.911   5.314 -0.3998  0.2255 -0.1313
  507COH    COH  507   6.409   0.586   8.270 -0.3561 -0.2267  0.4065
  508COC    COC  508   6.618   0.430   8.297  0.1220 -0.0055  0.7815
  509COC    COC  509   6.834   0.381   8.105 -0.1915 -0.2557 -0.4269
  510COC    COC  510   6.890   0.103   8.013 -0.2000 -0.0945  0.3465
  511COC    COC  511   6.928  10.209   8.215 -0.3565 -0.6037 -0.1518
  512COC    COC  512   6.899   9.932   8.094  0.0657  0.1569  0.1237
  513COC    COC  513   7.163   9.764   7.995  0.3490 -0.0187  0.0455
  514COC    COC  514   7.060   9.664   7.730  0.3759  0.1424 -0.1424
  515COC    COC  515   7.040   9.357   7.656 -0.0201 -0.4131 -0.2175
  516COC    COC  516   7.153   9.155   7.839  0.2022 -0.0505  0.0798
  517COC    COC  517   7.018   8.885   7.875  0.0144 -0.3130 -0.2335
  518COC    COC  518   6.771   8.741   8.020  0.0070 -0.3535 -0.2170
  519COC    COC  519   6.483   8.686   8.109  0.0798 -0.1660  0.1360
  520COC    COC  520   6.304   8.830   7.965  0.0763  0.0157  0.2599
  521COC    COC  521   6.087   8.786   7.740 -0.0410 -0.2332  0.1456
  522COC    COC  522   6.125   8.932   7.498  0.3543  0.0344  0.3835
  523COC    COC  523   6.098   8.704   7.292 -0.2850  0.2976  0.0415
  524COC    COC  524   6.380   8.616   7.270 -0.0581  0.3272 -0.2059
  525COC    COC  525   6.514   8.502   7.505  0.0217  0.0120  0.1004
  526COC    COC  526   6.864   8.521   7.486  0.3389 -0.2900  0.1269
  527COC    COC  527   7.038   8.525   7.184 -0.2269 -0.5334 -0.0216
  528COC    COC  528   6.833   8.651   7.007  0.2426 -0.0596 -0.5249
  529COC    COC  529   6.589   8.736   6.876 -0.1129 -0.0576  0.4185
  530COC    COC  530   6.508   8.979   6.691 -0.2760 -0.1369 -0.1368
  531COC    COC  531   6.368   8.903   6.446  0.3409  0.0989  0.1102
  532COC    COC  532   6.397   9.070   6.215 -0.5412 -0.1666 -0.2437
  533COC    COC  533   6.246   9.390   6.259 -0.2526  0.3739 -0.0519
  534COC    COC  534   6.450   9.513   6.465  0.5557 -0.1821  0.3951
  535COC    COC  535   6.710   9.365   6.509  0.0676 -0.2968 -0.1116
  536COC    COC  536   6.845   9.151   6.330  0.1318 -0.0035  0.2658
  537COC    COC  537   6.850   8.831   6.372  0.0167  0.0309  0.1002
  538COC    COC  538   6.745   8.724   6.070 -0.0839  0.1759 -0.6407
  539COC    COC  539   6.913   8.577   5.888 -0.3733 -0.2280  0.2929
  540COC    COC  540   7.188   8.701   5.845 -0.1299  0.3632  0.2285
  541COC    COC  541   7.332   8.591   5.634 -0.1772 -0.2468  0.1708
  542COC    COC  542   7.601   8.701   5.644 -0.2489  0.0474  0.0070
  543COC    COC  543   7.872   8.588   5.519  0.1351  0.0026  0.0352
  544COC    COC  544   7.939   8.428   5.776 -0.2877 -0.1457  0.1064
  545COC    COC  545   8.117   8.512   6.054  0.0014  0.6668 -0.3135
  546COC    COC  546   8.368   8.706   6.010  0.2354 -0.1100 -0.4760
  547COC    COC  547   8.516   8.473   5.881 -0.0620 -0.1724  0.0265
  548COC    COC  548   8.360   8.369   5.648  0.1421  0.0159 -0.0774
  549COC    COC  549   8.553   8.356   5.441  0.3879 -0.2961  0.1817
  550COC    COC  550   8.834   8.392   5.515  0.0544  0.2986 -0.1162
  551COC    COC  551   8.950   8.558   5.736 -0.0090 -0.1975  0.2305
  552COH    COH  552   9.175   8.641   5.812 -0.2542  0.4529 -0.1977
  553COH    COH  553   4.789   9.717   3.304 -0.2818  0.1958  0.1404
  554COC    COC  554   4.676   9.935   3.359  0.1307  0.1889 -0.0341
  555COC    COC  555   4.385   9.838   3.191 -0.0750 -0.1156  0.1536
  556COC    COC  556   4.250   9.881   2.925 -0.3277 -0.1235  0.3208
  557COC    COC  557   4.366   9.746   2.688 -0.1095 -0.0159 -0.0662
  558COC    COC  558   4.588   9.494   2.661 -0.1580 -0.2780 -0.2690
  559COC    COC  559   4.366   9.271   2.733  0.1308 -0.0836  0.3904
  560COC    COC  560   4.219   9.293   2.507  0.5415  0.0599  0.1414
  561COC    COC  561   4.232   9.001   2.353 -0.0877  0.0300 -0.1868
  562COC    COC  562   4.075   8.847   2.139 -0.0531  0.0612  0.2852
  563COC    COC  563   4.078   8.593   1.966 -0.0678  0.1032 -0.0710
  564COC    COC  564   3.980   8.477   1.730  0.1187  0.3550 -0.0266
  565COC    COC  565   3.977   8.530   1.438  0.0734  0.0950 -0.0344
  566COC    COC  566   4.047   8.386   1.169 -0.1441 -0.0500 -0.0678
  567COC    COC  567   4.361   8.376   1.209  0.2865 -0.0510  0.0542
  568COC    COC  568   4.634   8.242   1.194  0.1662 -0.0297  0.1254
  569COC    COC  569   4.684   8.063   0.958 -0.0028  0.2504  0.1097
  570COC    COC  570   4.765   8.159   0.691  0.0269 -0.3398 -0.0955
  571COC    COC  571   4.750   8.408   0.507 -0.0877  0.0245  0.0637
  572COC    COC  572   4.771   8.275   0.232 -0.0513  0.3140 -0.1101
  573COC    COC  573   4.907   8.201  10.306  0.0612 -0.1186 -0.1196
  574COC    COC  574   5.192   8.333   0.052  0.2950 -0.0942  0.0220
  575COC    COC  575   5.505   8.328   0.075  0.0197  0.2686  0.3655
  576COC    COC  576   5.649   8.515  10.215 -0.2406 -0.2643 -0.1597
  577COC    COC  577   5.962   8.631  10.259  0.0727 -0.2663 -0.1586
  578COC    COC  578   6.217   8.452  10.200 -0.2971  0.1783  0.0145
  579COC    COC  579   6.320   8.168  10.100 -0.1381  0.0770 -0.0460
  580COC    COC  580   6.475   7.956  10.275 -0.1264  0.1936 -0.0956
  581COC    COC  581   6.406   7.658  10.276 -0.2090 -0.0939  0.0972
  582COC    COC  582   6.520   7.480  10.069  0.0266 -0.0027  0.0983
  583COC    COC  583   6.463   7.469   9.765 -0.1511  0.5136  0.0483
  584COC    COC  584   6.722   7.364   9.687 -0.0834 -0.0037 -0.2038
  585COC    COC  585   6.970   7.532   9.754  0.4871  0.1839 -0.0741
  586COC    COC  586   7.165   7.753   9.733 -0.0176 -0.4348 -0.1531
  587COC    COC  587   7.315   7.979   9.873 -0.0994  0.0503 -0.0263
  588COC    COC  588   7.485   8.238   9.925  0.1508  0.0570  0.2696
  589COC    COC  589   7.438   8.464  10.150  0.0782 -0.1861 -0.2050
  590COC    COC  590   7.443   8.769  10.092 -0.1398 -0.3770 -0.2120
  591COC    COC  591   7.305   9.019  10.026 -0.2685 -0.6257  0.2649
  592COC    COC  592   7.234   9.130   9.735  0.4047  0.1497 -0.2199
  593COC    COC  593   7.281   9.063   9.466 -0.5688 -0.1284 -0.3474
  594COC    COC  594   7.158   9.188   9.205  0.0542 -0.4496 -0.1371
  595COC    COC  595   6.835   9.194   9.232 -0.2959  0.3809 -0.1254
  596COC    COC  596   6.715   9.257   9.504 -0.1783 -0.4382 -0.0515
  597COC    COC  597   6.566   9.374   9.767 -0.1954  0.2515  0.2289
  598COH    COH  598   6.542   9.636   9.745 -0.1204  0.1275 -0.0663
  599COH    COH  599   0.052   9.566   6.467 -0.2358  0.0097 -0.0047
  600COC    COC  600   0.090   9.851   6.469  0.0674 -0.1112  0.0027
  601COC    COC  601   0.388   9.850   6.347  0.1614 -0.1436  0.1454
  602COC    COC  602   0.392   9.626   6.134 -0.0447 -0.0502 -0.0507
  603COC    COC  603   0.141   9.499   6.056 -0.2678 -0.0972 -0.3964
  604COC    COC  604  10.318   9.250   6.074 -0.2454 -0.0536 -0.2508
  605COC    COC  605  10.191   9.254   6.338 -0.3285  0.5928 -0.1049
  606COC    COC  606  10.287   9.018   6.489  0.0702 -0.3853  0.1964
  607COC    COC  607  10.221   8.781   6.338 -0.0894  0.0213  0.0575
  608COC    COC  608   0.021   8.806   6.051  0.2520  0.6062 -0.2510
  609COC    COC  609   0.250   8.612   6.008 -0.1474  0.4032  0.0832
  610COC    COC  610   0.155   8.295   6.038 -0.1159  0.1168 -0.0241
  611COC    COC  611  10.224   8.198   6.154 -0.0701 -0.1185 -0.0573
  612COC    COC  612   9.993   8.243   6.381  0.2351 -0.0779  0.0438
  613COC    COC  613   9.749   8.153   6.557  0.2230  0.0511 -0.1396
  614COC    COC  614   9.906   8.160   6.831  0.5993  0.1012  0.1443
  615COC    COC  615  10.043   7.941   6.807  0.0354 -0.0218  0.6945
  616COC    COC  616  10.296   7.778   6.762  0.2957  0.1698  0.0179
  617COC    COC  617   0.157   7.665   6.958  0.0472  0.0390 -0.2745
  618COC    COC  618   0.178   7.408   7.156 -0.1006 -0.1824  0.1508
  619COC    COC  619   0.180   7.207   6.942 -0.2122  0.0444  0.2722
  620COC    COC  620   0.470   7.115   6.994 -0.2035 -0.3080  0.1002
  621COC    COC  621   0.655   7.306   7.107  0.0443  0.0265 -0.0302
  622COC    COC  622   0.619   7.342   7.415  0.4061 -0.1037 -0.1880
  623COC    COC  623   0.698   7.091   7.548 -0.2172 -0.0903 -0.3645
  624COC    COC  624   0.778   6.887   7.723 -0.0707  0.0187  0.2008
  625COC    COC  625   0.534   6.717   7.793  0.3183 -0.2239 -0.1214
  626COC    COC  626   0.245   6.813   7.823 -0.1452 -0.3468  0.0687
  627COC    COC  627   0.075   6.755   7.547 -0.1910 -0.0314  0.0557
  628COC    COC  628  10.134   6.627   7.612  0.5757  0.4469 -0.1720
  629COC    COC  629   9.936   6.609   7.849  0.2881  0.1585 -0.0740
  630COC    COC  630   9.827   6.813   8.053 -0.3928  0.3291 -0.0003
  631COC    COC  631   9.545   6.865   8.117 -0.4219 -0.0808  0.0383
  632COC    COC  632   9.433   7.014   7.850  0.0731  0.0036 -0.0083
  633COC    COC  633   9.312   6.831   7.614  0.2504  0.1183 -0.3263
  634COC    COC  634   9.334   6.849   7.326 -0.2851 -0.0352  0.2726
  635COC    COC  635   9.112   7.014   7.183 -0.3474  0.1639 -0.3830
  636COC    COC  636   8.818   6.948   7.300  0.1106  0.0992  0.0561
  637COC    COC  637   8.787   6.734   7.500  0.0952  0.0750 -0.3774
  638COC    COC  638   9.034   6.545   7.438 -0.3912  0.0680 -0.0227
  639COC    COC  639   8.919   6.284   7.371  0.3624 -0.0827  0.0832
  640COC    COC  640   8.749   6.220   7.589  0.0196  0.0659  0.1915
  641COC    COC  641   8.848   6.312   7.853 -0.0365  0.3443  0.1161
  642COC    COC  642   8.789   6.588   7.947 -0.1928  0.3910 -0.1336
  643COC    COC  643   8.501   6.627   7.868 -0.2250  0.0824 -0.3491
  644COH    COH  644   8.462   6.546   7.619 -0.0554 -0.0637  0.1343
  645COH    COH  645   1.215   9.319   9.750  0.0332 -0.1805 -0.0834
  646COC    COC  646   1.011   9.425   9.657  0.0517 -0.3267 -0.0468
  647COC    COC  647   0.987   9.557   9.929  0.3451  0.0428 -0.2419
  648COC    COC  648   1.184   9.736  10.060 -0.1529 -0.2721  0.1563
  649COC    COC  649   1.480   9.694  10.047  0.1025  0.2764  0.0696
  650COC    COC  650   1.664   9.932  10.036  0.0113  0.3975  0.1657
  651COC    COC  651   1.841   9.959  10.284 -0.1836  0.1067  0.2844
  652COC    COC  652   1.663   9.896   0.182 -0.2884  0.3969  0.1382
  653COC    COC  653   1.438   9.672   0.158  0.2508 -0.0816  0.0099
  654COC    COC  654   1.344   9.464   0.346  0.3988  0.2053 -0.1878
  655COC    COC  655   1.127   9.439   0.536  0.1091  0.3734 -0.0663
  656COC    COC  656   0.861   9.274   0.408 -0.1085  0.3843  0.2894
  657COC    COC  657   0.764   9.000   0.464 -0.4079 -0.2749 -0.0931
  658COC    COC  658   0.788   8.716   0.327 -0.3385 -0.0570  0.0319
  659COC    COC  659   0.565   8.578   0.227  0.0253 -0.2811 -0.4993
  660COC    COC  660   0.516   8.296   0.124 -0.3665 -0.0986  0.2055
  661COC    COC  661   0.212   8.268   0.052 -0.0702 -0.0472  0.2017
  662COC    COC  662   0.149   8.001   0.217  0.1926 -0.3706  0.2978
  663COC    COC  663   0.026   7.782   0.077 -0.4338  0.5579 -0.1222
  664COC    COC  664  10.243   7.590  10.208  0.0535 -0.0795  0.1544
  665COC    COC  665   0.058   7.478  10.014 -0.0524 -0.5312  0.4366
  666COC    COC  666   0.006   7.639   9.739 -0.1267  0.5119  0.4733
  667COC    COC  667  10.108   7.838   9.766  0.2849  0.0297  0.5305
  668COC    COC  668  10.077   8.133   9.678  0.1765  0.3643 -0.2188
  669COC    COC  669   9.984   8.280   9.885 -0.0246 -0.2748 -0.0766
  670COC    COC  670   9.980   8.086  10.157  0.1826 -0.4046 -0.3456
  671COC    COC  671   9.872   7.804  10.209 -0.1731  0.3288  0.0376
  672COC    COC  672   9.686   7.681  10.033 -0.0096  0.0758  0.1136
  673COC    COC  673   9.617   7.377  10.136 -0.0643 -0.0382 -0.0047
  674COC    COC  674   9.491   7.192   9.946 -0.3151  0.2163  0.5426
  675COC    COC  675   9.220   7.076   9.882 -0.0630  0.2349  0.2828
  676COC    COC  676   9.336   6.861   9.695  0.1584  0.0331 -0.3125
  677COC    COC  677   9.115   6.754   9.485  0.1862 -0.0038  0.2453
  678COC    COC  678   8.978   6.555   9.266 -0.4804 -0.2236 -0.0704
  679COC    COC  679   9.000   6.254   9.243  0.3595  0.1438  0.0144
  680COC    COC  680   9.273   6.237   9.118 -0.1411 -0.0964 -0.1069
  681COC    COC  681   9.432   6.419   8.924 -0.1206 -0.2329 -0.1488
  682COC    COC  682   9.729   6.444   8.982  0.1639 -0.1459 -0.2637
  683COC    COC  683   9.863   6.361   9.221  0.0892 -0.1719  0.0739
  684COC    COC  684   9.612   6.161   9.372 -0.0803  0.2442 -0.1757
  685COC    COC  685   9.570   5.880   9.269 -0.1149  0.0654 -0.0247
  686COC    COC  686   9.503   5.922   8.976  0.0251  0.0304  0.0005
  687COC    COC  687   9.387   5.677   8.762  0.1980  0.3537 -0.0262
  688COC    COC  688   9.588   5.633   8.522  0.1990 -0.2527 -0.0619
  689COC    COC  689   9.738   5.699   8.233  0.2157  0.0332 -0.1023
  690COH    COH  690   9.855   5.913   8.103  0.0335 -0.2124 -0.1869
  691COH    COH  691   3.778   7.138   8.841 -0.3354 -0.3433 -0.3712
  692COC    COC  692   3.979   7.177   8.978  0.1330  0.2036  0.2659
  693COC    COC  693   4.176   7.398   8.976 -0.0726 -0.0901 -0.1391
  694COC    COC  694   4.240   7.610   9.179 -0.0502  0.1850 -0.1372
  695COC    COC  695   4.509   7.728   9.279  0.4620 -0.1018 -0.0853
  696COC    COC  696   4.550   8.019   9.284  0.1299 -0.0658 -0.1920
  697COC    COC  697   4.408   8.184   9.131 -0.1139 -0.2310 -0.0006
  698COC    COC  698   4.241   8.412   9.159 -0.0545  0.2304  0.2596
  699COC    COC  699   4.448   8.632   9.172 -0.2427 -0.1683  0.0392
  700COC    COC  700   4.683   8.544   9.358 -0.0893  0.0938  0.4222
  701COC    COC  701   4.872   8.799   9.314 -0.0339  0.0612  0.1134
  702COC    COC  702   5.036   9.020   9.227 -0.1975  0.3976  0.0163
  703COC    COC  703   5.222   9.085   9.488  0.0479  0.0830 -0.0723
  704COC    COC  704   5.002   8.973   9.678  0.1190 -0.2452 -0.2542
  705COC    COC  705   4.752   8.940   9.881 -0.2373  0.0901 -0.2439
  706COC    COC  706   4.785   9.229   9.947 -0.3385  0.0033 -0.2064
  707COC    COC  707   4.889   9.405   9.751 -0.0825 -0.1962  0.1468
  708COC    COC  708   4.933   9.713   9.778  0.1583 -0.2678  0.2321
  709COC    COC  709   4.658   9.882   9.793 -0.1455 -0.0858 -0.2658
  710COC    COC  710   4.641  10.022   9.546  0.2878  0.1386 -0.1449
  711COC    COC  711   4.756   9.898   9.312 -0.0431 -0.0063 -0.1211
  712COC    COC  712   4.578   9.963   9.089  0.0445 -0.2540  0.0365
  713COC    COC  713   4.727   9.871   8.831  0.1552  0.2722 -0.2764
  714COC    COC  714   4.717   9.560   8.766  0.2795 -0.1180  0.1429
  715COC    COC  715   4.748   9.342   8.535 -0.1242 -0.2383  0.4482
  716COC    COC  716   4.484   9.155   8.606 -0.5209 -0.0645 -0.2434
  717COC    COC  717   4.622   9.074   8.867 -0.1767  0.3642  0.2019
  718COC    COC  718   4.716   8.773   8.808  0.1561 -0.1342 -0.0023
  719COC    COC  719   4.983   8.704   8.693 -0.0373 -0.0672 -0.4339
  720COC    COC  720   5.170   8.664   8.932  0.1663 -0.1079 -0.4371
  721COC    COC  721   5.304   8.399   9.002  0.0866  0.0534  0.4107
  722COC    COC  722   5.471   8.133   8.951 -0.2489  0.2353  0.0536
  723COC    COC  723   5.728   8.228   8.786 -0.4264 -0.1561  0.0919
  724COC    COC  724   5.762   8.541   8.861 -0.0926  0.2178 -0.1388
  725COC    COC  725   5.855   8.665   9.133 -0.0503 -0.0016 -0.2127
  726COC    COC  726   6.101   8.557   9.303 -0.1426  0.2338 -0.4223
  727COC    COC  727   6.284   8.411   9.111 -0.0371 -0.2769  0.2544
  728COC    COC  728   6.158   8.330   8.872  0.2403  0.0017 -0.4283
  729COC    COC  729   6.238   8.004   8.827 -0.2991 -0.2746  0.0360
  730COC    COC  730   6.553   8.021   8.872  0.0680  0.1701 -0.3085
  731COC    COC  731   6.885   7.978   8.865 -0.3355  0.0773  0.3030
  732COC    COC  732   7.108   8.144   8.718  0.2353 -0.0888  0.3498
  733COC    COC  733   7.294   8.207   8.481 -0.0084 -0.1201  0.1404
  734COC    COC  734   7.113   8.128   8.252 -0.0704 -0.0949  0.0571
  735COC    COC  735   6.926   7.920   8.324  0.0950 -0.1686  0.2172
  736COH    COH  736   6.755   8.062   8.496  0.3043 -0.5527 -0.2957
  737COH    COH  737   8.277   6.135   4.745 -0.4899  0.3926 -0.6911
  738COC    COC  738   8.515   6.088   4.637  0.3720 -0.0328 -0.2903
  739COC    COC  739   8.687   5.877   4.830  0.0189 -0.1729 -0.0875
  740COC    COC  740   8.895   5.718   4.952 -0.0593  0.3480 -0.1363
  741COC    COC  741   9.004   5.424   4.974 -0.0089  0.0475 -0.1402
  742COC    COC  742   9.300   5.390   5.077 -0.0034  0.3381  0.5517
  743COC    COC  743   9.418   5.286   5.272  0.2547  0.1283  0.1265
  744COC    COC  744   9.630   5.051   5.200 -0.1444 -0.1772  0.0125
  745COC    COC  745   9.623   4.760   5.266  0.0406 -0.0714 -0.3508
  746COC    COC  746   9.708   4.568   5.064 -0.0773 -0.1300  0.0781
  747COC    COC  747   9.801   4.277   5.173 -0.4004  0.0469 -0.0557
  748COC    COC  748   9.614   4.222   5.405 -0.0851 -0.1327 -0.1622
  749COC    COC  749   9.337   4.160   5.351  0.2051  0.0141  0.3470
  750COC    COC  750   9.259   4.154   5.052 -0.4085  0.3032 -0.1068
  751COC    COC  751   9.142   4.416   5.001 -0.0057  0.4267  0.0657
  752COC    COC  752   9.057   4.512   5.236  0.0183 -0.2433  0.3125
  753COC    COC  753   8.984   4.830   5.154 -0.1402  0.5275 -0.0832
  754COC    COC  754   9.231   4.913   4.991  0.0195 -0.5094 -0.1431
  755COC    COC  755   9.419   4.824   4.785  0.3849 -0.2099  0.5348
  756COC    COC  756   9.267   4.622   4.633  0.0380  0.0611 -0.0610
  757COC    COC  757   9.352   4.534   4.358  0.1583 -0.1638  0.0865
  758COC    COC  758   9.238   4.295   4.227 -0.1859  0.1077 -0.0974
  759COC    COC  759   9.198   4.068   4.428 -0.5710 -0.1596  0.1984
  760COC    COC  760   9.106   4.040   4.687  0.2568 -0.4474 -0.3782
  761COC    COC  761   8.814   4.072   4.792 -0.2400 -0.2446 -0.3383
  762COC    COC  762   8.621   3.896   4.676 -0.2208  0.1431 -0.1365
  763COC    COC  763   8.507   4.108   4.495  0.0083 -0.1894 -0.3211
  764COC    COC  764   8.438   4.067   4.205 -0.3638 -0.1480  0.1912
  765COC    COC  765   8.325   4.316   4.070  0.1689 -0.0981 -0.1748
  766COC    COC  766   8.164   4.538   4.219  0.1622 -0.0489 -0.1075
  767COC    COC  767   7.872   4.587   4.266 -0.3484  0.1209  0.0497
  768COC    COC  768   7.739   4.488   4.505 -0.2069  0.1278 -0.3121
  769COC    COC  769   7.523   4.653   4.598 -0.0439 -0.2750  0.2707
  770COC    COC  770   7.507   4.846   4.846 -0.4790 -0.0327 -0.1024
  771COC    COC  771   7.698   4.816   5.021  0.1247 -0.0656 -0.1940
  772COC    COC  772   7.950   4.942   5.016 -0.2902 -0.3129 -0.4209
  773COC    COC  773   8.038   5.218   5.144 -0.2276  0.2086 -0.1918
  774COC    COC  774   7.830   5.466   5.224 -0.4367 -0.3769  0.1403
  775COC    COC  775   7.733   5.761   5.282  0.1284 -0.0639  0.3095
  776COC    COC  776   7.699   6.042   5.180 -0.1948 -0.2380 -0.1652
  777COC    COC  777   7.696   6.087   4.905 -0.0261  0.0843 -0.4790
  778COC    COC  778   7.640   6.041   4.606 -0.5009 -0.5862 -0.0361
  779COC    COC  779   7.457   5.955   4.387  0.1042  0.1397  0.0975
  780COC    COC  780   7.385   5.687   4.296  0.2970  0.2564 -0.6489
  781COC    COC  781   7.433   5.585   4.025  0.1742 -0.1322 -0.2031
  782COH    COH  782   7.594   5.392   3.984 -0.3228 -0.2967 -0.1025
  783COH    COH  783   4.447   0.455   9.365 -0.1345 -0.4091 -0.0152
  784COC    COC  784   4.424   0.249   9.525  0.2490 -0.0147 -0.1674
  785COC    COC  785   4.355  10.299   9.390  0.4192  0.0041  0.0786
  786COC    COC  786   4.042  10.265   9.397 -0.0277  0.6565 -0.0668
  787COC    COC  787   3.848  10.109   9.194  0.4174  0.1273 -0.0555
  788COC    COC  788   3.556   9.978   9.313  0.1646  0.0452  0.4115
  789COC    COC  789   3.292  10.003   9.168  0.1511  0.1534 -0.1020
  790COC    COC  790   3.281   9.708   9.094  0.1866  0.1105 -0.1798
  791COC    COC  791   3.053   9.618   8.914 -0.0422 -0.3986  0.1159
  792COC    COC  792   3.179   9.744   8.655  0.0852  0.0330 -0.0384
  793COC    COC  793   3.427   9.935   8.652  0.0260 -0.1887 -0.0259
  794COC    COC  794   3.602   9.904   8.887 -0.3132  0.1003  0.1353
  795COC    COC  795   3.881   9.757   8.894  0.5611  0.6912  0.1214
  796COC    COC  796   4.003   9.552   8.687  0.0420 -0.1385  0.2462
  797COC    COC  797   3.893   9.329   8.573  0.6222 -0.0865 -0.1879
  798COC    COC  798   4.074   9.102   8.494 -0.7317  0.1470  0.1050
  799COC    COC  799   4.050   9.016   8.209  0.0461 -0.1450 -0.4200
  800COC    COC  800   4.126   8.758   8.068  0.1417 -0.0091 -0.1146
  801COC    COC  801   4.395   8.735   7.933  0.0729 -0.0995 -0.0015
  802COC    COC  802   4.495   8.459   7.989 -0.1405  0.3744 -0.2228
  803COC    COC  803   4.815   8.492   8.077 -0.1850  0.0182  0.1964
  804COC    COC  804   5.020   8.256   7.941  0.1690 -0.3287 -0.0177
  805COC    COC  805   5.194   8.094   8.126 -0.1607  0.1441  0.4560
  806COC    COC  806   5.462   7.948   7.996  0.4187 -0.2026 -0.2279
  807COC    COC  807   5.549   8.055   7.740 -0.1352  0.0318  0.0007
  808COC    COC  808   5.731   8.250   7.845 -0.1047 -0.0524 -0.3447
  809COC    COC  809   5.795   8.176   8.177  0.2410 -0.0826 -0.1790
  810COC    COC  810   5.573   8.208   8.399  0.3689  0.3604 -0.0086
  811COC    COC  811   5.395   7.993   8.490  0.1736  0.1869  0.0629
  812COC    COC  812   5.384   7.795   8.710  0.0185  0.2378  0.2798
  813COC    COC  813   5.524   7.511   8.613  0.4148 -0.3897 -0.8109
  814COC    COC  814   5.321   7.321   8.445  0.2684 -0.2537  0.3176
  815COC    COC  815   5.051   7.125   8.414 -0.0730 -0.1389  0.2540
  816COC    COC  816   4.786   7.171   8.285  0.2449  0.2442  0.0250
  817COC    COC  817   4.556   7.077   8.147 -0.2783  0.0691  0.1322
  818COC    COC  818   4.630   6.986   7.869 -0.3092 -0.0392  0.0590
  819COC    COC  819   4.920   6.950   7.706  0.3353  0.2490  0.4488
  820COC    COC  820   5.185   6.960   7.793 -0.2289 -0.2989  0.0062
  821COC    COC  821   5.191   7.205   8.040  0.2683 -0.0026  0.3532
  822COC    COC  822   5.493   7.191   8.050 -0.1984 -0.2080  0.0225
  823COC    COC  823   5.641   6.954   7.892  0.5256 -0.6181 -0.0621
  824COC    COC  824   5.617   6.984   7.626 -0.4826 -0.1623 -0.3511
  825COC    COC  825   5.840   6.941   7.385  0.3272 -0.3812  0.1281
  826COC    COC  826   5.846   6.851   7.106 -0.1292 -0.2418  0.2761
  827COC    COC  827   5.641   7.007   6.918 -0.1004  0.1048 -0.1915
  828COH    COH  828   5.460   7.117   7.047  0.2053 -0.5078  0.0174
  829COH    COH  829   8.426   1.095   4.439  0.4184 -0.5261  0.1144
  830COC    COC  830   8.609   1.281   4.440 -0.2555 -0.3403  0.4736
  831COC    COC  831   8.830   1.160   4.600 -0.1930  0.0561 -0.4005
  832COC    COC  832   9.047   1.380   4.532  0.0517  0.2301 -0.1495
  833COC    COC  833   9.302   1.225   4.444 -0.3686  0.2598 -0.0949
  834COC    COC  834   9.355   0.905   4.391 -0.0129 -0.3264  0.1034
  835COC    COC  835   9.595   0.847   4.198 -0.1402 -0.1113  0.1960
  836COC    COC  836   9.614   0.631   3.974 -0.1623 -0.2681  0.0878
  837COC    COC  837   9.722   0.543   3.725 -0.0664  0.1786  0.7232
  838COC    COC  838   9.565   0.282   3.693 -0.1312  0.3162  0.0509
  839COC    COC  839   9.708   0.056   3.598  0.0806 -0.2333  0.0023
  840COC    COC  840   9.883  10.173   3.624 -0.0895  0.3416  0.0193
  841COC    COC  841  10.167  10.108   3.655 -0.5460 -0.4663 -0.0731
  842COC    COC  842  10.260   0.055   3.781 -0.3597  0.2504 -0.0151
  843COC    COC  843  10.062   0.286   3.828  0.2273  0.0357 -0.1734
  844COC    COC  844   9.958   0.373   4.101  0.0071  0.4481 -0.2030
  845COC    COC  845   9.662   0.257   4.218  0.0046  0.1144 -0.3022
  846COC    COC  846   9.473   0.492   4.346 -0.2619 -0.1955  0.0903
  847COC    COC  847   9.150   0.531   4.337  0.2505  0.2876 -0.0433
  848COC    COC  848   8.987   0.780   4.301 -0.1134  0.3253 -0.3188
  849COC    COC  849   9.002   1.061   4.193  0.1613  0.0020  0.0347
  850COC    COC  850   9.244   1.165   4.012  0.3044 -0.1600  0.0801
  851COC    COC  851   9.343   0.956   3.872 -0.0243 -0.0417  0.1182
  852COC    COC  852   9.350   0.796   3.618  0.3954 -0.1765  0.1548
  853COC    COC  853   9.264   0.515   3.532 -0.0509 -0.1267 -0.3136
  854COC    COC  854   8.937   0.479   3.479  0.1325 -0.3291  0.0215
  855COC    COC  855   8.685   0.703   3.471 -0.1117 -0.0562 -0.3001
  856COC    COC  856   8.583   0.797   3.185  0.0244  0.0096 -0.1018
  857COC    COC  857   8.517   1.000   2.971  0.0351  0.1422  0.1388
  858COC    COC  858   8.322   1.182   2.875  0.0000  0.0222  0.1379
  859COC    COC  859   8.506   1.436   2.856 -0.2920  0.0248  0.4581
  860COC    COC  860   8.494   1.736   2.818 -0.1916  0.4305 -0.0109
  861COC    COC  861   8.336   1.890   2.604  0.1037  0.1744 -0.0686
  862COC    COC  862   8.302   2.176   2.580  0.0981 -0.2611  0.0215
  863COC    COC  863   8.470   2.407   2.499 -0.3159  0.0405  0.2343
  864COC    COC  864   8.580   2.626   2.693  0.0190  0.3013  0.1309
  865COC    COC  865   8.551   2.913   2.678  0.0063 -0.2220  0.1155
  866COC    COC  866   8.329   3.004   2.867  0.1869 -0.3476  0.1566
  867COC    COC  867   8.254   3.028   3.139 -0.4052  0.1518 -0.0990
  868COC    COC  868   8.405   2.865   3.312  0.3600  0.0789  0.3386
  869COC    COC  869   8.544   2.947   3.513  0.1364  0.3918 -0.1823
  870COC    COC  870   8.485   2.912   3.786 -0.2274 -0.0736  0.4506
  871COC    COC  871   8.196   2.886   3.897 -0.0625  0.0960  0.0730
  872COC    COC  872   7.965   3.113   3.855 -0.2830  0.0246  0.3212
  873COC    COC  873   8.071   3.316   3.651 -0.2153 -0.2500 -0.4368
  874COH    COH  874   8.124   3.084   3.510  0.0601  0.3289  0.1880
  875COH    COH  875   0.318   4.850   5.756  0.3902  0.3445 -0.1167
  876COC    COC  876   0.365   4.646   5.940 -0.1807  0.2753  0.1605
  877COC    COC  877   0.593   4.475   5.917 -0.1917 -0.4762 -0.0596
  878COC    COC  878   0.723   4.480   5.622  0.1779  0.2197 -0.1099
  879COC    COC  879   0.639   4.754   5.514 -0.0695  0.4163 -0.0048
  880COC    COC  880   0.687   4.835   5.232  0.0528 -0.4478 -0.4594
  881COC    COC  881   0.486   4.679   5.059 -0.3802  0.0204  0.0519
  882COC    COC  882   0.291   4.478   4.914 -0.0256  0.0453 -0.3204
  883COC    COC  883   0.349   4.217   5.058  0.0961 -0.1558  0.0331
  884COC    COC  884   0.560   4.282   5.293  0.3590 -0.1222 -0.1455
  885COC    COC  885   0.836   4.348   5.212 -0.2118  0.0719  0.4185
  886COC    COC  886   0.982   4.562   5.007  0.0167 -0.1113 -0.3779
  887COC    COC  887   1.029   4.858   5.005 -0.1018  0.1613  0.3879
  888COC    COC  888   0.950   5.094   4.904  0.0741 -0.2818  0.0823
  889COC    COC  889   1.117   5.358   4.918 -0.5204 -0.1026 -0.3946
  890COC    COC  890   1.311   5.625   5.044 -0.0966  0.2950  0.0254
  891COC    COC  891   1.423   5.917   4.978 -0.4530  0.3262  0.1304
  892COC    COC  892   1.305   5.941   4.685 -0.2338 -0.2388 -0.1531
  893COC    COC  893   1.493   5.881   4.454  0.0922 -0.0787 -0.0626
  894COC    COC  894   1.560   5.602   4.370 -0.2011  0.2438  0.1306
  895COC    COC  895   1.803   5.558   4.220  0.0520  0.0126 -0.1745
  896COC    COC  896   1.812   5.298   4.018  0.0074 -0.2104 -0.0219
  897COC    COC  897   2.038   5.084   3.989 -0.3571  0.1049  0.0276
  898COC    COC  898   2.272   5.110   4.163  0.1800  0.2088  0.1797
  899COC    COC  899   2.536   5.059   4.006 -0.0339 -0.2186 -0.1578
  900COC    COC  900   2.480   5.099   3.717  0.1925  0.2038  0.0104
  901COC    COC  901   2.279   4.923   3.527  0.0052  0.1327  0.2025
  902COC    COC  902   1.975   4.975   3.575  0.2451  0.0177  0.5552
  903COC    COC  903   1.683   5.049   3.613  0.0246  0.0179  0.3146
  904COC    COC  904   1.543   5.305   3.704 -0.3237 -0.1473  0.0519
  905COC    COC  905   1.282   5.365   3.572  0.5173 -0.2977  0.2456
  906COC    COC  906   1.002   5.296   3.520 -0.1176  0.0974  0.0849
  907COC    COC  907   0.779   5.440   3.383 -0.0138 -0.1813 -0.3733
  908COC    COC  908   0.631   5.508   3.114  0.4473  0.0262 -0.2832
  909COC    COC  909   0.347   5.481   3.048  0.4194 -0.3693 -0.0572
  910COC    COC  910   0.366   5.524   2.775 -0.1116 -0.2357  0.3147
  911COC    COC  911   0.556   5.316   2.625  0.1639 -0.0721  0.1012
  912COC    COC  912   0.361   5.128   2.705 -0.0782  0.4293 -0.0377
  913COC    COC  913   0.450   4.819   2.748  0.2659  0.4748  0.0105
  914COC    COC  914   0.368   4.683   3.047  0.0325 -0.3094  0.1330
  915COC    COC  915   0.073   4.597   3.038  0.2171 -0.0208  0.0309
  916COC    COC  916  10.252   4.598   2.740 -0.6593 -0.1726 -0.0262
  917COC    COC  917   0.121   4.691   2.521 -0.3550 -0.0023  0.4443
  918COC    COC  918   0.317   4.868   2.337 -0.2193 -0.0071  0.3271
  919COC    COC  919   0.492   5.091   2.197 -0.0202  0.0784  0.3053
  920COH    COH  920   0.362   5.298   2.076  0.0144  0.4672 -0.1620
  921COH    COH  921   6.700   2.642   8.192 -0.5729 -0.0290  0.2247
  922COC    COC  922   6.651   2.843   8.379 -0.3958  0.0866 -0.0153
  923COC    COC  923   6.514   2.978   8.171 -0.1865  0.2560  0.4378
  924COC    COC  924   6.522   3.301   8.221 -0.4423  0.2887 -0.1619
  925COC    COC  925   6.737   3.440   8.355 -0.5893  0.0060  0.4153
  926COC    COC  926   6.612   3.688   8.471 -0.2670  0.2499  0.3559
  927COC    COC  927   6.680   3.677   8.761 -0.1824 -0.1421 -0.1029
  928COC    COC  928   6.885   3.901   8.888 -0.1434 -0.5390 -0.0818
  929COC    COC  929   6.793   4.013   9.150 -0.1093  0.1357 -0.2657
  930COC    COC  930   6.945   4.177   9.391  0.1420  0.1497 -0.3972
  931COC    COC  931   6.953   4.456   9.316 -0.0026  0.4188 -0.2349
  932COC    COC  932   7.205   4.580   9.270  0.3212  0.4516 -0.0378
  933COC    COC  933   7.442   4.622   9.056  0.1480 -0.1147  0.0668
  934COC    COC  934   7.566   4.884   9.046  0.1328  0.3033  0.1365
  935COC    COC  935   7.504   5.188   9.028  0.1893  0.3869  0.1624
  936COC    COC  936   7.597   5.248   9.356 -0.0882  0.0047  0.0796
  937COC    COC  937   7.637   5.521   9.514 -0.0171 -0.2792 -0.0180
  938COC    COC  938   7.862   5.609   9.719  0.0004  0.1835 -0.2444
  939COC    COC  939   8.167   5.504   9.813 -0.0471  0.1625  0.4329
  940COC    COC  940   8.395   5.549   9.600  0.1142  0.2422 -0.5399
  941COC    COC  941   8.479   5.829   9.751 -0.2147  0.3643 -0.2559
  942COC    COC  942   8.800   5.881   9.769  0.3058  0.3371  0.2408
  943COC    COC  943   9.060   6.074   9.909 -0.1397 -0.2051 -0.4019
  944COC    COC  944   9.320   6.044  10.048  0.1694  0.0584  0.0254
  945COC    COC  945   9.523   6.265   9.949  0.3820 -0.3115  0.2871
  946COC    COC  946   9.429   6.468   9.722  0.1362  0.3823 -0.2629
  947COC    COC  947   9.232   6.347   9.584  0.1246  0.2444  0.3014
  948COC    COC  948   8.934   6.337   9.654  0.1610 -0.3650  0.0106
  949COC    COC  949   8.703   6.566   9.603 -0.1509  0.1826  0.0086
  950COC    COC  950   8.609   6.652   9.332 -0.2360  0.2589  0.0905
  951COC    COC  951   8.637   6.496   9.038 -0.2866  0.2042  0.1209
  952COC    COC  952   8.418   6.251   9.009 -0.0650 -0.5461  0.4846
  953COC    COC  953   8.132   6.232   9.186 -0.1543 -0.1061  0.0172
  954COC    COC  954   8.131   6.377   9.470  0.4809 -0.0526 -0.0009
  955COC    COC  955   8.278   6.313   9.727  0.0828 -0.0684  0.2755
  956COC    COC  956   8.172   6.383   9.990  0.3009  0.2792 -0.0488
  957COC    COC  957   8.006   6.612   9.928  0.1938  0.1709  0.1362
  958COC    COC  958   7.871   6.669   9.688  0.4904  0.0739 -0.2482
  959COC    COC  959   7.722   6.443   9.603  0.1887  0.0719 -0.0693
  960COC    COC  960   7.446   6.339   9.565 -0.1481  0.2120 -0.0086
  961COC    COC  961   7.238   6.586   9.622  0.3111 -0.0775  0.0451
  962COC    COC  962   6.929   6.506   9.524 -0.0670  0.1703 -0.1645
  963COC    COC  963   6.955   6.220   9.365 -0.0666 -0.2014  0.1429
  964COC    COC  964   7.239   6.186   9.216 -0.0588  0.0363  0.2027
  965COC    COC  965   7.309   5.987   8.962  0.1196 -0.2501 -0.2627
  966COH    COH  966   7.075   6.012   8.851 -0.2501 -0.0293 -0.0059
  967COH    COH  967   0.629   7.372   9.392  0.1928  0.4655 -0.0639
  968COC    COC  968   0.358   7.365   9.357  0.4211 -0.0789 -0.5375
  969COC    COC  969   0.295   7.620   9.220  0.1658  0.2248 -0.1535
  970COC    COC  970   0.563   7.744   9.199 -0.0125  0.1955 -0.2018
  971COC    COC  971   0.857   7.781   9.177 -0.1449 -0.2785 -0.2046
  972COC    COC  972   1.034   7.997   9.155  0.0150 -0.3647  0.1315
  973COC    COC  973   1.296   8.021   9.417 -0.1364  0.2260  0.0557
  974COC    COC  974   1.482   8.275   9.327 -0.0799  0.0200  0.0070
  975COC    COC  975   1.545   8.507   9.143  0.3862 -0.0905  0.1956
  976COC    COC  976   1.397   8.485   8.863  0.0828  0.1730 -0.2873
  977COC    COC  977   1.495   8.416   8.601  0.4607 -0.0876 -0.3372
  978COC    COC  978   1.607   8.536   8.345  0.2343  0.1883  0.1685
  979COC    COC  979   1.377   8.719   8.176 -0.0452  0.2504  0.1414
  980COC    COC  980   1.393   9.034   8.251  0.1858 -0.0579 -0.1695
  981COC    COC  981   1.253   9.295   8.256  0.1771  0.3093 -0.1738
  982COC    COC  982   0.994   9.206   8.428 -0.2323 -0.1793 -0.0087
  983COC    COC  983   1.077   9.298   8.703 -0.1966 -0.2350  0.1659
  984COC    COC  984   1.034   9.610   8.810 -0.4073 -0.0154 -0.0471
  985COC    COC  985   1.307   9.763   8.882 -0.0841 -0.0435  0.1562
  986COC    COC  986   1.341  10.047   8.752 -0.2040 -0.0023 -0.0029
  987COC    COC  987   1.405   9.953   8.450 -0.1722 -0.2614 -0.2203
  988COC    COC  988   1.380   9.652   8.474 -0.4025 -0.2008 -0.0395
  989COC    COC  989   1.554   9.506   8.715 -0.0387 -0.0585 -0.1366
  990COC    COC  990   1.483   9.211   8.738 -0.2222 -0.4759  0.0266
  991COC    COC  991   1.648   9.056   8.902 -0.3623  0.1060 -0.4218
  992COC    COC  992   1.764   8.797   8.930 -0.4534  0.0874 -0.1703
  993COC    COC  993   1.911   8.590   8.705 -0.1537  0.1796  0.0289
  994COC    COC  994   1.933   8.306   8.761  0.0527 -0.1271  0.2172
  995COC    COC  995   2.154   8.118   8.622 -0.1387  0.3584 -0.1767
  996COC    COC  996   1.991   7.871   8.551 -0.4850  0.2389  0.2321
  997COC    COC  997   2.133   7.612   8.495 -0.3735  0.0525 -0.2157
  998COC    COC  998   1.995   7.466   8.291 -0.0422 -0.0890  0.3992
  999COC    COC  999   2.173   7.423   8.019 -0.1527  0.0843  0.1644
 1000COC    COC 1000   2.191   7.105   7.950  0.2510  0.2165  0.0598
 1001COC    COC 1001   2.240   7.087   7.630 -0.1808 -0.0321  0.1241
 1002COC    COC 1002   2.165   7.286   7.439 -0.4376 -0.1442  0.3071
 1003COC    COC 1003   1.995   7.459   7.245  0.0205  0.4382 -0.2690
 1004COC    COC 1004   1.931   7.749   7.146 -0.4622  0.0326 -0.1246
 1005COC    COC 1005   1.773   8.008   7.285 -0.0101  0.0554  0.2669
 1006COC    COC 1006   1.740   8.204   7.506  0.0919  0.2616 -0.2987
 1007COC    COC 1007   1.935   8.195   7.744  0.0791  0.3518  0.0901
 1008COC    COC 1008   2.207   8.298   7.683  0.3442 -0.3258  0.0888
 1009COC    COC 1009   2.439   8.080   7.562 -0.0319 -0.1398  0.0101
 1010COC    COC 1010   2.670   8.130   7.354 -0.1936  0.0480  0.1763
 1011COC    COC 1011   2.758   7.880   7.179 -0.1375 -0.1570 -0.1880
 1012COH    COH 1012   2.938   7.906   6.997  0.1210 -0.4115  0.0853
 1013COH    COH 1013   0.156   6.953   9.948 -0.6430  0.4328 -0.2415
 1014COC    COC 1014  10.284   7.073  10.115  0.1811 -0.4775 -0.0338
 1015COC    COC 1015  10.054   6.975   9.956 -0.0032  0.2000 -0.2092
 1016COC    COC 1016   9.773   6.837  10.011 -0.0093  0.0901 -0.2556
 1017COC    COC 1017   9.663   6.599  10.133 -0.2124  0.2360 -0.1537
 1018COC    COC 1018   9.409   6.746  10.246 -0.4542  0.3549  0.0889
 1019COC    COC 1019   9.348   7.031  10.292 -0.3060  0.2783 -0.0630
 1020COC    COC 1020   9.224   7.162   0.185  0.0239  0.3162  0.3095
 1021COC    COC 1021   9.143   7.145   0.498 -0.1994  0.3817 -0.0249
 1022COC    COC 1022   9.140   6.887   0.678 -0.0314  0.0601  0.0250
 1023COC    COC 1023   9.103   6.819   0.962 -0.0224  0.0685 -0.1115
 1024COC    COC 1024   9.297   6.688   1.196 -0.0446  0.1054  0.1755
 1025COC    COC 1025   9.275   6.407   1.192  0.0243  0.3141  0.1001
 1026COC    COC 1026   9.393   6.279   1.416 -0.1902  0.5851  0.3292
 1027COC    COC 1027   9.341   6.031   1.500 -0.3100  0.0143 -0.1017
 1028COC    COC 1028   9.395   5.823   1.303  0.0223  0.3533 -0.5315
 1029COC    COC 1029   9.170   5.634   1.318 -0.0140  0.1811 -0.0264
 1030COC    COC 1030   9.013   5.378   1.201 -0.1500 -0.5686  0.3112
 1031COC    COC 1031   9.193   5.115   1.132 -0.1665  0.1270  0.0065
 1032COC    COC 1032   9.015   4.908   1.042  0.1692  0.0036  0.0376
 1033COC    COC 1033   8.725   4.856   1.066  0.1102  0.1295  0.3296
 1034COC    COC 1034   8.636   4.880   1.345 -0.0427 -0.1213  0.0378
 1035COC    COC 1035   8.832   5.096   1.466  0.1523 -0.0277 -0.0558
 1036COC    COC 1036   8.654   5.393   1.507  0.4682  0.6581 -0.1688
 1037COC    COC 1037   8.372   5.411   1.565 -0.5669 -0.2798  0.2035
 1038COC    COC 1038   8.194   5.603   1.378 -0.1412 -0.0974 -0.2733
 1039COC    COC 1039   8.008   5.712   1.173 -0.0250 -0.1772  0.1552
 1040COC    COC 1040   7.743   5.671   0.974 -0.1920 -0.0962  0.0481
 1041COC    COC 1041   7.457   5.746   1.017  0.0366 -0.2459 -0.1334
 1042COC    COC 1042   7.365   5.996   1.103 -0.1806 -0.0597 -0.2000
 1043COC    COC 1043   7.080   6.135   1.014  0.1302 -0.3848  0.0097
 1044COC    COC 1044   6.820   6.017   1.112  0.3457  0.0837  0.0839
 1045COC    COC 1045   6.798   5.754   1.263  0.0632  0.1307  0.1607
 1046COC    COC 1046   7.055   5.655   1.220 -0.1819  0.0777  0.1064
 1047COC    COC 1047   7.210   5.440   1.432  0.0608  0.3869  0.3581
 1048COC    COC 1048   7.513   5.508   1.444  0.1637  0.1459  0.1604
 1049COC    COC 1049   7.807   5.373   1.441  0.0625 -0.2760 -0.1174
 1050COC    COC 1050   7.927   5.184   1.250 -0.1595  0.0121  0.1383
 1051COC    COC 1051   7.903   5.276   0.987 -0.4473  0.1778 -0.1326
 1052COC    COC 1052   8.025   5.129   0.728  0.1635 -0.1839 -0.0668
 1053COC    COC 1053   8.050   5.320   0.515  0.1031  0.1587  0.0516
 1054COC    COC 1054   8.088   5.584   0.694  0.0194 -0.1148 -0.1477
 1055COC    COC 1055   8.373   5.479   0.780  0.1725 -0.0421 -0.2151
 1056COC    COC 1056   8.640   5.685   0.765 -0.0074  0.2144  0.0121
 1057COC    COC 1057   8.801   5.923   0.727 -0.1491  0.0958 -0.0725
 1058COH    COH 1058   9.040   5.855   0.810  0.1792  0.2711 -0.0908
 1059COH    COH 1059   3.045   5.854   2.462 -0.0796 -0.5788 -0.1594
 1060COC    COC 1060   3.062   5.961   2.717 -0.2119  0.2312 -0.1357
 1061COC    COC 1061   2.855   5.954   2.947 -0.2117  0.1041 -0.1633
 1062COC    COC 1062   2.972   5.959   3.218  0.0892  0.0000 -0.3994
 1063COC    COC 1063   2.708   5.919   3.400  0.0022  0.2064 -0.0441
 1064COC    COC 1064   2.747   5.677   3.631 -0.0579  0.3657 -0.3044
 1065COC    COC 1065   2.513   5.532   3.784 -0.2045 -0.0653 -0.1648
 1066COC    COC 1066   2.264   5.632   3.919  0.4393 -0.0276  0.1059
 1067COC    COC 1067   2.288   5.512   4.195  0.1007  0.0346 -0.4121
 1068COC    COC 1068   2.283   5.676   4.446 -0.0738  0.2517  0.1806
 1069COC    COC 1069   2.403   5.700   4.705  0.0604  0.1717 -0.0581
 1070COC    COC 1070   2.718   5.700   4.717  0.0361  0.2319 -0.0965
 1071COC    COC 1071   2.986   5.872   4.656 -0.0885  0.2892  0.2355
 1072COC    COC 1072   3.036   6.068   4.400  0.4703  0.3106 -0.0888
 1073COC    COC 1073   3.068   6.180   4.197  0.3448  0.2028  0.1038
 1074COC    COC 1074   2.996   6.057   3.932 -0.2463 -0.2158  0.0373
 1075COC    COC 1075   3.122   5.819   3.852 -0.0732 -0.0244  0.0417
 1076COC    COC 1076   3.240   5.684   3.625 -0.1427  0.1516 -0.0190
 1077COC    COC 1077   3.122   5.575   3.350  0.1939 -0.1718 -0.1710
 1078COC    COC 1078   2.902   5.422   3.138 -0.5427  0.0152  0.1196
 1079COC    COC 1079   3.147   5.193   3.026  0.3891  0.1917  0.2306
 1080COC    COC 1080   3.014   5.214   2.726  0.0877 -0.0479  0.2375
 1081COC    COC 1081   3.063   5.291   2.416  0.0779 -0.2684  0.2670
 1082COC    COC 1082   3.321   5.285   2.270 -0.0637  0.0120 -0.0716
 1083COC    COC 1083   3.299   5.067   2.062  0.0819 -0.0119  0.1052
 1084COC    COC 1084   3.388   4.814   2.148  0.2729  0.1363 -0.0132
 1085COC    COC 1085   3.492   4.539   2.066 -0.1245 -0.4812  0.3697
 1086COC    COC 1086   3.278   4.329   1.950 -0.1967  0.0813  0.2073
 1087COC    COC 1087   3.110   4.125   1.811 -0.6220 -0.1867 -0.0893
 1088COC    COC 1088   3.241   4.056   1.537 -0.3682 -0.3407 -0.3682
 1089COC    COC 1089   3.484   3.984   1.393  0.2296  0.0102 -0.2617
 1090COC    COC 1090   3.503   3.945   1.094  0.3954 -0.0779  0.4622
 1091COC    COC 1091   3.268   3.865   0.888 -0.0130 -0.3011  0.1323
 1092COC    COC 1092   3.309   3.703   0.618  0.4830 -0.1169  0.2969
 1093COC    COC 1093   3.522   3.786   0.389  0.0578  0.0579  0.1739
 1094COC    COC 1094   3.556   3.593   0.151 -0.2719 -0.2686 -0.3710
 1095COC    COC 1095   3.478   3.369   0.286  0.0331 -0.4672  0.0190
 1096COC    COC 1096   3.374   3.112   0.216 -0.1432  0.0231  0.1047
 1097COC    COC 1097   3.075   3.047   0.081  0.0417 -0.2185 -0.3593
 1098COC    COC 1098   2.907   3.308   0.114  0.0624  0.2822  0.0056
 1099COC    COC 1099   2.643   3.297  10.336 -0.1931 -0.0946  0.0558
 1100COC    COC 1100   2.539   3.286  10.097  0.4075  0.0415 -0.1019
 1101COC    COC 1101   2.493   3.014   9.920 -0.3231  0.1918 -0.0426
 1102COC    COC 1102   2.337   2.771   9.864  0.0826  0.2459  0.1449
 1103COC    COC 1103   2.134   2.676  10.086  0.0047  0.0383 -0.2630
 1104COH    COH 1104   1.981   2.482   9.965  0.0511 -0.1008  0.0213
 1105COH    COH 1105  10.159   4.112   0.617  0.0369  0.1665 -0.2403
 1106COC    COC 1106   0.014   4.082   0.439  0.0760 -0.2154  0.2863
 1107COC    COC 1107   0.165   4.339   0.403  0.4403  0.0587 -0.0594
 1108COC    COC 1108   0.298   4.461   0.146  0.1143 -0.2027  0.0066
 1109COC    COC 1109   0.557   4.316  10.313 -0.0486 -0.2162  0.4575
 1110COC    COC 1110   0.809   4.522  10.267 -0.2018  0.1561 -0.2196
 1111COC    COC 1111   1.018   4.418  10.057 -0.0656 -0.1869  0.1922
 1112COC    COC 1112   1.232   4.200  10.085 -0.2759  0.0292 -0.1099
 1113COC    COC 1113   1.503   4.095  10.110 -0.0399  0.1254  0.1398
 1114COC    COC 1114   1.746   4.235  10.194  0.2910  0.2452  0.5831
 1115COC    COC 1115   1.838   4.493  10.063 -0.2436  0.2109 -0.2914
 1116COC    COC 1116   1.829   4.782   9.972  0.5804  0.2228  0.1027
 1117COC    COC 1117   1.603   4.993   9.978 -0.2056 -0.0124  0.1954
 1118COC    COC 1118   1.293   4.922   9.840 -0.2991  0.0373 -0.2474
 1119COC    COC 1119   1.018   4.896   9.717 -0.5255 -0.1776  0.0080
 1120COC    COC 1120   0.722   4.777   9.811 -0.4203  0.0192  0.1663
 1121COC    COC 1121   0.428   4.878   9.764  0.0559  0.1817 -0.4078
 1122COC    COC 1122   0.163   4.757   9.762  0.3910  0.0510  0.0706
 1123COC    COC 1123  10.202   4.780   9.902 -0.0688  0.2901 -0.3067
 1124COC    COC 1124   9.979   4.993   9.840 -0.1032  0.2664 -0.3258
 1125COC    COC 1125   9.938   5.179   9.618 -0.1452  0.2119 -0.1313
 1126COC    COC 1126   9.845   5.432   9.689 -0.2022  0.0305  0.0413
 1127COC    COC 1127   9.927   5.642   9.497 -0.0329  0.1700 -0.5613
 1128COC    COC 1128   9.971   5.949   9.504 -0.2159  0.1270  0.4534
 1129COC    COC 1129  10.190   6.097   9.371  0.0446 -0.0858 -0.1256
 1130COC    COC 1130  10.306   6.240   9.631  0.3219 -0.0004  0.1802
 1131COC    COC 1131   0.152   6.145   9.828 -0.0630 -0.4472 -0.0446
 1132COC    COC 1132   0.436   6.155   9.775  0.4114  0.1954 -0.3600
 1133COC    COC 1133   0.407   6.165   9.475  0.0299 -0.4278  0.3115
 1134COC    COC 1134   0.366   5.870   9.370  0.3277 -0.2606 -0.1753
 1135COC    COC 1135   0.165   5.730   9.571  0.1996 -0.3397 -0.2214
 1136COC    COC 1136   0.246   5.452   9.438 -0.2870 -0.1572  0.3358
 1137COC    COC 1137   0.245   5.197   9.592  0.1318 -0.2935 -0.2374
 1138COC    COC 1138   0.022   5.271   9.797 -0.4465 -0.0700 -0.2350
 1139COC    COC 1139   0.054   5.156  10.085 -0.2367 -0.2490  0.1513
 1140COC    COC 1140   0.041   5.042   0.017  0.3365 -0.4299 -0.0318
 1141COC    COC 1141  10.239   4.728   0.015 -0.2671  0.0224 -0.2103
 1142COC    COC 1142  10.173   4.447   0.186  0.1806 -0.1097 -0.0608
 1143COC    COC 1143  10.000   4.485   0.444 -0.2200 -0.0908 -0.4363
 1144COC    COC 1144   9.977   4.778   0.555  0.2008  0.3636 -0.0314
 1145COC    COC 1145   9.757   4.907   0.392 -0.2916 -0.1040 -0.2237
 1146COC    COC 1146   9.520   4.837   0.569 -0.2308  0.7000 -0.3988
 1147COC    COC 1147   9.383   4.580   0.636 -0.1003  0.0234 -0.0171
 1148COC    COC 1148   9.599   4.358   0.693 -0.1811 -0.1464  0.1247
 1149COC    COC 1149   9.805   4.325   0.924 -0.1563 -0.0802  0.2315
 1150COH    COH 1150   9.722   4.303   1.147  0.5485 -0.2692 -0.0797
 1151COH    COH 1151  10.248   5.793   5.061  0.4226  0.2738 -0.2411
 1152COC    COC 1152   0.011   5.866   5.295 -0.5807  0.1605 -0.0163
 1153COC    COC 1153   0.316   5.750   5.397  0.4211 -0.1420  0.1511
 1154COC    COC 1154   0.447   5.954   5.220  0.2674  0.1677  0.3389
 1155COC    COC 1155   0.516   5.973   4.944  0.0515  0.1402 -0.1195
 1156COC    COC 1156   0.409   5.772   4.710  0.0297  0.2295 -0.0155
 1157COC    COC 1157   0.512   5.864   4.443  0.0744  0.0395 -0.1523
 1158COC    COC 1158   0.731   6.011   4.406  0.1565 -0.1953 -0.1556
 1159COC    COC 1159   0.825   6.197   4.619 -0.2731 -0.0552  0.2857
 1160COC    COC 1160   1.078   6.336   4.707  0.1447 -0.2995 -0.0579
 1161COC    COC 1161   1.076   6.609   4.640  0.1212  0.0533 -0.2134
 1162COC    COC 1162   0.808   6.780   4.621  0.1714  0.2741  0.0598
 1163COC    COC 1163   0.808   6.996   4.375 -0.0121 -0.1299  0.0356
 1164COC    COC 1164   0.778   7.225   4.544  0.0989 -0.3373  0.5363
 1165COC    COC 1165   1.044   7.257   4.650  0.0022  0.2243 -0.3751
 1166COC    COC 1166   1.301   7.416   4.599  0.2587 -0.1100 -0.5521
 1167COC    COC 1167   1.320   7.554   4.355 -0.2590  0.2083 -0.5921
 1168COC    COC 1168   1.407   7.831   4.445 -0.0626  0.1457  0.0826
 1169COC    COC 1169   1.266   8.095   4.397  0.3257  0.2992  0.1630
 1170COC    COC 1170   1.078   8.115   4.145  0.2747 -0.1223  0.0001
 1171COC    COC 1171   1.050   7.834   3.977  0.1569  0.0651  0.0737
 1172COC    COC 1172   1.341   7.769   3.928  0.0446 -0.0751  0.2868
 1173COC    COC 1173   1.463   8.020   3.981  0.3495 -0.2415  0.1245
 1174COC    COC 1174   1.441   8.259   3.808  0.2602  0.3043 -0.4393
 1175COC    COC 1175   1.437   8.160   3.552  0.2941  0.3589  0.1847
 1176COC    COC 1176   1.389   7.891   3.442 -0.2831 -0.0729 -0.2490
 1177COC    COC 1177   1.396   7.592   3.466  0.0467  0.0669 -0.1650
 1178COC    COC 1178   1.236   7.464   3.701  0.2861  0.0329  0.1948
 1179COC    COC 1179   1.041   7.239   3.694 -0.1597 -0.0232 -0.0000
 1180COC    COC 1180   0.992   6.991   3.478  0.0121 -0.2175  0.0678
 1181COC    COC 1181   1.055   6.875   3.223 -0.0799 -0.3020  0.1101
 1182COC    COC 1182   0.787   6.855   3.045  0.1034  0.0962 -0.0915
 1183COC    COC 1183   0.601   7.101   2.993  0.2184 -0.1463 -0.1042
 1184COC    COC 1184   0.594   7.319   3.212  0.2690  0.3592  0.0247
 1185COC    COC 1185   0.863   7.441   3.313  0.1424  0.0106  0.1880
 1186COC    COC 1186   1.152   7.353   3.250  0.0008  0.0680  0.0065
 1187COC    COC 1187   1.378   7.121   3.356  0.0637  0.3118  0.2677
 1188COC    COC 1188   1.551   6.892   3.202  0.0094 -0.2696 -0.1724
 1189COC    COC 1189   1.559   6.636   3.082 -0.0774 -0.1492 -0.0537
 1190COC    COC 1190   1.246   6.574   2.961  0.0521  0.3095 -0.4784
 1191COC    COC 1191   1.071   6.779   2.755  0.2895  0.1545  0.1361
 1192COC    COC 1192   0.913   6.693   2.493 -0.3580 -0.2771 -0.0600
 1193COC    COC 1193   1.045   6.517   2.313 -0.2742 -0.0854 -0.0993
 1194COC    COC 1194   1.068   6.289   2.495  0.0767 -0.0069 -0.1743
 1195COC    COC 1195   1.057   6.212   2.798 -0.1899  0.0373  0.5153
 1196COH    COH 1196   0.873   6.049   2.732  0.3409  0.2374 -0.0734
 1197COH    COH 1197   5.339   0.994   4.416 -0.3542  0.4704  0.2057
 1198COC    COC 1198   5.536   1.200   4.517  0.1630  0.2909  0.2560
 1199COC    COC 1199   5.394   1.454   4.572  0.0169 -0.3243  0.1056
 1200COC    COC 1200   5.122   1.526   4.605  0.1418  0.1042  0.1058
 1201COC    COC 1201   4.874   1.347   4.570 -0.0725  0.2760  0.1458
 1202COC    COC 1202   4.930   1.068   4.450 -0.2670  0.1088  0.0364
 1203COC    COC 1203   4.891   0.794   4.609  0.4302  0.1067 -0.3481
 1204COC    COC 1204   5.067   0.534   4.733  0.4163  0.4283  0.4168
 1205COC    COC 1205   5.362   0.517   4.786 -0.0188 -0.0830 -0.3941
 1206COC    COC 1206   5.432   0.596   5.046 -0.1330 -0.1876 -0.0070
 1207COC    COC 1207   5.720   0.627   5.178  0.3898  0.0692  0.0839
 1208COC    COC 1208   5.914   0.537   4.971 -0.2530  0.4776  0.0863
 1209COC    COC 1209   6.172   0.543   5.118  0.1329 -0.5432  0.0106
 1210COC    COC 1210   6.471   0.582   4.990  0.1091  0.1510  0.0917
 1211COC    COC 1211   6.601   0.348   4.882 -0.0995  0.0177 -0.3867
 1212COC    COC 1212   6.894   0.283   4.950 -0.3925 -0.0677  0.2639
 1213COC    COC 1213   7.020   0.031   4.850 -0.4498 -0.4474 -0.1903
 1214COC    COC 1214   7.200  10.218   5.066 -0.1149 -0.4355 -0.3543
 1215COC    COC 1215   7.324  10.030   4.927 -0.4240 -0.4345  0.3591
 1216COC    COC 1216   7.401  10.192   4.693 -0.1239 -0.0886  0.0695
 1217COC    COC 1217   7.548  10.179   4.422 -0.2449  0.1430 -0.1870
 1218COC    COC 1218   7.411  10.242   4.174  0.1384  0.1361  0.5487
 1219COC    COC 1219   7.497   0.178   4.060  0.3762 -0.0424 -0.5356
 1220COC    COC 1220   7.277   0.367   4.151  0.3069  0.5365  0.3207
 1221COC    COC 1221   7.001   0.225   4.020 -0.3462 -0.0646  0.1585
 1222COC    COC 1222   6.837   0.447   3.872  0.0247  0.1043  0.0846
 1223COC    COC 1223   7.021   0.670   3.817  0.1155 -0.4428  0.3844
 1224COC    COC 1224   6.887   0.879   3.965 -0.0701  0.1484 -0.1190
 1225COC    COC 1225   6.651   1.038   4.110  0.0222 -0.0574 -0.0972
 1226COC    COC 1226   6.833   1.271   4.214 -0.3723 -0.0101 -0.0368
 1227COC    COC 1227   6.820   1.557   4.143 -0.1611  0.4906 -0.1254
 1228COC    COC 1228   6.959   1.782   4.047  0.2817  0.3754  0.2204
 1229COC    COC 1229   7.052   1.628   3.771 -0.0032 -0.1971 -0.5084
 1230COC    COC 1230   7.028   1.300   3.836 -0.1650  0.0784 -0.0988
 1231COC    COC 1231   6.746   1.224   3.708 -0.3000 -0.1324 -0.0131
 1232COC    COC 1232   6.780   1.142   3.431 -0.1182  0.2147 -0.0403
 1233COC    COC 1233   6.537   1.043   3.266 -0.0678 -0.2405  0.0058
 1234COC    COC 1234   6.242   1.039   3.372  0.0310 -0.2477 -0.0181
 1235COC    COC 1235   6.012   0.977   3.156 -0.7449  0.1097  0.1735
 1236COC    COC 1236   5.801   0.767   3.192 -0.2985 -0.0936  0.2457
 1237COC    COC 1237   5.612   0.873   3.447 -0.0457 -0.1345  0.1405
 1238COC    COC 1238   5.605   1.112   3.610 -0.1115  0.0325  0.0685
 1239COC    COC 1239   5.429   1.243   3.796  0.4417  0.4698 -0.3512
 1240COC    COC 1240   5.631   1.305   4.015  0.1240 -0.1262  0.1376
 1241COC    COC 1241   5.801   1.075   4.063 -0.0533 -0.1533  0.3188
 1242COH    COH 1242   5.845   0.863   4.211 -0.3761  0.0018  0.1132
 1243COH    COH 1243   6.936   5.617   4.506 -0.0562  0.5538  0.4173
 1244COC    COC 1244   6.689   5.737   4.418 -0.3873  0.1373  0.1916
 1245COC    COC 1245   6.621   5.536   4.264 -0.1886 -0.1940  0.0503
 1246COC    COC 1246   6.404   5.392   4.298  0.0212 -0.0557 -0.0076
 1247COC    COC 1247   6.169   5.527   4.125 -0.1667  0.0332  0.0404
 1248COC    COC 1248   6.024   5.269   4.053  0.1479 -0.2351  0.3293
 1249COC    COC 1249   6.068   5.289   3.775  0.1120 -0.0432  0.1909
 1250COC    COC 1250   5.875   5.356   3.538  0.1388  0.0254  0.1115
 1251COC    COC 1251   5.706   5.537   3.712 -0.3136 -0.0010 -0.0067
 1252COC    COC 1252   5.921   5.751   3.815  0.1733 -0.2650 -0.1445
 1253COC    COC 1253   6.049   5.930   3.999 -0.3830  0.3267  0.1583
 1254COC    COC 1254   6.109   5.909   4.313  0.2866  0.1858 -0.3200
 1255COC    COC 1255   5.812   5.860   4.485 -0.0364 -0.0880  0.0008
 1256COC    COC 1256   5.734   5.654   4.671 -0.2580  0.2983 -0.1932
 1257COC    COC 1257   5.815   5.666   4.957 -0.1488 -0.1424 -0.2227
 1258COC    COC 1258   5.899   5.866   5.148 -0.2823  0.2224  0.2624
 1259COC    COC 1259   5.773   6.072   5.296  0.0791 -0.1278 -0.0612
 1260COC    COC 1260   5.905   6.311   5.402 -0.1520  0.0525 -0.0385
 1261COC    COC 1261   6.178   6.329   5.543  0.2718 -0.0421  0.0536
 1262COC    COC 1262   6.409   6.144   5.565 -0.0920  0.1625  0.0183
 1263COC    COC 1263   6.436   6.013   5.313  0.2287  0.3358 -0.0558
 1264COC    COC 1264   6.336   6.217   5.131 -0.2473 -0.0465  0.1353
 1265COC    COC 1265   6.212   6.473   5.097  0.0130 -0.1346  0.5187
 1266COC    COC 1266   6.265   6.617   4.841  0.0090  0.1963  0.3390
 1267COC    COC 1267   6.185   6.853   4.654  0.1340  0.0010 -0.0679
 1268COC    COC 1268   6.069   6.766   4.370  0.5370  0.1525 -0.3752
 1269COC    COC 1269   6.201   6.910   4.157 -0.0251  0.2148 -0.0310
 1270COC    COC 1270   6.196   7.209   4.067  0.0159  0.0617  0.4300
 1271COC    COC 1271   6.365   7.191   3.790 -0.1164  0.1835  0.0362
 1272COC    COC 1272   6.123   7.240   3.598 -0.1081  0.1727  0.0215
 1273COC    COC 1273   5.840   7.130   3.639 -0.2175 -0.1765 -0.1086
 1274COC    COC 1274   5.764   6.922   3.422  0.1420  0.1258 -0.1530
 1275COC    COC 1275   5.725   6.650   3.564  0.3189  0.4589  0.3939
 1276COC    COC 1276   5.577   6.356   3.595  0.0050 -0.1317 -0.0723
 1277COC    COC 1277   5.579   6.270   3.315 -0.2845 -0.1931  0.0957
 1278COC    COC 1278   5.354   6.393   3.172 -0.2812 -0.2226  0.1021
 1279COC    COC 1279   5.081   6.346   3.216  0.3998 -0.1339  0.2201
 1280COC    COC 1280   4.881   6.468   3.012 -0.4749 -0.2458  0.0890
 1281COC    COC 1281   4.605   6.555   3.122 -0.1109 -0.2023 -0.0265
 1282COC    COC 1282   4.349   6.438   2.985  0.0075  0.3794  0.1645
 1283COC    COC 1283   4.182   6.437   2.694  0.1651  0.0399  0.1469
 1284COC    COC 1284   4.277   6.615   2.463 -0.2179  0.1378 -0.0858
 1285COC    COC 1285   4.439   6.448   2.269 -0.5192  0.1197 -0.4171
 1286COC    COC 1286   4.631   6.592   2.058  0.1293  0.1462 -0.0548
 1287COC    COC 1287   4.525   6.754   1.835  0.0729  0.0494 -0.2810
 1288COH    COH 1288   4.602   7.022   1.865  0.0838  0.0865 -0.1571
 1289COH    COH 1289   1.516   6.529   8.211  0.1020  0.0068  0.2919
 1290COC    COC 1290   1.377   6.331   8.168 -0.2428 -0.0040 -0.1303
 1291COC    COC 1291   1.157   6.404   8.330  0.0321  0.0059  0.0667
 1292COC    COC 1292   1.081   6.721   8.404 -0.2022  0.3086  0.1313
 1293COC    COC 1293   0.971   6.913   8.174 -0.2986  0.5697  0.4380
 1294COC    COC 1294   1.034   7.221   8.189 -0.0211 -0.1294  0.1535
 1295COC    COC 1295   0.961   7.399   7.928 -0.2765 -0.3255  0.0036
 1296COC    COC 1296   1.209   7.482   7.743  0.0331  0.3034 -0.0828
 1297COC    COC 1297   1.474   7.405   7.825  0.1738 -0.0206 -0.1540
 1298COC    COC 1298   1.736   7.500   7.775  0.1054 -0.1898 -0.1741
 1299COC    COC 1299   1.864   7.221   7.757 -0.2914  0.0806  0.1687
 1300COC    COC 1300   1.686   7.089   7.541 -0.2046  0.3036  0.0476
 1301COC    COC 1301   1.649   6.739   7.556 -0.0343 -0.7318 -0.0978
 1302COC    COC 1302   1.528   6.562   7.778 -0.0233  0.0472  0.4013
 1303COC    COC 1303   1.758   6.391   7.870 -0.0853 -0.1639  0.2174
 1304COC    COC 1304   1.921   6.376   8.132 -0.0093 -0.5798  0.2440
 1305COC    COC 1305   1.734   6.265   8.353 -0.2641 -0.0875  0.2091
 1306COC    COC 1306   1.825   5.960   8.398 -0.0160 -0.3978  0.3146
 1307COC    COC 1307   1.892   5.666   8.258  0.5471 -0.2746  0.0971
 1308COC    COC 1308   2.104   5.600   8.069  0.1383  0.1176  0.1758
 1309COC    COC 1309   2.111   5.501   7.768 -0.0138 -0.1806  0.0321
 1310COC    COC 1310   1.938   5.660   7.573  0.3017 -0.0557  0.2994
 1311COC    COC 1311   1.940   5.505   7.310  0.2786  0.0932  0.1875
 1312COC    COC 1312   2.167   5.345   7.381 -0.0034  0.1857  0.0196
 1313COC    COC 1313   2.398   5.370   7.164 -0.1834  0.2657  0.4469
 1314COC    COC 1314   2.382   5.580   6.926 -0.0293 -0.0878 -0.2780
 1315COC    COC 1315   2.505   5.859   6.808  0.1284 -0.3570 -0.2750
 1316COC    COC 1316   2.396   6.098   6.973 -0.0364  0.0686 -0.4022
 1317COC    COC 1317   2.556   6.348   7.111  0.1250 -0.0777  0.0911
 1318COC    COC 1318   2.464   6.665   7.162  0.3135  0.1498 -0.3188
 1319COC    COC 1319   2.558   6.847   7.372  0.5907 -0.4364 -0.2007
 1320COC    COC 1320   2.678   6.747   7.634  0.1826  0.0003 -0.4987
 1321COC    COC 1321   2.549   6.835   7.913  0.2334 -0.0995  0.1908
 1322COC    COC 1322   2.688   7.087   8.055 -0.2276 -0.1059  0.2594
 1323COC    COC 1323   2.743   7.407   8.030 -0.3320 -0.1879  0.2504
 1324COC    COC 1324   3.029   7.447   7.972 -0.1447  0.4894  0.0571
 1325COC    COC 1325   3.279   7.362   7.794 -0.6082  0.1325 -0.0552
 1326COC    COC 1326   3.392   7.587   7.676 -0.1074  0.1063 -0.1839
 1327COC    COC 1327   3.368   7.843   7.829  0.5188 -0.0768  0.0936
 1328COC    COC 1328   3.309   7.878   8.147 -0.0518  0.2538 -0.4156
 1329COC    COC 1329   3.403   7.576   8.226 -0.1685 -0.0064 -0.1729
 1330COC    COC 1330   3.382   7.470   8.533 -0.2280  0.1786  0.1624
 1331COC    COC 1331   3.286   7.310   8.768  0.0474  0.1345 -0.2596
 1332COC    COC 1332   3.197   7.468   8.998 -0.4702 -0.3230 -0.1802
 1333COC    COC 1333   3.321   7.459   9.269 -0.0162 -0.2441  0.2278
 1334COH    COH 1334   3.560   7.376   9.367 -0.3468 -0.4725  0.0979
 1335COH    COH 1335   6.163   1.156   9.341 -0.1823  0.0393  0.1480
 1336COC    COC 1336   6.425   1.082   9.420  0.0053  0.0895  0.2128
 1337COC    COC 1337   6.661   1.303   9.451  0.2491  0.0003  0.0406
 1338COC    COC 1338   6.568   1.579   9.450 -0.0101 -0.3892  0.2337
 1339COC    COC 1339   6.640   1.846   9.313 -0.1047  0.1631  0.1351
 1340COC    COC 1340   6.798   1.946   9.049  0.5414 -0.1010 -0.3866
 1341COC    COC 1341   6.830   2.270   9.041 -0.3432  0.3470  0.0646
 1342COC    COC 1342   6.804   2.587   8.961  0.4115  0.1729 -0.2537
 1343COC    COC 1343   6.630   2.829   9.053  0.0234 -0.4647  0.0815
 1344COC    COC 1344   6.350   2.910   8.971 -0.0556 -0.1459  0.2053
 1345COC    COC 1345   6.292   2.783   8.726  0.2202  0.7528 -0.1590
 1346COC    COC 1346   6.231   2.476   8.661 -0.0392  0.2898  0.0681
 1347COC    COC 1347   5.958   2.369   8.595  0.3554 -0.1146 -0.6487
 1348COC    COC 1348   5.951   2.087   8.463  0.6222  0.2829  0.0918
 1349COC    COC 1349   6.075   2.112   8.206  0.0561 -0.2342 -0.2731
 1350COC    COC 1350   6.010   1.918   7.959 -0.1325  0.0956 -0.1401
 1351COC    COC 1351   5.970   1.612   7.928  0.1283  0.0847  0.0313
 1352COC    COC 1352   6.021   1.434   7.709 -0.0236 -0.0289 -0.0419
 1353COC    COC 1353   6.200   1.205   7.769 -0.2284 -0.3863  0.2894
 1354COC    COC 1354   6.280   1.213   8.081 -0.0852 -0.3016  0.3451
 1355COC    COC 1355   6.500   1.374   8.187  0.1138  0.3892  0.0694
 1356COC    COC 1356   6.731   1.189   8.328  0.5131  0.1706 -0.2502
 1357COC    COC 1357   7.031   1.241   8.324  0.0058 -0.2936 -0.0736
 1358COC    COC 1358   7.143   1.252   8.033  0.2373  0.3029  0.0793
 1359COC    COC 1359   7.341   1.245   7.821 -0.0015 -0.4853 -0.0653
 1360COC    COC 1360   7.639   1.291   7.883  0.0223 -0.0840 -0.2904
 1361COC    COC 1361   7.971   1.291   7.730  0.1425  0.0899 -0.0573
 1362COC    COC 1362   8.090   1.012   7.678 -0.0653  0.0746  0.0892
 1363COC    COC 1363   7.929   0.860   7.467 -0.1876  0.0314  0.5355
 1364COC    COC 1364   8.035   0.567   7.381 -0.1223 -0.0186  0.2232
 1365COC    COC 1365   8.247   0.409   7.225 -0.0571 -0.1926 -0.0426
 1366COC    COC 1366   8.355   0.515   6.956 -0.4869 -0.1247  0.0268
 1367COC    COC 1367   8.080   0.586   6.836  0.0498 -0.1227  0.1774
 1368COC    COC 1368   7.832   0.711   7.032  0.1217 -0.0055 -0.6771
 1369COC    COC 1369   7.589   0.659   7.198  0.0688  0.0326 -0.4714
 1370COC    COC 1370   7.309   0.783   7.333  0.0024 -0.2399 -0.2656
 1371COC    COC 1371   7.125   0.574   7.430  0.2109 -0.1317  0.0905
 1372COC    COC 1372   6.958   0.611   7.184 -0.0064  0.0489  0.1799
 1373COC    COC 1373   6.757   0.787   7.290 -0.2862 -0.1037 -0.1953
 1374COC    COC 1374   6.672   1.076   7.306 -0.1920  0.1493 -0.1622
 1375COC    COC 1375   6.584   1.144   7.564  0.0908 -0.2087  0.3546
 1376COC    COC 1376   6.693   1.153   7.822 -0.1151  0.0217  0.0281
 1377COC    COC 1377   6.629   0.919   7.994  0.0290 -0.2199 -0.0651
 1378COC    COC 1378   6.379   0.815   7.868  0.0394 -0.0627  0.0450
 1379COC    COC 1379   6.332   0.756   7.588  0.2432 -0.1393 -0.2227
 1380COH    COH 1380   6.361   0.882   7.386 -0.3205  0.5382  0.1629
 1381COH    COH 1381   1.333   0.833   9.154 -0.0717  0.2180 -0.2128
 1382COC    COC 1382   1.583   0.720   9.155 -0.0748  0.3579 -0.3981
 1383COC    COC 1383   1.832   0.868   9.298  0.5298 -0.0427  0.2517
 1384COC    COC 1384   1.901   1.141   9.168  0.2006 -0.4655  0.6121
 1385COC    COC 1385   2.175   1.187   9.048 -0.2332 -0.5428 -0.1561
 1386COC    COC 1386   2.311   1.301   8.806 -0.0421 -0.4163 -0.1227
 1387COC    COC 1387   2.205   1.078   8.595  0.1526  0.1201  0.0416
 1388COC    COC 1388   2.062   1.078   8.323 -0.2189 -0.1592  0.2097
 1389COC    COC 1389   1.933   0.838   8.379 -0.1325 -0.0082  0.3924
 1390COC    COC 1390   1.683   0.889   8.564 -0.0304 -0.0911  0.5907
 1391COC    COC 1391   1.467   1.080   8.462  0.0686 -0.1657  0.1561
 1392COC    COC 1392   1.419   1.374   8.499 -0.3115  0.1465  0.0598
 1393COC    COC 1393   1.197   1.604   8.462 -0.2226  0.2094 -0.0088
 1394COC    COC 1394   1.106   1.701   8.163  0.1619 -0.0065 -0.0459
 1395COC    COC 1395   0.815   1.707   8.003 -0.0829 -0.2208  0.0058
 1396COC    COC 1396   0.671   1.423   8.087  0.2396  0.0941  0.2545
 1397COC    COC 1397   0.539   1.289   8.303 -0.2243 -0.2363 -0.1128
 1398COC    COC 1398   0.261   1.415   8.334  0.8910 -0.1083 -0.5324
 1399COC    COC 1399  10.305   1.400   8.245  0.4452  0.0282  0.3336
 1400COC    COC 1400  10.244   1.169   8.041  0.1649 -0.2547  0.2675
 1401COC    COC 1401  10.100   1.077   7.803 -0.1619  0.0561  0.3213
 1402COC    COC 1402  10.179   1.157   7.536 -0.4297 -0.0991 -0.3848
 1403COC    COC 1403  10.153   1.100   7.238  0.3016  0.0459  0.2121
 1404COC    COC 1404  10.032   0.850   7.054  0.1298  0.2363 -0.4682
 1405COC    COC 1405   9.971   0.549   7.103  0.1693  0.0434  0.1510
 1406COC    COC 1406  10.049   0.294   7.259  0.0112 -0.0815  0.0388
 1407COC    COC 1407  10.228   0.044   7.186 -0.4300 -0.3370  0.2552
 1408COC    COC 1408  10.166  10.104   7.067 -0.2898 -0.2097  0.2113
 1409COC    COC 1409   0.001   9.909   6.868  0.1289  0.2456  0.0033
 1410COC    COC 1410   0.241   9.709   6.882 -0.3138 -0.4449 -0.2830
 1411COC    COC 1411   0.283   9.461   7.066  0.2497  0.0364 -0.0607
 1412COC    COC 1412   0.548   9.449   6.907  0.1944  0.2760  0.0429
 1413COC    COC 1413   0.696   9.254   7.073 -0.2018 -0.3697  0.0618
 1414COC    COC 1414   0.577   9.070   7.228 -0.0614 -0.1731  0.0323
 1415COC    COC 1415   0.256   9.024   7.264 -0.1086 -0.1127  0.4121
 1416COC    COC 1416   0.043   9.052   7.071  0.1402 -0.0656 -0.4203
 1417COC    COC 1417   0.156   8.995   6.808 -0.2779  0.3756 -0.2449
 1418COC    COC 1418   0.245   8.744   6.701 -0.0488 -0.0218  0.0997
 1419COC    COC 1419   0.419   8.851   6.436 -0.3867 -0.0606 -0.1442
 1420COC    COC 1420   0.614   8.960   6.251 -0.1016 -0.2225 -0.2911
 1421COC    COC 1421   0.505   9.218   6.102  0.0077 -0.3527 -0.1036
 1422COC    COC 1422   0.581   9.211   5.785  0.1549  0.2542 -0.1911
 1423COC    COC 1423   0.317   9.308   5.673  0.2939 -0.0881 -0.5318
 1424COC    COC 1424   0.388   9.386   5.423 -0.2899 -0.0364 -0.0392
 1425COC    COC 1425   0.333   9.573   5.225  0.1537  0.0284  0.0708
 1426COH    COH 1426   0.384   9.799   5.343  0.0982 -0.2489 -0.1807
 1427COH    COH 1427   5.857   2.257   6.414  0.1566 -0.1538 -0.4013
 1428COC    COC 1428   5.988   2.485   6.475 -0.2665 -0.4268  0.2605
 1429COC    COC 1429   5.814   2.693   6.665 -0.2136 -0.2210  0.2054
 1430COC    COC 1430   5.837   3.010   6.647 -0.1115 -0.1324 -0.0367
 1431COC    COC 1431   5.641   3.097   6.434 -0.3637  0.3226 -0.0194
 1432COC    COC 1432   5.775   3.248   6.217  0.1575  0.5560 -0.4770
 1433COC    COC 1433   5.620   3.162   5.934 -0.7228 -0.2720 -0.2341
 1434COC    COC 1434   5.477   2.910   5.932 -0.1295  0.3511  0.0782
 1435COC    COC 1435   5.487   2.711   6.188  0.2294 -0.0339 -0.3630
 1436COC    COC 1436   5.328   2.801   6.463  0.1477  0.4789  0.3079
 1437COC    COC 1437   5.048   2.833   6.437  0.3123  0.1208  0.3463
 1438COC    COC 1438   4.895   2.895   6.166 -0.2310 -0.1858  0.0943
 1439COC    COC 1439   4.656   3.079   6.257  0.4347 -0.2081 -0.0867
 1440COC    COC 1440   4.341   3.173   6.212  0.1517  0.0177 -0.4968
 1441COC    COC 1441   4.145   3.420   6.210 -0.3915  0.1650  0.2553
 1442COC    COC 1442   3.923   3.545   6.068  0.0153  0.1422  0.1123
 1443COC    COC 1443   3.746   3.600   5.805  0.1743 -0.3929  0.2027
 1444COC    COC 1444   3.720   3.451   5.573 -0.1176  0.1973 -0.0165
 1445COC    COC 1445   3.473   3.465   5.383 -0.3155 -0.1447  0.3155
 1446COC    COC 1446   3.229   3.305   5.276 -0.2452 -0.3527  0.1546
 1447COC    COC 1447   3.032   3.228   5.448  0.7267 -0.0467 -0.2490
 1448COC    COC 1448   2.746   3.287   5.304  0.4989 -0.1567  0.1278
 1449COC    COC 1449   2.521   3.183   5.117  0.1735 -0.2234 -0.1403
 1450COC    COC 1450   2.259   3.369   5.098 -0.2036 -0.2716  0.3101
 1451COC    COC 1451   2.330   3.521   4.858  0.2234  0.1175  0.2741
 1452COC    COC 1452   2.607   3.623   4.794 -0.2635 -0.0486  0.0629
 1453COC    COC 1453   2.571   3.928   4.811  0.3498  0.0037 -0.0929
 1454COC    COC 1454   2.439   4.176   4.749 -0.0935 -0.4071 -0.3691
 1455COC    COC 1455   2.528   4.455   4.791 -0.2524  0.2074 -0.1401
 1456COC    COC 1456   2.763   4.422   4.612 -0.1928  0.0364  0.0748
 1457COC    COC 1457   3.013   4.257   4.727 -0.1012  0.1164  0.2206
 1458COC    COC 1458   3.245   4.301   4.928 -0.5457  0.2010 -0.0636
 1459COC    COC 1459   3.265   4.066   5.146  0.0264 -0.0523 -0.2325
 1460COC    COC 1460   3.404   3.832   5.134  0.0135  0.1129 -0.1821
 1461COC    COC 1461   3.311   3.672   4.912 -0.1725  0.2501 -0.4481
 1462COC    COC 1462   3.202   3.426   4.752  0.0668  0.1618 -0.1276
 1463COC    COC 1463   2.919   3.288   4.843 -0.1875  0.2576  0.0837
 1464COC    COC 1464   2.890   2.985   4.965  0.0178  0.1182  0.0391
 1465COC    COC 1465   3.062   2.742   5.086 -0.4333  0.2926  0.1666
 1466COC    COC 1466   3.133   2.633   5.363  0.1245 -0.6020 -0.1829
 1467COC    COC 1467   3.263   2.853   5.473 -0.0671 -0.0324 -0.1932
 1468COC    COC 1468   3.502   2.816   5.665  0.1691  0.0583 -0.3553
 1469COC    COC 1469   3.523   2.750   5.959 -0.1316 -0.0749  0.2703
 1470COC    COC 1470   3.796   2.750   6.118 -0.0201  0.2236 -0.1317
 1471COC    COC 1471   3.914   2.885   6.367  0.2464  0.0566 -0.0751
 1472COH    COH 1472   3.793   3.011   6.510  0.0394 -0.1682 -0.1056
 1473COH    COH 1473   8.625   1.251   8.170  0.5244 -0.3592 -0.4329
 1474COC    COC 1474   8.813   1.361   8.028 -0.1071 -0.5148  0.0692
 1475COC    COC 1475   9.048   1.552   7.946 -0.3660  0.2902  0.1310
 1476COC    COC 1476   9.153   1.656   8.204  0.0574  0.1930 -0.1389
 1477COC    COC 1477   8.939   1.721   8.389  0.1579  0.2069 -0.1752
 1478COC    COC 1478   8.852   1.976   8.574  0.3683  0.1728 -0.0318
 1479COC    COC 1479   8.660   2.200   8.577  0.4438 -0.0559  0.8274
 1480COC    COC 1480   8.434   2.180   8.769  0.0571 -0.2635 -0.2794
 1481COC    COC 1481   8.192   2.009   8.761 -0.0058  0.0392  0.1014
 1482COC    COC 1482   8.129   1.742   8.845  0.1588  0.3850  0.0657
 1483COC    COC 1483   8.012   1.624   8.599 -0.1063 -0.0561  0.0226
 1484COC    COC 1484   7.787   1.772   8.461 -0.1124  0.0052 -0.2081
 1485COC    COC 1485   7.840   2.056   8.583  0.1868 -0.2755  0.3242
 1486COC    COC 1486   7.756   2.115   8.836 -0.2770 -0.1621 -0.1987
 1487COC    COC 1487   7.782   1.847   9.000 -0.3912  0.1178 -0.1300
 1488COC    COC 1488   7.803   1.521   8.943 -0.1271  0.2306  0.3450
 1489COC    COC 1489   7.740   1.301   8.746 -0.0303  0.2777  0.2087
 1490COC    COC 1490   7.902   1.178   8.544  0.4253  0.4761  0.0354
 1491COC    COC 1491   8.062   0.935   8.512  0.3070  0.0991  0.5107
 1492COC    COC 1492   7.805   0.732   8.516 -0.4840 -0.3242 -0.1136
 1493COC    COC 1493   7.607   0.744   8.753 -0.2448 -0.1819 -0.3113
 1494COC    COC 1494   7.308   0.763   8.635 -0.1000 -0.0462  0.2989
 1495COC    COC 1495   7.083   0.630   8.841 -0.0682  0.1483  0.0633
 1496COC    COC 1496   7.186   0.729   9.089 -0.2882 -0.3776 -0.2213
 1497COC    COC 1497   7.399   0.751   9.309  0.7732 -0.1347 -0.1477
 1498COC    COC 1498   7.459   0.777   9.606  0.5884 -0.1047  0.0741
 1499COC    COC 1499   7.221   0.732   9.733  0.0093 -0.0585 -0.1787
 1500COC    COC 1500   7.013   0.655   9.529 -0.5142 -0.0811 -0.4740
 1501COC    COC 1501   7.049   0.387   9.404 -0.4746  0.2125  0.0104
 1502COC    COC 1502   7.110   0.150   9.218 -0.1410 -0.0029 -0.4160
 1503COC    COC 1503   7.382   0.006   9.233  0.1692 -0.0302 -0.3236
 1504COC    COC 1504   7.490  10.087   9.374  0.2778 -0.0172  0.2424
 1505COC    COC 1505   7.254   9.878   9.290  0.0992 -0.2070 -0.0909
 1506COC    COC 1506   7.155   9.955   9.046  0.3156  0.0737  0.0386
 1507COC    COC 1507   7.267   9.757   8.879  0.0195  0.0241  0.1203
 1508COC    COC 1508   7.172   9.468   8.803  0.0111 -0.5686 -0.2298
 1509COC    COC 1509   6.916   9.379   8.728 -0.0184 -0.5386 -0.0964
 1510COC    COC 1510   6.695   9.570   8.705  0.3231  0.1488  0.2388
 1511COC    COC 1511   6.449   9.508   8.882  0.1822 -0.6854  0.0493
 1512COC    COC 1512   6.220   9.670   8.781  0.0508  0.1206  0.1608
 1513COC    COC 1513   5.953   9.609   8.605  0.0107 -0.0676  0.3019
 1514COC    COC 1514   5.919   9.561   8.318  0.1506  0.2565 -0.0765
 1515COC    COC 1515   5.889   9.781   8.131  0.4323 -0.0145  0.1703
 1516COC    COC 1516   6.099   9.945   7.970  0.2890 -0.0232 -0.6480
 1517COC    COC 1517   6.012  10.211   7.848  0.2269 -0.1673 -0.1988
 1518COH    COH 1518   5.735  10.173   7.924  0.1812  0.6078  0.3205
 1519COH    COH 1519   8.002   4.771   7.048 -0.0012  0.0297 -0.2265
 1520COC    COC 1520   8.208   4.732   6.873 -0.2038 -0.1544 -0.0250
 1521COC    COC 1521   8.019   4.723   6.600  0.1657  0.2295 -0.3387
 1522COC    COC 1522   7.795   4.859   6.581  0.0417 -0.1829 -0.1402
 1523COC    COC 1523   7.636   4.794   6.327  0.0744 -0.5942  0.2255
 1524COC    COC 1524   7.741   4.533   6.269  0.0984  0.1942  0.5390
 1525COC    COC 1525   7.780   4.377   6.534  0.0521 -0.1272 -0.0245
 1526COC    COC 1526   7.730   4.063   6.499  0.1418  0.1342  0.4564
 1527COC    COC 1527   7.940   4.000   6.308 -0.2684  0.2325 -0.0196
 1528COC    COC 1528   8.221   3.985   6.490  0.1525 -0.0542 -0.0525
 1529COC    COC 1529   8.172   4.172   6.738 -0.1745 -0.2584  0.7120
 1530COC    COC 1530   8.196   3.911   6.918  0.1770  0.1421  0.0935
 1531COC    COC 1531   8.202   3.935   7.219 -0.2132  0.2940  0.0348
 1532COC    COC 1532   8.035   3.696   7.316 -0.2290 -0.0691  0.1157
 1533COC    COC 1533   7.771   3.700   7.227 -0.3404 -0.3147  0.4828
 1534COC    COC 1534   7.551   3.636   7.029 -0.0146  0.3113 -0.0340
 1535COC    COC 1535   7.380   3.371   7.017  0.0335 -0.2838  0.0043
 1536COC    COC 1536   7.097   3.236   7.010 -0.5868  0.0447  0.0047
 1537COC    COC 1537   7.085   2.932   6.935  0.2715  0.0843  0.0538
 1538COC    COC 1538   7.232   2.709   6.768 -0.3001 -0.3557  0.3094
 1539COC    COC 1539   7.323   2.653   6.510 -0.3315  0.0484 -0.3545
 1540COC    COC 1540   7.181   2.429   6.357  0.1107  0.0242  0.0429
 1541COC    COC 1541   6.897   2.341   6.320  0.0170  0.3588 -0.0155
 1542COC    COC 1542   6.757   2.270   6.580  0.2400 -0.0917  0.1638
 1543COC    COC 1543   6.580   1.978   6.655 -0.2099 -0.5602 -0.0352
 1544COC    COC 1544   6.623   1.725   6.523  0.0852  0.0715  0.2533
 1545COC    COC 1545   6.606   1.753   6.203 -0.0748  0.3813 -0.0507
 1546COC    COC 1546   6.453   1.665   5.901  0.0398  0.2181  0.3018
 1547COC    COC 1547   6.530   1.358   5.908  0.1308  0.5406 -0.1934
 1548COC    COC 1548   6.521   1.088   6.021  0.2578  0.1431  0.1777
 1549COC    COC 1549   6.530   0.875   5.834  0.1992 -0.0115  0.1013
 1550COC    COC 1550   6.586   0.581   5.840  0.2789  0.1897  0.2669
 1551COC    COC 1551   6.899   0.560   5.764  0.1313 -0.1870 -0.2078
 1552COC    COC 1552   7.068   0.309   5.902  0.4130 -0.2746  0.3066
 1553COC    COC 1553   7.273   0.084   5.823  0.4183  0.1901  0.1598
 1554COC    COC 1554   7.575   0.165   5.908 -0.0765  0.3001  0.3522
 1555COC    COC 1555   7.685   0.415   5.803 -0.3314 -0.0166 -0.1798
 1556COC    COC 1556   7.723   0.675   5.974  0.3205 -0.2127 -0.2580
 1557COC    COC 1557   7.418   0.670   6.041  0.0910 -0.1562 -0.1404
 1558COC    COC 1558   7.376   0.472   6.307  0.1571  0.0965 -0.2359
 1559COC    COC 1559   7.065   0.491   6.417 -0.1717 -0.0649 -0.1968
 1560COC    COC 1560   6.829   0.540   6.216  0.0538 -0.2552 -0.2811
 1561COC    COC 1561   6.849   0.857   6.173  0.2533  0.5226 -0.2335
 1562COC    COC 1562   6.959   0.999   5.933 -0.0981  0.4193 -0.2187
 1563COC    COC 1563   6.994   1.316   5.963  0.1695  0.2867  0.2850
 1564COH    COH 1564   6.885   1.385   5.711 -0.4607  0.5652 -0.0954
 1565COH    COH 1565   6.883   6.759   2.862  0.1845 -0.0660 -0.2834
 1566COC    COC 1566   6.816   6.920   3.104 -0.0240  0.0820 -0.2133
 1567COC    COC 1567   6.852   6.754   3.375  0.2489  0.0584  0.2480
 1568COC    COC 1568   6.991   6.591   3.598 -0.2293 -0.4529 -0.3069
 1569COC    COC 1569   7.291   6.559   3.567 -0.2405 -0.3431  0.0413
 1570COC    COC 1570   7.456   6.294   3.595 -0.2518 -0.1364  0.2192
 1571COC    COC 1571   7.635   6.121   3.398  0.0923 -0.1419 -0.2506
 1572COC    COC 1572   7.454   6.012   3.170 -0.2184  0.1754 -0.1162
 1573COC    COC 1573   7.173   5.892   3.174 -0.0621 -0.2590  0.1354
 1574COC    COC 1574   7.002   5.732   2.985  0.2714 -0.2773  0.1069
 1575COC    COC 1575   6.707   5.713   3.052 -0.1986  0.3844  0.2494
 1576COC    COC 1576   6.705   5.576   3.322  0.1839  0.0610  0.1926
 1577COC    COC 1577   6.828   5.767   3.542  0.2002  0.5066 -0.2943
 1578COC    COC 1578   6.836   5.649   3.811  0.1392  0.2464 -0.2198
 1579COC    COC 1579   6.707   5.368   3.836 -0.2184  0.0818  0.4489
 1580COC    COC 1580   6.455   5.229   3.888 -0.3291 -0.1131  0.3420
 1581COC    COC 1581   6.520   5.034   4.114 -0.3032 -0.2445 -0.1048
 1582COC    COC 1582   6.690   4.906   4.294  0.3562  0.1369  0.2307
 1583COC    COC 1583   6.532   4.930   4.570  0.1552 -0.2746 -0.0260
 1584COC    COC 1584   6.365   5.189   4.661  0.4526 -0.1118  0.2372
 1585COC    COC 1585   6.279   5.272   4.914 -0.1170 -0.0241 -0.1378
 1586COC    COC 1586   6.457   5.118   5.093  0.4557  0.1158 -0.0284
 1587COC    COC 1587   6.734   5.185   5.165  0.4843  0.1766 -0.2415
 1588COC    COC 1588   6.958   5.401   5.134  0.0998  0.0460  0.1320
 1589COC    COC 1589   7.249   5.443   5.034 -0.2738  0.3638  0.1963
 1590COC    COC 1590   7.510   5.228   5.048  0.3147  0.3140 -0.0177
 1591COC    COC 1591   7.746   5.346   4.861  0.1369  0.0170 -0.0993
 1592COC    COC 1592   7.956   5.211   4.616 -0.2589  0.1162 -0.4697
 1593COC    COC 1593   7.847   4.935   4.534 -0.1273 -0.0842 -0.3444
 1594COC    COC 1594   7.693   4.968   4.270 -0.2530  0.2027 -0.2148
 1595COC    COC 1595   7.410   4.950   4.137  0.1958  0.4303 -0.0707
 1596COC    COC 1596   7.340   5.083   3.914  0.3684 -0.4890  0.2548
 1597COC    COC 1597   7.342   4.913   3.641  0.1805  0.0558 -0.2550
 1598COC    COC 1598   7.489   5.089   3.432 -0.1090  0.0525 -0.0631
 1599COC    COC 1599   7.482   5.083   3.126  0.0401 -0.4600  0.1219
 1600COC    COC 1600   7.566   5.214   2.851 -0.0397  0.0635  0.0797
 1601COC    COC 1601   7.849   5.263   2.962  0.2779 -0.1218 -0.4156
 1602COC    COC 1602   8.151   5.296   2.984  0.6313 -0.2061 -0.3014
 1603COC    COC 1603   8.318   5.056   2.875 -0.0259 -0.4164 -0.4912
 1604COC    COC 1604   8.560   5.059   3.052  0.0604 -0.0877  0.0890
 1605COC    COC 1605   8.673   5.221   3.247  0.2246 -0.0864 -0.3906
 1606COC    COC 1606   8.416   5.358   3.302 -0.0546 -0.3375  0.3541
 1607COC    COC 1607   8.308   5.598   3.420  0.3644 -0.1300  0.0396
 1608COC    COC 1608   8.030   5.613   3.359 -0.3162 -0.0313  0.1495
 1609COC    COC 1609   7.827   5.781   3.213  0.2379 -0.0353 -0.5077
 1610COH    COH 1610   7.950   5.986   3.155  0.0073 -0.0029  0.0832
 1611COH    COH 1611  10.033   0.409   8.953 -0.0421 -0.2125 -0.2193
 1612COC    COC 1612  10.254   0.517   8.992 -0.1402 -0.1474  0.1133
 1613COC    COC 1613   0.164   0.645   8.828 -0.1875  0.0144 -0.6130
 1614COC    COC 1614   0.170   0.896   8.670 -0.0471 -0.2092  0.0479
 1615COC    COC 1615   0.354   1.146   8.673 -0.0452 -0.1762 -0.1105
 1616COC    COC 1616   0.669   1.196   8.724 -0.0766 -0.0798 -0.2600
 1617COC    COC 1617   0.695   1.485   8.730 -0.2836 -0.3386  0.0560
 1618COC    COC 1618   0.397   1.609   8.707 -0.1788  0.1834  0.0239
 1619COC    COC 1619   0.458   1.758   8.463  0.2299 -0.2084 -0.2222
 1620COC    COC 1620   0.383   1.773   8.166 -0.0799  0.2084  0.5008
 1621COC    COC 1621   0.445   1.868   7.879 -0.1941 -0.2707 -0.2152
 1622COC    COC 1622   0.663   2.111   7.870 -0.0834  0.0713 -0.0788
 1623COC    COC 1623   0.604   2.243   7.572 -0.1190 -0.1567 -0.4110
 1624COC    COC 1624   0.308   2.255   7.477 -0.0885  0.1063  0.2593
 1625COC    COC 1625   0.031   2.370   7.598  0.0430 -0.0365  0.3413
 1626COC    COC 1626  10.182   2.591   7.665 -0.3787  0.4186  0.1725
 1627COC    COC 1627   9.968   2.576   7.895 -0.0951 -0.0474  0.2661
 1628COC    COC 1628   9.998   2.517   8.211  0.1779  0.3168  0.1382
 1629COC    COC 1629   9.727   2.557   8.370  0.2613  0.5049  0.3888
 1630COC    COC 1630   9.467   2.440   8.274  0.4086 -0.2979 -0.0591
 1631COC    COC 1631   9.402   2.249   8.063  0.2889  0.1356 -0.3005
 1632COC    COC 1632   9.651   2.273   7.883 -0.1883  0.0845  0.4159
 1633COC    COC 1633   9.667   2.358   7.600  0.0114 -0.1512 -0.2588
 1634COC    COC 1634   9.349   2.378   7.563 -0.3582 -0.1963  0.1323
 1635COC    COC 1635   9.183   2.199   7.350  0.2262  0.4551 -0.0746
 1636COC    COC 1636   8.907   2.124   7.308 -0.1440  0.2368 -0.2189
 1637COC    COC 1637   8.784   2.066   7.576  0.0926 -0.0864  0.2178
 1638COC    COC 1638   8.817   2.312   7.747 -0.0593  0.0894 -0.1336
 1639COC    COC 1639   8.597   2.407   7.968  0.0313 -0.5329  0.3743
 1640COC    COC 1640   8.636   2.407   8.226 -0.2787 -0.1667  0.1493
 1641COC    COC 1641   8.770   2.633   8.332 -0.0707 -0.0126 -0.0964
 1642COC    COC 1642   8.553   2.833   8.335  0.2527 -0.1894 -0.7468
 1643COC    COC 1643   8.288   2.786   8.219 -0.2332  0.0313 -0.1037
 1644COC    COC 1644   8.242   2.870   7.951 -0.0873  0.1070  0.2859
 1645COC    COC 1645   8.012   3.006   7.919  0.0511 -0.2598 -0.2079
 1646COC    COC 1646   7.851   3.219   7.821  0.2302 -0.1319  0.0865
 1647COC    COC 1647   7.929   3.528   7.801 -0.0407  0.0025 -0.2583
 1648COC    COC 1648   8.099   3.713   8.013  0.0432  0.1104  0.0178
 1649COC    COC 1649   8.385   3.708   8.076  0.1030 -0.0813  0.2644
 1650COC    COC 1650   8.649   3.868   8.004 -0.3594  0.1881  0.0037
 1651COC    COC 1651   8.670   4.158   7.878  0.2340  0.0821  0.0265
 1652COC    COC 1652   8.655   4.394   8.071 -0.0350  0.2641 -0.1077
 1653COC    COC 1653   8.664   4.669   7.973  0.0630 -0.3596 -0.1628
 1654COC    COC 1654   8.559   4.928   7.825 -0.3551 -0.0549  0.4083
 1655COC    COC 1655   8.823   5.051   7.680 -0.1648  0.1226  0.1577
 1656COH    COH 1656   9.008   4.860   7.666 -0.3805 -0.0901 -0.0450
 1657COH    COH 1657   7.066   9.796   3.645 -0.0068  0.0787 -0.1337
 1658COC    COC 1658   7.021   9.541   3.668  0.5720 -0.4905  0.0273
 1659COC    COC 1659   6.794   9.452   3.845 -0.6254 -0.2423  0.3957
 1660COC    COC 1660   6.562   9.426   3.585 -0.2198  0.0422  0.2641
 1661COC    COC 1661   6.324   9.467   3.388 -0.1955  0.2612  0.0220
 1662COC    COC 1662   6.033   9.592   3.439 -0.0420 -0.2318  0.6650
 1663COC    COC 1663   6.067   9.741   3.685 -0.2180 -0.0542  0.3537
 1664COC    COC 1664   6.158   9.636   3.964 -0.1225 -0.2505 -0.4345
 1665COC    COC 1665   6.350   9.401   3.999  0.0915 -0.0132 -0.0128
 1666COC    COC 1666   6.548   9.361   4.201 -0.1080 -0.1102 -0.0865
 1667COC    COC 1667   6.797   9.550   4.265 -0.2375 -0.0547  0.0458
 1668COC    COC 1668   6.807   9.597   4.562 -0.0309 -0.1965  0.1372
 1669COC    COC 1669   6.571   9.770   4.628 -0.0484 -0.3827 -0.2424
 1670COC    COC 1670   6.346   9.914   4.814 -0.1339 -0.1736 -0.1540
 1671COC    COC 1671   6.080   9.779   4.884 -0.0433  0.0118  0.0527
 1672COC    COC 1672   5.990   9.487   4.898 -0.2950  0.0680  0.2844
 1673COC    COC 1673   5.871   9.280   4.686 -0.0088  0.0869 -0.1083
 1674COC    COC 1674   5.853   9.357   4.384 -0.0967 -0.1614  0.1547
 1675COC    COC 1675   6.047   9.226   4.217  0.3633 -0.0048  0.0167
 1676COC    COC 1676   6.095   8.960   4.066  0.2937  0.0503 -0.4250
 1677COC    COC 1677   6.064   8.710   4.160  0.0413 -0.0062  0.1126
 1678COC    COC 1678   6.210   8.495   4.071 -0.2085  0.2467 -0.0542
 1679COC    COC 1679   6.049   8.363   3.833  0.4503 -0.0553 -0.4455
 1680COC    COC 1680   5.725   8.463   3.934 -0.0507 -0.0641 -0.1094
 1681COC    COC 1681   5.559   8.633   3.783  0.0439  0.5682 -0.0196
 1682COC    COC 1682   5.352   8.793   3.958 -0.2845  0.1823  0.5073
 1683COC    COC 1683   5.314   9.022   4.201 -0.3356  0.2064 -0.1025
 1684COC    COC 1684   5.348   9.345   4.311  0.0180  0.3052  0.1029
 1685COC    COC 1685   5.131   9.481   4.490 -0.1967 -0.2890 -0.1956
 1686COC    COC 1686   5.147   9.669   4.748  0.2262 -0.0571  0.0178
 1687COC    COC 1687   5.052   9.911   4.589  0.0614  0.0728  0.3299
 1688COC    COC 1688   4.737   9.897   4.550 -0.2098  0.0158 -0.1677
 1689COC    COC 1689   4.600   9.626   4.623  0.0431 -0.0186 -0.0735
 1690COC    COC 1690   4.734   9.377   4.736 -0.1338  0.2271 -0.1500
 1691COC    COC 1691   4.608   9.218   4.966  0.1262  0.2838  0.2398
 1692COC    COC 1692   4.352   9.154   5.097 -0.0153 -0.1066  0.3172
 1693COC    COC 1693   4.258   8.907   5.216 -0.1386 -0.0532  0.1976
 1694COC    COC 1694   4.373   8.681   5.368 -0.3396 -0.4105 -0.1500
 1695COC    COC 1695   4.586   8.543   5.542  0.0594 -0.1660 -0.1003
 1696COC    COC 1696   4.807   8.680   5.630  0.0549 -0.1976  0.1716
 1697COC    COC 1697   4.920   8.636   5.909 -0.0460  0.1799  0.0692
 1698COC    COC 1698   5.163   8.611   6.121 -0.2517  0.0721  0.1461
 1699COC    COC 1699   5.451   8.694   5.977  0.1941 -0.1292  0.2766
 1700COC    COC 1700   5.673   8.886   5.859  0.4223 -0.2520  0.1749
 1701COC    COC 1701   5.570   9.085   5.634  0.0478  0.0965 -0.0013
 1702COH    COH 1702   5.562   9.296   5.779  0.4624 -0.1107 -0.2565
 1703COH    COH 1703   3.347   2.650   2.714  0.0819 -0.2782  0.0500
 1704COC    COC 1704   3.123   2.758   2.809  0.3379 -0.2310  0.1741
 1705COC    COC 1705   2.973   3.044   2.849 -0.0914 -0.1264 -0.0362
 1706COC    COC 1706   2.755   3.132   2.623 -0.0656  0.5229 -0.0651
 1707COC    COC 1707   2.409   3.147   2.728 -0.2614  0.1977  0.0681
 1708COC    COC 1708   2.287   3.144   2.974  0.1096 -0.1519 -0.5626
 1709COC    COC 1709   2.236   3.354   3.147  0.1123  0.0568 -0.0194
 1710COC    COC 1710   2.045   3.598   3.079  0.2793 -0.3594  0.0488
 1711COC    COC 1711   1.754   3.495   3.078 -0.0660  0.0370  0.0733
 1712COC    COC 1712   1.519   3.636   2.959  0.0996 -0.0837 -0.2879
 1713COC    COC 1713   1.264   3.640   3.088  0.2075 -0.0392 -0.2052
 1714COC    COC 1714   1.133   3.859   3.223 -0.0932 -0.1320  0.1467
 1715COC    COC 1715   1.126   3.748   3.505  0.0848 -0.1419  0.4096
 1716COC    COC 1716   1.292   3.523   3.598  0.1031  0.1715  0.2921
 1717COC    COC 1717   1.593   3.483   3.541  0.0369  0.0708  0.0662
 1718COC    COC 1718   1.844   3.421   3.660  0.0827  0.0814  0.0215
 1719COC    COC 1719   1.767   3.312   3.947 -0.1650 -0.3358 -0.5662
 1720COC    COC 1720   1.789   3.499   4.188  0.2909 -0.0744 -0.1288
 1721COC    COC 1721   1.490   3.630   4.227 -0.1492 -0.2300  0.3779
 1722COC    COC 1722   1.370   3.710   3.951 -0.1106 -0.5858 -0.0810
 1723COC    COC 1723   1.075   3.574   3.941  0.1785  0.0862  0.0139
 1724COC    COC 1724   0.779   3.593   4.110 -0.1624 -0.1232 -0.0727
 1725COC    COC 1725   0.617   3.768   4.333  0.2629 -0.1011  0.1282
 1726COC    COC 1726   0.516   4.024   4.332  0.4194  0.0244 -0.2269
 1727COC    COC 1727   0.531   4.246   4.148 -0.3025 -0.0775 -0.1662
 1728COC    COC 1728   0.539   4.558   4.200 -0.0515 -0.0129 -0.1877
 1729COC    COC 1729   0.610   4.830   4.087 -0.0664 -0.1458 -0.1271
 1730COC    COC 1730   0.729   5.062   4.273 -0.0357  0.7549  0.4113
 1731COC    COC 1731   0.685   5.169   4.549 -0.2014 -0.4736  0.1364
 1732COC    COC 1732   0.708   5.474   4.605  0.0324  0.2142 -0.1623
 1733COC    COC 1733   0.953   5.696   4.625  0.2194  0.1032 -0.0634
 1734COC    COC 1734   1.140   5.594   4.445 -0.0064 -0.1086 -0.1295
 1735COC    COC 1735   1.215   5.301   4.548  0.0485  0.1983  0.3064
 1736COC    COC 1736   1.111   5.027   4.456 -0.0822  0.4125 -0.0593
 1737COC    COC 1737   1.236   4.801   4.597 -0.0583  0.3872  0.4360
 1738COC    COC 1738   1.501   4.794   4.708  0.4391 -0.0549  0.1728
 1739COC    COC 1739   1.778   4.895   4.628 -0.2797  0.0903 -0.2065
 1740COC    COC 1740   2.023   4.805   4.408  0.0696 -0.3135  0.0151
 1741COC    COC 1741   1.840   4.690   4.190 -0.4313 -0.1118  0.2525
 1742COC    COC 1742   1.650   4.840   4.039 -0.2539 -0.4012  0.1181
 1743COC    COC 1743   1.513   4.714   3.766  0.3214 -0.1663  0.2360
 1744COC    COC 1744   1.268   4.554   3.753  0.0339  0.0780  0.0017
 1745COC    COC 1745   1.225   4.497   3.461  0.2650 -0.2782  0.1369
 1746COC    COC 1746   1.009   4.499   3.299  0.1395  0.2101 -0.1663
 1747COC    COC 1747   0.803   4.671   3.442 -0.2552 -0.2028 -0.3782
 1748COH    COH 1748   0.737   4.809   3.665 -0.3557  0.0642  0.1644
 1749COH    COH 1749  10.008   6.639   2.740 -0.2339 -0.2411 -0.0263
 1750COC    COC 1750   9.941   6.617   2.949 -0.1199 -0.0443 -0.3272
 1751COC    COC 1751   9.844   6.417   3.147 -0.2122 -0.0272 -0.3097
 1752COC    COC 1752  10.084   6.391   3.339 -0.1064  0.2223  0.1610
 1753COC    COC 1753  10.201   6.074   3.366  0.0134 -0.0245 -0.3600
 1754COC    COC 1754  10.004   5.891   3.440 -0.0734 -0.0682  0.2890
 1755COC    COC 1755  10.169   5.662   3.556  0.2125 -0.0939  0.2031
 1756COC    COC 1756   0.105   5.759   3.539  0.0393 -0.1502 -0.2945
 1757COC    COC 1757   0.341   5.575   3.466  0.0190  0.2629 -0.2228
 1758COC    COC 1758   0.281   5.285   3.554 -0.0538 -0.2349  0.0253
 1759COC    COC 1759   0.329   5.073   3.336  0.3874  0.0128  0.0423
 1760COC    COC 1760   0.051   5.146   3.192 -0.0530 -0.0808 -0.2032
 1761COC    COC 1761  10.270   5.263   2.901 -0.0278  0.1641  0.2622
 1762COC    COC 1762  10.227   5.053   2.677  0.2111 -0.0970  0.0395
 1763COC    COC 1763  10.012   4.965   2.483  0.1611  0.4714  0.1033
 1764COC    COC 1764  10.109   4.990   2.188 -0.0979 -0.3842  0.0418
 1765COC    COC 1765  10.025   4.883   1.898  0.0630 -0.0384  0.0425
 1766COC    COC 1766  10.118   4.632   1.752 -0.0111  0.3028  0.2664
 1767COC    COC 1767  10.242   4.619   1.500 -0.1485 -0.5904 -0.2177
 1768COC    COC 1768  10.248   4.937   1.352 -0.0382 -0.0318  0.1705
 1769COC    COC 1769   0.128   5.044   1.502 -0.2944 -0.0393  0.2707
 1770COC    COC 1770   0.255   4.862   1.684  0.2955 -0.0129  0.1217
 1771COC    COC 1771   0.184   4.809   1.948  0.1129  0.1012 -0.3815
 1772COC    COC 1772   0.096   4.532   2.045 -0.0898 -0.0365 -0.1975
 1773COC    COC 1773  10.161   4.524   2.165  0.1494 -0.5647  0.2498
 1774COC    COC 1774  10.064   4.477   2.423 -0.1261 -0.1380 -0.2468
 1775COC    COC 1775   9.830   4.418   2.577 -0.5135 -0.2816 -0.2379
 1776COC    COC 1776   9.815   4.498   2.834  0.3438 -0.0606  0.0304
 1777COC    COC 1777   9.599   4.629   3.041 -0.1125 -0.1643  0.5694
 1778COC    COC 1778   9.721   4.681   3.325  0.2169 -0.2877 -0.2883
 1779COC    COC 1779   9.630   4.623   3.624 -0.4760  0.1544  0.3190
 1780COC    COC 1780   9.686   4.855   3.821  0.2740 -0.0704 -0.2696
 1781COC    COC 1781   9.986   4.749   3.866 -0.1522 -0.1459  0.1717
 1782COC    COC 1782  10.059   4.525   3.648 -0.2990 -0.1312 -0.0369
 1783COC    COC 1783  10.002   4.243   3.660  0.2713 -0.1702  0.2433
 1784COC    COC 1784  10.108   4.002   3.803 -0.1430  0.1056  0.1978
 1785COC    COC 1785   9.975   3.944   4.059 -0.1952 -0.0021  0.1448
 1786COC    COC 1786   9.986   3.668   4.073  0.1236  0.2407  0.1942
 1787COC    COC 1787  10.183   3.436   4.093 -0.0626 -0.1949  0.1388
 1788COC    COC 1788   0.005   3.374   3.808 -0.0303 -0.3081  0.0281
 1789COC    COC 1789   0.193   3.596   3.672 -0.1836  0.0842  0.3825
 1790COC    COC 1790   0.498   3.631   3.782  0.3082  0.1874 -0.2984
 1791COC    COC 1791   0.739   3.462   3.646  0.0988  0.4302  0.2802
 1792COC    COC 1792   0.622   3.373   3.419 -0.0726 -0.0241  0.0794
 1793COC    COC 1793   0.728   3.551   3.194 -0.0667 -0.3879  0.1174
 1794COH    COH 1794   0.628   3.775   3.343  0.3079  0.4390  0.3144
 1795COH    COH 1795   6.948   4.120   7.920  0.3160 -0.7847  0.0975
 1796COC    COC 1796   7.115   4.276   8.061  0.2456 -0.3107 -0.2555
 1797COC    COC 1797   7.362   4.078   8.114  0.1768  0.1522  0.1739
 1798COC    COC 1798   7.666   4.081   8.080 -0.1955  0.3707  0.0204
 1799COC    COC 1799   7.707   3.872   7.891 -0.2362 -0.1709 -0.1736
 1800COC    COC 1800   7.698   3.867   7.575 -0.0899 -0.0171 -0.0126
 1801COC    COC 1801   7.736   4.109   7.378  0.0585  0.1832 -0.2818
 1802COC    COC 1802   7.597   4.394   7.363 -0.0024  0.0808 -0.2875
 1803COC    COC 1803   7.721   4.667   7.457  0.3977  0.0380 -0.3146
 1804COC    COC 1804   7.660   4.867   7.289  0.0844 -0.2643 -0.3652
 1805COC    COC 1805   7.356   4.897   7.267 -0.1828 -0.0735  0.3804
 1806COC    COC 1806   7.271   5.181   7.222 -0.0454 -0.2539  0.0219
 1807COC    COC 1807   7.328   5.336   7.466 -0.0771  0.1098 -0.2674
 1808COC    COC 1808   7.429   5.597   7.344 -0.2367  0.2005 -0.3110
 1809COC    COC 1809   7.688   5.598   7.157 -0.4366  0.3413 -0.0300
 1810COC    COC 1810   7.607   5.800   6.961 -0.0448  0.4484 -0.2264
 1811COC    COC 1811   7.304   5.821   6.826  0.0998 -0.1471  0.1955
 1812COC    COC 1812   7.183   5.654   6.625 -0.0193  0.0874 -0.3240
 1813COC    COC 1813   7.239   5.422   6.463  0.1823  0.0924  0.3008
 1814COC    COC 1814   6.970   5.336   6.377  0.0476 -0.0803  0.0032
 1815COC    COC 1815   6.716   5.449   6.498  0.0834 -0.0666  0.1925
 1816COC    COC 1816   6.677   5.659   6.263 -0.3500 -0.1458 -0.1285
 1817COC    COC 1817   6.831   5.892   6.379 -0.1013  0.0859 -0.0269
 1818COC    COC 1818   7.132   5.964   6.328  0.0149  0.1604 -0.0786
 1819COC    COC 1819   7.288   6.145   6.514  0.1560 -0.2871 -0.0927
 1820COC    COC 1820   7.304   6.441   6.448 -0.0439  0.1266 -0.5445
 1821COC    COC 1821   7.198   6.576   6.161 -0.0389  0.2089  0.1084
 1822COC    COC 1822   7.127   6.344   5.960  0.0595 -0.0568 -0.1384
 1823COC    COC 1823   6.890   6.136   5.941  0.1850 -0.3231  0.4423
 1824COC    COC 1824   6.840   6.226   5.639  0.0046 -0.1287  0.1013
 1825COC    COC 1825   6.939   6.185   5.316 -0.2507  0.2094 -0.2515
 1826COC    COC 1826   6.745   6.394   5.203  0.4508 -0.3773 -0.4124
 1827COC    COC 1827   6.702   6.622   4.993 -0.2861  0.1114 -0.0155
 1828COC    COC 1828   6.951   6.538   4.859  0.0148 -0.3553  0.2394
 1829COC    COC 1829   7.043   6.246   4.902 -0.2564  0.3086 -0.0729
 1830COC    COC 1830   7.303   6.141   4.796  0.1337  0.2477  0.0115
 1831COC    COC 1831   7.449   6.403   4.720  0.0395 -0.2860 -0.0494
 1832COC    COC 1832   7.626   6.563   4.881  0.1463  0.4004 -0.0318
 1833COC    COC 1833   7.767   6.645   5.149 -0.2822  0.0873  0.3813
 1834COC    COC 1834   7.876   6.820   5.343 -0.2259 -0.4215  0.2596
 1835COC    COC 1835   7.976   6.775   5.610 -0.2168 -0.0131  0.0933
 1836COC    COC 1836   7.820   6.866   5.882  0.2004  0.1528  0.1770
 1837COC    COC 1837   7.901   7.034   6.090 -0.1280  0.2412  0.2351
 1838COC    COC 1838   8.022   6.871   6.339 -0.1115  0.0501  0.1395
 1839COC    COC 1839   8.293   6.721   6.393 -0.2767 -0.2316 -0.0349
 1840COH    COH 1840   8.205   6.441   6.371  0.3975 -0.1359 -0.2192
 1841COH    COH 1841   9.750   9.291   7.472  0.2155 -0.4690 -0.0447
 1842COC    COC 1842   9.905   9.304   7.692 -0.0313  0.3608 -0.2641
 1843COC    COC 1843   9.999   9.007   7.759  0.3805 -0.3328 -0.2191
 1844COC    COC 1844  10.111   8.847   7.549  0.6483 -0.1715 -0.1367
 1845COC    COC 1845   9.960   8.610   7.481  0.0530  0.4135 -0.0370
 1846COC    COC 1846   9.946   8.286   7.513 -0.0076  0.0020 -0.3998
 1847COC    COC 1847   9.709   8.236   7.289 -0.3420 -0.5329 -0.0648
 1848COC    COC 1848   9.454   8.220   7.430 -0.1800 -0.1083 -0.0646
 1849COC    COC 1849   9.306   8.321   7.715  0.1740  0.2987  0.3382
 1850COC    COC 1850   8.980   8.313   7.661  0.3839  0.1781  0.1322
 1851COC    COC 1851   8.728   8.113   7.574 -0.0426 -0.3720  0.1554
 1852COC    COC 1852   8.563   8.359   7.451 -0.1584  0.2121  0.2057
 1853COC    COC 1853   8.705   8.521   7.243 -0.1468 -0.3649  0.0918
 1854COC    COC 1854   8.742   8.311   7.001 -0.2641  0.0164  0.1393
 1855COC    COC 1855   8.996   8.226   6.866  0.2664  0.4924  0.2674
 1856COC    COC 1856   9.167   8.410   6.679 -0.1249 -0.1024  0.2224
 1857COC    COC 1857   9.176   8.663   6.846  0.0813  0.1714 -0.2029
 1858COC    COC 1858   9.409   8.910   6.852 -0.0494 -0.2342 -0.0330
 1859COC    COC 1859   9.559   9.107   7.033 -0.1909 -0.1567  0.0538
 1860COC    COC 1860   9.675   9.387   6.980 -0.2445 -0.5581  0.0316
 1861COC    COC 1861   9.705   9.515   6.708 -0.1465 -0.1605 -0.5405
 1862COC    COC 1862   9.926   9.761   6.790 -0.3482  0.1234  0.0223
 1863COC    COC 1863   9.994   9.681   7.079  0.1182  0.3715 -0.2326
 1864COC    COC 1864  10.179   9.450   7.114 -0.2397  0.1827  0.2011
 1865COC    COC 1865  10.169   9.392   7.402 -0.1111 -0.1877 -0.1426
 1866COC    COC 1866   0.130   9.394   7.575 -0.0665  0.4875  0.0048
 1867COC    COC 1867   0.300   9.382   7.806  0.2011 -0.0203 -0.3076
 1868COC    COC 1868   0.273   9.486   8.112  0.0964  0.1595  0.0794
 1869COC    COC 1869   0.111   9.271   8.268 -0.3111 -0.3607 -0.3329
 1870COC    COC 1870  10.135   9.260   8.198 -0.1138 -0.0921 -0.4797
 1871COC    COC 1871   9.927   9.491   8.213  0.1427  0.0447 -0.3393
 1872COC    COC 1872  10.120   9.605   8.427 -0.3270 -0.3129 -0.0625
 1873COC    COC 1873   0.048   9.557   8.631  0.2679  0.3907 -0.0438
 1874COC    COC 1874   0.282   9.732   8.708 -0.3321  0.4342  0.1786
 1875COC    COC 1875   0.262  10.018   8.743 -0.0136 -0.3611 -0.5711
 1876COC    COC 1876   0.423  10.148   8.510 -0.0704  0.0979  0.0781
 1877COC    COC 1877   0.506   9.989   8.285  0.4575  0.1183  0.0321
 1878COC    COC 1878   0.662   9.884   8.044  0.0052  0.2112 -0.2479
 1879COC    COC 1879   0.652   9.590   7.978  0.3250 -0.2817 -0.0530
 1880COC    COC 1880   0.854   9.381   7.870  0.0201 -0.2955 -0.3034
 1881COC    COC 1881   1.038   9.333   7.651  0.4587  0.2133 -0.1101
 1882COC    COC 1882   1.353   9.278   7.740  0.2327  0.0790 -0.3583
 1883COC    COC 1883   1.475   9.015   7.729  0.0500 -0.0212 -0.1760
 1884COC    COC 1884   1.655   8.869   7.487 -0.5289  0.4029  0.2116
 1885COC    COC 1885   1.899   9.022   7.388 -0.1516 -0.0059 -0.0860
 1886COH    COH 1886   1.787   9.236   7.399  0.0953  0.0348 -0.5058
 1887COH    COH 1887   2.862   5.759   7.543 -0.1188  0.0661  0.0404
 1888COC    COC 1888   3.000   5.924   7.694  0.3506 -0.0220 -0.1471
 1889COC    COC 1889   2.850   5.957   7.954  0.3097  0.2190 -0.1782
 1890COC    COC 1890   2.761   5.782   8.203  0.3661 -0.3947 -0.1216
 1891COC    COC 1891   2.986   5.795   8.392 -0.1815  0.2970 -0.0768
 1892COC    COC 1892   3.272   5.941   8.451 -0.3355 -0.0929 -0.0280
 1893COC    COC 1893   3.577   5.874   8.368 -0.0888 -0.2933 -0.0375
 1894COC    COC 1894   3.707   5.600   8.310  0.1827 -0.1980 -0.5082
 1895COC    COC 1895   3.554   5.337   8.371 -0.1566  0.3638 -0.4044
 1896COC    COC 1896   3.739   5.168   8.557 -0.0797  0.1941 -0.2815
 1897COC    COC 1897   4.000   5.187   8.739  0.0931 -0.2075 -0.0382
 1898COC    COC 1898   4.068   5.251   9.051 -0.4571  0.2995  0.1717
 1899COC    COC 1899   4.328   5.123   9.165  0.1909 -0.1192 -0.3032
 1900COC    COC 1900   4.629   5.172   9.103  0.1436  0.1961  0.2453
 1901COC    COC 1901   4.839   5.364   9.020  0.1172  0.2109 -0.4650
 1902COC    COC 1902   4.955   5.312   8.713  0.2051 -0.2181 -0.2561
 1903COC    COC 1903   5.108   5.072   8.644 -0.0350 -0.0364 -0.0798
 1904COC    COC 1904   4.929   4.909   8.519  0.1772 -0.0358 -0.2022
 1905COC    COC 1905   4.674   4.805   8.628  0.2609 -0.1571  0.4989
 1906COC    COC 1906   4.405   4.974   8.732 -0.0317  0.1044 -0.1923
 1907COC    COC 1907   4.207   4.731   8.836  0.0460  0.2608  0.1005
 1908COC    COC 1908   4.058   4.476   8.666 -0.1448  0.1976 -0.3870
 1909COC    COC 1909   4.118   4.485   8.422 -0.2772 -0.2487  0.3651
 1910COC    COC 1910   4.365   4.606   8.276  0.1440 -0.0870 -0.0582
 1911COC    COC 1911   4.603   4.502   8.156  0.1408 -0.2253  0.1707
 1912COC    COC 1912   4.509   4.196   8.180  0.3446 -0.0557 -0.1475
 1913COC    COC 1913   4.474   4.071   8.458  0.0587 -0.1119  0.0758
 1914COC    COC 1914   4.494   3.785   8.455 -0.1097 -0.3073  0.0847
 1915COC    COC 1915   4.372   3.550   8.611 -0.3878 -0.1131 -0.2173
 1916COC    COC 1916   4.082   3.515   8.636  0.0219  0.0731 -0.1414
 1917COC    COC 1917   4.003   3.474   8.945 -0.0446 -0.3769  0.4277
 1918COC    COC 1918   4.264   3.488   9.134  0.1470 -0.0650  0.1083
 1919COC    COC 1919   4.447   3.226   9.130  0.2076 -0.0105  0.3733
 1920COC    COC 1920   4.423   2.972   9.257 -0.0805 -0.2538  0.1797
 1921COC    COC 1921   4.283   2.732   9.136 -0.3090  0.0785  0.2716
 1922COC    COC 1922   4.398   2.640   8.848 -0.4933  0.0939  0.4997
 1923COC    COC 1923   4.688   2.651   8.774  0.1336 -0.0625 -0.0438
 1924COC    COC 1924   4.929   2.444   8.918 -0.0344 -0.0527 -0.0069
 1925COC    COC 1925   5.164   2.277   9.047  0.0033 -0.0525 -0.1881
 1926COC    COC 1926   5.123   1.994   9.111 -0.2100  0.3170 -0.2723
 1927COC    COC 1927   5.206   1.705   9.001 -0.1108 -0.4370  0.3139
 1928COC    COC 1928   5.158   1.435   9.142  0.1583  0.1773 -0.2209
 1929COC    COC 1929   5.127   1.305   9.405  0.0838 -0.2244 -0.0300
 1930COC    COC 1930   5.377   1.129   9.542  0.3461 -0.2201 -0.2763
 1931COC    COC 1931   5.252   0.926   9.721  0.0125 -0.1264 -0.0424
 1932COH    COH 1932   5.432   0.719   9.778  0.5546 -0.2089 -0.4759
 1933COH    COH 1933   0.439   4.621   8.540  0.1001 -0.0358 -0.4064
 1934COC    COC 1934   0.372   4.893   8.631  0.1009  0.0623 -0.0240
 1935COC    COC 1935   0.103   5.023   8.658  0.2522 -0.0986  0.0100
 1936COC    COC 1936   0.205   5.192   8.418  0.0373 -0.1385  0.1240
 1937COC    COC 1937   0.392   5.392   8.521  0.0810 -0.3277 -0.3884
 1938COC    COC 1938   0.407   5.427   8.828  0.1374  0.3991 -0.0529
 1939COC    COC 1939   0.200   5.265   9.029  0.1224  0.1556 -0.2008
 1940COC    COC 1940   0.333   5.023   9.107 -0.3936  0.0513 -0.2435
 1941COC    COC 1941   0.563   5.004   9.335 -0.1854  0.2640 -0.3611
 1942COC    COC 1942   0.850   5.095   9.366  0.2238  0.3463  0.1013
 1943COC    COC 1943   1.061   4.862   9.299 -0.1331  0.1474 -0.1817
 1944COC    COC 1944   1.240   4.610   9.474  0.0610  0.1408 -0.2175
 1945COC    COC 1945   1.479   4.517   9.375 -0.1020  0.0156  0.3366
 1946COC    COC 1946   1.699   4.671   9.516  0.1770  0.2733  0.4940
 1947COC    COC 1947   1.586   4.916   9.588 -0.4734  0.4058 -0.3188
 1948COC    COC 1948   1.743   5.174   9.593 -0.0355 -0.2964  0.0071
 1949COC    COC 1949   1.876   5.204   9.334 -0.0826 -0.3035  0.0132
 1950COC    COC 1950   2.021   4.931   9.372  0.0096 -0.0692 -0.0610
 1951COC    COC 1951   2.134   4.662   9.255 -0.0481  0.1456  0.2798
 1952COC    COC 1952   1.938   4.642   9.038 -0.4132 -0.2696  0.2416
 1953COC    COC 1953   1.817   4.402   8.968 -0.3725 -0.1111  0.1181
 1954COC    COC 1954   1.896   4.184   9.210  0.0369 -0.0780  0.2474
 1955COC    COC 1955   2.051   3.941   9.102 -0.5721 -0.1950  0.2887
 1956COC    COC 1956   2.334   3.817   9.049  0.4243  0.3608 -0.1427
 1957COC    COC 1957   2.615   3.898   8.963  0.1261 -0.2498  0.2119
 1958COC    COC 1958   2.699   4.172   8.937  0.3286  0.1317 -0.0205
 1959COC    COC 1959   2.844   4.411   9.041 -0.0237 -0.0581 -0.1853
 1960COC    COC 1960   3.114   4.301   9.124 -0.2966  0.0877  0.0964
 1961COC    COC 1961   3.305   4.182   9.337 -0.3296  0.0088  0.1112
 1962COC    COC 1962   3.429   3.941   9.243  0.2590 -0.1274  0.1262
 1963COC    COC 1963   3.284   3.677   9.368 -0.1656  0.2028 -0.4427
 1964COC    COC 1964   3.062   3.524   9.505 -0.1572  0.1516  0.2849
 1965COC    COC 1965   3.056   3.505   9.782  0.2084 -0.0638  0.1058
 1966COC    COC 1966   2.964   3.569  10.055 -0.0902 -0.0891 -0.1720
 1967COC    COC 1967   2.972   3.910  10.060 -0.1735 -0.0117  0.0268
 1968COC    COC 1968   2.682   3.963   9.972  0.1978  0.2523 -0.0438
 1969COC    COC 1969   2.603   4.084   9.731  0.2243 -0.2481 -0.2270
 1970COC    COC 1970   2.618   4.367   9.848  0.2374  0.1784 -0.2002
 1971COC    COC 1971   2.743   4.392  10.132 -0.5263  0.4219 -0.2540
 1972COC    COC 1972   2.793   4.215   0.014  0.1479 -0.3007 -0.5160
 1973COC    COC 1973   2.539   4.152   0.135  0.1756 -0.2308  0.2506
 1974COC    COC 1974   2.495   4.035   0.400  0.0750  0.2707 -0.1966
 1975COC    COC 1975   2.271   4.152   0.575 -0.0323  0.1356 -0.0258
 1976COC    COC 1976   2.272   4.456   0.561 -0.0521 -0.0832  0.2395
 1977COC    COC 1977   2.331   4.631   0.314  0.1066  0.1231 -0.0722
 1978COH    COH 1978   2.557   4.536   0.168  0.3755 -0.0642 -0.2468
 1979COH    COH 1979   6.553   0.204   2.871 -0.4148 -0.0996 -0.1982
 1980COC    COC 1980   6.554   0.041   2.698  0.4886 -0.1388 -0.3708
 1981COC    COC 1981   6.332   0.110   2.510 -0.0075 -0.4167 -0.1347
 1982COC    COC 1982   6.211  10.220   2.376  0.2912 -0.3903  0.2065
 1983COC    COC 1983   5.982  10.337   2.216  0.0231 -0.1830  0.1422
 1984COC    COC 1984   5.717   0.083   2.164  0.2970  0.3400 -0.2561
 1985COC    COC 1985   5.707   0.347   1.993  0.2981 -0.1526  0.2536
 1986COC    COC 1986   5.688   0.365   1.703  0.2038 -0.2036  0.2848
 1987COC    COC 1987   5.930   0.469   1.583 -0.2612 -0.1030  0.0994
 1988COC    COC 1988   5.989   0.344   1.301 -0.0013  0.2056 -0.1810
 1989COC    COC 1989   6.274   0.277   1.240  0.1850 -0.0800 -0.1130
 1990COC    COC 1990   6.436   0.518   1.141 -0.1109  0.1093 -0.4460
 1991COC    COC 1991   6.518   0.800   1.169 -0.4580 -0.0611 -0.0124
 1992COC    COC 1992   6.663   0.992   0.987 -0.1406 -0.1674 -0.2615
 1993COC    COC 1993   6.856   1.186   0.906  0.3668  0.2043  0.1817
 1994COC    COC 1994   7.115   1.192   0.736 -0.1898  0.1862  0.0033
 1995COC    COC 1995   7.195   0.892   0.701 -0.0812 -0.0837  0.2188
 1996COC    COC 1996   7.457   0.730   0.591 -0.4034 -0.1258 -0.5621
 1997COC    COC 1997   7.752   0.641   0.519  0.1302 -0.1048 -0.1339
 1998COC    COC 1998   7.876   0.552   0.271  0.0536 -0.1330  0.4000
 1999COC    COC 1999   8.084   0.711   0.091  0.5063  0.0650  0.0747
 2000COC    COC 2000   8.173   0.597  10.157 -0.4280  0.1631 -0.1431
 2001COC    COC 2001   8.492   0.590  10.195 -0.4186  0.0596  0.0244
 2002COC    COC 2002   8.534   0.803   0.081  0.1768 -0.1047 -0.1124
 2003COC    COC 2003   8.481   0.672   0.330  0.4482 -0.0008 -0.1779
 2004COC    COC 2004   8.404   0.841   0.563 -0.3273  0.0845 -0.0084
 2005COC    COC 2005   8.243   0.896   0.836 -0.3707  0.3680  0.3497
 2006COC    COC 2006   8.452   0.816   1.081 -0.0744 -0.0332 -0.1840
 2007COC    COC 2007   8.541   0.632   1.328  0.1830  0.1300 -0.3698
 2008COC    COC 2008   8.355   0.398   1.414  0.1267 -0.0306 -0.0684
 2009COC    COC 2009   8.464   0.157   1.537 -0.3841  0.2271 -0.1743
 2010COC    COC 2010   8.747   0.142   1.399  0.3965 -0.2440 -0.2688
 2011COC    COC 2011   8.870  10.265   1.530 -0.6053  0.3463 -0.1838
 2012COC    COC 2012   8.704  10.091   1.696  0.0656  0.1130  0.5981
 2013COC    COC 2013   8.724   9.827   1.732  0.1482  0.1315 -0.2437
 2014COC    COC 2014   8.498   9.668   1.594 -0.0940  0.1170 -0.0196
 2015COC    COC 2015   8.516   9.364   1.570 -0.0639 -0.3434 -0.0574
 2016COC    COC 2016   8.702   9.259   1.796  0.4004 -0.1641 -0.1747
 2017COC    COC 2017   8.897   9.492   1.919  0.0727 -0.0132 -0.0340
 2018COC    COC 2018   8.869   9.711   2.152  0.4258  0.0315  0.0143
 2019COC    COC 2019   8.848  10.031   2.082  0.1090  0.1072 -0.2050
 2020COC    COC 2020   8.908  10.173   2.355 -0.0874  0.1115 -0.0877
 2021COC    COC 2021   8.844   9.956   2.543 -0.2527  0.3838 -0.5029
 2022COC    COC 2022   9.045   9.972   2.782  0.0039  0.0116  0.0714
 2023COC    COC 2023   9.275  10.163   2.754 -0.4694  0.1273 -0.4516
 2024COH    COH 2024   9.394  10.137   2.548  0.3265 -0.1315  0.2739
 2025COH    COH 2025   5.681   9.744   9.824  0.4658 -0.0887 -0.6641
 2026COC    COC 2026   5.927   9.774   9.882  0.1068  0.2634  0.0113
 2027COC    COC 2027   6.127   9.686   9.676  0.0728 -0.1019 -0.2530
 2028COC    COC 2028   6.138   9.391   9.772  0.1666  0.0374  0.5140
 2029COC    COC 2029   6.209   9.468  10.063 -0.0503  0.2455 -0.1491
 2030COC    COC 2030   6.507   9.368  10.172  0.1878  0.0138  0.3048
 2031COC    COC 2031   6.630   9.614  10.283  0.1831  0.0248  0.3733
 2032COC    COC 2032   6.794   9.768  10.047  0.1130 -0.0714  0.3453
 2033COC    COC 2033   7.059   9.957  10.080  0.1753  0.0918  0.5436
 2034COC    COC 2034   7.102  10.257  10.097  0.0240  0.3909  0.1273
 2035COC    COC 2035   7.376   0.102  10.169  0.1073  0.0863 -0.1290
 2036COC    COC 2036   7.304   0.392  10.050  0.6608 -0.2843 -0.0245
 2037COC    COC 2037   7.072   0.588  10.207  0.2017  0.2090  0.0749
 2038COC    COC 2038   6.903   0.374   0.016 -0.0395  0.1290  0.2266
 2039COC    COC 2039   6.693   0.330   0.177 -0.6357  0.0418  0.2377
 2040COC    COC 2040   6.722   0.436   0.466 -0.3172  0.1547  0.1528
 2041COC    COC 2041   6.451   0.577   0.503 -0.1010  0.0313 -0.2426
 2042COC    COC 2042   6.384   0.750   0.724 -0.1554  0.1738  0.1661
 2043COC    COC 2043   6.150   0.977   0.722 -0.1689  0.1493  0.0139
 2044COC    COC 2044   5.999   1.243   0.668  0.1068  0.0431 -0.0766
 2045COC    COC 2045   5.706   1.114   0.651 -0.0747  0.0650  0.2533
 2046COC    COC 2046   5.605   0.827   0.759  0.1042 -0.1301  0.0990
 2047COC    COC 2047   5.367   0.840   0.909  0.1830  0.3835 -0.1473
 2048COC    COC 2048   5.216   0.907   0.662 -0.1011  0.3008  0.5626
 2049COC    COC 2049   5.339   0.742   0.432  0.2408  0.1712  0.0724
 2050COC    COC 2050   5.537   0.750   0.207 -0.1269  0.1888 -0.1453
 2051COC    COC 2051   5.515   0.792  10.245 -0.2233 -0.0513 -0.3287
 2052COC    COC 2052   5.580   0.525  10.136  0.1516  0.0533  0.1084
 2053COC    COC 2053   5.572   0.241  10.090  0.0037  0.2570  0.1437
 2054COC    COC 2054   5.511  10.283  10.180  0.2231 -0.0631  0.1324
 2055COC    COC 2055   5.596  10.156   0.115  0.0133  0.2447  0.0752
 2056COC    COC 2056   5.832  10.137   0.288 -0.2384 -0.1881  0.1621
 2057COC    COC 2057   5.893  10.257   0.551 -0.2298 -0.1897 -0.1899
 2058COC    COC 2058   5.954   0.115   0.780  0.0246 -0.1462  0.2341
 2059COC    COC 2059   5.721   0.312   0.872 -0.2123 -0.0869 -0.0452
 2060COC    COC 2060   5.570   0.423   0.617  0.0768 -0.2183  0.3669
 2061COC    COC 2061   5.536   0.182   0.455 -0.0615  0.1507 -0.3117
 2062COC    COC 2062   5.456  10.250   0.607 -0.0234  0.1874 -0.0072
 2063COC    COC 2063   5.135  10.194   0.737  0.0843 -0.1717  0.1104
 2064COC    COC 2064   5.034   9.917   0.763  0.0285 -0.2410  0.1824
 2065COC    COC 2065   4.741   9.927   0.863 -0.0697 -0.4795 -0.0693
 2066COC    COC 2066   4.518  10.031   0.748 -0.2218 -0.2321  0.1232
 2067COC    COC 2067   4.261   9.984   0.896  0.3178  0.2903 -0.1297
 2068COC    COC 2068   4.011  10.111   0.807 -0.1237 -0.0374  0.1780
 2069COC    COC 2069   4.012   0.084   0.900  0.0884  0.1011  0.3783
 2070COH    COH 2070   3.808   0.113   0.727 -0.2281 -0.3508 -0.1400
 2071COH    COH 2071   5.622   3.303   5.348 -0.1094 -0.0397 -0.6017
 2072COC    COC 2072   5.839   3.228   5.217  0.1753 -0.2242 -0.3227
 2073COC    COC 2073   6.014   3.470   5.072 -0.1337 -0.3701  0.0631
 2074COC    COC 2074   6.109   3.760   5.131  0.0189 -0.0630  0.3116
 2075COC    COC 2075   6.405   3.853   5.228  0.0250  0.2302  0.0172
 2076COC    COC 2076   6.588   3.933   5.469 -0.0998  0.5188 -0.2109
 2077COC    COC 2077   6.720   4.161   5.634 -0.2356  0.0319  0.2184
 2078COC    COC 2078   6.582   4.321   5.824  0.2063  0.1545  0.1663
 2079COC    COC 2079   6.348   4.448   5.847 -0.2511  0.2031 -0.1873
 2080COC    COC 2080   6.198   4.716   5.816  0.2299  0.0487 -0.2346
 2081COC    COC 2081   6.373   4.918   5.920 -0.3258  0.3732  0.1577
 2082COC    COC 2082   6.656   4.764   5.964  0.1776 -0.1049  0.2143
 2083COC    COC 2083   6.950   4.752   5.910 -0.1116 -0.2891  0.0481
 2084COC    COC 2084   7.071   4.975   6.059 -0.2895  0.2394 -0.1715
 2085COC    COC 2085   7.255   5.041   6.308 -0.1607  0.0567  0.1777
 2086COC    COC 2086   7.327   4.957   6.580  0.0766  0.1505  0.4881
 2087COC    COC 2087   7.380   4.685   6.668  0.0762  0.1803 -0.2432
 2088COC    COC 2088   7.112   4.548   6.750 -0.0824  0.1764 -0.1805
 2089COC    COC 2089   6.839   4.599   6.727 -0.2690  0.3508  0.5370
 2090COC    COC 2090   6.615   4.784   6.789 -0.0636 -0.0913  0.1213
 2091COC    COC 2091   6.547   5.093   6.723 -0.0593 -0.1810 -0.2108
 2092COC    COC 2092   6.607   5.316   6.970 -0.1196  0.0809  0.0474
 2093COC    COC 2093   6.844   5.465   6.877  0.3984 -0.3751  0.0110
 2094COC    COC 2094   7.040   5.476   7.125 -0.2434  0.0439 -0.1368
 2095COC    COC 2095   6.889   5.315   7.357  0.0097  0.3232  0.1144
 2096COC    COC 2096   6.881   5.080   7.555 -0.6737  0.1851  0.4563
 2097COC    COC 2097   6.678   4.937   7.686  0.0088 -0.1669 -0.1167
 2098COC    COC 2098   6.557   4.670   7.553 -0.2944 -0.1326  0.1059
 2099COC    COC 2099   6.342   4.531   7.603 -0.1563  0.0242 -0.0064
 2100COC    COC 2100   6.074   4.424   7.426 -0.0217  0.1137  0.2349
 2101COC    COC 2101   5.908   4.626   7.272 -0.0500  0.0297  0.1758
 2102COC    COC 2102   5.952   4.645   6.925  0.1172  0.2602 -0.4900
 2103COC    COC 2103   6.183   4.524   6.763  0.0536  0.0642  0.4643
 2104COC    COC 2104   6.337   4.317   6.668 -0.0904  0.0899 -0.3670
 2105COC    COC 2105   6.313   4.232   6.384 -0.3792 -0.2129  0.3218
 2106COC    COC 2106   6.190   4.146   6.134 -0.0973 -0.1618 -0.3104
 2107COC    COC 2107   5.929   4.014   6.214  0.0508 -0.3764  0.0608
 2108COC    COC 2108   5.916   3.782   6.412  0.2322 -0.0628 -0.1133
 2109COC    COC 2109   5.952   3.835   6.705  0.4233 -0.0995 -0.4078
 2110COC    COC 2110   5.624   3.857   6.789 -0.1523 -0.3713 -0.3257
 2111COC    COC 2111   5.513   3.599   6.912 -0.3510 -0.3657 -0.0947
 2112COC    COC 2112   5.258   3.592   7.061 -0.4347  0.1027 -0.3617
 2113COC    COC 2113   5.029   3.553   6.860  0.1312 -0.1250 -0.2005
 2114COC    COC 2114   4.813   3.310   6.828  0.1922 -0.4585  0.3451
 2115COC    COC 2115   4.780   3.063   6.668 -0.0264 -0.0985  0.4051
 2116COH    COH 2116   4.572   2.882   6.780 -0.2661 -0.0162 -0.3909
 2117COH    COH 2117   1.893   3.644   5.172  0.4296  0.1228 -0.0434
 2118COC    COC 2118   2.050   3.623   5.406  0.4600  0.1229  0.0238
 2119COC    COC 2119   2.005   3.873   5.583 -0.0521  0.0252 -0.3232
 2120COC    COC 2120   2.125   3.917   5.848 -0.1666  0.0957  0.0988
 2121COC    COC 2121   2.070   3.691   6.030  0.1146  0.1038 -0.1187
 2122COC    COC 2122   2.261   3.473   6.069  0.2263  0.4308 -0.2470
 2123COC    COC 2123   2.467   3.439   6.241  0.1926 -0.0916 -0.0080
 2124COC    COC 2124   2.656   3.264   6.301 -0.1808 -0.1772 -0.0970
 2125COC    COC 2125   2.951   3.301   6.338 -0.3191 -0.5485 -0.0874
 2126COC    COC 2126   2.987   3.148   6.542  0.3756  0.0439 -0.2682
 2127COC    COC 2127   2.826   3.138   6.781 -0.2469 -0.2782 -0.5940
 2128COC    COC 2128   2.542   3.064   6.725  0.4303 -0.0469 -0.2659
 2129COC    COC 2129   2.357   3.247   6.855  0.1632  0.6001  0.4152
 2130COC    COC 2130   2.286   3.543   6.921 -0.4366  0.0411 -0.1908
 2131COC    COC 2131   2.026   3.622   6.955 -0.0030  0.0089 -0.0948
 2132COC    COC 2132   1.759   3.802   7.001 -0.3367 -0.0005  0.0652
 2133COC    COC 2133   1.515   3.904   7.189 -0.0103 -0.0852  0.0347
 2134COC    COC 2134   1.459   3.796   7.470  0.2723  0.0963 -0.5345
 2135COC    COC 2135   1.177   3.779   7.519  0.0701  0.1626  0.0826
 2136COC    COC 2136   1.057   3.893   7.758  0.2798  0.1086 -0.4897
 2137COC    COC 2137   1.079   3.752   8.020 -0.2086  0.0263  0.0955
 2138COC    COC 2138   1.033   3.452   7.980 -0.1835 -0.1317 -0.0999
 2139COC    COC 2139   0.870   3.241   8.101 -0.4461 -0.1963 -0.1158
 2140COC    COC 2140   0.945   3.173   8.386  0.1530 -0.1581 -0.1201
 2141COC    COC 2141   0.732   3.252   8.543  0.1245  0.4089  0.0930
 2142COC    COC 2142   0.474   3.143   8.560 -0.4492  0.3169  0.1229
 2143COC    COC 2143   0.197   3.187   8.579  0.2751  0.0531 -0.3159
 2144COC    COC 2144  10.332   3.314   8.757  0.2524  0.3272  0.0607
 2145COC    COC 2145  10.131   3.102   8.817 -0.2645  0.1250 -0.0518
 2146COC    COC 2146  10.015   2.977   9.070 -0.0109  0.2891  0.0369
 2147COC    COC 2147  10.304   2.942   9.191  0.0527 -0.1786 -0.3376
 2148COC    COC 2148   0.109   3.162   9.295 -0.1697 -0.3088 -0.5278
 2149COC    COC 2149   0.077   3.448   9.141 -0.0764 -0.5339 -0.2678
 2150COC    COC 2150  10.207   3.665   9.065  0.1317 -0.2043 -0.1091
 2151COC    COC 2151   9.971   3.607   9.202 -0.2458  0.0202 -0.6317
 2152COC    COC 2152   9.879   3.571   9.494 -0.2788  0.1118  0.1243
 2153COC    COC 2153   9.971   3.806   9.642  0.3791  0.1335 -0.2261
 2154COC    COC 2154   9.985   4.022   9.425 -0.1781  0.1401  0.3167
 2155COC    COC 2155   9.779   4.238   9.419 -0.2032  0.2024  0.1049
 2156COC    COC 2156   9.515   4.292   9.645 -0.3016 -0.3160 -0.0815
 2157COC    COC 2157   9.358   4.032   9.771  0.0238 -0.0785 -0.0918
 2158COC    COC 2158   9.182   4.168   9.953 -0.2064 -0.1038 -0.2902
 2159COC    COC 2159   8.922   4.247  10.097  0.2435 -0.0099 -0.1446
 2160COC    COC 2160   8.723   4.105  10.331  0.1043 -0.0398 -0.1207
 2161COC    COC 2161   8.404   4.177   0.043  0.0413  0.0935  0.1702
 2162COH    COH 2162   8.291   4.284   0.296  0.1060  0.0370  0.5445
 2163COH    COH 2163   4.040   2.745   8.240 -0.4243  0.1302 -1.1152
 2164COC    COC 2164   4.240   2.627   8.360 -0.1767  0.1608  0.1319
 2165COC    COC 2165   4.448   2.842   8.324  0.4358  0.2940 -0.0789
 2166COC    COC 2166   4.749   2.927   8.364  0.2035  0.0168  0.1827
 2167COC    COC 2167   4.918   2.884   8.108  0.5745  0.0683  0.0243
 2168COC    COC 2168   4.815   2.907   7.813  0.1044  0.3359 -0.1429
 2169COC    COC 2169   4.589   2.822   7.611 -0.0070 -0.1196 -0.2159
 2170COC    COC 2170   4.390   2.954   7.815  0.0076  0.5268  0.2538
 2171COC    COC 2171   4.508   3.164   7.986  0.1376 -0.1021  0.1528
 2172COC    COC 2172   4.405   3.444   7.869  0.3995 -0.0707 -0.0520
 2173COC    COC 2173   4.276   3.644   8.032  0.0460  0.0090  0.0150
 2174COC    COC 2174   4.093   3.793   7.831 -0.4302 -0.3066 -0.1644
 2175COC    COC 2175   4.150   3.751   7.530  0.2627  0.0229  0.1755
 2176COC    COC 2176   4.432   3.674   7.467 -0.0868 -0.1891 -0.0393
 2177COC    COC 2177   4.690   3.822   7.372  0.0718  0.1078  0.3951
 2178COC    COC 2178   4.854   3.855   7.116  0.4510  0.0184  0.2453
 2179COC    COC 2179   5.087   4.013   7.034 -0.1031  0.1789 -0.0778
 2180COC    COC 2180   5.396   4.011   7.130 -0.2146 -0.2747  0.3845
 2181COC    COC 2181   5.569   3.878   7.322  0.1847  0.1414  0.2668
 2182COC    COC 2182   5.606   3.569   7.352 -0.0818 -0.1093 -0.2432
 2183COC    COC 2183   5.436   3.327   7.418 -0.3108  0.0180 -0.3781
 2184COC    COC 2184   5.301   3.134   7.240 -0.2791  0.5562 -0.3219
 2185COC    COC 2185   5.081   3.069   7.084 -0.0767  0.0098  0.0063
 2186COC    COC 2186   4.871   2.977   7.248  0.0343  0.1985 -0.3135
 2187COC    COC 2187   4.593   2.932   7.146  0.0926 -0.1558 -0.1615
 2188COC    COC 2188   4.446   3.130   7.029 -0.0524 -0.0128  0.1009
 2189COC    COC 2189   4.476   3.466   7.049  0.0146 -0.1070 -0.4495
 2190COC    COC 2190   4.242   3.663   7.111 -0.2199 -0.0997  0.3163
 2191COC    COC 2191   4.290   3.924   6.932 -0.0745  0.1807 -0.0213
 2192COC    COC 2192   4.490   4.112   7.014 -0.0172  0.2721 -0.2407
 2193COC    COC 2193   4.700   4.283   7.105  0.4766 -0.4153 -0.0773
 2194COC    COC 2194   4.918   4.379   7.218  0.0586 -0.0427 -0.1183
 2195COC    COC 2195   5.132   4.545   7.383  0.0895  0.1413  0.0058
 2196COC    COC 2196   4.992   4.857   7.456 -0.1254  0.3417  0.1087
 2197COC    COC 2197   4.911   4.967   7.714 -0.1192 -0.1003 -0.3001
 2198COC    COC 2198   4.930   5.267   7.711  0.0102 -0.1028  0.6981
 2199COC    COC 2199   4.759   5.419   7.950  0.1284 -0.2173  0.0861
 2200COC    COC 2200   4.466   5.400   7.966  0.0612 -0.1359 -0.0976
 2201COC    COC 2201   4.227   5.527   7.872  0.0491 -0.0996 -0.1255
 2202COC    COC 2202   3.885   5.524   7.901 -0.1565 -0.2721  0.2462
 2203COC    COC 2203   3.625   5.669   7.893 -0.3050  0.2497  0.2703
 2204COC    COC 2204   3.393   5.479   7.977  0.3554 -0.1556  0.0595
 2205COC    COC 2205   3.267   5.577   8.219 -0.3610  0.0417  0.2141
 2206COC    COC 2206   3.120   5.305   8.291  0.3085 -0.0456  0.2266
 2207COC    COC 2207   2.959   5.352   8.553 -0.3468 -0.4171  0.2129
 2208COH    COH 2208   2.862   5.103   8.590 -0.4703  0.5672  0.6273
 2209COH    COH 2209   9.052   2.550   4.809 -0.4201  0.1304  0.4471
 2210COC    COC 2210   9.218   2.683   4.603  0.2041 -0.0562  0.0092
 2211COC    COC 2211   9.079   2.828   4.389  0.4141 -0.1691 -0.0087
 2212COC    COC 2212   9.028   3.135   4.384  0.2212  0.1431  0.1380
 2213COC    COC 2213   9.116   3.397   4.216 -0.1498  0.3243 -0.6380
 2214COC    COC 2214   9.433   3.487   4.197 -0.0297  0.2212 -0.3370
 2215COC    COC 2215   9.622   3.540   3.966 -0.0938  0.0156  0.0771
 2216COC    COC 2216   9.586   3.732   3.676 -0.3526  0.1005  0.0909
 2217COC    COC 2217   9.651   4.026   3.745  0.1413  0.2422  0.4348
 2218COC    COC 2218   9.464   4.225   3.817  0.1865  0.3251  0.1501
 2219COC    COC 2219   9.301   4.434   3.738  0.2054 -0.1843  0.0613
 2220COC    COC 2220   9.015   4.455   3.623  0.0136 -0.1221 -0.1594
 2221COC    COC 2221   8.937   4.363   3.338  0.1315 -0.2195 -0.2297
 2222COC    COC 2222   9.040   4.199   3.086  0.1227 -0.1945 -0.1557
 2223COC    COC 2223   9.115   3.908   3.221 -0.4435 -0.6596  0.1510
 2224COC    COC 2224   9.207   3.968   3.476 -0.0799  0.3134 -0.1381
 2225COC    COC 2225   9.024   3.999   3.702 -0.0773  0.2027  0.4244
 2226COC    COC 2226   8.851   3.731   3.765 -0.0090  0.3558 -0.3637
 2227COC    COC 2227   8.932   3.550   3.539  0.1077  0.1598 -0.1115
 2228COC    COC 2228   8.809   3.282   3.509  0.1871 -0.0958  0.0560
 2229COC    COC 2229   8.867   3.140   3.770  0.1709 -0.5088  0.0315
 2230COC    COC 2230   8.895   2.881   3.922  0.2544  0.2073 -0.1135
 2231COC    COC 2231   8.756   2.661   4.087  0.1826 -0.3980 -0.1855
 2232COC    COC 2232   8.690   2.438   3.940 -0.1593  0.1212  0.5824
 2233COC    COC 2233   8.413   2.435   3.756 -0.1752  0.1610  0.6325
 2234COC    COC 2234   8.467   2.476   3.460  0.1374  0.1516 -0.2367
 2235COC    COC 2235   8.746   2.525   3.473  0.3587 -0.0864 -0.0079
 2236COC    COC 2236   8.788   2.542   3.166 -0.3109  0.3644 -0.2799
 2237COC    COC 2237   8.635   2.331   2.997 -0.1401 -0.1156  0.1126
 2238COC    COC 2238   8.533   2.078   3.130 -0.2217 -0.3100 -0.2049
 2239COC    COC 2239   8.260   2.090   3.267  0.2254 -0.2114 -0.0214
 2240COC    COC 2240   8.062   2.185   3.453  0.1178 -0.6372 -0.1521
 2241COC    COC 2241   7.760   2.280   3.360 -0.3254  0.2122 -0.0080
 2242COC    COC 2242   7.633   2.526   3.300  0.2928  0.7751 -0.1255
 2243COC    COC 2243   7.477   2.793   3.398  0.3069  0.0714 -0.1233
 2244COC    COC 2244   7.312   2.993   3.205  0.0220 -0.0902  0.4246
 2245COC    COC 2245   7.311   3.019   2.896 -0.4488  0.1606  0.0103
 2246COC    COC 2246   7.141   2.984   2.667 -0.1038  0.0499  0.2258
 2247COC    COC 2247   6.843   2.902   2.630  0.4277  0.0266 -0.5605
 2248COC    COC 2248   6.733   2.669   2.794  0.5608 -0.1308  0.1920
 2249COC    COC 2249   6.712   2.385   2.731  0.1291  0.0845 -0.0665
 2250COC    COC 2250   6.428   2.229   2.642  0.1372  0.1798 -0.1970
 2251COC    COC 2251   6.246   2.369   2.435  0.0664  0.0638 -0.2303
 2252COC    COC 2252   6.332   2.359   2.185  0.0130 -0.1718  0.0734
 2253COC    COC 2253   6.592   2.466   2.109 -0.3321 -0.3278 -0.1492
 2254COH    COH 2254   6.673   2.475   2.368  0.1008  0.0245  0.2386
 2255COH    COH 2255   4.440   5.321   9.961 -0.6322 -0.2981  0.4930
 2256COC    COC 2256   4.200   5.356   9.903 -0.2025 -0.2303  0.7565
 2257COC    COC 2257   4.230   5.616   9.756  0.0471  0.1546 -0.1549
 2258COC    COC 2258   4.509   5.651   9.718 -0.3928 -0.0288  0.2656
 2259COC    COC 2259   4.543   5.977   9.633 -0.6413 -0.1334  0.0375
 2260COC    COC 2260   4.475   6.093   9.367 -0.0891 -0.3815 -0.1447
 2261COC    COC 2261   4.679   6.155   9.198 -0.1620 -0.2706 -0.0578
 2262COC    COC 2262   4.622   6.296   8.928 -0.3945  0.2173 -0.3182
 2263COC    COC 2263   4.841   6.341   8.734  0.1326  0.2779  0.4447
 2264COC    COC 2264   4.918   6.581   8.574 -0.1667 -0.1564 -0.3256
 2265COC    COC 2265   5.214   6.731   8.552  0.2366 -0.1902 -0.0714
 2266COC    COC 2266   5.452   6.792   8.332 -0.1618  0.2282  0.2013
 2267COC    COC 2267   5.427   6.602   8.065  0.1305  0.1589 -0.0510
 2268COC    COC 2268   5.200   6.455   7.962 -0.2591  0.1188  0.2469
 2269COC    COC 2269   5.070   6.545   7.696  0.1606  0.5274  0.1379
 2270COC    COC 2270   5.335   6.631   7.556  0.0718  0.1117 -0.0395
 2271COC    COC 2271   5.353   6.797   7.342 -0.2033 -0.2346  0.2080
 2272COC    COC 2272   5.117   6.964   7.240 -0.3471  0.0844  0.1717
 2273COC    COC 2273   5.130   7.259   7.288  0.0235  0.1985  0.3266
 2274COC    COC 2274   4.909   7.415   7.241 -0.0791 -0.2369 -0.0328
 2275COC    COC 2275   4.937   7.546   6.975  0.2467 -0.1473  0.0761
 2276COC    COC 2276   4.804   7.809   6.869  0.0015  0.0291 -0.3280
 2277COC    COC 2277   4.824   7.848   6.540  0.2341  0.3064 -0.1896
 2278COC    COC 2278   4.920   7.816   6.269  0.3190 -0.3596  0.2044
 2279COC    COC 2279   5.187   7.889   6.132 -0.6695 -0.0320  0.2738
 2280COC    COC 2280   5.223   7.805   5.815 -0.1534 -0.0957  0.4355
 2281COC    COC 2281   5.517   7.776   5.653 -0.0027  0.0325 -0.1906
 2282COC    COC 2282   5.672   7.560   5.544  0.1144  0.3950 -0.3588
 2283COC    COC 2283   5.882   7.448   5.786 -0.4878 -0.1991  0.3266
 2284COC    COC 2284   6.077   7.506   5.993 -0.1325  0.4204  0.1275
 2285COC    COC 2285   6.206   7.628   6.209 -0.0614 -0.0014  0.0545
 2286COC    COC 2286   6.196   7.963   6.263  0.3976 -0.2789  0.4287
 2287COC    COC 2287   6.090   8.213   6.072  0.2803  0.0954  0.1911
 2288COC    COC 2288   5.850   8.402   6.007  0.5050  0.0894 -0.3065
 2289COC    COC 2289   5.963   8.500   5.738 -0.4022  0.0038  0.0902
 2290COC    COC 2290   6.097   8.738   5.735  0.2354 -0.1515  0.0787
 2291COC    COC 2291   6.047   8.983   5.587  0.2621  0.0453  0.2202
 2292COC    COC 2292   6.281   9.099   5.442 -0.0298  0.3315  0.3968
 2293COC    COC 2293   6.398   9.330   5.516 -0.0620  0.4895 -0.3280
 2294COC    COC 2294   6.389   9.625   5.527 -0.1810 -0.0017  0.0289
 2295COC    COC 2295   6.278   9.792   5.759 -0.5366  0.1912  0.3943
 2296COC    COC 2296   6.021   9.935   5.789 -0.2098  0.1687  0.3889
 2297COC    COC 2297   5.965  10.101   5.557  0.0436 -0.3214 -0.0391
 2298COC    COC 2298   6.239  10.194   5.434  0.0502 -0.4919  0.0025
 2299COC    COC 2299   6.293   9.973   5.263 -0.0964 -0.2054  0.0772
 2300COH    COH 2300   6.530   9.893   5.286  0.0086  0.1467 -0.2224
 2301COH    COH 2301   1.252   9.769   9.351 -1.1085 -0.3396  0.0662
 2302COC    COC 2302   1.070   9.961   9.373  0.2776 -0.3091 -0.3401
 2303COC    COC 2303   1.037  10.037   9.100  0.1075 -0.2925  0.2711
 2304COC    COC 2304   1.008  10.304   8.928 -0.2986 -0.1639  0.2831
 2305COC    COC 2305   0.688  10.275   8.880  0.1570 -0.3458  0.3280
 2306COC    COC 2306   0.434   0.096   8.843  0.1563 -0.2153 -0.1673
 2307COC    COC 2307   0.230   0.261   9.003 -0.2330 -0.0159 -0.1517
 2308COC    COC 2308   0.338   0.425   9.258 -0.3282  0.3043 -0.2188
 2309COC    COC 2309   0.449   0.344   9.530  0.0633  0.1158 -0.1393
 2310COC    COC 2310   0.437   0.057   9.689 -0.2793  0.0613  0.2297
 2311COC    COC 2311   0.622  10.167   9.657  0.3186 -0.1235  0.1308
 2312COC    COC 2312   0.874  10.084   9.806 -0.3031 -0.3224  0.1502
 2313COC    COC 2313   1.040  10.325   9.941  0.2018  0.0692 -0.1196
 2314COC    COC 2314   1.036  10.303  10.229 -0.0686  0.2112  0.1156
 2315COC    COC 2315   0.938  10.042  10.322 -0.2701  0.4215  0.0554
 2316COC    COC 2316   0.630   9.932   0.042 -0.3444 -0.3038  0.4566
 2317COC    COC 2317   0.383   9.947   0.218 -0.2660  0.0738  0.3856
 2318COC    COC 2318   0.242  10.204   0.320 -0.1911 -0.0072  0.1488
 2319COC    COC 2319   0.316   0.122   0.173  0.0165 -0.2630 -0.0505
 2320COC    COC 2320   0.474   0.315   0.318 -0.2409 -0.0582  0.2894
 2321COC    COC 2321   0.306   0.375   0.567  0.1663  0.0730 -0.1409
 2322COC    COC 2322   0.196   0.171   0.787  0.0497  0.1397  0.0838
 2323COC    COC 2323   0.311   0.164   1.069 -0.2594 -0.0079  0.2194
 2324COC    COC 2324   0.068  10.326   1.219 -0.6701  0.4022  0.1289
 2325COC    COC 2325  10.179  10.231   1.049  0.1826 -0.1174 -0.2495
 2326COC    COC 2326  10.129   0.028   0.793  0.2042 -0.0979  0.1222
 2327COC    COC 2327   9.861   0.033   0.670  0.5000  0.3236 -0.2213
 2328COC    COC 2328   9.823  10.142   0.506 -0.0601  0.2192  0.4449
 2329COC    COC 2329   9.830   9.888   0.572  0.1434  0.0107  0.5201
 2330COC    COC 2330   9.831   9.689   0.300 -0.2617 -0.2298  0.1333
 2331COC    COC 2331   9.759   9.381   0.353 -0.0127 -0.2906  0.3184
 2332COC    COC 2332   9.883   9.302   0.075 -0.3518  0.5051  0.0363
 2333COC    COC 2333   9.818   9.376  10.102  0.0981  0.2319  0.2286
 2334COC    COC 2334   9.895   9.260   9.835  0.0883 -0.1393  0.0517
 2335COC    COC 2335   9.847   8.978   9.751  0.3821 -0.3720 -0.0064
 2336COC    COC 2336   9.933   8.826   9.996 -0.0875 -0.3501 -0.0650
 2337COC    COC 2337  10.070   8.941  10.253  0.2150 -0.1645  0.2992
 2338COC    COC 2338  10.328   9.103  10.332 -0.4305  0.1127  0.3640
 2339COC    COC 2339   0.244   8.943   0.037  0.3767 -0.0390 -0.1642
 2340COC    COC 2340   0.166   8.719   0.210 -0.0276  0.0864  0.0489
 2341COC    COC 2341   0.254   8.703   0.496  0.1824 -0.1150  0.0829
 2342COC    COC 2342   0.129   8.969   0.625 -0.1297  0.1491  0.0616
 2343COC    COC 2343   0.162   9.268   0.576 -0.1721 -0.1195 -0.2419
 2344COC    COC 2344   0.235   9.554   0.611 -0.4652  0.0783 -0.2081
 2345COC    COC 2345   0.500   9.670   0.720 -0.0602 -0.1194  0.1722
 2346COH    COH 2346   0.597   9.657   0.973  0.6458  0.1398 -0.4562
 2347COH    COH 2347   0.521   0.398   3.156 -0.2479 -0.0763  0.2228
 2348COC    COC 2348   0.747   0.295   3.028 -0.0384  0.1646  0.0273
 2349COC    COC 2349   0.988   0.270   3.211 -0.1205  0.2039 -0.1521
 2350COC    COC 2350   1.037   0.265   3.512 -0.1635  0.0138  0.1221
 2351COC    COC 2351   1.219   0.289   3.734  0.2075  0.4938  0.0944
 2352COC    COC 2352   1.326   0.434   4.004  0.0414 -0.1843  0.2631
 2353COC    COC 2353   1.246   0.449   4.277 -0.3260  0.0986  0.3272
 2354COC    COC 2354   1.021   0.320   4.402 -0.1116 -0.1729 -0.1911
 2355COC    COC 2355   0.961   0.060   4.231 -0.2938  0.3083 -0.5846
 2356COC    COC 2356   1.169  10.337   4.019  0.0047 -0.0609 -0.3795
 2357COC    COC 2357   1.444   0.053   4.141  0.1192 -0.2837  0.3134
 2358COC    COC 2358   1.699   0.018   4.054 -0.7399  0.1070 -0.1816
 2359COC    COC 2359   1.874   0.288   4.162  0.2740  0.0867  0.0632
 2360COC    COC 2360   2.102   0.165   4.316  0.1219 -0.1890 -0.0653
 2361COC    COC 2361   2.226  10.230   4.330 -0.2507  0.3156  0.1115
 2362COC    COC 2362   2.108   9.950   4.488 -0.0277  0.0254  0.3561
 2363COC    COC 2363   2.117   9.951   4.796  0.2389 -0.0746 -0.1766
 2364COC    COC 2364   2.383   9.908   4.899 -0.1465 -0.0133  0.2667
 2365COC    COC 2365   2.353   9.668   5.068 -0.1797  0.3104  0.2272
 2366COC    COC 2366   2.307   9.592   5.360  0.0486 -0.0303  0.3378
 2367COC    COC 2367   2.115   9.365   5.480  0.1003 -0.0131  0.1813
 2368COC    COC 2368   2.238   9.102   5.413 -0.0184 -0.0339  0.2205
 2369COC    COC 2369   2.291   8.943   5.163  0.2287  0.1567 -0.1001
 2370COC    COC 2370   2.093   8.871   4.898 -0.2980 -0.3248 -0.1255
 2371COC    COC 2371   2.274   8.939   4.674 -0.3287 -0.2788  0.2332
 2372COC    COC 2372   2.046   8.957   4.496 -0.0595  0.3474  0.1269
 2373COC    COC 2373   2.121   9.181   4.293 -0.1126  0.0036 -0.0258
 2374COC    COC 2374   2.408   9.116   4.157  0.2801 -0.2757 -0.1900
 2375COC    COC 2375   2.556   8.945   3.954  0.4415  0.0794 -0.0354
 2376COC    COC 2376   2.665   8.916   3.660 -0.2538  0.3082  0.1148
 2377COC    COC 2377   2.719   9.160   3.454  0.2688  0.3671 -0.0536
 2378COC    COC 2378   2.835   9.408   3.571  0.2445 -0.2101  0.2894
 2379COC    COC 2379   3.098   9.362   3.649  0.5852  0.0817 -0.0411
 2380COC    COC 2380   3.287   9.572   3.809  0.1144  0.2775  0.0576
 2381COC    COC 2381   3.189   9.817   3.970  0.0777 -0.0204 -0.2601
 2382COC    COC 2382   3.409   9.944   4.109 -0.1822  0.3953 -0.2391
 2383COC    COC 2383   3.613  10.180   4.102  0.5121  0.1004 -0.2528
 2384COC    COC 2384   3.919  10.215   4.175  0.2294  0.1759  0.1532
 2385COC    COC 2385   4.161  10.084   4.095 -0.0696  0.3954 -0.3799
 2386COC    COC 2386   4.435  10.074   4.254 -0.2267 -0.0491  0.0202
 2387COC    COC 2387   4.392  10.174   4.543 -0.0725 -0.4256  0.1191
 2388COC    COC 2388   4.128  10.037   4.605  0.1811  0.2639 -0.1789
 2389COC    COC 2389   4.105   9.727   4.606  0.3423 -0.1906 -0.0784
 2390COC    COC 2390   3.893   9.618   4.789  0.0195 -0.1265  0.0065
 2391COC    COC 2391   3.922   9.325   4.701 -0.0729 -0.1339 -0.0014
 2392COH    COH 2392   4.003   9.357   4.449  0.2092 -0.3274 -0.5472
 2393COH    COH 2393   7.351   6.722   1.115 -0.1034 -0.1558 -0.1729
 2394COC    COC 2394   7.191   6.821   0.934 -0.0704 -0.2807 -0.1053
 2395COC    COC 2395   6.958   6.725   0.732 -0.1841  0.3745  0.0759
 2396COC    COC 2396   6.937   6.736   0.412 -0.2757 -0.0709 -0.2985
 2397COC    COC 2397   6.672   6.646   0.323 -0.2275 -0.2141 -0.1149
 2398COC    COC 2398   6.763   6.527   0.066 -0.2552  0.1611 -0.0623
 2399COC    COC 2399   6.543   6.330   0.036  0.0397  0.0152  0.3720
 2400COC    COC 2400   6.448   6.078  10.208  0.1068  0.0914 -0.1161
 2401COC    COC 2401   6.671   5.829  10.191 -0.3370  0.3856  0.0121
 2402COC    COC 2402   6.565   5.615  10.005 -0.2615 -0.4314  0.2336
 2403COC    COC 2403   6.475   5.371  10.168 -0.0696  0.4520 -0.2594
 2404COC    COC 2404   6.363   5.204   9.956  0.5396 -0.2796  0.5894
 2405COC    COC 2405   6.406   5.050   9.703 -0.0203  0.1531 -0.2929
 2406COC    COC 2406   6.263   4.982   9.444 -0.1466  0.1974 -0.3710
 2407COC    COC 2407   6.156   4.726   9.326  0.2105 -0.3838 -0.3019
 2408COC    COC 2408   5.972   4.523   9.450  0.3456  0.3415 -0.2220
 2409COC    COC 2409   5.642   4.509   9.401 -0.0697  0.0669  0.0171
 2410COC    COC 2410   5.431   4.398   9.617  0.0913 -0.4208  0.2838
 2411COC    COC 2411   5.110   4.488   9.627  0.4426 -0.1955 -0.1310
 2412COC    COC 2412   4.929   4.240   9.612 -0.0916  0.0652 -0.0507
 2413COC    COC 2413   5.110   3.987   9.623  0.3614  0.0416  0.0030
 2414COC    COC 2414   5.357   4.022   9.793 -0.1980  0.1973  0.1139
 2415COC    COC 2415   5.610   4.132   9.868 -0.2751  0.0032 -0.0839
 2416COC    COC 2416   5.706   4.124  10.194 -0.1640 -0.3353  0.4788
 2417COC    COC 2417   5.625   4.314   0.078 -0.0645 -0.0842 -0.0765
 2418COC    COC 2418   5.531   4.577   0.081  0.1664 -0.2485 -0.2758
 2419COC    COC 2419   5.382   4.708   0.345  0.1045  0.1226  0.1490
 2420COC    COC 2420   5.111   4.720   0.435 -0.0380  0.5833  0.0460
 2421COC    COC 2421   5.103   4.751   0.764  0.2952 -0.2138  0.3665
 2422COC    COC 2422   5.017   5.034   0.936  0.0232  0.0907 -0.0742
 2423COC    COC 2423   5.198   5.248   0.937  0.0867  0.1585 -0.2858
 2424COC    COC 2424   5.179   5.322   1.256  0.0756  0.1084  0.1219
 2425COC    COC 2425   4.918   5.194   1.416 -0.2775  0.0564  0.0185
 2426COC    COC 2426   4.623   5.283   1.466 -0.2186  0.0057 -0.0018
 2427COC    COC 2427   4.421   5.527   1.493 -0.4593  0.2243 -0.1554
 2428COC    COC 2428   4.416   5.735   1.718  0.0624  0.1813  0.1462
 2429COC    COC 2429   4.139   5.861   1.749 -0.3590 -0.3659  0.3864
 2430COC    COC 2430   4.037   6.148   1.845 -0.1863 -0.0337 -0.1006
 2431COC    COC 2431   4.268   6.318   1.950  0.5054  0.3151 -0.1784
 2432COC    COC 2432   4.183   6.636   2.030  0.3398 -0.0390  0.3015
 2433COC    COC 2433   3.993   6.854   2.088 -0.3044  0.3151 -0.1685
 2434COC    COC 2434   3.862   6.792   2.359  0.0499  0.1437  0.2487
 2435COC    COC 2435   4.037   6.944   2.612  0.0690  0.2766 -0.3640
 2436COC    COC 2436   4.212   7.179   2.592  0.0603  0.0692  0.0202
 2437COC    COC 2437   4.014   7.369   2.435 -0.1106  0.0824 -0.0041
 2438COH    COH 2438   4.203   7.519   2.296 -0.0659 -0.3227 -0.4198
 2439COH    COH 2439   0.324   7.405   1.726 -0.1667 -0.2037  0.0917
 2440COC    COC 2440   0.209   7.635   1.720 -0.2164 -0.0518 -0.2191
 2441COC    COC 2441   0.160   7.630   2.021  0.0890 -0.8142  0.2771
 2442COC    COC 2442   0.325   7.596   2.249 -0.1369  0.0464 -0.3247
 2443COC    COC 2443   0.348   7.332   2.435  0.0194 -0.0677  0.0495
 2444COC    COC 2444   0.137   7.133   2.463 -0.1508  0.0194 -0.1758
 2445COC    COC 2445   0.105   6.841   2.382 -0.1466 -0.1369 -0.0835
 2446COC    COC 2446   0.141   6.684   2.117 -0.1765 -0.1550 -0.0221
 2447COC    COC 2447  10.246   6.666   1.956 -0.0656  0.3215  0.5735
 2448COC    COC 2448   9.978   6.811   1.930  0.3487  0.1340 -0.0390
 2449COC    COC 2449   9.881   7.026   1.796  0.1545 -0.5566  0.1986
 2450COC    COC 2450   9.705   7.265   1.889 -0.5097  0.1037  0.1833
 2451COC    COC 2451   9.937   7.516   1.948  0.1293 -0.1969 -0.0807
 2452COC    COC 2452   9.891   7.753   2.189  0.2487  0.1597 -0.1337
 2453COC    COC 2453   9.904   7.821   2.495 -0.3119 -0.1785  0.1438
 2454COC    COC 2454   9.729   7.596   2.643 -0.0401  0.2834 -0.0999
 2455COC    COC 2455   9.422   7.633   2.578 -0.2579  0.3322  0.3589
 2456COC    COC 2456   9.210   7.630   2.788  0.1929  0.1882 -0.0027
 2457COC    COC 2457   9.036   7.387   2.827 -0.2591 -0.1634  0.1334
 2458COC    COC 2458   8.970   7.088   2.702  0.0831  0.2293  0.3036
 2459COC    COC 2459   9.102   6.820   2.704  0.0448  0.1546  0.1445
 2460COC    COC 2460   9.116   6.635   2.960 -0.4982  0.1782 -0.2002
 2461COC    COC 2461   9.270   6.383   2.913  0.1403  0.5527 -0.0896
 2462COC    COC 2462   9.545   6.250   2.893 -0.1458 -0.1545  0.0826
 2463COC    COC 2463   9.712   6.273   2.655 -0.0363  0.0040 -0.1210
 2464COC    COC 2464   9.663   6.386   2.373 -0.0946 -0.0196  0.3155
 2465COC    COC 2465   9.896   6.397   2.167 -0.0734 -0.2029 -0.0075
 2466COC    COC 2466   9.917   6.126   1.984 -0.1466 -0.0987  0.2470
 2467COC    COC 2467   9.991   5.910   2.157  0.1249  0.0159 -0.4593
 2468COC    COC 2468   9.869   5.865   2.431  0.0640 -0.2165 -0.1815
 2469COC    COC 2469   9.633   5.809   2.639  0.0980  0.0964 -0.0526
 2470COC    COC 2470   9.610   5.791   2.957  0.2676 -0.4451  0.0016
 2471COC    COC 2471   9.838   5.659   3.092  0.0683  0.1445  0.5105
 2472COC    COC 2472   9.816   5.353   3.147  0.4482  0.0834  0.0869
 2473COC    COC 2473   9.624   5.118   3.221  0.1223 -0.2622  0.1645
 2474COC    COC 2474   9.367   5.001   3.093  0.4011  0.1677 -0.0684
 2475COC    COC 2475   9.169   4.756   3.129 -0.3015  0.0436  0.1421
 2476COC    COC 2476   9.221   4.522   2.907  0.2110 -0.0804  0.0907
 2477COC    COC 2477   9.356   4.593   2.639 -0.1449  0.1760  0.5229
 2478COC    COC 2478   9.165   4.696   2.401  0.3535  0.0669 -0.0904
 2479COC    COC 2479   9.152   4.973   2.489 -0.4163  0.2032  0.1364
 2480COC    COC 2480   9.085   5.286   2.446  0.6504  0.4360 -0.0767
 2481COC    COC 2481   8.882   5.370   2.230  0.0687  0.1252 -0.0184
 2482COC    COC 2482   8.742   5.632   2.206 -0.3036 -0.1800  0.2800
 2483COC    COC 2483   8.858   5.867   2.093  0.1733 -0.0348 -0.0020
 2484COH    COH 2484   8.997   5.949   2.292 -0.2824  0.1895 -0.2080
 2485COH    COH 2485   2.298   1.684   4.229 -0.1786  0.0006  0.4597
 2486COC    COC 2486   2.089   1.616   4.036  0.0441 -0.1164 -0.0410
 2487COC    COC 2487   1.908   1.917   3.945 -0.2105  0.0757  0.1686
 2488COC    COC 2488   2.025   2.089   3.745 -0.0327 -0.4059  0.1990
 2489COC    COC 2489   1.929   2.365   3.723  0.1348  0.3195  0.3668
 2490COC    COC 2490   1.662   2.413   3.559  0.0324 -0.1048  0.0125
 2491COC    COC 2491   1.375   2.412   3.580 -0.2459 -0.3940 -0.1483
 2492COC    COC 2492   1.237   2.214   3.356  0.3581 -0.0881 -0.0569
 2493COC    COC 2493   1.044   2.244   3.135  0.0908  0.3050 -0.0195
 2494COC    COC 2494   0.863   2.505   3.118  0.2314  0.0388  0.0543
 2495COC    COC 2495   0.827   2.779   3.293  0.0087  0.2219 -0.0938
 2496COC    COC 2496   1.077   2.702   3.454 -0.2100  0.3983  0.5995
 2497COC    COC 2497   1.307   2.668   3.251 -0.2288  0.2366  0.0788
 2498COC    COC 2498   1.545   2.768   3.131 -0.0630  0.0540 -0.0277
 2499COC    COC 2499   1.788   2.580   3.190 -0.0522 -0.1641  0.0438
 2500COC    COC 2500   2.048   2.602   3.381 -0.5275  0.0457  0.5645
 2501COC    COC 2501   2.350   2.612   3.324  0.0907 -0.0954 -0.2165
 2502COC    COC 2502   2.416   2.890   3.251 -0.0016 -0.1192  0.2028
 2503COC    COC 2503   2.386   3.126   3.442  0.2229 -0.4227 -0.1939
 2504COC    COC 2504   2.435   2.931   3.695  0.1701  0.0441 -0.5078
 2505COC    COC 2505   2.332   3.115   3.917 -0.2263 -0.0486  0.2018
 2506COC    COC 2506   2.292   2.947   4.205  0.0335 -0.0308 -0.2259
 2507COC    COC 2507   2.585   2.925   4.222  0.3960  0.1071 -0.3745
 2508COC    COC 2508   2.783   2.654   4.180 -0.0523  0.2621  0.0245
 2509COC    COC 2509   2.730   2.579   3.898 -0.2998 -0.1425  0.0162
 2510COC    COC 2510   2.804   2.652   3.614 -0.1958  0.1144  0.0602
 2511COC    COC 2511   2.759   2.569   3.306  0.0294  0.0284  0.2114
 2512COC    COC 2512   3.041   2.527   3.201 -0.0358  0.1628 -0.1782
 2513COC    COC 2513   3.080   2.227   3.193 -0.0913  0.0637  0.0561
 2514COC    COC 2514   3.009   2.060   3.434  0.0825  0.0857 -0.1760
 2515COC    COC 2515   2.884   1.801   3.303  0.3570  0.0535 -0.1981
 2516COC    COC 2516   2.892   1.882   2.977 -0.3698  0.1705  0.1167
 2517COC    COC 2517   2.664   1.780   2.832  0.1154 -0.2042  0.3753
 2518COC    COC 2518   2.449   1.686   3.067  0.4175  0.0965  0.3031
 2519COC    COC 2519   2.211   1.856   3.108 -0.1334  0.1442  0.1263
 2520COC    COC 2520   1.997   1.648   3.026  0.0780 -0.1269 -0.1387
 2521COC    COC 2521   1.799   1.749   2.817 -0.4669 -0.0429 -0.0246
 2522COC    COC 2522   1.799   1.561   2.554  0.2673 -0.4162  0.1171
 2523COC    COC 2523   1.992   1.337   2.602  0.1219  0.0995 -0.1227
 2524COC    COC 2524   2.283   1.416   2.726 -0.0052 -0.4256  0.0744
 2525COC    COC 2525   2.562   1.361   2.565 -0.0895  0.0219 -0.2801
 2526COC    COC 2526   2.738   1.063   2.579  0.3581 -0.0323  0.0933
 2527COC    COC 2527   3.014   1.049   2.688 -0.0543  0.2280 -0.2840
 2528COC    COC 2528   3.270   1.162   2.785 -0.0118  0.0378 -0.5161
 2529COC    COC 2529   3.551   1.046   2.860  0.1693 -0.1735 -0.3053
 2530COH    COH 2530   3.520   0.779   2.798 -0.3232  0.4644  0.1248
 2531COH    COH 2531   3.470   8.162   0.715 -0.2188  0.1186  0.3431
 2532COC    COC 2532   3.226   8.080   0.746 -0.5121  0.0290 -0.1174
 2533COC    COC 2533   3.080   7.841   0.688  0.4377  0.2212  0.2203
 2534COC    COC 2534   2.873   7.619   0.810  0.0541 -0.4755  0.1114
 2535COC    COC 2535   2.813   7.686   1.131 -0.0052  0.1113  0.1851
 2536COC    COC 2536   2.921   7.609   1.373 -0.1706 -0.4055 -0.0971
 2537COC    COC 2537   3.109   7.742   1.528  0.0597 -0.2907  0.0073
 2538COC    COC 2538   3.356   7.871   1.631  0.2876  0.0775 -0.1747
 2539COC    COC 2539   3.550   7.774   1.449  0.0159 -0.0568  0.4110
 2540COC    COC 2540   3.649   7.442   1.480  0.1645  0.0459  0.4549
 2541COC    COC 2541   3.618   7.318   1.192  0.0850  0.0228 -0.4989
 2542COC    COC 2542   3.708   7.500   0.977  0.0397 -0.1519 -0.3066
 2543COC    COC 2543   3.973   7.399   0.929 -0.1919  0.0662  0.1432
 2544COC    COC 2544   4.217   7.578   1.039  0.4032 -0.0932 -0.1027
 2545COC    COC 2545   4.054   7.802   1.195  0.3819 -0.0213  0.1542
 2546COC    COC 2546   4.151   8.021   1.423  0.1551  0.3765 -0.0585
 2547COC    COC 2547   4.237   7.885   1.698  0.2032 -0.2013  0.1608
 2548COC    COC 2548   4.094   8.101   1.885 -0.1612  0.2539  0.2654
 2549COC    COC 2549   4.159   8.181   2.146 -0.1178  0.0442  0.1817
 2550COC    COC 2550   4.068   8.055   2.415 -0.2369  0.1764 -0.0767
 2551COC    COC 2551   4.324   8.147   2.585 -0.0947  0.0656  0.2581
 2552COC    COC 2552   4.614   8.005   2.582 -0.0935  0.0460  0.1032
 2553COC    COC 2553   4.885   8.062   2.703  0.3006  0.5070 -0.1965
 2554COC    COC 2554   5.155   7.904   2.587  0.3131  0.5765  0.0215
 2555COC    COC 2555   5.204   7.640   2.700 -0.5230 -0.1609 -0.1852
 2556COC    COC 2556   5.275   7.369   2.627 -0.0934 -0.0380  0.2088
 2557COC    COC 2557   5.432   7.149   2.775 -0.4020 -0.1668  0.0345
 2558COC    COC 2558   5.691   7.241   2.937  0.2293  0.1463 -0.1335
 2559COC    COC 2559   5.637   7.536   2.983  0.0180  0.2082  0.1446
 2560COC    COC 2560   5.374   7.691   3.099  0.1004 -0.0734  0.0989
 2561COC    COC 2561   5.107   7.542   3.135  0.2059  0.4305 -0.1038
 2562COC    COC 2562   5.057   7.308   2.951 -0.0776  0.1945 -0.4699
 2563COC    COC 2563   4.860   7.221   2.778  0.3468  0.0144  0.2035
 2564COC    COC 2564   4.933   7.009   2.550  0.1277  0.0784 -0.3213
 2565COC    COC 2565   4.889   6.699   2.569 -0.5144  0.2396  0.3816
 2566COC    COC 2566   5.191   6.552   2.534 -0.0111  0.0978  0.0608
 2567COC    COC 2567   5.492   6.601   2.559  0.3514  0.1970 -0.0628
 2568COC    COC 2568   5.592   6.828   2.403 -0.0727 -0.1015 -0.1223
 2569COC    COC 2569   5.310   6.980   2.373  0.1189  0.2123  0.0715
 2570COC    COC 2570   5.187   7.238   2.244  0.1428 -0.0862  0.1046
 2571COC    COC 2571   5.358   7.506   2.224  0.1389 -0.1349 -0.0849
 2572COC    COC 2572   5.252   7.758   2.079 -0.0062  0.3855 -0.0578
 2573COC    COC 2573   5.227   8.017   2.059 -0.1221 -0.0971 -0.3942
 2574COC    COC 2574   5.244   8.207   2.281  0.2991  0.2307  0.0456
 2575COC    COC 2575   5.434   8.280   2.514 -0.1464 -0.2879  0.0008
 2576COH    COH 2576   5.399   8.503   2.658 -0.2735  0.1991  0.0424
 2577COH    COH 2577   4.463   1.394   0.404  0.1058  0.1729 -0.1759
 2578COC    COC 2578   4.267   1.283   0.516  0.3454  0.3246 -0.3631
 2579COC    COC 2579   4.224   1.446   0.754  0.2887  0.0867 -0.0666
 2580COC    COC 2580   4.239   1.742   0.673 -0.2243  0.0942 -0.4080
 2581COC    COC 2581   4.499   1.780   0.872  0.3812  0.0042  0.2281
 2582COC    COC 2582   4.459   1.897   1.148 -0.1225  0.0590 -0.3018
 2583COC    COC 2583   4.314   2.172   1.131  0.0700  0.0841 -0.1882
 2584COC    COC 2584   4.031   2.182   1.249  0.0232 -0.0439  0.5344
 2585COC    COC 2585   4.041   2.365   1.451  0.3091  0.5994 -0.4525
 2586COC    COC 2586   3.832   2.420   1.642  0.0700 -0.1213  0.1714
 2587COC    COC 2587   3.699   2.661   1.805  0.0584  0.1399  0.0576
 2588COC    COC 2588   3.574   2.883   1.634  0.1729  0.2078 -0.0418
 2589COC    COC 2589   3.720   3.074   1.489  0.0618  0.4625 -0.0380
 2590COC    COC 2590   3.630   3.369   1.538  0.2266  0.3609  0.2115
 2591COC    COC 2591   3.349   3.465   1.477  0.1420 -0.3444 -0.4001
 2592COC    COC 2592   3.256   3.555   1.246  0.1035  0.4686  0.2497
 2593COC    COC 2593   3.179   3.433   1.008  0.5463  0.2124 -0.2077
 2594COC    COC 2594   3.402   3.379   0.825 -0.3826  0.4203  0.1024
 2595COC    COC 2595   3.389   3.067   0.706 -0.0621  0.2249  0.0233
 2596COC    COC 2596   3.596   2.871   0.833 -0.2912 -0.0966  0.2554
 2597COC    COC 2597   3.692   2.603   0.771 -0.3280  0.1391  0.4507
 2598COC    COC 2598   3.509   2.334   0.697 -0.3453 -0.1731  0.0583
 2599COC    COC 2599   3.273   2.209   0.782  0.1744  0.1656  0.0057
 2600COC    COC 2600   3.219   1.937   0.862 -0.0288 -0.0916 -0.5399
 2601COC    COC 2601   2.904   1.907   0.897 -0.0459 -0.0293 -0.3144
 2602COC    COC 2602   2.671   2.090   0.867 -0.0782 -0.5940  0.1327
 2603COC    COC 2603   2.838   2.349   0.878  0.0622 -0.2321 -0.1949
 2604COC    COC 2604   2.763   2.620   0.769  0.1079 -0.1203 -0.0059
 2605COC    COC 2605   2.808   2.707   0.467  0.1802 -0.1709  0.1168
 2606COC    COC 2606   2.803   2.986   0.498 -0.0155 -0.0931  0.0118
 2607COC    COC 2607   2.568   3.157   0.445  0.0298 -0.0729 -0.0429
 2608COC    COC 2608   2.556   3.496   0.412 -0.3876 -0.2454  0.2791
 2609COC    COC 2609   2.252   3.635   0.386 -0.0779 -0.1156 -0.0342
 2610COC    COC 2610   2.089   3.703   0.145  0.1811 -0.0107 -0.1270
 2611COC    COC 2611   2.146   3.972   0.164 -0.1203  0.4171 -0.1080
 2612COC    COC 2612   2.105   4.260   0.172 -0.4169  0.0008  0.2610
 2613COC    COC 2613   1.909   4.336   0.401 -0.1650 -0.2658 -0.0318
 2614COC    COC 2614   1.734   4.544   0.318 -0.4427  0.0314 -0.5483
 2615COC    COC 2615   1.815   4.745   0.106 -0.1857 -0.6563  0.0640
 2616COC    COC 2616   1.544   4.811   0.051 -0.2188  0.0092 -0.0395
 2617COC    COC 2617   1.345   4.595   0.046 -0.4993  0.2755 -0.4918
 2618COC    COC 2618   1.415   4.279   0.123  0.1510  0.0242 -0.3562
 2619COC    COC 2619   1.257   4.136   0.363 -0.3715  0.3092  0.2010
 2620COC    COC 2620   1.457   4.139   0.604  0.3139 -0.1268  0.0921
 2621COC    COC 2621   1.424   4.291   0.877  0.0504  0.0381 -0.1440
 2622COH    COH 2622   1.583   4.320   1.062 -0.0769 -0.5114 -0.1464
 2623COH    COH 2623   4.110  10.327   7.886 -0.1985  0.3285 -0.1156
 2624COC    COC 2624   4.081   0.118   7.689  0.4444 -0.1082 -0.0169
 2625COC    COC 2625   4.079  10.308   7.406  0.5801 -0.0896 -0.0158
 2626COC    COC 2626   4.002  10.038   7.447 -0.2614  0.1526 -0.2189
 2627COC    COC 2627   3.973   9.981   7.138  0.1049  0.2756 -0.4158
 2628COC    COC 2628   4.005   9.700   7.062 -0.3303  0.5850 -0.1109
 2629COC    COC 2629   3.797   9.475   7.049  0.5523 -0.0508  0.0447
 2630COC    COC 2630   3.507   9.510   7.086 -0.0542  0.4908  0.0639
 2631COC    COC 2631   3.302   9.744   7.029  0.0353  0.4868  0.0379
 2632COC    COC 2632   3.173   9.978   6.860  0.0611  0.2056 -0.0752
 2633COC    COC 2633   3.095  10.078   6.542  0.0404  0.0225 -0.0925
 2634COC    COC 2634   3.041   9.962   6.225 -0.3119  0.0517  0.2047
 2635COC    COC 2635   2.808  10.102   6.117 -0.4124 -0.1651  0.0381
 2636COC    COC 2636   2.801   0.022   5.985 -0.1225  0.3626 -0.0313
 2637COC    COC 2637   3.004   0.067   5.751 -0.0377 -0.0307 -0.0396
 2638COC    COC 2638   3.264   0.072   5.616 -0.2901  0.3052 -0.0782
 2639COC    COC 2639   3.494   0.146   5.779 -0.0016 -0.4264 -0.1647
 2640COC    COC 2640   3.811   0.174   5.749  0.0302 -0.1216 -0.3351
 2641COC    COC 2641   3.987   0.364   5.931  0.3248  0.0580  0.0740
 2642COC    COC 2642   4.134   0.184   6.113  0.1667 -0.1154 -0.0808
 2643COC    COC 2643   4.424   0.122   6.063 -0.1586  0.0909 -0.0550
 2644COC    COC 2644   4.691   0.223   6.149  0.1048  0.2039  0.0672
 2645COC    COC 2645   4.862  10.309   6.146  0.3436 -0.0222 -0.3218
 2646COC    COC 2646   4.881  10.112   6.365  0.0095  0.1165  0.1094
 2647COC    COC 2647   5.006  10.240   6.617 -0.0504 -0.4926 -0.1567
 2648COC    COC 2648   5.183  10.072   6.823  0.0051  0.4379  0.4022
 2649COC    COC 2649   5.198   9.712   6.835 -0.1549 -0.3100  0.2310
 2650COC    COC 2650   5.296   9.636   7.111  0.0594 -0.1457 -0.2766
 2651COC    COC 2651   5.438   9.383   7.097 -0.2061 -0.2048  0.0458
 2652COC    COC 2652   5.319   9.171   6.990  0.0178  0.3846 -0.2396
 2653COC    COC 2653   5.025   9.207   7.011  0.3190 -0.0316  0.1291
 2654COC    COC 2654   4.844   9.416   6.900 -0.3411  0.3438  0.0969
 2655COC    COC 2655   4.848   9.629   7.084  0.1310  0.1575 -0.0832
 2656COC    COC 2656   4.941   9.601   7.385 -0.1426  0.3571  0.2165
 2657COC    COC 2657   5.125   9.558   7.589 -0.0829 -0.2589  0.0247
 2658COC    COC 2658   5.407   9.474   7.514 -0.0844  0.0736  0.1844
 2659COC    COC 2659   5.624   9.641   7.401  0.4644  0.0957  0.2290
 2660COC    COC 2660   5.607   9.938   7.461 -0.0196 -0.0993 -0.2115
 2661COC    COC 2661   5.389   9.982   7.677  0.0013  0.0293 -0.0173
 2662COC    COC 2662   5.299  10.268   7.754 -0.2686  0.4728 -0.3421
 2663COC    COC 2663   5.359   0.152   7.955 -0.2235  0.1685  0.1709
 2664COC    COC 2664   5.693   0.204   7.956 -0.7782  0.0091  0.1068
 2665COC    COC 2665   5.793   0.436   7.749 -0.0827  0.3755  0.0158
 2666COC    COC 2666   5.932   0.425   7.457  0.0196  0.2664  0.2374
 2667COC    COC 2667   5.939   0.280   7.179 -0.0176  0.2240  0.1731
 2668COH    COH 2668   5.762   0.413   7.011 -0.4217  0.4099 -0.4172
 2669COH    COH 2669   6.939   1.826   6.788  0.4907  0.0581 -0.2348
 2670COC    COC 2670   7.195   1.815   6.838  0.0062 -0.2899 -0.4501
 2671COC    COC 2671   7.423   1.817   6.585 -0.1129  0.3339 -0.2397
 2672COC    COC 2672   7.566   2.089   6.485 -0.2710  0.0567 -0.2170
 2673COC    COC 2673   7.668   2.376   6.448 -0.2231  0.3426  0.3890
 2674COC    COC 2674   7.618   2.550   6.192  0.0872  0.0494  0.0586
 2675COC    COC 2675   7.658   2.654   5.878 -0.1476 -0.2545 -0.4202
 2676COC    COC 2676   7.946   2.765   5.884  0.0785 -0.0047 -0.1973
 2677COC    COC 2677   8.115   2.744   5.689 -0.2078 -0.0722  0.0455
 2678COC    COC 2678   8.297   2.997   5.706  0.0507  0.0110  0.2667
 2679COC    COC 2679   8.216   3.239   5.587  0.0232  0.4044 -0.0341
 2680COC    COC 2680   8.038   3.238   5.330  0.0863 -0.3185 -0.0359
 2681COC    COC 2681   7.985   3.003   5.095  0.0830  0.0724 -0.5053
 2682COC    COC 2682   7.741   2.924   4.991 -0.0439  0.0875 -0.1058
 2683COC    COC 2683   7.474   2.754   5.031  0.2503  0.4259  0.2378
 2684COC    COC 2684   7.425   2.493   5.188 -0.0981 -0.0952  0.1772
 2685COC    COC 2685   7.211   2.334   5.035  0.0695  0.3076 -0.0621
 2686COC    COC 2686   7.114   2.394   4.747  0.2594 -0.2192  0.2157
 2687COC    COC 2687   7.345   2.518   4.595  0.0048 -0.0653 -0.0329
 2688COC    COC 2688   7.600   2.629   4.643 -0.1410  0.3321 -0.4612
 2689COC    COC 2689   7.692   2.771   4.361  0.2098  0.0240 -0.2947
 2690COC    COC 2690   7.912   2.707   4.185 -0.5335  0.2526  0.0963
 2691COC    COC 2691   7.983   2.512   3.991  0.4526 -0.1687 -0.0548
 2692COC    COC 2692   8.107   2.225   4.001  0.1308 -0.3847  0.3489
 2693COC    COC 2693   8.091   1.979   4.200  0.2196  0.0774  0.0555
 2694COC    COC 2694   8.016   1.910   4.517  0.0414 -0.3154 -0.2749
 2695COC    COC 2695   7.915   1.902   4.838 -0.1780 -0.2239  0.2110
 2696COC    COC 2696   7.951   1.699   5.023 -0.1233  0.2554 -0.1955
 2697COC    COC 2697   8.182   1.686   5.234  0.0057 -0.4198  0.1470
 2698COC    COC 2698   8.314   1.936   5.246 -0.3031 -0.1524 -0.0980
 2699COC    COC 2699   8.216   2.206   5.097  0.0561  0.1480 -0.1074
 2700COC    COC 2700   8.256   2.345   4.850  0.3752 -0.1356 -0.0378
 2701COC    COC 2701   8.509   2.498   4.893  0.1500 -0.1220  0.1427
 2702COC    COC 2702   8.736   2.317   4.879 -0.0598 -0.5899  0.2238
 2703COC    COC 2703   8.589   2.092   4.904 -0.4164  0.1412  0.1102
 2704COC    COC 2704   8.711   1.844   4.783  0.2686 -0.0787 -0.0790
 2705COC    COC 2705   9.005   1.832   4.741 -0.0667 -0.1430  0.0678
 2706COC    COC 2706   9.180   1.810   4.473 -0.4774  0.0209  0.0509
 2707COC    COC 2707   9.404   1.944   4.373 -0.3497 -0.3744 -0.1860
 2708COC    COC 2708   9.389   2.242   4.265  0.0016 -0.1843 -0.2353
 2709COC    COC 2709   9.302   2.459   4.118  0.3349 -0.3088 -0.0937
 2710COC    COC 2710   9.526   2.590   3.964 -0.0360 -0.0639  0.1908
 2711COC    COC 2711   9.697   2.330   3.918  0.1727  0.1711  0.0045
 2712COC    COC 2712   9.572   2.078   3.908  0.7875 -0.0760 -0.1670
 2713COC    COC 2713   9.357   2.117   3.691 -0.1760  0.0626  0.1145
 2714COH    COH 2714   9.465   2.059   3.477 -0.1740 -0.0891 -0.5815
 2715COH    COH 2715   5.115   3.366   2.751  0.5345  0.3850 -0.0334
 2716COC    COC 2716   5.232   3.322   2.970 -0.0099  0.0853  0.1558
 2717COC    COC 2717   5.495   3.477   3.013 -0.0796 -0.1480  0.1163
 2718COC    COC 2718   5.719   3.376   2.959 -0.2814 -0.0137  0.1141
 2719COC    COC 2719   5.988   3.515   2.908 -0.1948 -0.0640  0.1400
 2720COC    COC 2720   6.041   3.751   3.077 -0.0905  0.4329 -0.1774
 2721COC    COC 2721   6.049   3.641   3.331  0.0536  0.0574 -0.0755
 2722COC    COC 2722   6.293   3.667   3.507  0.0308 -0.1615 -0.0948
 2723COC    COC 2723   6.574   3.747   3.537 -0.1765  0.0296 -0.3370
 2724COC    COC 2724   6.712   3.992   3.603  0.0080  0.2503 -0.0587
 2725COC    COC 2725   6.731   4.235   3.403 -0.1368  0.1633 -0.4669
 2726COC    COC 2726   6.462   4.328   3.331  0.0517  0.3005 -0.3632
 2727COC    COC 2727   6.305   4.429   3.519  0.1880  0.3429  0.1724
 2728COC    COC 2728   6.208   4.296   3.791 -0.7706 -0.4211 -0.0842
 2729COC    COC 2729   5.957   4.169   3.892 -0.4972 -0.3372  0.3303
 2730COC    COC 2730   5.717   4.296   3.976 -0.2255 -0.3448  0.0010
 2731COC    COC 2731   5.819   4.565   4.075 -0.2167 -0.1348  0.0441
 2732COC    COC 2732   5.899   4.713   3.797  0.2072  0.1972 -0.2975
 2733COC    COC 2733   5.764   4.946   3.638 -0.0101  0.1031  0.0771
 2734COC    COC 2734   5.499   5.025   3.676 -0.0802 -0.0904 -0.1966
 2735COC    COC 2735   5.384   5.253   3.755  0.0426  0.1133 -0.4821
 2736COC    COC 2736   5.246   5.246   4.029  0.1408 -0.3071 -0.0853
 2737COC    COC 2737   5.070   5.491   4.064  0.2187 -0.3253  0.3812
 2738COC    COC 2738   5.195   5.761   3.949 -0.0022 -0.0152  0.2853
 2739COC    COC 2739   5.293   5.708   3.710  0.2086  0.0793  0.0918
 2740COC    COC 2740   5.303   5.912   3.504 -0.0591 -0.2022 -0.0202
 2741COC    COC 2741   5.314   5.925   3.184 -0.0231  0.2348  0.0651
 2742COC    COC 2742   5.494   5.768   2.972  0.0057 -0.1382 -0.3135
 2743COC    COC 2743   5.345   5.762   2.702  0.1070  0.0348 -0.2577
 2744COC    COC 2744   5.194   5.578   2.523 -0.0444  0.1640 -0.1432
 2745COC    COC 2745   5.270   5.649   2.279  0.3326  0.2429 -0.3199
 2746COC    COC 2746   5.419   5.681   2.012  0.4283  0.2870 -0.3038
 2747COC    COC 2747   5.286   5.509   1.810 -0.2801 -0.3349 -0.0455
 2748COC    COC 2748   5.047   5.303   1.884  0.0533  0.0525  0.1429
 2749COC    COC 2749   4.750   5.376   1.861  0.1640 -0.0481  0.0821
 2750COC    COC 2750   4.526   5.208   1.958 -0.0718  0.1547  0.1064
 2751COC    COC 2751   4.255   5.310   2.055  0.2443 -0.4938  0.5234
 2752COC    COC 2752   4.027   5.489   1.927 -0.0489  0.1690 -0.3155
 2753COC    COC 2753   3.749   5.477   1.818  0.1130  0.3528 -0.1446
 2754COC    COC 2754   3.672   5.488   1.537 -0.0386 -0.3202  0.1960
 2755COC    COC 2755   3.778   5.287   1.343 -0.0318  0.1594  0.1247
 2756COC    COC 2756   3.881   5.010   1.285 -0.1761 -0.0563  0.0239
 2757COC    COC 2757   3.908   4.753   1.424  0.2428 -0.3089 -0.1201
 2758COC    COC 2758   3.649   4.598   1.468 -0.1880 -0.3895 -0.4889
 2759COC    COC 2759   3.383   4.657   1.293  0.1555 -0.4138 -0.0009
 2760COH    COH 2760   3.217   4.862   1.336  0.1232  0.3956  0.0036
 2761NCO    NCO 2761   3.945   0.151   8.094 -0.5230  0.3186  0.1966
 2762CC1    CC1 2762   3.990   0.400   8.201  0.5605 -0.4518 -0.0380
 2763CC1    CC1 2763   4.248   0.518   8.253  0.0811 -0.1920  0.1944
 2764NCC    NCC 2764   4.486   0.605   8.331  0.2825 -0.1199  0.1947
 2765CONH  CONH 2765   4.618   0.886   8.491  0.0725  0.1050  0.0121
 2766CC1    CC1 2766   4.800   0.869   8.681 -0.1302  0.0061  0.0411
 2767CC1    CC1 2767   5.053   0.780   8.585 -0.0041 -0.1085 -0.1519
 2768CC1    CC1 2768   5.249   0.726   8.420  0.1150  0.1190  0.0737
 2769NCO    NCO 2769   5.286   0.950   8.203 -0.1928 -0.0624 -0.1014
 2770CONH  CONH 2770   4.635   0.482   8.554  0.0163  0.5097 -0.2775
 2771CC1    CC1 2771   4.881   0.404   8.509 -0.1610  0.2022  0.1154
 2772CC1    CC1 2772   5.068   0.233   8.395  0.0242 -0.2556 -0.1461
 2773CC1    CC1 2773   5.240   0.094   8.345 -0.3333 -0.1559 -0.0501
 2774NCO    NCO 2774   5.266  10.227   8.549  0.0749 -0.4510 -0.1965
 2775NCO    NCO 2775   5.617   7.285   7.262 -0.1666  0.2187  0.2183
 2776CC1    CC1 2776   5.551   7.362   7.485 -0.1078  0.0876  0.0462
 2777CC1    CC1 2777   5.686   7.351   7.660 -0.2776 -0.2066  0.5146
 2778NCC    NCC 2778   5.835   7.410   7.879 -0.1799  0.2368 -0.0518
 2779CONH  CONH 2779   5.713   7.541   8.143 -0.1999 -0.3035 -0.0048
 2780CC1    CC1 2780   5.751   7.790   8.208  0.0185  0.2321  0.3316
 2781CC1    CC1 2781   5.794   7.850   8.465 -0.1158  0.1886  0.2300
 2782CC1    CC1 2782   5.718   7.906   8.647  0.2036  0.0888  0.1809
 2783NCO    NCO 2783   5.827   7.744   8.820 -0.4246 -0.4249  0.0245
 2784CONH  CONH 2784   6.117   7.457   8.037 -0.3817 -0.2111  0.1355
 2785CC1    CC1 2785   6.210   7.703   8.016  0.3498  0.0014 -0.1900
 2786CC1    CC1 2786   6.124   7.845   8.204  0.1912  0.3719  0.4434
 2787CC1    CC1 2787   6.159   7.941   8.428 -0.0512  0.3578  0.1807
 2788NCO    NCO 2788   6.451   8.047   8.433 -0.0621  0.3644 -0.0167
 2789NCO    NCO 2789   9.232   5.752   2.278 -0.1771 -0.2548  0.1326
 2790CC1    CC1 2790   9.553   5.757   2.274  0.0154 -0.0719  0.2325
 2791CC1    CC1 2791   9.617   5.646   2.073  0.1470  0.2020  0.5816
 2792NCC    NCC 2792   9.616   5.494   1.864 -0.2245 -0.2721  0.0566
 2793CONH  CONH 2793   9.614   5.555   1.517  0.1418  0.1492 -0.1257
 2794CC1    CC1 2794   9.893   5.545   1.338 -0.0155 -0.2416 -0.0977
 2795CC1    CC1 2795  10.070   5.421   1.430  0.0250  0.4972 -0.1611
 2796CC1    CC1 2796  10.284   5.429   1.530 -0.3039  0.1581 -0.0550
 2797NCO    NCO 2797  10.245   5.275   1.835 -0.0805 -0.2168  0.2201
 2798CONH  CONH 2798   9.696   5.223   1.810  0.3381  0.3181  0.2092
 2799CC1    CC1 2799   9.939   5.152   1.656  0.0417  0.1244  0.4367
 2800CC1    CC1 2800   9.906   4.986   1.471 -0.0510  0.3656 -0.2368
 2801CC1    CC1 2801   9.831   4.777   1.376 -0.4793 -0.1357 -0.0838
 2802NCO    NCO 2802   9.802   4.463   1.406  0.3452 -0.2697  0.0427
 2803NCO    NCO 2803   8.379   8.989   2.732  0.1426  0.0092 -0.0325
 2804CC1    CC1 2804   8.493   8.744   2.687  0.4212  0.1461 -0.6854
 2805CC1    CC1 2805   8.645   8.741   2.525  0.2516  0.2580 -0.0942
 2806NCC    NCC 2806   8.719   8.567   2.302  0.1900 -0.0038 -0.1795
 2807CONH  CONH 2807   8.624   8.252   2.261 -0.3228 -0.4115 -0.4176
 2808CC1    CC1 2808   8.774   8.109   2.077  0.1082  0.5118 -0.2597
 2809CC1    CC1 2809   8.915   7.941   2.076 -0.2074 -0.4458 -0.1290
 2810CC1    CC1 2810   9.098   7.809   2.139 -0.6398 -0.3115  0.2746
 2811NCO    NCO 2811   9.062   7.798   2.426 -0.4425  0.1411  0.0246
 2812CONH  CONH 2812   8.691   8.580   1.988 -0.2457 -0.0474 -0.2137
 2813CC1    CC1 2813   8.460   8.544   1.810  0.1230 -0.3543 -0.0746
 2814CC1    CC1 2814   8.432   8.713   1.629  0.2371 -0.1368 -0.0024
 2815CC1    CC1 2815   8.480   8.760   1.412 -0.7672 -0.1688 -0.2002
 2816NCO    NCO 2816   8.726   8.770   1.367 -0.2658  0.1976 -0.7021
 2817NCO    NCO 2817   0.452   5.453   1.817  0.3037  0.5037 -0.0331
 2818CC1    CC1 2818   0.272   5.444   1.559 -0.0809 -0.7026 -0.3456
 2819CC1    CC1 2819   0.241   5.397   1.331  0.3143 -0.2278  0.2323
 2820NCC    NCC 2820   0.115   5.411   1.129  0.4913 -0.3164  0.0176
 2821CONH  CONH 2821  10.319   5.174   0.929  0.0846 -0.0502  0.1326
 2822CC1    CC1 2822   0.109   4.931   0.915  0.2928  0.1041 -0.2190
 2823CC1    CC1 2823   0.033   4.745   0.801 -0.0682 -0.3657 -0.2839
 2824CC1    CC1 2824  10.323   4.606   0.647  0.2256 -0.1453  0.6453
 2825NCO    NCO 2825  10.213   4.354   0.775  0.0528 -0.2168  0.2655
 2826CONH  CONH 2826  10.196   5.598   1.011 -0.1376 -0.3286  0.3883
 2827CC1    CC1 2827  10.129   5.835   1.134  0.2670 -0.6954  0.3843
 2828CC1    CC1 2828  10.129   5.845   1.348  0.1499 -0.6625 -0.6200
 2829CC1    CC1 2829  10.096   5.945   1.548  0.4246 -0.3873  0.1776
 2830NCO    NCO 2830  10.095   5.712   1.743  0.2714 -0.2551 -0.7398
 2831NCO    NCO 2831   5.916  10.194   9.755  0.0644  0.2137 -0.0840
 2832CC1    CC1 2832   5.680   0.052   9.676 -0.2712 -0.2731 -0.2973
 2833CC1    CC1 2833   5.533  10.259   9.832 -0.1319  0.6286  0.8120
 2834NCC    NCC 2834   5.290  10.134   9.843 -0.0321  0.0802  0.1188
 2835CONH  CONH 2835   5.134   9.980  10.059  0.0933  0.0463 -0.0128
 2836CC1    CC1 2836   5.184   9.992  10.324 -0.3335  0.0111 -0.0862
 2837CC1    CC1 2837   5.137   9.808   0.125  0.0133  0.0769  0.0196
 2838CC1    CC1 2838   5.081   9.627   0.275  0.1051 -0.6490  0.2040
 2839NCO    NCO 2839   5.245   9.583   0.569 -0.2714 -0.2045  0.0893
 2840CONH  CONH 2840   5.034  10.208   9.674 -0.1388  0.1179 -0.5503
 2841CC1    CC1 2841   5.033  10.172   9.443 -0.1951  0.0685  0.0137
 2842CC1    CC1 2842   5.188  10.184   9.246  0.1690  0.5207  0.1353
 2843CC1    CC1 2843   5.336  10.310   9.094 -0.1806  0.3967 -0.2248
 2844NCO    NCO 2844   5.418  10.118   8.904 -0.1519 -0.0456 -0.1186
 2845NCO    NCO 2845   4.580   3.283   7.523  0.0448 -0.5195 -0.0274
 2846CC1    CC1 2846   4.346   3.136   7.450 -0.0726  0.1835  0.1519
 2847CC1    CC1 2847   4.166   3.235   7.569 -0.5167  0.0758  0.3801
 2848NCC    NCC 2848   3.969   3.345   7.738  0.2355  0.2133  0.2968
 2849CONH  CONH 2849   3.778   3.227   7.957  0.3504 -0.1979 -0.1992
 2850CC1    CC1 2850   3.568   3.129   7.910  0.3011 -0.2757  0.2173
 2851CC1    CC1 2851   3.440   3.230   7.671 -0.1837  0.4016 -0.5724
 2852CC1    CC1 2852   3.241   3.185   7.513 -0.6121  0.1256  0.2646
 2853NCO    NCO 2853   3.151   2.908   7.589 -0.5069  0.0442 -0.0160
 2854CONH  CONH 2854   3.705   3.538   7.722  0.1219 -0.1624 -0.3837
 2855CC1    CC1 2855   3.543   3.529   7.512  0.1109 -0.7707 -0.5054
 2856CC1    CC1 2856   3.385   3.683   7.462  0.4437 -0.2373 -0.2134
 2857CC1    CC1 2857   3.252   3.849   7.543  0.7330  0.0916  0.2512
 2858NCO    NCO 2858   3.380   4.108   7.617 -0.1763  0.1109  0.1596
 2859NCO    NCO 2859   5.359   1.726   7.426  0.0512 -0.1265  0.0100
 2860CC1    CC1 2860   5.557   1.513   7.399  0.0465  0.0513  0.2857
 2861CC1    CC1 2861   5.575   1.464   7.631  0.1295  0.1135 -0.4465
 2862NCC    NCC 2862   5.641   1.265   7.816  0.0817  0.3091  0.2510
 2863CONH  CONH 2863   5.582   0.944   7.843 -0.3761 -0.0090  0.3256
 2864CC1    CC1 2864   5.637   0.802   7.657  0.1092  0.2137 -0.0881
 2865CC1    CC1 2865   5.458   0.789   7.454 -0.3637 -0.0944  0.5050
 2866CC1    CC1 2866   5.406   0.770   7.235 -0.0020 -0.1818  0.1560
 2867NCO    NCO 2867   5.513   0.475   7.143  0.2090 -0.2333 -0.2598
 2868CONH  CONH 2868   5.708   1.258   8.138  0.0345  0.0187 -0.5875
 2869CC1    CC1 2869   5.951   1.350   8.228  0.1480 -0.2261 -0.3764
 2870CC1    CC1 2870   6.019   1.594   8.305 -0.2678 -0.1036 -0.0166
 2871CC1    CC1 2871   6.132   1.775   8.301 -0.2099  0.4160 -0.2310
 2872NCO    NCO 2872   6.435   1.837   8.257  0.2150  0.3995  0.1328
 2873NCO    NCO 2873   9.364  10.247   2.269 -0.0324 -0.2727  0.1856
 2874CC1    CC1 2874   9.181   0.010   2.093 -0.1018  0.1177  0.0925
 2875CC1    CC1 2875   9.178  10.149   1.930 -0.0570  0.2019 -0.5964
 2876NCC    NCC 2876   9.220   9.892   1.801  0.1703  0.3697  0.0990
 2877CONH  CONH 2877   9.343   9.577   1.853  0.0177 -0.1908 -0.1062
 2878CC1    CC1 2878   9.232   9.308   1.766  0.0581 -0.1495  0.3610
 2879CC1    CC1 2879   9.369   9.145   1.699 -0.1604 -0.1379  0.0737
 2880CC1    CC1 2880   9.418   8.927   1.578 -0.0829  0.2635 -0.7856
 2881NCO    NCO 2881   9.506   8.729   1.816 -0.1435 -0.1303 -0.0382
 2882CONH  CONH 2882   9.096   9.744   1.546 -0.1550 -0.1306  0.3731
 2883CC1    CC1 2883   8.995   9.462   1.582 -0.3625  0.3865  0.2843
 2884CC1    CC1 2884   8.973   9.283   1.421  0.2471 -0.6544  0.3249
 2885CC1    CC1 2885   8.980   9.077   1.241 -0.2292  0.1162 -0.0982
 2886NCO    NCO 2886   9.175   8.845   1.276 -0.0461 -0.0086 -0.1801
 2887NCO    NCO 2887   3.174   7.750   6.931 -0.0246 -0.0531  0.1811
 2888CC1    CC1 2888   3.418   7.617   7.084 -0.0478 -0.3211  0.0679
 2889CC1    CC1 2889   3.293   7.437   7.199  0.1799 -0.2058  0.3956
 2890NCC    NCC 2890   3.054   7.283   7.281  0.4391  0.0566 -0.0635
 2891CONH  CONH 2891   2.841   7.126   7.100  0.4461 -0.0045 -0.1254
 2892CC1    CC1 2892   2.858   7.109   6.842 -0.5703 -0.2503  0.1899
 2893CC1    CC1 2893   3.021   7.116   6.749 -0.2885  0.2911  0.1849
 2894CC1    CC1 2894   3.215   7.035   6.584  0.1894  0.0480 -0.0939
 2895NCO    NCO 2895   3.295   6.872   6.339  0.0928  0.0174 -0.4035
 2896CONH  CONH 2896   3.012   7.053   7.464  0.4190  0.2257 -0.0996
 2897CC1    CC1 2897   2.851   7.075   7.669 -0.0495  0.2968 -0.3817
 2898CC1    CC1 2898   2.616   7.173   7.666  0.0753 -0.0499 -0.2274
 2899CC1    CC1 2899   2.462   7.348   7.681 -0.0548  0.0391  0.0399
 2900NCO    NCO 2900   2.437   7.656   7.745  0.3489  0.1133 -0.5305
 2901NCO    NCO 2901   9.286   8.533   6.095  0.0144 -0.1414  0.1024
 2902CC1    CC1 2902   9.338   8.353   6.344  0.1734 -0.0485 -0.1550
 2903CC1    CC1 2903   9.520   8.444   6.457  0.3940 -0.3180  0.0058
 2904NCC    NCC 2904   9.689   8.615   6.606 -0.0207  0.1035 -0.0455
 2905CONH  CONH 2905   9.770   8.911   6.554 -0.1056  0.2179 -0.2951
 2906CC1    CC1 2906   9.724   9.053   6.723  0.0204  0.1587  0.1242
 2907CC1    CC1 2907   9.939   9.180   6.775  0.2133 -0.3252  0.0751
 2908CC1    CC1 2908  10.182   9.190   6.811  0.2226  0.3634  0.7458
 2909NCO    NCO 2909  10.248   9.451   6.716 -0.0301 -0.3068 -0.0157
 2910CONH  CONH 2910  10.001   8.573   6.681 -0.1276 -0.4480 -0.2130
 2911CC1    CC1 2911  10.171   8.788   6.784  0.1405 -0.1776  0.3702
 2912CC1    CC1 2912  10.045   8.902   6.946 -0.5490  0.0487 -0.0030
 2913CC1    CC1 2913   9.997   8.920   7.154  0.0481 -0.0016  0.0655
 2914NCO    NCO 2914   9.797   9.024   7.356  0.1490  0.0972  0.0896
 2915NCO    NCO 2915   5.426   0.431   9.678 -0.1448  0.1522  0.3797
 2916CC1    CC1 2916   5.307   0.142   9.580  0.1457 -0.0146  0.0404
 2917CC1    CC1 2917   5.227   0.223   9.359 -0.1600  0.5223 -0.0836
 2918NCC    NCC 2918   5.151   0.296   9.110  0.1522  0.3766 -0.3329
 2919CONH  CONH 2919   5.292   0.242   8.801  0.0106  0.0445  0.0026
 2920CC1    CC1 2920   5.385   0.460   8.635 -0.0619  0.0253 -0.7778
 2921CC1    CC1 2921   5.433   0.410   8.414 -0.1275 -0.2388 -0.3295
 2922CC1    CC1 2922   5.593   0.415   8.243 -0.0155 -0.4232  0.0093
 2923NCO    NCO 2923   5.464   0.572   8.008 -0.0562  0.2428  0.0661
 2924CONH  CONH 2924   4.923   0.368   8.971  0.2340  0.4520 -0.0597
 2925CC1    CC1 2925   4.868   0.589   8.897 -0.3557 -0.1239 -0.2160
 2926CC1    CC1 2926   4.838   0.758   9.020 -0.1424  0.1074  0.0261
 2927CC1    CC1 2927   4.778   0.869   9.180  0.1214  0.0655 -0.2763
 2928NCO    NCO 2928   4.634   0.679   9.348  0.1360  0.0280  0.0116
 2929NCO    NCO 2929   4.051   7.457   2.007  0.2680  0.4325 -0.2905
 2930CC1    CC1 2930   3.967   7.745   2.034  0.0676  0.2626  0.3117
 2931CC1    CC1 2931   4.209   7.783   2.103  0.1916 -0.1727 -0.0117
 2932NCC    NCC 2932   4.497   7.886   2.033 -0.1244  0.4819  0.1272
 2933CONH  CONH 2933   4.724   7.796   1.816 -0.1252  0.0471  0.1581
 2934CC1    CC1 2934   4.641   7.746   1.529  0.1444  0.4186  0.1047
 2935CC1    CC1 2935   4.717   7.531   1.462  0.1649 -0.4636  0.1879
 2936CC1    CC1 2936   4.790   7.327   1.410 -0.1979  0.3770 -0.0718
 2937NCO    NCO 2937   4.725   7.135   1.605  0.0010 -0.3206  0.0831
 2938CONH  CONH 2938   4.669   8.135   2.029 -0.2162 -0.1944  0.2853
 2939CC1    CC1 2939   4.894   8.156   2.156 -0.2402 -0.2594  0.1055
 2940CC1    CC1 2940   4.854   8.318   2.312  0.2729 -0.0865  0.1252
 2941CC1    CC1 2941   4.885   8.536   2.413  0.1118 -0.2848 -0.0533
 2942NCO    NCO 2942   5.085   8.503   2.634 -0.3247  0.0024 -0.2499
 2943NCO    NCO 2943   9.389   6.634   0.376  0.0250  0.1469 -0.0690
 2944CC1    CC1 2944   9.306   6.466   0.645  0.0454  0.0439 -0.1981
 2945CC1    CC1 2945   9.467   6.473   0.796  0.0044  0.0287  0.2477
 2946NCC    NCC 2946   9.759   6.482   0.856  0.1306 -0.2112 -0.2581
 2947CONH  CONH 2947   9.876   6.682   1.074  0.2175 -0.0358  0.2159
 2948CC1    CC1 2948   9.875   6.648   1.294  0.3595 -0.6883 -0.2765
 2949CC1    CC1 2949   9.688   6.573   1.401  0.3672 -0.3955 -0.0990
 2950CC1    CC1 2950   9.507   6.583   1.563  0.0707 -0.0508  0.0664
 2951NCO    NCO 2951   9.542   6.423   1.785  0.1120 -0.2924  0.5366
 2952CONH  CONH 2952   9.979   6.565   0.626  0.0026  0.0975  0.3958
 2953CC1    CC1 2953  10.184   6.399   0.578  0.5652  0.1547 -0.1512
 2954CC1    CC1 2954   0.028   6.429   0.526  0.6046  0.1748  0.3054
 2955CC1    CC1 2955   0.249   6.505   0.493  0.0497  0.2407  0.0479
 2956NCO    NCO 2956   0.377   6.289   0.318  0.0376 -0.1715  0.1418
 2957NCO    NCO 2957   7.027   1.092   8.786 -0.2425 -0.0219 -0.2604
 2958CC1    CC1 2958   6.972   1.091   9.025 -0.3537 -0.1891 -0.2970
 2959CC1    CC1 2959   6.737   1.190   9.041  0.5485  0.0573  0.7604
 2960NCC    NCC 2960   6.504   1.154   8.959 -0.1171  0.0477 -0.2258
 2961CONH  CONH 2961   6.268   0.919   8.996 -0.0941  0.6923  0.4459
 2962CC1    CC1 2962   6.016   0.962   8.870  0.1199  0.2250  0.1833
 2963CC1    CC1 2963   6.027   0.974   8.641  0.8696 -0.2579  0.2154
 2964CC1    CC1 2964   6.116   1.021   8.426 -0.2688  0.1365  0.0004
 2965NCO    NCO 2965   6.349   0.875   8.354 -0.5498 -0.3397 -0.1422
 2966CONH  CONH 2966   6.360   1.192   8.690  0.3137 -0.1795  0.0084
 2967CC1    CC1 2967   6.253   1.377   8.647  0.1824  0.0638  0.0493
 2968CC1    CC1 2968   6.276   1.569   8.763  0.1019 -0.4800 -0.2771
 2969CC1    CC1 2969   6.342   1.715   8.961  0.1251  0.0884  0.3751
 2970NCO    NCO 2970   6.142   1.705   9.195 -0.0992  0.1626 -0.3523
 2971NCO    NCO 2971   5.979   0.562   9.178 -0.2365 -0.1875  0.0162
 2972CC1    CC1 2972   5.776   0.652   9.024 -0.5033 -0.3037 -0.1281
 2973CC1    CC1 2973   5.705   0.883   9.001 -0.2073  0.2164 -0.1704
 2974NCC    NCC 2974   5.675   1.142   9.088  0.0041 -0.4439  0.1503
 2975CONH  CONH 2975   5.726   1.309   9.373  0.0812  0.2785  0.2989
 2976CC1    CC1 2976   5.542   1.529   9.440 -0.3547 -0.1176 -0.0698
 2977CC1    CC1 2977   5.506   1.715   9.393  0.0898 -0.1140 -0.1923
 2978CC1    CC1 2978   5.513   1.902   9.290 -0.1017  0.1864  0.0906
 2979NCO    NCO 2979   5.770   1.990   9.385  0.1220  0.2676 -0.0153
 2980CONH  CONH 2980   5.542   1.416   8.974 -0.4785  0.3856 -0.0470
 2981CC1    CC1 2981   5.645   1.671   9.054  0.2194  0.4020 -0.1155
 2982CC1    CC1 2982   5.740   1.808   8.919 -0.2094 -0.2879 -0.1305
 2983CC1    CC1 2983   5.929   1.896   8.829 -0.4505 -0.2351 -0.0397
 2984NCO    NCO 2984   5.997   2.120   9.008 -0.1090  0.2891  0.3103
 2985NCO    NCO 2985   1.312   9.118   9.555  0.2175 -0.0000 -0.1470
 2986CC1    CC1 2986   1.557   9.029   9.395  0.3290  0.1925  0.2459
 2987CC1    CC1 2987   1.415   8.924   9.248 -0.4627  0.4170  0.0646
 2988NCC    NCC 2988   1.268   8.870   9.020  0.0729 -0.4007 -0.0333
 2989CONH  CONH 2989   0.962   8.801   8.979  0.5309 -0.3532 -0.0622
 2990CC1    CC1 2990   0.858   8.549   9.072  0.1629 -0.4144  0.3484
 2991CC1    CC1 2991   0.812   8.402   8.906 -0.4691 -0.4788  0.1079
 2992CC1    CC1 2992   0.764   8.312   8.679 -0.0139  0.1971  0.4922
 2993NCO    NCO 2993   0.541   8.267   8.528  0.1644  0.4679 -0.4845
 2994CONH  CONH 2994   1.278   8.879   8.708 -0.0033 -0.1575 -0.1496
 2995CC1    CC1 2995   1.489   8.815   8.610 -0.0204  0.4858  0.1896
 2996CC1    CC1 2996   1.676   8.935   8.529 -0.4912  0.7512  0.1458
 2997CC1    CC1 2997   1.850   9.045   8.463 -0.2029 -0.1355 -0.4202
 2998NCO    NCO 2998   2.088   8.992   8.628  0.0612 -0.0871  0.0427
 2999NCO    NCO 2999   0.969   4.931   3.797  0.0088 -0.0231 -0.1500
 3000CC1    CC1 3000   1.251   4.911   3.918  0.2274 -0.0721  0.3989
 3001CC1    CC1 3001   1.230   4.802   4.109 -0.1147  0.1839 -0.0432
 3002NCC    NCC 3002   1.221   4.555   4.255 -0.1548  0.2126 -0.1613
 3003CONH  CONH 3003   1.439   4.343   4.213 -0.1516 -0.3735 -0.0802
 3004CC1    CC1 3004   1.354   4.065   4.193 -0.7286 -0.0324  0.1390
 3005CC1    CC1 3005   1.156   3.987   4.287  0.2560  0.3814 -0.0099
 3006CC1    CC1 3006   0.922   3.966   4.373  0.1165 -0.3071 -0.1581
 3007NCO    NCO 3007   0.923   3.851   4.615  0.7541  0.0027  0.4518
 3008CONH  CONH 3008   1.015   4.327   4.141 -0.0674  0.0952 -0.1726
 3009CC1    CC1 3009   0.843   4.398   3.966 -0.2051 -0.3420  0.2544
 3010CC1    CC1 3010   0.873   4.339   3.708 -0.0315 -0.2902 -0.5483
 3011CC1    CC1 3011   0.757   4.268   3.514 -0.2474 -0.1701 -0.1113
 3012NCO    NCO 3012   0.774   4.012   3.396  0.1621  0.3111 -0.0899
 3013NCO    NCO 3013   9.984   8.563   1.181  0.2902 -0.0031 -0.0366
 3014CC1    CC1 3014   9.655   8.487   1.215 -0.5604  0.2644 -0.0664
 3015CC1    CC1 3015   9.394   8.482   1.363 -0.0380 -0.0414  0.5734
 3016NCC    NCC 3016   9.251   8.457   1.589 -0.2474  0.2758 -0.1360
 3017CONH  CONH 3017   8.944   8.423   1.615  0.2640 -0.2051 -0.0107
 3018CC1    CC1 3018   8.833   8.167   1.623  0.1403  0.0768  0.0661
 3019CC1    CC1 3019   8.873   7.944   1.668  0.1419  0.3170 -0.2769
 3020CC1    CC1 3020   8.970   7.739   1.755 -0.1279 -0.0633 -0.0407
 3021NCO    NCO 3021   9.277   7.779   1.729  0.0013 -0.2034 -0.1161
 3022CONH  CONH 3022   9.229   8.210   1.778 -0.2780  0.3875 -0.1330
 3023CC1    CC1 3023   9.057   8.240   1.982 -0.1897  0.0924  0.4131
 3024CC1    CC1 3024   9.070   8.429   2.090 -0.1556 -0.0823 -0.2710
 3025CC1    CC1 3025   9.133   8.624   2.234  0.0387 -0.1836 -0.0451
 3026NCO    NCO 3026   9.132   8.887   2.110 -0.0423 -0.2095  0.2297
 3027NCO    NCO 3027   6.294   0.022   8.172 -0.1441 -0.2465  0.1315
 3028CC1    CC1 3028   6.060   0.205   8.186 -0.3663  0.0931  0.2908
 3029CC1    CC1 3029   5.984   0.393   8.252 -0.0273  0.1876 -0.0065
 3030NCC    NCC 3030   5.970   0.650   8.261 -0.1708  0.0755 -0.1558
 3031CONH  CONH 3031   5.734   0.799   8.394 -0.0823  0.1162  0.0330
 3032CC1    CC1 3032   5.708   0.822   8.679 -0.1220 -0.0632 -0.2295
 3033CC1    CC1 3033   5.514   0.813   8.740 -0.1959 -0.0924  0.1341
 3034CC1    CC1 3034   5.298   0.745   8.844 -0.1264 -0.0489 -0.1633
 3035NCO    NCO 3035   5.235   1.012   9.073 -0.0931 -0.0909  0.2011
 3036CONH  CONH 3036   5.985   0.915   8.054 -0.2884 -0.0422  0.1203
 3037CC1    CC1 3037   5.986   0.868   7.753  0.1231 -0.2433  0.1821
 3038CC1    CC1 3038   5.910   1.048   7.619 -0.2811  0.2455  0.4227
 3039CC1    CC1 3039   5.901   1.157   7.443  0.0210 -0.2899  0.3237
 3040NCO    NCO 3040   6.206   1.122   7.370 -0.2157  0.1672  0.1097
 3041NCO    NCO 3041   1.821   9.475  10.337 -0.0197  0.0248 -0.1699
 3042CC1    CC1 3042   2.045   9.468  10.132 -0.0829 -0.2296 -0.0564
 3043CC1    CC1 3043   2.003   9.518   9.908 -0.1176 -0.1174  0.2374
 3044NCC    NCC 3044   1.936   9.406   9.670  0.1543 -0.3485  0.3003
 3045CONH  CONH 3045   1.921   9.118   9.526 -0.0503 -0.2113 -0.0898
 3046CC1    CC1 3046   1.839   9.123   9.254  0.1375  0.0523  0.1092
 3047CC1    CC1 3047   1.970   9.133   9.132 -0.0681  0.3085 -0.2740
 3048CC1    CC1 3048   2.150   9.190   9.037 -0.2478  0.2564  0.0605
 3049NCO    NCO 3049   2.390   9.364   9.135 -0.0197 -0.2491 -0.0062
 3050CONH  CONH 3050   1.995   9.523   9.385  0.1285 -0.0315  0.0654
 3051CC1    CC1 3051   1.829   9.450   9.175  0.3354  0.0822 -0.0890
 3052CC1    CC1 3052   1.586   9.356   9.098 -0.3097 -0.0186 -0.5596
 3053CC1    CC1 3053   1.357   9.306   9.142 -0.3008  0.1352  1.0635
 3054NCO    NCO 3054   1.211   9.493   9.246  0.0242 -0.2293  0.4156
 3055NCO    NCO 3055   4.028   2.876   7.970 -0.1243 -0.1839 -0.0697
 3056CC1    CC1 3056   3.827   2.878   7.701  0.4899  0.2499 -0.1567
 3057CC1    CC1 3057   3.793   3.039   7.535 -0.1645  0.0169 -0.1405
 3058NCC    NCC 3058   3.732   3.242   7.412 -0.0306 -0.0188 -0.0084
 3059CONH  CONH 3059   3.555   3.322   7.141 -0.5674  0.2569  0.1499
 3060CC1    CC1 3060   3.690   3.506   6.938 -0.0946 -0.6188  0.1261
 3061CC1    CC1 3061   3.662   3.482   6.771  0.0115  0.3728 -0.1317
 3062CC1    CC1 3062   3.590   3.509   6.539 -0.4086  0.1218 -0.2489
 3063NCO    NCO 3063   3.738   3.307   6.439 -0.0496  0.5550  0.1232
 3064CONH  CONH 3064   3.951   3.405   7.261 -0.0637 -0.1977 -0.2544
 3065CC1    CC1 3065   4.117   3.350   7.030  0.0491  0.3863 -0.2870
 3066CC1    CC1 3066   4.074   3.254   6.819  0.3935  0.3627 -0.3939
 3067CC1    CC1 3067   4.117   3.156   6.617 -0.0070  0.6803  0.1992
 3068NCO    NCO 3068   4.319   2.885   6.659  0.2812 -0.2948 -0.3045
 3069NCO    NCO 3069   8.058   6.095   4.548 -0.0064 -0.1467 -0.4333
 3070CC1    CC1 3070   7.937   6.219   4.311 -0.3831 -0.0664 -0.2904
 3071CC1    CC1 3071   7.779   6.062   4.187 -0.2050  0.5752 -0.0393
 3072NCC    NCC 3072   7.802   5.809   4.144  0.0248 -0.1220  0.0652
 3073CONH  CONH 3073   8.056   5.648   4.055  0.2748  0.0276 -0.0899
 3074CC1    CC1 3074   8.155   5.676   3.785  0.3850  0.2410  0.3937
 3075CC1    CC1 3075   8.150   5.820   3.692  0.0702  0.3426 -0.0948
 3076CC1    CC1 3076   8.112   6.066   3.649 -0.0533  0.2754 -0.2128
 3077NCO    NCO 3077   8.088   6.124   3.370 -0.0791  0.0101 -0.2995
 3078CONH  CONH 3078   7.794   5.555   4.356 -0.0319  0.2136  0.2611
 3079CC1    CC1 3079   7.816   5.602   4.593  0.1931  0.2810  0.3182
 3080CC1    CC1 3080   7.649   5.692   4.690  0.2477  0.2507 -0.2726
 3081CC1    CC1 3081   7.436   5.772   4.732 -0.3439 -0.2385 -0.2432
 3082NCO    NCO 3082   7.153   5.739   4.666  0.1925 -0.2098  0.3622
 3083NCO    NCO 3083   4.707   1.453   9.061 -0.0903 -0.0066 -0.2104
 3084CC1    CC1 3084   4.746   1.209   8.941  0.1503  0.2412 -0.5450
 3085CC1    CC1 3085   4.963   1.216   8.812 -0.0237  0.5312  0.0559
 3086NCC    NCC 3086   5.210   1.322   8.705  0.1724 -0.1287 -0.3631
 3087CONH  CONH 3087   5.434   1.151   8.570 -0.1764  0.1813 -0.1475
 3088CC1    CC1 3088   5.708   1.198   8.652  0.2509  0.6484  0.4826
 3089CC1    CC1 3089   5.870   1.315   8.726  0.1834  0.1135 -0.0464
 3090CC1    CC1 3090   5.973   1.415   8.909 -0.2037  0.0516  0.1509
 3091NCO    NCO 3091   6.092   1.285   9.082  0.0578  0.0674 -0.3056
 3092CONH  CONH 3092   5.360   1.615   8.640  0.1267  0.0337  0.1530
 3093CC1    CC1 3093   5.638   1.638   8.611 -0.4352  0.2015  0.2101
 3094CC1    CC1 3094   5.671   1.612   8.388  0.4744  0.1104  0.1522
 3095CC1    CC1 3095   5.666   1.713   8.176  0.1081 -0.1786  0.3732
 3096NCO    NCO 3096   5.470   1.622   8.026  0.0180 -0.0323  0.0980
 3097NCO    NCO 3097   6.367   0.165   3.113 -0.1940 -0.1958  0.5958
 3098CC1    CC1 3098   6.107   0.196   3.170 -0.1865 -0.1834 -0.0886
 3099CC1    CC1 3099   6.023   0.072   3.341  0.0160 -0.1230  0.1838
 3100NCC    NCC 3100   5.876  10.255   3.542  0.1223  0.3806 -0.0032
 3101CONH  CONH 3101   5.708   9.977   3.692 -0.2630  0.3216  0.3000
 3102CC1    CC1 3102   5.652   9.995   3.947  0.0666 -0.1940  0.0594
 3103CC1    CC1 3103   5.675  10.031   4.208  0.2202  0.0968  0.3325
 3104CC1    CC1 3104   5.690  10.158   4.364  0.2775  0.1327 -0.2704
 3105NCO    NCO 3105   5.570  10.248   4.630  0.4444  0.1886  0.2897
 3106CONH  CONH 3106   5.750   0.044   3.802  0.0876  0.0624 -0.3409
 3107CC1    CC1 3107   5.846   0.218   3.986 -0.2808  0.2197  0.7210
 3108CC1    CC1 3108   5.834   0.176   4.184  0.0301 -0.1944 -0.2673
 3109CC1    CC1 3109   5.913   0.181   4.406  0.7046  0.0529 -0.5819
 3110NCO    NCO 3110   5.766   0.352   4.600  0.0927  0.0773  0.2649
 3111NCO    NCO 3111   6.846   7.089   4.617 -0.0741  0.3466 -0.0216
 3112CC1    CC1 3112   6.744   7.065   4.860  0.0519 -0.0350  0.1878
 3113CC1    CC1 3113   6.504   7.101   4.871 -0.2317 -0.6735  0.2193
 3114NCC    NCC 3114   6.250   7.081   5.014 -0.5225  0.1334 -0.0115
 3115CONH  CONH 3115   5.960   6.956   5.040 -0.1407  0.1136  0.1088
 3116CC1    CC1 3116   5.903   6.732   5.146  0.1931 -0.2400  0.3629
 3117CC1    CC1 3117   5.781   6.690   5.364  0.0541  0.1311  0.1937
 3118CC1    CC1 3118   5.614   6.665   5.550 -0.1947 -0.3129 -0.2939
 3119NCO    NCO 3119   5.688   6.530   5.808  0.1628  0.1657  0.1580
 3120CONH  CONH 3120   6.243   7.077   5.317 -0.0761 -0.0640 -0.0725
 3121CC1    CC1 3121   6.090   6.865   5.446  0.5874 -0.3260  0.0669
 3122CC1    CC1 3122   5.893   6.980   5.590 -0.1879 -0.1948  0.2427
 3123CC1    CC1 3123   5.745   7.134   5.652  0.3864  0.0364  0.2650
 3124NCO    NCO 3124   5.491   7.110   5.548  0.0648  0.2161  0.0063
 3125NCO    NCO 3125   0.530   6.383   0.824  0.0644 -0.0705  0.1502
 3126CC1    CC1 3126   0.320   6.571   0.899 -0.3573 -0.2602  0.4589
 3127CC1    CC1 3127   0.091   6.468   0.883  0.1630  0.6327  0.5330
 3128NCC    NCC 3128  10.167   6.316   0.958 -0.1664  0.2832  0.3649
 3129CONH  CONH 3129   9.996   6.258   1.204 -0.1500  0.0895  0.1756
 3130CC1    CC1 3130   9.732   6.301   1.201  0.2701 -0.1001 -0.0128
 3131CC1    CC1 3131   9.580   6.172   1.078 -0.8381 -0.1463 -0.6791
 3132CC1    CC1 3132   9.517   6.084   0.863  0.2386  0.2697 -0.4111
 3133NCO    NCO 3133   9.262   6.071   0.809  0.2161 -0.2238 -0.2280
 3134CONH  CONH 3134   9.960   6.097   0.790  0.0644  0.4873  0.2806
 3135CC1    CC1 3135   9.831   5.885   0.928 -0.3484 -0.5390  0.3921
 3136CC1    CC1 3136   9.779   5.910   1.147 -0.1513 -0.2893 -0.3527
 3137CC1    CC1 3137   9.694   5.963   1.370 -0.0356 -0.0513 -0.2834
 3138NCO    NCO 3138   9.713   6.005   1.642  0.4046 -0.0555 -0.1501
 3139NCO    NCO 3139   6.510   9.805   9.502 -0.3002  0.1569 -0.0972
 3140CC1    CC1 3140   6.487  10.107   9.429  0.0932  0.2525 -0.6044
 3141CC1    CC1 3141   6.468  10.115   9.180  0.4507  0.0485 -0.0760
 3142NCC    NCC 3142   6.315  10.134   8.942  0.4879  0.2269  0.5007
 3143CONH  CONH 3143   6.007  10.063   8.865  0.1376  0.2688  0.1207
 3144CC1    CC1 3144   5.904  10.006   8.618 -0.0157  0.0718  0.4928
 3145CC1    CC1 3145   6.086   9.921   8.500  0.3777  0.3559  0.2223
 3146CC1    CC1 3146   6.230   9.948   8.333  0.4552 -0.6110 -0.2282
 3147NCO    NCO 3147   6.453   9.811   8.315 -0.0592  0.0930  0.1282
 3148CONH  CONH 3148   6.222   0.064   8.792 -0.0630 -0.0523 -0.0939
 3149CC1    CC1 3149   6.085   0.063   8.574  0.0556 -0.1717  0.3462
 3150CC1    CC1 3150   5.896   0.009   8.462  0.0661 -0.1104 -0.1354
 3151CC1    CC1 3151   5.643  10.318   8.465 -0.3010  0.7536 -0.3552
 3152NCO    NCO 3152   5.612  10.150   8.188  0.1436 -0.3811  0.1347
 3153NCO    NCO 3153   0.732   5.762   1.481 -0.2532 -0.3376 -0.0402
 3154CC1    CC1 3154   0.837   6.019   1.600 -0.0154  0.2497 -0.4283
 3155CC1    CC1 3155   0.645   6.149   1.648 -0.2837  0.1380  0.4043
 3156NCC    NCC 3156   0.514   6.384   1.586  0.0100 -0.1176  0.4557
 3157CONH  CONH 3157   0.237   6.488   1.673  0.0851 -0.2340  0.2436
 3158CC1    CC1 3158   0.054   6.620   1.512  0.4422  0.1380 -0.0407
 3159CC1    CC1 3159  10.287   6.813   1.585  0.3470 -0.3915 -0.0341
 3160CC1    CC1 3160  10.307   7.006   1.715  0.1051  0.0899 -0.3266
 3161NCO    NCO 3161   0.245   7.122   1.675  0.1004  0.2268 -0.6016
 3162CONH  CONH 3162   0.455   6.600   1.321 -0.1171 -0.0632 -0.0247
 3163CC1    CC1 3163   0.662   6.749   1.190  0.1074  0.5014  0.2248
 3164CC1    CC1 3164   0.555   6.829   0.986  0.0089  0.5348  0.4436
 3165CC1    CC1 3165   0.522   6.834   0.731  0.2824 -0.0016 -0.5324
 3166NCO    NCO 3166   0.367   7.072   0.583  0.2139  0.3756  0.0826
 3167NCO    NCO 3167   1.966   6.507   2.046 -0.2898 -0.1552  0.0940
 3168CC1    CC1 3168   1.777   6.524   2.244 -0.2415  0.1204 -0.0009
 3169CC1    CC1 3169   1.650   6.313   2.295  0.3552 -0.0586  0.1351
 3170NCC    NCC 3170   1.433   6.168   2.246 -0.0763  0.1488  0.0932
 3171CONH  CONH 3171   1.240   5.954   2.391  0.3794  0.0241 -0.0204
 3172CC1    CC1 3172   1.317   5.856   2.665  0.1693 -0.4136  0.3184
 3173CC1    CC1 3173   1.483   5.652   2.762 -0.2002 -0.3608  0.3521
 3174CC1    CC1 3174   1.545   5.448   2.798  0.1537 -0.4512  0.2367
 3175NCO    NCO 3175   1.818   5.419   2.669 -0.2795  0.2979  0.1596
 3176CONH  CONH 3176   1.207   6.207   2.045  0.1724 -0.2627  0.8169
 3177CC1    CC1 3177   0.981   6.068   2.022  0.5573 -0.6390 -0.6275
 3178CC1    CC1 3178   0.812   6.213   2.179 -0.2020 -0.2897 -0.3465
 3179CC1    CC1 3179   0.633   6.255   2.348  0.1506 -0.1474  0.4869
 3180NCO    NCO 3180   0.676   6.109   2.536  0.1669 -0.0360  0.1781
 3181NCO    NCO 3181   5.567   9.875   9.615  0.3109 -0.0864  0.1812
 3182CC1    CC1 3182   5.513   9.971   9.312  0.2446  0.3618 -0.4011
 3183CC1    CC1 3183   5.592  10.127   9.246 -0.0271  0.1913 -0.1962
 3184NCC    NCC 3184   5.711   0.015   9.243 -0.0699  0.2459  0.0098
 3185CONH  CONH 3185   5.833   0.176   8.971  0.0946  0.4386 -0.3098
 3186CC1    CC1 3186   5.699   0.322   8.825  0.2869 -0.1903  0.2038
 3187CC1    CC1 3187   5.825   0.478   8.705 -0.1750 -0.2593 -0.0987
 3188CC1    CC1 3188   5.984   0.644   8.716  0.1212 -0.2504 -0.0288
 3189NCO    NCO 3189   6.235   0.509   8.594  0.2256  0.0060 -0.2873
 3190CONH  CONH 3190   5.627   0.300   9.338 -0.3414 -0.4616 -0.0069
 3191CC1    CC1 3191   5.526   0.464   9.153  0.3299 -0.0687  0.1464
 3192CC1    CC1 3192   5.532   0.712   9.253  0.1181  0.4411 -0.1287
 3193CC1    CC1 3193   5.650   0.877   9.349  0.1743 -0.4254  0.3841
 3194NCO    NCO 3194   5.930   0.876   9.410  0.5319  0.3478 -0.0737
 3195NCO    NCO 3195   4.815   1.750   9.410 -0.2652 -0.4040 -0.3512
 3196CC1    CC1 3196   5.104   1.756   9.455  0.1487  0.2931  0.1465
 3197CC1    CC1 3197   5.181   1.972   9.513 -0.3992  0.2719 -0.1775
 3198NCC    NCC 3198   5.243   2.246   9.477 -0.1731  0.2411  0.3510
 3199CONH  CONH 3199   5.506   2.383   9.397  0.1995 -0.2558  0.1372
 3200CC1    CC1 3200   5.584   2.360   9.131 -0.3382 -0.1161 -0.0648
 3201CC1    CC1 3201   5.526   2.166   9.022  0.0889  0.1245 -0.7771
 3202CC1    CC1 3202   5.424   2.023   8.861 -0.2205  0.4078 -0.2490
 3203NCO    NCO 3203   5.529   2.019   8.610  0.2578  0.0017  0.3174
 3204CONH  CONH 3204   5.061   2.494   9.409  0.2148  0.2102 -0.2255
 3205CC1    CC1 3205   5.095   2.748   9.547 -0.2107 -0.1138  0.2450
 3206CC1    CC1 3206   5.281   2.828   9.667  0.0989 -0.1327 -0.3499
 3207CC1    CC1 3207   5.477   2.899   9.761 -0.5179 -0.0497  0.2942
 3208NCO    NCO 3208   5.496   2.688  10.040  0.3373 -0.2370  0.0978
 3209NCO    NCO 3209   0.851   7.308   9.206 -0.4753 -0.0881 -0.5472
 3210CC1    CC1 3210   0.920   7.342   8.951  0.0414 -0.2889 -0.3511
 3211CC1    CC1 3211   1.075   7.206   8.799  0.0132 -0.0394 -0.4802
 3212NCC    NCC 3212   1.281   7.053   8.697  0.0004 -0.3861  0.4622
 3213CONH  CONH 3213   1.464   6.786   8.827  0.1276 -0.1049  0.1905
 3214CC1    CC1 3214   1.379   6.727   9.109 -0.0265 -0.4617  0.2154
 3215CC1    CC1 3215   1.454   6.516   9.214 -0.2183  0.1290 -0.2504
 3216CC1    CC1 3216   1.504   6.359   9.399  0.0474 -0.0032  0.4465
 3217NCO    NCO 3217   1.343   6.158   9.517  0.1133 -0.0747  0.2698
 3218CONH  CONH 3218   1.569   7.134   8.644  0.0766  0.2449 -0.0520
 3219CC1    CC1 3219   1.669   7.179   8.362  0.0743 -0.0301 -0.1890
 3220CC1    CC1 3220   1.575   7.163   8.179  0.0433 -0.0958 -0.1249
 3221CC1    CC1 3221   1.499   7.004   8.044 -0.1246 -0.1372  0.0140
 3222NCO    NCO 3222   1.389   6.789   8.126  0.5536  0.4115  0.0082
 3223NCO    NCO 3223   5.084   9.700   3.390 -0.3295 -0.4500  0.0404
 3224CC1    CC1 3224   5.347   9.799   3.397  0.0718 -0.1385  0.3231
 3225CC1    CC1 3225   5.326  10.012   3.489 -0.4099 -0.1756  0.4393
 3226NCC    NCC 3226   5.340  10.262   3.645  0.0725  0.0423 -0.1148
 3227CONH  CONH 3227   5.238   0.025   3.936  0.1553  0.0067  0.1569
 3228CC1    CC1 3228   5.425   0.049   4.139  0.0300 -0.2207 -0.2912
 3229CC1    CC1 3229   5.467   0.278   4.171  0.5139  0.1653 -0.2033
 3230CC1    CC1 3230   5.431   0.494   4.176 -0.1962 -0.3593  0.1429
 3231NCO    NCO 3231   5.403   0.691   4.409 -0.0537  0.1365 -0.1565
 3232CONH  CONH 3232   5.325   0.204   3.537  0.0876  0.1248 -0.0392
 3233CC1    CC1 3233   5.343   0.402   3.704  0.0896 -0.2276 -0.3062
 3234CC1    CC1 3234   5.575   0.416   3.834  0.3599 -0.0065 -0.0907
 3235CC1    CC1 3235   5.765   0.500   3.851 -0.2530 -0.2351  0.5518
 3236NCO    NCO 3236   5.857   0.600   4.089 -0.0801  0.0003  0.3663
 3237NCO    NCO 3237   0.092   9.383   2.678  0.1349  0.0717  0.1226
 3238CC1    CC1 3238   0.235   9.463   2.438 -0.1556 -0.0017  0.5300
 3239CC1    CC1 3239   0.255   9.698   2.352  0.3371  0.1062 -0.5228
 3240NCC    NCC 3240   0.118   9.903   2.185  0.1249 -0.1007  0.1193
 3241CONH  CONH 3241  10.311   9.879   1.932 -0.2917 -0.1445 -0.0301
 3242CC1    CC1 3242   0.095   9.719   1.720 -0.2645  0.1785 -0.1565
 3243CC1    CC1 3243   0.126   9.786   1.517 -0.6248 -0.3228  0.3504
 3244CC1    CC1 3244   0.243   9.898   1.290 -0.0350 -0.0799 -0.5240
 3245NCO    NCO 3245   0.432   9.788   1.186  0.1966 -0.0088 -0.1905
 3246CONH  CONH 3246  10.297  10.158   2.215  0.3640 -0.1475 -0.0945
 3247CC1    CC1 3247  10.040  10.154   2.333  0.0387 -0.6322  0.5151
 3248CC1    CC1 3248   9.900  10.008   2.250  0.5774  0.1007  0.7054
 3249CC1    CC1 3249   9.808   9.790   2.148 -0.2906 -0.0425  0.0788
 3250NCO    NCO 3250   9.607   9.577   2.225 -0.2904  0.2188  0.5667
 3251NCO    NCO 3251   8.269   6.298   7.559  0.0499  0.1485 -0.1095
 3252CC1    CC1 3252   8.350   6.049   7.486 -0.2985  0.0272  0.1031
 3253CC1    CC1 3253   8.520   5.925   7.389  0.3189  0.1391  0.1983
 3254NCC    NCC 3254   8.763   5.870   7.271  0.4534  0.3277  0.2179
 3255CONH  CONH 3255   8.847   5.674   7.039  0.1149  0.1014 -0.0228
 3256CC1    CC1 3256   8.803   5.751   6.771  0.0002  0.4593 -0.1779
 3257CC1    CC1 3257   8.645   5.949   6.712  0.2755 -0.3142  0.1484
 3258CC1    CC1 3258   8.490   6.110   6.703  0.4957 -0.0648 -0.0780
 3259NCO    NCO 3259   8.295   6.184   6.460 -0.2943 -0.0966 -0.3347
 3260CONH  CONH 3260   9.079   5.801   7.384  0.2138  0.1106 -0.1940
 3261CC1    CC1 3261   9.198   5.557   7.379 -0.3129 -0.1548 -0.4993
 3262CC1    CC1 3262   9.280   5.429   7.588 -0.2430 -0.0842  0.2523
 3263CC1    CC1 3263   9.388   5.257   7.699  0.5296 -0.2948 -0.4830
 3264NCO    NCO 3264   9.252   5.003   7.606 -0.0070 -0.3423 -0.4175
 3265NCO    NCO 3265  10.073   6.450   2.559  0.1506 -0.0171 -0.4087
 3266CC1    CC1 3266  10.145   6.145   2.526  0.2177  0.3612 -0.0726
 3267CC1    CC1 3267  10.268   6.111   2.345  0.5042 -0.1937  0.0164
 3268NCC    NCC 3268   0.080   6.197   2.097 -0.3057 -0.0267  0.6439
 3269CONH  CONH 3269   0.378   6.201   2.022  0.1904  0.2051 -0.0222
 3270CC1    CC1 3270   0.500   5.976   1.996  0.1147 -0.5597  0.2857
 3271CC1    CC1 3271   0.696   5.880   2.030 -0.0313 -0.0415  0.2726
 3272CC1    CC1 3272   0.823   5.670   2.004 -0.0530 -0.3444  0.3384
 3273NCO    NCO 3273   1.175   5.763   1.986 -0.0237  0.0679  0.0024
 3274CONH  CONH 3274   0.044   6.130   1.762  0.2873 -0.0872  0.1203
 3275CC1    CC1 3275   0.291   6.040   1.620  0.2462 -0.1308 -0.0148
 3276CC1    CC1 3276   0.291   5.897   1.428 -0.4104  0.4544  0.3392
 3277CC1    CC1 3277   0.188   5.779   1.229 -0.1129 -0.1705 -0.1689
 3278NCO    NCO 3278   0.211   5.905   0.967 -0.1642  0.1046 -0.1382
 3279NCO    NCO 3279   9.598   3.091   6.883  0.0565 -0.1111  0.0101
 3280CC1    CC1 3280   9.857   2.975   6.849 -0.2186 -0.1922 -0.0920
 3281CC1    CC1 3281   9.917   2.911   7.100 -0.3787 -0.0654  0.0324
 3282NCC    NCC 3282  10.092   2.983   7.347 -0.1989 -0.3313  0.2694
 3283CONH  CONH 3283   0.009   3.157   7.368 -0.0275  0.0855  0.1933
 3284CC1    CC1 3284   0.195   3.098   7.236  0.0222 -0.2895  0.1093
 3285CC1    CC1 3285   0.312   3.221   7.072 -0.2095 -0.0425 -0.1073
 3286CC1    CC1 3286   0.423   3.405   7.004 -0.3176  0.0035 -0.3352
 3287NCO    NCO 3287   0.697   3.413   7.048 -0.2304  0.2031  0.1570
 3288CONH  CONH 3288  10.052   3.038   7.669  0.2161 -0.4260  0.0069
 3289CC1    CC1 3289   9.886   2.917   7.826 -0.3219 -0.3042  0.0073
 3290CC1    CC1 3290  10.023   2.927   8.058 -0.4035  0.2517  0.6303
 3291CC1    CC1 3291  10.125   2.867   8.268 -0.1982 -0.0760 -0.1718
 3292NCO    NCO 3292   0.072   2.834   8.411  0.4655 -0.0650  0.0961
 3293NCO    NCO 3293   4.689   6.284   1.356 -0.0206 -0.3651 -0.2848
 3294CC1    CC1 3294   4.636   6.537   1.475  0.3525 -0.0406  0.1611
 3295CC1    CC1 3295   4.798   6.604   1.626 -0.6470  0.5690 -0.1363
 3296NCC    NCC 3296   5.007   6.751   1.727  0.2647 -0.3219 -0.0637
 3297CONH  CONH 3297   5.021   6.865   2.033 -0.5099 -0.2918 -0.3433
 3298CC1    CC1 3298   4.810   6.945   2.163 -0.1796 -0.1908 -0.5124
 3299CC1    CC1 3299   4.734   7.147   2.262 -0.1938 -0.2726 -0.0511
 3300CC1    CC1 3300   4.720   7.306   2.429  0.0929  0.4365  0.1238
 3301NCO    NCO 3301   4.487   7.496   2.385 -0.3445  0.0569 -0.1205
 3302CONH  CONH 3302   5.207   7.004   1.677  0.0035  0.2566  0.2367
 3303CC1    CC1 3303   5.137   7.222   1.539  0.6795  0.3054 -0.3181
 3304CC1    CC1 3304   5.129   7.309   1.329 -0.1781  0.0865 -0.1602
 3305CC1    CC1 3305   5.040   7.376   1.139  0.3776  0.2475  0.2232
 3306NCO    NCO 3306   4.845   7.163   0.996 -0.3213 -0.2700  0.5253
 3307NCO    NCO 3307   7.780   5.490   3.764 -0.0217  0.1352 -0.0987
 3308CC1    CC1 3308   7.803   5.753   3.591 -0.3951 -0.2175  0.0365
 3309CC1    CC1 3309   7.733   5.928   3.752  0.1174  0.1352 -0.0263
 3310NCC    NCC 3310   7.471   5.986   3.886  0.0145 -0.2014  0.0368
 3311CONH  CONH 3311   7.372   6.205   4.093 -0.2446 -0.1353  0.0068
 3312CC1    CC1 3312   7.536   6.297   4.308  0.6450  0.4750 -0.2405
 3313CC1    CC1 3313   7.506   6.490   4.336 -0.5191  0.1388  0.5143
 3314CC1    CC1 3314   7.638   6.694   4.300 -0.2971  0.2583  0.1848
 3315NCO    NCO 3315   7.519   6.918   4.422 -0.0889 -0.5110 -0.0319
 3316CONH  CONH 3316   7.181   6.002   3.767  0.4811  0.4235 -0.0083
 3317CC1    CC1 3317   7.040   6.200   3.616  0.0220 -0.0798  0.0751
 3318CC1    CC1 3318   7.105   6.212   3.365 -0.4394 -0.1246 -0.0605
 3319CC1    CC1 3319   7.067   6.275   3.117 -0.4529 -0.1251  0.0868
 3320NCO    NCO 3320   7.009   6.488   2.910 -0.1149 -0.1058 -0.4153
 3321W        W 3321   9.337   0.558   0.042 -0.1208  0.0011 -0.1528
 3322W        W 3322   7.665   8.684   6.113 -0.2626  0.2839 -0.0711
 3323W        W 3323   8.646   1.725   0.927  0.1867 -0.1200  0.0771
 3324W        W 3324   3.961   6.019   0.993 -0.0062 -0.0499 -0.0603
 3325W        W 3325   1.931   3.525   1.077  0.0137 -0.0057 -0.2503
 3326W        W 3326   3.758   7.540   7.918  0.3151  0.0181  0.2677
 3327W        W 3327   9.940   6.847   9.003 -0.0105 -0.1942 -0.0090
 3328W        W 3328   3.645   2.242   6.089  0.1632  0.2087 -0.1430
 3329W        W 3329   5.764   7.638   2.169 -0.0049 -0.1014 -0.3864
 3330W        W 3330   2.019   2.338   7.802 -0.0201  0.3184  0.2075
 3331W        W 3331   6.920   6.818   8.559 -0.2619 -0.0881 -0.0467
 3332W        W 3332   1.632   6.109   1.192  0.0932 -0.3422 -0.0330
 3333W        W 3333   1.299   1.323   4.153  0.1096  0.1828  0.1243
 3334W        W 3334   6.729   5.681   0.331  0.0689  0.2940 -0.0602
 3335W        W 3335   8.070   6.267   2.294  0.2388  0.0034 -0.1786
 3336W        W 3336   5.040  10.024   7.309 -0.1826  0.1503  0.0451
 3337W        W 3337   6.956   8.715   1.869 -0.0021 -0.0014  0.2272
 3338W        W 3338   8.001   6.607   8.566  0.1240 -0.1437  0.0472
 3339W        W 3339   2.020   7.791   9.715 -0.0580  0.1838  0.2635
 3340W        W 3340   7.930   1.263   4.955  0.3164 -0.4033  0.1395
 3341W        W 3341   8.489   0.032   4.555  0.2838 -0.2688  0.0069
 3342W        W 3342   2.425   3.230   0.971  0.0823 -0.0179 -0.2500
 3343W        W 3343   1.746   8.977   2.888  0.1405  0.1232 -0.2027
 3344W        W 3344   8.038   9.394   9.754  0.1147 -0.0212  0.1008
 3345W        W 3345  10.112   8.537   0.216 -0.2240 -0.1207  0.0635
 3346W        W 3346   2.897   5.549   2.011  0.1161  0.0805  0.0477
 3347W        W 3347   4.539   1.896  10.168  0.0078  0.2146  0.0020
 3348W        W 3348   7.429   0.413   0.204  0.0801 -0.0672  0.1298
 3349W        W 3349   5.926   7.542   4.346  0.4019 -0.2259  0.2563
 3350W        W 3350   9.536   7.802   7.205 -0.0076  0.1210 -0.0444
 3351W        W 3351   1.563   6.431   5.798  0.1619  0.1020 -0.0537
 3352W        W 3352   8.272   4.448  10.016  0.1692  0.2864 -0.2799
 3353W        W 3353   1.999   4.003   2.967 -0.0059 -0.1033 -0.3490
 3354W        W 3354   7.991   2.887   7.067  0.0304 -0.0623 -0.0989
 3355W        W 3355   3.501   6.643   4.737  0.0375  0.3491 -0.2420
 3356W        W 3356   0.687   8.868   3.005 -0.2064  0.1617  0.0382
 3357W        W 3357  10.117   6.590   6.559 -0.0436 -0.1173 -0.2385
 3358W        W 3358   0.719   8.943   4.324 -0.0361 -0.0834  0.1603
 3359W        W 3359   7.200   2.236   6.760  0.0117  0.1702 -0.1795
 3360W        W 3360   1.243   7.018   7.688  0.0977  0.4359  0.3270
 3361W        W 3361   1.386   1.304   5.609 -0.2922  0.2329 -0.3215
 3362W        W 3362   4.469   6.269   5.201  0.3308 -0.1868  0.0804
 3363W        W 3363   7.299   3.702   7.880  0.2367  0.2049  0.3249
 3364W        W 3364   5.800   2.598   1.175  0.0120  0.4390  0.2206
 3365W        W 3365   7.468   0.386   9.039  0.0670  0.1708 -0.2018
 3366W        W 3366   4.461   2.262   4.025 -0.2364  0.0652 -0.0787
 3367W        W 3367   6.106   0.408   6.722 -0.0356 -0.1729  0.1349
 3368W        W 3368   2.813   5.261   4.922  0.3338  0.1085 -0.0315
 3369W        W 3369   7.631   3.767   3.196 -0.1100  0.0312  0.0496
 3370W        W 3370   5.007   4.926   3.742 -0.2065 -0.0364 -0.1469
 3371W        W 3371   1.266  10.132   1.613  0.1848 -0.3692 -0.0442
 3372W        W 3372   4.228   4.356   2.237  0.1558  0.3159 -0.0838
 3373W        W 3373   0.909   9.597   0.037 -0.2390  0.2078  0.0815
 3374W        W 3374   1.084   3.319   0.821  0.1871 -0.1273  0.0249
 3375W        W 3375   0.989   2.760   8.008 -0.1686 -0.0217  0.3434
 3376W        W 3376  10.141   6.041   6.827 -0.0087 -0.1114  0.1355
 3377W        W 3377   6.601   5.303   2.851 -0.0906 -0.0182 -0.0688
 3378W        W 3378   6.950   9.936   2.849 -0.1291  0.0054  0.0980
 3379W        W 3379   2.679   2.016   9.045 -0.2886 -0.1944 -0.0813
 3380W        W 3380   2.440   9.836   6.152 -0.0112 -0.0182 -0.0315
 3381W        W 3381   0.587   1.609   1.324  0.3153 -0.4034 -0.0938
 3382W        W 3382   5.780   0.346   0.123  0.1209  0.0244  0.2206
 3383W        W 3383   4.301   9.586   4.966 -0.0298 -0.1978 -0.0347
 3384W        W 3384   4.623   8.333   4.071 -0.0640  0.1845  0.2358
 3385W        W 3385   9.601   1.149   2.055 -0.1051  0.0020 -0.3605
 3386W        W 3386   0.014   7.672   8.768 -0.2728  0.0585 -0.3455
 3387W        W 3387   0.754   1.920   9.816 -0.2037  0.0636  0.1818
 3388W        W 3388   8.446   4.284   7.015  0.3748 -0.2399  0.0340
 3389W        W 3389   9.242   1.734   6.369 -0.1989 -0.5155 -0.0346
 3390W        W 3390   5.306   8.670   1.330  0.2048 -0.1503 -0.1561
 3391W        W 3391   5.730   4.276   2.998  0.0325  0.1772  0.6287
 3392W        W 3392   3.844   0.987   9.149  0.0191  0.2724 -0.4150
 3393W        W 3393   6.947   4.899   1.920  0.0936 -0.3383  0.0367
 3394W        W 3394   1.294   0.492   4.710 -0.0312 -0.2020  0.1142
 3395W        W 3395   6.868   3.593   3.837 -0.1225  0.2413 -0.0011
 3396W        W 3396  10.100   2.126   7.877  0.1511  0.2668 -0.1182
 3397W        W 3397   3.410   5.067   7.746 -0.3382 -0.1480  0.1306
 3398W        W 3398   8.633   1.195   0.770 -0.0039 -0.1636  0.0098
 3399W        W 3399   6.099   7.957   2.407 -0.1160  0.0863 -0.1724
 3400W        W 3400   9.750   6.110   7.712 -0.0924 -0.2162 -0.0376
 3401W        W 3401   2.403   6.274   5.928  0.1596  0.0825 -0.2830
 3402W        W 3402   8.705   5.727  10.335 -0.0619 -0.4307 -0.0676
 3403W        W 3403   5.365   6.050   2.374  0.1501 -0.1561  0.0891
 3404W        W 3404   5.271   8.961   5.203  0.0174  0.1682  0.3146
 3405W        W 3405   2.032   6.077   2.212 -0.0775 -0.0543 -0.3098
 3406W        W 3406   9.577   3.912   6.554 -0.2526 -0.0951 -0.2670
 3407W        W 3407   7.403   5.922   8.370 -0.1511 -0.4020  0.3433
 3408W        W 3408   2.100   6.557   3.860  0.3736  0.1406 -0.0767
 3409W        W 3409   3.726   0.830   0.055 -0.4378  0.2874  0.0308
 3410W        W 3410  10.167   6.007   7.952  0.0677 -0.0564 -0.1987
 3411W        W 3411   2.377   9.063   9.465 -0.1007 -0.0398  0.0012
 3412W        W 3412   8.041   8.152   5.432 -0.0785  0.3432 -0.2392
 3413W        W 3413   0.871   0.053   5.962 -0.1700 -0.2502  0.1060
 3414W        W 3414   1.753   3.857   1.944  0.0392 -0.2251  0.2628
 3415W        W 3415   5.573   7.650   4.762  0.0157  0.1154 -0.0964
 3416W        W 3416   3.992   0.058   6.533  0.1207 -0.0328  0.1428
 3417W        W 3417   6.022   8.137   1.374  0.0167  0.0194  0.0217
 3418W        W 3418   4.020   7.782   3.197  0.1083 -0.0585  0.1142
 3419W        W 3419   9.824   4.723   8.266 -0.1569  0.0197 -0.0563
 3420W        W 3420   7.997   1.228   1.041  0.3031  0.3328 -0.1743
 3421W        W 3421   7.505   8.009   0.741  0.3056  0.1808 -0.1222
 3422W        W 3422   8.248   0.636   3.603 -0.0482 -0.2203  0.1482
 3423W        W 3423   8.567   4.787   3.941 -0.0200 -0.0810  0.0924
 3424W        W 3424   0.852   5.639   2.740 -0.1754  0.2340  0.4758
 3425W        W 3425   6.602   2.350   3.916  0.0479  0.0755 -0.2549
 3426W        W 3426   0.191   1.260   6.881  0.0444 -0.0881 -0.0651
 3427W        W 3427   6.421   0.821   6.936  0.0285  0.0911  0.0287
 3428W        W 3428   5.819   8.755   0.687 -0.1565 -0.1118  0.0652
 3429W        W 3429   3.802   9.340   4.105  0.1330 -0.1976 -0.3230
 3430W        W 3430   6.244   8.984   9.959  0.1361 -0.0328  0.0578
 3431W        W 3431   6.120   6.105   9.871 -0.1036  0.2495 -0.2448
 3432W        W 3432   6.150   0.111   9.312 -0.1809  0.2993  0.0827
 3433W        W 3433   5.676   3.895   0.281  0.2162 -0.1204 -0.1780
 3434W        W 3434   9.261   1.219   6.486 -0.1129 -0.1227 -0.0695
 3435W        W 3435   4.611   9.168   6.657  0.0211  0.1177 -0.0190
 3436W        W 3436   0.984   9.832   7.700  0.1311  0.0559  0.1901
 3437W        W 3437   3.959   8.233   6.801  0.0634  0.1020  0.0954
 3438W        W 3438   4.913   6.103   4.509 -0.1766  0.0161  0.1737
 3439W        W 3439   7.114   3.473   0.077  0.2944  0.0334 -0.2055
 3440W        W 3440   2.850   9.956   4.272 -0.0348  0.5220  0.1131
 3441W        W 3441   7.937   6.574   4.542  0.0936 -0.5936 -0.1318
 3442W        W 3442   2.655   9.291   0.379  0.1073  0.4817 -0.0847
 3443W        W 3443   0.753   0.575   0.534 -0.1945 -0.1450  0.0091
 3444W        W 3444   0.881   9.401   2.209  0.0424  0.1341  0.0550
 3445W        W 3445   5.778   6.351   4.424 -0.1615  0.2010  0.1748
 3446W        W 3446   6.184   1.553  10.094  0.0981  0.1153  0.4062
 3447W        W 3447   2.045   0.809   3.285 -0.0563 -0.0739  0.1615
 3448W        W 3448   2.822   5.032   3.477 -0.0273 -0.2225  0.1271
 3449W        W 3449   6.843   3.267   9.044  0.0919 -0.0135 -0.1510
 3450W        W 3450   3.898   6.045   2.886 -0.0435 -0.2469 -0.0622
 3451W        W 3451   4.440   3.991   0.804 -0.0114  0.3134  0.0673
 3452W        W 3452   6.642   7.559   3.552  0.0325  0.1164  0.0853
 3453W        W 3453   0.419   8.669   8.941  0.0958  0.0546  0.0473
 3454W        W 3454   7.045   8.487   6.684  0.0539  0.1109  0.0099
 3455W        W 3455   0.844  10.184   2.886 -0.1993  0.0109  0.0974
 3456W        W 3456   5.352   6.820   5.894  0.1511 -0.0091  0.1627
 3457W        W 3457   4.793   5.632   4.407  0.0007  0.0703 -0.0499
 3458W        W 3458   0.964   9.904   6.170  0.0057  0.2274 -0.1673
 3459W        W 3459   1.521  10.137   7.638  0.1654  0.0473 -0.0982
 3460W        W 3460   0.518   0.605   2.777  0.0182 -0.2338 -0.0873
 3461W        W 3461   3.958   3.341   9.968  0.0774  0.0132  0.3979
 3462W        W 3462   6.783   0.884   2.464 -0.3928  0.0573 -0.1838
 3463W        W 3463   3.946   6.247   4.116  0.1909  0.1880 -0.0648
 3464W        W 3464  10.045   4.722   6.408  0.0247  0.0051 -0.1682
 3465W        W 3465   3.383   6.782   4.167  0.2316  0.0220  0.0735
 3466W        W 3466   8.326   0.798   9.236 -0.2688 -0.0487 -0.2689
 3467W        W 3467  10.285   3.598   8.365 -0.1258  0.3209  0.0061
 3468W        W 3468   1.897   9.310   7.777  0.0202  0.1873 -0.0767
 3469W        W 3469   4.588   9.034   1.018 -0.4565  0.1342 -0.1930
 3470W        W 3470   2.223   6.977   9.846 -0.2219  0.3613 -0.0061
 3471W        W 3471  10.163   7.912   4.020 -0.0145  0.1996  0.3191
 3472W        W 3472   4.914   0.053   7.994 -0.1474 -0.0389 -0.0048
 3473W        W 3473   4.422   7.216   1.250  0.0412 -0.0240 -0.1739
 3474W        W 3474   9.638   4.023   4.288 -0.1903 -0.1972  0.1273
 3475W        W 3475   2.893   6.543   4.421 -0.0409  0.0458  0.2208
 3476W        W 3476   1.636   9.347   4.822  0.1385  0.2183  0.0041
 3477W        W 3477   7.634   6.025   0.707 -0.0161 -0.1471 -0.3108
 3478W        W 3478   5.642   9.281   2.351  0.4214  0.4087 -0.0803
 3479W        W 3479   7.851   1.547   9.816 -0.1385  0.0289  0.2508
 3480W        W 3480   8.460   3.844   9.018 -0.1837  0.1986 -0.1583
 3481W        W 3481   6.088   8.367   8.450 -0.0062 -0.0905 -0.3243
 3482W        W 3482   2.713   4.250   4.139  0.0251 -0.1720 -0.2880
 3483W        W 3483   3.573   9.138   3.059 -0.0359 -0.0706 -0.0927
 3484W        W 3484   7.140   3.160   6.531  0.0672 -0.1574  0.1468
 3485W        W 3485   5.836   5.804   2.175 -0.0752  0.1781 -0.1905
 3486W        W 3486   9.124   3.332   1.317 -0.0873  0.0420  0.1585
 3487W        W 3487   4.772  10.115  10.269 -0.0492  0.1020  0.0561
 3488W        W 3488   0.737   5.239   7.670 -0.1412  0.2231  0.0833
 3489W        W 3489   2.474   8.294   4.059  0.4337 -0.0883  0.1079
 3490W        W 3490   9.948   2.273   0.113 -0.2032  0.1334  0.1281
 3491W        W 3491   2.592   0.128   1.811 -0.1064 -0.1572 -0.2243
 3492W        W 3492   9.388   9.881   3.102  0.1906  0.0625  0.1573
 3493W        W 3493   5.730   6.609   4.846 -0.0580  0.0198  0.1545
 3494W        W 3494   0.865   9.324   5.119 -0.1823  0.4845  0.1990
 3495W        W 3495   8.614   3.036   4.236  0.2764  0.2166  0.0837
 3496W        W 3496   0.143   0.031   6.608  0.0034  0.0303 -0.0992
 3497W        W 3497   0.849   4.769   8.438 -0.2082  0.1879  0.0354
 3498W        W 3498   5.146   6.113   1.628 -0.1526  0.0562 -0.2208
 3499W        W 3499   6.279   6.778   7.394 -0.1569  0.1561  0.2546
 3500W        W 3500   0.727   8.136   6.640 -0.1803  0.0718  0.1530
 3501W        W 3501   3.814   8.156   3.498  0.1017 -0.1202  0.1236
 3502W        W 3502   9.815   4.356   1.870  0.2254  0.3777 -0.2596
 3503W        W 3503   2.679   5.750   6.043 -0.0541 -0.1995  0.0548
 3504W        W 3504   7.166   9.036   0.659  0.2215 -0.0455  0.2727
 3505W        W 3505   6.305   5.408   7.264 -0.0758 -0.1856 -0.0673
 3506W        W 3506   8.936   3.621   7.307  0.1352 -0.0128 -0.0459
 3507W        W 3507   9.597   2.833   9.095  0.0936  0.1070 -0.1480
 3508W        W 3508   4.485   3.668   0.408  0.0579  0.3157 -0.0927
 3509W        W 3509   6.379   4.337   9.374  0.2581 -0.2478 -0.0267
 3510W        W 3510   9.011   9.137   9.936  0.1894 -0.1277 -0.0660
 3511W        W 3511   4.911   4.376   8.446 -0.2365  0.1272  0.0894
 3512W        W 3512   8.684   7.253   3.096 -0.0181 -0.0724  0.0665
 3513W        W 3513   7.555   4.744   2.884  0.0406 -0.1284  0.3947
 3514W        W 3514   2.795   3.517   0.827  0.0665  0.0761 -0.0977
 3515W        W 3515   4.029   8.302   8.192 -0.2046  0.2838 -0.3945
 3516W        W 3516   5.528   5.743   7.418 -0.0969  0.1388 -0.1243
 3517W        W 3517  10.011   2.688  10.074  0.2029  0.2201 -0.1678
 3518W        W 3518   0.686   9.205   1.808 -0.1037 -0.1718  0.1684
 3519W        W 3519   1.879   2.052   2.242  0.1339  0.0018  0.0133
 3520W        W 3520   8.326   5.173   6.642 -0.1048 -0.0053 -0.1343
 3521W        W 3521   5.683   7.939   0.937 -0.1299 -0.2403  0.2111
 3522W        W 3522   4.071   0.995   1.486 -0.3937  0.0886  0.0943
 3523W        W 3523   6.800   7.932   3.066  0.5294  0.1672 -0.0186
 3524W        W 3524   1.110   2.822   5.896  0.0717  0.1508  0.0494
 3525W        W 3525   8.496   8.373   1.444  0.0435  0.2466  0.2712
 3526W        W 3526   1.332   2.901   8.389  0.1368 -0.1299 -0.2327
 3527W        W 3527   5.386   5.748   9.452  0.0236  0.1833  0.1212
 3528W        W 3528   5.628   3.778   8.703 -0.1916  0.0505 -0.0382
 3529W        W 3529   3.835   9.752   5.746  0.0599 -0.1100  0.2677
 3530W        W 3530   7.424   1.841   9.745 -0.0889 -0.2355 -0.1887
 3531W        W 3531   4.101   7.871   9.844 -0.1691  0.0325 -0.0616
 3532W        W 3532   7.520   0.325   9.559 -0.2912 -0.2777 -0.1906
 3533W        W 3533   9.068   5.846   9.069 -0.1462  0.1333  0.4533
 3534W        W 3534   5.599   7.889   9.705 -0.2021 -0.2353  0.0849
 3535W        W 3535   3.294   4.573   7.965 -0.0070 -0.3447  0.3161
 3536W        W 3536   2.634   2.187   4.986  0.1398 -0.4611 -0.1144
 3537W        W 3537   2.242   9.349   5.999  0.0135  0.1211  0.0851
 3538W        W 3538   8.476   1.091   1.411 -0.1684  0.1472  0.1898
 3539W        W 3539   7.702   1.062   9.374  0.2883  0.1715 -0.0166
 3540W        W 3540   0.377   3.573   1.898  0.2309  0.0217 -0.3153
 3541W        W 3541  10.329   5.718   3.102 -0.0536 -0.1271 -0.2699
 3542W        W 3542   5.456   8.734   4.793 -0.1694 -0.2886  0.0944
 3543W        W 3543   6.092   4.816   8.076  0.2110  0.2806  0.1786
 3544W        W 3544   5.038   1.953   6.085  0.2288  0.0017  0.1297
 3545W        W 3545   6.835   9.083   4.459  0.0038 -0.0900  0.1242
 3546W        W 3546   1.886   8.207   9.226 -0.0643 -0.1312 -0.1396
 3547W        W 3547   3.036   4.801   6.890  0.1015 -0.2137 -0.1939
 3548W        W 3548   8.587   9.456   2.507 -0.0410  0.0956  0.1112
 3549W        W 3549   6.393   5.151   6.334 -0.0068 -0.0018 -0.0055
 3550W        W 3550   3.798   8.063   7.817 -0.1051  0.2501 -0.0860
 3551W        W 3551   0.265   1.419   5.598  0.0010 -0.2389 -0.1589
 3552W        W 3552   8.201   0.579   8.817 -0.0205  0.1652  0.2530
 3553W        W 3553   7.327   8.732   4.391  0.0674  0.4189  0.0209
 3554W        W 3554   4.486   8.559   0.838  0.2935  0.0577 -0.0136
 3555W        W 3555   7.435   4.190   4.404 -0.2212  0.1819 -0.0147
 3556W        W 3556   7.165   7.752   4.058 -0.0232 -0.0932 -0.0466
 3557W        W 3557   2.529   7.708   8.761  0.0500  0.1160  0.1042
 3558W        W 3558   1.062   6.636   0.140  0.0462  0.0260 -0.0330
 3559W        W 3559   5.601  10.247   1.762  0.0993  0.0581  0.2515
 3560W        W 3560   2.802   8.990   1.118 -0.2784 -0.0279  0.1024
 3561W        W 3561   2.414   4.713   3.145 -0.0611 -0.1240 -0.2978
 3562W        W 3562   1.290   7.186   9.803  0.0331  0.1300 -0.2496
 3563W        W 3563   5.355   0.520   3.236 -0.0323  0.0405  0.1363
 3564W        W 3564   6.377   8.512   6.258 -0.3726 -0.1672  0.2792
 3565W        W 3565   0.603   6.830   1.692  0.1464  0.3143  0.1041
 3566W        W 3566   8.726   1.271   7.105  0.2421 -0.2011 -0.0350
 3567W        W 3567   9.935   4.492   5.558 -0.0632 -0.1886 -0.0799
 3568W        W 3568   3.897   3.108   1.043  0.0439  0.1068  0.1334
 3569W        W 3569   2.302   0.496   6.570 -0.4257  0.1261 -0.1226
 3570W        W 3570   0.073   2.407   2.888  0.0534 -0.3108 -0.0486
 3571W        W 3571   2.630   9.904   8.516  0.0381 -0.0721  0.0157
 3572W        W 3572   0.266  10.249   4.143 -0.1149  0.2394  0.0867
 3573W        W 3573   6.312   9.585   2.939  0.0975 -0.2201 -0.1287
 3574W        W 3574   3.916   3.996   1.301 -0.1450 -0.0317 -0.2183
 3575W        W 3575   8.991   9.092   6.852  0.4387 -0.0882  0.2227
 3576W        W 3576   4.231   9.291   0.222  0.3561  0.1060 -0.1807
 3577W        W 3577   3.720   7.865   0.723  0.0147 -0.0010  0.2264
 3578W        W 3578   2.785   6.218   1.570  0.1020 -0.1782  0.1118
 3579W        W 3579   5.978   7.995   3.561 -0.0252  0.1386 -0.0373
 3580W        W 3580   8.927   8.840   8.484  0.0329 -0.3132 -0.0639
 3581W        W 3581   0.459   0.412   1.941  0.0235  0.1167 -0.0807
 3582W        W 3582   8.893   7.415   2.362 -0.0226 -0.0536 -0.1234
 3583W        W 3583   9.988   6.785   0.086  0.1105  0.0261  0.0709
 3584W        W 3584   5.238   1.383   6.553 -0.0782 -0.2655  0.1225
 3585W        W 3585   3.836  10.108   2.149 -0.0530 -0.1720  0.1973
 3586W        W 3586   7.003   1.636   7.771  0.1383 -0.0578  0.2150
 3587W        W 3587   7.146   2.593   0.808  0.2183  0.2347  0.1592
 3588W        W 3588   3.114   8.864   1.846  0.1885  0.1159  0.0424
 3589W        W 3589   1.615   0.717   2.853  0.0369 -0.0128  0.4583
 3590W        W 3590   0.831   3.175   4.028 -0.0776 -0.0198  0.0298
 3591W        W 3591   3.098   4.995   0.661 -0.4627 -0.2849  0.0699
 3592W        W 3592   2.336   0.960   6.751  0.1980  0.1996  0.1028
 3593W        W 3593   9.238   6.571   7.974 -0.1721  0.0592  0.1391
 3594W        W 3594   2.604   1.651   5.290  0.0697  0.2980 -0.0894
 3595W        W 3595  10.026   1.192   0.479 -0.2170 -0.0936  0.0668
 3596W        W 3596   0.292   8.624   3.276  0.2371 -0.0335  0.3508
 3597W        W 3597   5.291   0.212   6.768  0.0313  0.0036 -0.2475
 3598W        W 3598   0.718   4.618   8.947  0.2324 -0.0708  0.1000
 3599W        W 3599   9.832   2.935   6.461  0.0354  0.2270  0.3809
 3600W        W 3600  10.315   2.638   0.347 -0.0382 -0.5373 -0.1020
 3601W        W 3601   5.453   9.372   0.133  0.0135  0.1101 -0.0609
 3602W        W 3602   5.514  10.251   3.218  0.0028  0.0032 -0.1852
 3603W        W 3603   0.068   6.675   8.526  0.0380 -0.1369  0.2925
 3604W        W 3604   5.200   4.998   9.105 -0.3404 -0.0902  0.0579
 3605W        W 3605   5.562   5.317   9.310 -0.0472  0.1153  0.4812
 3606W        W 3606   0.228   4.817   0.376 -0.1173  0.0334 -0.4150
 3607W        W 3607   5.683   1.837   1.728  0.1000  0.2037 -0.0036
 3608W        W 3608   7.941   1.041   0.497 -0.0156 -0.0444 -0.0910
 3609W        W 3609   3.453   6.909   8.652 -0.3592  0.0157  0.0703
 3610W        W 3610   9.369   3.114   6.155  0.0525  0.2969 -0.2662
 3611W        W 3611   8.869   9.053   2.620 -0.2324 -0.1867  0.1040
 3612W        W 3612   2.055   9.285   1.140  0.0196  0.0185  0.1005
 3613W        W 3613   7.145   4.498   0.658  0.2681 -0.4128  0.1060
 3614W        W 3614   9.279   4.898   3.567 -0.0794 -0.2587 -0.2558
 3615W        W 3615   5.819   8.687   8.148 -0.0692 -0.3799  0.2765
 3616W        W 3616   5.786   3.993   4.291  0.0014  0.1850  0.2705
 3617W        W 3617   4.954   0.269   3.220  0.0028  0.0703 -0.1660
 3618W        W 3618   5.193   5.712  10.013  0.2759  0.1427 -0.0387
 3619W        W 3619   9.386   7.990  10.211 -0.0191  0.1325  0.2383
 3620W        W 3620   9.409   3.079   4.588  0.1216 -0.2967 -0.3381
 3621W        W 3621   7.195   8.583   0.153  0.1097 -0.0274  0.2863
 3622W        W 3622   0.748   5.121   8.835  0.0991  0.0943 -0.1715
 3623W        W 3623   9.489   0.577   2.849  0.1291  0.2714 -0.0541
 3624W        W 3624   9.656   3.283   0.498 -0.3193  0.1626 -0.1081
 3625W        W 3625   1.547   8.432   5.988  0.0001 -0.0830 -0.0671
 3626W        W 3626  10.253   1.476   2.788 -0.2098  0.2892  0.0403
 3627W        W 3627   1.494   7.241   3.997 -0.1698 -0.0083  0.0142
 3628W        W 3628   3.172   7.249   1.621  0.2705 -0.0881 -0.4014
 3629W        W 3629   6.425   5.587   8.981  0.0321  0.2431  0.0217
 3630W        W 3630   7.708   3.723   4.467  0.2395 -0.1376 -0.2336
 3631W        W 3631   8.871   9.690   5.242  0.0360 -0.1252 -0.1132
 3632W        W 3632   4.889   7.317   9.865 -0.1464  0.0773 -0.3352
 3633W        W 3633   9.037   2.409   8.574 -0.3187 -0.0756  0.1644
 3634W        W 3634   4.982   9.351   7.949  0.3885 -0.0425 -0.2838
 3635W        W 3635   6.422   2.409   3.082  0.0657 -0.1734 -0.0267
 3636W        W 3636   0.981   6.059   8.174  0.2326 -0.1924  0.0010
 3637W        W 3637   8.034   9.445   5.980  0.0539 -0.0066  0.2288
 3638W        W 3638   8.325   9.896   5.859  0.0542  0.2056  0.0080
 3639W        W 3639   3.475   5.131   9.462 -0.0345 -0.2108 -0.0522
 3640W        W 3640   4.341   0.493   0.828 -0.2644  0.0370  0.0650
 3641W        W 3641   1.579  10.215   6.670  0.2677 -0.0023  0.1421
 3642W        W 3642   8.100   2.446   7.781  0.2574 -0.1190  0.0439
 3643W        W 3643   8.503   9.380   0.416 -0.0013 -0.3948 -0.2200
 3644W        W 3644   8.682   5.874   4.276  0.1356  0.0165  0.4602
 3645W        W 3645   5.613   2.376   1.685 -0.1227  0.3467 -0.4905
 3646W        W 3646   6.192   8.916   1.721 -0.1053 -0.2512 -0.1327
 3647W        W 3647   4.079   6.184   5.542  0.2037 -0.0137 -0.3143
 3648W        W 3648   3.665   6.247   8.597 -0.2027 -0.2693  0.1353
 3649W        W 3649   0.870   6.083   9.570 -0.0083 -0.0195 -0.1576
 3650W        W 3650   7.514   7.851   8.231  0.0177 -0.0154  0.6236
 3651W        W 3651   5.969   9.381   1.375 -0.0764  0.0758  0.0977
 3652W        W 3652   6.530   3.081   4.543  0.1669 -0.4945 -0.2192
 3653W        W 3653   1.091   8.329   0.384 -0.0622  0.0069  0.2384
 3654W        W 3654   6.881   8.151   3.905 -0.2177  0.1582  0.0853
 3655W        W 3655   9.149   2.872   1.518  0.1302  0.0411 -0.1914
 3656W        W 3656   6.316   4.015   7.372 -0.0220  0.1741 -0.1394
 3657W        W 3657   4.783   1.221   6.537 -0.3308 -0.0930  0.2766
 3658W        W 3658   4.687   3.743   5.271 -0.1312 -0.2218 -0.2094
 3659W        W 3659   5.311   9.646   2.978  0.1030  0.0825 -0.0586
 3660W        W 3660   6.233   9.424   7.463  0.2042  0.2720 -0.0909
 3661W        W 3661   1.781   3.533   7.382 -0.0278 -0.0573  0.3255
 3662W        W 3662   7.252   1.372   6.667  0.1518  0.0673 -0.3873
 3663W        W 3663   2.240   8.258   2.638 -0.1928  0.1053 -0.2509
 3664W        W 3664   0.035   1.946   8.699  0.0380  0.3631  0.1151
 3665W        W 3665   7.690   9.888   8.948  0.0743 -0.2872  0.1536
 3666W        W 3666   2.201   0.865   1.282  0.0955  0.2368 -0.0126
 3667W        W 3667   1.256   5.095   0.376  0.6421  0.2150  0.0075
 3668W        W 3668   2.301   8.161   9.519  0.0428  0.0160 -0.1942
 3669W        W 3669   6.685   5.716   7.307 -0.0476  0.0654  0.0737
 3670W        W 3670   2.429   2.385   6.287  0.0454  0.0443 -0.0674
 3671W        W 3671   6.871   5.588   8.225  0.0756  0.1817 -0.0506
 3672W        W 3672   1.846   1.221   1.028  0.0211 -0.0126 -0.0065
 3673W        W 3673   8.512   4.144   9.739 -0.0755  0.1796 -0.2384
 3674W        W 3674   2.506   4.263   1.080  0.1214  0.0335 -0.0964
 3675W        W 3675   9.339  10.320   7.422  0.1846  0.5243  0.4305
 3676W        W 3676   1.910   6.422   0.773  0.1232  0.0636  0.3276
 3677W        W 3677   6.823   4.871   6.425 -0.3512 -0.2501  0.2807
 3678W        W 3678   7.499   8.084   7.758 -0.1275 -0.1948  0.0273
 3679W        W 3679   5.798   7.136   4.627 -0.1419 -0.1899  0.2207
 3680W        W 3680   1.679   9.088   2.145 -0.0709  0.1771  0.0750
 3681W        W 3681   3.822   9.427   6.593 -0.2688  0.0702 -0.1188
 3682W        W 3682   3.607   2.661   0.113  0.0377  0.0160  0.0383
 3683W        W 3683   5.497   8.432   0.825 -0.0872 -0.1945 -0.0646
 3684W        W 3684   4.392   5.139   4.944 -0.0230 -0.0953  0.1235
 3685W        W 3685   3.823   5.108   3.430  0.0138 -0.2383 -0.2341
 3686W        W 3686   0.765   6.157   0.512  0.4190 -0.2181  0.0869
 3687W        W 3687   3.562   4.801   6.864  0.0523  0.1821 -0.0692
 3688W        W 3688   0.908   2.834   1.583  0.4389  0.4899 -0.0655
 3689W        W 3689   8.652   2.581   1.798 -0.2032 -0.1900 -0.1066
 3690W        W 3690   0.492   8.043   0.994  0.2836  0.0635  0.4150
 3691W        W 3691   0.032   7.032   6.151 -0.0362  0.1252 -0.0979
 3692W        W 3692   8.764   4.093   7.432 -0.2501  0.2096  0.2694
 3693W        W 3693   9.220   8.338   0.245 -0.1151 -0.0061  0.0039
 3694W        W 3694   1.756   7.353   9.863 -0.2299  0.1474  0.1430
 3695W        W 3695   3.361   8.675   6.063  0.0100 -0.2901  0.2665
 3696W        W 3696   8.925   7.270   4.779  0.1595 -0.1634  0.2218
 3697W        W 3697   5.627   9.083   3.883  0.0362  0.1408 -0.0436
 3698W        W 3698   5.390   3.470   2.449 -0.2880  0.1506  0.1690
 3699W        W 3699   9.911   1.793   3.931  0.0718 -0.1741 -0.2715
 3700W        W 3700   9.726   9.036   8.201  0.1059 -0.0261  0.0987
 3701W        W 3701   3.220   9.522   7.436  0.1359  0.1382  0.0714
 3702W        W 3702   8.645   7.808   4.218 -0.0346  0.0972  0.0805
 3703W        W 3703   1.649   3.878   0.176  0.0801 -0.2224 -0.1202
 3704W        W 3704   4.736   6.427   3.513 -0.0903 -0.0563  0.2381
 3705W        W 3705   7.276   0.992   6.400  0.0971  0.1790 -0.0329
 3706W        W 3706   3.490   9.065  10.096  0.0367  0.0485 -0.0926
 3707W        W 3707   0.024   6.055   3.871  0.2431  0.2887  0.1435
 3708W        W 3708   1.576   6.765   0.161 -0.1045  0.2454 -0.4218
 3709W        W 3709   0.532   1.419   0.700  0.2936 -0.3495 -0.1304
 3710W        W 3710   4.240   7.251   6.462  0.0876 -0.0526  0.1818
 3711W        W 3711   5.082   1.625   8.278  0.3786  0.0782  0.3315
 3712W        W 3712   0.881   6.592   5.057  0.2416 -0.0087 -0.2469
 3713W        W 3713   0.260   5.562   6.378 -0.2443  0.2768 -0.1198
 3714W        W 3714   0.495   2.940   8.128 -0.1883 -0.3995  0.0771
 3715W        W 3715   1.669   7.293   2.496 -0.4185 -0.2485  0.2463
 3716W        W 3716   4.600   9.604   5.398 -0.1888  0.1340  0.0426
 3717W        W 3717   4.526   7.402   6.927 -0.0109  0.0663 -0.0451
 3718W        W 3718   5.770   1.826   6.797  0.0291  0.0753  0.0332
 3719W        W 3719   9.911   1.881   6.323 -0.1858  0.1681 -0.0794
 3720W        W 3720   9.190  10.157   6.888 -0.0685 -0.0424  0.0880
 3721W        W 3721   3.673   9.871   6.781 -0.0651 -0.0423  0.1507
 3722W        W 3722   5.981   8.678   4.797 -0.1200  0.2897 -0.3810
 3723W        W 3723   8.191   0.397   4.760 -0.2012  0.3823 -0.3983
 3724W        W 3724   8.041   9.520   9.183  0.0557  0.1586 -0.0754
 3725W        W 3725   6.257   6.723   1.029  0.4011 -0.2874  0.3004
 3726W        W 3726   0.023   3.512   4.505  0.4604 -0.2093 -0.2312
 3727W        W 3727   0.567   3.789   2.652  0.4494  0.0101  0.1738
 3728W        W 3728   0.233   0.723   3.210 -0.0842 -0.0514  0.2079
 3729W        W 3729   4.035   0.688   6.919 -0.3352  0.1445  0.1828
 3730W        W 3730   7.562   3.833   8.746 -0.1287  0.1367 -0.1383
 3731W        W 3731   2.198   9.314   0.100  0.1469 -0.2834  0.1788
 3732W        W 3732   3.095  10.272   4.036  0.2903  0.0420  0.1797
 3733W        W 3733   1.281   0.201   9.634  0.3724  0.0581 -0.0969
 3734W        W 3734   2.919   6.236   0.324  0.2083 -0.0458 -0.2417
 3735W        W 3735   2.436   8.896   6.314 -0.2527  0.0294 -0.0151
 3736W        W 3736   0.614   0.130   2.603 -0.1511  0.3507 -0.0651
 3737W        W 3737   7.997   7.118   1.241  0.0450 -0.1576 -0.1885
 3738W        W 3738   2.623   1.945   5.958 -0.0887 -0.1031 -0.1546
 3739W        W 3739   4.396   3.006   1.073  0.1345  0.1258  0.0978
 3740W        W 3740   9.888   0.090   2.096  0.1054  0.1551  0.1198
 3741W        W 3741   2.277   3.155   8.475 -0.1581 -0.0926  0.0158
 3742W        W 3742   9.594   5.631   5.602  0.0090 -0.0673 -0.2773
 3743W        W 3743   9.234   5.556   6.427  0.1550  0.4218 -0.1299
 3744W        W 3744   3.754   6.576   5.758 -0.0427  0.3413 -0.0477
 3745W        W 3745   3.964   5.247   9.459  0.0065 -0.0381 -0.2544
 3746W        W 3746   5.440   1.922   5.574  0.1174  0.3551 -0.2419
 3747W        W 3747   8.396   0.419   1.911 -0.0593 -0.0612 -0.1902
 3748W        W 3748   3.566   2.626   6.527  0.1696 -0.1119  0.0826
 3749W        W 3749   5.564   1.127   2.602  0.1906 -0.3526  0.3541
 3750W        W 3750   8.654   5.517   8.621 -0.0212  0.0651 -0.0953
 3751W        W 3751   8.567   7.949   5.393  0.0491  0.1686 -0.0676
 3752W        W 3752   1.667   9.036   4.286 -0.0318  0.1728 -0.3780
 3753W        W 3753   6.748   2.848   1.341  0.1367 -0.1611  0.1061
 3754W        W 3754   9.219   9.444   3.876  0.2848  0.1575  0.0549
 3755W        W 3755   6.486   3.715   2.292  0.0277  0.0707  0.1073
 3756W        W 3756   6.568   3.633   0.566  0.3465 -0.3059  0.2295
 3757W        W 3757   6.194   6.418   7.075  0.1802  0.0791  0.3503
 3758W        W 3758   8.231   9.763   4.762 -0.0513 -0.0880  0.0311
 3759W        W 3759   0.090   5.797   7.244 -0.4335  0.0077 -0.1718
 3760W        W 3760   6.365   0.197   4.295  0.0814  0.0990  0.7032
 3761W        W 3761   9.044   6.185   5.212 -0.0987  0.3013  0.1964
 3762W        W 3762   2.584   9.378   5.625  0.1490  0.0519  0.0060
 3763W        W 3763   3.215   1.860   1.409 -0.0534  0.0872 -0.0986
 3764W        W 3764   5.950   0.743   7.189  0.1996  0.1563 -0.1400
 3765W        W 3765  10.086   0.588   8.478 -0.0637  0.2288 -0.1373
 3766W        W 3766   3.476   5.809   3.285 -0.1027 -0.2569 -0.0101
 3767W        W 3767   9.090   3.773   0.061  0.1419 -0.2226 -0.0005
 3768W        W 3768   6.325  10.010   0.206  0.3433  0.1154  0.0598
 3769W        W 3769   5.279   8.230   9.957  0.2130 -0.0110  0.0183
 3770W        W 3770   1.148   0.450   5.193 -0.0909 -0.2104 -0.1359
 3771W        W 3771   0.155   7.762   1.259  0.1919  0.0856 -0.0344
 3772W        W 3772   1.901   5.388   6.340 -0.0900 -0.4231 -0.1442
 3773W        W 3773   4.879   0.561   5.925 -0.2900  0.1693  0.1100
 3774W        W 3774   1.381  10.245   2.630 -0.0321 -0.0477 -0.1762
 3775W        W 3775   6.206   3.247   3.416  0.3295  0.1355 -0.1995
 3776W        W 3776   5.272   2.961   2.595 -0.0732  0.3240 -0.0507
 3777W        W 3777   4.826   0.058   7.037  0.0553  0.1548  0.0219
 3778W        W 3778   4.876   1.347   3.009 -0.2063 -0.0509  0.0494
 3779W        W 3779   4.662   7.722   7.349 -0.0716 -0.0932  0.1029
 3780W        W 3780   2.853   4.725   0.972  0.0681 -0.0624 -0.2611
 3781W        W 3781   4.167   3.354   5.718 -0.2831  0.1129 -0.2490
 3782W        W 3782   1.202   2.309   5.935  0.2324 -0.1597  0.1049
 3783W        W 3783   3.520   8.783   0.549 -0.0395 -0.0101  0.0468
 3784W        W 3784   9.635   9.215   0.815 -0.1883  0.0860 -0.1481
 3785W        W 3785   2.012   1.712   9.640  0.2902  0.1479  0.1868
 3786W        W 3786   0.674   0.878   8.068 -0.1715 -0.1061 -0.1976
 3787W        W 3787   9.663   8.190   8.014 -0.3901  0.0752 -0.1887
 3788W        W 3788   5.486   5.141   5.628  0.0156  0.2861 -0.0761
 3789W        W 3789   9.828   3.611   4.478 -0.1181 -0.4063  0.0009
 3790W        W 3790   8.454   9.000   8.237  0.0925  0.0617  0.0114
 3791W        W 3791   9.789   6.622   5.644  0.0329 -0.0534 -0.2574
 3792W        W 3792   4.028   3.734   6.628  0.0617  0.3697  0.1295
 3793W        W 3793   4.020   6.483   4.815 -0.0671  0.0356 -0.0086
 3794W        W 3794   4.218   6.084   2.484 -0.0399  0.1848  0.0483
 3795W        W 3795  10.066   8.674   3.242  0.1948  0.2303 -0.2173
 3796W        W 3796   1.050  10.116   5.027  0.4041  0.0898  0.0241
 3797W        W 3797   3.624   8.641   1.166 -0.1688  0.0841 -0.4234
 3798W        W 3798   4.693   5.627   5.040 -0.1529  0.1521 -0.2888
 3799W        W 3799   7.989   0.445   2.339  0.0136 -0.0182  0.3584
 3800W        W 3800   3.943   9.052   3.719 -0.1924  0.0684 -0.1731
 3801W        W 3801   5.328   2.091   2.570  0.0575  0.1830 -0.0810
 3802W        W 3802   8.023   1.778   6.888 -0.0908 -0.1242  0.0055
 3803W        W 3803   2.052   3.110  10.044  0.0157  0.1144 -0.1214
 3804W        W 3804   0.310   6.076   6.214  0.1535 -0.3200 -0.0938
 3805W        W 3805   7.637   2.300   2.118 -0.2400  0.0427  0.1799
 3806W        W 3806   8.729   1.877   1.425 -0.0109 -0.0829 -0.3178
 3807W        W 3807   2.610   0.638   7.013 -0.2116 -0.0039 -0.2101
 3808W        W 3808   1.669   2.428   5.944 -0.1122 -0.1648  0.2083
 3809W        W 3809   6.415   2.347   9.857  0.0611 -0.0386  0.0991
 3810W        W 3810   4.391   1.119   7.687  0.0629 -0.3842 -0.1342
 3811W        W 3811   7.483   0.389   2.266  0.2602 -0.1604 -0.1691
 3812W        W 3812   9.525   5.129   6.205  0.0015 -0.1901 -0.0180
 3813W        W 3813   4.947   2.896   3.045  0.0332 -0.1327  0.1507
 3814W        W 3814   0.314   6.561   5.924 -0.1441 -0.0856 -0.2273
 3815W        W 3815   2.624   3.515   7.774 -0.4408  0.0903  0.1247
 3816W        W 3816   3.219   0.313   4.725  0.1490 -0.0252  0.2359
 3817W        W 3817   9.141   8.963   3.068 -0.1915 -0.2752  0.0556
 3818W        W 3818   4.341   0.178   4.142  0.0581 -0.1333  0.0021
 3819W        W 3819   2.672   9.718   9.033  0.2293 -0.1257  0.0971
 3820W        W 3820   2.694   6.640   6.780 -0.1122 -0.1888 -0.3324
 3821W        W 3821   0.081   1.289   9.584  0.2725  0.1731  0.2394
 3822W        W 3822   4.481   1.781   5.323  0.4147 -0.0963  0.1356
 3823W        W 3823   2.423   9.961   7.283 -0.0480  0.2293  0.1834
 3824W        W 3824   5.514   5.229   8.571 -0.1510 -0.2669 -0.3030
 3825W        W 3825   0.401   9.285   9.557  0.0276 -0.0254 -0.3965
 3826W        W 3826   2.267   1.294   3.153  0.1052 -0.1581 -0.2761
 3827W        W 3827   8.542   2.584   7.573 -0.0982 -0.1353  0.1562
 3828W        W 3828   9.555   1.461   4.874  0.4585 -0.0492  0.3671
 3829W        W 3829   5.457   4.206   8.473 -0.0963 -0.2254 -0.3921
 3830W        W 3830   1.176   6.130   3.666 -0.1969 -0.1152  0.1728
 3831W        W 3831   1.525   0.750   1.905  0.0057 -0.0806  0.0897
 3832W        W 3832   5.630   8.710   5.432 -0.0094  0.2154 -0.0465
 3833W        W 3833   9.875   6.039   5.173 -0.1125  0.1234  0.0871
 3834W        W 3834   7.992   1.457   2.853 -0.1392  0.2183  0.1389
 3835W        W 3835   7.584   9.966   7.346 -0.1038  0.1278 -0.1050
 3836W        W 3836   2.659   8.900   9.830 -0.2505  0.1497 -0.0917
 3837W        W 3837   0.158   7.530   3.935  0.2307  0.0618  0.0511
 3838W        W 3838   3.745   1.460   6.605 -0.0651 -0.0705 -0.1480
 3839W        W 3839   5.852   8.306   2.721 -0.2772 -0.1181  0.0789
 3840W        W 3840   1.293   2.084   0.468  0.1961  0.1703  0.1350
 3841W        W 3841   7.896  10.088   6.053 -0.0559 -0.1176  0.0516
 3842W        W 3842   2.287   7.105   1.789  0.0363  0.2726 -0.1119
 3843W        W 3843   8.689   6.280  10.007  0.0689 -0.2223 -0.0830
 3844W        W 3844   3.595   7.739   9.705  0.0194  0.0749  0.0932
 3845W        W 3845   2.491   1.697   9.842 -0.2914 -0.1448 -0.1649
 3846W        W 3846   5.964   1.203   1.619  0.4018  0.0966 -0.0999
 3847W        W 3847   7.716   0.733   6.564 -0.0600  0.0022  0.0181
 3848W        W 3848   7.785   4.217   9.670  0.1118 -0.0123 -0.0149
 3849W        W 3849   3.585   4.970   5.551 -0.1303 -0.0252  0.3980
 3850W        W 3850   6.596   9.441   5.967 -0.0299  0.0294  0.1748
 3851W        W 3851   1.303   3.093   0.349 -0.0098  0.2078 -0.1492
 3852W        W 3852   3.293   9.842  10.053 -0.2055  0.0431  0.2907
 3853W        W 3853   2.310   2.698   8.790  0.0291  0.1157 -0.1795
 3854W        W 3854   5.667   3.786   2.729 -0.2266  0.1899  0.0467
 3855W        W 3855   3.505   9.402   4.963  0.0627 -0.1289  0.0516
 3856W        W 3856   5.438   7.901   0.016 -0.1082 -0.1100 -0.0180
 3857W        W 3857   7.845   2.814   7.553 -0.0527 -0.0130  0.0302
 3858W        W 3858   2.515   0.010   7.754 -0.1799  0.3407  0.1233
 3859W        W 3859   0.470   5.186   5.511 -0.0333 -0.2344 -0.0422
 3860W        W 3860   0.564   0.324   4.325 -0.0297 -0.0995  0.0040
 3861W        W 3861   1.417   7.797   1.204 -0.0258  0.0143 -0.2515
 3862W        W 3862   9.969   3.961   2.792 -0.3786  0.1495 -0.2713
 3863W        W 3863   0.146   2.916  10.257  0.2386 -0.1267 -0.1290
 3864W        W 3864   2.019   4.119   4.790  0.0432 -0.1595 -0.2065
 3865W        W 3865   7.611  10.316   7.674  0.1098  0.0114  0.1468
 3866W        W 3866   4.649   6.946   7.116  0.0415 -0.1453  0.2427
 3867W        W 3867   9.946   3.086   2.542 -0.1032 -0.2382  0.0287
 3868W        W 3868   5.318   3.749   3.681 -0.1172  0.1766 -0.0705
 3869W        W 3869   6.307   7.040   2.838 -0.3345  0.0573  0.2085
 3870W        W 3870   2.381   4.516   8.816  0.1441 -0.1148 -0.2115
 3871W        W 3871   7.240   1.078   5.604  0.3287 -0.1194 -0.2193
 3872W        W 3872   8.143   0.479   4.117  0.0074 -0.1962  0.0402
 3873W        W 3873   4.465   9.168   8.141  0.0233  0.3127 -0.0087
 3874W        W 3874   7.504   7.934   6.599 -0.1336  0.0540  0.1652
 3875W        W 3875   1.556   7.494   7.357  0.1559 -0.3984 -0.1225
 3876W        W 3876   0.364   0.628   0.918 -0.1283 -0.0899 -0.1719
 3877W        W 3877   3.224   1.965   6.103 -0.0231 -0.0500 -0.0957
 3878W        W 3878   5.880   6.615   8.155  0.2365 -0.1990 -0.1629
 3879W        W 3879   3.694   0.562   4.679  0.2660 -0.2210 -0.2479
 3880W        W 3880   0.488   4.036   0.367 -0.0318 -0.1697 -0.3680
 3881W        W 3881   6.393   2.866   5.778 -0.1457 -0.0122  0.1484
 3882W        W 3882   4.103   1.936   6.047 -0.1246 -0.1884 -0.2025
 3883W        W 3883   5.315   2.272   6.994 -0.1056 -0.3560 -0.2373
 3884W        W 3884   7.325   1.953   8.879  0.3122  0.0223  0.2772
 3885W        W 3885   8.172   3.421   8.401 -0.2671  0.2811  0.0828
 3886W        W 3886   6.592   8.347   6.701 -0.1629 -0.0500  0.4283
 3887W        W 3887   0.520   3.290   9.482  0.1610  0.1409 -0.0917
 3888W        W 3888   1.365   9.032   0.596  0.1154 -0.0975 -0.0904
 3889W        W 3889   8.523   8.609   8.618  0.0404  0.0504  0.1722
 3890W        W 3890   1.832   0.564   1.583 -0.2266  0.1967  0.3143
 3891W        W 3891   2.104   0.914   1.841 -0.0413 -0.0284 -0.0775
 3892W        W 3892   9.674   9.712   0.944  0.3229  0.0735 -0.1022
 3893W        W 3893   8.142   3.483   1.415 -0.1095  0.1821  0.1439
 3894W        W 3894   6.835   8.052   4.410  0.2300 -0.1743 -0.0636
 3895W        W 3895   0.211   9.052   8.620 -0.0546  0.2427 -0.0049
 3896W        W 3896   8.463   6.367   1.802  0.0769 -0.1126  0.0915
 3897W        W 3897   8.628   6.816   1.158 -0.4394  0.1885  0.0400
 3898W        W 3898  10.026   0.589   5.802  0.0932  0.1741  0.1755
 3899W        W 3899   4.776   4.424   1.998  0.1739 -0.2294 -0.4237
 3900W        W 3900   8.009   8.914   5.833  0.2430  0.1178 -0.2079
 3901W        W 3901   9.268   2.110   9.219 -0.4088 -0.1890  0.3218
 3902W        W 3902   5.303   1.547   3.445 -0.0753  0.1014  0.2064
 3903W        W 3903   8.160   7.997   2.904  0.1251 -0.1836  0.0093
 3904W        W 3904   2.946   9.610   2.374  0.2260  0.0476 -0.2295
 3905W        W 3905   7.131   9.967   7.117  0.1907 -0.1126 -0.4408
 3906W        W 3906   4.092   4.258   4.610 -0.0963 -0.1065 -0.1319
 3907W        W 3907   7.433   2.251   3.007  0.1633 -0.0216 -0.0253
 3908W        W 3908   6.996   0.777   8.283 -0.0711 -0.2978  0.0338
 3909W        W 3909   1.900   4.895   3.131 -0.0216  0.0167 -0.0034
 3910W        W 3910   6.966   2.182   4.242  0.2327 -0.1403  0.1440
 3911W        W 3911   0.791   0.130   9.309  0.0211  0.3165  0.1163
 3912W        W 3912   4.035   1.704   1.091  0.2098 -0.1821 -0.0892
 3913W        W 3913   2.504   2.778   8.256 -0.1369 -0.1822  0.0063
 3914W        W 3914   4.741   4.452   7.659 -0.0998  0.0117 -0.0915
 3915W        W 3915   2.937   2.858   4.582  0.1303  0.0136 -0.0480
 3916W        W 3916   0.523   1.117   3.021 -0.2344 -0.1252  0.2131
 3917W        W 3917   1.119   5.164   0.793  0.1250  0.0223  0.1431
 3918W        W 3918   1.201   4.507   5.968 -0.0769 -0.3069 -0.2638
 3919W        W 3919   2.794   6.400   6.279  0.3619 -0.5305 -0.0019
 3920W        W 3920   2.416   2.373   5.441  0.0804  0.3488  0.2075
 3921W        W 3921   7.006  10.078   1.827  0.1776 -0.2308  0.1139
 3922W        W 3922   0.231   7.957   2.900 -0.2804 -0.0746 -0.0814
 3923W        W 3923   4.542   5.561   0.468 -0.2785  0.0513 -0.0210
 3924W        W 3924   8.867   2.814   6.150 -0.1098  0.0312  0.3997
 3925W        W 3925   7.525   8.669   9.190  0.0963  0.0099  0.2951
 3926W        W 3926   2.065   0.573   4.662 -0.1385 -0.0039 -0.1025
 3927W        W 3927   3.903   7.495   6.745  0.3647 -0.0517  0.1179
 3928W        W 3928   0.555   9.211   4.743 -0.0109  0.3739  0.3069
 3929W        W 3929   0.365   5.334   0.126  0.0871  0.4241 -0.3834
 3930W        W 3930   9.928   8.193   0.961  0.0592 -0.4205 -0.0677
 3931W        W 3931   3.780   1.144   5.820  0.0014 -0.2815 -0.1855
 3932W        W 3932   5.579   4.743   2.377 -0.0789 -0.2285  0.1474
 3933W        W 3933   3.353   7.894   8.706 -0.2088  0.0263  0.2682
 3934W        W 3934   0.065   2.784   2.483 -0.0230  0.0625 -0.2517
 3935W        W 3935   2.264   7.920   0.113  0.0136  0.1584  0.1648
 3936W        W 3936   5.904   5.280   4.479 -0.0083  0.1760 -0.1440
 3937W        W 3937   3.077   6.851   8.962 -0.2291 -0.4087  0.0735
 3938W        W 3938   7.186   2.479   8.189  0.1484 -0.0614 -0.0403
 3939W        W 3939   8.907   2.242   2.612 -0.4219 -0.0906  0.1119
 3940W        W 3940   4.043   2.671   3.965  0.2528 -0.0499  0.0188
 3941W        W 3941  10.078   8.347   2.838 -0.0594  0.1184  0.1024
 3942W        W 3942   7.797   0.305   4.451  0.2565  0.2758  0.0700
 3943W        W 3943   0.546   3.140  10.226  0.1803 -0.1769 -0.0482
 3944W        W 3944   8.341   4.504   1.468 -0.2567 -0.4103  0.0915
 3945W        W 3945   0.783   4.133   0.779 -0.1794  0.0637  0.0533
 3946W        W 3946   4.901   5.816   2.079 -0.1501 -0.0895 -0.1890
 3947W        W 3947   8.689   8.972   2.180  0.2027  0.0374 -0.2430
 3948W        W 3948   2.529   4.672   1.763 -0.1141 -0.4565 -0.1806
 3949W        W 3949   1.934   2.969   8.998  0.2670  0.4532 -0.0712
 3950W        W 3950   8.815   0.642   4.763  0.4088  0.0346 -0.0321
 3951W        W 3951   3.294   1.141   6.969 -0.0998  0.0417  0.2094
 3952W        W 3952   9.157   8.027   9.785  0.0620  0.3507 -0.0579
 3953W        W 3953   4.272   2.370   3.592  0.0236 -0.1393 -0.1127
 3954W        W 3954   3.525   1.547   1.115 -0.2243 -0.0058 -0.0595
 3955W        W 3955   1.269   2.011   9.821  0.2508  0.2291  0.0203
 3956W        W 3956   6.565   6.243   3.596  0.0740  0.0729  0.2573
 3957W        W 3957   0.085  10.323   7.589 -0.1127 -0.1080  0.2495
 3958W        W 3958   0.960   9.646   8.361 -0.0564  0.1761 -0.1408
 3959W        W 3959  10.287   0.707   0.497 -0.2717 -0.3004  0.3622
 3960W        W 3960   7.940   1.842   7.617  0.2333  0.3022  0.1959
 3961W        W 3961   3.854   8.668   4.965 -0.1145  0.2256 -0.1192
 3962W        W 3962   5.302   3.958  10.291  0.0056 -0.2299 -0.1872
 3963W        W 3963   1.083   5.958   0.157  0.0326  0.1911  0.0308
 3964W        W 3964   3.758   9.084   0.953  0.4088  0.0143 -0.2640
 3965W        W 3965   6.360   1.112   6.487 -0.1903 -0.0928  0.0698
 3966W        W 3966   1.045  10.243   8.113  0.0521 -0.3010  0.0159
 3967W        W 3967   1.341   7.775   9.831  0.0584  0.1488  0.0655
 3968W        W 3968   3.663   3.364   2.027  0.1254  0.0911  0.0092
 3969W        W 3969   4.319   6.723   5.664 -0.0316 -0.0756 -0.3048
 3970W        W 3970   7.191   7.332   1.924 -0.0959 -0.2252 -0.1430
 3971W        W 3971   2.676   4.628   6.529  0.2481  0.0622  0.0702
 3972W        W 3972   8.633   6.625   2.986  0.1468 -0.0436 -0.1314
 3973W        W 3973   4.444   3.019   1.611  0.1812  0.1136 -0.2368
 3974W        W 3974   4.395   7.706   6.182  0.1241  0.1514 -0.0754
 3975W        W 3975   6.349   9.488   0.262 -0.1793 -0.0988  0.0223
 3976W        W 3976   4.418   0.619   6.077 -0.1624  0.1278  0.0565
 3977W        W 3977   0.066   3.778   1.558 -0.1706  0.0311 -0.0116
 3978W        W 3978   5.934   2.134   2.670 -0.1464 -0.2665  0.0435
 3979W        W 3979   5.934   8.227   7.459  0.1175  0.0071  0.3071
 3980W        W 3980   9.873   9.740   7.517  0.1423  0.1178 -0.0337
 3981W        W 3981   6.651   6.436   0.885 -0.1644  0.0258 -0.1302
 3982W        W 3982   6.431   5.042   2.039  0.0828 -0.1068  0.1476
 3983W        W 3983   1.918   0.633   9.646 -0.0922 -0.0961  0.1365
 3984W        W 3984   9.820   7.204   1.168 -0.1012  0.1444  0.2756
 3985W        W 3985   7.001   8.656   3.877 -0.0834  0.1467 -0.1445
 3986W        W 3986   2.462   6.453   2.811 -0.3225  0.1752  0.2034
 3987W        W 3987   3.621   1.523   7.792  0.1093 -0.0189 -0.1649
 3988W        W 3988   2.139   6.222   8.618  0.1544 -0.1547  0.1456
 3989W        W 3989   6.008  10.321   6.416  0.0650 -0.0244 -0.0062
 3990W        W 3990   4.939   9.173   4.079 -0.1600  0.1685 -0.3239
 3991W        W 3991   4.512   1.934   2.233  0.2161  0.0496 -0.1000
 3992W        W 3992   9.167   1.835   2.680 -0.1167  0.1376  0.1159
 3993W        W 3993   9.543   3.273   8.565 -0.1274 -0.1322 -0.1322
 3994W        W 3994   5.674   3.092   4.342  0.2054  0.0318 -0.0742
 3995W        W 3995   4.710   1.831   0.495  0.1568  0.5167 -0.0734
 3996W        W 3996   6.333   8.053   2.892  0.2437  0.0441  0.1241
 3997W        W 3997   0.069   2.625   8.049  0.0592 -0.2721  0.0353
 3998W        W 3998   6.262   5.120   7.672 -0.0302 -0.0276  0.2170
 3999W        W 3999   5.819   7.559   3.459  0.1892  0.0670  0.2146
 4000W        W 4000   8.772   8.518   8.162  0.2575  0.0890 -0.1835
 4001W        W 4001   3.664   0.432   6.314 -0.6254 -0.1542  0.0979
 4002W        W 4002   1.407   5.395   1.983 -0.3819  0.1072 -0.1139
 4003W        W 4003   3.092  10.336  10.127  0.0783 -0.2595  0.1292
 4004W        W 4004   2.646   7.079   4.491 -0.1901  0.1913 -0.2528
 4005W        W 4005   5.054   2.538   2.734  0.3022 -0.0676 -0.1282
 4006W        W 4006   8.135   4.535   4.703 -0.1054  0.0232 -0.2623
 4007W        W 4007   2.329   1.900   1.495 -0.0791 -0.1042 -0.0752
 4008W        W 4008   2.692   2.491   1.577  0.1921 -0.1788 -0.0382
 4009W        W 4009   2.349   8.687   4.320  0.2062  0.2491  0.0799
 4010W        W 4010   6.150   5.097   6.827  0.1154  0.1456 -0.0051
 4011W        W 4011   3.405   2.926   4.742 -0.0646  0.2463 -0.1411
 4012W        W 4012   4.465   6.159   8.419  0.0101 -0.0125  0.2895
 4013W        W 4013   8.775   0.415   8.034  0.2027 -0.1356  0.1732
 4014W        W 4014   7.700   5.635  10.130  0.0435 -0.4157 -0.0291
 4015W        W 4015  10.117   8.547   5.773 -0.3974 -0.1635  0.1796
 4016W        W 4016   0.359   9.489   2.080 -0.4347 -0.0880  0.1474
 4017W        W 4017   3.033   7.122   8.393  0.2663 -0.0176 -0.1258
 4018W        W 4018   7.735   3.391   9.628  0.0359 -0.0951  0.1053
 4019W        W 4019   0.470   6.046   3.477  0.1419  0.0520 -0.2731
 4020W        W 4020   7.776   6.389   6.401  0.3030  0.1125  0.1058
 4021W        W 4021   3.147   8.733   4.569 -0.0754  0.2576  0.0461
 4022W        W 4022   1.429   2.601   6.356  0.1515  0.1210  0.2068
 4023W        W 4023   9.677   1.645   9.491 -0.1541 -0.3516 -0.1957
 4024W        W 4024   0.682   0.050   3.832 -0.2545  0.0227 -0.0535
 4025W        W 4025   9.540   7.459   0.335  0.0454 -0.0076  0.1801
 4026W        W 4026   0.733   9.407   3.372  0.1568 -0.0254  0.1170
 4027W        W 4027   2.740   6.158   4.918  0.1006  0.2800  0.0667
 4028W        W 4028   1.379   9.804   0.693  0.3871  0.0068  0.2029
 4029W        W 4029   4.081   2.065   5.494  0.0699  0.2389 -0.1563
 4030W        W 4030   1.208   2.509   4.382 -0.2803 -0.0935 -0.0190
 4031W        W 4031   8.467   2.010   7.922  0.1887  0.2546 -0.0653
 4032W        W 4032   6.752   3.242   3.451 -0.2404 -0.1424  0.0941
 4033W        W 4033   3.262   8.797   6.576  0.0758  0.3262  0.1599
 4034W        W 4034   8.403   7.207   7.327  0.2043 -0.2737  0.0762
 4035W        W 4035   3.263   3.157   1.774  0.2300  0.0794  0.2188
 4036W        W 4036   4.270   8.342   0.423  0.2211 -0.1679 -0.0460
 4037W        W 4037   4.113   0.770   4.957 -0.0929  0.1199 -0.1857
 4038W        W 4038   1.813   9.906   8.630  0.2754 -0.1889 -0.4380
 4039W        W 4039   2.843   4.781  10.290 -0.1008  0.0246  0.2153
 4040W        W 4040   6.360   3.944   3.925  0.2544 -0.3373 -0.1502
 4041W        W 4041  10.333   8.436   1.722 -0.1305  0.0289 -0.0906
 4042W        W 4042   6.770   2.639   4.453 -0.1609 -0.0470  0.0017
 4043W        W 4043   6.612  10.251   4.701  0.0405 -0.2924  0.2913
 4044W        W 4044   8.698   8.004   1.057 -0.1979 -0.2600  0.0831
 4045W        W 4045   7.861   3.517   6.274  0.1235 -0.4363 -0.0908
 4046W        W 4046   1.238   1.020   4.705 -0.1170  0.2216  0.1981
 4047W        W 4047   3.171   0.664   6.948  0.1452 -0.0167 -0.1912
 4048W        W 4048   0.842   6.324   6.390  0.1876 -0.1268  0.1837
 4049W        W 4049   4.917   1.714   1.098 -0.1837 -0.0240 -0.1238
 4050W        W 4050  10.116   9.551   0.798 -0.1085 -0.0230  0.1942
 4051W        W 4051   6.640   0.825   8.691  0.1826 -0.0953  0.2031
 4052W        W 4052  10.299   6.731   1.128 -0.0844 -0.0900 -0.1132
 4053W        W 4053   4.113   6.231   6.059  0.1442 -0.3933 -0.0340
 4054W        W 4054   1.714   8.847   7.000 -0.0035  0.1717  0.1919
 4055W        W 4055   9.455   1.061   3.018 -0.0454  0.2033  0.3501
 4056W        W 4056   8.653   6.024   8.589  0.2497  0.2320  0.3649
 4057W        W 4057   1.699   4.459   4.546 -0.1805  0.2951 -0.1192
 4058W        W 4058   3.022   2.747   8.345 -0.1292 -0.0666  0.1116
 4059W        W 4059   3.135   4.341   1.001  0.1274 -0.1828  0.1114
 4060W        W 4060   4.889   2.657   6.897 -0.1436  0.1133  0.0431
 4061W        W 4061   6.999  10.032   3.308  0.0918  0.1670  0.1545
 4062W        W 4062   1.510   5.645   0.856  0.1153  0.1228 -0.0637
 4063W        W 4063   4.877   4.335   0.732  0.1420 -0.2181  0.1325
 4064W        W 4064   5.976   8.234   6.574 -0.1755 -0.1585 -0.0569
 4065W        W 4065   3.696   3.150   8.730 -0.1694 -0.1069  0.1361
 4066W        W 4066   2.459   4.268   5.765 -0.3837 -0.2461  0.0757
 4067W        W 4067   6.663   3.798   1.431 -0.1646  0.0544 -0.1555
 4068W        W 4068   7.189   0.304   1.219 -0.1103  0.0962  0.1720
 4069W        W 4069   3.004   0.727   1.492 -0.0997  0.2969  0.1965
 4070W        W 4070   9.407   6.475   4.370 -0.1223  0.0687  0.2781
 4071W        W 4071   2.850   3.034   3.310  0.1458  0.2074  0.0972
 4072W        W 4072   5.428   9.661   1.944 -0.0933 -0.0569  0.1701
 4073W        W 4073   9.749   7.290   9.077  0.0106 -0.0647 -0.0024
 4074W        W 4074   0.086   1.091   6.397  0.0359 -0.1701 -0.1612
 4075W        W 4075   2.975   5.121   9.417 -0.1600 -0.1743  0.1536
 4076W        W 4076   8.764   4.563   6.123  0.1593  0.1250  0.1585
 4077W        W 4077   0.878   3.758   1.771  0.0334 -0.1385  0.0217
 4078W        W 4078   6.870   3.433   6.178  0.2091 -0.0456  0.1499
 4079W        W 4079   8.971   9.522   8.149  0.0278  0.0495 -0.2389
 4080W        W 4080   3.494   2.812   7.291 -0.2157 -0.4560 -0.1041
 4081W        W 4081   3.488   8.001   9.152  0.1060  0.2477 -0.1015
 4082W        W 4082   9.570   7.557   9.614 -0.2314  0.0019 -0.1819
 4083W        W 4083   9.557   4.667   8.675 -0.1240  0.0678  0.0555
 4084W        W 4084   1.384   1.550   2.792 -0.1670 -0.0958 -0.0113
 4085W        W 4085   6.769   9.632   3.234 -0.0518  0.5346  0.2826
 4086W        W 4086   4.085   9.669   2.328  0.0373  0.2999 -0.0622
 4087W        W 4087   7.413   3.410   6.129  0.2431 -0.4809  0.0884
 4088W        W 4088   3.503   2.131   7.777 -0.2388 -0.0181  0.0295
 4089W        W 4089   7.078   0.049   0.207 -0.0816 -0.2445  0.1680
 4090W        W 4090   5.373   1.866  10.149 -0.0764  0.1206  0.1096
 4091W        W 4091   8.145   3.915   3.106 -0.2007 -0.1956 -0.1378
 4092W        W 4092   2.563   4.254   7.456  0.2734  0.0476  0.0444
 4093W        W 4093   2.087   8.757   7.719  0.0079  0.0673  0.0080
 4094W        W 4094   5.572   6.410   7.217  0.0940 -0.0387  0.3536
 4095W        W 4095   2.387   3.773   0.765 -0.2933  0.1201  0.2882
 4096W        W 4096   7.404   7.124   2.349 -0.1854  0.1467 -0.1864
 4097W        W 4097   4.959   9.586  10.202  0.0851 -0.4674  0.0510
 4098W        W 4098   7.481   1.257   1.930  0.3244  0.1174  0.1667
 4099W        W 4099   8.636   4.515   8.547  0.3974  0.0404  0.0578
 4100W        W 4100   7.963   0.165   1.366  0.1567  0.0358 -0.2560
 4101W        W 4101   7.178   2.239   5.961  0.1619 -0.2145 -0.2357
 4102W        W 4102   3.423   9.251   1.849 -0.0395 -0.2220  0.2190
 4103W        W 4103   7.457  10.271   8.220  0.0567 -0.2762  0.1389
 4104W        W 4104   6.809   2.335  10.216  0.1530 -0.1705  0.2339
 4105W        W 4105   4.693   0.846  10.114  0.0834 -0.3028 -0.1966
 4106W        W 4106   1.451   8.947   6.156 -0.4648 -0.2071  0.2992
 4107W        W 4107   4.947   0.756   5.221  0.1294 -0.0573  0.0694
 4108W        W 4108   0.393   1.656  10.101 -0.2517  0.0644  0.2647
 4109W        W 4109   5.282   1.826   4.302 -0.0237 -0.0397 -0.0392
 4110W        W 4110   7.301   1.406   4.180 -0.0205 -0.1164 -0.2317
 4111W        W 4111   5.677  10.327   5.930 -0.0804  0.1251  0.3820
 4112W        W 4112   6.731   3.128   2.236 -0.1692 -0.1538 -0.4694
 4113W        W 4113   9.614  10.001   4.478 -0.0214 -0.1153 -0.0953
 4114W        W 4114   1.384   8.484   7.277 -0.1858  0.0315 -0.0189
 4115W        W 4115   1.136   7.890   5.936 -0.0949  0.1077  0.3139
 4116W        W 4116   0.836   2.196   2.162 -0.0983  0.0685 -0.1217
 4117W        W 4117   0.359   4.798  10.217 -0.0539  0.3623 -0.0063
 4118W        W 4118   2.221   5.956   0.325 -0.0273 -0.3720 -0.2460
 4119W        W 4119   5.179   4.769   1.302 -0.0153  0.0415 -0.4579
 4120W        W 4120   7.175   9.420   6.275  0.2665  0.1394 -0.0646
 4121W        W 4121   3.740   7.048   6.538 -0.0775  0.2336  0.1155
 4122W        W 4122   2.522   6.267   7.696  0.1822  0.0933 -0.1312
 4123W        W 4123   5.327   9.504   9.784 -0.2344 -0.2125  0.0895
 4124W        W 4124   6.706   6.167   0.500 -0.0933  0.1744 -0.1283
 4125W        W 4125   5.034   6.167   6.549 -0.0823 -0.0092  0.0532
 4126W        W 4126   6.597   6.977   0.638  0.2097  0.2733 -0.2463
 4127W        W 4127   3.706   1.584   4.557  0.2860 -0.1182  0.1336
 4128W        W 4128   9.956   0.922   0.952 -0.3044 -0.1786 -0.1388
 4129W        W 4129   9.965   4.403   7.858  0.1557 -0.1056  0.0576
 4130W        W 4130   4.125   6.848   3.025 -0.1840  0.1334 -0.0206
 4131W        W 4131   1.573   6.434   4.588  0.1133  0.4296 -0.1340
 4132W        W 4132   2.252   5.786   3.294 -0.2145 -0.0360 -0.2425
 4133W        W 4133   4.933   8.126   5.819 -0.1221  0.3082  0.0780
 4134W        W 4134   6.457   4.131   8.669 -0.2230 -0.2293  0.0173
 4135W        W 4135   9.127   6.933   4.476  0.1240  0.0844  0.0548
 4136W        W 4136   8.371  10.019   2.629  0.0560 -0.0429  0.0275
 4137W        W 4137   4.641   4.220   5.333  0.1066  0.3181 -0.0072
 4138W        W 4138   2.410   3.705   8.245  0.1067 -0.1939  0.0690
 4139W        W 4139   0.008   7.158   9.584 -0.1182  0.1554  0.0727
 4140W        W 4140   8.578   8.784   3.324  0.0739  0.1210 -0.1876
 4141W        W 4141   8.497   2.008   4.010  0.1608 -0.0955  0.3640
 4142W        W 4142   8.818   4.061   5.231  0.0792  0.0688  0.1106
 4143W        W 4143   6.679   9.070   2.009 -0.2297  0.1829 -0.1069
 4144W        W 4144   8.903   9.529   0.651  0.0820 -0.2153 -0.1492
 4145W        W 4145   7.009   0.181   2.098 -0.2701 -0.1836  0.0081
 4146W        W 4146   7.914   4.528   9.128 -0.1339 -0.1525  0.1564
 4147W        W 4147   4.535   9.042   9.542  0.0734  0.2713  0.0637
 4148W        W 4148   1.813   2.767   9.712 -0.0942  0.2848  0.0030
 4149W        W 4149   7.422   7.369   9.416  0.3734 -0.1662  0.0709
 4150W        W 4150   8.626   7.402   6.555 -0.0003  0.0638  0.0441
 4151W        W 4151   2.702   3.912   5.553  0.1445 -0.1490  0.0153
 4152W        W 4152  10.108   6.167   4.304 -0.0481  0.0457  0.1741
 4153W        W 4153   6.659   9.189   3.003  0.1953  0.0370  0.1776
 4154W        W 4154  10.328   0.686   9.469 -0.2014  0.1332  0.0504
 4155W        W 4155   5.596   0.140   4.996 -0.0673  0.2426 -0.0883
 4156W        W 4156   3.135   6.996   4.643  0.0857 -0.2620  0.2613
 4157W        W 4157   7.963   7.170   7.702  0.3552  0.0024 -0.0685
 4158W        W 4158   1.404   6.099   7.797  0.1539  0.0447  0.1402
 4159W        W 4159   9.923   9.804  10.198 -0.4134  0.3077  0.1527
 4160W        W 4160   1.796   8.435   3.565  0.1602 -0.0574 -0.2654
 4161W        W 4161   8.480   8.429   9.076 -0.0543  0.0685  0.0018
 4162W        W 4162   1.837   4.188   2.377  0.1541  0.1508 -0.0852
 4163W        W 4163   6.794   0.668   7.709 -0.1083 -0.1609 -0.0754
 4164W        W 4164   5.996   0.739  10.232 -0.0740  0.1844  0.0963
 4165W        W 4165   4.522   2.645   4.870  0.1871 -0.2591 -0.0601
 4166W        W 4166   7.292   5.779   2.304  0.0452  0.3831 -0.0943
 4167W        W 4167   6.356   8.468   2.721 -0.2172  0.1549  0.4524
 4168W        W 4168   1.821   8.923   5.285  0.2914  0.1357 -0.0228
 4169W        W 4169   1.845   1.366   8.647  0.3675  0.0759 -0.1195
 4170W        W 4170   3.784   4.048   2.161  0.2282 -0.1184  0.0064
 4171W        W 4171   2.286   4.229   1.663  0.1629  0.4299  0.0785
 4172W        W 4172   5.796   1.179  10.293 -0.1215 -0.1236 -0.0537
 4173W        W 4173   0.966   2.516   2.505 -0.2853  0.1500 -0.2092
 4174W        W 4174   2.901   5.655   1.114  0.0630 -0.3655 -0.4110
 4175W        W 4175   2.152   6.601   7.790  0.5331 -0.1155 -0.1127
 4176W        W 4176   7.886   6.111   8.262 -0.2585  0.0024  0.2335
 4177W        W 4177   6.291   6.717   6.373  0.0252 -0.1398  0.0497
 4178W        W 4178   9.886   6.779   8.509 -0.0641 -0.0932 -0.2152
 4179W        W 4179   8.484   1.473   5.908  0.2335  0.2598 -0.1280
 4180W        W 4180   4.089   0.876   8.441 -0.3155 -0.1341 -0.0533
 4181W        W 4181   2.364   7.563   0.743 -0.5467  0.3163  0.1188
 4182W        W 4182   0.982   1.265   2.329 -0.2016 -0.0602 -0.3889
 4183W        W 4183   4.770   9.702   4.152  0.0556 -0.1489  0.4755
 4184W        W 4184   1.207   0.289   0.230 -0.0450 -0.0078 -0.4657
 4185W        W 4185   1.827  10.333   2.391 -0.2099 -0.0873  0.1354
 4186W        W 4186   1.983  10.274   9.997  0.2164  0.1048  0.2632
 4187W        W 4187   2.278   5.475  10.082  0.4288 -0.0056 -0.0643
 4188W        W 4188   8.785   2.220   0.691  0.2894  0.0705 -0.3926
 4189W        W 4189   1.646   6.781   9.455 -0.2408  0.0422  0.0159
 4190W        W 4190   3.183   9.769   0.697 -0.1327 -0.0371  0.2213
 4191W        W 4191  10.174   3.714   1.988 -0.3224 -0.3588 -0.2699
 4192W        W 4192   7.642   1.471   5.339  0.0026  0.3272 -0.0468
 4193W        W 4193   9.309   3.868   6.961 -0.3060 -0.2174  0.2113
 4194W        W 4194   2.506   8.031   0.901  0.3563 -0.0557  0.1615
 4195W        W 4195   2.368   0.647   8.435 -0.1279 -0.3012  0.0669
 4196W        W 4196   1.248   9.697   5.208  0.0173 -0.0949  0.2393
 4197W        W 4197   4.715   1.591   4.907  0.0841 -0.0597  0.0175
 4198W        W 4198   7.736   6.335   1.768  0.4048  0.0685  0.0581
 4199W        W 4199   9.163   9.813   4.749 -0.0205  0.3461  0.0826
 4200W        W 4200   4.231   9.929   5.467 -0.0896  0.0789  0.0434
 4201W        W 4201   8.687   1.228   3.411  0.1494 -0.2885 -0.0053
 4202W        W 4202   9.072   4.505   0.109 -0.1059  0.1117  0.1639
 4203W        W 4203   3.804   5.742   0.608 -0.1683  0.0813  0.1047
 4204W        W 4204   9.345   9.642   5.292  0.5516 -0.1880 -0.1659
 4205W        W 4205   5.740   8.923   4.432  0.1996 -0.0731  0.0135
 4206W        W 4206   6.853   5.732   2.492 -0.2211 -0.0540 -0.0943
 4207W        W 4207   9.241   1.840   1.450  0.0499 -0.1540 -0.1775
 4208W        W 4208   7.967   1.060   6.771 -0.1630 -0.1887 -0.1068
 4209W        W 4209   3.112   9.829   8.232  0.2312 -0.3139 -0.0288
 4210W        W 4210   1.533   1.761   4.256 -0.3762 -0.2023  0.0052
 4211W        W 4211   6.041   7.562   4.885 -0.1889 -0.1080 -0.1300
 4212W        W 4212   4.909   6.170   5.042  0.0297  0.0607 -0.0276
 4213W        W 4213   7.512   0.048   5.406 -0.0199  0.3196  0.1010
 4214W        W 4214   9.516   9.934   6.582  0.0169 -0.2547  0.1357
 4215W        W 4215   5.122   9.977   1.664 -0.1512  0.0131  0.1874
 4216W        W 4216   3.671   1.965   2.432 -0.0231 -0.0533  0.2582
 4217W        W 4217   8.865   6.257   2.713 -0.0430  0.2229 -0.0278
 4218W        W 4218   9.886   4.263   6.710  0.3515 -0.3741 -0.2298
 4219W        W 4219   7.236   6.849   4.803  0.0017  0.2989  0.1613
 4220W        W 4220   6.950   8.988  10.314  0.0536  0.1154  0.1101
 4221W        W 4221   3.730   6.759   7.772 -0.3918 -0.3198 -0.5061
 4222W        W 4222   7.360   7.967   2.068  0.1180  0.3175 -0.1174
 4223W        W 4223   4.430   9.730  10.250  0.0209 -0.2236 -0.2493
 4224W        W 4224   0.640   2.970   4.827 -0.0387  0.1449  0.0383
 4225W        W 4225   6.009   3.657   0.609  0.0744  0.1305 -0.1895
 4226W        W 4226   9.606   4.467   9.109  0.1521  0.1110  0.2955
 4227W        W 4227   6.950   9.618   1.517  0.1724 -0.2786 -0.1281
 4228W        W 4228   6.374   3.856   6.601  0.1497  0.0293  0.0232
 4229W        W 4229   7.881   7.191   8.654 -0.2724 -0.1199  0.2104
 4230W        W 4230   5.951   6.160   4.841 -0.0366 -0.1351 -0.2693
 4231W        W 4231   4.207   6.450   3.424  0.2815 -0.0351  0.0259
 4232W        W 4232   8.446   2.326   0.151  0.0748 -0.1612  0.0984
 4233W        W 4233   2.235   1.860   2.572 -0.0635 -0.0794  0.1748
 4234W        W 4234   3.313   4.675   7.369 -0.0886 -0.0964 -0.0747
 4235W        W 4235   5.080   0.166  10.040  0.2927  0.0958 -0.2638
 4236W        W 4236   4.243   0.580   1.850 -0.0420 -0.1993  0.2420
 4237W        W 4237   7.176   2.109   7.367  0.2275  0.1731  0.2040
 4238W        W 4238   4.411   5.423   6.394 -0.4230 -0.1509 -0.0440
 4239W        W 4239   0.784   4.031   9.861 -0.1562 -0.2131  0.1442
 4240W        W 4240   7.633   4.208   3.576  0.2086 -0.0613  0.1422
 4241W        W 4241   5.566   9.350   8.688 -0.0031 -0.1534  0.1282
 4242W        W 4242   6.096   3.370   7.960 -0.2644 -0.1484 -0.1706
 4243W        W 4243   4.421   7.245   2.981  0.1628 -0.0904 -0.1008
 4244W        W 4244   2.731   1.636   6.850  0.1690  0.1561 -0.2959
 4245W        W 4245   3.601   7.177   4.476  0.2425  0.0680  0.1592
 4246W        W 4246   6.579   1.975   1.324 -0.2281 -0.1031  0.2315
 4247W        W 4247   0.030   0.026  10.147 -0.0745  0.2326  0.3687
 4248W        W 4248   0.315   3.910   8.358  0.4126 -0.3262  0.2184
 4249W        W 4249   2.918   5.728  10.168  0.1883  0.0573 -0.1230
 4250W        W 4250   9.867   8.407   9.362 -0.2293 -0.0212  0.1668
 4251W        W 4251   8.415   4.857   0.644  0.3709 -0.0605  0.2191
 4252W        W 4252   0.166   1.314   2.189 -0.1909  0.2852  0.0093
 4253W        W 4253   2.210   8.763  10.289  0.4088  0.0239 -0.0214
 4254W        W 4254   8.825   8.627   2.912  0.0688  0.0726  0.1077
 4255W        W 4255   6.319   8.918   2.789  0.0874 -0.2726  0.2877
 4256W        W 4256   1.718   8.920   3.387 -0.1260  0.0757  0.0566
 4257W        W 4257   8.259   2.082   9.180  0.3910 -0.1652 -0.1812
 4258W        W 4258   0.328   1.330   7.385 -0.2070  0.0171 -0.1920
 4259W        W 4259   0.408   8.964   5.136  0.3796 -0.0254  0.1730
 4260W        W 4260   0.012   9.265   5.226 -0.1973 -0.0606  0.1055
 4261W        W 4261   7.665   4.274   3.039  0.3616  0.0055 -0.0994
 4262W        W 4262   0.357   4.022   3.712  0.1211  0.1562  0.1458
 4263W        W 4263   6.601   8.151   4.818 -0.0469  0.3650  0.0783
 4264W        W 4264   9.511   6.672   9.310  0.1964 -0.1853  0.1961
 4265W        W 4265   7.217   4.556   6.259  0.0414  0.0992  0.1109
 4266W        W 4266   1.758   2.531   1.272  0.1218 -0.0794 -0.0132
 4267W        W 4267   9.786   3.829   5.286  0.0691  0.2234  0.1966
 4268W        W 4268   6.653   5.119   3.419  0.1268 -0.0214  0.2312
 4269W        W 4269   8.493   4.005   2.686 -0.0531 -0.3106  0.0196
 4270W        W 4270   8.633   9.673   7.629  0.0916  0.2009  0.0360
 4271W        W 4271   1.628   5.536   9.179 -0.1363 -0.1546 -0.1154
 4272W        W 4272   8.739   9.859   1.272  0.2571 -0.0878  0.2144
 4273W        W 4273   6.626   0.144   1.793  0.1032 -0.1878  0.1240
 4274W        W 4274   3.616   4.790  10.241 -0.1784  0.0772  0.1809
 4275W        W 4275   8.691   1.117   2.476 -0.1588  0.0098 -0.0444
 4276W        W 4276   8.238   1.430   2.409 -0.0262 -0.2052  0.0184
 4277W        W 4277   6.680   6.839   3.819 -0.5590 -0.0250 -0.1956
 4278W        W 4278   4.389   8.311   7.177 -0.1541 -0.1360  0.3065
 4279W        W 4279   4.650   0.448   1.358  0.2176  0.2803 -0.1244
 4280W        W 4280   1.806   1.767   6.417 -0.1805  0.1796  0.1982
 4281W        W 4281   7.183   8.407   2.919 -0.0807  0.1531 -0.0511
 4282W        W 4282   1.011   7.379   4.119  0.0502 -0.0741  0.1362
 4283W        W 4283   1.844   1.861   0.737 -0.0590  0.1479  0.0292
 4284W        W 4284   2.507   8.415   5.865  0.1931 -0.0432  0.3031
 4285W        W 4285   9.943   3.032   4.723 -0.2974 -0.1053  0.2366
 4286W        W 4286   7.079   1.444   5.302 -0.0232 -0.2206  0.4700
 4287W        W 4287   6.304   8.799   8.496  0.0787 -0.2552  0.1996
 4288W        W 4288   9.593   7.007   4.247 -0.0756  0.2917  0.1020
 4289W        W 4289   0.407   2.363   2.419  0.0583  0.2567 -0.0353
 4290W        W 4290   5.495   4.041   6.258  0.0063  0.0246  0.0935
 4291W        W 4291   3.896   5.681   8.752 -0.0346 -0.1116  0.0089
 4292W        W 4292   9.189   3.080   8.226 -0.0730 -0.2470 -0.0498
 4293W        W 4293   2.522   2.443   7.865  0.2095  0.1902  0.0354
 4294W        W 4294   5.014   5.271   6.740  0.1153 -0.1876  0.0739
 4295W        W 4295   4.860   5.389   9.893 -0.0807  0.0514 -0.0326
 4296W        W 4296   5.830   5.790   3.277  0.0026  0.1958 -0.0884
 4297W        W 4297   1.048   0.827   0.174  0.0133  0.0912 -0.1298
 4298W        W 4298   1.031   8.738   4.996 -0.0314  0.1358 -0.0576
 4299W        W 4299   6.170   8.376   3.249 -0.1052 -0.0189 -0.0016
 4300W        W 4300   2.940   1.256   4.450  0.4515 -0.2109  0.0612
 4301W        W 4301   3.829   3.503   0.618  0.0495 -0.0534  0.0845
 4302W        W 4302   8.592   9.622   6.196 -0.1052 -0.0398 -0.1219
 4303W        W 4303   1.930   9.130   6.394  0.0372  0.0277 -0.2046
 4304W        W 4304   4.958   7.883   8.960 -0.0946 -0.0158 -0.1177
 4305W        W 4305   8.621   3.298  10.041 -0.0060  0.0043  0.0328
 4306W        W 4306   2.002   5.993   7.878 -0.0706  0.0259  0.0313
 4307W        W 4307   1.896   8.505   1.605 -0.0104  0.0046 -0.1240
 4308W        W 4308   9.591   1.422   9.951 -0.1941  0.0457 -0.1033
 4309W        W 4309  10.228   8.299   5.354  0.0905 -0.1012  0.0337
 4310W        W 4310   8.539   3.897   1.634  0.0291 -0.0893 -0.0956
 4311W        W 4311   7.277   3.051   5.338  0.0168 -0.0210 -0.0588
 4312W        W 4312   9.917   5.822   0.127 -0.2094 -0.0362 -0.2155
 4313W        W 4313   3.772   0.914   5.356  0.0335  0.1485 -0.1009
 4314W        W 4314   2.789   4.361   2.534 -0.0314 -0.2062 -0.1156
 4315W        W 4315   4.379   9.240   3.944 -0.2034  0.2613 -0.0889
 4316W        W 4316   0.312   4.141   6.127 -0.0776  0.1085  0.5063
 4317W        W 4317   2.465   7.724   9.385  0.0023 -0.0356 -0.1071
 4318W        W 4318   1.028   6.853   2.013 -0.1687  0.0869 -0.1150
 4319W        W 4319   8.823   0.153   4.240 -0.2590 -0.2216 -0.0369
 4320W        W 4320  10.034   8.096   4.468 -0.2212  0.0277 -0.2623
 4321W        W 4321   9.980   2.686   4.038  0.0309  0.1396  0.2316
 4322W        W 4322   5.807   4.470   0.456  0.1612 -0.2255  0.1356
 4323W        W 4323   0.798   8.515   9.805 -0.1075  0.2414  0.0834
 4324W        W 4324   6.149   4.695   1.225 -0.0843  0.1867  0.0575
 4325W        W 4325   1.205   1.463   6.890  0.3113 -0.2523 -0.1029
 4326W        W 4326   7.990   4.906   6.097 -0.2360  0.1886 -0.3583
 4327W        W 4327   3.998   5.184  10.265 -0.0326 -0.1298 -0.3754
 4328W        W 4328   5.755   0.017   7.504  0.1140 -0.0823  0.0220
 4329W        W 4329   8.001   1.973   2.896 -0.0916  0.3947 -0.0374
 4330W        W 4330  10.163  10.047   0.251 -0.0228 -0.3003  0.3562
 4331W        W 4331   6.322   3.322   5.354 -0.2582 -0.0172  0.0795
 4332W        W 4332   2.724   9.013   8.367 -0.1709 -0.3695 -0.1493
 4333W        W 4333   8.779   4.666   9.429  0.2143 -0.2609 -0.0057
 4334W        W 4334   7.237   6.406   7.389  0.0402 -0.1580 -0.1508
 4335W        W 4335   0.784   0.421  10.329 -0.0573 -0.4334 -0.0103
 4336W        W 4336   7.269   8.745   1.435 -0.2647  0.1202 -0.0405
 4337W        W 4337  10.258   9.370   1.987 -0.0487  0.1087  0.1289
 4338W        W 4338   2.935   1.244   5.500 -0.0580 -0.2085  0.0285
 4339W        W 4339   0.563   1.781   2.254 -0.3094  0.2643 -0.1938
 4340W        W 4340   4.573   6.394   6.275 -0.0905 -0.2219  0.1628
 4341W        W 4341   5.475   4.960   0.669  0.1543 -0.0412  0.0868
 4342W        W 4342   8.306   2.835  10.108 -0.1727 -0.4556 -0.0654
 4343W        W 4343   8.917   2.362   4.421 -0.1682 -0.0039 -0.3078
 4344W        W 4344   6.054   7.557   2.715  0.4810 -0.2366 -0.2018
 4345W        W 4345   6.994   8.541  10.019 -0.0826  0.1903 -0.1901
 4346W        W 4346   0.037   8.355   6.655  0.1709  0.1194  0.1615
 4347W        W 4347   9.798   5.197   6.660  0.2680 -0.3692 -0.0766
 4348W        W 4348   5.124   9.020   0.307  0.1771  0.3372 -0.2101
 4349W        W 4349   0.944   6.834   7.164  0.3502 -0.0591  0.1612
 4350W        W 4350   0.922   2.781   0.475 -0.2330 -0.1570 -0.0898
 4351W        W 4351   8.153   0.756   6.317 -0.1115 -0.0685  0.0221
 4352W        W 4352   5.308   6.995  10.007 -0.0741 -0.0384 -0.0763
 4353W        W 4353   0.507   3.413   4.579 -0.0902  0.0949  0.3868
 4354W        W 4354   7.312   2.571   7.607  0.0171  0.0142 -0.0658
 4355W        W 4355  10.184   3.919   6.203  0.1508 -0.1359  0.2313
 4356W        W 4356   6.544   5.963   4.076 -0.0497  0.1782  0.1804
 4357W        W 4357   3.304   6.362   2.841  0.0113 -0.2833  0.3875
 4358W        W 4358   0.538   9.456   8.464 -0.2038 -0.0697 -0.4067
 4359W        W 4359   6.502   8.073   2.046 -0.2209 -0.0854 -0.0905
 4360W        W 4360   3.779   9.458   2.675 -0.0217 -0.1838  0.1555
 4361W        W 4361   0.373   6.830   5.047 -0.0439 -0.1758  0.1997
 4362W        W 4362   0.919   8.803   7.314 -0.2732 -0.0825  0.2387
 4363W        W 4363   6.317   7.299   4.582  0.0616  0.2066  0.0972
 4364W        W 4364   7.162   5.995   1.496  0.1260 -0.2032  0.1694
 4365W        W 4365   0.739   1.776   3.084 -0.2087  0.1321 -0.1737
 4366W        W 4366   1.512   2.047   1.262 -0.2437 -0.1636 -0.2865
 4367W        W 4367   9.729   3.400   4.933 -0.0410  0.0671  0.0169
 4368W        W 4368   9.097   9.455   2.826 -0.1132  0.4970 -0.2770
 4369W        W 4369   5.096   4.041   7.552 -0.4205 -0.2442 -0.5334
 4370W        W 4370   8.230   4.477   6.247  0.0865 -0.0686 -0.2713
 4371W        W 4371   8.519  10.063   7.415  0.1529  0.1395  0.0151
 4372W        W 4372   0.770   2.113   1.230  0.2326 -0.0474 -0.0432
 4373W        W 4373   6.389   3.603   9.969 -0.2586  0.1381  0.1666
 4374W        W 4374   8.840   2.801   2.344  0.2376 -0.0604 -0.2335
 4375W        W 4375   3.111   3.985   2.297 -0.1405  0.2089 -0.2814
 4376W        W 4376   9.509   2.307   8.813 -0.1429  0.3471 -0.0917
 4377W        W 4377   9.356   5.919   1.907  0.0954  0.0595  0.1542
 4378W        W 4378   0.185   8.842   4.193  0.0925  0.2105  0.0862
 4379W        W 4379   8.113   0.213   2.801  0.1933 -0.0517 -0.1977
 4380W        W 4380   9.092   1.896   0.342 -0.1239  0.3968 -0.1418
 4381W        W 4381   5.801   9.626   2.995  0.1438  0.3098  0.0493
 4382W        W 4382   9.900   6.345   4.693  0.0821 -0.2637 -0.0555
 4383W        W 4383   7.286   9.956   5.376  0.3382  0.1886 -0.2957
 4384W        W 4384   9.021   9.433   0.181 -0.1700  0.0458 -0.0776
 4385W        W 4385  10.319   5.142   6.633  0.3031  0.3267  0.0604
 4386W        W 4386   2.861   1.861   7.303 -0.4456  0.2781  0.3518
 4387W        W 4387   0.631   2.703   3.711  0.2178  0.0120 -0.0867
 4388W        W 4388   2.637   6.099   1.117  0.1777 -0.3842  0.1865
 4389W        W 4389   3.573   5.471   5.395 -0.4399 -0.1040  0.0537
 4390W        W 4390   3.865   6.241   0.568 -0.2157  0.1750 -0.0305
 4391W        W 4391   7.247   3.880   1.365 -0.2852 -0.0636  0.0443
 4392W        W 4392   3.939   8.000   6.356  0.1041  0.3257 -0.0534
 4393W        W 4393   2.758   3.181   9.606  0.0420 -0.2370 -0.0291
 4394W        W 4394   7.026   1.056   2.905  0.0554 -0.1541 -0.0497
 4395W        W 4395   4.513   7.873   5.708  0.1006 -0.1390 -0.5443
 4396W        W 4396   6.512   0.247   0.813  0.1006 -0.1744  0.2750
 4397W        W 4397   1.298   5.474   6.396  0.0213 -0.0779 -0.2158
 4398W        W 4398   2.164   0.933   2.771 -0.2042  0.3073 -0.2986
 4399W        W 4399   0.627   2.642   0.058  0.0475  0.2335  0.0795
 4400W        W 4400   5.514   2.741   6.975 -0.1732  0.2539  0.4929
 4401W        W 4401   4.559   3.349   4.138  0.2568  0.0745 -0.2907
 4402W        W 4402   0.218   8.437   4.523 -0.0344  0.0152  0.2586
 4403W        W 4403   8.630   6.874   1.716 -0.1379  0.0786  0.1632
 4404W        W 4404  10.087   2.069   7.367  0.0642 -0.0571 -0.2862
 4405W        W 4405   3.159   5.763   5.735 -0.0708 -0.2462 -0.0332
 4406W        W 4406   9.823   9.974   5.007  0.1579 -0.0363 -0.5203
 4407W        W 4407   9.864   1.000   1.571  0.1573  0.0893 -0.3898
 4408W        W 4408   4.713   6.099   3.143 -0.1833 -0.1872  0.0612
 4409W        W 4409   9.046   6.093   0.436 -0.0777  0.0388  0.2710
 4410W        W 4410   5.783   2.619   4.055  0.0477 -0.0018  0.3097
 4411W        W 4411   7.434   8.908   3.665 -0.0314 -0.2177 -0.2137
 4412W        W 4412   3.243   5.328   1.655  0.2295  0.1878  0.0661
 4413W        W 4413   4.209   9.854   0.412 -0.1087  0.2170  0.1839
 4414W        W 4414   1.220   1.436   7.835  0.0902 -0.0204  0.2080
 4415W        W 4415   8.684   8.748  10.003 -0.4895  0.0703  0.3397
 4416W        W 4416   0.662   9.863   3.703 -0.0503 -0.1367 -0.0980
 4417W        W 4417   5.259   9.487   3.873 -0.1652 -0.2839 -0.5613
 4418W        W 4418   4.574   5.957   6.528  0.1774 -0.1042 -0.0562
 4419W        W 4419   6.221   9.782   1.258  0.3419  0.0284  0.0955
 4420W        W 4420   0.002   5.484   4.841  0.0722  0.0803 -0.1329
 4421W        W 4421   2.089   1.198   9.538  0.0757 -0.2831 -0.1985
 4422W        W 4422   6.669   3.856   0.071  0.1827  0.2508  0.0310
 4423W        W 4423   9.795   0.632   0.604  0.1975  0.0863  0.1175
 4424W        W 4424   5.269   6.320   4.233  0.1213  0.0552  0.1296
 4425W        W 4425   2.628   4.119   6.554  0.3073 -0.0271  0.2332
 4426W        W 4426   1.541   2.843   5.043  0.1188 -0.2931  0.3155
 4427W        W 4427   6.589   1.640   2.150  0.0515  0.2201 -0.1011
 4428W        W 4428   1.963   2.547   6.318  0.3925  0.0470 -0.1049
 4429W        W 4429   5.522   6.144   0.256 -0.0809 -0.0131  0.1942
 4430W        W 4430   8.968   6.374   1.944 -0.0535 -0.1695  0.2927
 4431W        W 4431   5.751   4.817   7.671  0.0205  0.1244 -0.1265
 4432W        W 4432   3.488   6.140   6.006  0.0473 -0.0273 -0.2356
 4433W        W 4433   6.977   2.506   1.713 -0.1075  0.1615  0.5200
 4434W        W 4434   6.255   1.969   7.051  0.0021  0.0381 -0.0921
 4435W        W 4435   2.456   5.992   3.740  0.0867  0.0654  0.2102
 4436W        W 4436   8.685   6.866   4.043 -0.1114  0.2731  0.1428
 4437W        W 4437   2.924   3.109  10.025 -0.0886  0.0391 -0.2091
 4438W        W 4438   3.263   9.110   1.058 -0.1389  0.0390 -0.0980
 4439W        W 4439   1.257   0.710   9.548 -0.4389  0.2078  0.2297
 4440W        W 4440   8.182   4.610   9.566 -0.0147 -0.1951 -0.0258
 4441W        W 4441   2.448   6.033   9.077 -0.1507  0.0048 -0.3246
 4442W        W 4442   5.977   5.894   7.953  0.0048  0.2102  0.0851
 4443W        W 4443   1.351   3.175   4.033 -0.0171  0.1708  0.3262
 4444W        W 4444   9.638   6.283   0.191 -0.0730  0.1680  0.2653
 4445W        W 4445   3.132   7.116   2.071  0.1996  0.0043 -0.0144
 4446W        W 4446   5.824   8.028   4.086  0.1164 -0.1829 -0.1957
 4447W        W 4447   6.224   3.142   1.602 -0.0518 -0.0225  0.1015
 4448W        W 4448   2.558   2.676   4.976  0.1309  0.0700 -0.2676
 4449W        W 4449   2.330  10.192   9.645  0.2331 -0.1843  0.1089
 4450W        W 4450   2.716   0.638   0.984  0.2053 -0.1323  0.2576
 4451W        W 4451   9.602   5.387   0.288  0.2620  0.0995 -0.1012
 4452W        W 4452   6.262   4.905   3.112  0.0622 -0.1393  0.2136
 4453W        W 4453   0.401   8.155   1.466 -0.2022  0.2664  0.0263
 4454W        W 4454   3.247   5.489   4.795 -0.0254 -0.0834 -0.0766
 4455W        W 4455   2.687   8.501   1.290  0.0475  0.2081 -0.1967
 4456W        W 4456   8.518   3.676   5.604 -0.1848 -0.0489  0.1791
 4457W        W 4457   1.327   4.019   1.551  0.0951 -0.0628  0.1048
 4458W        W 4458   5.390   7.250   3.290  0.0321 -0.2287  0.0193
 4459W        W 4459   9.571   4.970   2.699  0.2472  0.0238 -0.0041
 4460W        W 4460   2.205   9.228   8.267  0.0765  0.2054 -0.0346
 4461W        W 4461   4.616   8.173   6.194 -0.1470 -0.0123 -0.0547
 4462W        W 4462   4.824   8.838   7.766 -0.1128  0.0401 -0.2263
 4463W        W 4463   7.162   7.079   6.250  0.0734 -0.0699 -0.0932
 4464W        W 4464   7.438   1.602   8.088  0.0854 -0.1163  0.1660
 4465W        W 4465   0.626   4.136   9.200 -0.0296  0.1166 -0.1629
 4466W        W 4466   1.379   0.428   3.278  0.0690 -0.0480 -0.0316
 4467W        W 4467   4.747   5.934  10.075 -0.0286  0.1151  0.1887
 4468W        W 4468  10.286   3.184   1.656  0.1382  0.1144 -0.0383
 4469W        W 4469   2.775   9.941  10.019  0.0120 -0.2716  0.0058
 4470W        W 4470   9.216   1.373   6.957 -0.0375  0.2857  0.2344
 4471W        W 4471   3.563   4.570   5.987  0.0305  0.2315  0.3011
 4472W        W 4472   8.942   3.355   0.852 -0.1680 -0.3487 -0.0574
 4473W        W 4473   4.043   5.920   8.222 -0.0042  0.0014  0.0608
 4474W        W 4474   3.856   5.867   5.850 -0.0185 -0.2847  0.0051
 4475W        W 4475   6.529  10.183   7.893 -0.0357 -0.0672 -0.0175
 4476W        W 4476   8.287   4.814   2.031 -0.1719 -0.2458  0.2843
 4477W        W 4477   3.944   8.865  10.089  0.4833 -0.1275 -0.3569
 4478W        W 4478   0.748   4.307   7.152  0.1017 -0.1041 -0.0807
 4479W        W 4479   1.726   1.888   4.839  0.0451 -0.0096  0.1501
 4480W        W 4480   9.987   7.413   3.894 -0.1966  0.0171  0.0255
 4481W        W 4481   0.893   1.638   0.350 -0.2472  0.1123 -0.0202
 4482W        W 4482   1.227   4.677   7.584 -0.3452  0.1400  0.1242
 4483W        W 4483   0.627   1.769   7.459  0.2191 -0.1360 -0.2743
 4484W        W 4484   1.345   9.563   4.173 -0.1652  0.0719 -0.4117
 4485W        W 4485   4.071   7.191   4.324 -0.1838  0.0105  0.0379
 4486W        W 4486   3.948   6.851   9.366 -0.1320  0.1683 -0.0486
 4487W        W 4487   1.301   4.112   3.766 -0.0069  0.0555  0.0572
 4488W        W 4488   5.124   0.943   1.831  0.0076  0.0494  0.1008
 4489W        W 4489   4.820   9.581   6.398 -0.1722  0.0454 -0.1002
 4490W        W 4490   3.543   9.119   8.184  0.1775 -0.0914 -0.0133
 4491W        W 4491   7.252   6.111   2.743  0.1692 -0.1331 -0.1517
 4492W        W 4492   3.870   1.157   7.033  0.1232 -0.1518  0.1798
 4493W        W 4493   2.976   2.682   7.144  0.0527 -0.2678 -0.0065
 4494W        W 4494   9.522   9.185   5.208  0.1854 -0.0406 -0.0814
 4495W        W 4495   0.965   8.471   7.724 -0.0377 -0.0954 -0.0837
 4496W        W 4496   3.493   8.241   3.095  0.0701  0.0115 -0.1178
 4497W        W 4497   2.817   6.882   6.355  0.2248  0.1506 -0.0696
 4498W        W 4498   7.434   2.708   0.358 -0.1928 -0.0544 -0.2460
 4499W        W 4499   0.274   7.171   5.726  0.0689  0.5059  0.2389
 4500W        W 4500   6.233   5.383   0.727  0.2111  0.0411  0.1694
 4501W        W 4501   4.323   8.783   4.727  0.2935  0.0700  0.4597
 4502W        W 4502  10.265   7.097   7.282  0.0876  0.0884 -0.1478
 4503W        W 4503   5.403   6.996   8.889  0.0129  0.1554  0.1051
 4504W        W 4504   6.217   4.433   0.809  0.0991 -0.1750 -0.4605
 4505W        W 4505   4.372   9.238   4.543  0.0340 -0.0481  0.1906
 4506W        W 4506   1.552   0.039   3.566  0.0543 -0.1021 -0.0794
 4507W        W 4507   8.790   6.682   5.399 -0.1016  0.1255  0.3037
 4508W        W 4508   8.160   1.501   0.702  0.1643  0.1440  0.2112
 4509W        W 4509   7.059   4.537   3.645  0.3030  0.0802  0.3075
 4510W        W 4510   3.369   9.125   7.620  0.0243 -0.1314 -0.0623
 4511W        W 4511   3.874   5.689   9.247  0.1552  0.2596 -0.1099
 4512W        W 4512   8.964   4.970   5.850 -0.1193  0.0687 -0.2610
 4513W        W 4513   7.714   5.195   0.087 -0.0557 -0.2390  0.0517
 4514W        W 4514   8.330   5.827   6.953  0.0505  0.0617 -0.0078
 4515W        W 4515   9.456   0.059   9.440 -0.0249  0.3580  0.0837
 4516W        W 4516   8.734   3.877   0.732 -0.3090 -0.0447 -0.0092
 4517W        W 4517   1.652   7.852   6.792  0.1891  0.0588 -0.2489
 4518W        W 4518   8.879   2.717   5.257  0.0791  0.2202 -0.1625
 4519W        W 4519   0.610   1.812   4.707 -0.0713 -0.0177  0.0165
 4520W        W 4520   4.340   1.914   3.193  0.2805 -0.0216  0.1122
 4521W        W 4521   4.899   9.421   9.170  0.0858 -0.0966 -0.0673
 4522W        W 4522   2.089   6.129   5.553  0.4339  0.0163  0.0388
 4523W        W 4523   0.638   8.334   4.244  0.2345 -0.0219  0.0113
 4524W        W 4524   2.680   8.046   1.445 -0.0309  0.4427  0.1001
 4525W        W 4525   9.271   9.148   8.330 -0.0439 -0.0998  0.1195
 4526W        W 4526   5.906   0.853   2.723  0.0154 -0.1682 -0.0357
 4527W        W 4527   8.879   1.440   4.954  0.3702 -0.2493  0.4159
 4528W        W 4528   5.022   3.306   3.877 -0.0337  0.0374  0.1857
 4529W        W 4529   8.743   6.484   6.545  0.1861 -0.1371 -0.1412
 4530W        W 4530   2.689   7.337   1.636 -0.0048  0.1509 -0.1198
 4531W        W 4531   1.127   5.558   7.045  0.1696 -0.1179  0.0097
 4532W        W 4532   0.870   3.682   0.530 -0.1145  0.0514 -0.2598
 4533W        W 4533   8.290   7.486   6.919  0.0393  0.1877  0.1421
 4534W        W 4534   5.558   4.428   1.415 -0.0738  0.3456  0.2648
 4535W        W 4535   3.557   8.839   9.638  0.0338 -0.0456  0.1558
 4536W        W 4536   2.431   7.656   1.281 -0.1735 -0.0294  0.0070
 4537W        W 4537   0.267   1.443   7.887 -0.1509  0.1094 -0.0748
 4538W        W 4538   2.616   0.878   3.011 -0.1031  0.2098 -0.1030
 4539W        W 4539   5.557   0.133   1.319  0.0413 -0.0238 -0.1382
 4540W        W 4540   8.408   4.340   1.897 -0.1333  0.3966 -0.1872
 4541W        W 4541   4.716   4.608   3.518  0.1090  0.1487 -0.4347
 4542W        W 4542   8.310   3.371   6.090 -0.0147  0.1456  0.2176
 4543W        W 4543   7.864   6.464   0.543 -0.2548  0.0923 -0.0567
 4544W        W 4544   7.659   9.633   0.274 -0.1571  0.3231 -0.0176
 4545W        W 4545   2.185   3.860   9.523  0.0422  0.3224 -0.1048
 4546W        W 4546   1.312   3.215   9.057 -0.2136  0.2760  0.0889
 4547W        W 4547   8.687   2.857   9.669  0.2231  0.0460  0.0218
 4548W        W 4548   1.274   0.604   1.373 -0.2048  0.2417 -0.0101
 4549W        W 4549   9.590   1.896   0.718 -0.3267  0.0729  0.3806
 4550W        W 4550   8.033   4.120   4.432 -0.1055  0.1092 -0.0782
 4551W        W 4551   0.771   4.009   2.205  0.1270 -0.5522  0.1267
 4552W        W 4552   2.522   0.316   8.141 -0.6016  0.2945  0.2647
 4553W        W 4553   9.274   3.394   3.751  0.1559 -0.1771 -0.0360
 4554W        W 4554   8.859   5.558   9.401 -0.1165  0.0860 -0.1623
 4555W        W 4555   7.492   7.143   6.894  0.1006 -0.0373 -0.0278
 4556W        W 4556   1.349  10.337   6.176 -0.2667 -0.0205  0.1159
 4557W        W 4557   4.324   2.908   5.231 -0.5073  0.1937 -0.0771
 4558W        W 4558   4.017   2.246   4.282 -0.1644 -0.0529 -0.4241
 4559W        W 4559   0.388   5.395   7.376  0.0695 -0.0714 -0.0598
 4560W        W 4560   6.739   5.798   2.016  0.0039  0.2315 -0.0392
 4561W        W 4561   2.687   8.795   3.227  0.0987 -0.1558 -0.2530
 4562W        W 4562   2.711   3.366   3.834  0.0157  0.0419  0.1967
 4563W        W 4563   6.465   0.953   2.834 -0.0086 -0.0199 -0.3671
 4564W        W 4564   6.820   6.838   6.515 -0.0534 -0.1188 -0.0487
 4565W        W 4565   8.165   8.650   3.011 -0.1134  0.6130  0.0808
 4566W        W 4566   0.921   0.896   5.100  0.3023  0.1976  0.1182
 4567W        W 4567   9.413   8.248   5.062 -0.0955  0.1530 -0.1074
 4568W        W 4568   5.327   1.805   0.784 -0.1291 -0.0943  0.2883
 4569W        W 4569   3.970   4.370   7.173 -0.1392  0.1232  0.0415
 4570W        W 4570   7.110   4.817   8.852 -0.2067  0.0151 -0.1236
 4571W        W 4571   3.212   9.055   0.184  0.0465 -0.1132 -0.0418
 4572W        W 4572   4.481   0.679   2.346 -0.1452 -0.1443  0.0916
 4573W        W 4573   8.175   5.981   5.228  0.0379 -0.0828 -0.1454
 4574W        W 4574   4.967   8.480   0.992 -0.3130 -0.1407 -0.1060
 4575W        W 4575   3.612   8.329   8.463  0.0054 -0.0215 -0.1773
 4576W        W 4576  10.039   3.437   0.866 -0.0578  0.0635 -0.0960
 4577W        W 4577   9.153   2.319   6.120  0.0464 -0.0195 -0.3026
 4578W        W 4578   8.353   4.145   4.943  0.0734  0.1160  0.1463
 4579W        W 4579   4.850  10.206   4.265  0.1473 -0.2323  0.0305
 4580W        W 4580   9.944   4.044   2.316  0.1137 -0.3984  0.0159
 4581W        W 4581   9.458   4.245   1.497  0.2309 -0.2590  0.2211
 4582W        W 4582   3.628   3.723   3.867  0.3902 -0.0918  0.0544
 4583W        W 4583   9.118   8.963   5.561  0.3353  0.3567  0.0729
 4584W        W 4584   3.802   2.351   7.424 -0.1824  0.1824  0.2031
 4585W        W 4585   0.418   4.374   9.819 -0.2635  0.1379 -0.2260
 4586W        W 4586   6.059   6.956   7.799 -0.0198  0.1643 -0.1721
 4587W        W 4587   5.516   3.357   0.685 -0.4152  0.0097 -0.0229
 4588W        W 4588   4.045   1.293   2.934  0.0546  0.1356  0.3411
 4589W        W 4589   9.191   5.893   2.945  0.1158  0.0627  0.0457
 4590W        W 4590   7.051   7.718   7.941  0.1162 -0.1136  0.2491
 4591W        W 4591   0.406   4.841   1.199 -0.0464  0.2782 -0.4892
 4592W        W 4592   5.803   5.406   0.036  0.0673 -0.0665  0.0551
 4593W        W 4593   7.073   0.853   1.259  0.2264 -0.0011  0.1188
 4594W        W 4594  10.023  10.103   7.867  0.3230 -0.3095 -0.1212
 4595W        W 4595   8.969   7.711   8.361  0.1513  0.0269  0.3451
 4596W        W 4596   8.641   8.725   7.741  0.2174 -0.1237  0.3634
 4597W        W 4597   7.520   9.465  10.062  0.1990  0.1041 -0.1471
 4598W        W 4598   0.024   4.431   8.376  0.1528 -0.1057 -0.0984
 4599W        W 4599   8.214   2.123   0.649  0.2838  0.1425  0.0144
 4600W        W 4600   1.219   4.602   5.427 -0.1824 -0.0072  0.6435
 4601W        W 4601   6.831   7.347   1.503 -0.0594  0.1506 -0.0559
 4602W        W 4602   3.724   7.416   5.260  0.0199 -0.1038  0.0769
 4603W        W 4603   1.661   1.542   3.837  0.0031 -0.1276 -0.3050
 4604W        W 4604   8.921   3.300   6.280 -0.1150  0.2612  0.0411
 4605W        W 4605   2.163   2.220  10.238 -0.2894 -0.0370 -0.3585
 4606W        W 4606   1.331   2.062   1.998  0.1322  0.1348  0.1472
 4607W        W 4607   4.422   1.379   3.221 -0.0684 -0.2300 -0.2627
 4608W        W 4608   6.580   9.682   7.710 -0.2140  0.0014  0.0814
 4609W        W 4609   4.349   1.379  10.199  0.2101 -0.2141 -0.2023
 4610W        W 4610   2.928   1.845   4.702 -0.1015  0.0679  0.2625
 4611W        W 4611   8.194   5.023   1.544  0.2164 -0.1090  0.1121
 4612W        W 4612   8.489   8.053  10.167  0.3023  0.2041  0.1585
 4613W        W 4613   4.776   9.860   5.927  0.0183 -0.1589 -0.2818
 4614W        W 4614   3.931   5.845   2.176 -0.0451 -0.1245 -0.0744
 4615W        W 4615   7.848   6.796   6.751 -0.0298 -0.0420  0.1067
 4616W        W 4616   8.667   4.439   1.036 -0.4288 -0.3275  0.0986
 4617W        W 4617   0.020   8.723   3.693  0.0110 -0.2826  0.0622
 4618W        W 4618   4.647   0.834   7.337 -0.1079 -0.0965  0.0835
 4619W        W 4619   1.080   2.195   3.968 -0.1117 -0.1888 -0.3003
 4620W        W 4620   2.244   1.737   8.923 -0.0003 -0.1148  0.0042
 4621W        W 4621   8.581   0.056   9.615 -0.0988  0.0326 -0.2839
 4622W        W 4622   1.910   4.874   8.236  0.2749 -0.0180  0.0271
 4623W        W 4623   4.903   4.890   1.774  0.1378  0.0796 -0.0881
 4624W        W 4624   6.258   3.251   7.045  0.1172  0.2290 -0.1885
 4625W        W 4625   6.610   7.667   2.611  0.1552  0.1752 -0.0624
 4626W        W 4626   7.902   2.623   1.080 -0.0043 -0.0490  0.2391
 4627W        W 4627   4.298  10.310  10.245 -0.0688  0.0612 -0.0072
 4628W        W 4628   3.559   5.773   1.154 -0.0016 -0.0367  0.2240
 4629W        W 4629   9.956   9.547   5.846 -0.2070  0.3990 -0.1391
 4630W        W 4630   2.435   5.764   7.840  0.3433  0.0295 -0.0894
 4631W        W 4631   6.997   3.745   5.709 -0.2725  0.2162  0.1131
 4632W        W 4632   5.835   6.775   9.326 -0.1343 -0.1127 -0.1252
 4633W        W 4633   3.146   6.397   9.720  0.0326 -0.0379  0.2726
 4634W        W 4634  10.129   4.441   4.934 -0.1159 -0.0642  0.1339
 4635W        W 4635   9.463   6.079   8.164  0.0299  0.1709 -0.3131
 4636W        W 4636   4.870   6.280   2.259  0.0227  0.0585  0.0211
 4637W        W 4637   5.890   0.437   2.446 -0.0272 -0.2398  0.0013
 4638W        W 4638   7.410   5.323   6.852  0.1279 -0.1792  0.1140
 4639W        W 4639   3.257   0.337   7.418 -0.1117 -0.0479 -0.0895
 4640W        W 4640   0.877   8.268   7.248 -0.0433  0.1319 -0.1065
 4641W        W 4641   4.778   0.988   9.630 -0.0088  0.0506  0.2414
 4642W        W 4642  10.016   1.046   9.602  0.0624 -0.1379 -0.1565
 4643W        W 4643   1.195  10.086   2.164  0.0008 -0.1463 -0.0421
 4644W        W 4644   6.806   9.701   9.103  0.3518 -0.3123  0.0221
 4645W        W 4645   7.541   6.241   2.328 -0.0186  0.1160  0.2208
 4646W        W 4646   2.044   1.714   3.512  0.0597  0.1771 -0.0634
 4647W        W 4647   8.359   3.199   0.178  0.0508 -0.1293 -0.5119
 4648W        W 4648   9.256   1.542   0.753  0.1322  0.0359 -0.1109
 4649W        W 4649   6.740   6.782   2.190 -0.1185 -0.0137 -0.1425
 4650W        W 4650   3.463  10.303   6.638  0.2974 -0.0713  0.5146
 4651W        W 4651   4.905   7.103   9.344  0.2174 -0.1190  0.1657
 4652W        W 4652   2.260   7.728   2.792  0.0414 -0.1662  0.0807
 4653W        W 4653   7.575   4.228   9.240 -0.0440  0.2239 -0.0609
 4654W        W 4654   9.715   7.103   7.348 -0.0176 -0.1039  0.3082
 4655W        W 4655   5.093   5.132   8.111 -0.1235  0.4313  0.3324
 4656W        W 4656   9.497   4.170  10.251 -0.0438  0.0082  0.0269
 4657W        W 4657   1.397  10.288   9.235 -0.1276  0.1417 -0.0104
 4658W        W 4658   6.472   9.431   6.931 -0.0201 -0.3753 -0.0524
 4659W        W 4659   7.772   5.194   9.824 -0.0820 -0.0720  0.0535
 4660W        W 4660   6.268   0.008   7.423 -0.1323 -0.1077 -0.0297
 4661W        W 4661   0.037   4.389   3.967  0.4717  0.0610  0.1623
 4662W        W 4662   3.269  10.041   5.307 -0.3969  0.1225 -0.2830
 4663W        W 4663   7.315   1.148   2.462  0.1250  0.0159 -0.1074
 4664W        W 4664   1.123   0.302   1.714 -0.1064 -0.0129 -0.1231
 4665W        W 4665   3.319   5.047   8.619 -0.3564 -0.3186 -0.1257
 4666W        W 4666   5.242   9.051   2.649 -0.0213 -0.1303 -0.2177
 4667W        W 4667   4.773   2.116   9.668 -0.2095 -0.1584  0.2390
 4668W        W 4668   8.942   0.490   1.695 -0.0180 -0.0065 -0.1345
 4669W        W 4669   5.016   3.484   7.812 -0.2417 -0.0111  0.2871
 4670W        W 4670   5.182   8.545   4.400 -0.1376 -0.2500  0.1233
 4671W        W 4671   3.999   5.326   6.915  0.1352  0.0435  0.0169
 4672W        W 4672   7.858   8.303   6.368 -0.1336 -0.1242  0.1109
 4673W        W 4673   6.729   2.383   9.430  0.1416 -0.1906 -0.1745
 4674W        W 4674   6.688   1.690   4.605 -0.0542 -0.0955  0.2951
 4675W        W 4675   2.248   3.387   4.406  0.0096  0.0640  0.2337
 4676W        W 4676   8.859   9.394   5.704 -0.2469  0.0741 -0.4261
 4677W        W 4677   3.772   8.867   1.809 -0.1727  0.2590  0.0124
 4678W        W 4678   2.192   8.125   7.223  0.0025 -0.1521  0.0094
 4679W        W 4679   9.264   2.504   1.226 -0.0366  0.0346 -0.0583
 4680W        W 4680   9.338   6.689   5.807 -0.1925  0.3478  0.1805
 4681W        W 4681   3.040   7.434   3.138  0.0039  0.0796  0.4446
 4682W        W 4682   7.752   9.872   5.613 -0.2616 -0.0473 -0.1298
 4683W        W 4683   4.385   9.852   3.757 -0.3429  0.0556 -0.0724
 4684W        W 4684   4.601   2.748   0.183 -0.0424  0.0271 -0.1337
 4685W        W 4685   9.235   2.200   2.245 -0.0834  0.2163  0.2746
 4686W        W 4686   1.737   0.520   3.734 -0.3784 -0.1973  0.0063
 4687W        W 4687   9.562   9.890   7.109 -0.0516 -0.1337  0.0202
 4688W        W 4688   4.743   5.269   2.865 -0.0549 -0.2099  0.5118
 4689W        W 4689   3.864   1.548  10.002  0.0795  0.2249  0.3166
 4690W        W 4690   4.800   2.360   3.669  0.0024  0.0326  0.1194
 4691W        W 4691   4.682   9.077   5.421  0.2001  0.2792  0.0005
 4692W        W 4692   3.399   1.966   5.673 -0.4678  0.3281  0.2702
 4693W        W 4693   4.084   2.956   7.262 -0.2804 -0.1843  0.1837
 4694W        W 4694   5.628   9.525   6.636 -0.0179 -0.0535  0.2468
 4695W        W 4695   1.764   7.028   1.177  0.1311  0.3371  0.2401
 4696W        W 4696   7.147   7.714   3.492  0.0801  0.1239 -0.0298
 4697W        W 4697   7.334  10.251   8.688  0.1875  0.3169  0.3315
 4698W        W 4698   9.666   1.593   4.347 -0.1453 -0.0717 -0.3147
 4699W        W 4699   6.744   7.204   8.803  0.3029  0.0166  0.1869
 4700W        W 4700   9.992   2.419   6.313  0.1870 -0.0631 -0.1913
 4701W        W 4701   0.195   7.639   3.333  0.1951  0.0831 -0.0544
 4702W        W 4702   4.535   7.504   8.016 -0.0772  0.1950 -0.0996
 4703W        W 4703   9.160   2.289  10.115 -0.1515 -0.2098 -0.2185
 4704W        W 4704   3.420   1.395   5.569  0.0649  0.2204  0.0569
 4705W        W 4705   7.106   0.721   3.334 -0.0993 -0.1146 -0.1107
 4706W        W 4706   1.017   0.463   7.280 -0.1216 -0.1674  0.0901
 4707W        W 4707   6.184   8.320   7.908 -0.1383  0.1060  0.1513
 4708W        W 4708   8.485   9.798   0.748  0.3442  0.1675  0.1774
 4709W        W 4709   8.893   1.344   6.124 -0.2699  0.2445  0.4538
 4710W        W 4710  10.102   1.904   2.029 -0.1502  0.2147 -0.0382
 4711W        W 4711   1.550   1.998   3.639  0.0973 -0.2137 -0.1749
 4712W        W 4712   9.594   6.513   7.478 -0.1736 -0.4756  0.1523
 4713W        W 4713   0.333   6.037   8.058  0.1210  0.3372  0.1827
 4714W        W 4714   7.126   1.874   1.343  0.0769  0.1001  0.3198
 4715W        W 4715   8.923   3.471   6.786  0.0914  0.0183 -0.1962
 4716W        W 4716  10.137   6.214   7.317  0.1877 -0.0150  0.1310
 4717W        W 4717   6.826   8.835   1.062 -0.7340  0.0234 -0.1004
 4718W        W 4718   5.636   8.888   3.408  0.0642  0.2422  0.0786
 4719W        W 4719   2.028   6.890   6.736 -0.2835  0.1768  0.2400
 4720W        W 4720   8.271   8.576  10.326 -0.0017  0.1873 -0.1381
 4721W        W 4721   1.010   7.678   8.596  0.0891 -0.2373  0.2686
 4722W        W 4722   7.924   2.055   1.798 -0.1418 -0.2510  0.2796
 4723W        W 4723   1.317   2.536   0.304  0.0649  0.4001 -0.2693
 4724W        W 4724   0.721  10.290   0.332  0.1493  0.0600  0.1043
 4725W        W 4725   5.933   6.740   8.607 -0.0274  0.0677 -0.3253
 4726W        W 4726   5.958   3.207   8.844  0.0678  0.1258  0.1117
 4727W        W 4727   7.431   5.466   5.451 -0.0383  0.4682  0.2243
 4728W        W 4728   0.565   7.524   8.807 -0.0026 -0.0082 -0.1196
 4729W        W 4729   3.650   5.980   0.126 -0.0068 -0.0509  0.0217
 4730W        W 4730   7.197   7.057   5.755  0.1544 -0.0980  0.0676
 4731W        W 4731   7.690   9.578   2.750  0.2587  0.0083 -0.2179
 4732W        W 4732   8.470   8.398   4.993 -0.1166  0.2584 -0.0339
 4733W        W 4733   9.907   7.165   2.839 -0.1244  0.2498  0.0745
 4734W        W 4734   4.222   8.375   4.436 -0.3540 -0.1043 -0.0383
 4735W        W 4735   8.317   5.778   8.295 -0.1128  0.1057 -0.1672
 4736W        W 4736   0.756   6.960  10.093  0.3377  0.2180 -0.0098
 4737W        W 4737  10.102   7.403   1.554 -0.1011  0.1017  0.1020
 4738W        W 4738   7.931   8.749   3.502  0.0019 -0.3046  0.1849
 4739W        W 4739   4.514   5.896   7.877  0.0051 -0.1214 -0.0305
 4740W        W 4740   2.755   4.376   3.075  0.1832 -0.2271  0.1986
 4741W        W 4741   7.450   9.222   1.461  0.2048  0.3270  0.1162
 4742W        W 4742   2.867   0.279   1.271 -0.0920  0.2746 -0.0050
 4743W        W 4743   0.742   9.046   8.733 -0.1115 -0.0808 -0.2467
 4744W        W 4744   1.565   5.974   9.022 -0.2474 -0.1407  0.0141
 4745W        W 4745   3.554   1.216   6.267  0.0844  0.4015  0.0393
 4746W        W 4746   9.361   7.975   6.392  0.1879  0.1121  0.0527
 4747W        W 4747   5.824   6.914   1.552 -0.0854 -0.2681  0.1360
 4748W        W 4748   8.764   8.605   6.696  0.1037  0.0526  0.0839
 4749W        W 4749  10.131   6.376   8.751  0.1088 -0.0923  0.1777
 4750W        W 4750   3.741   6.341   5.195  0.1691  0.0561 -0.2588
 4751W        W 4751   4.090   6.905   0.128 -0.0607  0.1460 -0.0738
 4752W        W 4752   0.467   9.326   9.018  0.0443  0.0178  0.1603
 4753W        W 4753   5.156   9.050   3.606 -0.0698  0.2736 -0.0810
 4754W        W 4754   2.709   9.492   8.196 -0.0410  0.0733  0.0036
 4755W        W 4755   5.497   6.060   1.130 -0.4055  0.1640 -0.0925
 4756W        W 4756   6.032   7.228   3.187 -0.0673 -0.2139 -0.0850
 4757W        W 4757   8.535   3.594   5.035  0.0174 -0.0576 -0.0917
 4758W        W 4758   9.827   5.230   4.042 -0.0192 -0.1543  0.4690
 4759W        W 4759   6.172   8.606   0.339 -0.1664 -0.0263  0.0628
 4760W        W 4760   4.655  10.312   1.712 -0.2472 -0.1690 -0.0050
 4761W        W 4761   3.476   2.161   1.964 -0.1894 -0.1017  0.0295
 4762W        W 4762   7.537   7.099   1.037  0.1989 -0.0228  0.3277
 4763W        W 4763   2.282   4.619  10.215  0.0160  0.0546 -0.3438
 4764W        W 4764   0.340   4.927   4.501 -0.2733  0.0467  0.0613
 4765W        W 4765   2.641   2.835   0.064 -0.2705 -0.2401 -0.1776
 4766W        W 4766   4.768   3.353   3.059 -0.1349  0.0131 -0.1477
 4767W        W 4767   1.379   8.296   1.159  0.2835  0.0902  0.0259
 4768W        W 4768   4.282   1.999   9.424  0.1746  0.2080 -0.0897
 4769W        W 4769   3.761   7.688   2.430 -0.2529  0.2522  0.2369
 4770W        W 4770   7.257   3.791   9.149 -0.2229 -0.1533 -0.0366
 4771W        W 4771   9.563   9.786   1.482 -0.0083  0.1887  0.3044
 4772W        W 4772   4.136   5.908   0.252  0.2305 -0.4551 -0.0260
 4773W        W 4773   8.994   3.810   1.186 -0.0134 -0.2277  0.0929
 4774W        W 4774   1.263   1.781   5.639  0.0117  0.1530  0.0967
 4775W        W 4775   7.590   6.986  10.023 -0.1824 -0.1414 -0.1232
 4776W        W 4776   9.708   7.911   6.048  0.0559 -0.0161  0.0249
 4777W        W 4777   8.384   7.555   7.787  0.3265  0.0148 -0.2803
 4778W        W 4778   3.078   1.274   3.446  0.2800 -0.0889 -0.0617
 4779W        W 4779   0.591   9.251   0.791 -0.1487  0.2192  0.2856
 4780W        W 4780   7.933   2.571   1.720  0.0292 -0.1086 -0.0086
 4781W        W 4781   3.418   0.557   9.168 -0.1201  0.1703  0.0255
 4782W        W 4782   6.960   9.608   6.782  0.0496  0.0317 -0.1221
 4783W        W 4783   7.596   8.855   3.001  0.1977  0.1204  0.1799
 4784W        W 4784   2.496   1.078   0.826 -0.2752 -0.0874 -0.1980
 4785W        W 4785   1.812   4.016   8.702 -0.2770  0.0703 -0.0191
 4786W        W 4786   7.722   0.199   7.182  0.2496 -0.1331  0.1090
 4787W        W 4787   0.855   5.814   6.288 -0.2480  0.0090 -0.3550
 4788W        W 4788   6.840   5.866   9.157  0.0184  0.0416 -0.0883
 4789W        W 4789   6.126   1.953   3.102  0.3829  0.0347  0.0620
 4790W        W 4790   5.259   3.160   6.201 -0.1759  0.1405  0.2347
 4791W        W 4791   1.893   8.421   5.047 -0.1868 -0.0025  0.0141
 4792W        W 4792   4.734   2.050   8.208 -0.3394 -0.1197  0.0780
 4793W        W 4793   1.409   9.313   2.619 -0.2313  0.0951  0.1797
 4794W        W 4794  10.228   0.595   7.994 -0.2103 -0.1139 -0.0590
 4795W        W 4795   1.479   7.597  10.273  0.1718  0.0508  0.1292
 4796W        W 4796   1.608   7.693   1.688 -0.0490 -0.3131 -0.0657
 4797W        W 4797   9.353   3.231   2.348  0.0717 -0.2775  0.1554
 4798W        W 4798   1.881   3.361   8.237 -0.3465  0.0209 -0.2952
 4799W        W 4799   4.315   8.872   1.694  0.4180  0.1763  0.1448
 4800W        W 4800   3.768   8.396   9.635  0.2000  0.0821  0.3634
 4801W        W 4801   3.231   7.880   5.486  0.0463 -0.1533  0.0380
 4802W        W 4802   3.339   6.477   5.480 -0.5511  0.3469 -0.0764
 4803W        W 4803   4.465   5.814   5.494  0.0098  0.3463  0.0067
 4804W        W 4804   6.633   9.326   2.464 -0.0220  0.1251  0.0031
 4805W        W 4805   7.782   8.532   7.786  0.0212  0.1956 -0.1227
 4806W        W 4806   7.475   9.992   2.688  0.0696  0.1873  0.2126
 4807W        W 4807   1.239   0.141   5.587 -0.0793 -0.2043 -0.2106
 4808W        W 4808   0.253   7.985   4.323 -0.2300  0.1269  0.3678
 4809W        W 4809   7.930   4.536   0.081 -0.0118 -0.2948 -0.0359
 4810W        W 4810   5.143   5.709   4.888 -0.2681 -0.1234 -0.3255
 4811W        W 4811   0.576   8.088  10.096 -0.1547  0.2896  0.0770
 4812W        W 4812   0.635   9.718   9.404  0.1863 -0.2222  0.1580
 4813W        W 4813   6.076   1.559   2.033  0.1266 -0.0895  0.0816
 4814W        W 4814   8.431   0.022   7.904 -0.0295 -0.2312 -0.2543
 4815W        W 4815   9.447   0.051   8.450 -0.0904  0.0867  0.3687
 4816W        W 4816   7.555   3.609   2.324  0.1822 -0.2760 -0.2026
 4817W        W 4817   7.882   5.916   5.668  0.2384  0.0161  0.1404
 4818W        W 4818   1.923   7.206   0.070  0.0866  0.1448 -0.0139
 4819W        W 4819   5.616   2.155   4.155  0.2915 -0.0585  0.3121
 4820W        W 4820   6.757   2.082   7.042 -0.3280  0.3474 -0.2451
 4821W        W 4821   0.986   1.492   0.939  0.0954  0.2866  0.0331
 4822W        W 4822   2.340   3.845   5.187 -0.2565  0.0554  0.1917
 4823W        W 4823   0.157   5.753   1.970  0.1048 -0.1485 -0.1995
 4824W        W 4824   1.608   5.675   7.839 -0.0517 -0.1126 -0.1430
 4825W        W 4825   0.352   3.018   0.349  0.0002 -0.2780 -0.1882
 4826W        W 4826   2.864   7.310   9.272  0.1799  0.1302 -0.0128
 4827W        W 4827   3.346   5.588   9.196 -0.0205  0.2614 -0.2704
 4828W        W 4828   0.218   4.364   4.516 -0.2111  0.0298 -0.1559
 4829W        W 4829  10.049   0.927   6.142 -0.0430 -0.1795 -0.1119
 4830W        W 4830   6.492   3.685   8.022  0.3328  0.3272 -0.0631
 4831W        W 4831   4.025   8.844   5.601  0.0298  0.1049  0.2217
 4832W        W 4832   6.560   8.750   5.580 -0.2191  0.1733 -0.0025
 4833W        W 4833   3.774   3.926   9.628 -0.0397 -0.1188 -0.0313
 4834W        W 4834   0.929   7.216   6.788  0.2492  0.1602 -0.0601
 4835W        W 4835   8.113   4.603   3.803  0.2753  0.0159 -0.0771
 4836W        W 4836   2.404   4.714   1.286  0.0357 -0.0586  0.0377
 4837W        W 4837   4.899   3.895   8.208 -0.2644 -0.2037  0.0608
 4838W        W 4838   0.536   9.831   1.718  0.3174  0.1624  0.2872
 4839W        W 4839   8.226   6.024   1.461 -0.0826 -0.3718 -0.3378
 4840W        W 4840   9.891   2.600   5.537  0.0622  0.2306  0.1064
 4841W        W 4841   9.809  10.223   9.739 -0.0210 -0.1799  0.1200
 4842W        W 4842   4.229   1.686   0.264  0.0068 -0.0151  0.1463
 4843W        W 4843   8.487   3.631   7.513  0.2908  0.1458 -0.1174
 4844W        W 4844   5.704   5.596   5.996 -0.0079  0.3448  0.0538
 4845W        W 4845   7.816   0.327   3.812  0.0640  0.0490 -0.0980
 4846W        W 4846   0.622   2.711   5.746 -0.1643 -0.1742 -0.0277
 4847W        W 4847   7.958  10.308   5.621 -0.0605  0.2814  0.0711
 4848W        W 4848   5.503   3.568   6.488 -0.2593  0.0379  0.1822
 4849W        W 4849   3.538   1.706   5.225 -0.3999 -0.0873 -0.3641
 4850W        W 4850   0.642   5.234   3.768 -0.0322  0.3108 -0.1204
 4851W        W 4851   5.882   2.415   7.383 -0.2039  0.0913  0.0849
 4852W        W 4852   8.966   1.261   1.653 -0.1216  0.0909  0.2670
 4853W        W 4853   1.116   3.346   6.695  0.0840 -0.0410  0.3218
 4854W        W 4854   0.217   2.098   9.896 -0.2259 -0.0437  0.0446
 4855W        W 4855   1.842   6.481   9.025 -0.2687  0.4584 -0.2644
 4856W        W 4856   6.972   6.291   6.885 -0.0035 -0.1756  0.0343
 4857W        W 4857   3.470   5.034   6.110 -0.1610  0.1452 -0.0334
 4858W        W 4858   9.023   8.262   2.470 -0.0816  0.0881 -0.0922
 4859W        W 4859   0.952   2.503   9.585 -0.3198  0.0841 -0.1448
 4860W        W 4860   4.425   3.796   1.316 -0.0510 -0.0592  0.0924
 4861W        W 4861   1.937   2.215   8.720 -0.1139  0.0300 -0.0405
 4862W        W 4862   4.924   6.564   7.206  0.4533 -0.1114 -0.1836
 4863W        W 4863   6.533   0.253   5.556 -0.0890  0.1977 -0.2123
 4864W        W 4864   8.633   3.985   6.465 -0.0610 -0.1841 -0.3335
 4865W        W 4865   7.195   5.376   2.596  0.1079  0.0713  0.0640
 4866W        W 4866  10.194   2.280   3.823 -0.3442 -0.2127  0.1031
 4867W        W 4867   4.160   1.670   4.888 -0.2544 -0.0092 -0.1314
 4868W        W 4868   7.583   4.900   1.295  0.0034 -0.2285  0.0822
 4869W        W 4869   8.986   6.170   5.722  0.0720  0.0195 -0.1839
 4870W        W 4870   8.427   5.378   2.608 -0.0529 -0.0849 -0.1230
 4871W        W 4871   1.712   0.026   8.882  0.3139 -0.1201  0.0240
 4872W        W 4872   1.285   6.793   4.263  0.1074  0.2077  0.0871
 4873W        W 4873   5.324   8.737   9.888  0.0365  0.0281 -0.0286
 4874W        W 4874   1.091   3.657   5.800  0.1611 -0.0140  0.0506
 4875W        W 4875   7.354   7.762   7.283 -0.0958 -0.0133 -0.0202
 4876W        W 4876   5.499  10.186   5.458  0.0007 -0.2386  0.1156
 4877W        W 4877   4.928   3.437   7.307  0.0456  0.3333  0.0803
 4878W        W 4878   5.203   2.030   3.552  0.1522  0.3109 -0.0565
 4879W        W 4879   6.829   8.390   1.360 -0.1614 -0.4602 -0.1423
 4880W        W 4880   1.978   2.173   3.273  0.0517  0.0667 -0.2003
 4881W        W 4881   8.110   8.671   4.049  0.1630 -0.0244 -0.2242
 4882W        W 4882   4.385   5.520   9.316 -0.0002  0.0588 -0.0739
 4883W        W 4883   4.683   3.784   6.710  0.2325 -0.2580 -0.0281
 4884W        W 4884   1.966   4.966   5.905 -0.0771  0.2070  0.0157
 4885W        W 4885   7.851   4.249   4.912  0.0030  0.0690 -0.0526
 4886W        W 4886   3.046   2.413   0.170 -0.2454 -0.0431 -0.0069
 4887W        W 4887   7.795   4.862   2.106 -0.3102  0.1461 -0.0252
 4888W        W 4888  10.116   8.098   8.898  0.1097 -0.0740 -0.3268
 4889W        W 4889   9.214   7.035   5.078 -0.0297 -0.1565  0.1367
 4890W        W 4890   6.609   2.002   0.716  0.2819  0.1922 -0.0403
 4891W        W 4891   0.841   7.021   9.591 -0.0357 -0.1087 -0.2806
 4892W        W 4892   9.925   0.497   1.406  0.3270  0.1832 -0.0196
 4893W        W 4893   6.655   1.251   4.976  0.1095  0.1059  0.1306
 4894W        W 4894   3.455   4.858   3.111 -0.2301  0.2691  0.0503
 4895W        W 4895   2.655   7.911   5.372 -0.2629 -0.1467 -0.1646
 4896W        W 4896   4.854   0.364   2.639 -0.0090  0.1995 -0.4011
 4897W        W 4897   3.895   7.070   5.953  0.0477 -0.2121 -0.0757
 4898W        W 4898   5.845   7.892   5.955 -0.3346 -0.0308  0.1993
 4899W        W 4899   2.436   6.421   0.178 -0.2016  0.1436 -0.1901
 4900W        W 4900   0.247   1.934   2.888 -0.0916  0.2141  0.1287
 4901W        W 4901   4.872   7.127   3.309 -0.0444  0.1952  0.2033
 4902W        W 4902   0.716   0.233   0.893 -0.0242  0.1347 -0.0585
 4903W        W 4903   2.773   7.529   6.886  0.1173  0.1782 -0.0066
 4904W        W 4904   4.574   8.720   2.216  0.2143  0.2529 -0.5007
 4905W        W 4905   4.534   7.851   4.378 -0.0235  0.2909  0.0244
 4906W        W 4906   8.379   1.484   7.881  0.1100  0.1225  0.1268
 4907W        W 4907   4.785   2.129   7.013  0.1091 -0.1664  0.1227
 4908W        W 4908   1.310   5.578   5.909 -0.1897 -0.2322 -0.1975
 4909W        W 4909  10.038   2.563   9.306 -0.0305 -0.1887 -0.1603
 4910W        W 4910   2.032   9.749   5.725 -0.3309  0.1466 -0.2131
 4911W        W 4911   1.705   6.284   7.386 -0.2608 -0.1012 -0.1811
 4912W        W 4912   4.143   6.871   7.229  0.1181 -0.0784  0.0176
 4913W        W 4913   0.699   2.117   2.770  0.1119 -0.0769  0.0891
 4914W        W 4914   0.299   1.195   4.463 -0.0660 -0.0157  0.2317
 4915W        W 4915  10.332   3.198   2.144  0.1830  0.1237 -0.0442
 4916W        W 4916   8.479   7.261   4.113 -0.1004  0.0017  0.1090
 4917W        W 4917   7.446   9.516   9.588 -0.1004 -0.0138  0.1060
 4918W        W 4918   0.418   7.586   0.494  0.2850 -0.0886  0.3332
 4919W        W 4919   2.017   0.866   5.304  0.0489 -0.1537  0.1495
 4920W        W 4920   1.062  10.207   0.707  0.0320 -0.0891  0.0659
 4921W        W 4921   9.919   8.203   4.935  0.1352  0.0515  0.0005
 4922W        W 4922   3.147   9.146   5.930 -0.2530 -0.3229 -0.0766
 4923W        W 4923   7.538   6.854   9.457 -0.1554  0.1496  0.4002
 4924W        W 4924   4.926   0.762   2.988  0.1072  0.1177 -0.1205
 4925W        W 4925   1.971   7.481   2.029 -0.0331 -0.2179  0.0757
 4926W        W 4926   3.002   3.626   1.701  0.1366 -0.0028 -0.5397
 4927W        W 4927   8.378   2.007   9.994  0.0552 -0.2240  0.1721
 4928W        W 4928   3.944   6.931   8.504 -0.3696  0.0915 -0.0147
 4929W        W 4929   4.766   8.323   6.741 -0.2342  0.0761  0.3606
 4930W        W 4930   6.539   6.443   1.407 -0.0386 -0.2706 -0.0721
 4931W        W 4931   7.621   6.498   8.221  0.1111 -0.1592  0.0623
 4932W        W 4932   8.271   8.636   2.186  0.0788 -0.3280 -0.1014
 4933W        W 4933   9.120   5.696   5.376 -0.1730 -0.1226 -0.0234
 4934W        W 4934   2.894   3.997   9.360 -0.0460  0.0810  0.1430
 4935W        W 4935   2.225   3.858   2.070  0.0173 -0.0352  0.0374
 4936W        W 4936   1.475   3.470   1.771  0.0873 -0.1153  0.3889
 4937W        W 4937   7.928   9.212   8.302 -0.4652 -0.1315 -0.1620
 4938W        W 4938  10.211   0.456   4.892 -0.2787 -0.2178 -0.4532
 4939W        W 4939   2.938   2.961   3.886 -0.1154  0.4370 -0.3479
 4940W        W 4940   6.885   9.366   0.224  0.2904 -0.1099  0.1401
 4941W        W 4941   1.537   4.082   2.818 -0.2224  0.1285 -0.2938
 4942W        W 4942   4.049   0.171   9.874 -0.2765 -0.0322 -0.1790
 4943W        W 4943  10.184   1.925   5.658 -0.0177  0.0274 -0.1349
 4944W        W 4944   2.988   7.148   5.901  0.0969 -0.2136 -0.1326
 4945W        W 4945   4.872   5.653   1.533 -0.3069  0.1787  0.1798
 4946W        W 4946   1.469   6.338  10.253 -0.1037  0.1706  0.1709
 4947W        W 4947   0.970   7.424   1.190  0.0361 -0.1508 -0.0333
 4948W        W 4948   3.911   1.964   6.488  0.0896 -0.0777  0.1224
 4949W        W 4949   1.874   2.159   1.614  0.0561  0.0045  0.1058
 4950W        W 4950   5.489   1.605   1.227  0.2600  0.0731  0.0375
 4951W        W 4951   5.238   1.338   5.550  0.0248 -0.2467  0.1701
 4952W        W 4952   5.062   9.203   2.174  0.2203  0.1707  0.2216
 4953W        W 4953   6.885   3.786   3.218 -0.1543  0.1268  0.0582
 4954W        W 4954   8.439   2.610   0.895 -0.1966  0.1557  0.2155
 4955W        W 4955   8.782   2.350   1.230  0.2539  0.1553  0.0286
 4956W        W 4956   9.496   9.525   9.840 -0.4333 -0.0996  0.2055
 4957W        W 4957   8.738   7.565   5.126 -0.1039 -0.1129 -0.1108
 4958W        W 4958   2.305   7.112   4.949 -0.2079  0.2091 -0.2083
 4959W        W 4959   3.737   9.096   0.214  0.0003 -0.1942 -0.1915
 4960W        W 4960   0.166   1.616   4.641 -0.1702 -0.2095 -0.0091
 4961W        W 4961   3.984   2.977   1.983  0.2554  0.2649  0.0643
 4962W        W 4962   9.186   5.917   9.549  0.0179 -0.1205 -0.0910
 4963W        W 4963   3.239   1.377   8.702 -0.2257  0.1492  0.1371
 4964W        W 4964   2.556   8.810   6.788 -0.0190 -0.1288  0.2499
 4965W        W 4965   2.902   8.675   8.814 -0.0125 -0.0671  0.1955
 4966W        W 4966   6.352   7.429   0.501  0.1660  0.0157  0.0304
 4967W        W 4967   9.008   0.819   1.332  0.0706  0.0328 -0.0231
 4968W        W 4968   3.571   8.705   7.536 -0.1588  0.4943 -0.0377
 4969W        W 4969   4.865   0.259   3.884 -0.2061 -0.0041 -0.2025
 4970W        W 4970   2.068   5.296   8.388 -0.0530  0.5437  0.0922
 4971W        W 4971   0.297   0.306   3.501 -0.0187 -0.3141 -0.4018
 4972W        W 4972   5.138   3.890   6.587 -0.0513  0.0929 -0.2698
 4973W        W 4973   6.876   1.421   2.581 -0.0453  0.2682  0.0526
 4974W        W 4974   4.796   9.491   3.663  0.0493  0.1352  0.0855
 4975W        W 4975   7.713   6.560   2.605 -0.1096 -0.0475 -0.2953
 4976W        W 4976   5.374   4.376   5.925 -0.0031  0.0337 -0.0179
 4977W        W 4977   2.370   1.871   8.003 -0.1107  0.1434 -0.1498
 4978W        W 4978   3.592   7.874   4.938 -0.3973  0.1428  0.0177
 4979W        W 4979   9.977   9.125   2.913  0.1237 -0.0804 -0.2296
 4980W        W 4980   7.146   8.216   1.688 -0.1436 -0.1380  0.0749
 4981W        W 4981   9.386   7.342   7.027  0.0279  0.0703  0.2423
 4982W        W 4982   4.226   4.877   2.131  0.0576  0.1381  0.1413
 4983W        W 4983   3.173   0.478   6.474 -0.4240  0.4995  0.1739
 4984W        W 4984   6.209   4.425   3.001  0.1340 -0.3876 -0.0820
 4985W        W 4985   5.270   6.759   3.384 -0.0264  0.1200  0.0508
 4986W        W 4986   8.065   5.666   4.887  0.1433  0.1680  0.2038
 4987W        W 4987   9.337   0.993   6.049 -0.0197  0.6523 -0.0109
 4988W        W 4988   7.011   9.909   2.350 -0.1235  0.1913 -0.0219
 4989W        W 4989   6.864   8.671   0.514 -0.3223  0.0368  0.2744
 4990W        W 4990   5.226   4.223   1.133  0.2423  0.0478  0.1075
 4991W        W 4991   2.973   7.846   9.006  0.1656 -0.1260  0.1979
 4992W        W 4992   3.811   3.701   5.127 -0.0863  0.0122  0.0994
 4993W        W 4993   2.622   5.802   2.371 -0.0409 -0.0663  0.3646
 4994W        W 4994   0.740   4.929   0.258 -0.1905 -0.2111  0.2914
 4995W        W 4995   9.957   7.727   1.174 -0.2662 -0.2415 -0.2631
 4996W        W 4996   6.656   8.625   2.292 -0.1912 -0.1792 -0.0393
 4997W        W 4997   2.871   2.050   6.480 -0.0712  0.1209  0.1121
 4998W        W 4998   9.756   7.038   6.829 -0.3815 -0.2186  0.2275
 4999W        W 4999   9.482   4.677   1.036 -0.0538  0.2244 -0.0259
 5000W        W 5000   7.108   2.145   0.580 -0.4600  0.0022 -0.1822
 5001W        W 5001   8.446   4.645   0.102 -0.0518  0.2810 -0.1559
 5002W        W 5002   4.148   6.786   6.756 -0.1768 -0.1213 -0.1816
 5003W        W 5003   5.843   2.831   0.723 -0.0670 -0.0535 -0.2126
 5004W        W 5004   1.544   2.329   0.838 -0.1271  0.0343  0.0963
 5005W        W 5005   5.416   8.119   4.684 -0.1569  0.0227 -0.1452
 5006W        W 5006   4.686   0.923   1.533  0.0457 -0.2440 -0.2121
 5007W        W 5007   1.801   6.851   4.128  0.3848  0.0368  0.0567
 5008W        W 5008   4.267   1.767   4.406 -0.2950 -0.2710 -0.1124
 5009W        W 5009   8.985   6.086   1.189  0.0578 -0.0677  0.5154
 5010W        W 5010   5.449   7.191   0.642 -0.3157  0.0552 -0.0291
 5011W        W 5011   5.378   9.074   8.294  0.0375  0.3344  0.2867
 5012W        W 5012   5.230   5.566   8.396 -0.0250 -0.1766  0.2753
 5013W        W 5013   4.792   4.631   6.080  0.0079  0.0189 -0.1358
 5014W        W 5014   9.033   7.073   6.696  0.0170 -0.0300 -0.2476
 5015W        W 5015   7.101   4.300   0.012 -0.1212 -0.1942  0.1451
 5016W        W 5016  10.282   7.549   4.401 -0.0311  0.0789 -0.0002
 5017W        W 5017   0.248   5.032   7.060  0.1506 -0.2577 -0.0417
 5018W        W 5018   6.080   6.260   0.174  0.3002  0.0214  0.4272
 5019W        W 5019   7.911   9.318   2.082 -0.1209 -0.0444  0.1012
 5020W        W 5020   2.547   4.806   5.071 -0.0621 -0.0313 -0.1850
 5021W        W 5021   4.203   8.909   8.852  0.2841  0.4135 -0.2484
 5022W        W 5022   5.642   7.836   2.587 -0.1833  0.0062 -0.1745
 5023W        W 5023   6.490   9.867   6.768  0.2392  0.0763 -0.0720
 5024W        W 5024   8.257   2.470   9.725 -0.2587  0.0845 -0.0870
 5025W        W 5025   0.331   4.511   0.798  0.0053  0.3735 -0.0091
 5026W        W 5026   1.874   1.252   6.474  0.1863  0.0825  0.3151
 5027W        W 5027   0.810   7.940   5.529  0.1290  0.0130 -0.2222
 5028W        W 5028   2.927   2.224   1.260  0.2883  0.0272 -0.0462
 5029W        W 5029   8.375   2.605   1.405  0.2032  0.1318 -0.3294
 5030W        W 5030   6.091   2.437   1.799 -0.0319  0.2223  0.0596
 5031W        W 5031   9.409   9.896   9.487  0.0015 -0.0972  0.1539
 5032W        W 5032   6.684   5.811   8.646  0.1256  0.1314 -0.4055
 5033W        W 5033   4.465   6.715   8.477  0.0615  0.3595  0.1385
 5034W        W 5034   2.193   0.040   4.758  0.3050  0.0273  0.2749
 5035W        W 5035   9.537   4.693   6.488 -0.0023  0.1813  0.0218
 5036W        W 5036  10.258   9.461   0.301  0.2564  0.1289  0.1434
 5037W        W 5037   9.409   4.414   6.869  0.0308  0.1159  0.0423
 5038W        W 5038   0.705   0.576   2.329 -0.1224 -0.0399 -0.1780
 5039W        W 5039   4.091   4.714  10.124 -0.0112  0.2330 -0.0667
 5040W        W 5040   7.364   9.495   5.633 -0.0846 -0.1523 -0.0284
 5041W        W 5041   4.199   2.712   0.468 -0.1628 -0.0740  0.0522
 5042W        W 5042   4.294   4.259   9.995 -0.0565  0.0788  0.1183
 5043W        W 5043   4.539   4.372   8.792 -0.0896 -0.4370  0.0072
 5044W        W 5044   6.286   4.632   9.790 -0.2117  0.1810  0.0207
 5045W        W 5045   3.458   6.980   3.688 -0.0097  0.0005 -0.0160
 5046W        W 5046   0.975   2.956   8.773  0.1625  0.4271  0.0923
 5047W        W 5047   7.223   4.024   2.341 -0.0589  0.0920 -0.1255
 5048W        W 5048   4.542   4.936   7.978 -0.1147 -0.0471 -0.0193
 5049W        W 5049   2.170   9.069   6.913  0.2384 -0.1054  0.0405
 5050W        W 5050   4.890   4.736   9.324 -0.0951  0.1969 -0.2060
 5051W        W 5051   2.297   4.643   3.913  0.1411 -0.0358 -0.0033
 5052W        W 5052   2.143   6.768   1.035  0.0622 -0.2686  0.2378
 5053W        W 5053   4.205   8.485   6.411  0.0349  0.3076 -0.2502
 5054W        W 5054   2.647   2.813   6.405  0.1356 -0.0068 -0.3984
 5055W        W 5055   7.509   8.920   1.024  0.2343  0.4286  0.3415
 5056W        W 5056   5.392   1.216   0.303  0.5259  0.3818 -0.0159
 5057W        W 5057   4.689   3.131   9.653  0.1440  0.0371  0.3462
 5058W        W 5058   2.214   5.638   5.579 -0.0802  0.0106  0.1233
 5059W        W 5059   6.828   5.295   4.708 -0.0503 -0.0989 -0.0034
 5060W        W 5060   6.901   2.012   8.600 -0.0778 -0.0212  0.0871
 5061W        W 5061   3.848   8.608   0.154 -0.0658  0.1091  0.6669
 5062W        W 5062   3.834   3.602   3.383 -0.1691  0.0497  0.0202
 5063W        W 5063   1.529   2.552   1.748 -0.3158 -0.4817 -0.2632
 5064W        W 5064   1.438   8.151   4.808 -0.1042  0.1048 -0.1966
 5065W        W 5065   5.336   6.406   6.120  0.0025  0.0860 -0.0392
 5066W        W 5066   9.438   0.082   6.524 -0.1231 -0.1713  0.0059
 5067W        W 5067   3.726   6.324   3.324  0.2120  0.0630  0.0222
 5068W        W 5068   9.126   0.781   2.119  0.2355 -0.0926 -0.1046
 5069W        W 5069   2.772   8.029  10.282  0.2304  0.0084 -0.0272
 5070W        W 5070   3.494   0.401   3.732  0.2225  0.3372  0.0396
 5071W        W 5071   7.106   6.869   0.033  0.0245  0.0489  0.0572
 5072W        W 5072   3.976   8.950   2.736 -0.0972  0.0668  0.0382
 5073W        W 5073   2.720   6.760   0.472  0.0744 -0.0352 -0.2929
 5074W        W 5074   0.634   9.412   3.868  0.2724 -0.2358  0.2483
 5075W        W 5075   2.536   0.017   5.215  0.1250  0.0935  0.1164
 5076W        W 5076   9.928   0.537   4.477 -0.0135 -0.0727 -0.0894
 5077W        W 5077   0.586   2.561   1.262  0.2460 -0.0164 -0.1600
 5078W        W 5078   0.498   2.209   3.206  0.0898 -0.1012  0.2643
 5079W        W 5079   3.209   0.050   6.177 -0.0581 -0.2450  0.1572
 5080W        W 5080   4.232   3.754   9.840  0.0753  0.0039  0.1083
 5081W        W 5081   4.512   0.134   6.567 -0.1523  0.1314  0.1718
 5082W        W 5082   8.365   2.561   4.263  0.1333  0.0721  0.0261
 5083W        W 5083   7.989   6.265   7.181 -0.0660  0.1651 -0.0774
 5084W        W 5084   1.587   0.999   3.451 -0.2210 -0.1233  0.0138
 5085W        W 5085   8.292   8.011   3.410 -0.3083  0.0620 -0.1790
 5086W        W 5086   5.134   7.632   8.156 -0.0907 -0.3819  0.0528
 5087W        W 5087   3.935   2.870   3.084  0.0634  0.0569 -0.2064
 5088W        W 5088   7.664   7.816   1.184  0.2060  0.0355 -0.1790
 5089W        W 5089   9.188   7.735   0.968  0.1215 -0.0160 -0.1956
 5090W        W 5090   5.042   2.497   1.072 -0.3886 -0.1008  0.1580
 5091W        W 5091   9.631   3.883   1.914 -0.1160 -0.2136 -0.2453
 5092W        W 5092   0.832   0.383   8.853  0.0063  0.0385 -0.1179
 5093W        W 5093   7.295   7.728   8.633 -0.0149  0.1036 -0.3226
 5094W        W 5094   5.671   2.864   8.527 -0.0872  0.1185 -0.2141
 5095W        W 5095   3.672   7.558   9.008  0.0607 -0.3347  0.1277
 5096W        W 5096   2.756   9.845   5.233  0.2429  0.0068 -0.2925
 5097W        W 5097   1.830   9.030   5.811  0.0201 -0.0292  0.0503
 5098W        W 5098   2.289   4.391   8.243 -0.0778  0.2222  0.0557
 5099W        W 5099   3.794   2.599   3.487  0.0001  0.2035 -0.1084
 5100W        W 5100   9.902   6.336   8.213 -0.0780  0.2442 -0.2341
 5101W        W 5101   2.714   5.437   5.562 -0.0953 -0.3971 -0.1635
 5102W        W 5102   9.904   3.577   2.450 -0.2176 -0.2808 -0.2456
 5103W        W 5103   0.279   0.054   3.099 -0.1913  0.0328 -0.0293
 5104W        W 5104   6.464   4.522   4.489  0.1846 -0.0248  0.1647
 5105W        W 5105   7.975   1.402   4.484 -0.2074  0.2954  0.1766
 5106W        W 5106   0.363   9.083   3.398  0.0542 -0.1255  0.3255
 5107W        W 5107   0.316   4.593   9.368 -0.1376 -0.3143  0.3560
 5108W        W 5108   4.886   6.814   3.726 -0.2138  0.0661  0.3315
 5109W        W 5109   3.678   8.141   1.112  0.0441  0.1165  0.2023
 5110W        W 5110   8.257   8.740   5.390 -0.2325 -0.0505  0.1408
 5111W        W 5111   7.587   1.681   1.569  0.0146 -0.0297  0.0066
 5112W        W 5112   1.586   5.856   6.292 -0.2280  0.3409  0.0036
 5113W        W 5113   1.667   7.188   9.122 -0.1937 -0.1667  0.0395
 5114W        W 5114   8.396   7.411   4.682  0.3062  0.0556 -0.1893
 5115W        W 5115   5.252   7.524   6.417  0.1842 -0.0740 -0.0115
 5116W        W 5116   5.778   6.029   6.948  0.2956  0.2524  0.2497
 5117W        W 5117   1.640   4.666   8.637 -0.2938 -0.2705 -0.1204
 5118W        W 5118   5.053   7.942   7.632  0.0821  0.0852 -0.0984
 5119W        W 5119   7.411   3.978   0.855 -0.0725  0.0827  0.1497
 5120W        W 5120   4.995   2.574   4.655  0.4311 -0.1770 -0.1775
 5121W        W 5121   3.927   1.567   5.534  0.0295 -0.1521 -0.0637
 5122W        W 5122   0.816   2.258   3.564  0.2739 -0.0613  0.2883
 5123W        W 5123   4.580   6.202   5.723  0.3873  0.1215  0.1994
 5124W        W 5124   2.658   4.119   3.572 -0.4029  0.2320 -0.0506
 5125W        W 5125   4.758   0.548   1.831  0.2104  0.1851 -0.1120
 5126W        W 5126   0.501   6.535   3.782  0.1386  0.0984 -0.3544
 5127W        W 5127   6.403   5.488   1.278 -0.0875 -0.2042  0.5450
 5128W        W 5128   9.566   9.815   5.727  0.3956  0.0737  0.0301
 5129W        W 5129   4.494   7.412   1.946  0.1442 -0.3362 -0.3970
 5130W        W 5130   4.691   9.636   1.168  0.1983 -0.1711  0.0667
 5131W        W 5131   9.147   6.829   1.765  0.0007  0.1276  0.0152
 5132W        W 5132   1.223   6.747   9.991  0.3618 -0.0766  0.1937
 5133W        W 5133   1.517   0.224   7.309  0.0271 -0.0923  0.0383
 5134W        W 5134   1.777   8.352   6.991 -0.0371 -0.0188  0.1789
 5135W        W 5135   5.158   3.760   2.841 -0.3080  0.0896 -0.1891
 5136W        W 5136   8.723   9.786   8.623 -0.0545  0.0657 -0.2658
 5137W        W 5137   1.975   5.881   7.088  0.0261  0.0375 -0.0146
 5138W        W 5138   5.353   9.996   5.030  0.2232 -0.2103  0.2026
 5139W        W 5139   1.070   4.702   7.038  0.0286 -0.1512 -0.0392
 5140W        W 5140  10.048   6.845   3.359 -0.1595 -0.1331 -0.0403
 5141W        W 5141   3.284   1.142   7.686 -0.2505  0.0431 -0.2561
 5142W        W 5142   8.554   8.789   0.897 -0.2765 -0.1556 -0.0081
 5143W        W 5143   6.124   1.947   0.431 -0.0356  0.0436  0.0447
 5144W        W 5144   8.457   6.499   8.569  0.2663 -0.0773 -0.2292
 5145W        W 5145   3.543  10.088   1.734  0.0414 -0.1016 -0.0104
 5146W        W 5146   1.591   1.460   4.626 -0.0755  0.1336 -0.0115
 5147W        W 5147   5.781   7.925   5.104 -0.1713 -0.1315 -0.0231
 5148W        W 5148   5.527   3.986   5.765  0.1932  0.0656  0.1887
 5149W        W 5149   2.057   9.743   3.116 -0.0935 -0.0752 -0.0347
 5150W        W 5150   1.835   0.559   7.560  0.2699 -0.0382 -0.2339
 5151W        W 5151   5.268   2.964   7.761 -0.0139  0.0816  0.3716
 5152W        W 5152   2.040   8.174   6.622 -0.0275 -0.1225 -0.1246
 5153W        W 5153   2.517   2.344   0.529 -0.0460 -0.6264  0.0053
 5154W        W 5154   1.332   4.649   6.570 -0.0909  0.0239  0.2168
 5155W        W 5155   0.391   5.678   3.898  0.1822 -0.3123  0.0117
 5156W        W 5156   1.814   5.691   0.029 -0.0001 -0.0460 -0.0537
 5157W        W 5157   3.665   4.034   0.695 -0.1788 -0.4472 -0.0931
 5158W        W 5158   8.124   5.986   8.711  0.0102 -0.1249 -0.2848
 5159W        W 5159   1.084   1.968   7.716  0.0961  0.0062 -0.1319
 5160W        W 5160  10.015   4.778   1.020 -0.0031 -0.2217  0.3076
 5161W        W 5161   6.730   9.136   5.253 -0.1440 -0.0689  0.1159
 5162W        W 5162   4.172   3.881   9.305 -0.0398 -0.2234  0.3521
 5163W        W 5163   7.725   2.062   8.072  0.0967 -0.3441  0.1761
 5164W        W 5164   9.430  10.139   5.367  0.0451  0.0656  0.0342
 5165W        W 5165   3.098   7.765   5.004  0.0062  0.0633  0.3656
 5166W        W 5166   5.171  10.048   2.726 -0.3385  0.0853  0.3140
 5167W        W 5167   3.464   4.669   4.794  0.0753 -0.0334 -0.2825
 5168W        W 5168   8.140   9.801   0.408  0.4032  0.1217  0.0208
 5169W        W 5169   7.749   6.357   7.745 -0.1407  0.2389 -0.1001
 5170W        W 5170   7.741   7.779   2.327 -0.0812 -0.1691  0.2870
 5171W        W 5171   6.303   4.631   6.284 -0.0049 -0.2742  0.2520
 5172W        W 5172   5.828   4.355   7.952 -0.0797 -0.0636  0.0138
 5173W        W 5173   2.390   9.263   7.806 -0.0589  0.1014 -0.1250
 5174W        W 5174   6.033   0.753   1.049  0.1022  0.1764 -0.0255
 5175W        W 5175   6.161   3.571   8.564 -0.1380 -0.1446  0.2479
 5176W        W 5176   8.454   2.594   9.214 -0.1323 -0.0271 -0.4121
 5177W        W 5177   0.783   8.600   3.386 -0.2567 -0.0501 -0.0848
 5178W        W 5178   8.360   3.376   1.901 -0.0929 -0.0350 -0.0860
 5179W        W 5179   1.025   5.999   6.720  0.0423  0.1726  0.0110
 5180W        W 5180   7.798   3.786   1.217 -0.2145  0.1931  0.0079
 5181W        W 5181   1.028   9.811   3.161 -0.2060  0.1301  0.0070
 5182W        W 5182   5.621   8.505   6.374 -0.2373  0.2045  0.1136
 5183W        W 5183   5.265   0.204   2.868 -0.1763  0.0037  0.1424
 5184W        W 5184   7.078   7.648   0.393  0.2593 -0.2581 -0.1822
 5185W        W 5185   9.607   3.095   1.510  0.2789  0.1777  0.0356
 5186W        W 5186   5.931   8.988   6.205  0.1096 -0.2689 -0.0778
 5187W        W 5187   1.948   3.157   4.808  0.1207  0.0438  0.3202
 5188W        W 5188   5.206   0.257   1.006  0.0285 -0.2415 -0.2879
 5189W        W 5189   5.153   4.294   1.690  0.2562  0.1553 -0.0263
 5190W        W 5190   6.954   0.785   4.771  0.1537  0.0528  0.1959
 5191W        W 5191   5.345   2.689   1.435  0.0641 -0.1442  0.0054
 5192W        W 5192  10.306   4.621   6.865  0.0650 -0.2990  0.1661
 5193W        W 5193   8.322   1.626   3.259 -0.3104 -0.3360 -0.1056
 5194W        W 5194   8.053   2.383  10.157  0.0154 -0.0217  0.0546
 5195W        W 5195   6.533   1.486   2.898  0.2694  0.0339 -0.3640
 5196W        W 5196   4.929   3.454   1.920 -0.0677  0.0747  0.0667
 5197W        W 5197   0.544   2.221   9.477 -0.1787 -0.0256  0.0065
 5198W        W 5198   1.140   4.299   4.584  0.1118 -0.0024 -0.2590
 5199W        W 5199   7.243   7.787   4.569  0.0027 -0.3014  0.2945
 5200W        W 5200   8.669   5.484   4.573  0.0507  0.3958  0.1385
 5201W        W 5201   9.183   3.744   5.074 -0.0247 -0.4025 -0.0882
 5202W        W 5202   7.031   8.272   3.418 -0.1189 -0.1847 -0.0689
 5203W        W 5203   4.768   8.155   5.325 -0.3084 -0.4702 -0.0545
 5204W        W 5204   1.985  10.099   6.959 -0.1485  0.2493  0.0988
 5205W        W 5205   0.767   7.765   4.534 -0.2687 -0.5552  0.1613
 5206W        W 5206   5.208   4.803   5.363  0.1923 -0.1380  0.2575
 5207W        W 5207   6.543   7.605   7.555 -0.1042  0.0910  0.0879
 5208W        W 5208   2.656   3.549   3.392  0.0940  0.0781  0.1855
 5209W        W 5209   9.014   6.172   4.684  0.0017  0.0266 -0.2105
 5210W        W 5210   9.905   1.309   9.138  0.2312 -0.0521  0.4337
 5211W        W 5211   6.652   6.860   9.585 -0.1536 -0.0326  0.1229
 5212W        W 5212   2.399   4.937   4.614 -0.0653  0.2579 -0.3062
 5213W        W 5213   5.171   1.661   0.334 -0.3357 -0.2372 -0.1851
 5214W        W 5214   9.820   0.086   4.648 -0.1687  0.1882 -0.0335
 5215W        W 5215   0.032   8.135   7.625  0.2252  0.2027  0.1317
 5216W        W 5216   8.552   7.061   5.052 -0.1316 -0.0638 -0.0605
 5217W        W 5217   1.462   3.845   1.095 -0.1866 -0.1525 -0.0638
 5218W        W 5218   0.469   7.995   2.459  0.0913 -0.0592 -0.0556
 5219W        W 5219   4.623   6.356   2.667  0.0660 -0.1325 -0.0348
 5220W        W 5220   2.442   6.207   2.012 -0.2976 -0.2065  0.0043
 5221W        W 5221   9.568   0.601   2.379  0.1983  0.0575 -0.0107
 5222W        W 5222   4.981   8.090   4.357 -0.0617  0.4035 -0.1218
 5223W        W 5223   9.585   6.736   2.629  0.5248 -0.1216 -0.2921
 5224W        W 5224   0.410   2.750   9.430 -0.0215  0.1222 -0.0174
 5225W        W 5225   4.757   4.043   4.855  0.1045 -0.2287  0.5290
 5226W        W 5226   3.572   3.696   8.904  0.0598  0.0096 -0.1499
 5227W        W 5227   1.743   2.785   5.543 -0.1658  0.1352  0.2824
 5228W        W 5228   8.576   2.296   7.045  0.0136  0.0616  0.1411
 5229W        W 5229   1.512   0.915   6.164 -0.2234 -0.3625 -0.3898
 5230W        W 5230   9.264   8.284   2.967  0.3687  0.2328  0.1185
 5231W        W 5231   8.277   6.810   5.972 -0.4517  0.0639 -0.0714
 5232W        W 5232   6.257   0.333   3.748 -0.0110  0.1995  0.1232
 5233W        W 5233   5.411   5.307   4.606 -0.4736  0.0853  0.2390
 5234W        W 5234   8.893   6.498   1.425 -0.2984  0.2475 -0.2614
 5235W        W 5235   0.646   7.432   8.317 -0.2401  0.2725  0.1922
 5236W        W 5236   6.543   7.231   9.280 -0.1922 -0.2174 -0.1725
 5237W        W 5237   2.626   8.475  10.098  0.1068  0.0518 -0.1674
 5238W        W 5238   6.566   0.743   3.672  0.3236 -0.1420 -0.3828
 5239W        W 5239   2.373   9.933   1.717  0.2045  0.1525 -0.0505
 5240W        W 5240   0.561   8.356   2.093  0.0039 -0.1209 -0.1510
 5241W        W 5241  10.031   8.497   7.911  0.0043  0.3211 -0.2183
 5242W        W 5242   7.478   0.100   2.961  0.2670  0.0486 -0.1524
 5243W        W 5243   6.686   6.208   7.256  0.1210 -0.3937  0.0349
 5244W        W 5244   7.757   6.468   3.943  0.1253  0.2555 -0.2745
 5245W        W 5245   9.104   9.945   8.972 -0.0901  0.5345  0.2340
 5246W        W 5246   0.976   2.353  10.038 -0.3456 -0.0201  0.0091
 5247W        W 5247   6.158   8.453   2.186  0.1433  0.1149  0.0740
 5248W        W 5248   2.712   2.811   5.472  0.2969 -0.2357  0.0457
 5249W        W 5249   7.965   5.081   8.996  0.1388 -0.3741 -0.0588
 5250W        W 5250   5.058   1.079   6.126  0.0024 -0.0006 -0.1493
 5251W        W 5251   7.343   3.028   4.703 -0.1437 -0.1156  0.1756
 5252W        W 5252   9.972   3.507   1.468  0.0835  0.0881 -0.2209
 5253W        W 5253   3.200   7.761  10.037 -0.2377  0.0590  0.0392
 5254W        W 5254   7.006   6.171   0.079  0.1359  0.0300 -0.0236
 5255W        W 5255   5.055   9.025   4.574  0.0824 -0.1263 -0.1159
 5256W        W 5256   9.703   7.049   5.283  0.1753 -0.2995 -0.3072
 5257W        W 5257   1.645   9.191   9.924  0.1488  0.1994  0.2508
 5258W        W 5258   1.751   5.204   2.249 -0.0317  0.2107 -0.1634
 5259W        W 5259   9.406   0.424   5.229  0.0555  0.0747 -0.1311
 5260W        W 5260   0.917   1.460  10.056  0.1700 -0.0982 -0.1287
 5261W        W 5261   0.868   9.826   0.455 -0.1569  0.0791  0.2105
 5262W        W 5262   0.595   0.533   5.213 -0.2525 -0.1619 -0.2331
 5263W        W 5263   9.461   6.652   3.608 -0.3192 -0.0421  0.0447
 5264W        W 5264   0.915   7.522   9.649  0.0129 -0.3181  0.0307
 5265W        W 5265   6.373   7.815   7.079 -0.1243  0.4049  0.3268
 5266W        W 5266   2.069   1.212   3.684 -0.0705  0.0467 -0.2835
 5267W        W 5267   5.057   5.751   7.090 -0.1557 -0.1910 -0.2814
 5268W        W 5268  10.002   0.841   4.046  0.0401  0.1877 -0.0520
 5269W        W 5269   3.210   7.854   7.377 -0.0562 -0.0148 -0.2375
 5270W        W 5270   9.454   2.242   0.278 -0.2786  0.1109 -0.4176
 5271W        W 5271   3.727   4.364   9.989  0.3309 -0.1219 -0.0418
 5272W        W 5272   5.506   7.450   6.862 -0.2762 -0.0471 -0.0154
 5273W        W 5273   3.919   4.631   3.035  0.5436 -0.0356 -0.0671
 5274W        W 5274   0.497   1.681   6.900  0.0406  0.1237  0.1797
 5275W        W 5275   9.649   8.084   9.747  0.0811  0.0056 -0.0049
 5276W        W 5276   8.719   5.253   3.680  0.0591  0.1927  0.0140
 5277W        W 5277   7.035   7.369   5.392 -0.1273 -0.0126  0.3838
 5278W        W 5278   5.722   3.611   5.977  0.0523  0.2587  0.0109
 5279W        W 5279   4.141   2.142   2.564 -0.0545  0.1024  0.0654
 5280W        W 5280   0.323   9.298   6.545  0.0885  0.4550  0.1052
 5281W        W 5281   8.936   9.268   6.234 -0.0151  0.3525 -0.0104
 5282W        W 5282   1.582   7.758   0.726  0.1742 -0.0483  0.0152
 5283W        W 5283   3.557   7.116   8.138  0.2289 -0.1427  0.1233
 5284W        W 5284   1.786   4.474   6.360  0.0964 -0.0496 -0.0559
 5285W        W 5285   3.788  10.288   0.315  0.0941  0.0936  0.0926
 5286W        W 5286   1.482   3.090  10.116  0.0482  0.1103  0.2039
 5287W        W 5287   0.809   4.488   9.500 -0.3266  0.0748 -0.0923
 5288W        W 5288   5.101   0.252   5.132  0.1635 -0.0857  0.5506
 5289W        W 5289   3.881   4.106   7.609 -0.3053 -0.1156  0.1340
 5290W        W 5290   2.200   5.587   1.498 -0.1164 -0.1352  0.1556
 5291W        W 5291   7.626   3.405   7.506  0.1019  0.2936  0.0296
 5292W        W 5292   1.114   8.071  10.232 -0.2495  0.2120 -0.2142
 5293W        W 5293   0.909   1.563   6.468 -0.1047  0.4486 -0.1107
 5294W        W 5294   0.516   9.067   2.572 -0.0671 -0.4195 -0.2224
 5295W        W 5295   7.453   7.936  10.330  0.2400 -0.2859 -0.1197
 5296W        W 5296   4.567   2.920   5.859 -0.2304  0.2013  0.0823
 5297W        W 5297   9.413   2.790   8.580  0.0102  0.3200 -0.3465
 5298W        W 5298   2.466   9.707   2.754 -0.1681  0.1697 -0.1235
 5299W        W 5299   0.495   7.527   0.979  0.0227 -0.1250  0.0017
 5300W        W 5300   7.889   7.149   9.152  0.3780 -0.4174  0.2635
 5301W        W 5301   4.771   3.393   1.361  0.0502 -0.0268  0.0324
 5302W        W 5302   9.444   3.383   5.346 -0.0327 -0.0270 -0.1324
 5303W        W 5303   0.813   9.035   9.788 -0.1833 -0.2896  0.0579
 5304W        W 5304   0.880   2.242   7.258  0.0046  0.2456  0.2547
 5305W        W 5305   9.269   7.337   7.596 -0.1149  0.0034  0.1208
 5306W        W 5306   3.481   6.321   4.314  0.2318  0.0502 -0.1860
 5307W        W 5307   7.974   7.424   0.678 -0.0796 -0.0451  0.0200
 5308W        W 5308   0.432   5.079   0.794 -0.0077 -0.0481  0.0766
 5309W        W 5309   1.311   0.295   6.851  0.3268  0.0372 -0.0180
 5310W        W 5310   4.991   5.646   6.388  0.1842  0.0871  0.0271
 5311W        W 5311   0.470   3.434   8.190  0.0618  0.1879  0.0534
 5312W        W 5312   6.964   2.760   4.945  0.2086 -0.0039 -0.0338
 5313W        W 5313   9.281   7.354   8.110  0.2304 -0.1054  0.0418
 5314W        W 5314   6.055   1.355   2.825  0.0555 -0.0913 -0.0784
 5315W        W 5315   0.993   0.850   3.641 -0.1130 -0.1809  0.1358
 5316W        W 5316   2.671   1.571   7.650 -0.0074 -0.2092 -0.2064
 5317W        W 5317   3.062   3.977   8.811 -0.2850  0.2377 -0.0888
 5318W        W 5318   7.282   4.175   1.763  0.2641 -0.0581  0.1745
 5319W        W 5319   3.703   7.305   3.935  0.0599  0.0185  0.0716
 5320W        W 5320   6.608   3.246   0.225 -0.2822 -0.2779  0.4089
 5321W        W 5321   2.845   0.475   9.056 -0.2246 -0.1529  0.1373
 5322W        W 5322   9.956   3.512   3.655 -0.5093 -0.0355  0.0174
 5323W        W 5323   1.581   6.159   6.661 -0.1526  0.2205 -0.1681
 5324W        W 5324   3.264   4.611   5.227 -0.0451 -0.2412  0.0027
 5325W        W 5325   7.686   6.751   2.075 -0.3359 -0.0093  0.0164
 5326W        W 5326   3.505   9.373   8.860  0.2651  0.1461  0.1003
 5327W        W 5327   7.820   6.701   1.030 -0.0244  0.0221 -0.2310
 5328W        W 5328   3.747   1.887   8.147  0.1231 -0.1879  0.2000
 5329W        W 5329   9.193   8.113   8.199 -0.0361 -0.1290  0.0340
 5330W        W 5330   5.098   0.802   6.675 -0.3651 -0.0870  0.2914
 5331W        W 5331   3.393   7.821   6.497  0.0391 -0.0021 -0.1275
 5332W        W 5332   0.049   9.820   3.948 -0.2700 -0.0039  0.0589
 5333W        W 5333   2.934   8.729   6.226  0.2234 -0.2285 -0.2437
 5334W        W 5334   3.390   5.838  10.066  0.1157 -0.3734 -0.3466
 5335W        W 5335   5.919   3.750   9.837 -0.2460 -0.1230  0.1069
 5336W        W 5336   7.693   8.870   1.640  0.0840  0.0087  0.4098
 5337W        W 5337   0.940   5.412   0.029 -0.2918 -0.0242  0.0693
 5338W        W 5338   0.241   8.499   8.007  0.0919 -0.0071  0.1288
 5339W        W 5339   2.340   7.754   6.750  0.0534 -0.1029  0.0353
 5340W        W 5340   3.220   2.952   9.658 -0.3023 -0.1453 -0.0381
 5341W        W 5341   6.090   0.937   6.040  0.0380  0.0211 -0.1216
 5342W        W 5342   0.496   0.780   6.301  0.3720 -0.1323 -0.0763
 5343W        W 5343   5.863   4.696   3.278 -0.2935  0.1189  0.3901
 5344W        W 5344   9.454   0.536   6.741  0.0288 -0.0769 -0.0588
 5345W        W 5345   6.970   9.677   9.594  0.3244 -0.1215 -0.0422
 5346W        W 5346   9.511   2.050   1.870  0.3234 -0.1959 -0.0541
 5347W        W 5347   9.491   1.053   0.437 -0.0129 -0.0515  0.3562
 5348W        W 5348   6.556   7.834   8.004 -0.0689  0.0533  0.3345
 5349W        W 5349   6.228   7.543   8.963 -0.0778  0.1201 -0.3365
 5350W        W 5350   1.315   3.287   7.532  0.2980 -0.0871 -0.2139
 5351W        W 5351   8.988   4.265   9.606  0.0012 -0.0562 -0.1149
 5352W        W 5352   1.064   8.643   3.973  0.0572  0.3616  0.1393
 5353W        W 5353   9.239   4.995   8.503  0.1594  0.0382 -0.0117
 5354W        W 5354   1.486   0.138   0.697  0.0390  0.1265  0.1057
 5355W        W 5355   8.085   7.615   9.328  0.1832  0.2586  0.3126
 5356W        W 5356   9.754   5.520   9.048  0.1955 -0.0764  0.0706
 5357W        W 5357   5.650   9.762   4.709  0.0136 -0.0224  0.1162
 5358W        W 5358   1.035   8.690   6.321  0.0190  0.0286 -0.0552
 5359W        W 5359   0.241   8.420   2.736 -0.0879 -0.1426  0.1234
 5360W        W 5360   6.061   9.709   1.724  0.2739  0.0949  0.2470
 5361W        W 5361   6.689  10.291   0.517  0.3082 -0.0734 -0.2132
 5362W        W 5362   3.028   5.165   7.410 -0.0374 -0.0859  0.0656
 5363W        W 5363   0.137   8.904   5.625  0.1785 -0.1143 -0.2659
 5364W        W 5364   3.494   5.267  10.094 -0.1908  0.0512  0.0451
 5365W        W 5365   9.614   4.741   2.221  0.1562 -0.0754 -0.0959
 5366W        W 5366   6.072   8.714   3.619  0.2116 -0.0549 -0.4380
 5367W        W 5367   7.465   7.426   3.193 -0.1064  0.1769 -0.1280
 5368W        W 5368   5.137   6.872   2.900 -0.1745 -0.2026  0.1135
 5369W        W 5369   9.910   4.179   9.846 -0.0470 -0.3174  0.1397
 5370W        W 5370  10.206   2.287   2.362 -0.1101 -0.1737  0.0522
 5371W        W 5371   3.238  10.240   9.701 -0.1049 -0.0701  0.0995
 5372W        W 5372   4.014   7.418  10.136  0.0476 -0.0373  0.1982
 5373W        W 5373   3.762   2.179   3.731 -0.2672  0.3481  0.1067
 5374W        W 5374   6.255   1.745   2.513  0.0511  0.0116  0.0925
 5375W        W 5375   1.951   6.699   5.854  0.2800  0.2597 -0.0794
 5376W        W 5376   9.976   9.912   9.225  0.1414 -0.1409 -0.2004
 5377W        W 5377   6.989   7.151   6.974 -0.1861  0.0029 -0.0143
 5378W        W 5378   5.687   6.476   1.833 -0.0747 -0.1734 -0.1929
 5379W        W 5379   7.251   4.207   7.117 -0.1913  0.0350 -0.0272
 5380W        W 5380   9.218   2.964   3.554 -0.1758 -0.0522 -0.1114
 5381W        W 5381   1.874   0.733   6.457 -0.0257  0.5719  0.0635
 5382W        W 5382   2.343   0.039   0.405  0.0652 -0.3151 -0.0852
 5383W        W 5383   3.903   5.958   7.731  0.1827  0.0347 -0.2487
 5384W        W 5384   5.614   9.922   6.990 -0.2405  0.1178  0.2117
 5385W        W 5385   7.017   4.658   7.756  0.0350  0.2582 -0.0498
 5386W        W 5386   1.986   9.631   6.432 -0.0797 -0.2181  0.0245
 5387W        W 5387   3.835   5.568   2.683  0.0103 -0.3383 -0.3078
 5388W        W 5388   2.359   3.346   2.320  0.1257  0.2195  0.1239
 5389W        W 5389   0.694   5.355   0.532  0.2095 -0.3271  0.2645
 5390W        W 5390   3.143   7.354   9.664  0.0382 -0.1588 -0.2396
 5391W        W 5391   6.168   7.532   8.460 -0.1694  0.1543  0.0522
 5392W        W 5392   7.149   0.036   2.576  0.4827 -0.0162 -0.2101
 5393W        W 5393  10.284   0.390   2.018  0.0463 -0.0383  0.1694
 5394W        W 5394  10.187   9.496   4.272  0.1111 -0.0501  0.1884
 5395W        W 5395   3.515   8.183   2.629  0.2615  0.3248  0.0957
 5396W        W 5396   1.504   3.387   4.836 -0.3122 -0.2133 -0.0861
 5397W        W 5397   0.348   8.591   7.267 -0.0926 -0.0167  0.2260
 5398W        W 5398   4.858   1.722   6.565  0.1096  0.1424  0.4736
 5399W        W 5399   0.983   5.835   3.286  0.1061  0.1271 -0.0015
 5400W        W 5400   9.171   0.326   3.161 -0.0368  0.0978  0.1280
 5401W        W 5401   4.374   7.874   6.708  0.0340 -0.3281 -0.0652
 5402W        W 5402   3.653   2.951   2.665 -0.0180  0.0594  0.2335
 5403W        W 5403   1.770   8.373   2.505 -0.0326  0.0099  0.0071
 5404W        W 5404   5.371   6.433   9.434 -0.2851  0.1855  0.2010
 5405W        W 5405   4.915   6.757   8.181  0.0719 -0.2585 -0.0287
 5406W        W 5406   1.579   5.346   8.242 -0.1900 -0.1751 -0.3821
 5407W        W 5407   8.201   1.232   9.602  0.1368 -0.2827  0.0892
 5408W        W 5408   1.744   6.950   0.602 -0.1781 -0.2179 -0.1922
 5409W        W 5409  10.210   8.015   5.765 -0.0828  0.1012  0.4283
 5410W        W 5410   0.780   4.699   0.846 -0.2012  0.0933 -0.2822
 5411W        W 5411   5.514   0.935   6.189 -0.0792 -0.1928  0.2574
 5412W        W 5412   6.484   9.490   1.692 -0.0694 -0.4009  0.2046
 5413W        W 5413   5.349   4.307   0.672  0.0428 -0.2677 -0.0849
 5414W        W 5414   6.174   7.089   9.600  0.1414 -0.2301 -0.0531
 5415W        W 5415   1.490   3.663   5.492  0.2953 -0.1214  0.2005
 5416W        W 5416   4.188   1.606   1.970  0.1817  0.0585  0.0388
 5417W        W 5417   5.137   0.647  10.082 -0.2336  0.3062  0.0539
 5418W        W 5418   3.577   0.863   6.618 -0.1430  0.2279 -0.2052
 5419W        W 5419   0.514   3.579   9.944  0.1358  0.0814  0.0934
 5420W        W 5420   7.047   8.052   7.552 -0.1181  0.0367  0.1205
 5421W        W 5421   9.146   5.315   0.102 -0.1342  0.2408 -0.0343
 5422W        W 5422   5.748   3.591   9.152  0.1106  0.3661  0.0766
 5423W        W 5423   7.211   6.776   1.926  0.1306 -0.4388  0.3683
 5424W        W 5424   3.865   5.086   2.793 -0.1273 -0.2766 -0.0849
 5425W        W 5425  10.117   7.816   3.489  0.0395  0.1171  0.2028
 5426W        W 5426   2.398   5.930   9.758 -0.2020  0.2496  0.1837
 5427W        W 5427   5.019   7.709   4.011 -0.1504  0.0161  0.1650
 5428W        W 5428   9.762   2.578   6.774 -0.1646 -0.0053 -0.0802
 5429W        W 5429   9.176   6.309   0.017 -0.0335 -0.0829 -0.0053
 5430W        W 5430   8.799   8.768   6.159 -0.2120 -0.0842  0.0274
 5431W        W 5431   5.701   1.323   4.917 -0.2561  0.1235  0.0018
 5432W        W 5432   2.637   3.642   9.682 -0.1283 -0.0507 -0.1007
 5433W        W 5433   9.867   5.452   5.110  0.1497 -0.0657  0.1720
 5434W        W 5434   6.142   3.041   4.256 -0.2049  0.0183 -0.1567
 5435W        W 5435   9.840   0.836   9.160 -0.1373  0.0960  0.0176
 5436W        W 5436   5.979   9.659   5.398 -0.0823 -0.3018  0.1001
 5437W        W 5437   1.333   3.086   6.345  0.2322  0.2148  0.1600
 5438W        W 5438   9.670   3.788   8.439  0.3518  0.2275 -0.2831
 5439W        W 5439  10.144   2.227   5.184  0.3992 -0.0337 -0.1859
 5440W        W 5440   6.496   9.803   2.072 -0.0149 -0.1928 -0.2444
 5441W        W 5441   0.317   6.192   4.225 -0.0098  0.0935 -0.1600
 5442W        W 5442   6.949   3.131   0.971 -0.1573  0.1901  0.0754
 5443W        W 5443   2.512   1.504   4.711 -0.1760  0.1233 -0.1580
 5444W        W 5444   7.032   1.846   4.942 -0.1681 -0.0785  0.0137
 5445W        W 5445   0.233   3.755   3.260 -0.2005 -0.1457  0.1576
 5446W        W 5446   4.879   2.920   9.150 -0.0533 -0.1999 -0.0492
 5447W        W 5447   9.836   4.703   6.896  0.1929  0.1657 -0.0716
 5448W        W 5448   3.647   1.674   6.064  0.1374  0.2986 -0.4817
 5449W        W 5449   2.756   8.313   2.384 -0.0449 -0.0622  0.0396
 5450W        W 5450   5.076   1.896   2.137  0.1421  0.0588  0.3131
 5451W        W 5451   5.780   4.949   1.790  0.3043 -0.1440  0.0182
 5452W        W 5452   1.761   7.862   3.642  0.2493 -0.1145 -0.0128
 5453W        W 5453   8.331   0.003   4.055 -0.1663  0.2366 -0.0226
 5454W        W 5454   4.067   6.008   5.043  0.1074  0.0141  0.3658
 5455W        W 5455   8.910   8.233   5.108  0.1536 -0.0531  0.1110
 5456W        W 5456   8.952   5.236   2.875  0.2613  0.2014  0.2579
 5457W        W 5457   1.741   2.075   9.451 -0.0343  0.2580  0.1643
 5458W        W 5458   6.067   9.238   6.635  0.0694  0.2069 -0.2742
 5459W        W 5459   1.019   1.112   9.339  0.2278 -0.4262 -0.0514
 5460W        W 5460   4.027   5.678   5.346  0.0111  0.0695 -0.2599
 5461W        W 5461   6.880   4.683   7.241  0.2318  0.0412 -0.0540
 5462W        W 5462   7.500   7.461   0.649  0.0732 -0.0871  0.0438
 5463W        W 5463   3.026   9.416  10.111  0.0317  0.1760  0.0734
 5464W        W 5464   5.739   1.312   5.925  0.2250  0.3457 -0.0517
 5465W        W 5465   7.812   6.358   5.475 -0.0460 -0.1209  0.1877
 5466W        W 5466   2.045   2.113   6.131 -0.1613  0.0071 -0.0607
 5467W        W 5467   3.096   5.521   5.287  0.0049 -0.0101  0.2819
 5468W        W 5468   6.685   1.964   2.994  0.1025  0.2461  0.3335
 5469W        W 5469   8.691   6.267   3.914  0.2673  0.0024  0.0593
 5470W        W 5470   7.319   4.812   9.812  0.2715 -0.0323 -0.1387
 5471W        W 5471   3.686   9.120   7.234  0.0465 -0.1872 -0.0620
 5472W        W 5472   8.514   6.232   8.078  0.2826  0.2300 -0.0623
 5473W        W 5473  10.155   0.114   6.143  0.0665  0.2087  0.0188
 5474W        W 5474   2.066   8.127   6.079  0.1180  0.3483  0.4737
 5475W        W 5475   8.816   7.359   7.560  0.1473 -0.1394 -0.2412
 5476W        W 5476   8.531   7.799   1.604 -0.0179  0.0861  0.0832
 5477W        W 5477   0.997   8.936   2.498 -0.2156  0.2945 -0.0148
 5478W        W 5478   6.590   3.062   5.053  0.1054 -0.0663  0.0711
 5479W        W 5479   6.517   1.586   7.274 -0.1975 -0.0650 -0.2315
 5480W        W 5480   2.962   3.055   0.910 -0.0393  0.1265 -0.0886
 5481W        W 5481   4.332   0.452   3.223  0.0822 -0.2085  0.0986
 5482W        W 5482   1.991   5.152  10.299 -0.2536  0.0678  0.0722
 5483W        W 5483   9.358   1.226   3.511 -0.2152 -0.0176  0.1963
 5484W        W 5484   3.369   1.129   0.326 -0.2212  0.0835  0.0212
 5485W        W 5485  10.241   8.569   0.728 -0.0915 -0.1569  0.0573
 5486W        W 5486   6.099   9.019   1.098 -0.0236 -0.2353 -0.1356
 5487W        W 5487   8.679   2.201   9.479  0.1772 -0.0140 -0.2029
 5488W        W 5488   0.235   8.978   1.809 -0.0328  0.1322 -0.0515
 5489W        W 5489   5.419   4.898   6.097  0.2513  0.0913  0.0081
 5490W        W 5490   5.678   6.714   0.506  0.0424  0.2981 -0.0108
 5491W        W 5491   2.782   9.739   6.531 -0.1679  0.1773 -0.0751
 5492W        W 5492   5.257   7.245   3.762 -0.2466  0.1468 -0.1345
 5493W        W 5493   3.446   0.681   0.568  0.1023  0.1074  0.2340
 5494W        W 5494   7.870   6.935   8.126  0.0642  0.0870  0.2957
 5495W        W 5495   9.868   1.246   3.106 -0.1120  0.0398 -0.1017
 5496W        W 5496   5.104   8.430   3.492  0.2906 -0.0070 -0.1350
 5497W        W 5497   6.599   2.779   3.447 -0.1598  0.0869  0.2005
 5498W        W 5498   8.779   7.465   1.916 -0.1846  0.1672 -0.1326
 5499W        W 5499   0.048   5.672   0.153 -0.2383 -0.1654 -0.0041
 5500W        W 5500   7.023   1.896   6.386 -0.0001 -0.0987 -0.0967
 5501W        W 5501   0.706   6.283   5.931  0.1761  0.1446 -0.0912
 5502W        W 5502   1.132   5.232   7.412  0.2384 -0.2184  0.2013
 5503W        W 5503   2.042   7.851   1.003  0.0938  0.1007  0.1675
 5504W        W 5504   5.869   6.229   6.066  0.0203  0.1116 -0.0159
 5505W        W 5505   4.298   3.832   3.091 -0.1286 -0.2203 -0.1214
 5506W        W 5506   5.512   1.003   5.268  0.0992  0.1328 -0.0171
 5507W        W 5507   2.968  10.247   4.918 -0.0796 -0.0160 -0.2533
 5508W        W 5508   1.532   5.665   1.563  0.3081  0.1072 -0.3008
 5509W        W 5509   2.747   1.559   8.735 -0.3223  0.1962  0.0928
 5510W        W 5510   6.197   6.637   1.746 -0.1968  0.0466  0.1525
 5511W        W 5511   7.824   9.846  10.051  0.1887 -0.1107  0.1207
 5512W        W 5512   4.956   8.518   1.974  0.1747 -0.1291  0.2701
 5513W        W 5513   0.318   8.058   8.862 -0.2972 -0.3315  0.3186
 5514W        W 5514   5.336   2.114   1.164 -0.2310 -0.6558 -0.2310
 5515W        W 5515   7.149   5.066   0.410  0.0675  0.1564 -0.2491
 5516W        W 5516   2.567   7.409   2.953 -0.0025  0.1597  0.2624
 5517W        W 5517   2.312   0.353   9.917 -0.3739  0.1997 -0.0885
 5518W        W 5518   5.752   9.889   6.224  0.2205  0.0674 -0.0939
 5519W        W 5519   4.808   1.378   0.697 -0.0047 -0.1996  0.0585
 5520W        W 5520   2.731   0.809   5.196  0.1663  0.0690 -0.2271
 5521W        W 5521   5.387   7.596   7.702  0.3049  0.2684  0.0819
 5522W        W 5522   0.050   8.256   1.125 -0.2562  0.1805 -0.0080
 5523W        W 5523   5.596   8.937   6.740 -0.1569  0.0223 -0.1244
 5524W        W 5524   9.597   2.136   1.206 -0.0505 -0.0033  0.2679
 5525W        W 5525   5.873   8.630   9.831  0.0282  0.2780 -0.0930
 5526W        W 5526   0.919   9.162   9.273 -0.1334 -0.0990  0.1570
 5527W        W 5527   9.919   0.795   7.549  0.0553  0.5020  0.0494
 5528W        W 5528   7.151   0.726   2.201 -0.1679 -0.0055  0.1665
 5529W        W 5529   0.117   8.908   2.834 -0.1927 -0.0337  0.2928
 5530W        W 5530   9.398   0.021   8.923 -0.2652 -0.1636 -0.4165
 5531W        W 5531   7.177   5.012   9.339  0.0070 -0.2931  0.1046
 5532W        W 5532   3.748   0.316   7.371 -0.1184  0.1064  0.1077
 5533W        W 5533   5.770   1.577   0.802 -0.3081  0.0829 -0.1536
 5534W        W 5534   2.882   0.713   2.268  0.3703 -0.1190 -0.3041
 5535W        W 5535   6.266   4.444   8.336  0.2102  0.1566 -0.0061
 5536W        W 5536   4.272   6.414   7.232 -0.1196 -0.0824  0.2345
 5537W        W 5537   5.840   6.511   7.647 -0.1026  0.1782 -0.0985
 5538W        W 5538   3.652   2.398   2.752  0.0965  0.3421 -0.1059
 5539W        W 5539   4.270   3.057   8.749 -0.0714 -0.0781  0.3128
 5540W        W 5540   2.194   7.489  10.108  0.2994 -0.0010  0.2833
 5541W        W 5541   8.213   6.990   3.226 -0.1052 -0.0749 -0.1333
 5542W        W 5542   2.282   4.017   8.600 -0.2787  0.1789  0.0480
 5543W        W 5543   1.231   1.098   3.154  0.2589 -0.2020  0.0896
 5544W        W 5544   4.308   5.926   8.958  0.0205 -0.3471 -0.2145
 5545W        W 5545   8.551   1.179   3.995 -0.3028  0.0901 -0.0167
 5546W        W 5546   4.324   0.309   2.662 -0.0436  0.1414 -0.1270
 5547W        W 5547   1.067   1.900  10.277 -0.0615  0.1510  0.1306
 5548W        W 5548   6.854   5.825   9.733  0.0611  0.0324 -0.0071
 5549W        W 5549   2.599   9.489   9.834  0.1496  0.0371 -0.0937
 5550W        W 5550   4.246   7.782   8.319 -0.1827  0.1997  0.1025
 5551W        W 5551   3.909   2.392   8.037 -0.0796  0.2192 -0.0776
 5552W        W 5552   6.336   3.284   2.602 -0.2944  0.1645 -0.3566
 5553W        W 5553   0.107   8.586   2.193 -0.0275 -0.1256 -0.3502
 5554W        W 5554   0.659   5.754   8.422 -0.4384 -0.1026 -0.0689
 5555W        W 5555   7.409   1.031   3.834  0.2630 -0.0101 -0.0929
 5556W        W 5556   8.635   9.452  10.159  0.1534 -0.0375 -0.2900
 5557W        W 5557   1.997  10.168   9.216 -0.2678 -0.3509  0.0714
 5558W        W 5558   4.023   0.412   9.338 -0.0923 -0.0635  0.4533
 5559W        W 5559   4.609   4.676   0.392  0.1813  0.0800  0.3260
 5560W        W 5560   8.794   7.018   9.653  0.0571 -0.0462  0.1204
 5561W        W 5561   3.030   6.029   9.379  0.1210 -0.2525  0.2908
 5562W        W 5562   0.188   0.654   2.452  0.0599 -0.0266  0.1302
 5563W        W 5563   7.866   9.830   9.539 -0.1123  0.1592 -0.0086
 5564W        W 5564   2.273   4.430   4.372  0.2875 -0.2364 -0.0150
 5565W        W 5565   1.478   1.597   1.636  0.1088  0.1572  0.2122
 5566W        W 5566   7.577  10.289   6.345  0.2762 -0.0778 -0.2790
 5567W        W 5567   1.051   7.350   7.344  0.1431 -0.0478  0.0244
 5568W        W 5568   2.929   4.560   2.030  0.1015  0.1413 -0.1100
 5569W        W 5569   2.730   5.175   6.659  0.0737  0.0856  0.2197
 5570W        W 5570   3.497   2.148   4.254  0.0915  0.1294 -0.0632
 5571W        W 5571   5.440   0.377   5.452  0.2878  0.0373  0.1308
 5572W        W 5572   6.341   6.044   1.138 -0.0236 -0.1510 -0.2456
 5573W        W 5573   7.239   9.904   6.437 -0.0909  0.1105  0.0418
 5574W        W 5574   8.372   6.301   0.075 -0.0352 -0.2115 -0.0060
 5575W        W 5575   6.441   1.374   0.655 -0.0418 -0.0522 -0.1655
 5576W        W 5576   0.120   8.840   1.072 -0.0009  0.2091  0.0346
 5577W        W 5577   4.860   0.652   0.919 -0.1475 -0.0010 -0.0788
 5578W        W 5578   0.218   4.274   5.644 -0.0434  0.1020 -0.0822
 5579W        W 5579   1.628   4.514   3.384  0.0098  0.0936  0.2530
 5580W        W 5580   0.809   5.163   7.002 -0.0093  0.1189 -0.3413
 5581W        W 5581   0.150   7.647   5.534 -0.0455 -0.0543 -0.3626
 5582W        W 5582   9.264   4.461   1.925  0.0383 -0.2390  0.0677
 5583W        W 5583   3.133   0.872   4.114 -0.0878  0.0131  0.1819
 5584W        W 5584   7.439   0.858  10.304 -0.0872 -0.0481 -0.1417
 5585W        W 5585   3.305   0.809   6.086  0.1531 -0.0526  0.2304
 5586W        W 5586   0.009   1.905   0.016 -0.0554 -0.0305 -0.1144
 5587W        W 5587   9.938   8.236   3.711 -0.2213  0.0780 -0.0474
 5588W        W 5588   2.349   5.316   6.007  0.4064 -0.0691 -0.2436
 5589W        W 5589   1.811   9.502   7.088 -0.3743  0.0618 -0.1262
 5590W        W 5590   6.216   9.080   4.995 -0.0601  0.0588 -0.1005
 5591W        W 5591   0.653   1.899   1.688  0.2076  0.0418  0.0687
 5592W        W 5592   4.084   1.446   6.060 -0.1423  0.1875  0.0303
 5593W        W 5593   8.585   1.333   2.021 -0.1506 -0.1892  0.2318
 5594W        W 5594   1.842   2.295   6.733 -0.4833 -0.1254  0.2486
 5595W        W 5595   3.113   0.911   9.486 -0.1937 -0.2222  0.0520
 5596W        W 5596  10.191   0.206   0.388 -0.1284 -0.1728 -0.0003
 5597W        W 5597   0.023   0.510   6.330  0.1308  0.0707  0.1431
 5598W        W 5598   8.075   4.160   1.592  0.4554 -0.0066  0.1149
 5599W        W 5599   6.262   4.056   4.456 -0.2627  0.2893  0.0638
 5600W        W 5600   4.456   9.970   2.053  0.0298 -0.2052 -0.0654
 5601W        W 5601   3.825   2.473   2.209 -0.3589  0.0726 -0.1234
 5602W        W 5602   9.911   5.641   7.065  0.2762  0.3633 -0.3197
 5603W        W 5603   2.740   3.655   2.346  0.1300 -0.3795 -0.0478
 5604W        W 5604   5.678   8.076   6.933 -0.0694  0.1885 -0.0442
 5605W        W 5605   9.548   2.913   2.017 -0.4346  0.1063  0.1421
 5606W        W 5606   8.474   1.567   9.813  0.1021 -0.0130 -0.1295
 5607W        W 5607   2.704   9.373   3.046  0.0240 -0.2304  0.0111
 5608W        W 5608   4.559   5.508   3.289 -0.0019 -0.3041 -0.0505
 5609W        W 5609   0.279   7.113   4.669  0.1407 -0.0785  0.2233
 5610W        W 5610   2.783   2.030   7.772 -0.3449 -0.4268  0.1040
 5611W        W 5611   8.951   2.210   5.677 -0.4887  0.0988 -0.1780
 5612W        W 5612   6.994   2.916   0.027 -0.3865 -0.0793  0.0572
 5613W        W 5613   0.410   7.605  10.272 -0.0732 -0.0401 -0.0250
 5614W        W 5614   7.960   3.378   2.988 -0.0882  0.1304 -0.2186
 5615W        W 5615  10.171   5.603   6.602  0.1101 -0.0615  0.1284
 5616W        W 5616   7.742   3.281   8.653 -0.0109  0.1505  0.1141
 5617W        W 5617   0.540   3.330   1.384  0.1399 -0.0991 -0.1235
 5618W        W 5618   9.619   8.877   2.275  0.0549  0.2314  0.1021
 5619W        W 5619   1.353   4.577   0.504  0.2879 -0.1884 -0.2806
 5620W        W 5620   7.615   9.276   0.635 -0.0733 -0.0151 -0.0713
 5621W        W 5621   0.030   5.735   4.388  0.0558 -0.0117  0.0784
 5622W        W 5622   5.690   3.383   3.450 -0.3582 -0.1120  0.0631
 5623W        W 5623   0.008   2.077   3.330 -0.3779 -0.0458  0.0402
 5624W        W 5624   2.222   6.515   4.856 -0.0200  0.0792  0.1238
 5625W        W 5625   1.583   3.237   0.812 -0.1119 -0.0629 -0.2752
 5626W        W 5626   7.152   8.842   4.940 -0.1216  0.0073  0.0540
 5627W        W 5627   0.812   4.619   1.349  0.0486  0.0728  0.2378
 5628W        W 5628   3.399   2.457   7.005  0.2865 -0.0497  0.0818
 5629W        W 5629   3.983   4.110   3.711 -0.0010  0.1525  0.1995
 5630W        W 5630   3.622   9.436   9.763  0.0391 -0.4674  0.2188
 5631W        W 5631   6.700   6.751   9.078 -0.0324 -0.1554 -0.2903
 5632W        W 5632  10.269   6.991   8.158  0.0372 -0.0873  0.0837
 5633W        W 5633   6.257   1.719   0.969  0.0029  0.1299  0.0906
 5634W        W 5634   5.358   4.590   8.791 -0.1371 -0.0339 -0.4718
 5635W        W 5635   4.529   6.189   0.097 -0.0177 -0.1958 -0.0321
 5636W        W 5636   4.474   0.659   3.962 -0.0342  0.4845  0.1698
 5637W        W 5637   1.826   6.854   8.097 -0.3103  0.0187  0.1953
 5638W        W 5638   8.152   3.168   6.602  0.0576 -0.2759  0.2100
 5639W        W 5639   8.051   3.652   4.809  0.1766 -0.1339  0.0648
 5640W        W 5640   1.926   9.900   9.640 -0.1594 -0.1491 -0.0988
 5641W        W 5641   4.016   1.707   7.083 -0.0063  0.2141  0.1060
 5642W        W 5642   0.428   2.974   4.337 -0.1601 -0.0478 -0.1037
 5643W        W 5643  10.061   5.216   6.216 -0.1783 -0.0257 -0.2109
 5644W        W 5644   5.807   8.568   1.189 -0.2212  0.2028  0.3015
 5645W        W 5645   7.292   4.181   7.650  0.0801 -0.0790  0.0664
 5646W        W 5646   2.568   2.846   1.258 -0.1415 -0.0424  0.1877
 5647W        W 5647   6.393   2.378   6.757  0.0520  0.0373 -0.0974
 5648W        W 5648   3.787   1.182   2.365  0.2183  0.0237 -0.2789
 5649W        W 5649   5.402   8.680   8.581  0.2478 -0.0641 -0.0078
 5650W        W 5650   0.457   6.701   4.315 -0.2174  0.2703 -0.0766
 5651W        W 5651   8.007   1.385   7.247  0.4315  0.0849  0.0571
 5652W        W 5652   8.961   2.923   8.682  0.0684  0.3127  0.1448
 5653W        W 5653   2.966   0.459   3.840 -0.0412  0.0513 -0.2710
 5654W        W 5654   2.966   8.146   4.052  0.0952  0.1699  0.0927
 5655W        W 5655   4.983  10.233   8.960  0.3486  0.0175 -0.1359
 5656W        W 5656   2.277  10.149   8.198  0.3526 -0.2490 -0.0552
 5657W        W 5657   1.621  10.072   1.925  0.2778 -0.2385 -0.1548
 5658W        W 5658   3.616   2.076   1.055  0.1140 -0.0716 -0.1830
 5659W        W 5659   3.109   5.552   9.676  0.0230  0.0043  0.4041
 5660W        W 5660   1.730   3.896   6.422 -0.0524  0.0295 -0.0836
 5661W        W 5661   8.603   4.958   6.995 -0.1116  0.4091 -0.1703
 5662W        W 5662   3.525   1.508   1.623 -0.3440  0.2311  0.1475
 5663W        W 5663   1.401   6.086   3.022 -0.2124 -0.3150 -0.1865
 5664W        W 5664   8.252   4.865   7.409  0.1364 -0.0574 -0.2913
 5665W        W 5665   7.379   6.585   3.112 -0.1695  0.2952  0.1284
 5666W        W 5666   1.206   5.690   8.808 -0.0036  0.1975  0.0990
 5667W        W 5667   0.988   8.993   5.880  0.3653 -0.0988 -0.2153
 5668W        W 5668   7.851   8.007   9.211 -0.0567  0.1973 -0.2537
 5669W        W 5669   7.790   3.972   2.656 -0.3395  0.1575 -0.1504
 5670W        W 5670   0.140   2.572   2.015  0.2165 -0.0288  0.0295
 5671W        W 5671   2.334   1.327   1.232 -0.0830  0.1583 -0.1367
 5672W        W 5672   2.317  10.116   6.583  0.0301 -0.0597  0.0130
 5673W        W 5673   5.351   3.763   8.298  0.2874  0.2440  0.1571
 5674W        W 5674   4.268   1.098   2.477  0.0044  0.1797 -0.0482
 5675W        W 5675   2.158   2.707   2.916  0.0025 -0.0240  0.4934
 5676W        W 5676   5.242   3.069   4.570  0.1301  0.2904  0.0431
 5677W        W 5677   0.038   2.651   5.024  0.0935  0.1313 -0.0033
 5678W        W 5678   0.025   2.625   9.691 -0.0806 -0.0269 -0.3282
 5679W        W 5679   7.408  10.031   5.946  0.0496 -0.2018 -0.4144
 5680W        W 5680   0.398  10.294   2.126  0.0582  0.2923  0.1588
 5681W        W 5681   1.405   3.301   5.922  0.0283  0.2252 -0.0332
 5682W        W 5682   0.998   2.977   2.433 -0.4092 -0.1717  0.0385
 5683W        W 5683   4.069   4.883   0.458  0.0571  0.1244 -0.4021
 5684W        W 5684   8.730   9.296   8.590  0.0281 -0.3741  0.1933
 5685W        W 5685   0.817   3.739   8.369  0.2949  0.1528  0.1749
 5686W        W 5686   8.191   8.927   9.857 -0.1567  0.1870  0.0138
 5687W        W 5687   3.126   0.706   0.131  0.0783  0.0338  0.1310
 5688W        W 5688   1.751   9.660   1.007 -0.2732 -0.3976  0.0031
 5689W        W 5689   3.963   9.881   6.263  0.0401  0.4431  0.0162
 5690W        W 5690   2.577   3.559   2.869 -0.3521  0.0421 -0.0879
 5691W        W 5691   8.962   1.449   0.370 -0.0111 -0.0520 -0.1684
 5692W        W 5692   7.124   8.676   8.424  0.0586  0.4552 -0.2759
 5693W        W 5693   4.217   6.191   1.437  0.1147  0.2382 -0.1797
 5694W        W 5694   7.852   3.790   9.334 -0.1309 -0.1219  0.1647
 5695W        W 5695   3.508   5.885   4.033 -0.0036 -0.2834 -0.3263
 5696W        W 5696   8.288   9.916   3.803  0.0087 -0.0238  0.1984
 5697W        W 5697   6.002   4.057   8.523 -0.0937  0.2787  0.0675
 5698W        W 5698   1.923  10.204   0.574 -0.0326 -0.1447 -0.0863
 5699W        W 5699   4.696   3.799   9.401 -0.0581  0.0895 -0.3947
 5700W        W 5700   4.501   2.497   8.015  0.4125  0.0595  0.2156
 5701W        W 5701   5.615   9.456   3.509 -0.0439 -0.0892  0.2295
 5702W        W 5702   5.907   5.078   5.939  0.3925  0.2106  0.3056
 5703W        W 5703   3.481   1.288   9.135 -0.0821 -0.0712 -0.1284
 5704W        W 5704   3.047   8.680   5.655 -0.2725 -0.1583  0.0127
 5705W        W 5705   1.933   3.053   3.280  0.0286  0.2579 -0.2721
 5706W        W 5706   3.313   1.317   3.920 -0.1747  0.2526 -0.2570
 5707W        W 5707   0.499   9.862   3.056  0.0293  0.0962  0.0926
 5708W        W 5708   6.335   5.693   3.670  0.1284  0.4182  0.2731
 5709W        W 5709   4.208   6.772   7.915 -0.0103  0.1615 -0.0794
 5710W        W 5710   6.219   4.069   0.391  0.0624  0.1360  0.0790
 5711W        W 5711   4.453   5.078   0.706 -0.0406 -0.0829 -0.0095
 5712W        W 5712   6.634   2.148   5.991 -0.0923  0.2392 -0.3577
 5713W        W 5713   1.829   3.561   9.202  0.2852 -0.0793 -0.3256
 5714W        W 5714   5.978   2.143  10.309 -0.0869  0.1084 -0.1207
 5715W        W 5715   3.616  10.238  10.106  0.1225 -0.1053  0.1666
 5716W        W 5716   6.504   7.174   7.213  0.3063 -0.1507 -0.3917
 5717W        W 5717   7.501   9.534   7.606 -0.1344  0.0324 -0.2244
 5718W        W 5718   9.911   9.443   1.362  0.1660  0.1586  0.1366
 5719W        W 5719   4.549   9.021   3.474 -0.1032 -0.0960 -0.2102
 5720W        W 5720  10.083   9.089   0.971 -0.1143 -0.0606  0.0759
 5721W        W 5721   3.011   9.304   1.511  0.2150 -0.1662 -0.0747
 5722W        W 5722   6.790   2.434   5.357  0.0445 -0.1499  0.2380
 5723W        W 5723   8.670   8.888   5.709  0.2213 -0.1845 -0.0850
 5724W        W 5724   1.787   2.902   0.085 -0.2320  0.2380  0.1460
 5725W        W 5725   3.274   4.983   0.177  0.2341  0.1717  0.3354
 5726W        W 5726   2.422   8.429   1.698  0.0989 -0.0967  0.2093
 5727W        W 5727   3.581   9.651   8.347  0.1557 -0.1026  0.0761
 5728W        W 5728   5.248   3.643   6.013  0.0418 -0.0894  0.0869
 5729W        W 5729   3.888   5.305   6.236  0.1894  0.2839  0.0451
 5730W        W 5730   3.975   8.169   4.885 -0.3135 -0.0716 -0.3021
 5731W        W 5731   8.407   8.689   0.433 -0.1644 -0.1585 -0.1381
 5732W        W 5732   3.267   9.226   9.259 -0.0564 -0.3786 -0.1924
 5733W        W 5733   0.703   3.482   2.306  0.2109 -0.1448  0.1216
 5734W        W 5734   8.897   2.087   8.159  0.2719  0.1809 -0.1085
 5735W        W 5735   1.886   1.660   7.382 -0.0773 -0.0352 -0.0295
 5736W        W 5736   8.512   8.710   9.489 -0.1197 -0.2107 -0.1355
 5737W        W 5737   9.975   6.081   2.937  0.0883 -0.2507 -0.1547
 5738W        W 5738   0.182   7.067   3.148  0.1573 -0.0858  0.1180
 5739W        W 5739   2.500   7.732   8.234 -0.2774 -0.0417  0.1773
 5740W        W 5740   8.673   1.588   3.770  0.3798 -0.1635  0.0746
 5741W        W 5741   6.018   1.723   5.739 -0.1840  0.1574  0.2115
 5742W        W 5742   9.479   0.515   9.206 -0.2916 -0.2167  0.3054
 5743W        W 5743   2.419   9.402   3.818  0.0702  0.1882  0.0666
 5744W        W 5744   0.027   9.902   5.143 -0.2664  0.0604 -0.0177
 5745W        W 5745   5.594   2.514   2.570  0.2440 -0.1004 -0.1668
 5746W        W 5746   2.718   6.823   4.105  0.0961 -0.2128  0.4809
 5747W        W 5747   6.694   2.219   4.696  0.0358 -0.0317 -0.0676
 5748W        W 5748   7.065   2.059   5.393 -0.0584 -0.2329 -0.0834
 5749W        W 5749   4.228   4.821   4.461  0.1280 -0.0889  0.0257
 5750W        W 5750   4.440   5.422   8.772  0.1427  0.1293 -0.1486
 5751W        W 5751   4.599   7.387   4.231  0.2331  0.2820  0.2166
 5752W        W 5752   3.529   1.450   7.293  0.2026  0.1272 -0.4154
 5753W        W 5753   3.083   2.725   1.967  0.1648 -0.0770  0.1659
 5754W        W 5754   5.189   1.294   7.942  0.0527  0.0954  0.0392
 5755W        W 5755   8.520   0.537   5.142  0.1805 -0.3317  0.0821
 5756W        W 5756   2.707   9.683   4.693 -0.0940  0.1999 -0.1539
 5757W        W 5757   3.803   0.205   3.280  0.0871  0.4260  0.1331
 5758W        W 5758   3.541   3.965   8.035 -0.1959 -0.4313 -0.0902
 5759W        W 5759   8.504   7.071   5.623  0.4711  0.2798 -0.0549
 5760W        W 5760   2.537   0.815   5.718 -0.1072 -0.2849  0.1312
 5761W        W 5761   2.514   5.658   2.835  0.0776  0.0743 -0.0851
 5762W        W 5762   9.901   6.945   3.853 -0.2074 -0.0570  0.0138
 5763W        W 5763   1.239   5.096   6.731  0.4253 -0.1108  0.0714
 5764W        W 5764   5.259   7.680   7.229 -0.1580  0.2069 -0.0901
 5765W        W 5765   2.211   2.784   6.681  0.1847 -0.1439 -0.0813
 5766W        W 5766   3.269   5.212   3.481  0.0412 -0.3536 -0.1162
 5767W        W 5767   8.398   5.756   1.861  0.0055 -0.1214 -0.3384
 5768W        W 5768   9.750   2.644   1.099 -0.0951 -0.0911 -0.0091
 5769W        W 5769   4.095   7.358   7.189  0.1875 -0.1138  0.0644
 5770W        W 5770   3.076   2.192   9.744  0.0763 -0.0313  0.1057
 5771W        W 5771  10.204   7.821   5.204 -0.2094 -0.1253 -0.0390
 5772W        W 5772   9.335   2.679   0.085 -0.0371 -0.0646 -0.2054
 5773W        W 5773   1.666   7.572   8.669 -0.2953  0.0580 -0.2050
 5774W        W 5774   0.919   4.911   6.400 -0.4112 -0.0481  0.0942
 5775W        W 5775   5.452   3.185   9.329 -0.0909  0.0864 -0.2691
 5776W        W 5776   8.443   7.073   7.798  0.0648 -0.1385  0.1208
 5777W        W 5777   7.157   1.573   2.988  0.1507 -0.1804 -0.1161
 5778W        W 5778   0.220   5.239   7.986 -0.0123  0.2308  0.3272
 5779W        W 5779   8.072   7.124   1.736  0.1620  0.2896 -0.1531
 5780W        W 5780   5.569   7.596   3.874 -0.2366 -0.0929 -0.1462
 5781W        W 5781   1.247   7.114  10.300 -0.3191  0.0502  0.0512
 5782W        W 5782   0.685   6.665   5.544  0.1315 -0.3770  0.1488
 5783W        W 5783   7.358   1.663   0.313 -0.0616 -0.0377  0.2392
 5784W        W 5784   8.040   4.310   3.369 -0.1139 -0.0315 -0.3272
 5785W        W 5785   8.168   0.516   0.665 -0.0566  0.0781  0.1004
 5786W        W 5786   1.083   6.674   5.901 -0.0947 -0.0172  0.1437
 5787W        W 5787   7.849   1.535   5.964  0.0737 -0.1769 -0.0394
 5788W        W 5788   5.834   6.503   3.949 -0.0416 -0.1161 -0.0542
 5789W        W 5789   2.867   1.867   3.831 -0.1110  0.0600  0.1199
 5790W        W 5790   5.885   3.772   8.110 -0.2847  0.0562  0.0653
 5791W        W 5791   0.127   0.587   4.450 -0.0252  0.2980  0.1295
 5792W        W 5792   1.206   5.364   4.046 -0.1110  0.0489 -0.1187
 5793W        W 5793   5.383   5.452   3.341  0.1332  0.1239  0.2760
 5794W        W 5794   2.385   5.576   6.442 -0.1802  0.0617 -0.1042
 5795W        W 5795   8.803   4.657  10.017 -0.2075  0.2419  0.0762
 5796W        W 5796   1.371   0.455   6.392  0.0099  0.3265 -0.2457
 5797W        W 5797   6.377   8.786   0.745  0.1576 -0.4147  0.0327
 5798W        W 5798   5.014   7.154   4.173 -0.1613  0.1975  0.1456
 5799W        W 5799   8.402   9.011   3.751 -0.0248  0.0124  0.2149
 5800W        W 5800   8.027   0.058   1.880  0.0635  0.1745  0.1512
 5801W        W 5801   4.057   9.927   1.521 -0.1747 -0.1472 -0.2223
 5802W        W 5802   7.811   2.179   1.275  0.0853  0.3248  0.1505
 5803W        W 5803   2.232  10.279   8.667  0.0272 -0.0420 -0.0578
 5804W        W 5804   9.900   0.094   8.205 -0.3640 -0.2767  0.0963
 5805W        W 5805   2.588  10.159   4.611  0.0687  0.3417 -0.2582
 5806W        W 5806   3.149   5.261   6.839 -0.1673 -0.3268  0.0056
 5807W        W 5807  10.109   1.376   4.282  0.0320 -0.0046 -0.0134
 5808W        W 5808   2.568   9.402   1.284  0.0126 -0.0030 -0.0268
 5809W        W 5809   9.299   5.298   4.634 -0.1931  0.4210 -0.0628
 5810W        W 5810   3.927   4.161   3.169 -0.1407 -0.2040 -0.2976
 5811W        W 5811   4.862   3.041   4.988 -0.1200  0.0183 -0.1042
 5812W        W 5812   6.195   6.226   2.682  0.1957 -0.0477 -0.0558
 5813W        W 5813   3.847   1.914   2.901  0.0505  0.0447 -0.3253
 5814W        W 5814   8.071   2.455   6.187  0.3634 -0.1916 -0.3715
 5815W        W 5815   0.877   7.967   1.266  0.0363  0.4974  0.1528
 5816W        W 5816   9.038  10.123   9.719 -0.1968  0.1688  0.1884
 5817W        W 5817   5.471   7.975   3.506 -0.2514 -0.2684  0.2467
 5818W        W 5818   6.966   7.578  10.209  0.0197 -0.3581  0.2344
 5819W        W 5819   9.880   5.260   5.751  0.2078  0.0430  0.2183
 5820W        W 5820   8.981   6.075   6.864 -0.1749 -0.3822 -0.0394
 5821W        W 5821   0.080   8.002   4.823  0.0024  0.3579  0.0662
 5822W        W 5822   4.457   9.323   1.634 -0.2538  0.0850  0.0161
 5823W        W 5823   6.029   3.148   0.325  0.1515 -0.2152  0.0235
 5824W        W 5824   2.603   1.057   1.586 -0.1894 -0.0170 -0.1004
 5825W        W 5825   3.076   9.252   4.725 -0.2103 -0.2272 -0.1362
 5826W        W 5826   2.424   1.973   4.575  0.1389 -0.1280  0.1799
 5827W        W 5827   8.660   1.134   9.456  0.1776 -0.1810 -0.2004
 5828W        W 5828   4.318  10.263   1.192  0.2508 -0.1423 -0.0842
 5829W        W 5829   6.897   1.102  10.311 -0.1718 -0.1174  0.0775
 5830W        W 5830   8.746   1.699   4.366 -0.1930 -0.3192  0.0083
 5831W        W 5831   4.967   4.476   4.069  0.1039 -0.0850 -0.1575
 5832W        W 5832   3.624   5.100   0.474 -0.0360  0.0452 -0.2937
 5833W        W 5833   2.297   0.041   2.585 -0.0351  0.0766 -0.4141
 5834W        W 5834   2.755   3.079   1.676 -0.0758  0.0328 -0.1405
 5835W        W 5835   6.229   3.895   5.704 -0.1174 -0.0548 -0.5801
 5836W        W 5836   6.141  10.164   1.865 -0.0670 -0.2253 -0.1296
 5837W        W 5837   3.761   8.153   1.610  0.0978  0.2103 -0.0794
 5838W        W 5838   8.099   3.278   7.409 -0.0271  0.0309 -0.2132
 5839W        W 5839   8.599   6.194   2.304 -0.2918  0.1659  0.0170
 5840W        W 5840   5.888   0.452   6.181  0.1242 -0.0364  0.1179
 5841W        W 5841   8.112   3.322   9.240  0.0525 -0.2631 -0.2955
 5842W        W 5842   7.470   4.589   5.850 -0.0437  0.0050  0.0952
 5843W        W 5843   8.359   0.646   2.742 -0.1353 -0.0976  0.1088
 5844W        W 5844   8.534   7.930   6.699 -0.0392 -0.0804 -0.2740
 5845W        W 5845   4.686   4.267   9.253  0.0602 -0.1621  0.2897
 5846W        W 5846   3.054   1.529   0.208  0.1565 -0.2483 -0.0241
 5847W        W 5847   3.496   1.401   8.246  0.0692  0.1547 -0.2482
 5848W        W 5848   4.430   3.376   6.613  0.2242  0.1718 -0.1727
 5849W        W 5849   2.326   1.475   6.672 -0.0146  0.1667  0.1688
 5850W        W 5850   8.015   0.799   9.676  0.1586 -0.1920 -0.0808
 5851W        W 5851   8.350   7.224   9.448 -0.1310  0.1123  0.2462
 5852W        W 5852   5.365   2.435   5.631 -0.0763 -0.1218 -0.0556
 5853W        W 5853   8.167   7.726   1.988  0.3228 -0.0493  0.2588
 5854W        W 5854   4.942   0.691   3.568  0.0795  0.0851  0.0305
 5855W        W 5855   4.766   2.701   5.302 -0.1555 -0.0450 -0.0821
 5856W        W 5856   4.811   7.101   5.094  0.2724 -0.2134 -0.2073
 5857W        W 5857   4.208   3.916   6.074  0.1918  0.0437 -0.1305
 5858W        W 5858   5.951   5.780   0.974 -0.0292  0.1850  0.1520
 5859W        W 5859   2.902   9.417   0.887 -0.1102 -0.1382 -0.1900
 5860W        W 5860   5.562   4.195   3.545  0.0840  0.0075 -0.1884
 5861W        W 5861   3.880   2.167   8.552  0.1805 -0.0944 -0.3254
 5862W        W 5862   3.985   1.398   9.473 -0.1646 -0.0759  0.0884
 5863W        W 5863  10.069   5.944   8.531  0.0528 -0.2451  0.0874
 5864W        W 5864   7.363  10.124   3.720 -0.1663  0.1000 -0.2611
 5865W        W 5865   4.486   4.242   3.893  0.1247 -0.0785 -0.0813
 5866W        W 5866   6.530   3.726   7.072  0.0084  0.0525  0.2943
 5867W        W 5867   7.008   5.893   4.131  0.0344  0.0527 -0.3773
 5868W        W 5868   8.855   3.764   6.041  0.3017  0.0020  0.2796
 5869W        W 5869   2.574   5.122   2.818 -0.0311 -0.1407  0.0206
 5870W        W 5870   5.408   4.873   6.673  0.0697 -0.0333 -0.0908
 5871W        W 5871   3.101   7.919   2.950  0.3085  0.0120  0.0675
 5872W        W 5872   8.292   3.623   9.589  0.0344 -0.0125 -0.1564
 5873W        W 5873   0.860   0.620   6.712  0.0432 -0.1092  0.2256
 5874W        W 5874  10.288   8.225   3.258 -0.0926  0.2943 -0.0802
 5875W        W 5875   2.783   9.466   6.118  0.2586  0.0486  0.1680
 5876W        W 5876   2.341   1.158   4.380  0.0175  0.0763 -0.1374
 5877W        W 5877   9.100   8.714   7.700  0.0297 -0.0396  0.0208
 5878W        W 5878   0.549   1.487   5.119 -0.2029 -0.2651 -0.1907
 5879W        W 5879   8.025   4.420   7.278 -0.1681  0.0574  0.1514
 5880W        W 5880   4.884   9.941   7.748 -0.0689 -0.0266 -0.3300
 5881W        W 5881   3.834   7.519   6.223  0.2552  0.2199  0.2831
 5882W        W 5882   4.358   8.725   6.856 -0.3044 -0.1539  0.1113
 5883W        W 5883   9.831   1.418   6.159  0.1537  0.0859 -0.1211
 5884W        W 5884   3.841   1.809   4.111 -0.0341  0.1335  0.2398
 5885W        W 5885   8.847   7.448   9.260 -0.3874 -0.2717 -0.0192
 5886W        W 5886   4.465   5.610  10.296 -0.0109 -0.0595  0.2282
 5887W        W 5887   6.997   7.436   7.510  0.2272  0.3562  0.0075
 5888W        W 5888   1.787   8.054   1.351 -0.1609  0.0036 -0.0719
 5889W        W 5889   6.063   7.031   0.624  0.1061 -0.1660  0.2478
 5890W        W 5890   1.582   1.608  10.178 -0.0363 -0.0133  0.1022
 5891W        W 5891   2.404   4.047   7.913 -0.0145 -0.3564  0.2684
 5892W        W 5892   9.024   4.952   6.370  0.1243 -0.0098  0.1179
 5893W        W 5893   3.649   9.143   5.754 -0.0138 -0.0236  0.0446
 5894W        W 5894   3.096   7.709   6.043  0.1240 -0.0155 -0.1116
 5895W        W 5895   2.200   3.567   3.939 -0.0370  0.0710  0.2595
 5896W        W 5896   9.893   9.511   5.312 -0.1658  0.0670  0.0359
 5897W        W 5897   7.430   2.714   1.877 -0.0935 -0.1541  0.2166
 5898W        W 5898   2.167   2.712   1.469 -0.0561  0.1739 -0.0670
 5899W        W 5899   1.641   5.913   5.767 -0.0048  0.2454 -0.0651
 5900W        W 5900   4.317   4.712   2.659  0.1894  0.2336 -0.1795
 5901W        W 5901   9.111   8.071   1.357  0.1097  0.3655 -0.2539
 5902W        W 5902   2.102   5.020   2.639  0.0743  0.6037 -0.1059
 5903W        W 5903   9.428   6.518   8.452 -0.1165  0.0581  0.0290
 5904W        W 5904   9.281   7.473   5.290  0.3541  0.0370 -0.0832
 5905W        W 5905   2.211   4.753   5.436 -0.0464 -0.2890 -0.2737
 5906W        W 5906   4.213   0.356   1.363  0.5215  0.0518 -0.1008
 5907W        W 5907   2.960   5.516   7.925  0.1876  0.1743 -0.0442
 5908W        W 5908   4.432   6.659   9.327  0.0744 -0.1749  0.0405
 5909W        W 5909   0.210   4.504   8.880  0.1841 -0.3105 -0.0037
 5910W        W 5910   2.117   3.914   7.379 -0.0455 -0.0646 -0.0128
 5911W        W 5911   7.052   7.032   9.841 -0.2107 -0.1315 -0.1303
 5912W        W 5912   2.588   1.039   3.465 -0.2675  0.1367 -0.0450
 5913W        W 5913   9.679   7.707   0.742  0.0383 -0.0908  0.0193
 5914W        W 5914   4.203   0.377   4.595 -0.1130  0.2246  0.1323
 5915W        W 5915   2.934   3.932   1.261 -0.0348  0.3140 -0.2180
 5916W        W 5916   3.742   7.886   8.369 -0.2067  0.0511  0.1098
 5917W        W 5917   7.615   2.521   9.002 -0.5056  0.0603  0.1447
 5918W        W 5918   8.559   8.957   4.789 -0.2146 -0.2607  0.3957
 5919W        W 5919   2.764   1.359   2.987  0.3091 -0.0075  0.0997
 5920W        W 5920   6.601   0.678  10.205 -0.0696 -0.1965 -0.3219
 5921W        W 5921   0.257   2.097   1.498  0.0020  0.1555 -0.0857
 5922W        W 5922   0.805   3.259   1.875  0.1191  0.2784  0.2020
 5923W        W 5923   0.719   0.981   5.730  0.2093  0.0877 -0.3120
 5924W        W 5924   2.172   9.673   8.383 -0.0259  0.2946 -0.1315
 5925W        W 5925   8.318   7.424   3.404 -0.1520  0.0162  0.2792
 5926W        W 5926   6.682   0.322   6.635 -0.2522  0.1029 -0.2215
 5927W        W 5927   4.433   8.132   3.007 -0.0371  0.0484 -0.0603
 5928W        W 5928   3.123   0.337   0.758  0.1287  0.5085 -0.1366
 5929W        W 5929   0.634   4.478   6.333 -0.0188  0.0693 -0.1187
 5930W        W 5930   3.094   6.908   7.917 -0.0645  0.0390  0.1901
 5931W        W 5931   3.157   7.309   0.986  0.0222 -0.0883 -0.1760
 5932W        W 5932   3.238   1.543   6.480  0.3906 -0.1063 -0.0755
 5933W        W 5933   7.144   5.024   1.486 -0.0353  0.0560  0.4074
 5934W        W 5934   9.501   1.174   1.244 -0.1829  0.3024 -0.2485
 5935W        W 5935   0.977   0.191   2.209 -0.1434  0.0777  0.0116
 5936W        W 5936   4.995   3.441   4.353  0.0013  0.0406 -0.1174
 5937W        W 5937   9.959   5.807   4.725 -0.0967  0.2575 -0.1039
 5938W        W 5938   2.196   3.718   3.476  0.2118  0.2578 -0.2149
 5939W        W 5939   8.786   4.788   3.405  0.1882  0.1657 -0.1670
 5940W        W 5940   9.746   4.303   6.233 -0.0239 -0.0493 -0.0697
 5941W        W 5941   2.360   8.333   8.974  0.0481 -0.3946 -0.0347
 5942W        W 5942   7.970   1.987   9.686  0.1982 -0.3715  0.1586
 5943W        W 5943   3.272   9.070   5.472 -0.2128  0.3493 -0.0130
 5944W        W 5944   8.361   8.352   0.971  0.0368  0.2441 -0.3681
 5945W        W 5945   0.440   0.779   1.535  0.1115 -0.1063  0.0984
 5946W        W 5946   2.195   8.715   5.561 -0.0448  0.0917 -0.1371
 5947W        W 5947   8.081   3.610   2.512 -0.0651 -0.2599  0.1339
 5948W        W 5948   5.715   2.348   9.795  0.1142 -0.0531  0.1023
 5949W        W 5949   7.492   1.689   3.736 -0.1852 -0.1875  0.0838
 5950W        W 5950   3.336  10.053   0.180 -0.0522 -0.0705 -0.0262
 5951W        W 5951   8.794   7.757   8.873  0.1449 -0.2279 -0.1341
 5952W        W 5952   2.970   4.008   2.810 -0.1152  0.1308 -0.0487
 5953W        W 5953   5.957   9.725   0.007  0.0971  0.0413 -0.0901
 5954W        W 5954   7.816   5.637   8.188  0.0801 -0.0390  0.0516
 5955W        W 5955   3.684   6.511   6.330 -0.1406  0.2566  0.0387
 5956W        W 5956   4.449  10.134   7.696  0.1204  0.2070 -0.4991
 5957W        W 5957   1.481   2.491   2.289 -0.1976  0.2701 -0.0099
 5958W        W 5958   2.308   8.815   1.321  0.0758 -0.1352 -0.3681
 5959W        W 5959   2.175   4.059   6.830  0.1743  0.0177  0.0565
 5960W        W 5960   4.224   4.251   2.704  0.2512  0.0080  0.2759
 5961W        W 5961   3.882   0.295  10.337  0.2210  0.1850  0.0078
 5962W        W 5962   2.921   4.984   5.296  0.0401 -0.3141 -0.0694
 5963W        W 5963   8.390   7.388   8.956  0.0912 -0.2876  0.2065
 5964W        W 5964   6.197   0.053   5.973  0.3296  0.1756 -0.1048
 5965W        W 5965   8.600   2.267   5.317 -0.1212  0.0945 -0.0950
 5966W        W 5966   2.277   8.672   3.580  0.2976  0.1609 -0.1950
 5967W        W 5967   4.224   4.630   7.623  0.1165  0.0139  0.0636
 5968W        W 5968   9.267   8.700   0.723  0.1698 -0.0466  0.2027
 5969W        W 5969   5.270   7.137   4.825  0.1985 -0.0293 -0.0521
 5970W        W 5970   3.984   9.000   7.574 -0.2508 -0.0052  0.0315
 5971W        W 5971   1.079   9.028   3.524  0.0151  0.1393 -0.0363
 5972W        W 5972   2.928   2.178   5.464  0.0935 -0.2710  0.3734
 5973W        W 5973   8.798   2.890   1.167  0.3535  0.1055 -0.1407
 5974W        W 5974   3.059   4.888   3.932 -0.0841  0.0181  0.1142
 5975W        W 5975   2.916   8.909   9.315  0.3343 -0.0898  0.1415
 5976W        W 5976   6.507   8.008   3.457  0.1134 -0.1192 -0.1909
 5977W        W 5977   0.270   8.468   5.051 -0.1660 -0.1863  0.0375
 5978W        W 5978   4.466   1.019   6.887  0.4357 -0.3340  0.2181
 5979W        W 5979   2.429   1.199   5.437 -0.0615  0.2485 -0.2358
 5980W        W 5980   1.076   8.931   7.909  0.2535  0.0301 -0.1196
 5981W        W 5981   0.134   1.221   1.568 -0.3726  0.1451 -0.0325
 5982W        W 5982   5.739   9.578   4.001  0.0264 -0.1462 -0.0495
 5983W        W 5983   5.557   9.376   5.297  0.2730  0.6433 -0.0644
 5984W        W 5984   2.859   5.709   6.598  0.0760  0.2116 -0.0371
 5985W        W 5985   3.851   2.061   9.728 -0.1442 -0.1285 -0.1390
 5986W        W 5986   9.349   6.657   6.916  0.0144  0.1533 -0.4776
 5987W        W 5987   4.947   9.810   2.067 -0.0462 -0.0874  0.0483
 5988W        W 5988   8.997   4.710   6.785  0.0239  0.0581  0.1466
 5989W        W 5989   3.386   2.329   1.486  0.1161  0.1781  0.0529
 5990W        W 5990   1.730   1.884   0.253  0.1609 -0.2824  0.0682
 5991W        W 5991   3.200   5.860   0.239 -0.1919 -0.1064  0.1333
 5992W        W 5992   4.973   7.623   0.711 -0.1378  0.2065 -0.2338
 5993W        W 5993   3.338   6.444   9.265 -0.1334 -0.0835  0.1446
 5994W        W 5994   2.964   1.178   2.126 -0.0833  0.0635 -0.0125
 5995W        W 5995   0.835   2.380   0.803 -0.0338  0.0974 -0.1334
 5996W        W 5996   2.567   5.965   5.552 -0.0765 -0.2127 -0.4139
 5997W        W 5997   7.921   6.203   1.120  0.0824 -0.2421 -0.0888
 5998W        W 5998   8.105   3.273   9.969 -0.0934  0.2031  0.1848
 5999W        W 5999   1.241   9.727   4.612  0.0227  0.0446  0.0806
 6000W        W 6000   2.397   8.814   0.419  0.2177  0.1894  0.2655
 6001W        W 6001   5.950   1.180   2.297 -0.0324  0.0803 -0.3726
 6002W        W 6002   3.739   4.364   1.083 -0.0124 -0.2153 -0.0837
 6003W        W 6003  10.003   9.719   3.515  0.0931  0.0720  0.0259
 6004W        W 6004   5.653   8.622   7.668 -0.1170  0.3118 -0.1428
 6005W        W 6005   4.316   2.352   9.872  0.0716 -0.0049 -0.2534
 6006W        W 6006   7.491   9.833   8.492 -0.0131  0.3004  0.1815
 6007W        W 6007   4.534   5.057   6.024 -0.2461 -0.0449  0.1370
 6008W        W 6008   9.248   1.061   4.805  0.3139 -0.2160 -0.1700
 6009W        W 6009   5.680   8.358   9.403  0.2459  0.1491 -0.2049
 6010W        W 6010   7.938   6.039   6.695  0.0794 -0.2249 -0.0395
 6011W        W 6011   9.050   7.773   6.825  0.2295  0.1844 -0.0254
 6012W        W 6012   7.436   1.676   7.568  0.1910  0.0606 -0.1655
 6013W        W 6013   8.747   5.672   3.227  0.0654  0.0666  0.3021
 6014W        W 6014   3.682   6.548   3.817 -0.0763  0.0691 -0.0431
 6015W        W 6015   3.332   9.873   7.764  0.1286 -0.1634  0.1811
 6016W        W 6016   0.251   4.086   7.466  0.0568  0.0310 -0.1759
 6017W        W 6017   6.691   4.195   9.792  0.2929  0.2865  0.0028
 6018W        W 6018   1.286   8.165   5.539 -0.2684 -0.0606 -0.0634
 6019W        W 6019   2.303   7.389   2.419  0.1031  0.0199  0.0498
 6020W        W 6020   5.586   8.356   5.105 -0.0743  0.2213  0.0200
 6021W        W 6021   7.550   6.825   8.800  0.0852 -0.2748  0.0734
 6022W        W 6022   6.559  10.071   4.132 -0.0561 -0.2798  0.2156
 6023W        W 6023   4.366   2.232   8.486  0.1115 -0.0162  0.2797
 6024W        W 6024   1.396   7.542   8.229  0.1343 -0.1067  0.1280
 6025W        W 6025   8.163   9.960   7.829 -0.0385  0.1742  0.2791
 6026W        W 6026   1.867   3.072   4.331 -0.0152  0.0060 -0.1178
 6027W        W 6027   6.829   9.516   7.261  0.1012  0.0047 -0.2210
 6028W        W 6028   3.911   4.594   1.919  0.0377  0.2233  0.1694
 6029W        W 6029   0.010   4.988   4.924  0.1688  0.1571 -0.0111
 6030W        W 6030   9.744   1.103   4.600  0.1941 -0.1524 -0.0465
 6031W        W 6031   7.194   2.478   9.284 -0.0208  0.0136 -0.0058
 6032W        W 6032   4.318   9.479   3.480 -0.2614  0.1141 -0.1295
 6033W        W 6033   7.525   3.651   3.881 -0.2063  0.1804  0.2186
 6034W        W 6034   1.302   8.963   6.655  0.2221 -0.0055 -0.0072
 6035W        W 6035   0.895   0.005   6.444  0.0545 -0.0771 -0.0190
 6036W        W 6036   3.565   6.101   6.682 -0.0745  0.0463  0.0488
 6037W        W 6037   1.497   2.242   5.505 -0.1024 -0.1686  0.0229
 6038W        W 6038   8.401   9.641   9.546  0.1443  0.0346 -0.0178
 6039W        W 6039   6.156   4.801   4.859 -0.1119 -0.0313  0.0078
 6040W        W 6040   6.697   9.185   0.630 -0.1016 -0.3395 -0.1605
 6041W        W 6041   0.281   8.343   9.728  0.1774  0.0781 -0.1438
 6042W        W 6042  10.162   4.436   9.156  0.1998 -0.1439  0.1273
 6043W        W 6043   6.166   7.724   9.946 -0.1766 -0.1753  0.3546
 6044W        W 6044   2.055   0.849   4.013  0.1589  0.1999  0.1234
 6045W        W 6045   7.341   2.192   1.674 -0.2815  0.5870  0.2438
 6046W        W 6046   0.512   0.269   7.365  0.0528  0.1873 -0.0323
 6047W        W 6047   8.663   3.432   9.266  0.2274 -0.1353 -0.0589
 6048W        W 6048   5.066   0.672   9.360  0.1653  0.2459  0.2303
 6049W        W 6049   5.782   7.080   1.050 -0.0091 -0.0510  0.1093
 6050W        W 6050   9.961   2.038   6.830 -0.0929  0.1507 -0.3519
 6051W        W 6051   3.031   9.545   0.236 -0.0965 -0.3349 -0.3252
 6052W        W 6052   6.029   1.126   6.934  0.0306  0.1737  0.1663
 6053W        W 6053   9.640   8.672   5.122 -0.1926 -0.4337  0.0626
 6054W        W 6054   5.245   6.859   0.285  0.2084 -0.2286 -0.1163
 6055W        W 6055   6.245   0.469   2.802  0.1795 -0.0440  0.1989
 6056W        W 6056   0.432   5.921   2.954 -0.0373 -0.1348 -0.0641
 6057W        W 6057   4.869   2.661   1.656 -0.0416  0.0816  0.0085
 6058W        W 6058   8.637   9.273   3.044  0.0131  0.2474 -0.0730
 6059W        W 6059   0.791   9.496   6.444  0.2378 -0.0161  0.0038
 6060W        W 6060   2.370   9.008   7.392  0.0520 -0.0144 -0.1403
 6061W        W 6061   2.997   0.853   0.599  0.0843  0.0062 -0.1641
 6062W        W 6062   2.708   8.969   4.489  0.2431 -0.3272  0.0093
 6063W        W 6063   3.632   4.563   0.625  0.2420 -0.1818 -0.0754
 6064W        W 6064   1.696   0.902   5.695  0.0565 -0.2489 -0.3342
 6065W        W 6065   1.435   9.850   6.368 -0.1323  0.0691  0.1249
 6066W        W 6066   3.154   2.131   9.175  0.1650  0.0202 -0.0275
 6067W        W 6067   6.086   5.363   9.308  0.0400  0.1671  0.2609
 6068W        W 6068   0.109   6.803   9.028  0.1285 -0.0331  0.1584
 6069W        W 6069   6.754  10.099   9.692  0.3400 -0.0431 -0.1894
 6070W        W 6070   3.150   9.131   4.083 -0.1378  0.1206 -0.0162
 6071W        W 6071   3.836   8.796   6.677  0.0155  0.2535  0.1759
 6072W        W 6072   5.973   9.267   2.744  0.1655 -0.1586 -0.0346
 6073W        W 6073   9.617   4.477   0.254  0.0770  0.2523  0.2234
 6074W        W 6074   0.424   3.397   5.576 -0.0764 -0.4394 -0.0513
 6075W        W 6075   1.779   4.251   9.689  0.1582 -0.0659  0.1132
 6076W        W 6076   2.852   9.120   6.539  0.0288  0.2000 -0.0613
 6077W        W 6077   7.373   6.457  10.108  0.0990 -0.1853 -0.0055
 6078W        W 6078   8.815   3.450   4.630 -0.0177  0.0617 -0.0204
 6079W        W 6079   4.706   0.021   8.487 -0.2905  0.0719 -0.0138
 6080W        W 6080   9.588   1.481   1.672 -0.3139 -0.3925 -0.0819
 6081W        W 6081   9.299   8.296   9.316  0.3401 -0.2222  0.1617
 6082W        W 6082   3.175   3.503   6.754  0.0061 -0.1370  0.1880
 6083W        W 6083   1.732   2.783   2.647  0.3494 -0.0994 -0.0833
 6084W        W 6084   6.802   1.985   9.777 -0.0270 -0.3511  0.1672
 6085W        W 6085   8.737   3.021   3.096 -0.0695 -0.1846 -0.2695
 6086W        W 6086   0.410   4.793   8.167 -0.3957 -0.1833 -0.0094
 6087W        W 6087   9.563   0.263   0.891  0.0103 -0.1387 -0.4297
 6088W        W 6088   6.800   5.209   9.900 -0.2652 -0.1411 -0.1080
 6089W        W 6089  10.277   4.905   9.389  0.3723 -0.0484  0.0487
 6090W        W 6090   7.368   6.434   0.838  0.0887  0.4134  0.1524
 6091W        W 6091   4.501   2.224   0.197 -0.3623  0.0036 -0.1185
 6092W        W 6092   2.756   7.226  10.089  0.2333  0.0786 -0.3276
 6093W        W 6093   2.156   5.991   2.710  0.0623  0.0156  0.3897
 6094W        W 6094   0.071   8.016  10.011  0.2327 -0.0975 -0.3347
 6095W        W 6095   1.215   9.263   1.491  0.2093  0.1427  0.0929
 6096W        W 6096   6.442   4.450   5.399  0.1512  0.3389 -0.1272
 6097W        W 6097   5.665   7.277   5.140 -0.0081 -0.0281 -0.4133
 6098W        W 6098   6.144   8.091   5.506 -0.1410 -0.0527 -0.1900
 6099W        W 6099   9.575   3.587   0.058 -0.0435 -0.1114  0.4187
 6100W        W 6100   4.590   2.291   4.499 -0.2513  0.0944 -0.0808
 6101W        W 6101   4.442   7.730   3.850 -0.1919 -0.2800  0.1779
 6102W        W 6102   1.572   5.171   4.375  0.2121  0.1327  0.1639
 6103W        W 6103   1.003   2.234   5.493 -0.2418  0.0703  0.0910
 6104W        W 6104   4.931   3.387   9.239  0.1075 -0.0414 -0.0934
 6105W        W 6105   7.833   8.609   9.962  0.1877  0.0534 -0.0557
 6106W        W 6106   2.304   2.903   1.950  0.2665  0.1343  0.0429
 6107W        W 6107   3.405   4.027  10.282  0.0589  0.2873 -0.1159
 6108W        W 6108   2.231   5.099   7.913  0.2749  0.0637 -0.2428
 6109W        W 6109   4.544   9.442   2.176 -0.2255 -0.2187 -0.1940
 6110W        W 6110   2.163   3.055   6.260  0.0984 -0.0007  0.0248
 6111W        W 6111   1.626   7.337   4.957 -0.1058 -0.1231  0.2821
 6112W        W 6112   5.214   6.182   6.990 -0.0964 -0.1908  0.0736
 6113W        W 6113   2.503   0.566   2.597  0.3029  0.2187 -0.4137
 6114W        W 6114   8.294   0.385   8.314  0.0257  0.0113  0.3226
 6115W        W 6115   8.585   6.327   5.087  0.0591 -0.0266 -0.0454
 6116W        W 6116   9.123   4.361   0.951  0.0113 -0.1167 -0.2540
 6117W        W 6117   1.106   9.364   6.858  0.2256 -0.0754 -0.0684
 6118W        W 6118   3.136   8.473   5.227  0.2606  0.1356 -0.4526
 6119W        W 6119   0.591   0.015  10.149 -0.2054 -0.0408 -0.1149
 6120W        W 6120   9.153   6.530   3.951  0.3073 -0.1564 -0.2226
 6121W        W 6121   6.809   5.276   0.080  0.1725  0.1406 -0.3625
 6122W        W 6122   6.372   9.889  10.059  0.3261  0.2233  0.1925
 6123W        W 6123   6.384   7.242   6.230  0.1800  0.3386  0.2059
 6124W        W 6124   3.992   2.033   2.018  0.0875 -0.0630  0.3388
 6125W        W 6125   7.978   2.889   0.650  0.1778  0.1008 -0.0054
 6126W        W 6126   3.601   0.242   1.057 -0.0713 -0.1781 -0.1366
 6127W        W 6127   4.175  10.332   3.012  0.3347  0.2092 -0.2443
 6128W        W 6128   4.588   1.550   6.977  0.0550 -0.1820 -0.0247
 6129W        W 6129   6.823   8.750   2.830 -0.1926 -0.0005 -0.0735
 6130W        W 6130   3.867   5.590   7.402  0.1476 -0.1070 -0.0445
 6131W        W 6131   1.458   6.144   5.372 -0.0524 -0.1524 -0.0235
 6132W        W 6132   5.821   5.422   7.683 -0.2964 -0.0357  0.0622
 6133W        W 6133   4.067   8.354   5.489 -0.1551 -0.0285 -0.1838
 6134W        W 6134   1.910   1.129   4.751  0.0104  0.2091 -0.0570
 6135W        W 6135   8.321   2.871   2.149 -0.0534 -0.1023 -0.0351
 6136W        W 6136   2.150   9.629   0.694 -0.2268 -0.2769 -0.1309
 6137W        W 6137   1.990   7.690   6.342 -0.0293  0.2048 -0.0133
 6138W        W 6138   0.050   0.128   8.044  0.2392 -0.2238  0.0129
 6139W        W 6139   5.899   6.254   1.418  0.3133  0.1149  0.0028
 6140W        W 6140   3.734   3.180   6.005 -0.0776 -0.0075  0.0769
 6141W        W 6141   9.929   9.112   4.929 -0.1122  0.2638  0.0084
 6142W        W 6142   7.624   7.340   8.265  0.1420 -0.0668 -0.1131
 6143W        W 6143   1.138   4.225   8.102  0.1014  0.0572  0.3037
 6144W        W 6144   3.862   1.541   8.496 -0.0554  0.1159  0.1565
 6145W        W 6145   2.946   8.305   3.203 -0.0073 -0.2665 -0.1785
 6146W        W 6146   1.865   0.085   5.126 -0.1219 -0.1044  0.4009
 6147W        W 6147   9.115   2.585   2.004  0.4048 -0.1613  0.0774
 6148W        W 6148   2.686   7.735   2.407 -0.2495  0.0052  0.0649
 6149W        W 6149   2.258   3.101   5.487 -0.0439 -0.1671  0.0787
 6150W        W 6150   7.490   1.561   4.859  0.1230 -0.0416 -0.1183
 6151W        W 6151   7.321   6.448   5.178  0.2116 -0.2219  0.2440
 6152W        W 6152   6.163   5.620   6.136 -0.2385 -0.1707  0.0531
 6153W        W 6153   8.300   0.222  10.023  0.1292 -0.0362  0.2161
 6154W        W 6154   3.188   3.048   2.403 -0.0122  0.1809  0.0782
 6155W        W 6155   4.532   2.438   2.734 -0.1951  0.2001  0.0622
 6156W        W 6156   2.427   2.340   1.171  0.2866  0.2540 -0.0814
 6157W        W 6157   1.984   9.103   0.701 -0.1485  0.1471  0.1958
 6158W        W 6158   3.718   8.712   2.356  0.0956 -0.0871 -0.0418
 6159W        W 6159   8.883   0.909   6.387  0.0791 -0.0798  0.0593
 6160W        W 6160   9.870   0.734   0.095  0.1211  0.1419 -0.2593
 6161W        W 6161   8.991   6.721   0.234  0.2532 -0.2054  0.0888
 6162W        W 6162   4.484   0.862   5.284  0.0004 -0.0379  0.0429
 6163W        W 6163   5.386   7.683   9.188 -0.1029 -0.2218  0.0520
 6164W        W 6164   3.261   4.709   1.725 -0.0147 -0.0881  0.0985
 6165W        W 6165   3.973   3.058   9.192  0.4382 -0.2541  0.1180
 6166W        W 6166   7.848   7.715   5.657 -0.0799 -0.2064 -0.0832
 6167W        W 6167   8.050   9.742   2.408  0.0206  0.0565 -0.1083
 6168W        W 6168   7.669   2.599   8.001 -0.1526 -0.4143 -0.0540
 6169W        W 6169   6.116   4.203   9.770 -0.1447 -0.0032  0.0154
 6170W        W 6170   2.722   8.347   3.649  0.0011  0.4093  0.2882
 6171W        W 6171   7.993   7.218   5.581 -0.1808  0.1701 -0.1295
 6172W        W 6172   2.925  10.183   3.528 -0.3362  0.0019  0.0825
 6173W        W 6173   9.016   7.072   1.300 -0.2939  0.0055  0.0122
 6174W        W 6174   5.107   8.763   6.554  0.3016  0.1283 -0.1381
 6175W        W 6175   7.136   2.237   2.132  0.0898 -0.0523  0.0504
 6176W        W 6176   4.129   5.885   6.859 -0.1997  0.0191  0.0567
 6177W        W 6177   7.416   4.679   0.117 -0.3177  0.0114  0.2153
 6178W        W 6178   8.666   4.530   5.004 -0.0062 -0.0066  0.2995
 6179W        W 6179   4.847   2.476   8.382 -0.1357 -0.0386 -0.0773
 6180W        W 6180   0.472   6.524   8.773 -0.2179 -0.4432 -0.1586
 6181W        W 6181   1.592   4.701   6.967  0.1706 -0.0737  0.0913
 6182W        W 6182   9.471   6.888   8.831  0.0288  0.4188 -0.1921
 6183W        W 6183   4.036   5.715   1.374 -0.0045  0.0213 -0.1888
 6184W        W 6184   8.264   7.465   5.210  0.1795  0.3237 -0.1199
 6185W        W 6185   9.758   0.448   6.216 -0.1287  0.0521 -0.1930
 6186W        W 6186   7.076   8.220   9.578 -0.0136  0.0725  0.0868
 6187W        W 6187   1.139   8.052   0.770  0.1984  0.2833 -0.1923
 6188W        W 6188   4.620   4.553   9.708  0.1020 -0.0791  0.0859
 6189W        W 6189   1.840   2.800   8.442 -0.0348 -0.0809 -0.3417
 6190W        W 6190   3.522   3.375   9.717 -0.0730  0.0251 -0.0951
 6191W        W 6191   1.814   0.398  10.096  0.0443 -0.1146  0.1346
 6192W        W 6192   6.624   8.473   0.064 -0.0770  0.1756  0.0045
 6193W        W 6193   1.327   4.169   6.320  0.1218  0.3199 -0.0764
 6194W        W 6194   0.720   2.509   4.162  0.1932 -0.0572  0.2087
 6195W        W 6195   5.862   6.305   2.306 -0.1012 -0.0417  0.0730
 6196W        W 6196   7.094   5.918   7.192  0.1207  0.1438 -0.1949
 6197W        W 6197   3.191   4.492   4.358 -0.0975 -0.2158  0.3273
 6198W        W 6198   2.919   6.903   3.453  0.0866 -0.1305  0.0756
 6199W        W 6199   6.982   2.989   0.483  0.0543 -0.1105  0.1545
 6200W        W 6200   5.890   7.117   8.254  0.2014  0.2824 -0.0677
 6201W        W 6201   2.730   0.204   9.665  0.2001  0.1272  0.1994
 6202W        W 6202   8.334   1.287   9.026 -0.2942 -0.1892  0.0128
 6203W        W 6203   8.031   9.041   0.334  0.1126 -0.1092 -0.1028
 6204W        W 6204   2.708   0.766   6.534  0.2930  0.1113 -0.2368
 6205W        W 6205   9.629   0.095   6.984 -0.2492 -0.4650 -0.0343
 6206W        W 6206   8.223   7.916   5.036 -0.3410  0.0384 -0.0531
 6207W        W 6207   5.302   9.858   4.218  0.0347  0.2709  0.2165
 6208W        W 6208   0.491   2.984   6.442 -0.0659  0.3541  0.1802
 6209W        W 6209   4.958   0.725   2.259  0.1036  0.0381  0.0025
 6210W        W 6210   5.999   6.654   2.586 -0.0257 -0.2466  0.0547
 6211W        W 6211   3.611   9.803   7.390 -0.1354  0.3872 -0.0209
 6212W        W 6212   2.347   2.478   3.748  0.0824  0.0738  0.1605
 6213W        W 6213   2.695   8.137   8.647 -0.1386  0.0068 -0.0902
 6214W        W 6214   8.966   7.650   3.873 -0.3501  0.0330 -0.0317
 6215W        W 6215   8.108   6.515   8.077 -0.2880 -0.1435 -0.0994
 6216W        W 6216   0.878   8.437   2.462 -0.5138 -0.0357  0.0096
 6217W        W 6217   3.040   0.549   2.739 -0.1307 -0.0384 -0.1209
 6218W        W 6218   2.579   7.326   4.001 -0.0158 -0.2333  0.0530
 6219W        W 6219   0.092   2.438  10.208  0.2097 -0.0197  0.2812
 6220W        W 6220   9.855   3.535   3.016 -0.0298  0.3148 -0.3130
 6221W        W 6221   1.729   7.522   5.413 -0.1357  0.0531 -0.2806
 6222W        W 6222   0.343   3.591   0.505  0.0733  0.0081  0.2795
 6223W        W 6223   8.903   1.232   2.916 -0.0403  0.2233 -0.1649
 6224W        W 6224   6.741   3.220  10.029 -0.0613  0.0974  0.1664
 6225W        W 6225   0.782   5.620   5.818 -0.0586  0.1714  0.1080
 6226W        W 6226   1.946   5.501   3.596  0.2390  0.1896  0.2752
 6227W        W 6227   8.156   6.652   1.424 -0.0942  0.0834  0.0991
 6228W        W 6228   1.754   5.621   8.658 -0.3414 -0.2508  0.0424
 6229W        W 6229   4.258   2.213   8.966 -0.1361 -0.3019 -0.1198
 6230W        W 6230   0.225   2.216   4.194 -0.1806  0.0151  0.1474
 6231W        W 6231   3.190   6.824   9.998 -0.1088 -0.2213  0.2942
 6232W        W 6232   4.934   8.683   3.950 -0.0998 -0.1024 -0.0695
 6233W        W 6233   0.025   7.081   3.674  0.0508  0.2488 -0.1153
 6234W        W 6234   0.557   7.954   3.387 -0.1462 -0.1989 -0.1126
 6235W        W 6235  10.210   0.435   0.936  0.0806 -0.2284 -0.2043
 6236W        W 6236   8.969   3.526   2.210  0.0227  0.1315  0.0749
 6237W        W 6237   4.328   2.036   6.719  0.1946  0.2668  0.1072
 6238W        W 6238   8.117   9.054   9.310  0.2045 -0.2134  0.0015
 6239W        W 6239   3.566   7.658   4.305 -0.0810  0.0496  0.0875
 6240W        W 6240   0.928   3.015   4.456 -0.1035 -0.1818  0.1391
 6241W        W 6241   6.013   2.691   2.222  0.2189  0.0766 -0.1284
 6242W        W 6242   2.864   7.351   8.766 -0.0099  0.3035 -0.1495
 6243W        W 6243   8.377   6.993   8.644 -0.0328  0.1516 -0.0605
 6244W        W 6244   3.038   5.273  10.119  0.2489 -0.1692 -0.0374
 6245W        W 6245   2.044   4.889   7.473  0.0026  0.2099  0.1929
 6246W        W 6246   3.564   6.068   9.476 -0.0711 -0.0551  0.1592
 6247W        W 6247   1.019   3.122   7.126 -0.0509 -0.1647 -0.0548
 6248W        W 6248   2.477   2.060   8.580 -0.0091  0.2748 -0.1587
 6249W        W 6249   2.277   7.975   5.044 -0.2991  0.1371  0.1517
 6250W        W 6250   9.725   9.228   1.933 -0.3830  0.0383 -0.2453
 6251W        W 6251  10.295  10.008   3.210  0.2420 -0.3769 -0.0371
 6252W        W 6252   4.997   6.686   9.775  0.5617  0.0776  0.2185
 6253W        W 6253   9.945   5.093   3.522 -0.2418 -0.2144 -0.0095
 6254W        W 6254   5.212   4.622   3.368  0.1779 -0.1659 -0.0915
 6255W        W 6255   6.985   2.897   8.002 -0.1785  0.0944 -0.0100
 6256W        W 6256  10.261   9.494   3.129  0.1140 -0.1200 -0.3285
 6257W        W 6257   7.972   8.901   0.827 -0.0882 -0.0762 -0.0649
 6258W        W 6258   8.864   0.830  10.024 -0.1651  0.1231 -0.1796
 6259W        W 6259   3.721   2.419   5.641 -0.0918  0.0433  0.1097
 6260W        W 6260   4.277   3.791  10.326 -0.0288 -0.0786 -0.1005
 6261W        W 6261   3.310   2.231   5.169  0.0887  0.0391 -0.2498
 6262W        W 6262   4.246   7.524   0.230 -0.2256  0.2110  0.1945
 6263W        W 6263   6.267   0.106   5.045 -0.0585  0.0194 -0.0971
 6264W        W 6264   6.983   5.062   6.877  0.1202  0.1732  0.1213
 6265W        W 6265   3.356   0.768   1.801 -0.3304  0.0926  0.0089
 6266W        W 6266   9.342   4.588   9.952  0.0273 -0.1612  0.0167
 6267W        W 6267   0.192   1.665   1.800  0.3389  0.1865 -0.2734
 6268W        W 6268   2.050   9.964   2.640  0.0899  0.3778 -0.3222
 6269W        W 6269   7.184   9.572   0.509  0.2875 -0.8464 -0.1396
 6270W        W 6270   3.227   9.568   6.605 -0.1275  0.0718  0.0603
 6271W        W 6271   8.951   4.238   6.984 -0.0585 -0.1723  0.0916
 6272W        W 6272   7.261   0.174   7.326  0.0437 -0.0175 -0.0151
 6273W        W 6273   9.975   5.452   2.135 -0.4793  0.2370 -0.2501
 6274W        W 6274   4.110   5.993   9.572  0.0908  0.1784  0.4958
 6275W        W 6275  10.290   3.303   3.341 -0.0986  0.2291 -0.3095
 6276W        W 6276   3.789   3.780  10.167  0.2942  0.0378  0.0421
 6277W        W 6277   4.770   7.372   3.758  0.3391 -0.0543  0.1044
 6278W        W 6278   6.863   4.223   2.967 -0.3402 -0.1534 -0.0107
 6279W        W 6279   1.227   3.480   2.185 -0.1494 -0.0802 -0.0884
 6280W        W 6280   8.759   5.013   8.403 -0.1139  0.1422 -0.0278
 6281W        W 6281   1.432   2.171  10.283  0.1435  0.1048  0.2279
 6282W        W 6282   4.244   3.910   5.020 -0.0156 -0.2282 -0.3469
 6283W        W 6283   4.775   4.248   3.033 -0.0605  0.0901 -0.3554
 6284W        W 6284   2.379   6.095   4.552  0.0202  0.1911 -0.2434
 6285W        W 6285   1.977   5.845   6.592  0.0981  0.0894  0.0096
 6286W        W 6286   1.603   9.445   6.614  0.0252  0.0159  0.2021
 6287W        W 6287   5.492   2.353   0.014  0.0723  0.0300  0.2416
 6288W        W 6288   0.318   4.374   1.291 -0.0239  0.0507  0.1690
 6289W        W 6289   2.575   5.265   1.088  0.1512 -0.1640 -0.0919
 6290W        W 6290   4.958   5.417   3.622 -0.3002  0.1918  0.0994
 6291W        W 6291   6.731   3.797   2.697 -0.0120  0.2436 -0.1526
 6292W        W 6292   3.278   0.206   0.330 -0.1238 -0.1229  0.1283
 6293W        W 6293   8.912   0.316   5.311  0.0191  0.0984  0.2390
 6294W        W 6294   0.559   1.070   2.511  0.3278  0.0434  0.4327
 6295W        W 6295   2.205   1.614   6.104 -0.2353 -0.0523  0.0470
 6296W        W 6296   0.781   5.591   5.039  0.3414  0.0493 -0.0266
 6297W        W 6297   4.104   9.137   6.908  0.4034 -0.2126  0.5173
 6298W        W 6298   4.371   9.653   8.428 -0.0962  0.2631 -0.0187
 6299W        W 6299   0.873   1.442   5.605  0.1226 -0.0220  0.1864
 6300W        W 6300   5.060   6.114   9.677 -0.0531  0.0449 -0.1420
 6301W        W 6301   1.213   4.234   2.494  0.1944  0.1138  0.0755
 6302W        W 6302   8.193   1.552  10.278  0.2001  0.0938 -0.0844
 6303W        W 6303   6.610   5.670   5.035 -0.0324 -0.1010  0.1942
 6304W        W 6304   6.317   5.991   3.243  0.0707  0.1454  0.0343
 6305W        W 6305   5.442   7.338   4.313  0.0210  0.5703  0.0873
 6306W        W 6306   9.900   4.919   4.796  0.0714  0.2547  0.0605
 6307W        W 6307   4.567   9.127   7.173 -0.2091  0.2995  0.0752
 6308W        W 6308   3.625   3.771   1.740 -0.1055 -0.1374  0.1426
 6309W        W 6309   7.603   2.110   9.302 -0.2550 -0.0978  0.0152
 6310W        W 6310   4.064   0.738   4.248 -0.0875 -0.2136 -0.1297
 6311W        W 6311   4.349   9.626   8.948  0.1265  0.1083 -0.1226
 6312W        W 6312   7.666   7.356   2.010  0.0727  0.3023  0.0991
 6313W        W 6313   1.756   4.363   8.242  0.0805  0.0531  0.4935
 6314W        W 6314   9.921   2.501   4.864  0.0286  0.1768  0.0606
 6315W        W 6315   3.794   0.071   4.646  0.0713  0.0791  0.0564
 6316W        W 6316   8.961   7.348   4.213  0.1304  0.0595  0.2085
 6317W        W 6317   5.560   3.402   7.863  0.2962 -0.5086  0.0181
 6318W        W 6318   0.485   3.740   9.478 -0.2646 -0.1533 -0.0462
 6319W        W 6319   5.859   7.504   0.729  0.2460 -0.2453  0.0770
 6320W        W 6320   8.697   7.845   9.616  0.0745 -0.0123  0.1120
 6321W        W 6321   7.253   5.563   9.189  0.0829 -0.0027 -0.1665
 6322W        W 6322   4.861   7.739   2.263  0.3304  0.1350  0.0563
 6323W        W 6323   2.838   9.956   3.002 -0.1887 -0.1042  0.0198
 6324W        W 6324   8.614   5.747   1.225 -0.0987  0.0069 -0.4075
 6325W        W 6325   8.527   0.242   1.042  0.3993  0.0426  0.3223
 6326W        W 6326   2.001   9.139   3.833  0.1022 -0.2585 -0.4102
 6327W        W 6327   5.716   7.786   7.365 -0.2212  0.3121  0.3321
 6328W        W 6328   0.122   9.690   9.089  0.1102  0.2582  0.3997
 6329W        W 6329   0.032   1.821   6.618  0.2873  0.1518  0.2274
 6330W        W 6330   3.507   2.346   9.585 -0.0532  0.0300 -0.2438
 6331W        W 6331   1.522   9.972   3.894 -0.2540  0.0985 -0.1038
 6332W        W 6332   6.861   8.570   4.677  0.1644 -0.3110 -0.0124
 6333W        W 6333   0.577   2.111  10.248 -0.1668 -0.2500 -0.2305
 6334W        W 6334   2.837   9.668   7.149  0.0606  0.0894  0.0003
 6335W        W 6335   0.445   0.751   0.127 -0.1151 -0.0844  0.2425
 6336W        W 6336   4.516   2.573   1.336  0.0394 -0.3435  0.3678
 6337W        W 6337   4.496   5.048   6.909 -0.1086  0.0909  0.2449
 6338W        W 6338   6.984   9.366  10.028  0.1713 -0.1662  0.0841
 6339W        W 6339   5.565   5.183   2.636  0.0242  0.1368  0.0271
 6340W        W 6340   8.722   0.032   6.892  0.1691 -0.0385  0.3337
 6341W        W 6341   5.589   9.715   2.553 -0.2899 -0.1561 -0.2465
 6342W        W 6342   6.163   7.910   0.637  0.1955 -0.1125 -0.0417
 6343W        W 6343   5.898   2.637   8.946  0.0932  0.0710  0.3836
 6344W        W 6344   4.930   6.622   9.119 -0.2562  0.0519  0.0173
 6345W        W 6345   9.393   3.385   6.597 -0.1131  0.0181  0.0366
 6346W        W 6346   1.460   3.868   8.366 -0.2601  0.1172 -0.0567
 6347W        W 6347   2.832   0.604   3.370  0.2793  0.1991 -0.3227
 6348W        W 6348   8.894   7.161  10.179  0.1893  0.0367 -0.0264
 6349W        W 6349   6.117   3.572   4.272  0.0859 -0.3651  0.2221
 6350W        W 6350   1.184   2.449   1.229  0.2474 -0.1189  0.2835
 6351W        W 6351   5.501   9.198   0.623 -0.1458 -0.2908 -0.1508
 6352W        W 6352   4.490   2.725   3.176  0.2636 -0.0615 -0.4541
 6353W        W 6353   6.128   7.508   5.349 -0.3882  0.0662 -0.0653
 6354W        W 6354   8.744   8.479   0.145 -0.0415 -0.0930  0.0338
 6355W        W 6355   7.329   1.998   8.364  0.0876 -0.0449 -0.1803
 6356W        W 6356   7.911   4.976   8.508  0.1781 -0.1622  0.1421
 6357W        W 6357   0.560   6.877   2.603 -0.2943  0.1199 -0.0610
 6358W        W 6358   9.890   2.074   3.504 -0.0086  0.1115 -0.3854
 6359W        W 6359   3.218   0.945   8.396 -0.1765 -0.3491  0.1211
 6360W        W 6360   4.105   3.686   0.938  0.0320 -0.1712 -0.2241
 6361W        W 6361   8.037   3.876   9.994 -0.2289  0.2432 -0.5597
 6362W        W 6362   7.095   3.558   1.873 -0.1874 -0.3374 -0.1310
 6363W        W 6363   1.925   2.041   4.428  0.0798  0.1532 -0.0325
 6364W        W 6364   8.082   0.972   4.057  0.0155  0.1034  0.1296
 6365W        W 6365   9.700   5.853   6.608  0.2962  0.1755 -0.1027
 6366W        W 6366   5.926   2.532   5.697  0.1023  0.1094 -0.1168
 6367W        W 6367   1.791   5.716   3.041  0.1521  0.1697 -0.0678
 6368W        W 6368   4.977   7.080   5.658  0.1453 -0.0664 -0.0754
 6369W        W 6369   7.072   4.923   2.791  0.0206 -0.1072 -0.0469
 6370W        W 6370   3.484  10.098   3.576 -0.2014 -0.2134 -0.0962
 6371W        W 6371   5.244   2.272   5.140  0.2440 -0.2684 -0.2399
 6372W        W 6372   5.998   0.556   0.553 -0.2367  0.1464  0.0497
 6373W        W 6373   0.160   6.152  10.245 -0.0168 -0.0110  0.0808
 6374W        W 6374   2.266   5.014   6.445 -0.0274  0.0434  0.0364
 6375W        W 6375   6.330   6.976   8.856 -0.0807  0.1793 -0.0666
 6376W        W 6376   9.669   8.982   3.324 -0.0400 -0.0114 -0.3132
 6377W        W 6377   7.306   8.480   0.832  0.1465  0.1280  0.4538
 6378W        W 6378  10.014   2.841   5.972 -0.1741  0.3111  0.0764
 6379W        W 6379   3.857   6.995   4.904  0.0059  0.2796  0.0478
 6380W        W 6380   6.488   5.446   2.389 -0.2454 -0.0506 -0.2684
 6381W        W 6381   5.240   3.109   2.077  0.1791  0.1959 -0.2735
 6382W        W 6382   9.795   6.562   5.132  0.2207  0.5460  0.1770
 6383W        W 6383   0.906   0.537   6.195  0.0816  0.0577  0.1747
 6384W        W 6384   9.546   3.995   4.779  0.0111 -0.0884  0.3922
 6385W        W 6385   8.447   7.681   8.475  0.2243 -0.1529 -0.0672
 6386W        W 6386   3.566   7.964   6.019 -0.0833 -0.1550  0.0985
 6387W        W 6387  10.319   3.111   5.608 -0.2798  0.1184  0.1798
 6388W        W 6388  10.277   6.586  10.017  0.1938  0.3080 -0.1007
 6389W        W 6389   7.615   8.693   6.648 -0.1315 -0.1675  0.2885
 6390W        W 6390   8.078   7.434   2.999  0.0030 -0.5055  0.2695
 6391W        W 6391   7.636   5.508   0.583  0.1061 -0.0344 -0.0136
 6392W        W 6392   3.228   1.759   7.628 -0.1184  0.1853  0.0608
 6393W        W 6393   8.805   5.207   0.771 -0.3706  0.1241 -0.0985
 6394W        W 6394   4.140   7.387   5.738  0.1685 -0.0326 -0.0318
 6395W        W 6395   7.333   0.674   2.753 -0.1066  0.1375 -0.0130
 6396W        W 6396   1.535   2.007   3.103  0.0116  0.1849  0.1037
 6397W        W 6397   4.090   9.514   7.534 -0.2576  0.3041 -0.3777
 6398W        W 6398   1.612   5.289   3.285 -0.0745 -0.0078  0.2973
 6399W        W 6399   0.479   6.933   8.170 -0.0040 -0.0424  0.1843
 6400W        W 6400   2.607   4.764   9.239 -0.1457  0.1224 -0.0582
 6401W        W 6401  10.114   2.152   1.057  0.1620  0.1404 -0.0071
 6402W        W 6402   6.403   5.983   2.322 -0.1621  0.0059 -0.1583
 6403W        W 6403   6.006   0.827   3.705 -0.2662  0.0317 -0.1034
 6404W        W 6404   5.857   4.700   2.769 -0.0036 -0.0343 -0.4325
 6405W        W 6405   7.998   8.932   7.946  0.0302 -0.0075 -0.0444
 6406W        W 6406   6.092   3.130   4.861 -0.2529  0.0539  0.3633
 6407W        W 6407   3.086   5.823   1.579  0.1731  0.0663  0.2280
 6408W        W 6408   4.749   2.137   1.366  0.1358  0.0843  0.2911
 6409W        W 6409   9.174   8.551  10.128  0.1576 -0.0972  0.0021
 6410W        W 6410   5.912   0.307   5.401 -0.2145  0.2007  0.4385
 6411W        W 6411   1.158   2.356   5.058 -0.0833 -0.0159  0.1924
 6412W        W 6412   5.396   6.532   1.438  0.1848  0.0418  0.0660
 6413W        W 6413   4.133   1.627   7.978  0.2477 -0.2294 -0.0793
 6414W        W 6414   8.465   5.148   5.752  0.0208 -0.1731 -0.1333
 6415W        W 6415   2.056   3.655   2.626  0.0097 -0.2768 -0.1703
 6416W        W 6416   4.451   1.340   1.587 -0.2665  0.0388  0.4642
 6417W        W 6417   4.891   1.650   5.691  0.1538 -0.3932 -0.2190
 6418W        W 6418   7.265   3.757   7.349 -0.0822 -0.1517 -0.1897
 6419W        W 6419   9.216   0.362   4.739  0.0786  0.0291  0.0910
 6420W        W 6420   0.502   2.531   9.899 -0.0923  0.0123 -0.2971
 6421W        W 6421   8.903   4.930   0.214  0.1733 -0.0514  0.0811
 6422W        W 6422   8.125   0.505   5.686 -0.2718  0.0550 -0.1965
 6423W        W 6423   3.703   7.627   7.372 -0.0380 -0.0948 -0.1053
 6424W        W 6424   1.706   9.061   1.587  0.1358  0.3692  0.1461
 6425W        W 6425   9.980   7.375   9.863 -0.5779  0.0749 -0.1900
 6426W        W 6426   7.220   4.069   3.921  0.0911  0.0721 -0.0460
 6427W        W 6427   8.243   1.254   3.664 -0.0653 -0.1766  0.3772
 6428W        W 6428   8.328   1.394   6.861 -0.2025  0.1421 -0.1539
 6429W        W 6429   3.518   5.359   3.110  0.1274  0.1087 -0.0788
 6430W        W 6430   7.160   7.260   4.363 -0.2192  0.0617 -0.0787
 6431W        W 6431   2.103   5.835   6.039 -0.0965  0.0552 -0.3040
 6432W        W 6432   6.113   3.902   2.654 -0.0761  0.2238 -0.1558
 6433W        W 6433   2.184   7.540   3.628 -0.0196 -0.0001  0.2231
 6434W        W 6434   9.634   1.174   7.368 -0.1481  0.0114 -0.0222
 6435W        W 6435   4.659   0.712   6.550 -0.2351  0.0225 -0.0245
 6436W        W 6436   2.366   0.829   9.704  0.0705 -0.2386  0.3848
 6437W        W 6437   5.999   3.408   6.634 -0.1788  0.1311  0.2316
 6438W        W 6438   4.900   8.915   8.258 -0.0416  0.0649  0.0089
 6439W        W 6439   0.170   6.289   9.110 -0.0027  0.1464 -0.0308
 6440W        W 6440   7.097   0.023   6.282 -0.1101 -0.1006 -0.1366
 6441W        W 6441   6.050  10.260   4.624  0.1389  0.1386  0.0220
 6442W        W 6442   9.234   7.964   8.797 -0.4792 -0.0790  0.2285
 6443W        W 6443   1.424   0.607   8.769  0.4008 -0.0552 -0.2644
 6444W        W 6444   3.434   4.320   2.971  0.3240 -0.0314 -0.1674
 6445W        W 6445   4.025   6.517   8.292 -0.1836  0.1883  0.0816
 6446W        W 6446   9.205   2.848   9.969  0.0234  0.3235 -0.1072
 6447W        W 6447   7.965   9.823   1.874  0.1420 -0.1521  0.1994
 6448W        W 6448  10.065   4.970   5.299  0.1221 -0.2305  0.0163
 6449W        W 6449   1.501   0.827  10.220  0.1604  0.0113  0.0060
 6450W        W 6450   4.455   5.075   0.148  0.0176  0.1355  0.2098
 6451W        W 6451   7.241   0.305   7.842  0.0198  0.0601 -0.0660
 6452W        W 6452   9.660   5.158   1.194  0.0506  0.0267 -0.1801
 6453W        W 6453   2.911   6.602   2.073 -0.1789 -0.2432  0.2196
 6454W        W 6454   0.912  10.090   8.560  0.0050 -0.1032  0.1014
 6455W        W 6455   4.278   5.630   0.912  0.1289  0.0453 -0.1456
 6456W        W 6456   1.181   7.061   2.462 -0.2350  0.0707  0.1289
 6457W        W 6457   2.636   6.903   8.725 -0.2503  0.1624  0.0655
 6458W        W 6458   4.277   3.110   2.843  0.0061  0.0617 -0.2762
 6459W        W 6459   2.564   7.697   9.889 -0.1499 -0.1795 -0.2119
 6460W        W 6460   7.802   8.864   2.149 -0.0506  0.0529  0.0498
 6461W        W 6461   7.101   8.773   3.265 -0.1407  0.0360  0.2465
 6462W        W 6462   7.791   1.265   3.348 -0.0995 -0.1462  0.0801
 6463W        W 6463   1.616   4.932   9.148 -0.0302  0.2503 -0.1258
 6464W        W 6464   7.542   6.882   0.573  0.0852 -0.0419  0.1100
 6465W        W 6465   7.251   1.905   3.336  0.1904  0.1295 -0.1895
 6466W        W 6466   0.379   5.382   4.275 -0.0649 -0.0215 -0.2052
 6467W        W 6467   9.487   2.393   3.292 -0.1124 -0.1700  0.1232
 6468W        W 6468   4.537   2.773   3.860 -0.0545  0.1124 -0.1474
 6469W        W 6469   0.101   4.064   9.230 -0.2421  0.0532  0.2320
 6470W        W 6470   4.896   6.566   5.886  0.0192  0.0543 -0.0447
 6471W        W 6471   4.011   5.525   4.668 -0.2828  0.2272  0.0858
 6472W        W 6472   2.725   4.257   8.530  0.2831 -0.0541 -0.0403
 6473W        W 6473   0.158   5.735   9.034 -0.1314  0.0294  0.3086
 6474W        W 6474   4.602  10.337   5.226  0.0621  0.0554  0.2716
 6475W        W 6475   3.349   8.519   0.147  0.0120  0.4247 -0.2663
 6476W        W 6476   0.645   5.177   6.049  0.0546 -0.3065  0.0196
 6477W        W 6477   0.761   6.049   3.944  0.0494 -0.1876 -0.3671
 6478W        W 6478   8.099   0.994   5.885 -0.2150 -0.0945 -0.1966
 6479W        W 6479   6.337   4.739   0.465  0.1959 -0.2737 -0.1546
 6480W        W 6480   9.628   0.083   5.845  0.0994  0.2088  0.2474
 6481W        W 6481   2.205   5.065   9.782  0.0457 -0.3004  0.3083
 6482W        W 6482   2.549   5.194   0.099  0.0748 -0.3106  0.1825
 6483W        W 6483   6.526   2.417   1.523  0.0121  0.0724  0.0019
 6484W        W 6484   9.262  10.282   3.442 -0.1473  0.0203 -0.2557
 6485W        W 6485   0.296   2.211   0.954  0.2187  0.1366  0.2359
 6486W        W 6486   2.203   8.603   9.779  0.1638  0.0859  0.2218
 6487W        W 6487   4.433   1.433   9.667  0.2107  0.0271  0.0559
 6488W        W 6488   3.689   3.517   1.145 -0.1128  0.1806  0.1513
 6489W        W 6489   7.253   0.517   5.121 -0.0974  0.2438 -0.0921
 6490W        W 6490   2.752   3.395   1.323 -0.2905  0.0742 -0.2627
 6491W        W 6491   2.313   2.028   1.992  0.0169 -0.1111 -0.2020
 6492W        W 6492   0.153   6.543   3.377  0.1691 -0.0484  0.1783
 6493W        W 6493   4.422   0.227   7.966  0.0568 -0.2097  0.2639
 6494W        W 6494   6.196   9.016   2.307  0.0759 -0.2951  0.2177
 6495W        W 6495   5.329   4.188   2.621  0.0147  0.2660  0.2192
 6496W        W 6496   2.349   7.444   4.475  0.2741  0.1426 -0.5097
 6497W        W 6497   2.240   0.456   5.125  0.1966 -0.0840 -0.2342
 6498W        W 6498   7.052   4.963   5.048 -0.2845  0.0932 -0.0437
 6499W        W 6499   0.707   9.054   6.700  0.0478 -0.1707 -0.0120
 6500W        W 6500   5.310   6.748   3.951 -0.1231  0.2825 -0.1733
 6501W        W 6501   5.471   9.009   6.265  0.3112  0.1626  0.2122
 6502W        W 6502   9.837   6.491   9.726 -0.1703 -0.2310 -0.1772
 6503W        W 6503   8.394   9.528   3.486  0.1897  0.0079  0.1366
 6504W        W 6504   7.107   9.224   3.349  0.1250 -0.1060 -0.1787
 6505W        W 6505   5.266   7.907   6.754  0.1309 -0.0755  0.1782
 6506W        W 6506   8.625   7.025   4.511 -0.1475  0.2000  0.1440
 6507W        W 6507   8.639   1.620   7.528 -0.2063 -0.1095  0.1589
 6508W        W 6508   0.469   0.996   5.336  0.0711 -0.5436  0.0322
 6509W        W 6509   9.076   7.572   0.456  0.3557 -0.1969 -0.5028
 6510W        W 6510   9.461   0.674   1.200  0.2064 -0.0969  0.1136
 6511W        W 6511   0.278  10.215   7.061 -0.0239 -0.6437  0.0167
 6512W        W 6512   7.824   1.394   3.888 -0.0603 -0.1416  0.0474
 6513W        W 6513   8.583   2.613   8.735  0.0247 -0.0803  0.2058
 6514W        W 6514   9.662   5.577   3.613 -0.2003 -0.6168 -0.1740
 6515W        W 6515   8.358   3.593   4.382  0.0026  0.2607 -0.0033
 6516W        W 6516   0.255   1.776   5.953 -0.1289  0.3847 -0.0399
 6517W        W 6517   0.323   1.913   9.074  0.1683  0.0491 -0.0906
 6518W        W 6518   1.848   7.369   6.781  0.1274 -0.0502 -0.0992
 6519W        W 6519   9.028   0.853   3.233  0.0799 -0.0098  0.1176
 6520W        W 6520   9.701   8.318   0.483 -0.3581 -0.1498 -0.0480
 6521W        W 6521   5.806   5.099   7.248  0.2946  0.1238  0.1770
 6522W        W 6522   2.980   9.814   5.719 -0.0280  0.0532  0.3667
 6523W        W 6523   0.446   1.149   1.071  0.2266  0.0697  0.0792
 6524W        W 6524   9.030   9.814   6.572  0.2064  0.0158 -0.4322
 6525W        W 6525   8.349   5.331   7.671  0.3173 -0.2260 -0.1113
 6526W        W 6526   7.869   3.337   2.023  0.1813 -0.3045  0.2287
 6527W        W 6527   1.488   1.051   1.471  0.0398 -0.1354  0.1788
 6528W        W 6528   9.350   9.518   7.385 -0.0339 -0.0255 -0.2671
 6529W        W 6529   1.236   4.796   1.081 -0.2195 -0.0322 -0.3153
 6530W        W 6530   9.583   8.626   9.705  0.0068 -0.0932 -0.3483
 6531W        W 6531   7.256   3.875   2.799 -0.2620 -0.2981 -0.2239
 6532W        W 6532   0.832   0.360   9.806  0.2667 -0.1957  0.2378
 6533W        W 6533   0.939   1.052   1.440  0.2418  0.2975 -0.0390
 6534W        W 6534   6.458   4.383   7.091 -0.1160 -0.1022 -0.1395
 6535W        W 6535   1.231   9.249  10.282  0.0824  0.0278  0.1979
 6536W        W 6536   9.309   3.630   0.546 -0.1075 -0.0110 -0.2375
 6537W        W 6537   7.586   1.139   7.483  0.0505  0.0195  0.3805
 6538W        W 6538   0.325   2.256   5.271 -0.1250 -0.0175  0.0791
 6539W        W 6539   7.425   1.736   5.688 -0.0564 -0.0382  0.0481
 6540W        W 6540   0.501   3.356   5.068 -0.0792 -0.3623  0.1951
 6541W        W 6541   0.527   5.871   7.525 -0.1315 -0.1646  0.0144
 6542W        W 6542   5.989   0.967   5.046  0.3698 -0.1146 -0.2180
 6543W        W 6543   4.065   0.537   3.692  0.0971 -0.2013  0.1514
 6544W        W 6544   2.075   0.441   8.003  0.0031 -0.1465 -0.2905
 6545W        W 6545   1.357  10.216   3.124 -0.2889 -0.1456  0.0131
 6546W        W 6546   4.495   6.006   4.739  0.0239 -0.0148 -0.1503
 6547W        W 6547   8.001   5.713   7.411  0.1738  0.0501 -0.1216
 6548W        W 6548   6.506   4.223   2.526 -0.2248 -0.1975  0.2753
 6549W        W 6549   9.464   9.010   4.094  0.0133  0.2886 -0.1556
 6550W        W 6550   5.543   0.951   6.864 -0.2025 -0.0346 -0.0795
 6551W        W 6551   5.659   3.237   9.817  0.0597  0.1086  0.2264
 6552W        W 6552   4.146   4.998   6.543  0.0502 -0.0553  0.0112
 6553W        W 6553   8.116   4.974   0.271  0.0011  0.1137 -0.0813
 6554W        W 6554  10.315   8.100   2.475  0.2022  0.1657 -0.2067
 6555W        W 6555   2.759   4.772   4.331 -0.0340 -0.1546 -0.0622
 6556W        W 6556   0.288  10.148   3.542 -0.0432 -0.0549 -0.0379
 6557W        W 6557  10.042   3.248  10.051 -0.2469 -0.0622  0.1565
 6558W        W 6558   6.386   6.022   6.327  0.0483 -0.3436  0.0251
 6559W        W 6559   5.386   9.394   9.147 -0.0257 -0.1570 -0.1276
 6560W        W 6560   8.130   4.241   2.356  0.0272  0.2420 -0.0102
 6561W        W 6561   5.008   3.865   0.476  0.0918  0.3166 -0.1533
 6562W        W 6562   0.962   6.829   6.440  0.1848 -0.1300 -0.2192
 6563W        W 6563   9.294   2.656   6.512  0.1167  0.1960  0.0502
 6564W        W 6564   5.159   2.258   1.832 -0.0150  0.0297  0.2186
 6565W        W 6565   8.484   4.373   3.613 -0.1693 -0.2511 -0.0863
 6566W        W 6566   6.098   8.090   0.110 -0.0032 -0.1127  0.2058
 6567W        W 6567   3.458   3.032  10.103  0.2937  0.1120  0.2044
 6568W        W 6568   7.499   2.184   0.332 -0.0116  0.3713  0.2540
 6569W        W 6569   8.512   6.202   3.227 -0.1787  0.0179 -0.0966
 6570W        W 6570   5.159   4.284   8.002  0.0814 -0.0084  0.1036
 6571W        W 6571   9.375   7.178   2.428  0.1608 -0.4205  0.0387
 6572W        W 6572   8.675   0.025   2.830  0.0274 -0.0763 -0.1841
 6573W        W 6573   6.257   4.065   1.672 -0.0749 -0.0211 -0.2701
 6574W        W 6574   8.433   2.056   4.504  0.0873  0.1594  0.0081
 6575W        W 6575   9.312   3.752   1.568  0.0997 -0.0312 -0.1260
 6576W        W 6576   3.558   5.985   2.511  0.0302  0.0508 -0.3243
 6577W        W 6577   7.082   7.563   9.018  0.2289  0.0801  0.0088
 6578W        W 6578   8.665   7.910   4.736  0.0390  0.0148  0.0380
 6579W        W 6579   9.016   5.602   0.523  0.1815  0.2459  0.0327
 6580W        W 6580   8.953   1.773   2.000 -0.3046  0.2710 -0.2012
 6581W        W 6581   3.210   0.304   3.369 -0.1718  0.1213 -0.1298
 6582W        W 6582   1.478  10.324  10.133 -0.0248 -0.0690  0.0695
 6583W        W 6583   6.365   4.786   3.809  0.2462  0.0142  0.1779
 6584W        W 6584   2.698   1.680   4.296  0.0831  0.0264  0.1068
 6585W        W 6585   5.248   3.221   5.249  0.1807  0.1669  0.0475
 6586W        W 6586   4.048   4.527   4.039 -0.2163  0.1389  0.1402
 6587W        W 6587   8.371   5.081   8.679 -0.0437  0.0808 -0.0484
 6588W        W 6588   1.460   2.180   8.999  0.0798  0.0612 -0.0031
 6589W        W 6589   8.829   3.440   7.912  0.0629  0.0836 -0.1190
 6590W        W 6590   7.320   5.901   9.539 -0.1290 -0.1678 -0.3819
 6591W        W 6591   8.546   5.814   7.746  0.0800  0.0649  0.0788
 6592W        W 6592   3.301   5.567   2.690  0.0169 -0.4214  0.0813
 6593W        W 6593   9.930   3.910   0.906 -0.2867 -0.1924  0.2300
 6594W        W 6594   2.020   7.283   4.039  0.3454 -0.1013  0.0665
 6595W        W 6595   1.996   4.461   1.285  0.0480  0.3636  0.0110
 6596W        W 6596   8.216   9.618   2.900 -0.2495  0.0419 -0.0970
 6597W        W 6597   7.655   3.221   6.693  0.1994  0.0861  0.0036
 6598W        W 6598   8.943   4.716   0.659  0.1358  0.1638 -0.3211
 6599W        W 6599   9.611   7.252   8.535  0.1475  0.1073  0.0491
 6600W        W 6600   9.530   5.748   7.456 -0.2102  0.0039  0.0083
 6601W        W 6601   7.714   3.147   3.435 -0.0326 -0.1743 -0.1719
 6602W        W 6602   4.282   4.325   1.130 -0.1249 -0.0605 -0.0408
 6603W        W 6603   3.140   0.823   4.764  0.3583  0.4092 -0.1226
 6604W        W 6604   8.917   6.470   8.366 -0.1914 -0.0931  0.0426
 6605W        W 6605   0.802   5.584   4.193 -0.1410 -0.1469  0.0550
 6606W        W 6606   5.365   3.847   0.798 -0.0566  0.0923 -0.3234
 6607W        W 6607   3.498   8.320   6.553 -0.1360 -0.1446  0.0486
 6608W        W 6608   8.381  10.152   8.411  0.0555 -0.1678 -0.0208
 6609W        W 6609  10.128   7.850   7.231 -0.0163 -0.0423  0.1406
 6610W        W 6610   3.629   1.322   3.239 -0.1443 -0.0913  0.0121
 6611W        W 6611   2.003   0.554   5.836 -0.0524  0.1782  0.2397
 6612W        W 6612   7.977   7.830   6.395 -0.1140 -0.1723  0.0226
 6613W        W 6613   3.469   9.873   6.270  0.0648  0.0112  0.3470
 6614W        W 6614   5.515   2.501   7.792 -0.0924 -0.0019  0.2202
 6615W        W 6615   4.626   0.520   4.912  0.0215  0.1722 -0.1676
 6616W        W 6616   7.480   8.901   8.100 -0.2196  0.4254 -0.0604
 6617W        W 6617   3.357   3.540   6.166 -0.5095 -0.1544 -0.0398
 6618W        W 6618   8.830   5.293   5.436  0.1848 -0.0254 -0.1194
 6619W        W 6619   4.010   9.959   3.414 -0.1534  0.0485 -0.2954
 6620W        W 6620   8.804   5.306   6.718 -0.1579 -0.2683  0.0542
 6621W        W 6621   6.026   6.240   6.537 -0.2411 -0.1938 -0.0243
 6622W        W 6622   2.091   8.600   0.763 -0.1461  0.0005 -0.2296
 6623W        W 6623   8.688   4.327   0.446 -0.1261 -0.0805 -0.1927
 6624W        W 6624   2.541   4.957   5.729 -0.2314 -0.2097 -0.1282
 6625W        W 6625   6.581  10.111   5.752  0.0739  0.0460  0.0304
 6626W        W 6626   8.892   1.331   1.199  0.3867  0.2893  0.0379
 6627W        W 6627   3.189   5.033   4.484  0.2121 -0.0100  0.0444
 6628W        W 6628   0.626   1.920   0.693  0.0184 -0.0337 -0.2343
 6629W        W 6629   9.974   6.649   7.128  0.0661  0.0449 -0.4830
 6630W        W 6630   2.153   8.693   3.085  0.2381 -0.0869 -0.0452
 6631W        W 6631   1.777   2.981   6.613 -0.0011 -0.0243 -0.0191
 6632W        W 6632   4.008   9.526   3.107  0.1200  0.1630  0.4417
 6633W        W 6633   3.371   7.362   6.702 -0.3948  0.2299 -0.0258
 6634W        W 6634   5.125   0.667   1.432 -0.2560  0.0416  0.0451
 6635W        W 6635   8.307   4.040   7.691 -0.3060 -0.1337  0.1607
 6636W        W 6636   4.360   6.355   4.406  0.1402  0.1602 -0.2584
 6637W        W 6637   1.182   2.570   9.143  0.1708  0.0504 -0.1090
 6638W        W 6638   2.639   2.085   0.097  0.0187  0.1281 -0.3201
 6639W        W 6639   5.241   2.725   5.063 -0.2775 -0.3654 -0.0886
 6640W        W 6640   5.032   9.163   7.443  0.1569  0.2720 -0.3320
 6641W        W 6641   2.642   9.783   0.531  0.1492 -0.1299  0.0257
 6642W        W 6642   4.670   4.506  10.207 -0.0638 -0.1025 -0.4547
 6643W        W 6643   3.820   1.985   0.616  0.1214 -0.3090 -0.1898
 6644W        W 6644   1.631   8.521   7.785 -0.0357  0.1032  0.0423
 6645W        W 6645   5.864   9.275   1.858 -0.1698 -0.0104 -0.1429
 6646W        W 6646   2.215   3.696   6.497  0.3754 -0.2049  0.0462
 6647W        W 6647   0.312   6.656   9.571 -0.1426 -0.0433 -0.1444
 6648W        W 6648   5.472   8.137   1.379 -0.0080  0.1836  0.1286
 6649W        W 6649   5.829   0.394   3.469 -0.1866  0.0092  0.2050
 6650W        W 6650   0.029  10.297   4.819 -0.1399 -0.0095 -0.1888
 6651W        W 6651   6.985   3.888   6.400  0.4227  0.1227  0.2329
 6652W        W 6652   4.222   5.944   3.217 -0.1006 -0.0168  0.2645
 6653W        W 6653   3.973   1.973  10.215  0.1677  0.1701 -0.2091
 6654W        W 6654   9.305   8.524   5.454  0.0073  0.1983  0.1631
 6655W        W 6655   2.524   6.876  10.325  0.2533 -0.0915 -0.1802
 6656W        W 6656   5.777   2.583   5.080  0.0110 -0.0086 -0.2586
 6657W        W 6657  10.336   1.008   9.083 -0.0636 -0.2045  0.1803
 6658W        W 6658   7.869   0.034   9.145  0.2141  0.0522 -0.2625
 6659W        W 6659   3.586   5.595   4.467 -0.0137  0.2318  0.0578
 6660W        W 6660   9.326   0.922   8.612  0.1185  0.1942  0.1499
 6661W        W 6661   1.922   3.660   4.672 -0.2329  0.0762 -0.1710
 6662W        W 6662   6.449   2.481   7.281  0.1494 -0.0402  0.2622
 6663W        W 6663   2.574   2.437   2.054 -0.0040  0.1905  0.0457
 6664W        W 6664   5.752   8.437   4.389  0.0205 -0.1959  0.1041
 6665W        W 6665   1.909   3.315   5.778 -0.0573 -0.2544  0.0850
 6666W        W 6666   0.135   3.903   4.164 -0.4786  0.0020 -0.1449
 6667W        W 6667   2.899   6.211   5.793  0.0214 -0.0044 -0.1596
 6668W        W 6668   3.256   9.528   4.331  0.0368 -0.3457 -0.2961
 6669W        W 6669   4.743   9.951   6.822 -0.0511 -0.1382 -0.2085
 6670W        W 6670   5.186   1.169   2.266 -0.0897 -0.0524 -0.0396
 6671W        W 6671   6.255   9.837   6.215 -0.0408 -0.0786  0.1035
 6672W        W 6672   1.308   4.710   2.977 -0.3957  0.0461  0.0496
 6673W        W 6673   8.662   5.470   8.140 -0.1074 -0.2626 -0.1926
 6674W        W 6674   3.069   0.099   9.272 -0.1072 -0.1044  0.2013
 6675W        W 6675   8.935   9.248   7.572 -0.1207  0.0594 -0.2720
 6676W        W 6676   0.714   0.676   4.626 -0.2120 -0.1888 -0.1017
 6677W        W 6677   0.862   0.752   1.853 -0.2188  0.0417  0.1800
 6678W        W 6678   5.916   2.846   9.954  0.1470 -0.0705  0.0859
 6679W        W 6679   3.139   4.687   5.696  0.0888  0.5174 -0.0426
 6680W        W 6680   1.948   3.106   7.613 -0.1784  0.1552 -0.3340
 6681W        W 6681   9.562   3.187   9.730 -0.0613 -0.0135 -0.0312
 6682W        W 6682   3.358   3.273   8.317 -0.0098 -0.0288 -0.1247
 6683W        W 6683   5.957   4.538   5.279  0.2881  0.3090  0.1215
 6684W        W 6684   6.689   3.461   6.640  0.3120  0.0140  0.2689
 6685W        W 6685   2.899   0.531   5.954 -0.0535  0.1380 -0.1923
 6686W        W 6686   7.218   9.139   2.883 -0.1788 -0.0751 -0.1109
 6687W        W 6687   3.264   4.315   6.879 -0.0369  0.3361  0.1802
 6688W        W 6688   2.968   2.184   4.186  0.1723 -0.0856 -0.2361
 6689W        W 6689   0.761   2.954   9.849 -0.1577 -0.0551 -0.0816
 6690W        W 6690   8.769   1.880   6.078  0.0147 -0.1940  0.0365
 6691W        W 6691   4.168   9.649   4.189  0.0346 -0.0300 -0.0351
 6692W        W 6692   9.438  10.122   0.759 -0.2891 -0.1364 -0.0299
 6693W        W 6693   1.664   3.190   8.663  0.0378  0.0608 -0.2033
 6694W        W 6694   2.305   3.185   1.472  0.1415 -0.2079 -0.1674
 6695W        W 6695   3.186   0.108   2.600 -0.2564  0.3334  0.0930
 6696W        W 6696   6.835   8.929   9.817 -0.0780  0.0777 -0.0636
 6697W        W 6697   2.077   6.535   2.498 -0.0871  0.1648  0.0255
 6698W        W 6698   7.910   9.387   1.595  0.0243 -0.3702 -0.3705
 6699W        W 6699  10.220   9.596   7.870  0.3459  0.2394 -0.3084
 6700W        W 6700   6.883   5.757   5.461  0.2372 -0.0682  0.1932
 6701W        W 6701   5.584   5.605   4.134  0.0268  0.2363  0.1458
 6702W        W 6702   9.534   2.140   6.539 -0.1459 -0.1977 -0.0542
 6703W        W 6703   3.519   1.995   7.188  0.1302 -0.0497  0.2781
 6704W        W 6704   3.075  10.300   7.800 -0.0086 -0.1311 -0.1604
 6705W        W 6705   6.176   6.728   5.790  0.0463 -0.2458  0.0336
 6706W        W 6706   9.835   7.723   5.562 -0.0904  0.1668 -0.0323
 6707W        W 6707   6.286   2.854   1.177  0.0441 -0.1245  0.1287
 6708W        W 6708   1.031   1.560   9.608 -0.0182  0.2211 -0.2635
 6709W        W 6709   6.644   3.235   7.772  0.0442  0.2906  0.1966
 6710W        W 6710   5.596   0.832   1.654  0.0329  0.0512 -0.0653
 6711W        W 6711  10.017   1.384   1.296 -0.2319  0.0960 -0.0682
 6712W        W 6712   5.758   8.536   7.100 -0.0536 -0.2599  0.0705
 6713W        W 6713   6.798   3.987   1.883  0.1002 -0.1568  0.1593
 6714W        W 6714   9.346   9.261   6.561  0.1611  0.0101  0.0367
 6715W        W 6715   0.531  10.103   0.847  0.1079 -0.0137 -0.2086
 6716W        W 6716   7.031   0.177   5.469 -0.0481  0.1725  0.1155
 6717W        W 6717   7.468   5.604   2.922  0.0145 -0.0825  0.0837
 6718W        W 6718   3.709  10.099   1.148 -0.0823  0.0126 -0.0776
 6719W        W 6719   8.686   8.241   3.189  0.0735  0.1928 -0.2205
 6720W        W 6720   0.109   9.077   4.670 -0.0182  0.2218  0.0986
 6721W        W 6721   7.009   8.653   5.345 -0.0008  0.1568 -0.1122
 6722W        W 6722   8.443   7.775   6.246  0.0881  0.0859 -0.0482
 6723W        W 6723   4.706   9.672   0.309  0.2358  0.0045 -0.2824
 6724W        W 6724   3.981   1.219   1.050  0.0226 -0.1662  0.0279
 6725W        W 6725   5.679   1.530   5.413 -0.0496  0.5151 -0.0473
 6726W        W 6726   9.310   1.866   6.878 -0.2135  0.0990  0.2631
 6727W        W 6727   6.445   2.520   6.293 -0.3674  0.0831 -0.0418
 6728W        W 6728   1.670   4.223   6.765  0.2486  0.1884 -0.1869
 6729W        W 6729   0.548  10.290   7.950  0.0228 -0.0709 -0.3306
 6730W        W 6730   0.499   1.300   6.063 -0.0034  0.1324 -0.1531
 6731W        W 6731   1.286   1.263   0.085  0.1125 -0.0461 -0.0596
 6732W        W 6732   3.296   8.350   3.613  0.1148 -0.0807 -0.0779
 6733W        W 6733   7.226   7.565   6.774  0.1660 -0.0171 -0.1710
 6734W        W 6734   1.926   1.334   5.621  0.0639 -0.1329 -0.0610
 6735W        W 6735   1.113   6.145   9.019  0.1074  0.0895  0.0740
 6736W        W 6736   8.953   8.254   6.344  0.2546  0.1897 -0.2291
 6737W        W 6737   9.889   3.502   6.448 -0.1411  0.4018  0.1797
 6738W        W 6738   5.859   8.169  10.004 -0.1122  0.2734 -0.0448
 6739W        W 6739   7.717   6.813   1.569  0.0784  0.2454 -0.0528
 6740W        W 6740   2.356   7.853   5.736  0.0365  0.2425  0.3632
 6741W        W 6741   8.818   1.435   6.582  0.0002 -0.3919  0.0966
 6742W        W 6742   3.886   5.280   0.856 -0.5742 -0.0218  0.4062
 6743W        W 6743   3.027   7.895   3.461 -0.0717 -0.1727  0.0447
 6744W        W 6744   1.948   9.399   8.821  0.0248  0.1015  0.1789
 6745W        W 6745   3.155   8.229   6.227  0.0670 -0.0067  0.0781
 6746W        W 6746  10.284   1.793   8.202  0.0596  0.1697 -0.1921
 6747W        W 6747   1.176   5.375   3.065  0.1548 -0.1141 -0.1529
 6748W        W 6748   3.140   5.381   6.311  0.0002  0.2541 -0.2082
 6749W        W 6749   1.547   8.004   3.014 -0.1660  0.0145  0.2656
 6750W        W 6750   1.103   5.375   9.837  0.2513  0.0165 -0.0245
 6751W        W 6751   0.141   6.704   2.825 -0.0241 -0.2723 -0.0101
 6752W        W 6752   5.696   4.281   8.907 -0.1069  0.0584 -0.0939
 6753W        W 6753  10.275   0.056   8.494 -0.3960  0.1180  0.0766
 6754W        W 6754   1.004   7.159   1.575 -0.2904 -0.1231  0.0074
 6755W        W 6755   5.685   1.679   2.538 -0.0890  0.1910 -0.3745
 6756W        W 6756   1.237   4.302   7.265  0.0803  0.2953 -0.0765
 6757W        W 6757   2.353  10.058   0.880 -0.3156 -0.2773 -0.0591
 6758W        W 6758   8.296   0.906   2.245 -0.0694  0.1796  0.4080
 6759W        W 6759   6.418   2.038   4.266 -0.0761 -0.1873 -0.1553
 6760W        W 6760   2.409   6.502   3.312 -0.2429  0.0648  0.1108
 6761W        W 6761   3.066   3.529   2.705 -0.1032 -0.0195 -0.0192
 6762W        W 6762   1.295   3.565   7.159 -0.1490  0.1782  0.3168
 6763W        W 6763   2.031   7.281   2.838 -0.1915 -0.0407 -0.2879
 6764W        W 6764   6.624  10.293  10.229 -0.0323 -0.0487  0.2824
 6765W        W 6765   3.811   7.862   5.452  0.0812 -0.0639  0.2102
 6766W        W 6766   8.855   2.060   6.538 -0.1722 -0.2091  0.2186
 6767W        W 6767   6.192   6.791   3.728  0.3615 -0.3296 -0.0769
 6768W        W 6768   1.756   2.570   4.567  0.0637  0.0657  0.0231
 6769W        W 6769   4.207   9.261   9.226 -0.0867  0.0550 -0.1218
 6770W        W 6770   8.866   5.922   6.279  0.0468  0.1224  0.0338
 6771W        W 6771   1.549   0.564   8.193 -0.0235  0.3277 -0.0799
 6772W        W 6772   4.795   9.832   4.986 -0.0050 -0.2598 -0.0061
 6773W        W 6773   8.781   1.907  10.224  0.1363 -0.0788 -0.2910
 6774W        W 6774   2.870   3.960   0.731  0.0717 -0.1663 -0.1198
 6775W        W 6775   5.374   5.401   7.104  0.0153 -0.0007  0.3767
 6776W        W 6776   6.021   1.211   5.536  0.0182 -0.1322  0.1294
 6777W        W 6777   1.286   4.920   3.386  0.2250 -0.1730  0.0327
 6778W        W 6778   9.190   1.145   8.123  0.2596  0.0182 -0.1677
 6779W        W 6779   4.030   2.669   4.843  0.0392  0.1269 -0.0527
 6780W        W 6780   7.568   8.534   3.899 -0.3541 -0.1127 -0.1080
 6781W        W 6781   8.782   7.009   9.093  0.2778 -0.0760 -0.0089
 6782W        W 6782   7.097   0.978   1.753 -0.0233  0.0726  0.3486
 6783W        W 6783   0.755   1.369   7.165 -0.0985 -0.0655  0.1830
 6784W        W 6784   6.988   9.450   2.051  0.0497  0.0009 -0.0309
 6785W        W 6785   6.660   1.551   8.663 -0.1220 -0.1683 -0.0314
 6786W        W 6786   1.098   8.490   5.813  0.2669  0.0881 -0.1612
 6787W        W 6787   9.350   9.335   1.353 -0.0002  0.3586  0.1898
 6788W        W 6788   2.931   4.438   1.555 -0.0690 -0.2590 -0.0052
 6789W        W 6789   2.990   7.673   8.440 -0.3987  0.1610  0.1466
 6790W        W 6790   1.103   9.110   4.086  0.2530  0.2209  0.2982
 6791W        W 6791   2.706   4.581   5.511 -0.0013  0.1283  0.2740
 6792W        W 6792   0.838   4.254   7.616  0.1871 -0.2972  0.2035
 6793W        W 6793   2.520   3.120   5.866 -0.2573  0.0866 -0.0567
 6794W        W 6794   7.190   0.214   3.412  0.2643 -0.1502  0.0830
 6795W        W 6795   1.231   6.495   6.673 -0.0831  0.0099 -0.3026
 6796W        W 6796  10.154   1.011   5.610 -0.1940 -0.0343 -0.0800
 6797W        W 6797   8.266   9.265   8.705 -0.0067  0.1449  0.2037
 6798W        W 6798   8.645   5.231  10.174  0.2120  0.4359 -0.2544
 6799W        W 6799   2.845   7.565   7.574 -0.1707  0.1277 -0.0252
 6800W        W 6800   3.129   2.376   3.767  0.1111 -0.0939  0.0217
 6801W        W 6801   4.839   8.452   9.843 -0.1831  0.2786  0.3020
 6802W        W 6802   8.386   3.851   3.804 -0.3888  0.0263 -0.2569
 6803W        W 6803   8.545   5.008   6.209  0.0908  0.0461  0.0843
 6804W        W 6804   8.698   9.733   2.948  0.3107 -0.0714  0.0585
 6805W        W 6805   8.259   9.981   9.195 -0.0039 -0.2864  0.2003
 6806W        W 6806   4.056   4.508   9.640  0.0258 -0.0224  0.2122
 6807W        W 6807   4.162   6.299   6.550  0.1226  0.0819 -0.0581
 6808W        W 6808   0.629   2.758   2.224  0.0512 -0.1913  0.2397
 6809W        W 6809   1.987   7.029   2.265  0.2687 -0.1563  0.0091
 6810W        W 6810   9.688   2.728   9.602 -0.0947  0.0291 -0.2635
 6811W        W 6811   8.977   3.443   3.131  0.1685  0.0517  0.1250
 6812W        W 6812   7.097   7.559   2.841 -0.3451  0.1127 -0.2223
 6813W        W 6813   1.972   3.961   8.214  0.3385  0.0463  0.0628
 6814W        W 6814   5.180   4.869   4.294 -0.3353  0.0548  0.0688
 6815W        W 6815   5.894   4.817   6.533 -0.2409 -0.2200 -0.1965
 6816W        W 6816   9.354   2.019   8.487 -0.0440  0.2160 -0.1782
 6817W        W 6817   8.819   7.371   7.063 -0.2583  0.0975 -0.0093
 6818W        W 6818   8.346   9.286   7.838 -0.2068 -0.1938  0.1479
 6819W        W 6819   1.150   8.425   6.806 -0.2387 -0.2024 -0.0273
 6820W        W 6820   4.893   9.427   0.773 -0.0510 -0.1160  0.0553
 6821W        W 6821   1.768   5.236   1.691 -0.3261  0.1383 -0.0529
 6822W        W 6822   0.178   0.965   5.930 -0.3520 -0.2084 -0.2232
 6823W        W 6823   8.168   1.251   6.379  0.3109 -0.1685  0.1220
 6824W        W 6824   9.253  10.147   1.274  0.1138  0.3430 -0.2921
 6825W        W 6825   4.284   6.535   0.448 -0.1433  0.0712  0.2898
 6826W        W 6826   2.343   7.258   6.533 -0.2602 -0.0306  0.1618
 6827W        W 6827   4.403   0.892   1.077  0.2908  0.3469 -0.2634
 6828W        W 6828   9.042   0.690   5.596 -0.0063 -0.1971 -0.2404
 6829W        W 6829   7.611   7.409   5.342 -0.0323 -0.2494 -0.0335
 6830W        W 6830   1.406   0.714   7.691  0.1416 -0.1167 -0.3614
 6831W        W 6831   4.789  10.094   1.285 -0.1472 -0.0457  0.0062
 6832W        W 6832   7.837  10.135   0.303  0.1080 -0.1418  0.0285
 6833W        W 6833   2.993   9.383   5.234  0.0935 -0.2018  0.0707
 6834W        W 6834   8.115   2.455   7.271 -0.3159 -0.0577  0.1854
 6835W        W 6835   1.923   0.781   2.318 -0.3062 -0.5346 -0.4123
 6836W        W 6836   8.928   2.381   0.214  0.0317  0.2478  0.2011
 6837W        W 6837   9.475   5.064   9.660 -0.3060 -0.0776  0.0563
 6838W        W 6838   2.166   4.336   3.457 -0.0606 -0.5519 -0.0450
 6839W        W 6839   1.439   8.435  10.266  0.0514 -0.0803  0.1346
 6840W        W 6840   9.244   3.630   4.608 -0.0724 -0.3596  0.0519
 6841W        W 6841   2.056   5.092   4.962  0.0123  0.1092 -0.2756
 6842W        W 6842   9.141   5.111   8.042  0.0107 -0.0654  0.2573
 6843W        W 6843   3.331   2.476   2.371 -0.1216 -0.0423  0.0483
 6844W        W 6844   9.314   3.025   4.050  0.1498 -0.0305 -0.0826
 6845W        W 6845   9.626   3.036   5.666  0.3346  0.1682 -0.4825
 6846W        W 6846   1.067   1.557   4.676  0.0513 -0.1266 -0.2462
 6847W        W 6847   5.587   5.824   8.651 -0.1434  0.0639  0.2774
 6848W        W 6848   8.499   5.419   7.164 -0.0210 -0.0144 -0.1755
 6849W        W 6849   8.231   9.085   1.236 -0.0372  0.2399 -0.1899
 6850W        W 6850   7.530   9.036   7.612 -0.0709  0.2659 -0.2563
 6851W        W 6851   9.449   8.191   6.913 -0.0606 -0.2756  0.0321
 6852W        W 6852   9.964   2.654   8.748  0.2304 -0.3183 -0.0999
 6853W        W 6853   7.656   2.958   9.413  0.0661 -0.2728  0.2254
 6854W        W 6854   6.367   8.096   3.995 -0.0307  0.0113  0.0815
 6855W        W 6855   7.080   5.505   0.707 -0.0670  0.0491  0.0507
 6856W        W 6856   0.867   0.483   3.979  0.2999  0.2065  0.0317
 6857W        W 6857   0.850   7.751   7.599  0.2064 -0.0129  0.1381
 6858W        W 6858   6.864   1.925   0.260 -0.1100 -0.1785  0.1804
 6859W        W 6859   3.102   2.727   6.687 -0.1170  0.1234 -0.0995
 6860W        W 6860   3.077   6.011   5.297  0.0953  0.0708  0.0743
 6861W        W 6861   2.181   6.776   0.454 -0.1494 -0.0654  0.5811
 6862W        W 6862   3.159   9.099   2.261  0.1149  0.4738  0.1419
 6863W        W 6863   6.530   4.278   1.297  0.0438 -0.6877  0.1461
 6864W        W 6864   0.371   6.216   6.929 -0.1663  0.1589 -0.0340
 6865W        W 6865   5.988   7.722   6.712  0.0934  0.0627 -0.0761
 6866W        W 6866   1.953   6.270   3.078 -0.2170 -0.1242 -0.1089
 6867W        W 6867   8.446   9.158   6.088  0.1500  0.2016 -0.2261
 6868W        W 6868   1.988   3.570   8.643 -0.1497 -0.0909  0.1681
 6869W        W 6869   3.901   2.836   6.851  0.7111  0.2524 -0.0687
 6870W        W 6870   3.566   5.206   6.581  0.1236 -0.0224 -0.0006
 6871W        W 6871   4.729   9.029   1.893 -0.0322 -0.2699  0.2293
 6872W        W 6872   2.345   1.925   6.480 -0.1772 -0.0328  0.0043
 6873W        W 6873   0.349   3.595   6.089 -0.0709 -0.0493 -0.1045
 6874W        W 6874   2.690   3.802   4.045  0.1102  0.0507  0.1219
 6875W        W 6875   0.154   8.988   9.850  0.0273  0.1625 -0.2247
 6876W        W 6876   9.170   8.132   5.907 -0.2035 -0.0311 -0.0539
 6877W        W 6877   0.574   5.225  10.009  0.1586 -0.0548 -0.1566
 6878W        W 6878   1.584   4.727   5.705  0.1189  0.1121  0.0599
 6879W        W 6879   0.261   9.400   1.544  0.2932  0.1221  0.1978
 6880W        W 6880   9.159   3.633   8.310 -0.3275 -0.0305  0.0884
 6881W        W 6881   7.736   7.710   9.655 -0.0853 -0.0502 -0.2415
 6882W        W 6882   5.689   7.557  10.086 -0.1431 -0.0179 -0.0362
 6883W        W 6883   7.791   2.930   9.978  0.1729  0.1868 -0.0582
 6884W        W 6884   8.785   7.308   8.627 -0.3149 -0.0383 -0.0470
 6885W        W 6885   5.345   1.144   7.425 -0.0699 -0.0207  0.0300
 6886W        W 6886   4.714   2.652   9.706  0.0850  0.2245 -0.1468
 6887W        W 6887   7.946   7.733   8.466  0.1089 -0.4650 -0.4362
 6888W        W 6888   6.786   7.140   2.652 -0.0238 -0.1364  0.2379
 6889W        W 6889   7.823   8.308   0.978 -0.0401 -0.0579  0.1916
 6890W        W 6890   2.519   1.201   8.171  0.1224  0.1486  0.0879
 6891W        W 6891   0.307   0.792   6.751  0.1663  0.2121  0.3944
 6892W        W 6892   7.275   5.875   5.140  0.1201  0.1259 -0.0091
 6893W        W 6893   3.461   6.023   9.009 -0.1818 -0.0905 -0.0732
 6894W        W 6894   0.859   4.459   0.375  0.1246  0.2247  0.2653
 6895W        W 6895   2.382   1.064   4.942 -0.1627 -0.1696 -0.1860
 6896W        W 6896   5.310   6.669   6.881  0.2787 -0.1819  0.0188
 6897W        W 6897   0.132   5.410   5.879 -0.1376 -0.0890  0.2414
 6898W        W 6898   0.667   6.249   7.770 -0.3645 -0.0742  0.3174
 6899W        W 6899   3.641   7.622   0.057  0.3647 -0.2174 -0.0649
 6900W        W 6900   5.995   6.669  10.213  0.2324 -0.0116  0.1819
 6901W        W 6901   4.352   6.439   3.897  0.0889  0.0604 -0.2321
 6902W        W 6902   4.888   0.250   7.502  0.2462  0.1927  0.0946
 6903W        W 6903   2.974  10.066   8.882 -0.0362  0.1949  0.1847
 6904W        W 6904   4.871   6.038   0.776  0.4491  0.1220  0.2484
 6905W        W 6905   6.416   2.426   9.091  0.1672 -0.0659  0.3380
 6906W        W 6906   0.407   7.853   8.413  0.0257 -0.3830  0.2213
 6907W        W 6907   9.528   8.707   0.233  0.0716 -0.1783  0.2813
 6908W        W 6908   8.409   3.550   3.372 -0.1534  0.2702 -0.0251
 6909W        W 6909   1.318   1.087   1.008  0.2572  0.0872 -0.0553
 6910W        W 6910   5.644   6.802   2.977  0.1169 -0.2544  0.5229
 6911W        W 6911   3.947   5.672   4.124  0.2286  0.0412  0.0569
 6912W        W 6912  10.091   1.478   5.435 -0.2419 -0.5586  0.0683
 6913W        W 6913   1.002   6.444   1.727 -0.2337 -0.1030  0.1903
 6914W        W 6914   3.872   6.049   7.253 -0.0712  0.0282 -0.0128
 6915W        W 6915   2.068   0.833  10.111 -0.1285 -0.1297  0.0709
 6916W        W 6916   3.021   7.764   9.463 -0.2714  0.0196  0.0639
 6917W        W 6917   5.281   9.836   6.358  0.2064 -0.1349 -0.2302
 6918W        W 6918   4.121   1.253   8.783  0.2250 -0.2543  0.1330
 6919W        W 6919   0.072   8.325   4.034  0.2550  0.0495  0.0099
 6920W        W 6920   1.599   3.489   6.752  0.1134  0.3627  0.0352
 6921W        W 6921   4.473   1.273   4.280 -0.4440 -0.1348  0.1367
 6922W        W 6922   2.966   2.024   0.485 -0.0689  0.3594 -0.0018
 6923W        W 6923   0.662   9.799   8.895 -0.0321  0.2230 -0.0234
 6924W        W 6924   1.338   9.675   7.975 -0.1387  0.2168 -0.2168
 6925W        W 6925   7.509   1.075   6.962  0.1156 -0.2138  0.0786
 6926W        W 6926   3.358   0.392  10.175 -0.0062 -0.1443  0.1350
 6927W        W 6927   0.112   6.765   0.257  0.2006  0.0819 -0.0501
 6928W        W 6928   0.593   0.747   8.562  0.0923 -0.4651 -0.0992
 6929W        W 6929   7.159   0.489   1.771 -0.0851 -0.2154  0.1695
 6930W        W 6930   9.512   8.405   2.115 -0.0457 -0.0971 -0.0642
 6931W        W 6931   4.884   2.232   5.458 -0.0226 -0.1172 -0.1128
 6932W        W 6932   2.251   0.387   0.083  0.1877 -0.2177 -0.1294
 6933W        W 6933   2.448   8.323   3.243 -0.0369  0.2783  0.0306
 6934W        W 6934   8.534   3.758   2.208 -0.4820 -0.3763  0.0624
 6935W        W 6935   0.715   7.489   5.820 -0.3926 -0.4194 -0.2565
 6936W        W 6936   7.344   9.183   6.678  0.0907  0.1191  0.1613
 6937W        W 6937   0.260   2.212   8.209 -0.1562 -0.4668  0.3430
 6938W        W 6938   5.447   5.717   0.725 -0.1327  0.0256 -0.0139
 6939W        W 6939   8.263   0.339   0.210 -0.1704 -0.1251  0.2277
 6940W        W 6940   5.258   0.943   4.801  0.0502  0.0245  0.2256
 6941W        W 6941   5.796   0.723   5.656 -0.1700  0.0090 -0.0738
 6942W        W 6942   5.188   6.041   7.511 -0.3617  0.0338  0.0531
 6943W        W 6943   7.978   7.124   7.089  0.0546  0.1788  0.0897
 6944W        W 6944   8.349   1.743   8.355 -0.0934 -0.0635  0.1026
 6945W        W 6945  10.038   4.793   8.709  0.0447 -0.0245  0.1217
 6946W        W 6946   4.964   0.337   0.502 -0.0190 -0.1267  0.0617
 6947W        W 6947   7.077   8.136   0.349 -0.3117 -0.2202  0.3240
 6948W        W 6948   8.264  10.106   1.471 -0.2213 -0.0513 -0.1376
 6949W        W 6949   2.206   4.432   7.207 -0.0259  0.2096 -0.1523
 6950W        W 6950   1.204   0.419   9.143 -0.2453  0.1274 -0.0291
 6951W        W 6951   3.225   0.698   7.908  0.2694  0.0593  0.1944
 6952W        W 6952   3.109   5.620   4.291 -0.3534 -0.0815  0.0216
 6953W        W 6953   2.722   4.402   0.578 -0.5883 -0.2143  0.0377
 6954W        W 6954   6.552   3.228   9.526  0.0866 -0.1704 -0.0759
 6955W        W 6955   5.681   5.513   8.186  0.1202 -0.1834 -0.1125
 6956W        W 6956   2.711   0.240   6.416 -0.2555 -0.2042 -0.0743
 6957W        W 6957   6.877   5.224   8.935  0.1978 -0.1076  0.0481
 6958W        W 6958   0.142   2.106   4.740 -0.1227  0.3184 -0.3565
 6959W        W 6959   5.302   8.938   1.737  0.0109 -0.1232 -0.2758
 6960W        W 6960   8.442   6.573   4.697 -0.2533  0.2627  0.1193
 6961W        W 6961   5.901   0.855   6.552 -0.0531  0.3439  0.0767
 6962W        W 6962   7.766   6.033   9.892  0.4668  0.0625  0.0489
 6963W        W 6963   1.213   7.043   9.284 -0.0545 -0.0681 -0.3606
 6964W        W 6964   2.981   1.586   9.988 -0.1029 -0.0358  0.2845
 6965W        W 6965   5.032   1.860   3.061  0.2219  0.0306  0.1573
 6966W        W 6966   3.682   6.728  10.193 -0.1849 -0.0797 -0.2543
 6967W        W 6967   2.729   0.356   4.862  0.1603 -0.1776  0.3999
 6968W        W 6968   1.898   1.701   1.336  0.2752 -0.2010  0.1470
 6969W        W 6969   3.351   0.861   9.977  0.2544  0.2983 -0.0210
 6970W        W 6970   6.212   7.645   3.789 -0.0898 -0.0820 -0.2343
 6971W        W 6971   7.743   1.983  10.157  0.2471  0.0323  0.2736
 6972W        W 6972   3.689   5.128   4.625  0.1426  0.2051  0.3193
 6973W        W 6973   8.563   2.423   6.109 -0.1514 -0.2003  0.1268
 6974W        W 6974   4.152   8.544   2.436  0.0462 -0.0306 -0.0463
 6975W        W 6975   4.078   8.947   4.263 -0.0656 -0.2863 -0.0509
 6976W        W 6976   5.532   7.325   1.500  0.1460  0.0014 -0.1837
 6977W        W 6977   3.646   4.250   1.719 -0.5073 -0.2644 -0.0382
 6978W        W 6978   7.156   3.323   8.188  0.3471  0.0925 -0.1579
 6979W        W 6979   5.710   3.193   7.021 -0.1338  0.1100 -0.1227
 6980W        W 6980   5.856   2.735   4.568 -0.0920  0.1340 -0.1815
 6981W        W 6981   4.127   9.827   9.330 -0.0191 -0.0555  0.0516
 6982W        W 6982   8.576   0.923   6.016 -0.1309 -0.2564 -0.0152
 6983W        W 6983   7.369   8.700   2.544  0.1948 -0.6032 -0.0674
 6984W        W 6984   6.060   3.220   5.768 -0.0546  0.2509 -0.1669
 6985W        W 6985   0.377   7.765   7.413 -0.0898  0.0800 -0.1070
 6986W        W 6986   9.481   6.221   5.515 -0.1591  0.2369  0.2513
 6987W        W 6987   7.906  10.224   8.558 -0.1018  0.0861 -0.0025
 6988W        W 6988   2.709   5.520   9.278  0.0064  0.0284 -0.5618
 6989W        W 6989   5.888   5.768   2.746  0.2372 -0.6024 -0.0620
 6990W        W 6990   9.492   7.015   1.463  0.1217  0.1146 -0.1813
 6991W        W 6991   6.718   6.111   7.919  0.1687  0.0378  0.4357
 6992W        W 6992   7.147   2.371   9.795  0.1041  0.0887  0.0289
 6993W        W 6993   1.583   4.950   0.756  0.0257 -0.3236  0.0701
 6994W        W 6994   3.175   7.351   3.607  0.2471 -0.1648  0.2583
 6995W        W 6995   2.011   8.432   8.140  0.1328 -0.0774  0.0410
 6996W        W 6996  10.054   1.401   1.833 -0.0957  0.2061  0.1350
 6997W        W 6997   6.280   7.236   1.063 -0.1283 -0.0300 -0.1097
 6998W        W 6998   8.556   2.798   7.120  0.4578 -0.0218  0.2727
 6999W        W 6999   5.054   3.644   8.690  0.2220 -0.0784  0.2616
 7000W        W 7000   8.253   9.103   2.297  0.0899  0.0840  0.0733
 7001W        W 7001   7.806   3.259   4.617  0.2202 -0.0263 -0.0909
 7002W        W 7002   7.809   9.107   5.456 -0.2772  0.0572 -0.1601
 7003W        W 7003   5.830   4.539   6.131 -0.0646  0.0785 -0.0171
 7004W        W 7004   8.785   0.600   0.774  0.0693 -0.2622  0.1903
 7005W        W 7005   8.286   2.009   5.980  0.2029  0.1783  0.1167
 7006W        W 7006   7.882   9.512   5.197 -0.0835 -0.1276 -0.2041
 7007W        W 7007   3.897   5.256   5.053  0.4032 -0.1596 -0.1910
 7008W        W 7008   9.916   9.024   5.645 -0.2879 -0.0549  0.2205
 7009W        W 7009   2.055   7.879   8.083  0.0663 -0.2810 -0.1809
 7010W        W 7010   5.856   9.891   2.184 -0.1271 -0.0274  0.1835
 7011W        W 7011  10.271   8.810   8.287  0.3190  0.1049  0.0740
 7012W        W 7012   3.637   2.406   4.712 -0.5089  0.1688  0.5244
 7013W        W 7013   6.394   0.019   6.928  0.0838 -0.0031  0.4187
 7014W        W 7014   5.660   5.969   1.760  0.2117  0.1139 -0.2369
 7015W        W 7015   2.938   6.009   2.027 -0.0366 -0.2555 -0.1933
 7016W        W 7016   1.713   6.639   6.488 -0.1347  0.0560  0.3003
 7017W        W 7017   0.278   2.110   1.985 -0.1089  0.1051  0.0703
 7018W        W 7018   3.507   9.052   4.589 -0.0327 -0.1191  0.1541
 7019W        W 7019   3.628   9.651   3.420  0.0176  0.0959  0.2281
 7020W        W 7020   4.829   5.015   3.281  0.1473 -0.0454 -0.1320
 7021W        W 7021   7.279   6.715   6.794  0.0649 -0.0318 -0.0665
 7022W        W 7022   4.855   6.600   4.257 -0.2355  0.2753 -0.1772
 7023W        W 7023   7.287   4.404   2.696 -0.4285 -0.0615  0.0801
 7024W        W 7024   3.415   5.660   2.053  0.3072 -0.0730 -0.0441
 7025W        W 7025   1.279   3.971   2.053  0.0870 -0.3229 -0.1771
 7026W        W 7026   7.705   3.538  10.067 -0.0303 -0.0012 -0.0566
 7027W        W 7027   1.867   0.047   0.115 -0.1411 -0.0103  0.1693
 7028W        W 7028   2.641   7.118   2.177  0.2255  0.0264  0.0127
 7029W        W 7029  10.065   4.108   4.475  0.0153  0.0453  0.0503
 7030W        W 7030   3.656   5.055   1.749 -0.1134  0.0315  0.3385
 7031W        W 7031   8.341   5.559   5.530 -0.0128 -0.2145  0.2064
 7032W        W 7032   7.707   7.642   8.921 -0.1854 -0.1406 -0.0422
 7033W        W 7033   1.135   2.258   8.122 -0.0305 -0.0186  0.0161
 7034W        W 7034   9.592   6.786   3.170  0.2131  0.3804 -0.3779
 7035W        W 7035   4.998   4.384   4.585 -0.2063  0.2474 -0.1982
 7036W        W 7036   4.667   0.398   5.525  0.1965  0.2919  0.1232
 7037W        W 7037   5.154   8.135   9.376  0.2975 -0.2075 -0.0950
 7038W        W 7038   1.543   6.824   3.689 -0.1832 -0.2685 -0.2589
 7039W        W 7039   1.025   9.170   0.973 -0.2401 -0.4783  0.0385
 7040W        W 7040   2.488   8.401   6.375  0.0964 -0.1137 -0.2251
 7041W        W 7041   3.945   0.087   8.936  0.2832 -0.2727  0.3388
 7042W        W 7042   7.003   6.779   4.325  0.1343 -0.1726  0.2424
 7043W        W 7043   6.251   0.780   4.164  0.0859 -0.0236  0.1258
 7044W        W 7044   3.005   3.045   7.970  0.1279 -0.0239 -0.1833
 7045W        W 7045   8.106   9.352   0.737 -0.1779 -0.1465  0.0692
 7046W        W 7046   0.451   5.713   2.352  0.0558  0.0897  0.0484
 7047W        W 7047   5.419   7.513   1.051 -0.3149 -0.1883  0.2428
 7048W        W 7048   4.297  10.111   8.182  0.4438 -0.0218 -0.1814
 7049W        W 7049   9.512   5.343  10.094  0.0803 -0.1354  0.0745
 7050W        W 7050   8.793   2.920   9.168 -0.2580 -0.1598 -0.0482
 7051W        W 7051   9.108   3.837   6.455  0.1582  0.2880 -0.0070
 7052W        W 7052   2.109   6.924   9.104  0.2104  0.2210 -0.1862
 7053W        W 7053   1.116   4.278   1.172  0.0281 -0.0001  0.0167
 7054W        W 7054   4.470   9.688   7.932  0.0082 -0.2543  0.0144
 7055W        W 7055  10.135   9.193   3.490 -0.0939  0.1433 -0.1380
 7056W        W 7056   2.481   7.246   8.377  0.0813  0.2187 -0.0305
 7057W        W 7057   1.680   2.908   6.081  0.3565 -0.1494  0.2223
 7058W        W 7058   9.124   5.525   8.416  0.0189  0.1618 -0.0766
 7059W        W 7059   1.024   5.203   5.342 -0.1439 -0.3739 -0.0979
 7060W        W 7060   7.582   8.187   5.669  0.1972  0.2700  0.1078
 7061W        W 7061   4.802   7.540   0.176  0.1015  0.2430 -0.2807
 7062W        W 7062   9.574   9.767   8.949  0.0933  0.1296 -0.2473
 7063W        W 7063   2.758   6.399   5.350  0.2106  0.2673 -0.3698
 7064W        W 7064   3.183   1.697   1.964  0.0885  0.1550  0.0767
 7065W        W 7065   9.624   1.853   8.969  0.2340  0.2678  0.1727
 7066W        W 7066   8.709   2.891   7.949 -0.3011  0.0209  0.1257
 7067W        W 7067   1.533   5.881   0.434 -0.0468  0.0318  0.0121
 7068W        W 7068   8.162   2.314   5.606 -0.0952  0.2677  0.1695
 7069W        W 7069   8.350   0.223   6.500  0.2253 -0.1897  0.3153
 7070W        W 7070   1.983   7.623   0.441  0.3421  0.2014 -0.4086
 7071W        W 7071   3.591   7.228   2.310  0.0993  0.0801  0.2092
 7072W        W 7072   7.880   7.270   3.523 -0.0091  0.2335  0.1752
 7073W        W 7073   9.512   5.333   2.274  0.1243  0.1000  0.1074
 7074W        W 7074   9.692   7.632   3.246 -0.1388 -0.0633 -0.1759
 7075W        W 7075   0.694   7.694   2.974 -0.4421  0.1958 -0.0561
 7076W        W 7076   3.850   0.584   8.849  0.1171  0.1451 -0.1583
 7077W        W 7077  10.042   7.045   4.451  0.1263 -0.1437  0.2453
 7078W        W 7078   4.683   1.924   3.564 -0.2728  0.3179 -0.3658
 7079W        W 7079   7.966  10.092   6.586 -0.0184  0.0072 -0.1180
 7080W        W 7080   4.426   4.695   9.233  0.1295  0.2752 -0.4818
 7081W        W 7081  10.003   9.366   8.997 -0.1137 -0.0182 -0.0790
 7082W        W 7082   2.041   9.631   3.629  0.0154 -0.0790 -0.1474
 7083W        W 7083   5.533   2.199   6.024 -0.0585  0.2398  0.0334
 7084W        W 7084   6.695   4.059   8.237  0.0204 -0.2161  0.3029
 7085W        W 7085   1.938   4.074   0.973  0.1264 -0.3511  0.1128
 7086W        W 7086   6.277   3.783   9.457 -0.1573 -0.1373 -0.0926
 7087W        W 7087   8.451   3.415   7.088 -0.0198 -0.0433 -0.0577
 7088W        W 7088   4.796   4.903   5.108 -0.0189 -0.1506 -0.0447
 7089W        W 7089   9.668   6.215   6.890 -0.2775 -0.2304  0.0747
 7090W        W 7090   6.930   2.300   1.175 -0.0661 -0.1279  0.0596
 7091W        W 7091   0.637   6.433   2.846 -0.0963 -0.1944  0.1824
 7092W        W 7092   6.177   2.027   6.504 -0.0052  0.3170 -0.0632
 7093W        W 7093   7.390   3.533   4.761  0.2576 -0.0810 -0.1212
 7094W        W 7094   8.885   9.040   8.021 -0.1455  0.0634 -0.1220
 7095W        W 7095   9.280   1.117  10.271  0.0333 -0.0366  0.1068
 7096W        W 7096   9.583   2.500   1.628 -0.0207 -0.0109  0.1028
 7097W        W 7097   3.510   5.216   7.261  0.1204 -0.1123  0.0528
 7098W        W 7098   5.856   7.132   2.566 -0.1765 -0.2608  0.0948
 7099W        W 7099   8.436   5.802   0.407  0.2316  0.2181 -0.4187
 7100W        W 7100   3.151   8.197   1.237  0.1897  0.1428 -0.1506
 7101W        W 7101   3.473   2.696   3.082  0.1286  0.0808 -0.4181
 7102W        W 7102   7.731  10.332   9.869 -0.2923  0.1852  0.2835
 7103W        W 7103   9.596   2.495  10.047 -0.1347 -0.0068  0.0206
 7104W        W 7104   9.431   3.813   5.629 -0.0510  0.0282  0.2958
 7105W        W 7105  10.053   3.057   9.574  0.3649 -0.2198  0.1138
 7106W        W 7106   6.709   0.943   0.535 -0.0028 -0.0860  0.1024
 7107W        W 7107   8.676   9.951   4.270  0.0011 -0.2136 -0.0835
 7108W        W 7108   2.747   0.417   0.347 -0.2263 -0.2496 -0.0666
 7109W        W 7109   6.490   8.904   3.339  0.0318  0.0344  0.4470
 7110W        W 7110   0.952   9.762   0.938 -0.2003  0.0347 -0.2971
 7111W        W 7111   7.438   1.045   5.048  0.3084  0.1155  0.1451
 7112W        W 7112   4.551   0.148   2.211  0.2076 -0.1392  0.0570
 7113W        W 7113   0.853   5.423   6.578 -0.1481  0.1537 -0.2094
 7114W        W 7114   9.492   8.059   2.496  0.0493  0.1497  0.1808
 7115W        W 7115   6.334   8.553   1.193  0.2568 -0.2233  0.0514
 7116W        W 7116   8.433   6.716   7.250  0.3518  0.1444 -0.0558
 7117W        W 7117   4.715   4.875   2.243  0.1685 -0.2167  0.0383
 7118W        W 7118   4.536   4.432   4.393  0.0495  0.1408 -0.1211
 7119W        W 7119   3.563   0.354   1.967  0.4170 -0.3498 -0.0113
 7120W        W 7120   9.509   9.249   8.977 -0.0072 -0.2300 -0.2763
 7121W        W 7121   2.712   4.018   1.879  0.0666  0.1052  0.1429
 7122W        W 7122   7.038  10.113   7.622  0.3260 -0.1582  0.2542
 7123W        W 7123   1.540   3.601   7.889  0.0725  0.0361  0.1229
 7124W        W 7124   1.180   0.058   1.173  0.0766 -0.1025 -0.0409
 7125W        W 7125   6.813   3.621   9.345  0.4902 -0.2685  0.2731
 7126W        W 7126   6.627   7.387   3.017  0.2015  0.4309 -0.1625
 7127W        W 7127   5.876   5.299   1.077 -0.0620  0.0566  0.1376
 7128W        W 7128   7.882   4.307   5.925  0.2925 -0.0123 -0.3038
 7129W        W 7129   8.664   3.857   6.955  0.2316  0.1012 -0.0231
 7130W        W 7130   3.855   1.264   4.166 -0.2559 -0.2531  0.0837
 7131W        W 7131   3.286   2.804   3.535  0.1166 -0.2911  0.2228
 7132W        W 7132   6.342   9.467   0.873  0.0516 -0.4663 -0.1329
 7133W        W 7133   7.235   2.100   7.857  0.1413  0.1342  0.0332
 7134W        W 7134   3.578   0.771   7.212 -0.0618 -0.1535 -0.2400
 7135W        W 7135  10.201   8.920   1.508 -0.1107  0.2543  0.0107
 7136W        W 7136   8.178   5.036  10.063 -0.1196 -0.1092 -0.0394
 7137W        W 7137  10.292   3.014   4.310  0.0716 -0.0799  0.1466
 7138W        W 7138   0.754   1.278   7.678  0.2080  0.0726 -0.1274
 7139W        W 7139   6.612   7.674   8.626  0.1500 -0.0903  0.0592
 7140W        W 7140   7.212   7.604   6.161 -0.1100  0.0164  0.1120
 7141W        W 7141   4.827   4.760   2.811  0.1398 -0.2229  0.2771
 7142W        W 7142   4.118   0.191   7.003 -0.2007 -0.2302  0.5700
 7143W        W 7143   5.982   3.646   7.110  0.3118  0.0418 -0.2555
 7144W        W 7144   8.147   7.638   0.076  0.1381  0.1432  0.1435
 7145W        W 7145   6.025   4.119   3.386  0.1879  0.0839  0.0893
 7146W        W 7146  10.317   8.556  10.076  0.1271  0.3167 -0.2687
 7147W        W 7147   6.276   7.752   1.115 -0.0678 -0.0965 -0.0218
 7148W        W 7148   2.986   1.376   0.696  0.0348 -0.0339  0.0444
 7149W        W 7149   3.030   2.889   5.855  0.0744  0.2447 -0.1363
 7150W        W 7150   9.704   9.446   3.244 -0.1222 -0.1059  0.0715
 7151W        W 7151   8.980   5.249   7.279 -0.0417 -0.0834 -0.0944
 7152W        W 7152   9.126   3.853   7.802  0.2532  0.0487  0.2148
 7153W        W 7153   3.233   0.454   9.681  0.1714  0.0408  0.2745
 7154W        W 7154   3.411   5.061   5.051  0.0076  0.0173  0.1735
 7155W        W 7155   2.374   1.803   0.987 -0.0163 -0.2173  0.0931
 7156W        W 7156   9.829   5.044   9.189  0.0249  0.0463 -0.1371
 7157W        W 7157   1.078   6.178  10.055 -0.0230 -0.0018  0.0025
 7158W        W 7158   5.090   3.825   1.520 -0.0312  0.0145 -0.3235
 7159W        W 7159  10.146   7.934   1.646  0.4049  0.2270 -0.1629
 7160W        W 7160   7.983   2.486   9.332 -0.1210 -0.1800 -0.2698
 7161W        W 7161  10.010   5.965   9.029 -0.0407  0.1313 -0.1224
 7162W        W 7162   3.882   6.907   3.481 -0.2440  0.2002 -0.0559
 7163W        W 7163   8.636   4.340   2.327  0.1707 -0.0650  0.2391
 7164W        W 7164   3.276   3.921   9.753  0.1025 -0.0850 -0.1722
 7165W        W 7165   6.485   2.094   3.521 -0.1449  0.0942  0.0837
 7166W        W 7166   4.606   4.777   4.046 -0.0608 -0.5083  0.4085
 7167W        W 7167   7.045  10.244   4.460  0.1471 -0.0174 -0.0345
 7168W        W 7168   3.459   9.547   5.431 -0.2707  0.1142 -0.2203
 7169W        W 7169   2.474   7.308   0.262 -0.2371 -0.0576 -0.2187
 7170W        W 7170   9.082   5.393   8.898 -0.1427 -0.1194 -0.0212
 7171W        W 7171   8.032   8.463   1.733 -0.1062 -0.4093 -0.3246
 7172W        W 7172  10.040   2.817   1.942  0.0389 -0.1090  0.0509
 7173W        W 7173   2.238   9.268   3.343 -0.0976  0.0482  0.1210
 7174W        W 7174   3.231   4.158   0.434  0.2391  0.0804  0.0117
 7175W        W 7175   1.588   3.912   3.324 -0.3049 -0.3403 -0.3883
 7176W        W 7176   9.732   5.589   6.136 -0.1631 -0.5178  0.0219
 7177W        W 7177   0.477   6.790   7.295 -0.0390  0.0807  0.2261
 7178W        W 7178   9.148   2.414   9.602  0.1614  0.0028 -0.2763
 7179W        W 7179   9.662   1.980   3.062 -0.3268 -0.2041  0.1730
 7180W        W 7180   7.191   6.977   1.396  0.1343 -0.1110  0.1446
 7181W        W 7181   3.653  10.011   4.906  0.0292  0.2128 -0.2569
 7182W        W 7182   4.520   9.732   7.399  0.0332 -0.1560  0.0227
 7183W        W 7183   9.308   9.941   8.335  0.0956  0.0053  0.1058
 7184W        W 7184   9.167   5.891   3.574  0.0875  0.2694 -0.3270
 7185W        W 7185   3.126   8.843   3.687  0.1082 -0.2931 -0.1116
 7186W        W 7186   8.173   9.633   4.293  0.5849 -0.0044 -0.0074
 7187W        W 7187   9.913   8.888   3.809  0.1437  0.2055 -0.0130
 7188W        W 7188   0.487   7.446   4.266 -0.0727  0.2857  0.1154
 7189W        W 7189   7.935   2.346   4.451  0.3803  0.0027 -0.4027
 7190W        W 7190   5.721   0.775   4.659  0.1760  0.0911 -0.1332
 7191W        W 7191   8.227   7.699   9.838 -0.0161 -0.0905 -0.2317
 7192W        W 7192   4.566   0.964   0.627  0.1301  0.0490  0.0957
 7193W        W 7193   3.767   8.646   4.486  0.0189 -0.0659  0.1625
 7194W        W 7194   2.540   3.737   0.061 -0.0946 -0.4476  0.1000
 7195W        W 7195   9.728   8.012   1.863  0.1545 -0.2924 -0.4255
 7196W        W 7196   2.389   2.058   4.119  0.3591 -0.0745  0.1320
 7197W        W 7197   7.741   1.800   3.282  0.0619 -0.0770 -0.0107
 7198W        W 7198   3.694   8.642   7.999  0.1025 -0.1764 -0.0318
 7199W        W 7199   0.985   7.787   3.562 -0.1559  0.0180  0.0656
 7200W        W 7200   3.894   7.980   8.862  0.0045  0.0372  0.0509
 7201W        W 7201   3.641   5.214   8.968 -0.2734 -0.1753 -0.1065
 7202W        W 7202  10.102   3.176   0.266  0.0969  0.1939  0.0119
 7203W        W 7203   2.121   8.078   0.563 -0.0880  0.1643 -0.1105
 7204W        W 7204   8.272   5.739   2.967  0.3081 -0.0318 -0.1236
 7205W        W 7205   0.270   0.842   7.282  0.3471 -0.3147  0.0450
 7206W        W 7206   1.321   5.040   6.141  0.0253 -0.0711  0.3689
 7207W        W 7207   4.733   4.853   4.555 -0.0467 -0.1512 -0.1044
 7208W        W 7208   8.899   4.457   4.503 -0.0685 -0.3290  0.0077
 7209W        W 7209   8.231   6.045   4.081  0.0300 -0.1928 -0.3045
 7210W        W 7210   9.983   2.540   7.228  0.0717 -0.2769 -0.2960
 7211W        W 7211   5.753  10.063   0.967 -0.0025  0.1976  0.1006
 7212W        W 7212   7.005   7.282   3.292  0.2412 -0.1976 -0.3106
 7213W        W 7213   3.197   9.776   4.786  0.0185  0.2097 -0.1124
 7214W        W 7214   6.026   7.360   7.084  0.0428 -0.1511  0.0470
 7215W        W 7215   4.712   8.358   7.581 -0.0754  0.0489  0.1820
 7216W        W 7216   6.408   5.058   1.045 -0.0663 -0.0620  0.1704
 7217W        W 7217   3.725   5.186   2.257 -0.3141 -0.0152 -0.5910
 7218W        W 7218   7.753   9.188   4.035 -0.3270 -0.2895  0.0769
 7219W        W 7219   9.199   0.713   9.644  0.0544  0.0554  0.0707
 7220W        W 7220  10.194   1.728   9.181 -0.0792 -0.2810  0.0794
 7221W        W 7221   1.891   6.282   0.213 -0.0435 -0.1180 -0.0282
 7222W        W 7222   3.840   0.306   4.166 -0.1667  0.1825 -0.0007
 7223W        W 7223   8.282   2.700   5.280 -0.1400  0.1532  0.2764
 7224W        W 7224   5.141   4.041   2.131 -0.2404  0.1733  0.1478
 7225W        W 7225   5.439   0.475   5.955 -0.1028 -0.4119  0.1556
 7226W        W 7226   5.218   7.430   5.302 -0.1256  0.1029 -0.0764
 7227W        W 7227   7.375  10.087   0.507  0.0459  0.0875 -0.4562
 7228W        W 7228   2.402   0.644   0.645  0.0945  0.2250  0.2084
 7229W        W 7229   2.558   1.600   0.014 -0.0789  0.3910 -0.2360
 7230W        W 7230   8.663   2.645   5.692 -0.2908 -0.3291 -0.1210
 7231W        W 7231   1.445   1.535   1.141 -0.0423 -0.0059 -0.0133
 7232W        W 7232   8.035   6.896   0.588 -0.2024  0.2112  0.0563
 7233W        W 7233   1.766   7.340   3.489  0.0279 -0.0513 -0.0606
 7234W        W 7234   8.087   8.791   6.394  0.1519  0.1111  0.1133
 7235W        W 7235   7.314   1.390   1.175 -0.1335 -0.0104 -0.0149
 7236W        W 7236   4.542   6.916   9.725 -0.0267 -0.1906  0.1930
 7237W        W 7237   5.366   2.564   4.356 -0.0860 -0.0512  0.1955
 7238W        W 7238   4.121   4.342   9.109 -0.0627  0.2543 -0.0233
 7239W        W 7239   1.116   8.235   8.558  0.1206 -0.0463  0.0359
 7240W        W 7240   8.076   0.153   7.560 -0.2411 -0.0170 -0.0207
 7241W        W 7241   8.473   3.808   0.304 -0.2064  0.0168  0.1673
 7242W        W 7242   7.237   3.104   3.761  0.1803  0.0096  0.0922
 7243W        W 7243   3.636   2.800   8.371  0.2408 -0.1124  0.3189
 7244W        W 7244   1.312   3.020   1.942  0.2268  0.1610 -0.2506
 7245W        W 7245   6.753   7.877   6.157 -0.0287 -0.1274  0.2854
 7246W        W 7246   1.921   6.794   2.910  0.3344 -0.2328  0.2930
 7247W        W 7247   6.202   2.833   5.294  0.1056 -0.1255  0.1157
 7248W        W 7248   0.658   4.679   6.789 -0.0793  0.2693  0.1858
 7249W        W 7249   6.581   6.622   2.663 -0.0778  0.2249  0.2480
 7250W        W 7250   6.593   7.423   5.152  0.0151  0.1749  0.2475
 7251W        W 7251   6.962   7.990   6.651  0.3470 -0.2053  0.1420
 7252W        W 7252   5.639   2.877   7.398  0.0270 -0.1574 -0.0911
 7253W        W 7253   3.921   0.486   0.490 -0.0691 -0.1653  0.1253
 7254W        W 7254   0.020   1.293   0.895  0.0404 -0.0744 -0.2114
 7255W        W 7255   5.034   4.203   3.632  0.1390 -0.1437  0.2906
 7256W        W 7256   4.481   8.210  10.110 -0.0720 -0.0092 -0.2024
 7257W        W 7257   1.485   1.914   8.098 -0.0700  0.2164  0.0465
 7258W        W 7258   4.690   2.278   1.893  0.0804  0.1235  0.0774
 7259W        W 7259   4.061   6.858   3.924  0.2362 -0.2522 -0.2225
 7260W        W 7260   3.229   1.656   4.296 -0.0283 -0.0283 -0.0540
 7261W        W 7261   1.873   8.500   4.564 -0.0480  0.1775 -0.3636
 7262W        W 7262   1.581   0.177   1.453  0.0211  0.1305 -0.0125
 7263W        W 7263   0.681   7.637   5.114 -0.0066  0.0081  0.0810
 7264W        W 7264   8.225   8.210   8.448 -0.4640  0.1475  0.0273
 7265W        W 7265   1.206   7.562   9.082 -0.2648  0.0923  0.0954
 7266W        W 7266   9.901   5.000  10.310 -0.0410 -0.0239 -0.0127
 7267W        W 7267   4.444   8.770   3.923 -0.1857 -0.0552 -0.2307
 7268W        W 7268   5.098   1.722   7.071 -0.0183 -0.4206 -0.0535
 7269W        W 7269   2.047   7.072   5.420  0.1057  0.1557  0.2049
 7270W        W 7270   9.784   4.424   4.038  0.1205 -0.1083 -0.0456
 7271W        W 7271   5.259   5.534   5.772 -0.0137 -0.0795 -0.0355
 7272W        W 7272   5.797   5.463   1.776  0.1384  0.0167  0.0307
 7273W        W 7273   1.036   0.849   4.229 -0.2422 -0.2987 -0.0316
 7274W        W 7274   5.166   9.718   8.867 -0.0211 -0.2888 -0.0639
 7275W        W 7275   6.045   7.935   1.859 -0.1067 -0.2372  0.1405
 7276W        W 7276   5.206   3.822   9.132 -0.1395  0.0186 -0.1213
 7277W        W 7277   7.228   1.308   3.460  0.2125  0.2345 -0.0228
 7278W        W 7278   0.914   1.353   2.835  0.1481  0.1730 -0.0903
 7279W        W 7279   5.531   7.096   1.991  0.2308 -0.2405 -0.0814
 7280W        W 7280   6.360   7.221   5.731  0.2757  0.0604  0.2603
 7281W        W 7281   3.310   8.928   8.804 -0.0777  0.1108 -0.0445
 7282W        W 7282  10.261   0.109   4.384 -0.1951 -0.3933 -0.2080
 7283W        W 7283   0.366   0.306   4.768  0.1027 -0.0268 -0.3904
 7284W        W 7284   0.063   3.092   0.759  0.1957  0.0058  0.3173
 7285W        W 7285   4.944   9.111   3.148 -0.0643  0.1087  0.0246
 7286W        W 7286   4.354   0.670   8.926 -0.0255 -0.2496 -0.1993
 7287W        W 7287   2.748   4.839   0.410 -0.1377  0.1471  0.1793
 7288W        W 7288   6.861   2.604   5.941  0.4042 -0.1619  0.2303
 7289W        W 7289   8.566   3.521   1.132  0.2222  0.2443 -0.1539
 7290W        W 7290   9.175   3.131   7.693  0.2433  0.2592  0.0498
 7291W        W 7291   5.228   0.384   1.887 -0.2103 -0.3544 -0.0136
 7292W        W 7292   1.225   0.647   0.758  0.1244 -0.2610  0.1402
 7293W        W 7293   1.271   3.925   6.799  0.2275 -0.1386  0.1349
 7294W        W 7294   5.478   6.498   8.916  0.0555 -0.2227 -0.0774
 7295W        W 7295   2.154   7.924   2.216  0.0727 -0.3394  0.1747
 7296W        W 7296   3.094   9.152   3.248 -0.0212 -0.4435 -0.1620
 7297W        W 7297   4.432   1.388   5.669  0.1067 -0.1234 -0.0125
 7298W        W 7298   5.836   4.078   0.765 -0.1899 -0.0815 -0.2966
 7299W        W 7299   3.989   0.049   3.735 -0.1713 -0.1268  0.2001
 7300W        W 7300   6.656   0.167   9.410 -0.0784  0.0585 -0.0447
 7301W        W 7301   1.032  10.264   7.445  0.2631  0.2699  0.1111
 7302W        W 7302   9.070   1.973   1.029  0.1381  0.0857 -0.1385
 7303W        W 7303   4.949   0.749   0.238 -0.0152  0.0529  0.1240
 7304W        W 7304   6.612   2.008   7.562  0.1688  0.0542 -0.3377
 7305W        W 7305   2.086   1.757  10.250  0.0937  0.1360  0.0355
 7306W        W 7306   4.128   9.239   1.969 -0.0213  0.1395  0.0773
 7307W        W 7307   9.040   2.238   1.689  0.0195  0.2657 -0.1457
 7308W        W 7308   1.838   0.258   6.334 -0.3649  0.2898 -0.0657
 7309W        W 7309   3.431   6.128   4.809  0.0784  0.0167  0.1834
 7310W        W 7310   6.354   1.515   3.347 -0.1346 -0.1032  0.0724
 7311W        W 7311   8.149   0.915   3.174 -0.1951 -0.3357 -0.0183
 7312W        W 7312   7.417   2.984   8.969 -0.1046  0.0086 -0.3755
 7313W        W 7313   4.596   7.405   8.986 -0.1324  0.1560 -0.1546
 7314W        W 7314   4.787   1.235   0.156  0.0237 -0.2764  0.1522
 7315W        W 7315   4.816   1.303   9.971  0.1821  0.0038  0.1699
 7316W        W 7316   2.642   5.410   9.792  0.1432  0.2948 -0.0675
 7317W        W 7317   2.450   0.184   0.939  0.0674 -0.1124  0.0723
 7318W        W 7318   4.246   2.519   5.988  0.1589 -0.0792 -0.0621
 7319W        W 7319   2.684  10.087   1.278  0.1935 -0.1038 -0.1957
 7320W        W 7320   9.341   5.559   7.970  0.0583 -0.0147 -0.3243
 7321W        W 7321   5.227   4.328   9.229 -0.0647  0.1876  0.0640
 7322W        W 7322   4.423   9.581   6.963 -0.0681 -0.2230  0.0714
 7323W        W 7323   9.554  10.027   0.191  0.1860  0.1173 -0.0574
 7324W        W 7324   7.244   3.399   8.700  0.0932  0.1904 -0.0820
 7325W        W 7325   6.554   9.061   7.329  0.0631  0.1182 -0.0210
 7326W        W 7326   2.297   8.127  10.010  0.0976 -0.0245  0.1897
 7327W        W 7327   7.354   4.501   5.088  0.2705 -0.2976 -0.0409
 7328W        W 7328   9.406   9.330   5.677  0.2037  0.0634 -0.2200
 7329W        W 7329   6.492   8.160   1.044  0.1749  0.1833 -0.2253
 7330W        W 7330   8.319   3.293   7.911  0.0914 -0.1268  0.0356
 7331W        W 7331   1.018   6.545   7.928 -0.3814 -0.0837  0.1177
 7332W        W 7332   7.978   1.001   2.647  0.1537 -0.0485  0.3025
 7333W        W 7333   3.350   6.182   3.630 -0.3302 -0.3249 -0.1730
 7334W        W 7334   1.596   7.731   9.357 -0.1015 -0.1542 -0.2632
 7335W        W 7335   6.320   0.766   2.355  0.0673  0.0497  0.0103
 7336W        W 7336   4.427   8.755   8.409 -0.0291  0.2262 -0.1851
 7337W        W 7337   2.002   7.448   1.503 -0.0161 -0.1876 -0.0296
 7338W        W 7338   9.039   0.382   1.170 -0.0401  0.3480  0.0410
 7339W        W 7339   3.214   1.649   6.956  0.0921 -0.0618 -0.0106
 7340W        W 7340   6.303   1.240   3.740  0.1928 -0.0171 -0.2599
 7341W        W 7341   4.230   5.478   5.813 -0.2693  0.1173  0.2599
 7342W        W 7342   1.412   6.921   6.190 -0.1152 -0.0225 -0.2411
 7343W        W 7343   5.151   3.224   9.733  0.2106 -0.2440  0.3595
 7344W        W 7344   3.793  10.128   5.422 -0.0728  0.1244  0.0095
 7345W        W 7345   6.096   2.206   6.047 -0.2039  0.0562  0.0571
 7346W        W 7346   0.468  10.124   5.014  0.1418  0.1739 -0.0176
 7347W        W 7347   6.406   1.126  10.114  0.2509  0.1283 -0.3104
 7348W        W 7348   6.789   0.622   5.313 -0.2115  0.2090 -0.0626
 7349W        W 7349   4.107   9.330   5.571 -0.0414 -0.2124  0.1376
 7350W        W 7350   1.652   8.671   0.488  0.1970  0.1329 -0.0763
 7351W        W 7351   8.492   7.272   1.393  0.0857  0.3399 -0.2029
 7352W        W 7352   1.202   4.999   2.207 -0.1068  0.0210  0.2893
 7353W        W 7353   8.243   7.684   1.157 -0.1322  0.0524 -0.3305
 7354W        W 7354   4.781   1.098   3.930 -0.0977  0.2895 -0.1804
 7355W        W 7355   9.626   2.268   5.201  0.0639 -0.1038  0.0315
 7356W        W 7356   4.605   7.632   3.337  0.1543 -0.1121 -0.3669
 7357W        W 7357   5.755   9.357   7.729  0.1902  0.0917 -0.0411
 7358W        W 7358   8.236   1.055   8.068 -0.2533  0.0568 -0.2294
 7359W        W 7359   8.650   1.341  10.275  0.1718 -0.0435 -0.1208
 7360W        W 7360   0.040   2.566   3.444 -0.2044  0.0352 -0.2255
 7361W        W 7361   3.246   2.462   5.779 -0.0490  0.1549  0.1129
 7362W        W 7362   1.600   5.050   2.743  0.0208 -0.0330  0.3996
 7363W        W 7363   3.833   0.426   5.299 -0.3344 -0.1161  0.3761
 7364W        W 7364   1.040   5.684   7.676 -0.3693  0.2655  0.2363
 7365W        W 7365   9.073   9.081   8.901  0.0049  0.0789 -0.2724
 7366W        W 7366   1.535   7.978   8.425 -0.1114 -0.2072  0.1472
 7367W        W 7367   8.341   6.765   0.257  0.1004 -0.2003 -0.1077
 7368W        W 7368   1.961   5.633   1.946  0.0623  0.1828  0.2104
 7369W        W 7369   4.659   0.143   0.880  0.1887 -0.0083  0.0971
 7370W        W 7370   7.053   7.273   0.667 -0.1039  0.3135 -0.0412
 7371W        W 7371   4.011   1.490   1.553  0.1366  0.0385  0.1897
 7372W        W 7372   5.815   4.913   0.187 -0.2624  0.1518  0.1167
 7373W        W 7373   7.756   6.801   0.118 -0.0440 -0.0521 -0.0645
 7374W        W 7374   1.265   7.979   7.143 -0.1060 -0.0772 -0.1294
 7375W        W 7375   7.103   3.323   7.593  0.3314 -0.0944 -0.0703
 7376W        W 7376   3.664   5.937   1.747 -0.0309 -0.0246 -0.2186
 7377W        W 7377   4.515   7.701  10.159 -0.1514  0.0972 -0.1316
 7378W        W 7378   6.583   4.756   2.760 -0.0287 -0.3571 -0.2936
 7379W        W 7379   7.042   7.305   3.781  0.1987 -0.1859  0.1672
 7380W        W 7380   6.828   7.829   1.285 -0.0210 -0.0317 -0.1288
 7381W        W 7381   1.460   4.501   1.480 -0.1228 -0.0642  0.3681
 7382W        W 7382   3.111   8.245   8.399  0.0129 -0.2694  0.0788
 7383W        W 7383   9.788   0.571   1.852  0.4042  0.2796 -0.3724
 7384W        W 7384   7.935   0.986   8.941 -0.3281 -0.0164  0.1475
 7385W        W 7385   1.553   1.607   2.174  0.0550 -0.0761 -0.0869
 7386W        W 7386   0.289   2.962   1.176  0.2295  0.0602 -0.0168
 7387W        W 7387   8.368   2.752   0.396 -0.0579 -0.4207  0.0951
 7388W        W 7388   4.223   4.364   0.179 -0.4433 -0.0778  0.0304
 7389W        W 7389   1.669   8.270   0.801  0.1273 -0.1346  0.1641
 7390W        W 7390   8.557   6.169   9.405 -0.4320  0.0623 -0.2161
 7391W        W 7391   0.996   3.258  10.192 -0.0172  0.0001  0.1880
 7392W        W 7392   2.138   8.891   1.935 -0.0572  0.1546 -0.0053
 7393W        W 7393   6.064   7.419   7.563 -0.1004 -0.2290 -0.0141
 7394W        W 7394   8.516   6.246   1.143  0.1340 -0.0196 -0.0939
 7395W        W 7395   6.669   6.113   2.837  0.0565  0.4544  0.1952
 7396W        W 7396   2.887   9.459   9.437 -0.3519 -0.3906  0.1841
 7397W        W 7397   6.423   8.870   9.464 -0.1789 -0.0101  0.4427
 7398W        W 7398   1.265   1.761   6.087 -0.2019 -0.1219 -0.2529
 7399W        W 7399   8.056   8.571   9.377 -0.2538  0.0837  0.0757
 7400W        W 7400   9.692   0.615   8.221  0.1189  0.0954  0.4630
 7401W        W 7401   6.174   1.435   6.159 -0.0561  0.0826  0.0148
 7402W        W 7402   3.914   1.850   7.516 -0.1552  0.0611  0.2036
 7403W        W 7403   2.089   8.670   9.261 -0.5029  0.2659  0.0077
 7404W        W 7404  10.024   7.496   4.887 -0.1452 -0.1555  0.2703
 7405W        W 7405   2.253   1.523   8.433 -0.1202  0.0405  0.0016
 7406W        W 7406   5.192   8.513   5.468  0.0845  0.0562 -0.1781
 7407W        W 7407   7.839   0.593   9.287  0.1906  0.0663  0.0301
 7408W        W 7408   3.684   1.620   2.084 -0.1818  0.1132 -0.1073
 7409W        W 7409   5.244   3.209   1.549  0.0300  0.0114 -0.2889
 7410W        W 7410   3.483   4.895   3.758 -0.1156  0.3079  0.3993
 7411W        W 7411   3.680   4.710   8.725  0.2143 -0.0388  0.0535
 7412W        W 7412   6.792   7.751   5.525  0.0454 -0.0104  0.0221
 7413W        W 7413   1.650   9.990   4.389 -0.1189 -0.2502 -0.1422
 7414W        W 7414   4.715   8.398   4.583  0.0096 -0.3439 -0.0800
 7415W        W 7415   8.103   0.174   5.203  0.0809 -0.4190  0.1777
 7416W        W 7416   3.769   9.670   1.910  0.0123 -0.3542 -0.0732
 7417W        W 7417   4.049   1.622   2.489 -0.2721  0.1073 -0.3037
 7418W        W 7418   6.112   5.319   8.116 -0.1322  0.1424  0.3103
 7419W        W 7419   1.725   3.531  10.154 -0.1160  0.1040 -0.1220
 7420W        W 7420   6.597   3.610   4.261  0.1557 -0.2527  0.0971
 7421W        W 7421   2.303   6.034   5.112  0.1143 -0.3765 -0.1429
 7422W        W 7422   5.890   8.708   3.002  0.2570 -0.0011 -0.1716
 7423W        W 7423  10.148   3.775   6.775  0.0811 -0.0626  0.2207
 7424W        W 7424   6.924   1.409   0.388  0.1259 -0.0330  0.0670
 7425W        W 7425   3.666   9.499   7.831  0.1635  0.1431  0.1550
 7426W        W 7426   2.629   5.675   0.281  0.0161 -0.2597 -0.1403
 7427W        W 7427   2.536   4.853   8.287  0.1162 -0.1889 -0.0475
 7428W        W 7428   5.809   1.786   6.271 -0.1572 -0.2260  0.2229
 7429W        W 7429   3.115   2.607   9.281  0.1242 -0.1925  0.1221
 7430W        W 7430   8.822   6.493   4.354 -0.2464 -0.3833  0.0744
 7431W        W 7431   7.997   3.525   0.172  0.0134 -0.1222 -0.2229
 7432W        W 7432   1.093   2.808  10.288  0.0498 -0.1579 -0.1609
 7433W        W 7433   1.936   0.326   3.293 -0.1619 -0.3115  0.2518
 7434W        W 7434   2.782   6.714   5.824  0.0353  0.0813 -0.2395
 7435W        W 7435   3.488   0.103   5.110  0.1177  0.0120 -0.3141
 7436W        W 7436   9.334   5.909   6.026  0.0601 -0.1623 -0.2090
 7437W        W 7437   5.380   5.375   6.353 -0.1299 -0.0822  0.2530
 7438W        W 7438   6.120   9.056   7.056  0.1418  0.1041  0.0339
 7439W        W 7439   0.485   0.880   9.031  0.2839 -0.0385 -0.1529
 7440W        W 7440   9.326   8.642   8.162  0.1929  0.0665 -0.0745
 7441W        W 7441   9.851   7.356   2.301 -0.0675  0.3542 -0.0956
 7442W        W 7442   5.810   2.832   1.597  0.0172  0.2749 -0.0248
 7443W        W 7443   5.448   7.700   0.509 -0.1798  0.1612  0.0286
 7444W        W 7444   3.538   8.261   5.258  0.1181  0.1654 -0.1212
 7445W        W 7445  10.184   7.334   6.584  0.4286  0.1260  0.0561
 7446W        W 7446   1.773   8.776   1.180 -0.0078  0.1210  0.0547
 7447W        W 7447   2.913   8.304   9.145 -0.1060  0.0820  0.1334
 7448W        W 7448   7.601   9.616   6.111  0.1398 -0.0083 -0.1035
 7449W        W 7449   4.528   9.542   9.519 -0.2774 -0.0812 -0.2139
 7450W        W 7450   2.197   9.255   2.858  0.1727 -0.3056 -0.0038
 7451W        W 7451   4.606   6.078   7.034 -0.0639  0.1005  0.2784
 7452W        W 7452   1.953   9.429   2.422  0.0089  0.1861 -0.1302
 7453W        W 7453   2.323   6.952   2.604 -0.2194  0.0832 -0.3352
 7454W        W 7454   9.320   4.618   5.544  0.1648 -0.1483 -0.0388
 7455W        W 7455   4.392   1.097   6.233  0.2415 -0.0842 -0.2203
 7456W        W 7456   8.366   1.764   2.010  0.0255  0.1954 -0.3163
 7457W        W 7457   9.105   3.034   6.795 -0.2121 -0.0721 -0.1527
 7458W        W 7458   8.946   3.797   9.914  0.2400 -0.2127  0.0033
 7459W        W 7459   1.981   8.635   6.101 -0.0038 -0.0130  0.1992
 7460W        W 7460   2.085   9.296   5.043 -0.1368  0.1018  0.2335
 7461W        W 7461   7.982   9.152   7.359 -0.0588 -0.1956  0.0810
 7462W        W 7462   7.401  10.153   2.109  0.0988  0.1302  0.1525
 7463W        W 7463   6.201   6.572   0.510 -0.0316 -0.1227 -0.0016
 7464W        W 7464   7.794   8.027   1.898 -0.4151  0.0484  0.1273
 7465W        W 7465   2.241   9.853  10.025  0.2196  0.0342 -0.0206
 7466W        W 7466   8.510   3.135   8.810 -0.1273 -0.3464  0.0020
 7467W        W 7467   1.127   8.508   1.996  0.0976 -0.0263  0.0266
 7468W        W 7468   7.371   3.142   2.218 -0.3736 -0.1020  0.1854
 7469W        W 7469   3.407   1.374  10.057  0.0287  0.1672  0.0422
 7470W        W 7470   4.558   0.495   6.986  0.0552  0.2280 -0.1483
 7471W        W 7471   5.289   4.694   7.792  0.0284 -0.0420  0.0616
 7472W        W 7472   5.341   5.125   1.598  0.1472 -0.2414 -0.2186
 7473W        W 7473   9.780   7.478   4.332  0.0525 -0.2492  0.0184
 7474W        W 7474   4.788   5.787   8.850 -0.1737 -0.2649 -0.0578
 7475W        W 7475   8.537   6.999   6.858  0.2336 -0.1118  0.2335
 7476W        W 7476   4.728   2.001   9.022 -0.1803 -0.2284  0.0168
 7477W        W 7477   6.949   3.372   4.892 -0.1206 -0.0114  0.1294
 7478W        W 7478   3.542   9.093   1.433  0.2886  0.0926 -0.3330
 7479W        W 7479   2.859   1.779   9.487  0.2330 -0.0923 -0.1052
 7480W        W 7480   9.290   6.619   5.316  0.0874 -0.1248 -0.0203
 7481W        W 7481   5.825   5.806   6.510  0.0496  0.1110 -0.0861
 7482W        W 7482   4.754   3.043  10.160 -0.3559 -0.1353  0.1581
 7483W        W 7483   5.931   7.101   6.036  0.0965  0.4500  0.0739
 7484W        W 7484   7.620   0.404   0.976 -0.1062 -0.2088  0.0023
 7485W        W 7485   8.998   8.935   1.694  0.0062  0.0653  0.1805
 7486W        W 7486   6.239   0.923   0.273  0.0767 -0.0372 -0.3406
 7487W        W 7487   9.236   3.251   7.191 -0.2322 -0.0467  0.2919
 7488W        W 7488   0.770   1.790   5.996  0.2656 -0.2307 -0.0474
 7489W        W 7489   1.783   2.079   9.921  0.1888 -0.0132 -0.2537
 7490W        W 7490   2.228   4.432   2.667  0.1241  0.1243 -0.0928
 7491W        W 7491   3.483   6.957   0.489  0.1121  0.1122  0.0499
 7492W        W 7492   7.986   5.944   6.181  0.3903 -0.1578  0.2468
 7493W        W 7493   2.400   4.255   9.293  0.0809  0.2362  0.0744
 7494W        W 7494   0.075   3.908   0.909  0.3614 -0.0827  0.0070
 7495W        W 7495   4.741   4.159   1.326 -0.3064  0.2062  0.1855
 7496W        W 7496   2.288   6.428   9.988  0.1210 -0.1174  0.1816
 7497W        W 7497   8.939   4.225   1.468  0.1285  0.1476  0.0429
 7498W        W 7498   4.055   9.453   8.081 -0.0426  0.0680 -0.1626
 7499W        W 7499   1.882   6.086   1.729  0.2254  0.3375  0.0193
 7500W        W 7500   7.886   9.123  10.204  0.3066  0.0193  0.1748
 7501W        W 7501   5.523   0.490   6.475 -0.0271 -0.2376  0.2027
 7502W        W 7502   0.485   5.080   6.582  0.0041 -0.1845  0.0179
 7503W        W 7503   7.185   3.723   4.307 -0.2404  0.0097 -0.2322
 7504W        W 7504   3.039   2.384   4.763  0.1099  0.0060 -0.2508
 7505W        W 7505   2.806   9.446   4.128  0.1418  0.1114 -0.0787
 7506W        W 7506   7.600   2.317   0.813 -0.0382  0.1816  0.0047
 7507W        W 7507   2.840   4.960   1.429 -0.0518  0.0752 -0.2831
 7508W        W 7508   7.982   9.811   8.320  0.0493 -0.0266 -0.1034
 7509W        W 7509   8.183   8.688   7.511  0.0006  0.1501  0.1835
 7510W        W 7510   3.494   4.599   9.516 -0.7001 -0.0191  0.2162
 7511W        W 7511   7.402   9.563   3.918  0.1167  0.5563 -0.7319
 7512W        W 7512   0.329   9.336   4.271  0.0696 -0.1772 -0.1638
 7513W        W 7513   1.402   9.778   5.859 -0.2062 -0.1246 -0.1367
 7514W        W 7514  10.279   4.387   9.620  0.2166  0.1211  0.1889
 7515W        W 7515   4.323   9.696   5.915  0.0392  0.0572  0.2061
 7516W        W 7516   1.698   2.369   5.028  0.1023  0.1195 -0.1401
 7517W        W 7517   9.016   8.545   3.378  0.1976 -0.1711 -0.1216
 7518W        W 7518  10.080   3.853   3.296  0.2566  0.0073  0.3352
 7519W        W 7519   1.108   5.450   1.581 -0.1396  0.2775  0.2060
 7520W        W 7520   6.061   2.159   1.294  0.1009 -0.0772  0.2357
 7521W        W 7521   3.140   6.053   1.160  0.1152  0.2830 -0.0313
 7522W        W 7522   5.481   4.943  10.126 -0.1135 -0.0102  0.2423
 7523W        W 7523   6.272   2.880   6.584 -0.0378  0.1435  0.1363
 7524W        W 7524   7.318   4.206   6.582 -0.4449 -0.2711  0.0192
 7525W        W 7525   5.388   8.364   1.806  0.0169  0.0691  0.2005
 7526W        W 7526   6.206   6.019   9.113  0.1558  0.0719 -0.3430
 7527W        W 7527   3.958   6.297   9.234 -0.2026  0.2018  0.0356
 7528W        W 7528   3.048   8.529   9.668 -0.1479  0.0556 -0.2895
 7529W        W 7529   9.452   0.813   7.803  0.0493  0.4017  0.1016
 7530W        W 7530   2.076   3.616   7.792 -0.2660  0.0467 -0.1985
 7531W        W 7531   8.742   8.384   0.660  0.2742  0.2140 -0.2219
 7532W        W 7532   2.832   8.714   4.938 -0.0888  0.2982 -0.2734
 7533W        W 7533   9.525   6.871   2.041  0.0272 -0.1335 -0.2453
 7534W        W 7534   5.721   8.787   2.563 -0.3268 -0.3101 -0.0220
 7535W        W 7535   7.832   6.286   0.049 -0.1165  0.4193  0.2629
 7536W        W 7536   0.751   2.014   8.343  0.3395 -0.0037  0.0375
 7537W        W 7537   6.079   2.343   3.460 -0.3974  0.0909 -0.1487
 7538W        W 7538   8.325   8.839   6.989  0.1208  0.1644  0.0224
 7539W        W 7539   4.474   6.695  10.276  0.0879 -0.0039  0.3726
 7540W        W 7540   7.232   3.385   9.936 -0.2471  0.1146  0.0787
 7541W        W 7541   6.609   4.470   7.997  0.0999  0.2743 -0.1182
 7542W        W 7542   6.929  10.166   6.685 -0.3693  0.4022 -0.3264
 7543W        W 7543   7.996   7.804   7.942 -0.1719  0.1636 -0.2799
 7544W        W 7544   1.503   8.854   3.831  0.0689 -0.1129 -0.1075
 7545W        W 7545   2.707   4.767   7.439 -0.3014  0.1751 -0.3259
 7546W        W 7546   3.941   9.321   1.499  0.0381 -0.3287 -0.0125
 7547W        W 7547   4.159   5.507   3.636  0.1076  0.2205 -0.2516
 7548W        W 7548   4.529   3.461   0.874  0.0682  0.1222  0.0416
 7549W        W 7549   6.203   0.529   4.588 -0.0063 -0.1083  0.1772
 7550W        W 7550   2.990   4.781   4.825 -0.0374 -0.0117  0.1030
 7551W        W 7551   0.191   5.480   0.608 -0.1470 -0.0331 -0.3091
 7552W        W 7552   2.400   1.580   9.383  0.1084  0.3859  0.3356
 7553W        W 7553   0.120   6.721   6.902  0.3388 -0.3480 -0.1708
 7554W        W 7554   9.852   2.123   8.368  0.2269 -0.5824 -0.2020
 7555W        W 7555   3.094   3.313   0.498  0.2268  0.0372  0.0957
 7556W        W 7556   0.969   8.228   3.710 -0.0743  0.1730 -0.3284
 7557W        W 7557   0.857   4.620   2.315 -0.2326  0.0439  0.0087
 7558W        W 7558   7.588   5.609   5.865 -0.2122 -0.1369 -0.1716
 7559W        W 7559   6.296   5.377   5.746 -0.0058 -0.0040  0.0758
 7560W        W 7560   8.261   5.788   2.328  0.1290 -0.0198  0.1885
 7561W        W 7561   1.498   0.224   2.045  0.0470  0.4135  0.1045
 7562W        W 7562   7.087   3.498   2.488  0.1228  0.3454 -0.0718
 7563W        W 7563   7.066   5.303   3.597  0.0191  0.1524 -0.0459
 7564W        W 7564   2.506   3.463   1.869  0.0396 -0.0682  0.3353
 7565W        W 7565   7.201   2.112   3.849  0.0083  0.3001  0.0425
 7566W        W 7566   2.494   7.816   3.241 -0.0578  0.1270 -0.1690
 7567W        W 7567   7.730   2.783   5.442  0.0184  0.2706 -0.1324
 7568W        W 7568   5.320   6.982   1.176 -0.0592  0.0202 -0.1539
 7569W        W 7569   5.060   7.778  10.060 -0.1100 -0.0958  0.0669
 7570W        W 7570   3.866   7.397   8.545  0.0487  0.0780 -0.4222
 7571W        W 7571   8.040   6.359   4.983  0.0084  0.0922  0.0553
 7572W        W 7572   6.831   4.933   3.831 -0.0452 -0.1206 -0.4911
 7573W        W 7573   3.382   7.486   0.528  0.1123 -0.0859 -0.0144
 7574W        W 7574   9.889   5.392   2.655 -0.2001 -0.2001  0.3369
 7575W        W 7575   8.990   2.625   7.405  0.0053  0.1222 -0.1953
 7576W        W 7576   4.654   6.511   4.812  0.1007  0.0137 -0.0908
 7577W        W 7577   5.754   5.891  10.226 -0.1931  0.4382  0.0432
 7578W        W 7578   3.223   4.393   9.901 -0.0107 -0.1152  0.1272
 7579W        W 7579  10.146   1.343   3.694 -0.0274 -0.1358 -0.1737
 7580W        W 7580   8.596   3.167   1.496 -0.1321  0.0014 -0.1994
 7581W        W 7581   2.849   6.431   3.744  0.2795  0.1355 -0.0763
 7582W        W 7582   3.508   5.707   6.348  0.3063  0.4343 -0.2077
 7583W        W 7583   0.327   3.402   4.121  0.0794 -0.4216  0.2973
 7584W        W 7584   4.486   5.098   3.644 -0.1921 -0.0855 -0.1854
 7585W        W 7585   3.027   6.382   7.757 -0.2140  0.0812 -0.5210
 7586W        W 7586   6.626   5.271   9.340 -0.2992  0.4330 -0.3386
 7587W        W 7587   7.266   2.896   9.838 -0.1024 -0.0639 -0.1041
 7588W        W 7588   6.152   1.535   6.697 -0.0546 -0.3647 -0.1005
 7589W        W 7589   8.435   7.639   3.791 -0.1689  0.0239 -0.0653
 7590W        W 7590   6.576  10.314   1.229 -0.0989  0.0662 -0.1320
 7591W        W 7591   0.716   8.311   8.133 -0.0925 -0.0501 -0.0552
 7592W        W 7592   7.738   0.967   5.496  0.0740 -0.2017  0.2080
 7593W        W 7593   6.421   5.690   9.510  0.0966  0.0096  0.1894
 7594W        W 7594   8.864   9.606   9.712  0.3610 -0.2728  0.2120
 7595W        W 7595   7.365   8.203   7.039  0.0717  0.0509 -0.1272
 7596W        W 7596   9.241   5.064   2.001  0.3130  0.2509 -0.0207
 7597W        W 7597   3.036   5.250   8.966 -0.6186 -0.2714  0.0002
 7598W        W 7598  10.306   5.817   2.592  0.0687  0.1278  0.0611
 7599W        W 7599   9.782   8.155   3.234 -0.0427 -0.0190  0.4325
 7600W        W 7600   7.707   2.370   9.792 -0.0486 -0.0750  0.1934
 7601W        W 7601   1.375   1.385   6.440  0.0345  0.0118 -0.0462
 7602W        W 7602   8.924   4.034   2.020  0.0654  0.0942 -0.0091
 7603W        W 7603   6.062   1.619   1.412  0.0817  0.0685 -0.2161
 7604W        W 7604   1.506   3.347   1.293  0.1650 -0.2300 -0.1825
 7605W        W 7605   0.580   3.929   1.405  0.2850 -0.1574  0.0257
 7606W        W 7606   2.248   9.474   7.367  0.0061  0.4454  0.0162
 7607W        W 7607   7.834   2.834   2.116 -0.2207 -0.1186 -0.3266
 7608W        W 7608   9.990   0.391   9.956  0.0086 -0.2476  0.1499
 7609W        W 7609   0.492   8.422   3.776 -0.1215 -0.0691  0.0220
 7610W        W 7610   9.425   0.226   1.498 -0.1225 -0.1920  0.1809
 7611W        W 7611   2.889   4.443   9.492 -0.0522 -0.1767  0.0404
 7612W        W 7612   2.395   6.259   8.205  0.0842  0.1556  0.2005
 7613W        W 7613   7.286   0.636   6.804 -0.2112  0.0449 -0.2706
 7614W        W 7614   3.655   5.484   3.707 -0.1618 -0.3522 -0.0236
 7615W        W 7615   7.514   3.437   2.807  0.0983  0.2869 -0.4592
 7616W        W 7616   5.347   4.841   7.163 -0.1007 -0.4985 -0.1332
 7617W        W 7617   5.474   2.642   2.130 -0.5495 -0.3617  0.2139
 7618W        W 7618   9.497   9.595   6.164  0.0756 -0.1031 -0.2510
 7619W        W 7619   7.542   3.753   5.723 -0.3862  0.2596  0.2179
 7620W        W 7620   5.774   5.192   3.073  0.1974  0.1138 -0.1042
 7621W        W 7621  10.147   6.321   0.225  0.3617  0.1029  0.0462
 7622W        W 7622   4.923   0.646   8.234  0.2061 -0.0886  0.1348
 7623W        W 7623   2.324   9.635   6.875  0.2000  0.2467  0.2987
 7624W        W 7624   6.319   5.189   0.223 -0.1191 -0.3039 -0.0160
 7625W        W 7625   0.765   1.627   9.201 -0.0422  0.1243  0.2981
 7626W        W 7626   4.613   4.193   5.875 -0.3281  0.2180 -0.1045
 7627W        W 7627   2.618   8.640   2.697  0.1255  0.0062  0.0330
 7628W        W 7628   9.786   9.720   4.028  0.1620  0.0509 -0.0831
 7629W        W 7629   5.507   1.793   4.961 -0.0072  0.2615 -0.1261
 7630W        W 7630   5.674   6.022   9.107 -0.0039 -0.1346  0.1205
 7631W        W 7631  10.097   0.715   3.101  0.1261 -0.2259  0.0200
 7632W        W 7632   9.438   7.637   2.113  0.1108 -0.1733 -0.1257
 7633W        W 7633   9.158   0.090   5.745 -0.0890  0.2859 -0.0752
 7634W        W 7634   9.239   5.147   0.530 -0.1975  0.1535  0.1095
 7635W        W 7635  10.303   8.117   8.180 -0.0982 -0.0980 -0.2473
 7636W        W 7636   3.307   1.145   5.135 -0.0156 -0.0324  0.0051
 7637W        W 7637   4.808   2.041   2.615 -0.1047 -0.2094 -0.2918
 7638W        W 7638   1.001   4.026   5.472  0.1060 -0.0890  0.3365
 7639W        W 7639   1.130   5.698   9.388  0.1279 -0.0837  0.0135
 7640W        W 7640   1.433   0.237   7.846  0.2354 -0.1580  0.1486
 7641W        W 7641   3.737   4.595   4.419 -0.2255 -0.2748  0.0720
 7642W        W 7642   4.210  10.336   1.797  0.2096 -0.0426  0.1182
 7643W        W 7643   4.146   7.335   3.404  0.1635  0.0586  0.5990
 7644W        W 7644   4.928   8.470   3.052  0.1646 -0.0372  0.0514
 7645W        W 7645   4.234   8.075   0.873 -0.2654  0.0284 -0.1324
 7646W        W 7646   3.572   5.493   0.206  0.0168  0.0767 -0.2292
 7647W        W 7647   4.644   9.807   1.616 -0.1629  0.0678  0.1297
 7648W        W 7648   9.115   6.968   8.405 -0.0552  0.1650  0.1724
 7649W        W 7649   9.173   0.256   7.061  0.0960 -0.1984  0.1210
 7650W        W 7650   6.429   1.988  10.227 -0.0343  0.3823 -0.1395
 7651W        W 7651   1.632   9.994   4.866  0.2066 -0.1612 -0.0786
 7652W        W 7652   3.499   2.639   7.777  0.1859  0.0359  0.1371
 7653W        W 7653   4.163   6.738   6.257 -0.1865  0.3714  0.1522
 7654W        W 7654   3.356   8.434   4.203  0.1944 -0.0663 -0.2366
 7655W        W 7655   2.673   5.308   4.383 -0.1228 -0.2540  0.1305
 7656W        W 7656   2.471   7.906   6.278  0.1480  0.1169  0.1119
 7657W        W 7657   8.836   0.552   2.848  0.0214  0.1384  0.4098
 7658W        W 7658   1.370   6.800   1.507  0.0082 -0.2898 -0.0567
 7659W        W 7659   6.516   1.457   0.141 -0.2378  0.3461  0.0091
 7660W        W 7660   4.031   2.487   9.479  0.0529  0.2335 -0.1035
 7661W        W 7661   0.309  10.036   2.671  0.1471  0.0492  0.0593
 7662W        W 7662   1.327   8.059   7.631 -0.2297 -0.3135 -0.0774
 7663W        W 7663   3.733   4.282   0.228  0.2776 -0.0600  0.0867
 7664W        W 7664   7.747   2.906   2.960  0.3024 -0.1338  0.0501
 7665W        W 7665   1.559   5.189   8.764  0.1819 -0.1095  0.0430
 7666W        W 7666   1.714   0.174   4.599 -0.1393 -0.0663 -0.0713
 7667W        W 7667   7.200   5.447   9.734  0.0027 -0.0924  0.0731
 7668W        W 7668   2.711   3.534   7.129 -0.0642  0.3318 -0.3795
 7669W        W 7669   2.584   1.530   3.491  0.3087 -0.1595 -0.0402
 7670W        W 7670   9.126   0.865   9.170 -0.3355  0.1381 -0.2672
 7671W        W 7671   7.199   0.297   0.658 -0.3313  0.1407  0.2057
 7672W        W 7672   8.663   0.242   7.354 -0.1695  0.1860 -0.0962
 7673W        W 7673   5.988   9.143   8.097  0.0582  0.3079 -0.3715
 7674W        W 7674   8.314   6.245   2.765  0.2351 -0.2068  0.3705
 7675W        W 7675   0.740   0.057   5.333  0.1090 -0.0356 -0.0579
 7676W        W 7676   2.934   8.924   0.636  0.5890  0.2816  0.0296
 7677W        W 7677   1.118   5.660   5.454  0.1039  0.0849 -0.3084
 7678W        W 7678   4.342   8.362   5.874 -0.0126 -0.2373  0.0349
 7679W        W 7679   1.093   7.662   1.590 -0.1930  0.2399  0.0453
 7680W        W 7680   5.840   3.088   2.551 -0.2649  0.0659  0.0498
 7681W        W 7681   5.925   7.883   7.832  0.2654  0.2289 -0.0090
 7682W        W 7682   5.612   9.737   5.698  0.3285 -0.1609 -0.0010
 7683W        W 7683   6.817   0.314   9.862  0.2430  0.2076 -0.0008
 7684W        W 7684  10.059   8.851   1.976  0.1549  0.2520 -0.3011
 7685W        W 7685   5.396   5.918   6.223 -0.1718 -0.2017  0.1824
 7686W        W 7686   2.251   2.839   9.404  0.3779  0.0345  0.2008
 7687W        W 7687   1.921   9.880   7.459  0.0158 -0.2244 -0.3001
 7688W        W 7688   6.460   6.544   8.602  0.1218 -0.2133 -0.0568
 7689W        W 7689   3.654   6.902   2.936  0.3287 -0.0023 -0.3738
 7690W        W 7690   8.889   1.839   5.236  0.4165  0.4116 -0.0939
 7691W        W 7691   1.736  10.337   5.816  0.0282 -0.1056  0.1848
 7692W        W 7692   1.312   3.649   6.327  0.1248 -0.3169 -0.1716
 7693W        W 7693   8.932   5.483   7.723  0.2766  0.0457 -0.0411
 7694W        W 7694   5.557   9.802   0.404  0.0904  0.0759  0.1009
 7695W        W 7695   2.985   8.264   0.454  0.0788 -0.0846 -0.1669
 7696W        W 7696   5.695   1.232   9.811  0.0043 -0.3339 -0.1207
 7697W        W 7697   2.183   5.474   0.368  0.2353 -0.1746 -0.0943
 7698W        W 7698   3.646   2.712   9.221 -0.0308 -0.0075 -0.5309
 7699W        W 7699   5.766   9.375   9.998  0.1039  0.0769 -0.0466
 7700W        W 7700   9.594   0.917   9.980 -0.2630  0.4023  0.0037
 7701W        W 7701   6.463   7.141   8.290 -0.0220 -0.2078  0.0865
 7702W        W 7702   0.956   7.551  10.148 -0.1358 -0.2984 -0.0056
 7703W        W 7703   5.141   6.098   9.089  0.0409  0.1130  0.0925
 7704W        W 7704   3.927   4.824   9.263  0.3219  0.2804 -0.1571
 7705W        W 7705   5.076   7.959   0.339 -0.0699  0.2150  0.1335
 7706W        W 7706   0.100   4.885   6.223 -0.0020  0.0328  0.0569
 7707W        W 7707   1.043   6.613   3.763  0.0239 -0.0011 -0.0915
 7708W        W 7708   6.489   3.299   1.204 -0.2130  0.0066 -0.2170
 7709W        W 7709   1.647   5.532   6.844 -0.1862  0.0970  0.2726
 7710W        W 7710   6.632   4.662   4.973 -0.2363  0.3080 -0.1619
 7711W        W 7711   5.879   5.829   9.490 -0.0447  0.0883 -0.3050
 7712W        W 7712   7.435   4.928   5.421 -0.1045 -0.0762  0.0191
 7713W        W 7713   6.693   1.528   1.119  0.1332  0.0715  0.2232
 7714W        W 7714   3.971   7.059   5.456 -0.2237  0.0842  0.2645
 7715W        W 7715   1.113   0.839   2.723 -0.0972 -0.1490 -0.2035
 7716W        W 7716   8.576   3.090   0.678  0.1988 -0.2248  0.1236
 7717W        W 7717   2.586   6.930   3.091 -0.0387  0.0583 -0.0617
 7718W        W 7718   8.805   2.254   9.030  0.1101 -0.2011  0.3062
 7719W        W 7719   9.083   2.995   5.616  0.0708  0.0553 -0.0329
 7720W        W 7720   1.778   8.239   9.773 -0.3286 -0.2028  0.2094
 7721W        W 7721   5.527   8.941   9.055  0.1564  0.4787 -0.2251
 7722W        W 7722   2.494   5.105   8.745  0.0440  0.1426  0.0216
 7723W        W 7723   9.983   5.151   7.124 -0.0009 -0.0529  0.0515
 7724W        W 7724   4.557   2.643   6.323 -0.1526 -0.1695  0.3740
 7725W        W 7725   4.023   2.819   5.670 -0.2132  0.2076  0.1181
 7726W        W 7726   8.577   7.684   2.920  0.0989 -0.1500 -0.1831
 7727W        W 7727   4.005   5.027   7.977  0.0021  0.1197  0.2418
 7728W        W 7728   8.795   3.416   0.180 -0.1580 -0.0681 -0.1170
 7729W        W 7729   7.885   2.833   0.094  0.0300 -0.0792 -0.0269
 7730W        W 7730   9.426   7.324   4.744  0.0967  0.1476 -0.0894
 7731W        W 7731   5.181   3.242   3.387 -0.0224 -0.0471 -0.1104
 7732W        W 7732   7.680   4.558   6.922 -0.0709 -0.4182 -0.0879
 7733W        W 7733   9.275   7.646   5.825 -0.0162 -0.1386 -0.0076
 7734W        W 7734   6.634   6.206   4.740 -0.0731  0.0975  0.3715
 7735W        W 7735   0.200   8.188   0.624 -0.1504 -0.2479 -0.0543
 7736W        W 7736   5.611   1.873   3.247 -0.2084  0.1268  0.0099
 7737W        W 7737   7.374   7.737   1.562  0.0819  0.0582  0.3013
 7738W        W 7738   1.577   2.744   4.095 -0.0884 -0.5015  0.0943
 7739W        W 7739   4.817   1.080   2.589 -0.0788  0.1138  0.0218
 7740W        W 7740   2.469   1.005   2.208 -0.0311 -0.3202 -0.0578
 7741W        W 7741   7.165   4.915   0.928  0.0344  0.0589  0.2444
 7742W        W 7742   8.930   7.752   6.203  0.2051  0.0117 -0.3460
 7743W        W 7743   7.895   5.069   2.570 -0.2691  0.0138  0.1763
 7744W        W 7744   3.340   8.317   7.918  0.0875  0.2301 -0.1912
 7745W        W 7745  10.102   3.016   1.211  0.1244 -0.1063  0.0154
 7746W        W 7746  10.162   7.499   5.914  0.2477  0.2591  0.0729
 7747W        W 7747   3.584   0.756   3.277 -0.1834 -0.3166  0.0616
 7748W        W 7748   3.426   1.123   0.856 -0.0163 -0.1481  0.3509
 7749W        W 7749   3.106   0.955   8.917 -0.2113  0.0494  0.0123
 7750W        W 7750   6.581   7.829   0.342 -0.1032 -0.0256 -0.1969
 7751W        W 7751   9.186   4.113   0.502 -0.0867 -0.2571 -0.1259
 7752W        W 7752   0.836   4.651   2.915  0.2510  0.1287  0.0448
 7753W        W 7753   9.415   1.302   8.991  0.2788  0.2237 -0.0727
 7754W        W 7754   7.764   5.231   7.601 -0.3499 -0.1684 -0.1026
 7755W        W 7755   1.600  10.192   8.164 -0.3242 -0.1602 -0.1633
 7756W        W 7756   5.140   2.838   8.661  0.2940  0.0422 -0.0988
 7757W        W 7757   1.674   5.633   5.361 -0.0314  0.0377 -0.1813
 7758W        W 7758   1.746  10.196   1.051  0.1867  0.1962  0.0541
 7759W        W 7759   1.410   6.956   7.153  0.2231  0.0513 -0.0439
 7760W        W 7760   7.919   2.423   0.346 -0.0351  0.2842 -0.5006
 7761W        W 7761  10.039   6.436   1.642  0.1576  0.0984 -0.0017
 7762W        W 7762   8.320   6.721   2.137  0.1361  0.4511  0.3637
 7763W        W 7763   3.132   9.720   3.325  0.1409  0.2404  0.1223
 7764W        W 7764   4.068   3.384   3.903  0.0485  0.3716 -0.0576
 7765W        W 7765   8.648   0.054   3.542 -0.1621 -0.1439  0.0668
 7766W        W 7766   4.954   7.165   0.518  0.2979 -0.3197  0.0454
 7767W        W 7767   2.333   6.519   8.936 -0.0482 -0.3815  0.2770
 7768W        W 7768   6.386   6.886   0.125  0.1301 -0.1722 -0.1707
 7769W        W 7769   0.360   1.570   4.108 -0.0596  0.1334 -0.0178
 7770W        W 7770   8.062   1.633   9.339 -0.0114  0.1363 -0.0275
 7771W        W 7771  10.165   5.413   8.660  0.1002  0.0916  0.3702
 7772W        W 7772   4.710  10.228   0.395  0.0886  0.1815 -0.0192
 7773W        W 7773   3.703   8.987   9.166 -0.0266 -0.2042  0.1728
 7774W        W 7774   9.195   6.066   8.593  0.1463 -0.1248  0.3400
 7775W        W 7775   9.768   8.722   0.835 -0.0976 -0.0764 -0.1504
 7776W        W 7776   4.781   3.811   3.352  0.1278  0.1752  0.2228
 7777W        W 7777   3.746   8.826   8.513 -0.0939  0.1878 -0.0616
 7778W        W 7778   3.197   3.959   4.136 -0.0138  0.0639  0.0988
 7779W        W 7779   5.054   6.655   6.420 -0.1639  0.0165 -0.1790
 7780W        W 7780   1.536   3.636   8.828 -0.0606 -0.0668  0.0524
 7781W        W 7781   4.786   1.787   4.415  0.2361 -0.2495  0.1784
 7782W        W 7782   7.869   9.140   6.812  0.0567  0.1658  0.2811
 7783W        W 7783   6.056   0.003   2.844 -0.0597  0.4323  0.0858
 7784W        W 7784   9.931   3.491   7.842  0.1197  0.0383  0.1281
 7785W        W 7785   2.912   8.453   6.624  0.1614  0.2869 -0.0952
 7786W        W 7786   5.409   2.444   8.631 -0.0749 -0.0200  0.1182
 7787W        W 7787   8.956   8.481   1.102 -0.0830 -0.1082  0.0821
 7788W        W 7788   6.034   9.177   0.546 -0.1967 -0.2384  0.0001
 7789W        W 7789   1.955   4.474   5.863 -0.0434 -0.1550 -0.2656
 7790W        W 7790   4.074   8.943   3.258 -0.1207  0.2000  0.2449
 7791W        W 7791   9.954  10.181   4.064  0.0017  0.1045  0.3159
 7792W        W 7792   9.667   8.444  10.192  0.0468 -0.1718  0.2803
 7793W        W 7793   9.924   1.113   5.069  0.2071 -0.3408 -0.2703
 7794W        W 7794   7.427   8.515   1.962  0.3855  0.0365 -0.0818
 7795W        W 7795   3.609   7.114   9.686 -0.3178 -0.0700 -0.1652
 7796W        W 7796   0.646   0.810   7.570 -0.3134 -0.0024  0.2387
 7797W        W 7797   6.352   0.023   9.769 -0.1929 -0.0383  0.0159
 7798W        W 7798   5.930   3.235   3.877  0.1280  0.0220  0.0345
 7799W        W 7799   3.014   2.234   2.089  0.0550 -0.2247 -0.0351
 7800W        W 7800   9.371   3.730   8.883 -0.0219 -0.2599 -0.1102
 7801W        W 7801   2.595   7.211   9.647 -0.0484 -0.0598 -0.3036
 7802W        W 7802   5.935   2.328   6.872  0.1972  0.0420 -0.1192
 7803W        W 7803   3.189  10.128   7.288  0.1089 -0.0181  0.3048
 7804W        W 7804   6.645   7.838   9.851  0.1475 -0.3136 -0.0287
 7805W        W 7805  10.287   4.766   7.985  0.1235 -0.1348 -0.0415
 7806W        W 7806   6.219   5.444   3.206 -0.0816 -0.0657 -0.5009
 7807W        W 7807   4.626   6.159   1.781  0.1202  0.1061 -0.1789
 7808W        W 7808   1.773   4.358   3.879 -0.0431  0.1607  0.3132
 7809W        W 7809   8.480   0.943   6.714  0.0147 -0.1199 -0.0735
 7810W        W 7810   3.272   4.786   9.075 -0.1493  0.2300 -0.2536
 7811W        W 7811   8.892   6.462   0.883 -0.0001 -0.0167  0.2320
 7812W        W 7812   4.993   4.475   5.072 -0.1156  0.1181 -0.0874
 7813W        W 7813   6.553   3.410   5.804 -0.2933 -0.1014  0.0993
 7814W        W 7814   0.230   3.843   6.535  0.0386 -0.1112 -0.3353
 7815W        W 7815   1.366   6.344   6.228 -0.0637 -0.0430  0.0704
 7816W        W 7816   0.049   2.623   5.531  0.0412 -0.5446  0.5099
 7817W        W 7817   8.298   6.564   0.877  0.2447  0.1063 -0.1594
 7818W        W 7818   2.997   3.937   7.889 -0.1931  0.3345 -0.1239
 7819W        W 7819   7.784   8.602   0.095  0.1499  0.0217 -0.2859
 7820W        W 7820   6.259   4.236   4.962 -0.0100  0.0011  0.0060
 7821W        W 7821   7.799   7.867   3.311 -0.0244  0.2707  0.0186
 7822W        W 7822   4.833   6.957   4.601  0.2434  0.2539  0.2937
 7823W        W 7823   5.778   2.261   4.693  0.0093 -0.1758 -0.0313
 7824W        W 7824   3.463   4.887   2.616 -0.0337  0.1514  0.0321
 7825W        W 7825   5.094   7.790   4.920  0.0523 -0.4262  0.0310
 7826W        W 7826   2.182   0.738   7.200  0.0852 -0.0298 -0.0329
 7827W        W 7827   9.176   9.541   8.647 -0.2690 -0.0237  0.0019
 7828W        W 7828   9.575   8.656   7.626  0.1007 -0.0503  0.0763
 7829W        W 7829   8.603   8.951   8.987 -0.1253  0.0527  0.0163
 7830W        W 7830   6.569   5.363   8.504  0.2020 -0.2512  0.1301
 7831W        W 7831   5.193   9.300   6.614  0.1503  0.1091 -0.1307
 7832W        W 7832   7.346   7.266   8.771  0.4229 -0.3163 -0.1414
 7833W        W 7833   4.578   6.688   7.593  0.1987  0.3701 -0.0486
 7834W        W 7834   2.594   7.156   5.520  0.1105  0.2595  0.1530
 7835W        W 7835   0.092   4.253   3.396  0.2336 -0.1959 -0.0979
 7836W        W 7836   6.309   2.532   4.310 -0.0501  0.0033  0.0633
 7837W        W 7837   3.375   3.168   3.025 -0.1100 -0.0220 -0.0676
 7838W        W 7838   7.407   2.495   1.270 -0.0722 -0.2556  0.1749
 7839W        W 7839   2.361   0.475   4.188  0.3315  0.1687  0.2545
 7840W        W 7840   5.279  10.076   1.160 -0.1285 -0.0938 -0.2835
 7841W        W 7841   6.901   9.110   6.847  0.1920  0.3022 -0.1031
 7842W        W 7842   1.214   8.778   0.188 -0.3526 -0.1842 -0.0624
 7843W        W 7843   0.236   6.087   8.561  0.2680  0.0745  0.1006
 7844W        W 7844   3.693   4.566   3.489 -0.1572  0.1217 -0.1013
 7845W        W 7845   5.636   2.816   3.577  0.1868  0.2137  0.0594
 7846W        W 7846   7.520   4.507   3.919 -0.2734  0.0890  0.0864
 7847W        W 7847   6.149   3.970  10.219  0.0931 -0.2605 -0.0070
 7848W        W 7848   7.187   1.498   8.653 -0.2283 -0.2093 -0.3079
 7849W        W 7849   3.116   6.030   6.384  0.0119  0.2246  0.1542
 7850W        W 7850   1.523   8.828   4.783 -0.0175 -0.0998  0.1694
 7851W        W 7851   3.183   3.469   7.887  0.1232  0.0335 -0.1119
 7852W        W 7852   3.264   2.695   0.504 -0.0323 -0.2108  0.1804
 7853W        W 7853   9.469  10.183   3.943  0.1773 -0.3642 -0.1618
 7854W        W 7854   3.629   1.048   9.627  0.0160  0.2734 -0.0764
 7855W        W 7855   0.993   9.942   4.220 -0.1308  0.0809 -0.2161
 7856W        W 7856   3.329   0.365   4.185 -0.0653  0.1169  0.1144
 7857W        W 7857   6.982   8.020   0.797  0.1579 -0.2028 -0.0377
 7858W        W 7858   4.047   4.364   8.041  0.2512  0.1441 -0.2994
 7859W        W 7859  10.289   7.612   2.390  0.1147  0.2560  0.0601
 7860W        W 7860   2.609   5.676   5.114  0.0983  0.1739 -0.1926
 7861W        W 7861   2.889   8.453   8.018  0.1813 -0.0131  0.0987
 7862W        W 7862   8.039   5.965   7.844  0.0722  0.3462  0.0954
 7863W        W 7863   5.574   3.544   5.019  0.3578 -0.0687  0.0898
 7864W        W 7864   6.666   0.687   1.909  0.2239 -0.2142  0.3380
 7865W        W 7865   1.101   2.752   3.893 -0.1752 -0.2084  0.0608
 7866W        W 7866   6.053   9.994   3.205  0.2179 -0.0088  0.2540
 7867W        W 7867   5.503   1.426   6.992 -0.0717  0.0281  0.2759
 7868W        W 7868   2.080   7.479   5.903  0.1008 -0.2354  0.0280
 7869W        W 7869   6.843   6.329   6.400  0.0125  0.0826 -0.0935
 7870W        W 7870   8.354   4.670   2.609  0.0290  0.0294 -0.2401
 7871W        W 7871   4.699   1.578   8.660 -0.2391 -0.2357 -0.0527
 7872W        W 7872   1.524   6.334   4.022  0.0353  0.1374 -0.0407
 7873W        W 7873   0.826   0.667   1.177  0.2152  0.2033  0.2083
 7874W        W 7874   3.660   4.460   8.321  0.0858 -0.3962  0.2431
 7875W        W 7875   7.774   3.010   6.255 -0.0234  0.1515  0.2283
 7876W        W 7876   2.153   6.888   4.487 -0.1834 -0.0300 -0.0177
 7877W        W 7877   8.197   9.147   3.260  0.1184  0.1623 -0.1956
 7878W        W 7878   2.462   9.191   0.841 -0.2373 -0.1879 -0.1665
 7879W        W 7879   9.147   1.748   8.849 -0.1001 -0.2490  0.0492
 7880W        W 7880   2.686   5.005   6.193 -0.2888 -0.3044 -0.0822
 7881W        W 7881   3.958   0.775   6.171 -0.0411  0.2757 -0.0415
 7882W        W 7882   0.568   6.123   1.241  0.0094  0.0829  0.0738
 7883W        W 7883   8.789   7.484   5.661 -0.1249 -0.1551  0.2195
 7884W        W 7884   7.162   4.499   1.187  0.1020  0.3247  0.1100
 7885W        W 7885   4.707   7.954   9.734  0.0286 -0.0371 -0.0156
 7886W        W 7886   4.485   1.564   2.727 -0.3135 -0.0949  0.0537
 7887W        W 7887   6.791   0.570   2.919  0.1140 -0.1345  0.0703
 7888W        W 7888   7.609   1.409   0.729 -0.1320  0.1442 -0.1570
 7889W        W 7889   9.988   6.333   3.758 -0.1933 -0.0136  0.1055
 7890W        W 7890   5.998   6.394   3.144 -0.2531 -0.2426 -0.0205
 7891W        W 7891   0.560   5.838   6.642  0.2108 -0.0816 -0.2216
 7892W        W 7892   1.267   1.157   9.943 -0.1693  0.0583  0.1033
 7893W        W 7893   6.806   7.229   0.225 -0.1611  0.1100  0.0961
 7894W        W 7894   4.053   0.965  10.001  0.1040 -0.1734  0.3850
 7895W        W 7895   8.460   9.085   7.425  0.1651  0.1799  0.1027
 7896W        W 7896   0.126   6.277   1.295 -0.1572 -0.1936  0.1405
 7897W        W 7897   7.736   0.333   8.624  0.1457  0.2021  0.0430
 7898W        W 7898   0.017   4.288   6.464 -0.0549 -0.0257  0.0319
 7899W        W 7899   1.182   6.126   0.830  0.0933  0.0677  0.0643
 7900W        W 7900   8.444  10.167   5.000 -0.0942 -0.0032 -0.1772
 7901W        W 7901   7.963   1.891   5.574 -0.1733 -0.0324  0.0917
 7902W        W 7902   5.472   9.256   4.752 -0.0598 -0.2195  0.3038
 7903W        W 7903   1.383   6.479   5.025  0.3023 -0.2382 -0.1240
 7904W        W 7904   8.570   5.782   9.033  0.2233 -0.0508  0.1699
 7905W        W 7905   5.453   3.619   9.586  0.1094 -0.1218  0.2120
 7906W        W 7906   3.537   7.599   1.958 -0.2103  0.0082 -0.0081
 7907W        W 7907   4.082   0.958   3.356 -0.2337  0.1011 -0.1270
 7908W        W 7908   1.441  10.014   9.645  0.1360  0.2637 -0.4096
 7909W        W 7909   4.709   5.392   0.989 -0.0852  0.1729  0.1453
 7910W        W 7910   0.794   6.331   7.297 -0.2180  0.2021  0.2785
 7911W        W 7911  10.054   9.010   0.412 -0.3913 -0.1035  0.3137
 7912W        W 7912   5.317   2.860   0.752  0.1012  0.0546 -0.1597
 7913W        W 7913   0.321  10.171   5.695 -0.0444 -0.1114  0.0086
 7914W        W 7914   3.531  10.130   8.136 -0.2767  0.0683  0.1357
 7915W        W 7915   8.373   2.896   6.181  0.1504  0.2315 -0.1075
 7916W        W 7916   6.526  10.092   3.051  0.1442  0.0508  0.1793
 7917W        W 7917   5.129   9.399   5.563  0.1154 -0.0415 -0.1786
 7918W        W 7918   2.208   8.364   1.144 -0.1783 -0.2382  0.1062
 7919W        W 7919   2.619   9.257   7.038  0.1095  0.2024 -0.2605
 7920W        W 7920   9.666   1.744   8.137  0.2930 -0.1420  0.0727
 7921W        W 7921   1.424   8.739   2.519  0.3618  0.0400  0.0362
 7922W        W 7922   1.786   5.432   9.963 -0.1571  0.0806 -0.5224
 7923W        W 7923   4.611  10.260   5.726 -0.1752  0.0510 -0.0947
 7924W        W 7924   5.150   8.947   5.726 -0.0266 -0.0638  0.2967
 7925W        W 7925   8.849   5.099   4.262  0.0782 -0.0183  0.0227
 7926W        W 7926   8.754   9.467   7.134  0.0867 -0.0757 -0.1092
 7927W        W 7927   3.874   9.159   5.144  0.1234 -0.1963  0.0361
 7928W        W 7928   6.243   5.885   7.012 -0.1629  0.1048  0.2027
 7929W        W 7929   1.798   5.432   5.845 -0.2046  0.1051  0.0551
 7930W        W 7930   6.139   4.659   2.269 -0.3473 -0.2177  0.1917
 7931W        W 7931  10.075   8.741   2.524  0.0156  0.0290 -0.0021
 7932W        W 7932   9.431   4.032   2.820  0.1900  0.0112  0.0147
 7933W        W 7933   2.785   1.777   8.306 -0.1410  0.0263  0.5639
 7934W        W 7934   2.213   4.568   6.658 -0.3181  0.0027  0.0744
 7935W        W 7935   8.208   9.776   8.775 -0.1146 -0.0389 -0.1444
 7936W        W 7936   2.554   2.108   3.418 -0.0570 -0.0819 -0.0934
 7937W        W 7937   0.165   7.446   2.837  0.1022 -0.0009  0.2157
 7938W        W 7938   7.240   4.095   5.406 -0.1044 -0.0488 -0.1222
 7939W        W 7939   1.945   4.197   7.749 -0.1278 -0.1563  0.2563
 7940W        W 7940   5.780   2.407   0.509  0.1591 -0.0054 -0.1318
 7941W        W 7941   4.896   7.940   3.143  0.0803 -0.0223 -0.1160
 7942W        W 7942   8.940   9.915   7.298 -0.0535  0.3504  0.0144
 7943W        W 7943   7.652   4.969   0.516 -0.0112 -0.1293 -0.0898
 7944W        W 7944   2.993   1.071   1.108 -0.3875 -0.2673 -0.1965
 7945W        W 7945   8.426   5.216   1.143 -0.0173 -0.0590  0.0972
 7946W        W 7946   3.994   5.838   6.364 -0.0181  0.1060 -0.0698
 7947W        W 7947   5.866   5.284   6.401 -0.0393  0.3216 -0.0226
 7948W        W 7948   8.549   7.770   7.308 -0.0731  0.2180 -0.5311
 7949W        W 7949   6.739   8.525   9.022  0.0833 -0.3955  0.0492
 7950W        W 7950   8.019   3.636   8.844  0.4263  0.2203  0.0237
 7951W        W 7951   0.516   3.621   0.943  0.1077  0.3774  0.0642
 7952W        W 7952   8.772   2.525   6.533 -0.0742  0.1342 -0.0570
 7953W        W 7953   7.549   8.273   0.346 -0.0073 -0.0470  0.0006
 7954W        W 7954   5.027   8.238   8.536 -0.0321 -0.1782 -0.0679
 7955W        W 7955   6.301   6.269   8.160  0.2920  0.0931  0.2549
 7956W        W 7956   1.704   4.347   1.908  0.1331 -0.1636 -0.3896
 7957W        W 7957   4.451   4.609   3.109 -0.4675 -0.0235  0.1570
 7958W        W 7958   3.415   3.101   4.217 -0.2339 -0.1041  0.2052
 7959W        W 7959   7.400   9.729   1.133 -0.2104 -0.3619 -0.0206
 7960W        W 7960   7.263   7.763   5.671 -0.4665 -0.1377 -0.1913
 7961W        W 7961   8.613   6.770   3.558  0.1172 -0.2277 -0.0496
 7962W        W 7962   4.064   1.240   4.596 -0.0109 -0.0791  0.3881
 7963W        W 7963   5.571   6.040   3.952 -0.1659  0.1226 -0.2053
 7964W        W 7964   5.873   3.609   5.472  0.1701  0.2690  0.0093
 7965W        W 7965   8.127   0.003   3.578  0.2460  0.1564 -0.1719
 7966W        W 7966   2.859   3.429   5.872  0.0465  0.2219 -0.0315
 7967W        W 7967   4.374   5.900   4.184 -0.1599  0.1947 -0.0329
 7968W        W 7968   1.311   8.284   8.090  0.1269 -0.1354 -0.1844
 7969W        W 7969   6.574   8.330   9.419 -0.2108  0.2448 -0.1074
 7970W        W 7970   0.811   9.449   4.338 -0.0233  0.0062  0.0274
 7971W        W 7971   4.711   3.451   8.238 -0.0443  0.3293  0.0469
 7972W        W 7972   5.710   1.946   7.239 -0.0167 -0.3915 -0.1729
 7973W        W 7973   6.459   3.007   3.003 -0.2558 -0.1059 -0.0145
 7974W        W 7974   1.414   8.807   5.570  0.1225  0.2566  0.2102
 7975W        W 7975   6.744   0.144   7.578  0.1106  0.0837 -0.0189
 7976W        W 7976   1.055   6.633   8.893 -0.2046 -0.2398  0.4378
 7977W        W 7977   4.482  10.314   3.546  0.2108  0.0964 -0.2243
 7978W        W 7978   0.295   8.097   6.982  0.1448 -0.1874  0.1365
 7979W        W 7979   1.350   9.928   1.179  0.1273  0.0425 -0.2891
 7980W        W 7980   7.043   8.984   7.407 -0.2395 -0.3231  0.1718
 7981W        W 7981   9.210   2.868   9.481 -0.0482 -0.1472  0.0821
 7982W        W 7982   5.768   4.070   9.388 -0.0201 -0.1268 -0.1270
 7983W        W 7983   9.889   9.280   2.472 -0.3670 -0.2924  0.3311
 7984W        W 7984   1.098   3.759   2.681  0.0633 -0.0053 -0.3082
 7985W        W 7985   8.339   6.761   9.666 -0.1440  0.2215 -0.2888
 7986W        W 7986   0.570   1.260   6.586 -0.2388 -0.0673  0.0886
 7987W        W 7987   0.270   6.578   6.450 -0.0370 -0.0358  0.3377
 7988W        W 7988   9.122   5.698   4.499 -0.0882  0.0704 -0.0068
 7989W        W 7989   4.762   1.865   7.458  0.0971  0.2019  0.1592
 7990W        W 7990   5.574   3.015   4.885 -0.1773 -0.3524  0.2211
 7991W        W 7991   7.997   8.417   0.551  0.1264  0.1962 -0.1956
 7992W        W 7992   2.502  10.072   5.667 -0.2019 -0.1746  0.0449
 7993W        W 7993   5.880   5.771   0.384 -0.1078  0.0761 -0.1295
 7994W        W 7994   1.672   3.243   9.645  0.1208 -0.0480  0.4723
 7995W        W 7995   9.416   7.035   6.299 -0.1785  0.4680  0.0102
 7996W        W 7996   9.175   0.516   8.339  0.2159  0.1394 -0.0749
 7997W        W 7997   7.011   9.110   5.875 -0.1430 -0.0869 -0.1771
 7998W        W 7998   4.996   2.429   7.821 -0.1118 -0.0658  0.3049
 7999W        W 7999   6.423   8.089   7.511 -0.0230  0.0749  0.0172
 8000W        W 8000   9.247   8.952   7.299  0.1588 -0.0170 -0.4081
 8001W        W 8001   8.712   6.926   6.351 -0.3093  0.2221  0.0986
 8002W        W 8002   5.904   9.476   7.092 -0.1261 -0.1882  0.4740
 8003W        W 8003   2.746   0.371  10.176 -0.0726 -0.0238 -0.1505
 8004W        W 8004   3.373   3.218   9.247  0.1466 -0.3018  0.0267
 8005W        W 8005   5.710   4.703   5.670  0.0494 -0.0433 -0.0380
 8006W        W 8006  10.253   3.549   5.255 -0.2098  0.1364 -0.1226
 8007W        W 8007   1.217   7.699   5.395 -0.0699 -0.0848 -0.0836
 8008W        W 8008   7.611   9.105   5.036 -0.3197  0.0739  0.4362
 8009W        W 8009   1.522   2.558  10.056 -0.1019 -0.0673  0.1320
 8010W        W 8010   6.867   4.474   1.641  0.1014  0.1795  0.1940
 8011W        W 8011   6.675   5.140   0.613 -0.3036  0.0065  0.2166
 8012W        W 8012   0.752   2.534   6.803 -0.2071 -0.1481 -0.3470
 8013W        W 8013   8.176  10.169  10.294 -0.1058 -0.0150 -0.0389
 8014W        W 8014   2.164   5.302   3.037  0.1352  0.0548  0.0242
 8015W        W 8015   3.586   8.888   4.076  0.0656  0.0756 -0.0665
 8016W        W 8016  10.291   0.986   2.755 -0.2125 -0.1296 -0.0544
 8017W        W 8017   6.833   4.446   8.634  0.5955 -0.1893 -0.4126
 8018W        W 8018   0.464   0.479   7.838  0.0159 -0.1261 -0.1999
 8019W        W 8019   4.695   2.457   5.842  0.0471 -0.0133  0.0262
 8020W        W 8020   2.249   7.748   4.092 -0.2757  0.2875 -0.0016
 8021W        W 8021   3.721   5.603   9.709 -0.0136  0.0778  0.3414
 8022W        W 8022   7.038   5.639   7.652 -0.3009  0.3014  0.2237
 8023W        W 8023   1.909   1.293   0.113 -0.0984  0.2455  0.2433
 8024W        W 8024   1.775   4.516   2.853  0.0113 -0.1367 -0.4676
 8025W        W 8025   4.281   7.942   5.237  0.1598  0.0003 -0.4656
 8026W        W 8026   8.812   4.831   8.964 -0.1231 -0.0082 -0.1061
 8027W        W 8027   3.196   3.496   2.176 -0.0220 -0.0725  0.0640
 8028W        W 8028   4.160   8.804   1.109  0.0176  0.0727 -0.1157
 8029W        W 8029   5.344   0.044   6.290  0.1124  0.0745 -0.0398
 8030W        W 8030   3.661   2.617   5.127 -0.0227  0.0868  0.0600
 8031W        W 8031   7.375   9.139   2.007 -0.1256  0.4321 -0.0811
 8032W        W 8032   7.021   9.871   4.035 -0.3132  0.0684 -0.0442
 8033W        W 8033   4.961   8.100   1.573 -0.3533 -0.1954  0.2945
 8034W        W 8034  10.302   0.841   1.810  0.0011 -0.0701 -0.3623
 8035W        W 8035   9.481   9.084   2.726  0.0858 -0.0086  0.1978
 8036W        W 8036   3.306   6.284   1.839 -0.2567  0.2986  0.0638
 8037W        W 8037   2.298   2.800   7.549 -0.1017  0.1497  0.0976
 8038W        W 8038   8.127   7.011   4.358  0.0996  0.2588 -0.2312
 8039W        W 8039   1.705   6.594   6.981  0.2430  0.1769  0.0368
 8040W        W 8040   7.883   0.311   6.217 -0.2554 -0.3285  0.1081
 8041W        W 8041   9.650   7.158   3.479 -0.2122  0.2641 -0.4152
 8042W        W 8042   6.351   3.562   4.746 -0.2667  0.1137 -0.0533
 8043W        W 8043   6.704   0.337   3.415 -0.0050  0.0250 -0.2054
 8044W        W 8044   7.893   4.418   8.295  0.1121 -0.0429  0.0271
 8045W        W 8045   6.562   2.822   1.832  0.1261 -0.1996 -0.0711
 8046W        W 8046   3.769   0.602   9.716 -0.3079  0.1007  0.2004
 8047W        W 8047   7.794   4.993   3.837  0.0687 -0.0360  0.1620
 8048W        W 8048   0.614   9.001   7.658  0.2393  0.0156  0.2675
 8049W        W 8049   0.426   0.823   9.643  0.3786 -0.3019  0.1409
 8050W        W 8050   4.494   1.417   1.090 -0.0284  0.1202 -0.2795
 8051W        W 8051   0.103   3.948   9.828 -0.0503 -0.5226 -0.0528
 8052W        W 8052   1.887   2.231   2.807 -0.1750 -0.3366 -0.4042
 8053W        W 8053   1.821   3.872   3.809 -0.0360  0.0244 -0.0431
 8054W        W 8054   4.360   4.196   7.459 -0.1407  0.0825 -0.1066
 8055W        W 8055   8.303  10.113   3.184 -0.0962 -0.2094  0.1138
 8056W        W 8056   5.144   5.037   2.354  0.1032  0.3464  0.0382
 8057W        W 8057   7.821   0.225   6.690  0.0785 -0.3054 -0.0184
 8058W        W 8058   3.734   0.695   2.283 -0.3682  0.6340 -0.4084
 8059W        W 8059   6.943   4.716  10.198 -0.1705  0.0404 -0.1690
 8060W        W 8060   9.000   2.057   4.007 -0.0431  0.0651 -0.2375
 8061W        W 8061   8.418   8.142   0.371  0.2117  0.2105 -0.1323
 8062W        W 8062   6.221   8.365   4.488 -0.0262 -0.1492  0.1311
 8063W        W 8063   3.390   3.556  10.115 -0.0983  0.3225 -0.5863
 8064W        W 8064   2.840   7.241   4.964  0.2192 -0.1238  0.2540
 8065W        W 8065   7.906   2.909   8.392 -0.0118  0.3219 -0.0543
 8066W        W 8066   3.141   3.172   7.113 -0.0494 -0.0613 -0.1488
 8067W        W 8067   4.567   0.946   3.434 -0.2760 -0.0280 -0.0201
 8068W        W 8068   2.212  10.296   1.316 -0.1827 -0.1042 -0.0781
 8069W        W 8069   0.881   9.367   2.863 -0.1231  0.0497  0.3616
 8070W        W 8070   8.911   5.920   8.111 -0.0519  0.1120 -0.0038
 8071W        W 8071   9.446   0.139   0.392  0.1636  0.4081 -0.0070
 8072W        W 8072   4.730   4.286   2.490  0.1060  0.0666 -0.0071
 8073W        W 8073   4.901   7.627   9.374  0.3257 -0.2524 -0.3126
 8074W        W 8074   1.789   2.996   1.658 -0.2399  0.1131 -0.0568
 8075W        W 8075  10.230   5.517   3.964  0.1033 -0.1927  0.0957
 8076W        W 8076   9.449   1.643   2.155  0.1075 -0.0942  0.0192
 8077W        W 8077   7.818   8.568   7.130 -0.0775  0.1889 -0.1384
 8078W        W 8078   2.997   4.691   8.373  0.0524 -0.3901 -0.2715
 8079W        W 8079   3.979   3.331   0.125 -0.0741  0.2038  0.1733
 8080W        W 8080   4.696   6.469   6.763 -0.3436 -0.0804  0.3960
 8081W        W 8081   0.652   5.604   9.621  0.0871  0.0532  0.0296
 8082W        W 8082   7.786   6.035   2.707  0.2872 -0.2283  0.2100
 8083W        W 8083   9.772   3.984   8.939  0.0565  0.0662 -0.0676
 8084W        W 8084   2.483   9.732   3.324  0.0398  0.3759 -0.0438
 8085W        W 8085   5.811   6.619   6.778  0.0229  0.1629  0.1966
 8086W        W 8086   4.295   2.072   7.308 -0.0127  0.1389 -0.0049
 8087W        W 8087   2.847   6.247   2.443  0.2464 -0.2114  0.3447
 8088W        W 8088   1.040   4.940  10.182 -0.0694 -0.0533  0.1492
 8089W        W 8089   7.023   2.728   2.220 -0.1006 -0.0522 -0.3950
 8090W        W 8090   7.751   8.283   8.277  0.0267 -0.2723 -0.0251
 8091W        W 8091  10.057   1.681   3.249 -0.2231 -0.1414  0.2844
 8092W        W 8092   0.993   8.337   4.621 -0.2392 -0.0386  0.1590
 8093W        W 8093   4.769  10.128   2.469  0.0599 -0.1504  0.1728
 8094W        W 8094   5.887   7.231   8.747  0.2504 -0.1633 -0.1753
 8095W        W 8095   8.731   0.737   7.194 -0.1708  0.4015  0.0485
 8096W        W 8096   7.153   1.662   0.751  0.2332  0.0076 -0.1530
 8097W        W 8097   4.406   9.477   0.728  0.1555 -0.3814  0.0796
 8098W        W 8098   4.736   1.097   4.892 -0.0493 -0.0271 -0.0380
 8099W        W 8099   9.422   4.653   7.769  0.0055  0.1696  0.0458
 8100W        W 8100   8.850   0.451   0.152 -0.0402 -0.4071  0.2907
 8101W        W 8101   3.505   6.894   5.212 -0.1394  0.2205  0.0533
 8102W        W 8102   8.679   2.174   2.143 -0.1089  0.0110  0.1168
 8103W        W 8103   4.143   3.390   1.470  0.2409 -0.3153 -0.0993
 8104W        W 8104   5.347   6.944   9.428 -0.1125 -0.1666  0.0692
 8105W        W 8105   9.878   6.856   6.134 -0.0725 -0.1637  0.0229
 8106W        W 8106   3.154   8.679   1.327 -0.0445 -0.0560 -0.0893
 8107W        W 8107   6.686   4.702   9.089 -0.0615  0.0404  0.1285
 8108W        W 8108   6.084   6.502   8.998 -0.0347  0.0781 -0.1457
 8109W        W 8109   3.358   1.981   2.950 -0.0489  0.1004  0.0272
 8110W        W 8110   8.022   2.630   3.476  0.0252 -0.0135  0.0419
 8111W        W 8111   5.103   6.054   8.472 -0.1728  0.0933  0.1952
 8112W        W 8112   6.672   5.853   6.788  0.2573  0.0074  0.0783
 8113W        W 8113   9.098   2.132   3.174  0.1943 -0.2314  0.0814
 8114W        W 8114   1.644   7.048   5.771 -0.2655 -0.0212 -0.0131
 8115W        W 8115   2.260   4.130   3.883  0.0992  0.2267  0.0712
 8116W        W 8116   4.852   0.210   9.385 -0.0956  0.1081  0.0676
 8117W        W 8117   2.152   8.206   5.460  0.1979  0.0184  0.1590
 8118W        W 8118   2.381   1.660   7.239  0.2612 -0.1990 -0.0233
 8119W        W 8119   3.764   8.459   9.062 -0.1996  0.1887 -0.2349
 8120W        W 8120   1.020   3.751   1.098  0.1099  0.1296  0.2236
 8121W        W 8121   5.079   6.749   0.764 -0.0959  0.5711  0.2287
 8122W        W 8122   3.883   9.669   5.230 -0.4122 -0.2205  0.1737
 8123W        W 8123   8.908   3.475   5.363 -0.0382 -0.1002  0.0305
 8124W        W 8124   5.369   1.891   6.506  0.0491 -0.0113  0.0145
 8125W        W 8125   1.195   4.510   1.905 -0.2023  0.2091 -0.0014
 8126W        W 8126   5.826   7.968   3.073 -0.0719 -0.0642  0.2452
 8127W        W 8127   8.046   6.745   7.557 -0.1527  0.0118 -0.3068
 8128W        W 8128   7.521   1.128   9.849 -0.0650 -0.1949 -0.2894
 8129W        W 8129   8.584   8.758   4.207 -0.0243 -0.0119 -0.1080
 8130W        W 8130   7.355   6.092   7.852 -0.0361 -0.2256  0.0307
 8131W        W 8131   4.630   3.888   2.738  0.2516  0.0224 -0.0485
 8132W        W 8132   0.537   4.365   2.633  0.0013  0.1472  0.0056
 8133W        W 8133   5.415   7.409   9.665 -0.0193  0.0384 -0.1184
 8134W        W 8134   9.613   8.391   5.870  0.0968 -0.1716  0.0884
 8135W        W 8135   4.147   0.829   5.698  0.2103  0.0133 -0.3102
 8136W        W 8136  10.337   5.398   5.293  0.1711 -0.1429  0.2334
 8137W        W 8137   5.281   8.411   6.904 -0.1103  0.2478 -0.2696
 8138W        W 8138   0.096   8.418   8.586 -0.1570  0.2118 -0.1139
 8139W        W 8139   5.112   2.716   0.049 -0.0486 -0.2070 -0.2146
 8140W        W 8140  10.083   7.029   5.747  0.1087  0.0631 -0.3317
 8141W        W 8141   7.828   6.531   9.159 -0.2835  0.0426 -0.0717
 8142W        W 8142   9.172   9.722   1.076 -0.0519  0.0551  0.2253
 8143W        W 8143   9.190   8.086   3.950  0.1087  0.0083  0.2444
 8144W        W 8144   2.095   8.671   6.628  0.0190 -0.3300  0.0460
 8145W        W 8145   6.631  10.024   7.328 -0.2224 -0.0578  0.2381
 8146W        W 8146   4.922   9.999   3.746 -0.0977 -0.0875  0.0054
 8147W        W 8147   3.556   8.568  10.035 -0.1793  0.4411  0.0520
 8148W        W 8148   6.117   1.612   5.191 -0.1707 -0.2033 -0.0189
 8149W        W 8149   8.563   5.317   0.346  0.0410 -0.1584 -0.1099
 8150W        W 8150  10.115   0.791   6.675 -0.3842 -0.0193  0.1444
 8151W        W 8151   5.512   5.581   1.357 -0.0251  0.0356  0.0207
 8152W        W 8152   5.133   7.670   3.535 -0.0898  0.1594  0.3537
 8153W        W 8153   1.850   6.585   5.348  0.3546 -0.0451 -0.1657
 8154W        W 8154  10.217   5.187   4.410 -0.2165  0.0672 -0.0654
 8155W        W 8155   2.816   5.585   7.140  0.0549 -0.0927 -0.0758
 8156W        W 8156   2.482   3.971   3.115  0.0234 -0.0930  0.0480
 8157W        W 8157   7.772   0.895   7.948  0.1200 -0.0933  0.1433
 8158W        W 8158   4.177   5.467   8.323 -0.2137  0.0470 -0.4143
 8159W        W 8159   6.763   3.566   5.320 -0.0708  0.1423 -0.1992
 8160W        W 8160   6.376   4.879   7.196  0.0186  0.1046 -0.1385
 8161W        W 8161   3.265   1.419   9.592  0.2146 -0.2391 -0.0598
 8162W        W 8162   4.752   2.431  10.141 -0.1326 -0.0718  0.0785
 8163W        W 8163   3.738   6.513   7.320  0.0963 -0.2597  0.1423
 8164W        W 8164   2.802   6.403   9.056  0.2812  0.0580  0.0083
 8165W        W 8165   2.853  10.221   0.304 -0.0039  0.3167  0.1404
 8166W        W 8166   7.013   7.670   2.276 -0.0582  0.3099 -0.1150
 8167W        W 8167   5.988   4.193   7.090 -0.0773  0.1816  0.0337
 8168W        W 8168   5.287   4.693   8.308 -0.0247 -0.2591 -0.0872
 8169W        W 8169   7.641   0.527   7.606 -0.0305 -0.1758 -0.2337
 8170W        W 8170   7.848   2.399   5.052 -0.0787  0.0616  0.0188
 8171W        W 8171   1.724   8.413   5.559  0.0649  0.1767  0.1807
 8172W        W 8172   5.533   3.865   1.253 -0.1311 -0.0460  0.0843
 8173W        W 8173   5.222   8.522   0.420  0.0755 -0.1209 -0.2609
 8174W        W 8174   7.034   6.618   5.525  0.0713 -0.1475 -0.4054
 8175W        W 8175   0.036   9.011   9.061  0.2571  0.0454 -0.3098
 8176W        W 8176   7.771   3.033   1.318  0.3261  0.3046 -0.1152
 8177W        W 8177   6.285   1.987   1.816 -0.0190  0.0314 -0.0235
 8178W        W 8178   8.541   9.195   9.666 -0.2013  0.0568 -0.1312
 8179W        W 8179   1.984   8.668   4.007  0.1387  0.1024  0.0394
 8180W        W 8180   2.165   0.045   7.313 -0.0946 -0.2156  0.1984
 8181W        W 8181   2.025   6.048   9.377  0.1055  0.2095 -0.1699
 8182W        W 8182   3.920   9.411  10.159  0.0087 -0.1467  0.0230
 8183W        W 8183   0.098   8.503   9.279 -0.2170  0.2450  0.0096
 8184W        W 8184   7.250   6.422   8.604  0.0553  0.1337 -0.1318
 8185W        W 8185   1.545   1.009   0.504  0.1286 -0.2444 -0.0211
 8186W        W 8186   2.825   6.104   7.332  0.3257  0.0994 -0.2259
 8187W        W 8187   1.568   7.359   0.354  0.1026 -0.2026  0.1039
 8188W        W 8188   3.133   9.441   7.932 -0.1378  0.2442  0.2814
 8189W        W 8189   2.719   8.134   4.935 -0.2312 -0.2627 -0.0632
 8190W        W 8190   6.163   6.608   9.717  0.1120  0.1762 -0.0132
 8191W        W 8191   7.417   8.558   7.456 -0.0037  0.0639  0.0517
 8192W        W 8192   9.312   5.141   6.834 -0.1751 -0.0854 -0.4102
 8193W        W 8193   6.245   2.760   3.781  0.0882  0.2643 -0.1783
 8194W        W 8194   0.706   0.247   1.470 -0.2368  0.1590  0.2344
 8195W        W 8195   2.503   8.306   0.306  0.1367 -0.1120 -0.1953
 8196W        W 8196   6.857   7.352   5.948  0.0337  0.1123 -0.1473
 8197W        W 8197   3.785   0.626   1.621  0.0998  0.0492  0.3311
 8198W        W 8198   4.345   8.069   7.783  0.3789  0.2109 -0.1654
 8199W        W 8199   0.767   0.463   5.656  0.1846  0.1381 -0.1952
 8200W        W 8200   5.250   7.402   0.009 -0.1118 -0.1609 -0.0876
 8201W        W 8201   8.014   4.541   0.593  0.2334 -0.0348  0.1526
 8202W        W 8202   6.452   1.154   1.900 -0.0502  0.2001 -0.3526
 8203W        W 8203   5.991   0.797   1.968 -0.0698 -0.1360  0.0838
 8204W        W 8204   1.882   0.366   9.157  0.3687 -0.0570 -0.3766
 8205W        W 8205   4.936   5.571   0.074 -0.1637 -0.0852 -0.0491
 8206W        W 8206   9.840   4.681   9.534 -0.1555  0.1229  0.2427
 8207W        W 8207   6.703   7.273   1.983 -0.0509  0.0963 -0.1166
 8208W        W 8208   5.754   2.417   8.197  0.1215  0.0993 -0.3282
 8209W        W 8209   2.718   1.535   6.304 -0.1724  0.0388  0.0189
 8210W        W 8210   8.007   8.171   0.008 -0.2145  0.2855  0.3864
 8211W        W 8211   8.579   1.883   5.621 -0.0344 -0.0671 -0.0990
 8212W        W 8212   2.187   6.277   7.364  0.0808 -0.2654 -0.0531
 8213W        W 8213   6.773   4.362   6.321 -0.0676  0.0629 -0.0323
 8214W        W 8214   8.373   1.235   0.332 -0.1462  0.2907 -0.3452
 8215W        W 8215   8.685   0.591   2.322  0.1263  0.2575 -0.0117
 8216W        W 8216   3.037  10.279   1.729  0.0572 -0.0090 -0.0233
 8217W        W 8217   4.114  10.184   5.880  0.0471  0.0837 -0.0068
 8218W        W 8218   7.137   2.457   2.602  0.2208 -0.0329 -0.2666
 8219W        W 8219   4.993   7.374   1.858 -0.0807  0.1239 -0.1331
 8220W        W 8220   1.752   4.315   7.306 -0.3020 -0.1661 -0.3313
 8221W        W 8221   9.273   7.084   3.882  0.1467 -0.0947 -0.1943
 8222W        W 8222   0.544   1.797   3.613  0.0309 -0.2266  0.3752
 8223W        W 8223   2.443   7.602   7.244 -0.2486 -0.3257  0.0859
 8224W        W 8224   7.113   4.896   3.306 -0.2490 -0.1579 -0.1241
 8225W        W 8225   6.546  10.230   8.498  0.1891 -0.1603  0.0797
 8226W        W 8226  10.033   4.907   3.090 -0.1111  0.3075  0.0744
 8227W        W 8227   4.963  10.308   2.054 -0.2446  0.0738  0.0219
 8228W        W 8228   0.685   8.376   2.952 -0.1124 -0.0242  0.2670
 8229W        W 8229   9.822   8.668   6.195 -0.0755 -0.5468 -0.0891
 8230W        W 8230   0.270   8.391   5.600 -0.1037  0.1979  0.3992
 8231W        W 8231  10.078   7.340   5.389 -0.0915  0.2042 -0.2533
 8232W        W 8232   9.367   1.582   3.157  0.0298  0.3110  0.1631
 8233W        W 8233   8.086   1.765   1.088  0.0505 -0.2022 -0.0932
 8234W        W 8234   4.710   7.664   1.103  0.0691  0.1280  0.0198
 8235W        W 8235   8.082   0.276   9.582  0.0799 -0.2065  0.1123
 8236W        W 8236   2.649   7.887   0.467 -0.1960 -0.0506  0.0145
 8237W        W 8237   4.886   7.019   8.789  0.2764 -0.0380  0.0963
 8238W        W 8238   7.019   1.177   7.531 -0.1208 -0.0177 -0.0169
 8239W        W 8239   4.030   8.387  10.073 -0.1576 -0.0845  0.0415
 8240W        W 8240   0.859   3.492   7.513 -0.1306 -0.2423 -0.2954
 8241W        W 8241   7.049   3.021   1.853 -0.1671 -0.1316  0.3974
 8242W        W 8242   6.063   2.590   2.761  0.1239  0.0619 -0.1024
 8243W        W 8243   3.908   1.180   8.049  0.0466  0.0182  0.0314
 8244W        W 8244   3.848   1.129   7.558 -0.0407  0.1406  0.0400
 8245W        W 8245   0.754   9.880   2.177 -0.2589 -0.0344 -0.4347
 8246W        W 8246   8.052   0.803   5.169 -0.0075 -0.0134 -0.0712
 8247W        W 8247   6.318   8.932   4.494  0.0089  0.1313  0.0128
 8248W        W 8248  10.081   1.334   6.637 -0.1831 -0.3758  0.1145
 8249W        W 8249   8.499   6.388   6.074 -0.1297 -0.0428  0.0755
 8250W        W 8250   0.104   8.990   7.838  0.1955  0.1543  0.0218
 8251W        W 8251   8.871  10.229   0.943  0.2388  0.0805 -0.1016
 8252W        W 8252   5.210   4.824   4.775  0.0119  0.2943  0.2279
 8253W        W 8253   4.327   1.582   7.462 -0.0365  0.0322  0.1955
 8254W        W 8254   8.930   1.307   9.085 -0.0918 -0.1265 -0.0980
 8255W        W 8255   7.535   6.068   6.015 -0.5515 -0.1563 -0.2842
 8256W        W 8256   9.286   1.718   7.372  0.2805 -0.0928 -0.0579
 8257W        W 8257   8.354   0.137   5.981  0.0454  0.1151  0.1511
 8258W        W 8258   0.244   2.768   7.542 -0.0118  0.1604 -0.1067
 8259W        W 8259   4.957   9.080   6.185  0.0475 -0.0884 -0.1159
 8260W        W 8260   0.336   1.770   9.562 -0.0108  0.1219 -0.0351
 8261W        W 8261   6.336  10.252   3.520 -0.2239  0.0810  0.1596
 8262W        W 8262   0.975   8.725   8.338  0.0959  0.1164 -0.1498
 8263W        W 8263   9.676   1.294   0.795 -0.1286 -0.1333  0.2190
 8264W        W 8264   7.652   9.686   4.330 -0.0112  0.2127 -0.2035
 8265W        W 8265   7.296   8.844   7.016  0.0709 -0.0499 -0.1554
 8266W        W 8266   6.673   7.648   4.106  0.0953 -0.0570  0.0113
 8267W        W 8267   2.808   2.687   2.386  0.3421 -0.0374 -0.0766
 8268W        W 8268   9.507   3.794   9.433  0.1150 -0.0618  0.2129
 8269W        W 8269   0.559   0.829   4.164  0.0555 -0.0462 -0.1796
 8270W        W 8270   0.845   0.676   3.200 -0.2056 -0.1726 -0.1485
 8271W        W 8271   5.594   3.041   1.135 -0.3075  0.0784 -0.0513
 8272W        W 8272   3.331   7.320   4.976  0.1659 -0.0840  0.2570
 8273W        W 8273   3.030   4.819   2.412  0.0142  0.0131  0.1806
 8274W        W 8274   2.323   3.334   7.341  0.1885 -0.1697 -0.2732
 8275W        W 8275   9.388   5.615   6.949 -0.1736 -0.0178  0.1880
 8276W        W 8276   9.478   0.573   5.738 -0.1934 -0.0617  0.0130
 8277W        W 8277   4.232   3.210   0.547  0.0004  0.2993  0.1350
 8278W        W 8278   3.432   6.615   8.269 -0.0316  0.2217 -0.1934
 8279W        W 8279   4.067   3.668   2.054 -0.0866 -0.1726 -0.0566
 8280W        W 8280   7.465   2.335   4.197 -0.1541 -0.1824  0.1658
 8281W        W 8281   5.295   2.721   8.216  0.2266 -0.1276  0.1084
 8282W        W 8282   9.199   6.594   2.340  0.1733 -0.3254  0.2050
 8283W        W 8283   5.900   8.470   1.729  0.1622  0.0916  0.0713
 8284W        W 8284   2.787   1.067   6.884  0.1102 -0.3173 -0.2183
 8285W        W 8285   8.150   8.052   5.911 -0.0691 -0.0878 -0.1567
 8286W        W 8286   9.622   5.182   8.172  0.1910  0.0672  0.1497
 8287W        W 8287   9.862   0.045   8.770  0.1639 -0.2310  0.3229
 8288W        W 8288   1.362   1.922   6.734  0.0800 -0.1476  0.0593
 8289W        W 8289   3.594   7.934   6.965  0.0730 -0.0319  0.3149
 8290W        W 8290   8.321   2.193   6.564 -0.1537  0.2117  0.0792
 8291W        W 8291   6.754   9.833   1.133  0.3815 -0.1990  0.0905
 8292W        W 8292   2.293   5.748   8.461  0.0125 -0.2389  0.0160
 8293W        W 8293   9.022   6.606   8.833 -0.0787 -0.0885  0.1602
 8294W        W 8294   7.867   4.061   3.995  0.0294 -0.0512  0.0860
 8295W        W 8295   8.449   8.319   2.692  0.2938 -0.1898  0.3514
 8296W        W 8296   8.571   1.715   8.825  0.1269  0.1241 -0.1022
 8297W        W 8297   5.306   8.163   3.947 -0.0242  0.0075 -0.1712
 8298W        W 8298   9.116   4.731   4.033  0.3024  0.0307  0.0129
 8299W        W 8299   0.941   1.069   0.612  0.0267  0.0899  0.0996
 8300W        W 8300   6.370   0.436   7.238  0.2827  0.1226 -0.1072
 8301W        W 8301   7.211   6.624   9.127 -0.0618  0.1586  0.1913
 8302W        W 8302   7.335   1.500   6.155  0.1209 -0.0077 -0.0979
 8303W        W 8303   3.942   9.403   0.613  0.1434  0.0505  0.1861
 8304W        W 8304   0.783   3.885   6.196 -0.2299 -0.1252 -0.0496
 8305W        W 8305   2.390   9.664   2.299 -0.1853 -0.0903 -0.4410
 8306W        W 8306   2.660   8.977   5.865  0.1600  0.0158  0.2314
 8307W        W 8307   9.768   9.191   6.203 -0.0616 -0.1269  0.0332
 8308W        W 8308   4.254   2.190   0.685  0.2005  0.1768  0.2810
 8309W        W 8309   6.644   8.422   3.151 -0.1886  0.0158  0.1697
 8310W        W 8310   1.529   2.870   9.284  0.1253 -0.0541 -0.1147
 8311W        W 8311   4.252   2.077   7.856 -0.1938 -0.2158  0.0084
 8312W        W 8312   9.835   7.525   7.501  0.1079 -0.1233  0.0745
 8313W        W 8313   3.355   0.586   5.232  0.0080  0.2502 -0.3925
 8314W        W 8314   5.389   0.650   2.670 -0.1939 -0.1107 -0.2503
 8315W        W 8315   7.684   0.657   4.793 -0.2162  0.1421  0.2900
 8316W        W 8316  10.318   2.356   6.659 -0.0754  0.3798  0.2075
 8317W        W 8317   5.957   4.261   5.752  0.0205 -0.1464 -0.3083
 8318W        W 8318   0.322   4.092   2.004 -0.2083  0.3465  0.2450
 8319W        W 8319   6.084   9.392   5.863  0.2761  0.0816 -0.1754
 8320W        W 8320   2.750   0.232   2.337  0.0704  0.1775 -0.0701
 8321W        W 8321   1.014  10.013   5.612  0.1380 -0.0992  0.0191
 8322W        W 8322   2.862   4.452   5.997 -0.1414  0.0580 -0.0212
 8323W        W 8323   4.377   2.944   2.383 -0.1817  0.3160  0.1898
 8324W        W 8324   0.649   6.989   5.998  0.2009 -0.2310 -0.0272
 8325W        W 8325  10.245   2.621   0.968  0.0075  0.2622  0.3120
 8326W        W 8326   9.563   7.118   5.803 -0.1056 -0.0417 -0.3591
 8327W        W 8327   3.534   6.305   1.343 -0.0621 -0.1622 -0.4523
 8328W        W 8328   3.529   9.555   0.001  0.0186  0.1761 -0.0025
 8329W        W 8329   6.708   5.270   5.985  0.0517 -0.3675 -0.0317
 8330W        W 8330   7.258   4.051   4.853 -0.4390  0.0862  0.1765
 8331W        W 8331   3.347   6.423   2.350 -0.0778 -0.3011 -0.2085
 8332W        W 8332   5.879   8.990   9.443 -0.2021 -0.4045  0.1871
 8333W        W 8333   9.020   7.140   6.051 -0.1415  0.0620 -0.4209
 8334W        W 8334  10.322   7.554   7.592  0.0843  0.1181 -0.0428
 8335W        W 8335   3.875   4.941   7.406 -0.0738 -0.0307  0.1643
 8336W        W 8336   2.251   9.291   1.639 -0.0600 -0.2255  0.0376
 8337W        W 8337   1.026   1.799   2.528 -0.0024  0.1485 -0.1102
 8338W        W 8338   2.004   0.367   0.536 -0.0205  0.1702 -0.1695
 8339W        W 8339   9.642   6.828   4.703  0.2763  0.0280  0.2233
 8340W        W 8340   1.902   3.217   2.747  0.1624  0.1136  0.0571
 8341W        W 8341   4.125   5.045   3.978  0.0412  0.2816  0.2933
 8342W        W 8342   8.214  10.023   9.797 -0.0614 -0.2235  0.0751
 8343W        W 8343   7.760   8.134   5.034 -0.3509  0.0131  0.0288
 8344W        W 8344   7.275   0.346   8.388 -0.1047  0.0074 -0.0346
 8345W        W 8345   6.315   6.500   2.255  0.1460 -0.0658  0.1117
 8346W        W 8346  10.333   0.241   9.668  0.0308  0.0957 -0.3153
 8347W        W 8347   0.137   1.768   0.679 -0.0058  0.1819  0.1886
 8348W        W 8348  10.043   2.223   9.869 -0.1264  0.1944  0.0376
 8349W        W 8349   9.384   1.404   8.519  0.1006  0.2076 -0.1138
 8350W        W 8350   4.943   2.835   3.569  0.0927  0.0294  0.0953
 8351W        W 8351   2.427   5.220   5.248 -0.2307  0.1614 -0.0035
 8352W        W 8352   0.141   9.226   3.840 -0.0745 -0.0568 -0.0016
 8353W        W 8353   0.717   6.291   0.026 -0.0122  0.2945  0.1423
 8354W        W 8354   9.752   2.437   0.608 -0.0601  0.0725 -0.1281
 8355W        W 8355   3.978   3.714   4.626  0.1220  0.1253  0.2073
 8356W        W 8356   5.629   5.009   8.122  0.3438 -0.0778 -0.0071
 8357W        W 8357   3.747   4.964   9.796  0.0897  0.2826 -0.0270
 8358W        W 8358   4.698   4.914   6.488  0.2492  0.1663  0.0204
 8359W        W 8359   7.702   8.314   2.858 -0.1251 -0.3486  0.1807
 8360W        W 8360   8.302   4.087   0.645  0.0005  0.1830 -0.0297
 8361W        W 8361   7.393   7.429   9.974 -0.2361 -0.0475 -0.1463
 8362W        W 8362   4.619   0.041   2.973 -0.2346  0.2336 -0.0213
 8363W        W 8363   8.738   8.158   8.584 -0.0374 -0.1448 -0.3501
 8364W        W 8364   9.413   7.215   2.925 -0.0223  0.2521  0.1546
 8365W        W 8365   5.212   1.355   5.045  0.2250 -0.0658 -0.0342
 8366W        W 8366   7.848   3.359   0.879 -0.0933  0.2003 -0.0620
 8367W        W 8367   1.085   0.364   2.715  0.1867  0.2091  0.3432
 8368W        W 8368   8.919   6.978   7.869  0.0846  0.0292 -0.1784
 8369W        W 8369   4.720   2.264   3.163 -0.0412 -0.1239 -0.0245
 8370W        W 8370   1.481   3.892   4.655  0.1732  0.0055 -0.0577
 8371W        W 8371   0.466   8.736   8.402 -0.2415 -0.0892 -0.0394
 8372W        W 8372   4.405   3.358   1.980  0.1545  0.0573  0.1748
 8373W        W 8373   0.268   7.110   8.681  0.0608 -0.0125  0.1456
 8374W        W 8374   7.274   7.275   7.896 -0.0712  0.1047  0.1806
 8375W        W 8375   6.008   1.623   4.024  0.4173  0.1775  0.3330
 8376W        W 8376   9.265  10.099   6.165  0.0998  0.0544  0.1490
 8377W        W 8377   6.584   4.894   5.468  0.0659  0.3511 -0.1849
 8378W        W 8378   9.918   2.601   2.635  0.3335  0.0764 -0.3358
 8379W        W 8379   6.290   1.188   1.140  0.2263 -0.4095 -0.1172
 8380W        W 8380   2.584   6.294   9.508 -0.0266  0.0351 -0.1629
 8381W        W 8381   3.325  10.209   3.071  0.0589 -0.0033 -0.2437
 8382W        W 8382   2.245   2.778   0.340  0.1254  0.2618  0.1565
 8383W        W 8383   8.417   0.898   5.500 -0.0334 -0.0388  0.0156
 8384W        W 8384   3.790   1.482   0.619 -0.0699 -0.1303  0.0767
 8385W        W 8385   2.908   8.905   7.834 -0.0580  0.2848 -0.1535
 8386W        W 8386   9.707   7.730   8.840  0.1656 -0.0156  0.2697
 8387W        W 8387   6.754  10.251   5.167  0.0522  0.3076  0.0248
 8388W        W 8388   5.150   5.292   9.526 -0.1208  0.1144  0.0615
 8389W        W 8389   1.855   0.466   6.920 -0.1370 -0.0981 -0.3051
 8390W        W 8390   8.961   3.185   2.673  0.4434  0.0379 -0.1482
 8391W        W 8391   7.052   9.059   2.409 -0.0548 -0.2219 -0.0344
 8392W        W 8392   1.244   6.088   7.188  0.0013 -0.0074 -0.0423
 8393W        W 8393   4.444  10.055   6.265 -0.1672  0.0192  0.0143
 8394W        W 8394   3.547   2.638   3.958  0.1010 -0.0756 -0.2410
 8395W        W 8395   2.460   4.367   2.162 -0.1890 -0.0713  0.2661
 8396W        W 8396   6.675   2.417   8.550 -0.0784  0.2665  0.0786
 8397W        W 8397   3.902   4.710   4.919 -0.1860  0.0352  0.0823
 8398W        W 8398   7.725   2.077   6.008  0.1133  0.2555  0.2104
 8399W        W 8399  10.282  10.044   9.595 -0.0560 -0.0102  0.1127
 8400W        W 8400   7.598   3.770   1.778  0.2538 -0.1018  0.1397
 8401W        W 8401   0.099   9.070   2.331  0.1531 -0.1756  0.5330
 8402W        W 8402   9.135   3.440   9.207 -0.0844 -0.1074  0.1600
 8403W        W 8403   4.832   2.140   0.816 -0.1133  0.0619  0.1450
 8404W        W 8404   3.308   7.801   1.052  0.3439  0.4040 -0.0026
 8405W        W 8405   3.280   2.588   4.365 -0.0298  0.1082  0.2549
 8406W        W 8406   1.286   2.628   7.187 -0.0110 -0.0620  0.0355
 8407W        W 8407   9.070   9.191   4.945 -0.2190  0.1223 -0.0134
 8408W        W 8408   1.726   1.201   2.009 -0.0930 -0.1629 -0.3382
 8409W        W 8409   5.959   1.133   4.468  0.0389  0.4417  0.2068
 8410W        W 8410   4.822   8.368   8.973 -0.3148 -0.3148 -0.3331
 8411W        W 8411   7.694   9.177   6.313 -0.0864  0.0540  0.0795
 8412W        W 8412   5.026   1.842   7.869 -0.1295 -0.1163 -0.2160
 8413W        W 8413   3.192   8.231   7.011 -0.0196 -0.0172 -0.0448
 8414W        W 8414   7.676   0.473   8.131  0.0915  0.0761  0.2856
 8415W        W 8415   8.142   3.096   4.289 -0.0323  0.0205 -0.1903
 8416W        W 8416   5.556   1.764   3.810 -0.0635  0.0935  0.1615
 8417W        W 8417   4.462   8.868   5.849  0.1887 -0.1590 -0.0141
 8418W        W 8418   6.320   0.789   5.460 -0.2516 -0.1282  0.1526
 8419W        W 8419   6.304   9.331   8.469 -0.2576  0.1958 -0.0069
 8420W        W 8420   9.652   0.485   8.714  0.1788 -0.1486 -0.1122
 8421W        W 8421   4.113   2.841  10.258  0.0087  0.1750  0.1724
 8422W        W 8422   1.820   3.235   5.245 -0.0501 -0.0619 -0.2773
 8423W        W 8423  10.075   9.029   4.260  0.0274  0.1593  0.2158
 8424W        W 8424   6.761   9.827   6.355 -0.1218  0.0981  0.0229
 8425W        W 8425   6.042   5.779   1.515  0.0460  0.0948  0.3244
 8426W        W 8426   0.198   3.976  10.333  0.0261  0.2702 -0.2647
 8427W        W 8427   2.928   4.971   7.918  0.1381  0.0141 -0.1161
 8428W        W 8428   0.827   3.938   3.913  0.0937 -0.1067  0.1075
 8429W        W 8429   1.963   2.126   1.141 -0.0740 -0.4593  0.0314
 8430W        W 8430   6.687   4.663   3.207 -0.2362 -0.3788 -0.1991
 8431W        W 8431   1.022   1.298   6.066  0.1410 -0.1741  0.1906
 8432W        W 8432   4.286   8.070   3.490 -0.0035 -0.3070 -0.1964
 8433W        W 8433   9.528   3.452   1.098  0.1510  0.2251  0.1242
 8434W        W 8434   2.475  10.224  10.269  0.0041 -0.0038 -0.4035
 8435W        W 8435   0.007   6.635   3.929 -0.4130  0.0675 -0.1661
 8436W        W 8436   4.025   1.047   6.560 -0.1841 -0.3150 -0.1578
 8437W        W 8437   4.476   3.620   4.569 -0.0954 -0.2054  0.2183
 8438W        W 8438   7.451   2.913   8.348 -0.0405  0.1549 -0.1525
 8439W        W 8439   7.390   7.001   3.474 -0.1847 -0.2724 -0.0733
 8440W        W 8440   2.966   2.145   6.955  0.0106 -0.0520  0.0326
 8441W        W 8441   6.583   3.457   1.804  0.0776  0.1497  0.0855
 8442W        W 8442   3.702   5.237   4.121  0.1714  0.1190  0.2976
 8443W        W 8443   6.056  10.237   1.355  0.0693  0.0577 -0.2664
 8444W        W 8444   0.827   1.225   3.911  0.1422 -0.0252 -0.0009
 8445W        W 8445   6.559   9.806   2.552 -0.3287  0.3105  0.2925
 8446W        W 8446   4.233   1.305   5.173  0.1689 -0.1927  0.2113
 8447W        W 8447   3.294   4.422   2.423 -0.2654 -0.0423  0.2503
 8448W        W 8448   9.473  10.057  10.055 -0.0459 -0.0130  0.1118
 8449W        W 8449   3.344   3.244   5.728  0.1039 -0.1182  0.2401
 8450W        W 8450   0.777   6.548   9.809  0.1965 -0.1368 -0.0686
 8451W        W 8451   7.927   2.261   6.804  0.1690 -0.2019 -0.0906
 8452W        W 8452   8.980   8.784   4.475  0.1398 -0.0755 -0.1624
 8453W        W 8453   4.684   8.805   4.346 -0.1110  0.1305  0.0265
 8454W        W 8454   8.202   2.383   2.095 -0.3921  0.2493 -0.3069
 8455W        W 8455   7.766   7.587   6.937  0.0801  0.3228 -0.0157
 8456W        W 8456   1.013   3.929   8.893 -0.2891 -0.3222 -0.0520
 8457W        W 8457   4.370   1.157   9.198 -0.1288  0.0659  0.1338
 8458W        W 8458   5.070   2.051   8.624 -0.1087  0.0342 -0.4280
 8459W        W 8459  10.149   5.198   7.577 -0.0905  0.2468 -0.0059
 8460W        W 8460   1.333   6.945   4.794 -0.3705 -0.0958 -0.1110
 8461W        W 8461   2.361   4.920   0.809 -0.1322  0.0034  0.1407
 8462W        W 8462   9.847   9.965   8.364  0.0514 -0.0843  0.3083
 8463W        W 8463   3.081   8.945   2.755  0.1919 -0.2925 -0.2424
 8464W        W 8464   6.129   5.106   1.490  0.1395  0.0933 -0.0355
 8465W        W 8465   9.892   1.826  10.230  0.0069  0.1592 -0.1909
 8466W        W 8466   1.774   3.399   6.296 -0.2481  0.0518 -0.0621
 8467W        W 8467   5.879   7.651   0.234  0.0319 -0.1409 -0.2686
 8468W        W 8468   0.569   7.870   1.941  0.3974 -0.1859  0.1019
 8469W        W 8469   6.512   1.541   5.481  0.2160  0.1499 -0.0337
 8470W        W 8470   4.414   6.934   8.905 -0.2371 -0.1131 -0.1249
 8471W        W 8471   1.521   7.491   6.425  0.1828  0.1915 -0.2383
 8472W        W 8472   1.620   0.444   5.444  0.0655  0.0372 -0.0710
 8473W        W 8473   8.203   9.474   6.510 -0.0250  0.2607 -0.0578
 8474W        W 8474   7.086   5.342   3.087  0.1048  0.0316 -0.0162
 8475W        W 8475   6.138   8.203   4.961  0.2233  0.1005  0.1027
 8476W        W 8476   0.364   9.386   3.009 -0.0975 -0.0184  0.1047
 8477W        W 8477   7.606   3.214   4.170  0.0868 -0.3598  0.1480
 8478W        W 8478   8.786   0.518   9.284  0.1763 -0.0559 -0.3348
 8479W        W 8479   0.327   7.259   7.796  0.3748 -0.1699 -0.2379
 8480W        W 8480   7.622   7.620   7.682 -0.1928 -0.3607  0.0777
 8481W        W 8481   3.822   8.382   0.731 -0.2140 -0.0342  0.0899
 8482W        W 8482   9.012   8.923   0.115  0.0975 -0.1337 -0.2795
 8483W        W 8483   2.014   4.939   0.433  0.0341  0.1312  0.3847
 8484W        W 8484   2.770   8.147   9.747 -0.1199 -0.0377  0.0551
 8485W        W 8485   0.501   7.145   2.062  0.1342  0.0220  0.1211
 8486W        W 8486   7.995   4.809   3.037 -0.0831  0.0886  0.0001
 8487W        W 8487   3.475   3.084   6.740  0.0702  0.1023 -0.2740
 8488W        W 8488   7.095   8.229   4.962 -0.0919 -0.0435 -0.2210
 8489W        W 8489   7.953   3.537   4.116  0.0742  0.2660 -0.1605
 8490W        W 8490   1.049   3.282   1.427 -0.0794 -0.1517  0.0598
 8491W        W 8491   1.563   7.986   6.241  0.1801 -0.2097  0.0952
 8492W        W 8492   6.477   8.041   1.547  0.1895  0.2623 -0.2308
 8493W        W 8493   6.753   8.131   7.111 -0.0686 -0.2831  0.2186
 8494W        W 8494   7.503   4.526   7.915  0.0283 -0.0835 -0.1055
 8495W        W 8495   2.931   3.661   5.145 -0.3163 -0.4393  0.1471
 8496W        W 8496   8.149   6.074   0.715  0.1934 -0.0622  0.1969
 8497W        W 8497   3.559   1.539   2.728 -0.2385 -0.0238 -0.0091
 8498W        W 8498   7.483   2.752   2.492  0.0975  0.0958 -0.1322
 8499W        W 8499   5.241   8.693   7.444  0.2177  0.2401 -0.1198
 8500W        W 8500   7.064   5.380   2.076 -0.1036  0.0205 -0.2775
 8501W        W 8501   8.747   7.254   3.695 -0.2168 -0.1510 -0.2390
 8502W        W 8502  10.258   2.901   2.961  0.0078  0.1111 -0.0488
 8503W        W 8503   8.704   3.939   3.405 -0.0907 -0.0669  0.2227
 8504W        W 8504   9.348   5.438   9.353 -0.1801 -0.1783 -0.0560
 8505W        W 8505   4.588   6.470   0.931  0.1199  0.0125 -0.0859
 8506W        W 8506   5.044   7.149   6.815  0.0835  0.1052  0.1777
 8507W        W 8507   8.322   4.188   8.245 -0.1031  0.1715  0.1051
 8508W        W 8508   6.950   2.894   7.451 -0.1005  0.1824 -0.1587
 8509W        W 8509  10.336   0.510   0.036  0.0416 -0.0145  0.0921
 8510W        W 8510   1.435   3.187   2.552 -0.0798  0.0513 -0.0756
 8511W        W 8511   6.544   6.698   4.430 -0.0533  0.0598 -0.0568
 8512W        W 8512   2.242   3.225   0.143 -0.0492 -0.0622 -0.0957
 8513W        W 8513   3.435   8.298   4.763  0.0881  0.2955 -0.1524
 8514W        W 8514   2.034   6.412   4.376 -0.0404  0.1003  0.0037
 8515W        W 8515   2.668   9.231   2.515 -0.3422  0.1426 -0.1204
 8516W        W 8516   4.055   4.787   0.941  0.2178  0.0473  0.0399
 8517W        W 8517  10.176   4.266   1.257 -0.3973 -0.2247 -0.0364
 8518W        W 8518   7.622   3.925   5.163 -0.0067  0.4669  0.2478
 8519W        W 8519   9.041   6.653   9.961 -0.1093 -0.2760  0.0079
 8520W        W 8520  10.024   5.710   0.602 -0.0601 -0.1358 -0.1647
 8521W        W 8521   2.136  10.027   5.263  0.1402 -0.1509  0.0562
 8522W        W 8522   8.533   8.058   8.068  0.1514  0.1167  0.3291
 8523W        W 8523   0.830   0.175   4.834  0.1993 -0.0022 -0.3444
 8524W        W 8524   3.492   5.471   5.923 -0.2242 -0.1044 -0.0530
 8525W        W 8525   4.503   7.253   7.519  0.1962  0.2215  0.1201
 8526W        W 8526   3.907   6.599   1.688  0.1315  0.0859  0.2051
 8527W        W 8527   1.487   7.536   5.871  0.0967 -0.1977  0.2082
 8528W        W 8528   6.024  10.176   4.103 -0.0692 -0.3458 -0.1854
 8529W        W 8529   3.219   2.628   0.996  0.0959  0.0153  0.3203
 8530W        W 8530   7.424   9.998   0.013  0.0160 -0.0793  0.1275
 8531W        W 8531   7.821   3.822   0.635 -0.1013 -0.0523  0.1579
 8532W        W 8532   7.295   2.603   5.631  0.2532 -0.0579  0.0898
 8533W        W 8533   4.527   0.201   9.029  0.0276  0.1454 -0.0482
 8534W        W 8534   2.881   7.598   0.078  0.0762 -0.2851  0.1906
 8535W        W 8535   6.784  10.200   9.011  0.0281 -0.0375 -0.1552
 8536W        W 8536   6.639   4.235   0.511  0.0583  0.0212  0.0467
 8537W        W 8537   5.376   2.694   9.088  0.1008 -0.0578 -0.3093
 8538W        W 8538   0.089   3.171   4.906  0.1796 -0.2194  0.2670
 8539W        W 8539   2.254   1.450   2.192  0.1145 -0.1684 -0.0356
 8540W        W 8540   4.582   7.906   4.834 -0.0685  0.0403 -0.1791
 8541W        W 8541   1.731   8.601   2.062  0.1013  0.1242  0.2445
 8542W        W 8542   5.465   7.090   6.499 -0.0787  0.0395 -0.1650
 8543W        W 8543   6.726   0.530   4.331  0.0413 -0.3880  0.3242
 8544W        W 8544   6.545   4.320  10.313 -0.1067  0.0473 -0.0483
 8545W        W 8545   2.061   4.723   1.717 -0.2303  0.2071  0.2407
 8546W        W 8546   8.617   9.545   9.018 -0.2399 -0.1308  0.3973
 8547W        W 8547   9.272   3.855   4.032 -0.2379 -0.1308  0.2547
 8548W        W 8548   1.511   0.436   5.926  0.1574 -0.4436  0.1133
 8549W        W 8549   4.114   3.932   8.797  0.0676  0.2737  0.3527
 8550W        W 8550   8.245   5.691   4.461 -0.2617  0.1355  0.0520
 8551W        W 8551   3.170   5.867   6.986  0.0061  0.1860 -0.1677
 8552W        W 8552   7.572   1.153   4.524 -0.1426 -0.0162  0.0936
 8553W        W 8553   4.872   6.465   0.401 -0.3947 -0.1198  0.0831
 8554W        W 8554   5.228   3.227   8.230  0.1065 -0.0197 -0.1160
 8555W        W 8555   7.898   5.580   2.634 -0.1582 -0.1720  0.0699
 8556W        W 8556   2.196   2.796   4.618 -0.1272 -0.3325  0.2657
 8557W        W 8557   7.264   5.176  10.173  0.0617 -0.3083  0.2164
 8558W        W 8558   2.966   1.126  10.114  0.3921  0.2780 -0.0669
 8559W        W 8559   3.324   6.673   7.527 -0.1010 -0.3502 -0.1282
 8560W        W 8560   4.880   5.699   9.340 -0.2780 -0.0844  0.1388
 8561W        W 8561   8.100   5.925   9.493 -0.0027  0.1205 -0.2050
 8562W        W 8562   3.379   9.320   0.582 -0.2296  0.0431  0.0434
 8563W        W 8563   8.489   3.787   8.528  0.1140 -0.1259 -0.0415
 8564W        W 8564   3.389   6.102   7.506 -0.0035 -0.1549  0.0290
 8565W        W 8565   1.152   5.579   8.148 -0.1790 -0.0906  0.1817
 8566W        W 8566   3.323   8.382   8.860  0.0844 -0.1645  0.1579
 8567W        W 8567   2.092   1.398   5.152 -0.2297  0.1557 -0.1812
 8568W        W 8568   4.566   2.097   6.287  0.1603  0.0903 -0.1234
 8569W        W 8569   7.081   3.843   0.443 -0.1419 -0.3905  0.1841
 8570W        W 8570   0.022   3.187   8.081  0.1565  0.1146 -0.1011
 8571W        W 8571   2.533   0.643   1.871 -0.1645  0.0123 -0.2029
 8572W        W 8572   2.945   3.855   4.574 -0.3935  0.1861 -0.0909
 8573W        W 8573   4.588   5.899   1.168  0.0654  0.0936  0.2020
 8574W        W 8574   0.388   2.946   5.312  0.1525 -0.1950 -0.2527
 8575W        W 8575   9.817   3.968   7.115  0.3026 -0.0638  0.0524
 8576W        W 8576   4.041   7.919   5.878  0.3555 -0.0836 -0.1014
 8577W        W 8577   2.727   4.438   7.995  0.1677 -0.1408 -0.0284
 8578W        W 8578   6.333   7.032   1.515  0.1224  0.1821 -0.0555
 8579W        W 8579   6.848   0.231   8.700 -0.2160 -0.0335 -0.0485
 8580W        W 8580   9.176   1.009   0.856 -0.3253  0.1932  0.0763
 8581W        W 8581   3.832   2.297   6.896 -0.0355  0.0222 -0.0416
 8582W        W 8582   4.057   3.933   8.292 -0.2582 -0.0331 -0.1302
 8583W        W 8583   9.260   4.626   9.476  0.0552 -0.1093  0.2424
 8584W        W 8584   3.927   0.700   1.030 -0.0466  0.4217  0.1867
 8585W        W 8585   7.569   4.245   0.448  0.0833 -0.1293 -0.0477
 8586W        W 8586   9.620   2.196   7.188  0.0716  0.0907  0.0036
 8587W        W 8587   3.821   0.107   2.700 -0.1084  0.0098  0.1584
 8588W        W 8588   1.952   8.221   4.150  0.0826  0.2265  0.0437
 8589W        W 8589   5.986   3.609   1.872  0.0685  0.2109  0.0047
 8590W        W 8590   4.447   8.377   5.015 -0.2177 -0.0507 -0.0618
 8591W        W 8591   6.035   5.855   5.609 -0.1281  0.0964 -0.0205
 8592W        W 8592   3.685   1.127   1.842  0.1445  0.0259 -0.1645
 8593W        W 8593   6.542   4.994   8.076  0.0960  0.1125 -0.2316
 8594W        W 8594   4.769   3.712   3.825 -0.1144  0.0576  0.0261
 8595W        W 8595  10.143   6.934   4.977  0.0698  0.0938  0.0071
 8596W        W 8596   9.721   8.653   7.103  0.0835 -0.2392  0.0144
 8597W        W 8597   5.523   9.835   8.528 -0.0700 -0.1690  0.1234
 8598W        W 8598  10.285   4.225   1.794  0.2040  0.3696 -0.0955
 8599W        W 8599   9.476   9.802   3.638 -0.3219  0.2821 -0.0790
 8600W        W 8600   6.474   4.824  10.194  0.2091 -0.0326  0.1407
 8601W        W 8601   7.945   2.917   8.988  0.0130 -0.1701  0.3176
 8602W        W 8602   4.289   6.707   1.327  0.0746 -0.1557 -0.0475
 8603W        W 8603   2.693   1.186   9.703 -0.0484  0.1055  0.0038
 8604W        W 8604   9.776   7.962   9.312 -0.1501 -0.2811  0.1494
 8605W        W 8605   2.641   3.598   8.647 -0.3696  0.0771 -0.1208
 8606W        W 8606   1.578   7.982   0.203  0.1796 -0.2287  0.1721
 8607W        W 8607   7.074   3.232   5.796 -0.0470  0.1099  0.2174
 8608W        W 8608   0.547   7.473   3.612  0.2095 -0.1269  0.0246
 8609W        W 8609   1.026   3.126   3.579 -0.1799 -0.2722 -0.0406
 8610W        W 8610   2.659   6.845   9.263 -0.0845 -0.1599 -0.0401
 8611W        W 8611   4.161   7.012   1.704  0.0012 -0.0333 -0.1372
 8612W        W 8612   1.784   0.752   0.883  0.0495 -0.0246 -0.0739
 8613W        W 8613   3.247   7.306  10.289  0.0232  0.1196  0.0591
 8614W        W 8614   2.698   7.715   4.301  0.1164 -0.1770  0.2866
 8615W        W 8615   9.944   5.534   7.871  0.2219 -0.0451 -0.0435
 8616W        W 8616   5.699   9.854   1.410 -0.1359  0.0388  0.3512
 8617W        W 8617   2.378   7.107   7.025 -0.0650  0.1429 -0.0298
 8618W        W 8618   6.867   0.158   7.065 -0.0877  0.1744 -0.0828
 8619W        W 8619   3.684  10.305   6.159  0.0765  0.1762  0.0285
 8620W        W 8620   9.089   8.674   9.632  0.1087  0.1478 -0.1292
 8621W        W 8621   0.809   0.170   6.928  0.4660  0.0377  0.0838
 8622W        W 8622   8.781   0.883   7.916  0.0350  0.0891  0.0691
 8623W        W 8623   7.704   1.760   4.267  0.1236 -0.0818  0.0450
 8624W        W 8624   2.474   8.879   8.983 -0.0812  0.1413 -0.1572
 8625W        W 8625   9.575   0.424   7.395  0.1874  0.0090  0.0607
 8626W        W 8626   8.630   6.874   8.252  0.0668 -0.0501 -0.3563
 8627W        W 8627   7.339   8.000   9.123  0.1149  0.1272  0.1460
 8628W        W 8628   1.411   2.099   7.195 -0.1080 -0.4330 -0.0668
 8629W        W 8629   3.885   6.734   4.386 -0.0017  0.4221 -0.0615
 8630W        W 8630   1.579   7.491   3.080  0.0983 -0.0783  0.5053
 8631W        W 8631   3.947   7.393   9.456 -0.0757 -0.0098  0.3456
 8632W        W 8632   2.200   8.086   3.638 -0.2648  0.0074  0.3392
 8633W        W 8633   4.305   3.714   3.601 -0.1645  0.0722 -0.0713
 8634W        W 8634   1.434   6.984   6.687 -0.0040 -0.1343  0.1992
 8635W        W 8635   0.882   6.393   3.309 -0.1279  0.3810  0.0728
 8636W        W 8636   7.733   1.221   1.456  0.1495 -0.1314  0.0983
 8637W        W 8637   6.469   3.065   6.214 -0.0175  0.2630  0.2105
 8638W        W 8638  10.322   1.006   0.067  0.3406  0.1425  0.0740
 8639W        W 8639   0.115   2.027   7.062  0.5209  0.3072 -0.0933
 8640W        W 8640   4.991   3.940   5.646  0.0405  0.0206  0.0518
 8641W        W 8641   4.333   7.326   0.674  0.0217 -0.1532 -0.1274
 8642W        W 8642   0.008   1.410   8.753 -0.1054  0.1417  0.3148
 8643W        W 8643   4.140  10.163   5.053 -0.0805  0.2348 -0.1611
 8644W        W 8644   8.138   6.899   4.869  0.4038 -0.2261  0.1024
 8645W        W 8645   5.557   9.207   3.017 -0.2504  0.1474 -0.2049
 8646W        W 8646   0.218   4.546   7.283 -0.2065  0.0966 -0.0981
 8647W        W 8647   2.762   8.998   5.369 -0.0364  0.0559 -0.0514
 8648W        W 8648   8.526   5.067   9.694 -0.0344  0.2264 -0.0197
 8649W        W 8649   2.322   6.703   6.374  0.2617  0.2038 -0.1435
 8650W        W 8650   5.626   1.834   0.344 -0.2075  0.1668 -0.2187
 8651W        W 8651   5.394   8.250   5.981 -0.1167  0.0628  0.0291
 8652W        W 8652   7.747   4.041   6.932  0.0650 -0.1937 -0.1173
 8653W        W 8653   9.990   6.156   6.308  0.0350  0.3132 -0.2827
 8654W        W 8654   1.211   0.790   5.742  0.3014 -0.1904  0.2991
 8655W        W 8655   7.446   3.054   7.846  0.2042  0.0991 -0.3867
 8656W        W 8656   4.170   6.425   8.771 -0.0300 -0.1030 -0.0807
 8657W        W 8657   6.487  10.228   6.404  0.2795  0.0344 -0.1096
 8658W        W 8658   0.065   6.275   2.984 -0.0502  0.0661 -0.0588
 8659W        W 8659   1.015   1.716   3.847 -0.0502 -0.0667 -0.1079
 8660W        W 8660   0.920   8.009   9.735  0.0561 -0.1169 -0.1604
 8661W        W 8661   2.180   2.412   8.327  0.3986 -0.0057  0.0997
 8662W        W 8662   1.024   1.135   8.422 -0.2056  0.3355  0.2302
 8663W        W 8663   6.379   7.378   6.731  0.1329 -0.1106  0.0317
 8664W        W 8664   6.696   1.152   1.471  0.1014 -0.1022  0.2689
 8665W        W 8665   6.870   7.795   5.060 -0.0546  0.0043  0.1450
 8666W        W 8666   3.984   5.508   3.122  0.3676 -0.0891  0.0685
 8667W        W 8667   6.075   9.792   4.379 -0.2394  0.0814 -0.0517
 8668W        W 8668   7.947   3.791   3.569 -0.1337 -0.0580 -0.0329
 8669W        W 8669   8.573   0.803   8.392 -0.0196  0.2691  0.0622
 8670W        W 8670   2.784   9.281   7.485  0.3238 -0.0705 -0.0710
 8671W        W 8671   9.973   2.413   3.109 -0.0972  0.1645  0.0446
 8672W        W 8672   9.142   9.835   4.200  0.1332  0.4261 -0.2079
 8673W        W 8673   7.358   6.912   8.328 -0.2330  0.0935  0.0937
 8674W        W 8674   2.336   5.243   9.297 -0.0031 -0.1161 -0.0694
 8675W        W 8675   0.254   1.574   3.229  0.1855  0.0438  0.1395
 8676W        W 8676   0.118   1.039   4.056  0.1021  0.1467  0.0997
 8677W        W 8677   6.628   2.609   0.869  0.0230 -0.3393 -0.1445
 8678W        W 8678   1.793   3.031   2.190  0.0540 -0.1761  0.0274
 8679W        W 8679   9.051   1.249   7.506  0.1439 -0.0145 -0.2226
 8680W        W 8680  10.042   2.174   8.942 -0.1480 -0.5136  0.0717
 8681W        W 8681   8.496   3.261   2.387  0.3077 -0.0231  0.0672
 8682W        W 8682   4.768   6.646   5.349 -0.1587 -0.2041 -0.0085
 8683W        W 8683   7.418   7.819   5.166 -0.2920  0.3209 -0.0996
 8684W        W 8684   5.867  10.092   5.119  0.1612 -0.1743  0.1610
 8685W        W 8685   5.714   4.014   5.239 -0.2423  0.0410  0.0518
 8686W        W 8686   1.254   2.866   9.688  0.1254 -0.2496 -0.2383
 8687W        W 8687   0.946   4.071   0.081 -0.0397 -0.1120 -0.0240
 8688W        W 8688   4.289  10.118   8.767 -0.0618  0.0859  0.1043
 8689W        W 8689   4.012   0.290   2.210 -0.1022 -0.1251  0.0373
 8690W        W 8690   0.561   5.537   1.065 -0.0475 -0.1084 -0.1931
 8691W        W 8691   1.195   1.153   1.863  0.1947  0.1591  0.1131
 8692W        W 8692   4.941   3.041   1.065 -0.1450 -0.0099 -0.0504
 8693W        W 8693   7.452  10.237   0.971  0.0872 -0.1684 -0.1194
 8694W        W 8694   5.315   4.299   5.364 -0.3611 -0.1004  0.2139
 8695W        W 8695   0.203   6.312   2.516 -0.0621 -0.0594  0.4128
 8696W        W 8696  10.274   0.840   3.629  0.3047  0.2228  0.3338
 8697W        W 8697   8.425   9.875   6.935  0.0812  0.0140  0.0527
 8698W        W 8698   6.767   3.831   4.797  0.2693 -0.2025 -0.0477
 8699W        W 8699   7.575   6.827   6.284  0.1618  0.0727  0.3508
 8700W        W 8700   3.639   2.650   1.245  0.0819 -0.0052 -0.0712
 8701W        W 8701   9.764   1.214   8.221 -0.2288  0.2629  0.1865
 8702W        W 8702   1.935   4.572   0.812 -0.1823 -0.0284  0.0476
 8703W        W 8703   6.043   9.915   2.647 -0.2628  0.0868  0.0673
 8704W        W 8704   7.396   4.965   7.703 -0.0154 -0.0703 -0.0258
 8705W        W 8705   0.394   6.588  10.136 -0.0379  0.0198  0.1765
 8706W        W 8706   2.177   1.936   5.105  0.1617 -0.2270  0.1322
 8707W        W 8707   9.364   8.212   0.906  0.1920 -0.3756  0.1150
 8708W        W 8708   1.744   0.122   9.607 -0.0792  0.0497  0.2597
 8709W        W 8709   6.360   2.635   4.833 -0.1168  0.1034  0.0807
 8710W        W 8710   5.009   4.075   6.173  0.0225 -0.0797  0.0293
 8711W        W 8711   3.607   6.616   9.639 -0.1645  0.1937 -0.1494
 8712W        W 8712   5.352   5.868   4.455  0.0057  0.0924  0.1741
 8713W        W 8713   2.425   5.688   0.867  0.1419  0.1825  0.2211
 8714W        W 8714   5.903   6.301   9.418 -0.2337  0.1421 -0.2651
 8715W        W 8715   7.907   4.628   1.646  0.0424 -0.3014 -0.0923
 8716W        W 8716   4.638   1.568   6.145  0.2818 -0.0508 -0.0517
 8717W        W 8717   1.100   8.138   3.200  0.1405 -0.1615  0.2354
 8718W        W 8718  10.033   2.288   1.691 -0.2005  0.1177  0.1416
 8719W        W 8719   2.625   2.493   6.788 -0.0031  0.0374  0.0699
 8720W        W 8720   7.950   8.619   5.008  0.2124 -0.0638  0.0195
 8721W        W 8721   8.064   6.991  10.146 -0.0752 -0.0583  0.1767
 8722W        W 8722   8.003   6.406   5.953 -0.2147 -0.0817  0.0662
 8723W        W 8723   3.660   4.492   5.478  0.0119  0.0330  0.1397
 8724W        W 8724   7.106  10.183   1.375 -0.1906  0.0779 -0.0180
 8725W        W 8725   3.492   1.893  10.003 -0.1537  0.1691  0.1486
 8726W        W 8726   6.819   2.453   7.621  0.0159  0.3441  0.1868
 8727W        W 8727   7.501   3.824   0.194 -0.2396  0.1842  0.1365
 8728W        W 8728   5.124   1.783   1.552  0.0890 -0.1957  0.0874
 8729W        W 8729   7.723   1.833   0.578 -0.0824 -0.1193  0.2529
 8730W        W 8730   1.894   7.938   4.639  0.0981 -0.1565  0.0073
 8731W        W 8731   7.012   1.067   6.987  0.1400  0.1643 -0.1603
 8732W        W 8732  10.206   2.488   4.417  0.2148  0.0102 -0.1484
 8733W        W 8733   6.240   6.321   4.485 -0.2366  0.2637  0.0552
 8734W        W 8734   3.590   1.091   4.569 -0.0030 -0.1694  0.0041
 8735W        W 8735   5.614   3.846   3.228 -0.1292  0.4157 -0.1309
 8736W        W 8736   3.836   8.467   3.965  0.1979  0.3974 -0.0743
 8737W        W 8737   0.392   7.141   0.105  0.1032 -0.1367 -0.1497
 8738W        W 8738   9.410   3.485   2.772 -0.0532 -0.1993  0.1180
 8739W        W 8739   6.206   2.379   0.846  0.2257 -0.1364  0.2219
 8740W        W 8740   2.606   7.859   3.738 -0.0242  0.3318 -0.1924
 8741W        W 8741   8.644  10.206   8.903  0.0434 -0.1974 -0.1791
 8742W        W 8742   6.169   3.967   9.020  0.1695  0.0491 -0.1010
 8743W        W 8743   1.961   0.334   1.135  0.1050 -0.1957  0.0130
 8744W        W 8744   9.839  10.202   7.375  0.1268 -0.2775  0.1936
 8745W        W 8745   5.051   5.625   2.991 -0.2424  0.0924 -0.0318
 8746W        W 8746   6.927   0.083   3.016  0.0545 -0.4340  0.2273
 8747W        W 8747   8.360  10.068   2.071 -0.0915 -0.1000  0.1257
 8748W        W 8748   1.387   9.509   2.109 -0.0627  0.3181 -0.0203
 8749W        W 8749   4.767   3.249   8.695 -0.0763  0.2168  0.0830
 8750W        W 8750   8.149   8.199   7.687  0.0130 -0.2280 -0.2778
 8751W        W 8751   8.098   2.274   8.300 -0.1750 -0.1231  0.2162
 8752W        W 8752   6.524   7.033   7.741  0.1547  0.0535 -0.1178
 8753W        W 8753   5.500   3.530   1.959  0.4540 -0.0553  0.1678
 8754W        W 8754   7.224   3.544   3.448  0.0711 -0.0905 -0.0481
 8755W        W 8755   8.092   4.320   2.856 -0.3485  0.1502  0.2629
 8756W        W 8756   5.103   8.971   0.841 -0.2004  0.1190  0.2028
 8757W        W 8757   4.077   2.455   6.442  0.0408  0.0107 -0.1067
 8758W        W 8758   9.392   5.477   0.880  0.0074 -0.0864 -0.3271
 8759W        W 8759   8.948   1.881   9.735  0.0061  0.0075  0.0918
 8760W        W 8760   1.480   1.544   0.661  0.2486  0.1641 -0.0733
 8761W        W 8761   1.851   1.621   9.173  0.0227  0.0529 -0.1243
 8762W        W 8762   9.233   0.592   0.533  0.1119 -0.0795  0.0372
 8763W        W 8763   4.531   4.921  10.042 -0.1762 -0.1396 -0.2694
 8764W        W 8764   9.388   3.637   7.454  0.1296 -0.1077  0.2662
 8765W        W 8765   0.084   7.080   4.159  0.0341  0.3240 -0.1449
 8766W        W 8766   8.330   6.558   4.209 -0.1485  0.3516  0.1376
 8767W        W 8767   7.069   9.347   1.102  0.0792 -0.0759  0.1546
 8768W        W 8768   4.695   2.100   4.952 -0.1045 -0.1148  0.0379
 8769W        W 8769   0.182   4.078   2.905 -0.3384  0.0869 -0.0467
 8770W        W 8770   7.009   6.245   9.886 -0.1040 -0.3781 -0.2795
 8771W        W 8771   3.714   4.218   5.069 -0.2524 -0.0055  0.0128
 8772W        W 8772   2.482   9.396   8.657 -0.2858 -0.2743  0.2331
 8773W        W 8773   6.960   2.869   9.414  0.0134 -0.1902  0.1585
 8774W        W 8774   5.357   8.671   2.223 -0.1263  0.3412  0.1344
 8775W        W 8775   0.399   1.002   0.571 -0.1238  0.0870  0.1664
 8776W        W 8776   4.154   4.391   0.658 -0.0256  0.2315 -0.1002
 8777W        W 8777   6.060   9.960   9.345 -0.0244 -0.2364  0.3259
 8778W        W 8778   0.154   3.694   7.908  0.1434  0.1206  0.2561
 8779W        W 8779   7.062   5.565   5.858 -0.0506  0.1509 -0.0702
 8780W        W 8780   1.847   2.474   9.163 -0.4637  0.0527 -0.1448
 8781W        W 8781   7.426   3.398   1.206  0.2132  0.0660 -0.0860
 8782W        W 8782   6.730   3.317   7.271 -0.0918  0.1111  0.1261
 8783W        W 8783   5.800   1.995   5.302  0.0115 -0.0256  0.0434
 8784W        W 8784   3.712   4.571   7.728 -0.2398 -0.1412  0.3035
 8785W        W 8785   0.528   8.820   9.425 -0.3291 -0.0269  0.0568
 8786W        W 8786   8.934   7.574   1.344 -0.3075 -0.0627 -0.1802
 8787W        W 8787   4.325   8.242   9.611 -0.1370  0.0510 -0.0588
 8788W        W 8788   1.334  10.127   0.281  0.3815  0.0556  0.3531
 8789W        W 8789   8.492   4.749   4.475 -0.0927  0.2719  0.4707
 8790W        W 8790   3.117   0.775   5.601 -0.0461 -0.1023 -0.1173
 8791W        W 8791   2.281   4.594   7.773  0.2177 -0.0353 -0.2987
 8792W        W 8792   6.897   1.658   8.222 -0.0449 -0.0559  0.1400
 8793W        W 8793   4.505   8.203   8.478  0.0715 -0.1571  0.0408
 8794W        W 8794   5.698   9.763   8.989 -0.0332  0.2272 -0.0351
 8795W        W 8795   0.009   9.525   9.858 -0.0354 -0.1723  0.0654
 8796W        W 8796   8.796   2.073   3.562 -0.0053  0.3074 -0.0920
 8797W        W 8797   8.769   8.304   9.845  0.0777  0.2383  0.3283
 8798W        W 8798   4.807   5.850   2.584 -0.0622  0.1894 -0.0009
 8799W        W 8799   9.599   1.650   1.161 -0.2426 -0.0488 -0.0365
 8800W        W 8800   9.659   6.129   8.619  0.0186  0.0531 -0.1622
 8801W        W 8801   4.094   3.808   2.548 -0.2676  0.1022  0.1749
 8802W        W 8802   7.056   0.692   0.305 -0.2827 -0.0599  0.1010
 8803W        W 8803   2.554  10.292   4.050  0.4170  0.0979  0.0137
 8804W        W 8804   6.662   5.711   0.827 -0.1299 -0.1139  0.0665
 8805W        W 8805   7.415   8.020   3.724 -0.4511 -0.0628 -0.0891
 8806W        W 8806   1.212   8.447   2.833  0.2933 -0.1725 -0.0950
 8807W        W 8807   7.017   1.545   9.628 -0.2247  0.0575  0.0162
 8808W        W 8808   9.245   2.347   0.699 -0.0282  0.0703 -0.0498
 8809W        W 8809   6.129   1.890   7.537 -0.1386 -0.0712  0.0914
 8810W        W 8810   2.986   7.189   0.346 -0.0797 -0.1662 -0.3776
 8811W        W 8811   4.998   5.450   5.411  0.3557  0.1223  0.0352
 8812W        W 8812   6.388   7.868   5.201  0.0564 -0.0452  0.3572
 8813W        W 8813   7.398   4.947   2.421  0.0670 -0.0937  0.1863
 8814W        W 8814   7.209   9.513   2.568  0.0793 -0.3129  0.3546
 8815W        W 8815   3.353   1.855   3.849 -0.0586 -0.2063 -0.3100
 8816W        W 8816   3.882   6.988   1.231 -0.0997  0.0555 -0.0057
 8817W        W 8817   6.993   5.179   7.977  0.0517  0.1334  0.1325
 8818W        W 8818   3.450   2.354   8.806  0.0034  0.0683 -0.0096
 8819W        W 8819   6.934   9.157   1.587  0.0392  0.0816 -0.0488
 8820W        W 8820   7.294   6.710   3.958 -0.1711 -0.2084 -0.0577
 8821W        W 8821  10.242   3.882   4.879 -0.2898 -0.0739  0.2911
 8822W        W 8822   9.290   0.844   7.269 -0.0248  0.0078  0.0415
 8823W        W 8823   5.658   4.851   4.574  0.1420 -0.0671  0.1227
 8824W        W 8824   2.183   7.948   1.607 -0.1713 -0.0164  0.0943
 8825W        W 8825   0.953   3.399   9.694 -0.0527  0.4098 -0.0975
 8826W        W 8826   7.516   5.144   1.773 -0.2302 -0.0178  0.0483
 8827W        W 8827   5.640   6.611   9.799 -0.1846  0.1371  0.2963
 8828W        W 8828   1.930   6.795   3.440 -0.1779 -0.0174  0.1115
 8829W        W 8829   6.532   1.567   1.629 -0.1404 -0.0599  0.0971
 8830W        W 8830   1.343   3.724   0.613  0.0926  0.0652 -0.1956
 8831W        W 8831   1.961   7.711   3.219 -0.1054  0.1566 -0.0985
 8832W        W 8832   1.579   5.766   9.656 -0.3185  0.0497 -0.1115
 8833W        W 8833   9.077   5.075  10.027  0.0393  0.0048  0.0160
 8834W        W 8834   8.541   0.747   4.316  0.1005 -0.0862  0.1754
 8835W        W 8835   9.425   3.687   2.322 -0.1137 -0.1408  0.0235
 8836W        W 8836   0.343   1.308   3.678 -0.0775 -0.0106  0.0477
 8837W        W 8837   7.675   8.107   8.733 -0.2323  0.1785  0.2090
 8838W        W 8838   2.411   7.283   9.022  0.1892  0.2074 -0.0282
 8839W        W 8839   7.937   5.161   3.372  0.1469  0.0709  0.1076
 8840W        W 8840   0.581   9.744   5.756  0.0601 -0.2067 -0.0653
 8841W        W 8841   0.434   8.445   6.352 -0.2216  0.0561  0.1443
 8842W        W 8842   3.757   4.776   6.447 -0.1795 -0.1105 -0.0589
 8843W        W 8843   4.738   7.926   8.054  0.1082 -0.0359 -0.2594
 8844W        W 8844   2.129   5.555   5.058  0.0679  0.4751 -0.0618
 8845W        W 8845   7.983   1.930   2.287 -0.0377  0.0783 -0.0136
 8846W        W 8846   3.809   8.387   5.922 -0.1958  0.0423 -0.1583
 8847W        W 8847   5.223   9.975   8.134 -0.0391 -0.0344 -0.0447
 8848W        W 8848   2.266   3.362   9.612 -0.2442 -0.0796 -0.1835
 8849W        W 8849   7.457   9.174   0.127 -0.1687 -0.0770 -0.2791
 8850W        W 8850   7.549   9.096   5.849  0.2948  0.1529 -0.0830
 8851W        W 8851   6.015   2.787   3.233 -0.0018  0.1236 -0.0863
 8852W        W 8852   9.475   4.264   2.314  0.0799 -0.0556 -0.0675
 8853W        W 8853   7.427   5.679   3.465  0.1087 -0.2572 -0.1088
 8854W        W 8854   2.591   2.490   4.507  0.1593  0.2703  0.1547
 8855W        W 8855   9.750   8.178   5.434  0.0544 -0.0915  0.2599
 8856W        W 8856   5.373   2.972   3.973 -0.0290 -0.0866  0.0114
 8857W        W 8857   5.723   3.081   2.012  0.0914  0.2429  0.1106
 8858W        W 8858   5.144   4.510   2.317  0.0829 -0.0960 -0.0945
 8859W        W 8859   0.155   1.787   5.149  0.0947  0.0538 -0.0392
 8860W        W 8860   0.545   8.137   4.723  0.0479  0.0444 -0.2121
 8861W        W 8861   9.462   8.535   3.935 -0.2897 -0.0121  0.3379
 8862W        W 8862   0.816   6.207   8.650  0.2414 -0.0261  0.1090
 8863W        W 8863   4.880   9.075   1.383  0.0856  0.0345 -0.1076
 8864W        W 8864   7.083   7.393   8.356  0.2807 -0.0912  0.0717
 8865W        W 8865   6.109   5.260   2.662  0.0077 -0.1571 -0.1918
 8866W        W 8866   5.230   5.056   3.027  0.2324 -0.2167 -0.0481
 8867W        W 8867   5.018   4.823   0.034 -0.2455  0.1851  0.1629
 8868W        W 8868   2.528   5.392   3.355 -0.2799  0.2883 -0.0555
 8869W        W 8869   7.643   7.107   4.875 -0.1031  0.2325  0.1199
 8870W        W 8870   0.718   2.600   9.004  0.1893 -0.2039 -0.4226
 8871W        W 8871   8.434   5.921   5.970 -0.0452 -0.2201  0.0094
 8872W        W 8872   9.510   1.421   7.798  0.0314  0.0533  0.0448
 8873W        W 8873   2.367   9.768   4.145 -0.0367  0.1824 -0.0367
 8874W        W 8874   9.336   7.289   0.937 -0.5040 -0.0466 -0.0778
 8875W        W 8875   3.494   7.758   3.329 -0.2126 -0.0838  0.0689
 8876W        W 8876   9.571   9.562   4.816 -0.2170 -0.3250 -0.2158
 8877W        W 8877   7.753   9.336   3.554 -0.2904 -0.0132 -0.0840
 8878W        W 8878   3.743   3.981   5.512 -0.1762  0.1913  0.0415
 8879W        W 8879   3.356   5.482   0.714 -0.2799 -0.1345 -0.0121
 8880W        W 8880   5.174   2.157   7.478  0.3096  0.1131 -0.1911
 8881W        W 8881   9.665   1.873   7.653 -0.3100  0.0494  0.2569
 8882W        W 8882   6.312   0.309  10.203  0.0180 -0.1371  0.5845
 8883W        W 8883   8.287   2.698   6.684 -0.1104 -0.0869  0.0216
 8884W        W 8884   2.321   8.449   4.819  0.0305 -0.3049  0.1681
 8885W        W 8885   3.221   4.446   8.715  0.1600 -0.5617 -0.0887
 8886W        W 8886   5.367   4.842   9.516 -0.0587  0.0047 -0.1633
 8887W        W 8887   3.097   6.759   0.126  0.2458 -0.2808  0.1780
 8888W        W 8888   3.864   5.690  10.173  0.0052 -0.2104 -0.2556
 8889W        W 8889   9.798   0.957   3.526 -0.2048 -0.1283 -0.0073
 8890W        W 8890   8.293   1.976   7.299 -0.0482  0.2188  0.2157
 8891W        W 8891   5.475   1.340   1.624 -0.1857 -0.3018 -0.0506
 8892W        W 8892   5.873   7.980   4.585  0.1907 -0.1597  0.1495
 8893W        W 8893   8.939   8.578   8.980 -0.0945 -0.2134  0.1249
 8894W        W 8894   3.547   4.444   3.997 -0.0190  0.0015  0.0767
 8895W        W 8895   9.994   9.987   5.584  0.1108  0.3803  0.1609
 8896W        W 8896   4.195   0.497   6.493 -0.0079  0.4366  0.0146
 8897W        W 8897   0.788   5.780  10.055 -0.3103  0.1768  0.4551
 8898W        W 8898   2.011   2.871   3.773  0.1241 -0.0493 -0.2155
 8899W        W 8899   2.692   3.084   8.695  0.0393  0.0925  0.1133
 8900W        W 8900  10.305   3.349   6.052  0.1263  0.0492  0.0139
 8901W        W 8901   1.248   2.678   5.459 -0.1338  0.1527 -0.1100
 8902W        W 8902   2.083   5.597   9.587  0.2291 -0.0107  0.0246
 8903W        W 8903   1.476   6.567   1.039  0.1517 -0.1009  0.2595
 8904W        W 8904   6.953  10.280   0.921  0.1308 -0.0669 -0.0085
 8905W        W 8905   6.625   7.162   4.209  0.0422  0.2932 -0.0671
 8906W        W 8906   9.968   7.102   7.751 -0.0265  0.0126  0.2924
 8907W        W 8907   0.076   2.570   8.959 -0.0195  0.0450 -0.1681
 8908W        W 8908   3.235   0.849   3.605 -0.2295  0.1576 -0.1897
 8909W        W 8909   0.686   8.269   5.960 -0.2137  0.2345  0.2614
 8910W        W 8910   4.931   3.599   2.389 -0.0169 -0.1461  0.2520
 8911W        W 8911   4.256  10.162   2.540  0.0547 -0.0045  0.1675
 8912W        W 8912   2.934   6.404   3.170 -0.1168 -0.0211  0.2755
 8913W        W 8913   4.117   8.009   0.063 -0.1425  0.0879 -0.1107
 8914W        W 8914   5.869   8.947   8.654 -0.1059  0.1708  0.1433
 8915W        W 8915   2.800   1.496   1.241 -0.1881  0.1525 -0.0625
 8916W        W 8916   6.232   3.231   2.099  0.0435  0.0955 -0.1457
 8917W        W 8917   7.530   2.546   7.042  0.3441 -0.1381 -0.0373
 8918W        W 8918   0.241   3.099   9.807  0.1608 -0.0195 -0.1434
 8919W        W 8919   8.609   9.512   4.846 -0.2625 -0.3607  0.0137
 8920W        W 8920  10.193   1.436  10.163 -0.0629 -0.1679 -0.1373
 8921W        W 8921   3.224   6.494   6.607  0.2122 -0.0202  0.1111
 8922W        W 8922   8.634   5.908   5.320 -0.1428  0.1681  0.4690
 8923W        W 8923   9.847   2.143   4.347  0.1716 -0.0230  0.2183
 8924W        W 8924  10.015   8.354   2.124  0.0231  0.3569 -0.0515
 8925W        W 8925   7.527   5.304   8.523 -0.1336  0.2885  0.1752
 8926W        W 8926   2.848   0.414   7.715  0.1670  0.0320  0.0272
 8927W        W 8927   8.068   8.645   1.237  0.0737 -0.0440 -0.2451
 8928W        W 8928   1.326   3.543   9.436 -0.5461  0.0453 -0.1596
 8929W        W 8929   5.381   4.400   6.921  0.4047 -0.0559  0.0980
 8930W        W 8930   6.792   5.014   2.396 -0.0769  0.0771 -0.0126
 8931W        W 8931   3.181   4.623   3.446  0.2999 -0.0470 -0.4192
 8932W        W 8932   2.612   8.542   7.596 -0.2018 -0.0750 -0.1777
 8933W        W 8933   3.734   6.227   9.976  0.0271  0.0018  0.0671
 8934W        W 8934   4.635   2.435   9.286 -0.5426  0.0325  0.1360
 8935W        W 8935   7.803   9.437   1.139 -0.0622 -0.1340  0.1687
 8936W        W 8936   7.699   2.153   3.790  0.2623  0.0972 -0.1570
 8937W        W 8937   9.910   0.240   7.700  0.0158  0.0052 -0.3313
 8938W        W 8938   0.635   6.453   8.264  0.0532 -0.2340  0.1519
 8939W        W 8939   4.704   1.488   2.276 -0.0671 -0.1302 -0.1058
 8940W        W 8940   2.673   8.128   2.843 -0.3306  0.2555  0.0938
 8941W        W 8941   2.989   1.373   8.081 -0.2773  0.1752  0.3864
 8942W        W 8942   8.387   1.514   4.790 -0.2077 -0.1444  0.1360
 8943W        W 8943   9.523   2.852   2.898  0.1483 -0.0482  0.0474
 8944W        W 8944   6.766   2.772   9.857  0.1859  0.0682  0.1652
 8945W        W 8945   9.849   4.552  10.109 -0.0122  0.0835  0.1194
 8946W        W 8946   1.533  10.094   5.414  0.2825  0.2080 -0.0836
 8947W        W 8947   5.101   2.524   6.081 -0.2358 -0.2885 -0.2372
 8948W        W 8948   5.438   0.832   3.951 -0.0249 -0.1193  0.0043
 8949W        W 8949   2.090   4.274   5.347  0.2557 -0.1911  0.0184
 8950W        W 8950   8.715   3.144   7.500  0.1336  0.1422  0.2985
 8951W        W 8951   9.674   1.117   5.727  0.4366 -0.0226 -0.3375
 8952W        W 8952   3.151   2.298   7.427 -0.2248  0.2263  0.1300
 8953W        W 8953   8.009   8.465   8.874  0.1849 -0.0768 -0.0293
 8954W        W 8954   3.944   2.335   0.303  0.1233  0.1612  0.0880
 8955W        W 8955   9.532   1.119   9.472 -0.0687 -0.2803 -0.1946
 8956W        W 8956   2.101   6.538   9.536  0.2574  0.1338  0.0834
 8957W        W 8957   9.272   3.013   0.998  0.0965 -0.0423 -0.1166
 8958W        W 8958   6.723   1.096   5.468 -0.0614  0.0782 -0.0749
 8959W        W 8959   8.839   4.268   4.040 -0.2444  0.0884 -0.0125
 8960W        W 8960   3.606   3.901   7.163 -0.0823 -0.0101  0.0490
 8961W        W 8961   8.963  10.180   3.892 -0.1875 -0.0813 -0.0889
 8962W        W 8962   1.094   8.720   9.420  0.1069  0.0919  0.1401
 8963W        W 8963   8.263  10.310   0.568  0.0290  0.0983 -0.0398
 8964W        W 8964   7.477   6.798   7.800 -0.0944 -0.1613 -0.0107
 8965W        W 8965   6.464   7.839   6.586  0.1247 -0.0520 -0.0361
 8966W        W 8966   4.268   2.010   1.575 -0.0661 -0.1130 -0.0243
 8967W        W 8967   1.827   0.930   7.958  0.3364  0.1174 -0.0363
 8968W        W 8968   4.153   6.504   9.749 -0.0490 -0.1755 -0.0572
 8969W        W 8969   7.598   0.910   0.972  0.3757 -0.0764 -0.0352
 8970W        W 8970   1.204   7.724   4.921  0.1761 -0.0922 -0.0333
 8971W        W 8971   4.388   9.204  10.048 -0.1192 -0.0375 -0.0577
 8972W        W 8972   3.298  10.224   4.470  0.2046  0.1055  0.2493
 8973W        W 8973   9.945   7.259   0.041  0.0442 -0.0604  0.0746
 8974W        W 8974   5.203   2.420   9.846 -0.2287 -0.0368 -0.0654
 8975W        W 8975   9.090   4.368   6.431  0.0497  0.1188 -0.3228
 8976W        W 8976   2.335   0.395   8.849 -0.3748  0.1185 -0.1688
 8977W        W 8977   5.299   8.188   2.949  0.1876  0.2817  0.0802
 8978W        W 8978   4.325   0.967   0.104 -0.0581  0.1360  0.1598
 8979W        W 8979   0.044   1.786   3.740  0.2019 -0.1746 -0.0017
 8980W        W 8980   0.612   3.139   0.747 -0.1798 -0.0454 -0.3271
 8981W        W 8981   3.174   8.509   0.811  0.1910  0.1831 -0.1756
 8982W        W 8982   8.953   4.157   8.296  0.0252 -0.0258 -0.1279
 8983W        W 8983   9.320   4.077   6.043 -0.0609 -0.1958 -0.1533
 8984W        W 8984   4.682   2.462   7.338  0.2131 -0.0901  0.0581
 8985W        W 8985   4.073   4.941   8.420 -0.0619  0.0854 -0.1488
 8986W        W 8986   7.454   5.300   1.054  0.1287 -0.1885 -0.1318
 8987W        W 8987   2.738   2.942   9.190  0.0132 -0.0750  0.0215
 8988W        W 8988   9.193   8.724   4.925  0.2845  0.1111 -0.1638
 8989W        W 8989   4.075   7.671   4.304 -0.4987 -0.0790 -0.1048
 8990W        W 8990   0.135   5.663   7.744  0.0698  0.0310 -0.2799
 8991W        W 8991   1.469   1.144   2.500 -0.0297 -0.0332  0.1068
 8992W        W 8992   2.326   0.128   6.044 -0.0861  0.2692 -0.0896
 8993W        W 8993   8.536   6.258   7.144 -0.2182 -0.0134 -0.0294
 8994W        W 8994   8.307   7.659   5.675 -0.0980  0.1593  0.0881
 8995W        W 8995   3.329   0.534   8.660 -0.1913  0.1502  0.0081
 8996W        W 8996   7.596   4.327   1.341 -0.1238  0.0304  0.2111
 8997W        W 8997   9.314   4.924   9.035 -0.0220 -0.0224  0.2409
 8998W        W 8998   2.324   3.223   9.033 -0.3163 -0.0540 -0.1117
 8999W        W 8999   6.638   8.544   4.241  0.1351  0.1339  0.2111
 9000W        W 9000   1.160   5.896   1.357 -0.0398 -0.0951 -0.1361
 9001W        W 9001   6.821   9.936   0.181 -0.3137  0.0577  0.0352
 9002W        W 9002   5.768   1.723   4.514 -0.0352  0.2622 -0.0199
 9003W        W 9003   1.288   4.145   9.617 -0.1205  0.3338  0.0275
 9004W        W 9004   4.451   5.965   3.690  0.1442  0.1387  0.1504
 9005W        W 9005   5.714   4.551   0.936  0.1118 -0.1942  0.0196
 9006W        W 9006   2.824   6.385  10.159  0.1152 -0.0761 -0.4549
 9007W        W 9007   7.988   8.760   8.469 -0.2251  0.0175  0.0167
 9008W        W 9008   4.105   2.976   3.558 -0.1367  0.1056  0.3961
 9009W        W 9009   0.596   8.835   2.172  0.0620 -0.1101 -0.3380
 9010W        W 9010   9.699   5.493   4.472  0.0764  0.1227  0.2875
 9011W        W 9011   1.632   2.264   4.067 -0.0091  0.1531 -0.1160
 9012W        W 9012   1.244   1.269   3.655 -0.2336  0.2568 -0.0297
 9013W        W 9013   5.972   7.139   6.632  0.0616 -0.2003 -0.0361
 9014W        W 9014   1.729   5.182   7.698  0.0777  0.1516 -0.0682
 9015W        W 9015   2.649   2.413   7.340 -0.0570 -0.3511 -0.0543
 9016W        W 9016   8.851   0.346   9.949  0.1845  0.0178  0.0032
 9017W        W 9017   7.799   7.624   4.911 -0.2282 -0.2169 -0.0447
 9018W        W 9018   8.960  10.249   7.910  0.2576 -0.0123 -0.2754
 9019W        W 9019   9.705   4.450   4.657  0.0835  0.2467  0.0843
 9020W        W 9020   2.645   1.201   0.355 -0.0367  0.0688  0.5458
 9021W        W 9021   2.777   6.614   8.353  0.0924 -0.1599  0.0802
 9022W        W 9022   6.570   6.508   3.156  0.2800 -0.2112 -0.0715
 9023W        W 9023   7.739   1.441   2.459 -0.0613  0.0177 -0.0202
 9024W        W 9024   4.865   5.009   5.646 -0.1478 -0.1159 -0.0122
 9025W        W 9025  10.281  10.295   9.096 -0.1467  0.0164 -0.2609
 9026W        W 9026   2.006   2.986   7.086 -0.0756 -0.2327  0.1364
 9027W        W 9027   0.409  10.206   9.237  0.3583  0.0086 -0.2231
 9028W        W 9028   5.563   6.109   9.810 -0.0311  0.0059 -0.1396
 9029W        W 9029   4.236   0.051   0.495 -0.0961 -0.1240 -0.2228
 9030W        W 9030   8.642   6.868   0.617 -0.1426 -0.1519 -0.0217
 9031W        W 9031   2.701   2.422   5.841 -0.1196  0.0263 -0.2510
 9032W        W 9032   6.055   2.774   7.711  0.2891  0.1445 -0.1159
 9033W        W 9033   4.022   8.479   7.689 -0.0649  0.2224  0.4352
 9034W        W 9034   0.424   1.840   0.295  0.1190  0.1458  0.3593
 9035W        W 9035   3.393   9.560   5.918  0.0927  0.0358  0.1451
 9036W        W 9036   1.905   1.833   8.358  0.0578 -0.2494 -0.0423
 9037W        W 9037   7.083   1.325   4.662  0.4977 -0.0659 -0.0163
 9038W        W 9038   3.810   8.849   6.176  0.0805  0.4022  0.0395
 9039W        W 9039   1.953   5.862   4.647 -0.0957 -0.1627 -0.0860
 9040W        W 9040   7.770   2.727   6.650 -0.2420 -0.2936  0.0193
 9041W        W 9041   3.456   6.939   5.765 -0.0743 -0.1839  0.3351
 9042W        W 9042   4.732   7.411   6.493 -0.2043  0.0012 -0.0331
 9043W        W 9043   2.504   3.107   4.715 -0.0381 -0.0861 -0.2238
 9044W        W 9044   2.842   4.741   8.807  0.2236 -0.1759 -0.1107
 9045W        W 9045   5.839   6.201   0.629  0.0682 -0.4124  0.0527
 9046W        W 9046   0.794   5.136   1.249 -0.0978  0.0095 -0.2311
 9047W        W 9047   0.045   3.520   9.634 -0.1761 -0.2986 -0.0756
 9048W        W 9048   6.056   4.446   0.016  0.1186 -0.3087 -0.1196
 9049W        W 9049   4.679   1.792   1.766 -0.0784  0.1798 -0.0409
 9050W        W 9050   1.133   3.504   4.453  0.2496  0.0709  0.3785
 9051W        W 9051   5.429   3.074  10.263  0.1011 -0.0873  0.4084
 9052W        W 9052   6.287   5.517   6.682 -0.0069 -0.2322  0.2736
 9053W        W 9053   9.079   0.471   7.536  0.0735 -0.0732  0.1108
 9054W        W 9054   7.889  10.222   2.298 -0.2758  0.1380  0.2429
 9055W        W 9055   8.798   0.454   6.672  0.0589 -0.1026 -0.1515
 9056W        W 9056   1.122   8.204   6.294  0.1091 -0.1579 -0.1441
 9057W        W 9057   4.241   7.298   3.844  0.1825 -0.1037 -0.0876
 9058W        W 9058   7.600   8.318   1.514 -0.1615  0.2044 -0.1244
 9059W        W 9059   8.107   9.080   5.040  0.1039  0.1139  0.3093
 9060W        W 9060   3.583   7.246   3.261  0.0053 -0.3429  0.2423
 9061W        W 9061   2.062   4.597   4.861  0.0146  0.0956 -0.0596
 9062W        W 9062   1.448   5.317  10.324  0.0325 -0.0627 -0.3136
 9063W        W 9063   6.356   1.420   4.291 -0.0812 -0.0134 -0.2567
 9064W        W 9064   0.463   4.521   3.731 -0.1290 -0.1023 -0.3681
 9065W        W 9065  10.069   0.212   3.309 -0.3634 -0.0136 -0.1911
 9066W        W 9066   4.849   6.095   4.019  0.1987 -0.0140 -0.2334
 9067W        W 9067   4.532   9.282   7.689 -0.5401  0.1464  0.1985
 9068W        W 9068   9.843   2.728   0.223 -0.0221  0.0644 -0.1221
 9069W        W 9069   3.349   6.000   7.992  0.1916 -0.2732  0.0394
 9070W        W 9070   9.635   4.089   7.658 -0.0189  0.2023  0.0886
 9071W        W 9071   1.374   3.401   8.276 -0.3727  0.0527 -0.3694
 9072W        W 9072   4.164   6.331   7.758 -0.3286  0.0566  0.1954
 9073W        W 9073   0.575   9.564   7.441  0.3735  0.0370 -0.1073
 9074W        W 9074   7.955   8.027   6.882 -0.0798  0.3735 -0.1109
 9075W        W 9075   1.701   4.644   7.745  0.1830  0.0196 -0.1898
 9076W        W 9076   3.575   8.238   7.388 -0.0973  0.0741 -0.0202
 9077W        W 9077   2.791   6.184   6.743 -0.1610  0.2269  0.1901
 9078W        W 9078   4.309   0.515  10.060 -0.1600 -0.2290  0.1363
 9079W        W 9079   4.912   5.221   7.215  0.0980  0.0324 -0.0051
 9080W        W 9080   6.603   9.854   3.649  0.0592 -0.1586 -0.5125
 9081W        W 9081   4.762   0.491   9.739  0.1869 -0.0873 -0.1145
 9082W        W 9082   3.223   6.423   8.769  0.0726  0.0948 -0.2244
 9083W        W 9083   9.190   7.959   5.434 -0.1902 -0.2368  0.1061
 9084W        W 9084   8.305   8.068   9.482  0.0906 -0.0246 -0.1798
 9085W        W 9085   5.675   8.162   5.580 -0.0348  0.0342  0.3885
 9086W        W 9086   0.201   7.267   5.182  0.1233  0.1572  0.0252
 9087W        W 9087   5.356   5.153   0.216 -0.0054  0.0742 -0.1365
 9088W        W 9088   4.612   4.118   0.333  0.4492 -0.2819 -0.2183
 9089W        W 9089   2.769   4.274   5.137 -0.3714  0.0006 -0.2309
 9090W        W 9090   8.082   2.441   8.824 -0.0530 -0.1377 -0.1254
 9091W        W 9091   3.020   0.374   1.937 -0.3584  0.0608  0.1687
 9092W        W 9092   4.380   5.299   4.399 -0.2247  0.0323  0.0014
 9093W        W 9093   1.438   4.541   9.903  0.1649 -0.0376 -0.1003
 9094W        W 9094   6.813   3.722   7.611  0.0284 -0.2375  0.0927
 9095W        W 9095   1.807   2.408   0.220 -0.1620 -0.3033 -0.0354
 9096W        W 9096   1.026   7.343   6.283 -0.2267 -0.1602 -0.1215
 9097W        W 9097   8.148   4.573   8.719 -0.0630 -0.0455 -0.3249
 9098W        W 9098   4.621   3.293   3.551  0.0914 -0.0619 -0.1921
 9099W        W 9099   7.198   7.547   1.064  0.3360 -0.2208  0.2906
 9100W        W 9100   3.144   1.178   1.673  0.4449 -0.2589 -0.0524
 9101W        W 9101   7.881   7.116   2.505 -0.2173  0.0509 -0.1679
 9102W        W 9102  10.054   3.932   8.113  0.3279 -0.1360  0.0509
 9103W        W 9103   7.234   8.121   1.200 -0.0445  0.1644 -0.1627
 9104W        W 9104   0.453   8.684  10.135  0.0263 -0.0041 -0.1949
 9105W        W 9105   4.122   7.222   8.078  0.2372  0.3684  0.1505
 9106W        W 9106   1.035   2.235   1.665 -0.1175 -0.1199 -0.2061
 9107W        W 9107   0.721  10.241   3.347 -0.0865  0.2170  0.0259
 9108W        W 9108   0.091   6.728   5.478  0.1294  0.2885  0.0616
 9109W        W 9109   0.656   3.415   6.611  0.0270  0.0505  0.0260
 9110W        W 9110   5.220  10.231   0.269 -0.2501  0.2280  0.2125
 9111W        W 9111   9.978   1.849   1.532  0.2354  0.2450 -0.0517
 9112W        W 9112   8.611   3.064   6.634  0.0452 -0.2152  0.2198
 9113W        W 9113   7.392   4.642   1.735 -0.1526  0.1214  0.2300
 9114W        W 9114   7.914   4.259   0.989  0.0942  0.0584 -0.5626
 9115W        W 9115   4.861   8.733   7.138 -0.0182 -0.3915 -0.2310
 9116W        W 9116   7.883   1.081  10.183 -0.0681 -0.0580 -0.2124
 9117W        W 9117   5.973   9.138   0.056 -0.2001  0.1301 -0.3174
 9118W        W 9118   7.159   8.141   5.952 -0.1571  0.0563 -0.0864
 9119W        W 9119   1.473   2.029   2.574 -0.0004 -0.0336 -0.2189
 9120W        W 9120   9.622   0.865   6.415  0.2681  0.0468  0.0568
 9121W        W 9121   8.553   5.300   9.104  0.2608  0.1841  0.0895
 9122W        W 9122   9.428   9.181   7.811 -0.0329  0.3719 -0.3142
 9123W        W 9123   8.494   3.371   3.871 -0.2018 -0.0696 -0.0825
 9124W        W 9124   3.053   2.036   8.655  0.2891 -0.1930  0.1754
 9125W        W 9125   2.069   5.992   4.135 -0.1534  0.3647  0.1319
 9126W        W 9126   5.295   0.379   0.126 -0.1761  0.0229 -0.1039
 9127W        W 9127   8.898   4.225   5.742 -0.1794  0.2008 -0.0173
 9128W        W 9128   6.848   7.654   7.097  0.2400  0.4954 -0.0789
 9129W        W 9129   8.096   7.961   0.714  0.0753  0.2675  0.1063
 9130W        W 9130   6.500   1.851   5.066 -0.0806  0.0852 -0.1656
 9131W        W 9131   8.260   8.208   7.217  0.1711 -0.0857  0.4553
 9132W        W 9132   8.955  10.206   5.232 -0.0443  0.5007 -0.1448
 9133W        W 9133   5.635   1.992   7.803  0.1063 -0.1228 -0.0092
 9134W        W 9134   5.167   8.026   0.904  0.1953  0.2857 -0.0013
 9135W        W 9135   5.929   2.044   2.153 -0.1576 -0.3463  0.1159
 9136W        W 9136   0.608   9.592   2.549  0.1943 -0.0448 -0.0974
 9137W        W 9137   4.373   5.712   2.801  0.0943 -0.0768  0.1032
 9138W        W 9138   1.350   8.106   2.436  0.1535 -0.3186  0.2938
 9139W        W 9139   1.385   0.896   6.644 -0.1161  0.2270 -0.1807
 9140W        W 9140   5.961  10.300  10.179 -0.0841 -0.0677  0.2213
 9141W        W 9141   3.362   3.327   3.522 -0.0407 -0.0974  0.0776
 9142W        W 9142   0.857   3.285   2.809  0.1260  0.0022 -0.3028
 9143W        W 9143   0.503   8.180   7.662 -0.3136 -0.2508 -0.2942
 9144W        W 9144   3.931   7.162   7.578  0.2409 -0.0519  0.3356
 9145W        W 9145   4.628   6.356   9.865  0.0582 -0.2374  0.2071
 9146W        W 9146   1.295   1.847   5.147  0.0866  0.0682  0.0902
 9147W        W 9147   2.317   4.609   6.144  0.2516 -0.0965  0.1570
 9148W        W 9148   1.563   4.833   1.955 -0.2091  0.1774 -0.0659
 9149W        W 9149   8.679   0.904   8.858 -0.3329  0.0756 -0.1133
 9150W        W 9150   6.204   1.896   4.703 -0.2223 -0.1181 -0.1772
 9151W        W 9151   9.428   0.299   2.036  0.2845  0.1651 -0.1333
 9152W        W 9152   7.103   5.757  10.161  0.0511 -0.2563 -0.3363
 9153W        W 9153   2.645   5.299   0.587 -0.1599  0.2934  0.2431
 9154W        W 9154   6.502   8.542   9.862  0.0593  0.1643 -0.0819
 9155W        W 9155   2.579   8.533   0.784 -0.1111 -0.0189  0.2011
 9156W        W 9156   4.977   4.141   8.832  0.2694 -0.1664  0.0028
 9157W        W 9157   3.152   4.239   3.741 -0.0692 -0.1232  0.1160
 9158W        W 9158   8.723   1.679   9.318 -0.0217  0.0154  0.1000
 9159W        W 9159   4.962   5.932   5.606 -0.1042  0.0878  0.2158
 9160W        W 9160   9.700   5.174   8.713  0.1669 -0.0226  0.0527
 9161W        W 9161   3.674   3.053   3.734 -0.0120  0.3551  0.1224
 9162W        W 9162   4.042   7.981   7.225  0.1237 -0.0583  0.1326
 9163W        W 9163   0.093   5.307   2.404  0.1817 -0.1041  0.2625
 9164W        W 9164   6.583   4.842   8.552 -0.5141  0.1106 -0.0878
 9165W        W 9165   2.177   1.402   0.597 -0.1171  0.0612  0.0640
 9166W        W 9166   1.830   3.949   1.445 -0.1208 -0.1569 -0.0894
 9167W        W 9167   5.712   2.938   7.996 -0.0764 -0.0287 -0.1681
 9168W        W 9168   1.552   4.200   5.582  0.0007  0.1655 -0.2270
 9169W        W 9169   0.330   7.876   5.916  0.0206 -0.0399  0.0554
 9170W        W 9170   8.398   1.280   8.553  0.0101 -0.5381 -0.1618
 9171W        W 9171   4.151   8.506   3.619  0.3147 -0.0176 -0.0178
 9172W        W 9172  10.314   1.586   7.166 -0.1206  0.2782  0.0858
 9173W        W 9173   1.421   4.229   7.721  0.0249  0.0159  0.1321
 9174W        W 9174   5.161   7.660   1.504  0.2833 -0.2886 -0.1858
 9175W        W 9175   7.707   6.980   2.996 -0.4913  0.2104  0.2190
 9176W        W 9176   1.649   9.777   9.161  0.0589 -0.1902 -0.4286
 9177W        W 9177   8.905   0.862   3.816 -0.3425  0.1988 -0.1187
 9178W        W 9178  10.073   5.742   5.592  0.0086  0.0561 -0.5506
 9179W        W 9179   7.726   0.918   2.157 -0.4335 -0.1787 -0.1536
 9180W        W 9180   9.935   3.273   8.307  0.1120  0.1352  0.1476
 9181W        W 9181   6.860   7.743   9.388 -0.2855 -0.1969  0.0467
 9182W        W 9182   1.167   4.850   8.822  0.2434  0.1229 -0.2787
 9183W        W 9183   8.187   1.458   1.540  0.2652 -0.0933  0.2654
 9184W        W 9184   1.149   0.784   2.251  0.0720  0.0325  0.1412
 9185W        W 9185   4.159   1.078   1.948 -0.0616 -0.2608  0.0330
 9186W        W 9186   2.286   1.286  10.002  0.0817 -0.1114  0.0428
 9187W        W 9187   2.046   7.826   7.572  0.1016 -0.0500  0.2660
 9188W        W 9188   2.433   1.136   6.343  0.0628 -0.0148  0.0860
 9189W        W 9189   2.572   9.214   4.899 -0.0978  0.0514  0.1425
 9190W        W 9190   0.593   3.940   5.741  0.2949 -0.2442  0.1118
 9191W        W 9191   3.565   4.059   8.570  0.0722 -0.1434 -0.0815
 9192W        W 9192   3.585   4.918   8.231  0.0143 -0.0708 -0.0962
 9193W        W 9193   6.682   4.350   3.870  0.1098 -0.1409 -0.2573
 9194W        W 9194   6.914   1.228   2.128  0.3374  0.4460  0.2192
 9195W        W 9195   6.391   7.784   5.810 -0.1401 -0.1192 -0.1884
 9196W        W 9196   7.370   3.991   6.119  0.1228 -0.0520 -0.1584
 9197W        W 9197   8.936   5.455   1.823 -0.0261  0.0390  0.1598
 9198W        W 9198   4.756   7.621   2.772 -0.1589  0.0857 -0.3021
 9199W        W 9199   8.854   2.943   0.012 -0.0622 -0.1278 -0.0932
 9200W        W 9200   6.452   2.806   0.379 -0.0609 -0.0802 -0.1453
 9201W        W 9201   0.008   2.625   1.499  0.0511  0.1017 -0.2238
 9202W        W 9202   9.231   8.955   3.646 -0.1857  0.0059  0.1138
 9203W        W 9203   7.398   1.131   0.395  0.1378  0.2319  0.3802
 9204W        W 9204   2.900  10.161   0.836 -0.0685  0.0066  0.1194
 9205W        W 9205   4.385   6.988   2.237  0.0474 -0.0981 -0.4941
 9206W        W 9206   8.435   0.315   3.226  0.0691 -0.0018  0.0106
 9207W        W 9207   6.963   4.404   4.665  0.1331  0.0817  0.1365
 9208W        W 9208   3.219   9.826   1.974  0.2755  0.2378  0.2482
 9209W        W 9209   7.810   9.598   7.071  0.1215 -0.3740 -0.1220
 9210W        W 9210   9.694   8.080   4.090 -0.0564 -0.0225 -0.2542
 9211W        W 9211   1.574   0.568   0.334  0.2315  0.0534 -0.0040
 9212W        W 9212   3.408   8.644   7.085  0.2627  0.0142  0.0535
 9213W        W 9213   4.526   1.970   5.790 -0.2682  0.0525 -0.0275
 9214W        W 9214   3.899   3.406   2.930  0.0080  0.0821  0.1425
 9215W        W 9215   5.814   4.292   2.503 -0.1016 -0.1295  0.0018
 9216W        W 9216   6.865   9.618   5.407 -0.1282 -0.0141 -0.0215
 9217W        W 9217  10.021   9.678   6.359 -0.0040 -0.2300 -0.2400
 9218W        W 9218   0.754   7.372   2.555  0.2095  0.0260 -0.1685
 9219W        W 9219   8.713   4.799   1.798  0.1852  0.0985 -0.0990
 9220W        W 9220   6.736   2.234   8.078  0.0551 -0.1704  0.0876
 9221W        W 9221   0.331   5.663  10.026 -0.0989 -0.0304 -0.3690
 9222W        W 9222   3.984   3.269   2.428  0.1855 -0.1035  0.0491
 9223W        W 9223   5.390   4.638   2.834 -0.1220 -0.2330 -0.1493
 9224W        W 9224   6.907   1.770   5.767  0.2076 -0.1099  0.0929
 9225W        W 9225   1.351   3.137   5.430 -0.1107  0.1479  0.0897
 9226W        W 9226   7.090   1.700   2.203  0.4446  0.0522 -0.2217
 9227W        W 9227   0.735   5.565   9.075 -0.1942 -0.0985  0.3789
 9228W        W 9228   0.101   1.414   0.317  0.0327  0.1360  0.3254
 9229W        W 9229   9.437   2.326   2.732 -0.3139  0.0566  0.1556
 9230W        W 9230   6.530   3.211   8.690  0.2641 -0.2425  0.0916
 9231W        W 9231   6.890   6.980   8.104  0.1484  0.2079  0.2385
 9232W        W 9232   8.358   7.214   0.886  0.1560  0.4163  0.0371
 9233W        W 9233   3.135   7.964   4.530 -0.0624  0.0076 -0.1290
 9234W        W 9234   2.651   2.742   2.912 -0.1793  0.2990  0.1268
 9235W        W 9235   0.611  10.184   4.548 -0.0027  0.0370 -0.1475
 9236W        W 9236   0.401   3.039   8.981  0.0499 -0.0474 -0.3155
 9237W        W 9237   9.319   8.630   2.612  0.2442 -0.2854  0.0487
 9238W        W 9238   6.298   0.611   3.256 -0.0232 -0.1604  0.4499
 9239W        W 9239   3.203  10.282   8.466 -0.1553  0.0617 -0.3315
 9240W        W 9240   6.631   8.465   8.539  0.2999 -0.2712 -0.1746
 9241W        W 9241   0.296   0.478   5.808 -0.0369  0.0222 -0.3512
 9242W        W 9242   0.225   0.963   7.746 -0.2681 -0.1137  0.2678
 9243W        W 9243   5.748   6.995   4.070 -0.2102  0.1976  0.0292
 9244W        W 9244  10.099   4.753   7.365 -0.0485 -0.0575  0.0378
 9245W        W 9245   7.694   0.491   5.304  0.1380  0.0691  0.3496
 9246W        W 9246   7.669   2.061   7.171  0.1468 -0.0547  0.0245
 9247W        W 9247   2.402   9.724   9.445  0.1018 -0.3059 -0.0873
 9248W        W 9248   2.821   8.690   0.218 -0.3107 -0.1212  0.2294
 9249W        W 9249   0.796   7.251   0.313 -0.1048 -0.5489  0.2813
 9250W        W 9250   5.968   5.478   8.758  0.4067 -0.1262  0.0235
 9251W        W 9251   7.006   4.604   5.439  0.0968 -0.1566 -0.0738
 9252W        W 9252   6.602   9.034   3.860  0.2813 -0.0261 -0.2952
 9253W        W 9253   9.540   8.537   3.407  0.2429  0.0783  0.0968
 9254W        W 9254   7.721   8.342   2.365  0.1386 -0.1148  0.1987
 9255W        W 9255   5.184   9.780   9.401  0.0006  0.1740 -0.1609
 9256W        W 9256   4.401  10.146   7.154 -0.1059  0.1081  0.5511
 9257W        W 9257   5.695   6.541   1.008 -0.1297 -0.1352 -0.1496
 9258W        W 9258   0.621   3.857   7.928 -0.0043 -0.2652 -0.3719
 9259W        W 9259   5.345   9.088   7.778 -0.1360 -0.2051  0.1342
 9260W        W 9260   5.718   8.181   2.198 -0.0049  0.0150  0.1897
 9261W        W 9261   5.009   7.529   4.509 -0.0240 -0.1004 -0.1940
 9262W        W 9262   5.240   9.432   6.078 -0.1586  0.0421 -0.2452
 9263W        W 9263   6.438   9.553   5.095 -0.2632  0.0644 -0.2156
 9264W        W 9264   1.343   7.620   2.255  0.1376  0.0395  0.1028
 9265W        W 9265   2.206   2.659   5.779 -0.0129 -0.1624  0.1938
 9266W        W 9266   3.027   2.452   7.905 -0.0277 -0.0533 -0.0783
 9267W        W 9267   7.529   5.071   5.880  0.0191  0.0681  0.1384
 9268W        W 9268   9.659   3.564   6.029  0.1514 -0.1897  0.4132
 9269W        W 9269   8.779   3.133   1.964  0.0984  0.1700 -0.3090
 9270W        W 9270   9.989   0.456   2.658 -0.1833 -0.0748  0.0168
 9271W        W 9271   7.437   9.634   1.712 -0.0132 -0.2662 -0.0088
 9272W        W 9272   5.900   6.071   7.428 -0.1895 -0.1038 -0.0366
 9273W        W 9273   8.341   9.269   5.518  0.1494  0.3358  0.1021
 9274W        W 9274   0.382   3.162   2.571  0.0743 -0.1036  0.1754
 9275W        W 9275   1.190   5.124   7.918  0.0422  0.2444  0.0738
 9276W        W 9276   7.093   2.014   9.398  0.1879 -0.3403  0.1361
 9277W        W 9277   1.755   9.548   0.472 -0.1635  0.3040  0.1329
 9278W        W 9278   8.680   1.719   2.410 -0.2781 -0.3967  0.0487
 9279W        W 9279   0.385   2.535   4.589 -0.1175  0.0420 -0.0247
 9280W        W 9280   0.623   9.109   8.129  0.1334  0.1199 -0.0348
 9281W        W 9281   7.609   9.844   7.996 -0.1106 -0.1320  0.1233
 9282W        W 9282   5.129   2.946   5.665  0.2652 -0.2433  0.1356
 9283W        W 9283   7.588   7.912   6.095 -0.0473  0.1506 -0.0216
 9284W        W 9284   8.833   4.689   2.794 -0.0585  0.0300 -0.1709
 9285W        W 9285   0.229   0.463   8.370 -0.0018  0.1074  0.0661
 9286W        W 9286   6.711   4.684   0.965 -0.1981 -0.0677  0.0620
 9287W        W 9287   5.240   5.574   7.865  0.1711 -0.0701  0.2467
 9288W        W 9288   4.637   0.001   9.855  0.2605 -0.0643 -0.0924
 9289W        W 9289   8.721   2.497  10.087  0.3163  0.2034 -0.0742
 9290W        W 9290   9.374   1.926   5.517  0.0588  0.1610  0.0205
 9291W        W 9291   9.061   2.688   2.832  0.2679 -0.0273 -0.2570
 9292W        W 9292   5.773   7.078   9.942  0.1527 -0.3698 -0.0403
 9293W        W 9293   2.785   0.112   2.996  0.3972  0.0598  0.1834
 9294W        W 9294   6.401   1.290   2.475  0.0284  0.0008 -0.0634
 9295W        W 9295   9.373   0.873   1.690  0.1763  0.1101 -0.0753
 9296W        W 9296   0.084   0.389   7.001  0.0092  0.0068  0.3264
 9297W        W 9297   7.701   0.596  10.025 -0.1396 -0.3123 -0.1078
 9298W        W 9298   2.665   8.037   1.993 -0.1466  0.1904 -0.0026
 9299W        W 9299   9.650   7.737   6.675  0.0801 -0.0234 -0.0040
 9300W        W 9300   0.149   4.710   5.349  0.0706  0.1574  0.3264
 9301W        W 9301   9.203   0.410   3.939 -0.2055 -0.1427  0.0340
 9302W        W 9302   8.392   9.530   8.307 -0.1698 -0.1441  0.0334
 9303W        W 9303   6.644   1.410   6.816  0.1545 -0.3425 -0.0656
 9304W        W 9304   2.596   5.388   8.242  0.2496 -0.1055 -0.1360
 9305W        W 9305   6.926   4.134   0.977  0.0809  0.2157 -0.0028
 9306W        W 9306   0.448   1.534   2.690 -0.2398 -0.1696 -0.1806
 9307W        W 9307   9.109  10.336  10.325 -0.1429 -0.1775  0.1629
 9308W        W 9308   4.128   5.395   0.352 -0.0140 -0.0368 -0.1554
 9309W        W 9309  10.083   5.184   8.232  0.0201  0.2302  0.2948
 9310W        W 9310   5.930   2.806   6.106  0.1075 -0.0113  0.0600
 9311W        W 9311   1.097   0.618   8.386  0.2244 -0.0557  0.1838
 9312W        W 9312   3.238   6.848   7.003  0.0507  0.0453  0.2454
 9313W        W 9313   2.999   0.207   6.915 -0.3355  0.0759  0.3513
 9314W        W 9314   1.940   3.008   1.122  0.3491  0.1292 -0.0421
 9315W        W 9315   4.647   5.220   8.386 -0.4239 -0.0678  0.0729
 9316W        W 9316   0.700   6.559   6.805  0.1649 -0.0190 -0.0583
 9317W        W 9317   6.002   9.841   6.659  0.1736 -0.1936  0.4429
 9318W        W 9318   8.227   0.915   7.156 -0.2992  0.2006  0.0129
 9319W        W 9319   8.575   9.873   0.158 -0.1358  0.0503  0.0362
 9320W        W 9320   3.660   6.584   6.805 -0.1847  0.0355 -0.0670
 9321W        W 9321   5.382   0.035   7.185 -0.0858  0.0642 -0.0545
 9322W        W 9322   4.457   4.669   5.579 -0.0029 -0.0192 -0.1514
 9323W        W 9323   3.815   6.354   2.157 -0.1736 -0.3769  0.1771
 9324W        W 9324   4.738   9.202   0.063  0.0022  0.4294  0.0378
 9325W        W 9325   9.516   5.853   0.546  0.0185  0.3257  0.1573
 9326W        W 9326   4.578   4.725   7.255 -0.0793 -0.0755  0.3604
 9327W        W 9327   7.945   5.545   6.746 -0.0904  0.1773 -0.1242
 9328W        W 9328   8.690   7.572   0.122  0.0625 -0.0643  0.0416
 9329W        W 9329   5.371   0.304   2.337 -0.1080 -0.2635  0.0959
 9330W        W 9330   1.748   1.805   5.880  0.0280  0.0630  0.1836
 9331W        W 9331   5.112   1.257   1.317 -0.0567 -0.1517  0.0976
 9332W        W 9332   1.918   0.340   8.514 -0.0250 -0.1375 -0.0529
 9333W        W 9333   0.783   7.153   0.822 -0.0959 -0.0546 -0.2739
 9334W        W 9334   2.496   4.916   6.963  0.1050  0.0575  0.0212
 9335W        W 9335   6.657   6.718   7.010 -0.0063  0.1507 -0.3166
 9336W        W 9336   4.561   5.547   6.901 -0.2677  0.3020 -0.0188
 9337W        W 9337   3.814   2.082   5.043 -0.2625 -0.0494  0.1373
 9338W        W 9338   8.636   1.345   5.433 -0.2113 -0.1661 -0.0227
 9339W        W 9339   8.054   0.669   1.191  0.1541  0.1894 -0.0131
 9340W        W 9340   3.652   4.000   5.973 -0.1235  0.1891 -0.2518
 9341W        W 9341   3.684   8.179   2.108 -0.0280 -0.0224 -0.1221
 9342W        W 9342   7.950   4.021   0.183 -0.1383 -0.2666 -0.1139
 9343W        W 9343   4.171   2.871   9.762 -0.1853  0.1284  0.1283
 9344W        W 9344   2.455   6.341   0.698  0.1394  0.0051 -0.0010
 9345W        W 9345   5.930   6.161   3.591  0.0087  0.0559 -0.1380
 9346W        W 9346   3.157   9.321   8.427 -0.1540 -0.0260 -0.1944
 9347W        W 9347   4.788   5.393   2.368 -0.1208  0.3056  0.1821
 9348W        W 9348   1.151   6.134   5.793 -0.2754 -0.1338  0.0251
 9349W        W 9349   3.967   9.896  10.276 -0.0672  0.5272 -0.4109
 9350W        W 9350   1.763   8.974   0.117  0.2386  0.1606  0.2361
 9351W        W 9351   1.915   6.067  10.082 -0.3723 -0.1015 -0.1611
 9352W        W 9352   4.058   6.965   9.942 -0.1726 -0.1568  0.0866
 9353W        W 9353  10.057   7.773   6.369 -0.4005  0.2304  0.0311
 9354W        W 9354   2.938   4.815   2.994 -0.0192 -0.1366  0.1943
 9355W        W 9355   6.328   5.763   8.318  0.0191  0.0909  0.0013
 9356W        W 9356   6.221   9.528   7.976  0.1345  0.0924  0.1137
 9357W        W 9357   4.589   8.489   2.650 -0.0496  0.3508  0.1397
 9358W        W 9358   8.709   7.795   3.395  0.0756  0.0003  0.0494
 9359W        W 9359   1.906   6.480   1.371 -0.1390 -0.0887 -0.1107
 9360W        W 9360   0.614   8.674   4.724  0.0841 -0.2519 -0.0998
 9361W        W 9361   6.527   6.724   5.468  0.4777 -0.1194 -0.1084
 9362W        W 9362  10.111  10.319   2.872  0.0342  0.1580  0.2004
 9363W        W 9363   0.389   4.291   6.779 -0.0380 -0.3921 -0.1653
 9364W        W 9364   4.392   6.913   3.561  0.0633 -0.0255 -0.1193
 9365W        W 9365   1.455   5.061   5.111 -0.1773  0.2559 -0.1679
 9366W        W 9366   0.958   3.832   9.377 -0.0277 -0.0368  0.0097
 9367W        W 9367   3.538   0.296   8.028 -0.0373  0.0276  0.0286
 9368W        W 9368   6.369   7.755   9.469  0.1441 -0.1848 -0.3520
 9369W        W 9369   5.531   3.497   4.068  0.0876  0.3197  0.0426
 9370W        W 9370   0.740   7.890   0.219  0.2703  0.1638 -0.2108
 9371W        W 9371  10.171   1.736   9.689  0.1923 -0.0422  0.1135
 9372W        W 9372   5.909   0.469   9.824 -0.4940  0.3092  0.2350
 9373W        W 9373   0.699   5.181   8.172 -0.0540  0.3361 -0.1002
 9374W        W 9374   2.059   7.527   4.893  0.4419 -0.0268  0.3566
 9375W        W 9375   7.228   6.991   2.861 -0.1154 -0.1643 -0.0465
 9376W        W 9376   8.723   9.180   5.277  0.1385 -0.3359  0.4206
 9377W        W 9377   9.906   8.896   9.247 -0.0660 -0.1650  0.2291
 9378W        W 9378   2.172   4.177   6.333 -0.2199  0.1452  0.0868
 9379W        W 9379   5.648   3.934   2.249 -0.1802  0.1084  0.2052
 9380W        W 9380   3.014   8.280   1.701  0.0020  0.5031  0.0639
 9381W        W 9381   3.053   3.949   6.044  0.1426  0.0939 -0.0797
 9382W        W 9382   2.584   1.502   1.805  0.3821 -0.0888  0.1108
 9383W        W 9383   8.482   5.435   5.043 -0.0710  0.2746 -0.1862
 9384W        W 9384   4.898   7.054  10.319 -0.1099 -0.1961 -0.0041
 9385W        W 9385   7.096   4.690   8.288 -0.2736 -0.0636 -0.2082
 9386W        W 9386   7.681   7.303   6.401 -0.0273  0.0820  0.0833
 9387W        W 9387   0.376   3.575   8.741  0.0062 -0.4113  0.1278
 9388W        W 9388   4.427   5.245   7.451  0.2534  0.1466  0.2841
 9389W        W 9389   9.508   9.424   4.358  0.2720  0.0197 -0.5251
 9390W        W 9390   5.184   1.335   4.186  0.0742  0.1657  0.0382
 9391W        W 9391   3.710   8.146   0.326 -0.1241 -0.1194 -0.0167
 9392W        W 9392   3.925   6.006   3.703  0.1998 -0.4118  0.2773
 9393W        W 9393   9.158   3.432   5.852 -0.0199  0.0488  0.3171
 9394W        W 9394   2.675  10.062   2.519  0.1148  0.0077 -0.1831
 9395W        W 9395   2.855   1.398   3.951  0.0569  0.2729 -0.2393
 9396W        W 9396   9.660   3.006  10.241  0.0001 -0.0125  0.0279
 9397W        W 9397   7.723   7.350   4.472 -0.3240  0.0021  0.1661
 9398W        W 9398   0.594   9.107   1.274  0.0271 -0.1348  0.0160
 9399W        W 9399   0.175   5.016   3.990  0.0226  0.0613 -0.0233
 9400W        W 9400   2.009   0.412   2.685  0.0333  0.0321  0.3884
 9401W        W 9401   7.793   0.179   0.571  0.0499  0.0269 -0.0773
 9402W        W 9402   3.357   8.338   5.720  0.0350  0.4257  0.0039
 9403W        W 9403   2.217   4.162  10.019  0.0373 -0.0684 -0.1929
 9404W        W 9404   9.872   4.283   3.178 -0.0414  0.1630  0.1812
 9405W        W 9405   3.468   0.401   2.909 -0.1992 -0.1628 -0.0065
 9406W        W 9406   2.354   8.072   4.479  0.0103 -0.0851 -0.2011
 9407W        W 9407   4.389   0.522   0.287 -0.0174 -0.0769 -0.3631
 9408W        W 9408   3.757   3.521   9.325 -0.1454 -0.0486  0.2277
 9409W        W 9409   0.451   7.808   9.690 -0.0752  0.2207 -0.3610
 9410W        W 9410   0.336   9.944   9.907  0.2787 -0.0755  0.1512
 9411W        W 9411   2.091   3.314   0.644 -0.2603  0.3197 -0.1350
 9412W        W 9412   3.097   6.848   0.831  0.2333 -0.3160 -0.2809
 9413W        W 9413  10.254   3.386   2.756  0.1660 -0.1810  0.2745
 9414W        W 9414   4.976   5.972   0.313 -0.0043 -0.1493 -0.2295
 9415W        W 9415   6.922   1.479   9.121  0.1386  0.2938  0.2169
 9416W        W 9416   7.263   3.557   5.312 -0.1729  0.0751 -0.5297
 9417W        W 9417   0.918   2.863   1.026 -0.3031 -0.0756  0.0450
 9418W        W 9418   6.499   5.594   7.754 -0.1241 -0.0233 -0.1002
 9419W        W 9419   2.375  10.207   3.153 -0.0125 -0.2038  0.0684
 9420W        W 9420   9.780   7.378   8.096  0.0131  0.0743  0.0002
 9421W        W 9421   9.926   9.857   2.928  0.0200  0.1202 -0.1012
 9422W        W 9422   1.391   5.954   8.393 -0.0968  0.3027 -0.3650
 9423W        W 9423   0.177   2.780   5.974 -0.0401 -0.3571  0.1517
 9424W        W 9424   4.625   1.589   7.931  0.2594  0.2984  0.0393
 9425W        W 9425   0.709   0.245   8.396 -0.0788 -0.0414 -0.0211
 9426W        W 9426   9.177   2.002   7.782 -0.1672  0.0793  0.1682
 9427W        W 9427   6.805   2.970   5.505  0.1818  0.1234 -0.0627
 9428W        W 9428   4.966   4.469   5.646 -0.1572 -0.1400 -0.0405
 9429W        W 9429   6.033   5.050   8.573  0.2186  0.3289  0.2018
 9430W        W 9430   0.831   8.951   5.428  0.0843 -0.1660  0.0926
 9431W        W 9431   1.634   9.580   1.499 -0.2628  0.2460 -0.1007
 9432W        W 9432   9.231   9.404   3.381 -0.1736 -0.0573  0.0334
 9433W        W 9433   9.957   0.339   6.668 -0.3833 -0.0575 -0.1681
 9434W        W 9434   1.911   9.786   7.967 -0.1515 -0.0349  0.0798
 9435W        W 9435   5.666   4.908   1.295  0.0008 -0.3508  0.1017
 9436W        W 9436   7.542   8.756   0.509  0.1641  0.3612 -0.0727
 9437W        W 9437   7.080   4.596   4.145  0.0196  0.1658 -0.0941
 9438W        W 9438   7.936   3.626   6.748 -0.2329 -0.0613 -0.0139
 9439W        W 9439   8.782   1.780   6.985  0.0050  0.0241 -0.0835
 9440W        W 9440   9.467   9.019   4.670  0.1537  0.1540  0.0262
 9441W        W 9441   5.995   5.238   2.193  0.2581 -0.3190 -0.1198
 9442W        W 9442   9.645   0.086   2.571 -0.1422  0.1822 -0.3056
 9443W        W 9443  10.198   5.364   9.271  0.3109 -0.0130  0.3134
 9444W        W 9444   4.372   2.422   5.317 -0.0120 -0.2441 -0.4468
 9445W        W 9445   2.224   9.836   8.908 -0.0354  0.1821 -0.1215
 9446W        W 9446   6.462   7.056   3.370 -0.0427  0.1084 -0.0338
 9447W        W 9447   6.139   7.283  10.243 -0.0264 -0.2239  0.1697
 9448W        W 9448   1.709   1.356   8.172 -0.1356  0.0548 -0.0160
 9449W        W 9449   9.507   1.557   0.345  0.2956 -0.2343  0.3988
 9450W        W 9450  10.160   6.701   9.408 -0.1854  0.0667 -0.3580
 9451W        W 9451   2.635   1.682   0.515  0.0219  0.0028 -0.0931
 9452W        W 9452   5.659   2.925   5.484  0.0739  0.3050 -0.2525
 9453W        W 9453   1.160   6.567   5.437  0.2050  0.1433 -0.3895
 9454W        W 9454   0.438   7.279   9.843  0.0966 -0.0160 -0.2751
 9455W        W 9455   5.269   4.172   3.124  0.1555 -0.0445 -0.1566
 9456W        W 9456   4.401   5.740   7.343  0.0104 -0.1540  0.0424
 9457W        W 9457   9.400   4.877   0.036 -0.0872 -0.0566  0.0955
 9458W        W 9458   3.385   1.689   0.575  0.1770 -0.1050  0.0441
 9459W        W 9459   5.145   8.269   6.413  0.0264  0.0696  0.0408
 9460W        W 9460   5.783   5.348   0.596 -0.2451  0.0426 -0.1758
 9461W        W 9461   8.585   6.378   0.529  0.1280 -0.1101 -0.1926
 9462W        W 9462   5.490   9.770  10.215 -0.2966  0.0970 -0.2458
 9463W        W 9463   9.559   9.000  10.097 -0.1240 -0.2036  0.1594
 9464W        W 9464   9.208   7.548  10.334 -0.1597  0.1107 -0.1374
 9465W        W 9465   9.402   4.374   3.322  0.1065  0.2344  0.2202
 9466W        W 9466   1.510   2.938   3.578 -0.0031 -0.0128  0.4609
 9467W        W 9467   6.012   9.176   3.210 -0.1426 -0.0309  0.0220
 9468W        W 9468   0.858   4.236   1.657 -0.0896  0.1633 -0.0437
 9469W        W 9469   0.895   9.853   7.195  0.1512  0.2982 -0.0668
 9470W        W 9470   8.671   8.068   5.953  0.0331 -0.2868  0.2584
 9471W        W 9471   6.583   7.063  10.022  0.3480 -0.0867  0.0477
 9472W        W 9472  10.011   1.634   0.850 -0.0678 -0.1772  0.2684
 9473W        W 9473   0.775   3.908   6.711 -0.0637 -0.2359  0.2840
 9474W        W 9474   1.296   5.449   2.479  0.2185 -0.1135  0.0056
 9475W        W 9475   8.521   7.163   2.609  0.0062  0.3025 -0.1333
 9476W        W 9476   3.748   2.158   9.169 -0.1283  0.2410 -0.0434
 9477W        W 9477   3.632   0.401   6.850  0.1982 -0.3834  0.2437
 9478W        W 9478   5.870   5.512   6.993  0.1216 -0.4476  0.0662
 9479W        W 9479   0.230   9.641   3.478 -0.0566 -0.2275  0.2261
 9480W        W 9480   9.980   1.740   0.394 -0.1059 -0.2345  0.0618
 9481W        W 9481   6.761   8.201   2.572 -0.2439  0.1997 -0.0841
 9482W        W 9482   4.255   3.362   3.267  0.3267 -0.1118  0.4093
 9483W        W 9483   6.857   5.260   1.127 -0.0012  0.0586  0.3037
 9484W        W 9484   6.086   8.654   6.690 -0.0381 -0.3225 -0.4028
 9485W        W 9485   7.875   8.967   8.893  0.0518 -0.1171  0.0384
 9486W        W 9486   3.409   6.029   0.676  0.0017  0.0834 -0.1692
 9487W        W 9487   5.041   1.752   5.251  0.0354 -0.1079 -0.0727
 9488W        W 9488   8.740   4.663   5.510  0.0562  0.0132 -0.1583
 9489W        W 9489   7.429   2.536  10.224 -0.0997  0.0210 -0.1928
 9490W        W 9490   6.656   0.409   2.409  0.2009 -0.0057 -0.0441
 9491W        W 9491   5.960   4.994  10.066 -0.0643  0.2387 -0.0529
 9492W        W 9492   5.097   0.150   1.470  0.1138  0.0589  0.1927
 9493W        W 9493   6.611   2.896   6.930 -0.1579 -0.2137 -0.1508
 9494W        W 9494  10.030   7.515   9.419 -0.0171  0.2767  0.0210
 9495W        W 9495   6.217   5.669   4.687 -0.2645 -0.2414 -0.0674
 9496W        W 9496   9.737   7.424   6.261 -0.1129 -0.0853 -0.0627
 9497W        W 9497   4.258   5.274   2.580 -0.0141 -0.3252 -0.1105
 9498W        W 9498   6.132   4.099   2.156  0.2427 -0.1092 -0.1199
 9499W        W 9499   2.590   0.319   5.625 -0.0205 -0.3241  0.2648
 9500W        W 9500   2.959   2.347   2.786  0.1717  0.1015 -0.1376
 9501W        W 9501   1.046   9.405   5.585  0.3518  0.1833 -0.1967
 9502W        W 9502   1.267   4.951   1.545 -0.0590  0.0889 -0.1979
 9503W        W 9503   2.410   8.498   8.527 -0.1039 -0.1045  0.1358
 9504W        W 9504   2.049   8.762   2.607  0.4156 -0.0958 -0.0891
 9505W        W 9505   8.015   7.439   4.017  0.1592  0.0192 -0.3080
 9506W        W 9506   1.703   6.846  10.025 -0.1596  0.0658  0.2754
 9507W        W 9507   6.325   0.707   1.567  0.1354 -0.1286 -0.0153
 9508W        W 9508   1.541   2.128   6.275  0.0086 -0.3409  0.1634
 9509W        W 9509   9.027   9.380   4.472 -0.0369  0.1408 -0.0254
 9510W        W 9510   9.250   9.309   2.326  0.2606 -0.2105  0.0927
 9511W        W 9511   9.307   7.171   9.292  0.0204 -0.0963  0.3013
 9512W        W 9512   7.106   6.538   8.013 -0.0003  0.1512  0.0635
 9513W        W 9513   8.424   0.156   2.400  0.0539 -0.1970 -0.0012
 9514W        W 9514   7.249   3.309   9.387  0.3555 -0.0291  0.0022
 9515W        W 9515   7.462   6.606   5.783  0.1659 -0.1624 -0.0256
 9516W        W 9516   9.232   6.067   7.734 -0.0144  0.0863  0.2211
 9517W        W 9517   1.506   3.989   9.191 -0.0803 -0.3418 -0.3191
 9518W        W 9518   2.919   5.857   0.663  0.2174  0.6123  0.4169
 9519W        W 9519  10.309   0.916   1.263 -0.1998 -0.0559 -0.0174
 9520W        W 9520   0.754   7.038   8.582 -0.1554 -0.1587  0.2960
 9521W        W 9521   6.474   9.064   8.953 -0.0622 -0.0067 -0.4519
 9522W        W 9522   3.659   8.698   3.489 -0.2124 -0.0868 -0.1563
 9523W        W 9523   4.607   2.566   0.879 -0.0365  0.0013 -0.3404
 9524W        W 9524   9.342   2.565   5.559  0.2152  0.0386  0.0314
 9525W        W 9525   5.726   3.355   8.332 -0.4398 -0.0864  0.2367
 9526W        W 9526   6.048   1.839   3.568  0.1787 -0.0739 -0.3415
 9527W        W 9527   0.360   3.845   7.012 -0.0531  0.0848  0.0528
 9528W        W 9528   4.208   7.435   5.180 -0.0181  0.3203  0.1511
 9529W        W 9529   7.165   5.601   8.696  0.3099  0.0987  0.1063
 9530W        W 9530   8.988   0.057   9.190  0.2659 -0.2857  0.0874
 9531W        W 9531   2.570   1.486   5.833  0.1357  0.1415 -0.1418
 9532W        W 9532   3.226   7.238   5.418 -0.2439  0.1327  0.1250
 9533W        W 9533   3.749   9.521   9.272 -0.2564 -0.1326  0.2140
 9534W        W 9534   5.274   0.844   5.681 -0.1880  0.1288  0.1966
 9535W        W 9535   8.923  10.127   3.183 -0.0144 -0.1030 -0.3280
 9536W        W 9536   6.335   0.376   7.876 -0.2097 -0.2976 -0.0629
 9537W        W 9537   3.437   0.054   8.937 -0.0844 -0.1371  0.1795
 9538W        W 9538   9.021   5.108   9.534 -0.1369  0.0259  0.1165
 9539W        W 9539   4.340   2.492   6.918  0.1294  0.3694  0.0059
 9540W        W 9540   6.240   8.257   7.001  0.0129 -0.0569  0.0200
 9541W        W 9541   0.352   2.269   3.710  0.2673 -0.1693  0.5152
 9542W        W 9542  10.090   7.342   3.307 -0.0071 -0.0112 -0.0497
 9543W        W 9543   8.585   9.294   4.387 -0.0184 -0.1492  0.1560
 9544W        W 9544   0.390   8.003   5.234 -0.2287  0.1822 -0.0950
 9545W        W 9545   9.953   0.222   9.362  0.1294  0.2438  0.1173
 9546W        W 9546   4.780   8.773   5.034  0.0600 -0.0630 -0.1498
 9547W        W 9547  10.268   4.100   5.312 -0.0620 -0.0921 -0.0695
 9548W        W 9548   4.428   7.181  10.146  0.3727  0.0958 -0.2359
 9549W        W 9549   7.688   3.420   5.166 -0.1722 -0.1408  0.1475
 9550W        W 9550   3.509   3.885   6.603  0.1033  0.1170 -0.0270
 9551W        W 9551   0.390   3.321   3.026 -0.0998 -0.1871 -0.0746
 9552W        W 9552   7.438   2.935   7.284 -0.2295  0.0425  0.3468
 9553W        W 9553   3.597   5.653   6.902  0.1033 -0.1658 -0.3876
 9554W        W 9554   5.909   6.827   2.123 -0.0634  0.0700  0.0354
 9555W        W 9555   9.449   5.643   4.076  0.0008 -0.2181 -0.1626
 9556W        W 9556  10.189   1.826   4.352  0.1029 -0.1037 -0.0067
 9557W        W 9557   1.107   2.567   2.022 -0.1282  0.1881  0.0446
 9558W        W 9558   7.048   5.140   8.494  0.3139 -0.0916  0.0298
 9559W        W 9559   4.009   7.648   4.816 -0.0177 -0.2633 -0.1567
 9560W        W 9560   1.552   1.162   9.440 -0.0588 -0.0948 -0.0036
 9561W        W 9561   6.010   3.317   1.021  0.0393 -0.2381 -0.0165
 9562W        W 9562   4.641   8.680   6.332  0.1149  0.0904  0.1314
 9563W        W 9563   3.524   9.670   1.486 -0.0233  0.2614 -0.2557
 9564W        W 9564   3.661   9.825   4.437 -0.1733  0.0570 -0.1179
 9565W        W 9565   3.145   8.279  10.077 -0.1649  0.0327 -0.1863
 9566W        W 9566   7.549   6.307   6.900 -0.0246  0.2958  0.2022
 9567W        W 9567   0.223   0.970   8.224 -0.0347  0.3961  0.0555
 9568W        W 9568   4.784   8.589   1.450  0.1120 -0.0737 -0.1955
 9569W        W 9569   0.186   7.980   3.708 -0.2230  0.0332 -0.0111
 9570W        W 9570   5.349   4.697   1.872  0.0660 -0.1379  0.2516
 9571W        W 9571   2.712   4.420   6.987  0.1716 -0.0064  0.2029
 9572W        W 9572   5.122   9.117   8.771 -0.0361 -0.2702  0.1548
 9573W        W 9573   1.438   2.994   4.553 -0.1689 -0.0748  0.2620
 9574W        W 9574   3.436   7.243   6.182  0.1097 -0.2669 -0.1068
 9575W        W 9575   1.228   8.808   9.964 -0.0304 -0.2329 -0.1650
 9576W        W 9576   3.091   2.775   1.460  0.1477  0.1810 -0.0569
 9577W        W 9577  10.231   8.783   5.221  0.1701 -0.2496  0.2065
 9578W        W 9578   2.863   9.765   1.644  0.0727  0.1652  0.0254
 9579W        W 9579   8.064   7.570   7.380  0.0503 -0.1222 -0.1146
 9580W        W 9580   9.940   1.602   8.579 -0.0776  0.2780  0.4736
 9581W        W 9581   8.418   4.172   5.490 -0.2069 -0.1231  0.2340
 9582W        W 9582   0.390   2.851   3.167 -0.2917 -0.1826  0.0841
 9583W        W 9583   6.829  10.306   3.709  0.2006  0.2189 -0.1344
 9584W        W 9584   6.785   2.012   1.778 -0.0522  0.1157 -0.2009
 9585W        W 9585   9.453   9.103   9.557  0.0050  0.1341 -0.1604
 9586W        W 9586   2.140   2.312   4.779 -0.0030 -0.1845 -0.1438
 9587W        W 9587   8.232   6.768   9.052 -0.4138  0.0650 -0.0172
 9588W        W 9588   8.392   3.219   4.720 -0.0913  0.1487 -0.0802
 9589W        W 9589   0.331   7.612   4.748 -0.0542  0.0378 -0.0208
 9590W        W 9590   7.783   4.224   1.982  0.2859 -0.2205 -0.1867
 9591W        W 9591   8.486   5.466   4.090 -0.0504 -0.0968  0.2266
 9592W        W 9592   6.312   3.847   0.974  0.1175 -0.2883 -0.3313
 9593W        W 9593   2.012   4.744   2.248  0.3827  0.1454  0.2320
 9594W        W 9594   5.147   1.517   2.606  0.0594  0.0392  0.1090
 9595W        W 9595   5.447   7.802   4.313 -0.0676 -0.0147 -0.0068
 9596W        W 9596   2.427   6.916   3.615  0.0421  0.0270 -0.1308
 9597W        W 9597   6.886   6.202   2.351 -0.1875  0.0559 -0.0255
 9598W        W 9598   1.510   9.212   1.070 -0.2561  0.0693 -0.1925
 9599W        W 9599   6.578   6.505   9.952 -0.1135  0.0790  0.1537
 9600W        W 9600   1.337   4.722   8.157  0.1275  0.1465  0.0856
 9601W        W 9601   4.067   7.490   1.520 -0.1491 -0.0270  0.1574
 9602W        W 9602   7.303   9.230   4.602  0.0268 -0.0638 -0.1135
 9603W        W 9603   4.075   2.808   1.449  0.1410  0.0701 -0.0090
 9604W        W 9604   1.247   5.261   9.158 -0.2796  0.1048  0.1523
 9605W        W 9605   8.249   9.013   1.802 -0.0498  0.0356 -0.2319
 9606W        W 9606   4.915   1.183   8.403  0.1158 -0.2298 -0.2758
 9607W        W 9607   8.750   9.912   9.310 -0.1039  0.0391  0.1600
 9608W        W 9608   4.214   2.202   4.783 -0.0417  0.1005  0.4868
 9609W        W 9609   7.937   6.484   3.059 -0.1439  0.1145 -0.1349
 9610W        W 9610   2.676   0.828   4.597  0.0419 -0.1048 -0.0430
 9611W        W 9611   7.918   4.774   5.627  0.5459 -0.0034 -0.0446
 9612W        W 9612   0.356   1.381   9.110  0.0150 -0.2343  0.1129
 9613W        W 9613   2.835   1.280   5.011 -0.0053 -0.1679  0.0114
 9614W        W 9614   9.537   5.981   4.477  0.1391 -0.3217 -0.0510
 9615W        W 9615   6.736   6.976   1.130  0.0811 -0.1429 -0.3398
 9616W        W 9616   7.445   5.986   0.152 -0.1720 -0.2252 -0.2338
 9617W        W 9617   7.940   1.478   8.171  0.0942 -0.3426  0.1208
 9618W        W 9618   3.093   8.447   2.729 -0.1739 -0.2809 -0.1439
 9619W        W 9619   1.496   5.780   3.428 -0.2710  0.1811  0.0630
 9620W        W 9620   8.780   9.209   3.580  0.0233  0.0978  0.0704
 9621W        W 9621  10.333   9.899   6.043 -0.1422 -0.0036 -0.2993
 9622W        W 9622   4.091   0.673   7.933  0.0688  0.1445 -0.2420
 9623W        W 9623   3.451   4.101   4.629 -0.2567 -0.0719  0.2961
 9624W        W 9624   4.403   8.770   7.473 -0.2220  0.2863  0.0039
 9625W        W 9625   2.887   7.953   6.575  0.0217 -0.0700 -0.2537
 9626W        W 9626   1.985   2.771   7.971 -0.1128  0.2594 -0.0830
 9627W        W 9627   8.473   3.504   2.819  0.1402  0.1367  0.2755
 9628W        W 9628   6.465   8.525   1.843  0.3299 -0.0536 -0.0760
 9629W        W 9629   9.114   1.709   3.567 -0.0001 -0.0903 -0.0641
 9630W        W 9630   5.323   6.481   2.156 -0.1474  0.1066  0.3779
 9631W        W 9631   2.039   0.109   3.729  0.1163  0.2397  0.0866
 9632W        W 9632   8.938   2.704   0.648  0.1510  0.1365  0.0318
 9633W        W 9633   5.728   1.331   6.540  0.2816 -0.2003  0.1253
 9634W        W 9634   0.047   3.756   5.730  0.0474 -0.0501 -0.0783
 9635W        W 9635   9.884   6.095   5.845 -0.1140 -0.1017  0.2427
 9636W        W 9636   7.391   4.427   2.147 -0.1265  0.0542  0.1446
 9637W        W 9637   7.101   4.905   4.537  0.1222  0.1377 -0.0040
 9638W        W 9638   4.679   1.000   5.790  0.0183 -0.1440 -0.3904
 9639W        W 9639   7.080   7.063   9.322  0.1083 -0.0870 -0.1406
 9640W        W 9640   3.919   9.952   7.878 -0.0213  0.0635  0.2730
 9641W        W 9641   7.851   0.543   1.840  0.1060 -0.0231 -0.2707
 9642W        W 9642   7.943   5.844   0.311 -0.0294 -0.4610  0.0246
 9643W        W 9643   6.752   4.066   4.333  0.0832 -0.0422  0.0882
 9644W        W 9644   2.237   2.066   9.265 -0.0284  0.1579 -0.0196
 9645W        W 9645   1.182   6.577   9.473  0.0070  0.0041 -0.1389
 9646W        W 9646   1.150   7.652   0.295 -0.2489  0.3779 -0.1092
 9647W        W 9647   2.804   3.361   8.286 -0.2336  0.0499  0.0893
 9648W        W 9648   6.818   7.750   1.792 -0.0434 -0.0987 -0.1691
 9649W        W 9649   3.790   1.068   3.708 -0.0496  0.0948 -0.4523
 9650W        W 9650   2.533   2.928   7.111 -0.0131  0.4114 -0.0105
 9651W        W 9651   9.252   1.699  10.185  0.5145 -0.1324 -0.2236
 9652W        W 9652   3.393   2.047   6.635 -0.0641 -0.3140  0.1265
 9653W        W 9653   4.335   4.586   6.302 -0.0355 -0.0274  0.2196
 9654W        W 9654   0.797   1.954   5.128  0.2814 -0.0996  0.2177
 9655W        W 9655   3.225   2.902   8.845  0.0044  0.1222  0.0035
 9656W        W 9656   0.783   0.601   9.347  0.0183  0.0369 -0.0884
 9657W        W 9657   0.633   6.042   9.088  0.0607  0.2637 -0.0706
 9658W        W 9658   6.238   1.396   4.777 -0.1092  0.2017 -0.1243
 9659W        W 9659   0.130   4.189   7.957 -0.1155 -0.2157 -0.2039
 9660W        W 9660   9.017   4.257   2.621  0.2539 -0.2688 -0.2339
 9661W        W 9661   1.245   8.915   2.997 -0.2127 -0.2534  0.0442
 9662W        W 9662   0.822  10.090   1.315 -0.1709  0.1878  0.0508
 9663W        W 9663   4.250   0.789   9.584 -0.1999 -0.0339 -0.2069
 9664W        W 9664   5.589   3.981   1.759  0.0726 -0.2504  0.0204
 9665W        W 9665   2.457   0.855   9.053  0.1375 -0.2505  0.1464
 9666W        W 9666   1.771   7.262   4.473  0.1264  0.1122  0.2855
 9667W        W 9667   2.854   9.960   9.490 -0.0331  0.2171  0.3156
 9668W        W 9668   6.790   7.587   4.557  0.1754  0.2685  0.1951
 9669W        W 9669   0.008   9.626   5.554 -0.3155  0.1255  0.0495
 9670W        W 9670   0.306   9.823   7.817  0.0026 -0.3965  0.0369
 9671W        W 9671   6.849   0.822   6.645  0.0074  0.1294 -0.0726
 9672W        W 9672   7.053   2.622   3.582  0.0354 -0.2540 -0.0871
 9673W        W 9673   3.064   1.799   5.196 -0.1867  0.1430  0.1113
 9674W        W 9674   6.794   1.026   9.776  0.4288  0.0320 -0.1220
 9675W        W 9675   4.468   4.545   4.912  0.0057 -0.1325 -0.0223
 9676W        W 9676   1.934   1.696   1.854  0.0828  0.0973  0.2169
 9677W        W 9677   9.577   7.937   4.536  0.0874  0.0880 -0.3511
 9678W        W 9678   2.638   0.913   3.959 -0.2285  0.2307 -0.2901
 9679W        W 9679   0.044   9.948   8.252  0.1265 -0.0287  0.3178
 9680W        W 9680   3.342   6.657   3.318  0.3195  0.2516  0.0897
 9681W        W 9681   2.108   9.113   9.969 -0.0090 -0.2463 -0.1483
 9682W        W 9682   8.522   3.115   5.240 -0.5858  0.0540 -0.0041
 9683W        W 9683   9.125   7.498   9.807  0.0086 -0.2614  0.0014
 9684W        W 9684   2.547   2.490   9.188 -0.1636  0.4261  0.2375
 9685W        W 9685   6.805   2.952   3.885 -0.2304  0.2873 -0.0831
 9686W        W 9686   3.675   6.318   7.973 -0.0104 -0.0188 -0.1137
 9687W        W 9687   8.169   8.122   2.344 -0.3762 -0.1161 -0.1735
 9688W        W 9688   6.453   8.633   4.932 -0.0000  0.2477  0.0904
 9689W        W 9689   8.227   8.371   9.865  0.1598  0.2059 -0.1493
 9690W        W 9690  10.126   9.904   8.756  0.1115 -0.0610  0.1155
 9691W        W 9691   4.491   3.441   2.504 -0.1100 -0.0496 -0.1432
 9692W        W 9692   2.776  10.196   8.159  0.1861 -0.0328 -0.1249
 9693W        W 9693   6.712   8.301   8.026 -0.3116  0.0582  0.0615
 9694W        W 9694   7.028   1.468   1.650  0.2327  0.1031 -0.0290
 9695W        W 9695   5.373   1.308   0.834  0.0008  0.2775 -0.1464
 9696W        W 9696   2.151   9.926   0.241  0.1453  0.0590  0.0251
 9697W        W 9697   5.811   4.599   8.538 -0.0653 -0.0836 -0.0778
 9698W        W 9698   8.658   0.893   1.857 -0.0532  0.0388 -0.0802
 9699W        W 9699   1.137   9.028   1.973  0.0974  0.3668  0.1432
 9700W        W 9700   1.796   9.662   5.203 -0.0432 -0.0735 -0.0990
 9701W        W 9701   2.231  10.099   2.182 -0.0462  0.1246 -0.4008
 9702W        W 9702   8.687   3.203   5.786  0.0132 -0.0649 -0.1570
 9703W        W 9703   2.880   9.237   8.931  0.1914  0.2787  0.2648
 9704W        W 9704   9.345   8.772   9.215  0.5708 -0.2358  0.0741
 9705W        W 9705   2.586   5.289   7.642  0.0412 -0.2799 -0.0143
 9706W        W 9706   3.929   1.297   0.197  0.1689  0.3715 -0.0814
 9707W        W 9707   1.402   2.863   1.352  0.0802  0.0720 -0.0435
 9708W        W 9708   9.977   8.517   4.177  0.1320  0.1567 -0.0146
 9709W        W 9709   6.520   5.938   1.607 -0.0007 -0.0371  0.0333
 9710W        W 9710   3.669   0.665   7.712 -0.0810 -0.2440 -0.0493
 9711W        W 9711   3.850  10.046   8.532 -0.3322 -0.0764  0.1311
 9712W        W 9712   7.395   9.946   9.809  0.0856  0.0568 -0.2661
 9713W        W 9713   6.265   5.941   0.622 -0.1355  0.1488 -0.0877
 9714W        W 9714   0.757   3.454   9.078 -0.0060  0.1642  0.1251
 9715W        W 9715   0.486   0.769   3.693  0.0944 -0.0409 -0.0829
 9716W        W 9716   8.103   5.105   4.239 -0.1420  0.2769  0.1449
 9717W        W 9717   7.317   9.386   7.115  0.0083 -0.0969 -0.0196
 9718W        W 9718   8.376   2.176   1.630 -0.2376  0.0457 -0.1811
 9719W        W 9719   7.772   7.819   0.320  0.1720  0.2420  0.3505
 9720W        W 9720   0.620   7.203   5.420  0.0276 -0.2225  0.1444
 9721W        W 9721   5.368   5.681   0.237 -0.0527  0.2090  0.0875
 9722W        W 9722  10.310   7.298   9.076 -0.2200 -0.0088 -0.0533
 9723W        W 9723   0.385   1.140  10.069 -0.1925 -0.0880 -0.0335
 9724W        W 9724   3.021   5.909   8.875  0.1217  0.0017 -0.1345
 9725W        W 9725   9.235   9.799   2.347 -0.1476 -0.0242 -0.1699
 9726W        W 9726   4.515   7.204   5.481  0.1660 -0.1176  0.0826
 9727W        W 9727   9.244   3.180   0.232 -0.2273 -0.2083 -0.0540
 9728W        W 9728   5.427   6.217   4.881  0.4313  0.0439 -0.3634
 9729W        W 9729   0.301  10.255   1.636  0.2229 -0.3720 -0.1167
 9730W        W 9730   7.861   4.593   2.482 -0.2671  0.3061 -0.0488
 9731W        W 9731   6.196   4.505   8.936 -0.0184  0.1454 -0.2485
 9732W        W 9732   2.628   5.309   2.393  0.1149  0.3764 -0.0381
 9733W        W 9733   6.883   6.394   4.017  0.3808 -0.1686  0.1096
 9734W        W 9734   0.309   3.812   5.240  0.0731 -0.1066  0.1611
 9735W        W 9735   0.537   0.297   6.501 -0.2058 -0.3008  0.2517
 9736W        W 9736   3.058   7.696   3.958  0.1804 -0.1446 -0.0824
 9737W        W 9737   1.136   9.185   4.671 -0.1430  0.2038 -0.2449
 9738W        W 9738   6.605   9.183   7.801  0.0685  0.0193 -0.3134
 9739W        W 9739   2.782   0.094   8.626  0.0218 -0.2047  0.0943
 9740W        W 9740   4.970   9.405   5.121  0.1294 -0.2213  0.2421
 9741W        W 9741   9.780   1.569   7.157 -0.2140  0.2356  0.0864
 9742W        W 9742  10.191   6.947   0.635  0.3344 -0.1425 -0.3535
 9743W        W 9743   6.667   9.718   0.576 -0.0220 -0.0992 -0.0096
 9744W        W 9744   3.172   2.016   2.490  0.1362  0.1065  0.0675
 9745W        W 9745   9.968   9.067   8.637  0.0465  0.0966  0.0609
 9746W        W 9746   7.110   0.942   4.332 -0.1840  0.0605 -0.2975
 9747W        W 9747   9.838  10.061   6.128 -0.0318 -0.0402 -0.0544
 9748W        W 9748   5.697   7.491   6.282 -0.1884  0.1159 -0.0762
 9749W        W 9749   8.246   7.026   3.775  0.0961  0.2296  0.2803
 9750W        W 9750   5.180   2.687   7.389 -0.0273 -0.0565 -0.1475
 9751W        W 9751   2.418   2.208   2.905 -0.0449  0.3564 -0.0423
 9752W        W 9752   6.158   2.332   7.819  0.2712  0.2502 -0.0428
 9753W        W 9753   9.808   2.158   9.407  0.3791 -0.1297  0.2296
 9754W        W 9754   5.518   0.786   2.137 -0.0544 -0.1999  0.1119
 9755W        W 9755   9.029   1.308   9.879 -0.2536  0.0560  0.3125
 9756W        W 9756   4.324   1.324   8.302 -0.3187  0.1489  0.0785
 9757W        W 9757   1.088   9.795   2.670  0.1617 -0.1534 -0.0883
 9758W        W 9758   5.256   9.987   5.860  0.0455  0.2520 -0.1317
 9759W        W 9759   7.060   5.339   4.141 -0.0901 -0.1749  0.1531
 9760W        W 9760   5.529   6.749   4.403  0.1671 -0.0202 -0.0019
 9761W        W 9761   1.226   3.685   9.994  0.1098 -0.0175  0.0624
 9762W        W 9762   3.550   4.037   3.484 -0.1968  0.3238 -0.1775
 9763W        W 9763   9.068   7.062   5.550 -0.0182 -0.2242  0.0112
 9764W        W 9764   8.389   4.077   6.028 -0.1710 -0.1887 -0.1904
 9765W        W 9765   3.908   6.017   4.551  0.0656  0.3445 -0.2522
 9766W        W 9766   6.268   5.620   1.952 -0.0755  0.3868  0.1293
 9767W        W 9767   8.508   3.743  10.171  0.0110  0.1227  0.0704
 9768W        W 9768   3.453   8.515   1.697  0.2638 -0.0004 -0.1796
 9769W        W 9769   9.246   3.344  10.104 -0.0465 -0.0976 -0.1406
 9770W        W 9770   7.709   3.466   8.204  0.3857 -0.2538 -0.1103
 9771W        W 9771   7.143   5.964   0.558  0.1384  0.3874  0.0211
 9772W        W 9772   2.193   4.526   9.663  0.1896 -0.0527  0.3209
 9773W        W 9773   1.097   1.806   1.400 -0.1648  0.0258 -0.3400
 9774W        W 9774   2.963   6.341   0.789 -0.3746 -0.1466 -0.0915
 9775W        W 9775   2.229   2.864   2.420  0.0258  0.3309 -0.1248
 9776W        W 9776   1.735   9.349   3.219  0.0325 -0.2006 -0.0456
 9777W        W 9777   7.816   4.924   7.974  0.2060  0.3111 -0.0355
 9778W        W 9778   9.368   0.306   7.930 -0.1149  0.1384  0.4765
 9779W        W 9779   5.533   7.866   1.781 -0.4252  0.1928 -0.0632
 9780W        W 9780   6.447   8.995   0.179 -0.0931  0.0404  0.0467
 9781W        W 9781   5.041   9.569   2.516  0.1611  0.0396 -0.4283
 9782W        W 9782   6.236   7.690   3.210 -0.4267 -0.1491 -0.1199
 9783W        W 9783   2.384   7.035   5.979 -0.2356  0.1114  0.0097
 9784W        W 9784   5.210   6.382   5.512 -0.0775 -0.2001 -0.1290
 9785W        W 9785   1.193   3.934   5.021 -0.0466 -0.2221  0.0610
 9786W        W 9786   5.034   7.101   6.195  0.2915 -0.2289  0.1719
 9787W        W 9787   9.440   5.085   5.661  0.0938  0.2771  0.1423
 9788W        W 9788   4.433   0.270   7.432  0.0055  0.1507  0.3585
 9789W        W 9789   6.552   8.295   0.559  0.3990 -0.4002 -0.1673
 9790W        W 9790   3.278   1.451   4.751 -0.0245 -0.2850  0.1455
 9791W        W 9791   1.181   4.408   9.073  0.0212 -0.1071 -0.0499
 9792W        W 9792   3.624   0.569   5.759  0.0918 -0.3137  0.4016
 9793W        W 9793   5.839   4.966   9.609 -0.0559  0.1315  0.1286
 9794W        W 9794   3.907   0.980   0.575  0.3769 -0.4745 -0.0352
 9795W        W 9795   0.750   9.744   4.733  0.0933 -0.2674  0.2041
 9796W        W 9796   1.383   2.170   4.644 -0.0823 -0.2468 -0.0567
 9797W        W 9797   1.079   1.621   1.968 -0.2419  0.0356 -0.0334
 9798W        W 9798   0.885   2.654   6.288  0.1114  0.1001 -0.0305
 9799W        W 9799   5.676   8.405   3.401  0.3450 -0.0806  0.0168
 9800W        W 9800   5.306   6.234   0.735 -0.1733  0.2384 -0.1408
 9801W        W 9801   2.570   0.158   3.600 -0.0566 -0.1632  0.3531
 9802W        W 9802   9.597   8.278   8.915  0.0352  0.1061  0.1494
 9803W        W 9803   4.225   3.849   5.547 -0.1379 -0.1159 -0.1579
 9804W        W 9804   4.840   4.304   6.619 -0.2731  0.1362 -0.1747
 9805W        W 9805   9.996   7.449   7.035  0.3352  0.2302 -0.0165
 9806W        W 9806   7.842   5.909   2.025 -0.0479  0.1484  0.0133
 9807W        W 9807   7.494   2.080   4.675 -0.1570 -0.0205 -0.1084
 9808W        W 9808   5.642   9.066   7.300  0.2075  0.3043 -0.1761
 9809W        W 9809   1.853   6.705   8.557  0.0086 -0.0643 -0.1485
 9810W        W 9810   8.951   9.059   9.372 -0.0479  0.3243 -0.3488
 9811W        W 9811   2.846   0.592   8.574 -0.0702 -0.3012  0.2218
 9812W        W 9812   6.893   9.879   4.906 -0.1977 -0.0447 -0.0031
 9813W        W 9813   5.000   9.451   1.698 -0.2937 -0.0450  0.1302
 9814W        W 9814   8.981   3.280   9.662 -0.1743 -0.3738  0.1163
 9815W        W 9815   9.684   1.590   6.688  0.1319  0.1473  0.1634
 9816W        W 9816   7.127   6.678   2.506  0.2050 -0.0717 -0.2196
 9817W        W 9817   8.728   6.665   2.455  0.1338 -0.1442 -0.1942
 9818W        W 9818   6.734   6.287   8.933  0.0410  0.3244  0.0886
 9819W        W 9819   8.302   6.652   5.294  0.0104  0.0159 -0.2193
 9820W        W 9820   3.579   8.706   5.539  0.1491 -0.0315 -0.1061
 9821W        W 9821   1.839   6.039   5.096  0.2062 -0.1672  0.0791
 9822W        W 9822   0.887   2.314   0.286 -0.2439  0.0415  0.2418
 9823W        W 9823   3.113   5.384   0.321  0.0970  0.1711 -0.1730
 9824W        W 9824   4.699   3.207   5.419  0.0345 -0.2367  0.0966
 9825W        W 9825   3.957   2.572   8.824 -0.0675  0.0559 -0.1896
 9826W        W 9826   9.082   7.927   7.361 -0.2961  0.0756 -0.0423
 9827W        W 9827   0.444   7.023   6.555  0.2262 -0.3681  0.1779
 9828W        W 9828   8.215   5.287   3.751  0.4428 -0.0274  0.1751
 9829W        W 9829   4.274   1.790   8.640 -0.1776 -0.1456  0.0276
 9830W        W 9830   7.916   7.194   9.688  0.0907 -0.0857 -0.0016
 9831W        W 9831   4.587   5.555   3.919 -0.0590  0.0449 -0.1879
 9832W        W 9832   9.122   8.411   7.263 -0.0581  0.0434 -0.2680
 9833W        W 9833   8.497   4.496   7.570 -0.0121  0.1223  0.1588
 9834W        W 9834   9.145   2.301   5.184  0.0973  0.0963  0.1709
 9835W        W 9835   9.747   1.984   2.475  0.1589  0.0366  0.1425
 9836W        W 9836   8.787   0.118   1.992  0.1272  0.0729  0.1510
 9837W        W 9837   9.281   8.795   6.427  0.4583 -0.1048 -0.0147
 9838W        W 9838   6.112   3.001   8.399  0.5125  0.0769 -0.0925
 9839W        W 9839   8.203   0.038   6.987  0.0345  0.0204  0.2167
 9840W        W 9840   5.264   3.487   0.232  0.0702 -0.2164  0.3861
 9841W        W 9841   5.645  10.305   2.619  0.0837 -0.2143  0.1771
 9842W        W 9842   7.578   6.041   7.398 -0.1942 -0.3840 -0.0165
 9843W        W 9843   8.381   4.659   5.822  0.1937 -0.2441 -0.2614
 9844W        W 9844   2.949   1.372   7.288 -0.2299 -0.1253 -0.0717
 9845W        W 9845   8.716   7.391   8.139 -0.0543 -0.0625 -0.0496
 9846W        W 9846   8.983   6.364   3.495  0.0900 -0.1948 -0.2350
 9847W        W 9847   4.253   3.315   9.535  0.1113  0.2191  0.2539
 9848W        W 9848   8.659   0.000   0.245 -0.1346  0.0725  0.1552
 9849W        W 9849   8.861   9.003   0.568  0.0345  0.3388 -0.3174
 9850W        W 9850   0.370   3.096   3.647  0.0202  0.1131  0.1014
 9851W        W 9851  10.169   0.125   5.624 -0.0113 -0.1281 -0.0238
 9852W        W 9852   9.942   9.721   1.783  0.1582  0.3292  0.1832
 9853W        W 9853   4.098   2.597   0.997  0.2315 -0.5168  0.4273
 9854W        W 9854   4.068   4.872   5.330 -0.2164 -0.0471  0.2688
 9855W        W 9855   3.602   5.977   5.470  0.0315  0.0040  0.0061
 9856W        W 9856   4.929   2.288   6.526 -0.0809  0.0250  0.0894
 9857W        W 9857   2.092   0.178   5.532 -0.0386 -0.0733 -0.1993
 9858W        W 9858   7.536   1.547   7.078 -0.0671  0.1580 -0.2327
 9859W        W 9859   8.357   1.031  10.005 -0.2874 -0.4750  0.0840
 9860W        W 9860   2.659   5.542   8.791  0.0534 -0.3023 -0.4638
 9861W        W 9861   3.194   3.416   3.967  0.1594 -0.2941  0.2339
 9862W        W 9862   1.280   8.361   9.778 -0.1549 -0.0126  0.0722
 9863W        W 9863   1.637   1.572   3.326 -0.0739  0.3003 -0.1923
 9864W        W 9864   6.426   2.043   8.779  0.0741  0.0057  0.0975
 9865W        W 9865   8.182   5.481   6.126  0.0934  0.3460  0.1920
 9866W        W 9866   5.387   8.219   7.385  0.0467  0.0092  0.1127
 9867W        W 9867   8.952   3.716   2.700  0.0832 -0.2662 -0.0064
 9868W        W 9868  10.191   6.489   6.059 -0.1407  0.1128  0.0416
 9869W        W 9869   1.203   1.527   8.960 -0.1199  0.2478  0.1869
 9870W        W 9870   3.421   9.158   6.359 -0.0331 -0.1323 -0.1345
 9871W        W 9871   9.408   1.492   5.961 -0.0625 -0.0616  0.0759
 9872W        W 9872   9.074   2.513   3.773 -0.5896  0.2974  0.0762
 9873W        W 9873   4.846   5.110   0.436  0.1448 -0.1903  0.0590
 9874W        W 9874   0.692   5.765   7.101 -0.0904  0.1088 -0.2006
 9875W        W 9875   3.559  10.287   7.642 -0.0928  0.1682  0.1075
 9876W        W 9876   5.862   4.245   6.586 -0.1462 -0.0255 -0.0348
 9877W        W 9877   0.366   6.000   5.736  0.1818  0.3269 -0.1181
 9878W        W 9878   3.275   8.491   2.177  0.0384 -0.2000 -0.3752
 9879W        W 9879   2.556   8.567   9.440 -0.2781  0.1671 -0.0526
 9880W        W 9880   3.512   9.195   3.542  0.1035  0.4786 -0.0821
 9881W        W 9881   4.886   7.419   7.727 -0.4035  0.0577 -0.1735
 9882W        W 9882   0.791   9.744   5.284 -0.0945 -0.2563  0.2059
 9883W        W 9883   7.353   8.238   4.197 -0.0372  0.1147  0.2549
 9884W        W 9884   0.067   3.767   2.473  0.1912 -0.0456 -0.1311
 9885W        W 9885   6.545   1.720   3.846 -0.0609 -0.0881 -0.0041
 9886W        W 9886  10.232   9.971   4.446  0.1161 -0.0492 -0.0111
 9887W        W 9887   9.454   7.781   7.752 -0.0539 -0.0580  0.0898
 9888W        W 9888   8.003   1.398   1.968  0.3496 -0.1883  0.0370
 9889W        W 9889   0.587   7.109   1.283  0.0380 -0.1984  0.0937
 9890W        W 9890   1.101   9.896   6.736 -0.2317  0.2008  0.1210
 9891W        W 9891   1.243   6.531   7.420  0.1882  0.1318 -0.0835
 9892W        W 9892   2.794   2.675   9.657  0.0432  0.2621  0.1202
 9893W        W 9893   9.248   7.470   6.409 -0.2304 -0.1235  0.1144
 9894W        W 9894   9.600   2.593   6.030 -0.1275  0.1960  0.1180
 9895W        W 9895   5.506   5.201   2.088  0.0335  0.1600  0.0126
 9896W        W 9896   4.393   8.321   1.651 -0.1266 -0.1501 -0.0063
 9897W        W 9897   3.199   4.896   9.823 -0.2240  0.0142 -0.1394
 9898W        W 9898   0.917   8.085   5.074 -0.1918 -0.1716  0.1446
 9899W        W 9899  10.290   6.465   5.017  0.4110 -0.2500  0.1202
 9900W        W 9900   2.076   2.476   4.189  0.1512  0.1162 -0.1065
 9901W        W 9901   4.731   0.332  10.333  0.0437 -0.0018  0.2573
 9902W        W 9902   0.508   9.494  10.031 -0.0635 -0.1626  0.0041
 9903W        W 9903   5.166   0.220   4.442 -0.1278  0.1205  0.0761
 9904W        W 9904   4.218   4.698   3.572  0.0928 -0.1876  0.1777
 9905W        W 9905   0.631   2.476   1.817  0.0966 -0.1875 -0.1979
 9906W        W 9906   7.803   9.470   8.691 -0.2686  0.0370  0.1078
 9907W        W 9907   9.199   8.400   8.577  0.0841 -0.0614 -0.0963
 9908W        W 9908   7.775   8.057   7.338 -0.0249 -0.0059 -0.1930
 9909W        W 9909   4.337   2.742   4.359  0.2159  0.1792  0.0407
 9910W        W 9910   6.353   3.519   9.034 -0.0280  0.1705  0.1547
 9911W        W 9911   2.391   8.844   8.056 -0.4310 -0.4570 -0.0576
 9912W        W 9912   9.343   9.155   0.437 -0.4522  0.2266 -0.1854
 9913W        W 9913   3.096   4.205   5.536 -0.0799  0.0372  0.0877
 9914W        W 9914   6.557   5.797   5.859 -0.1071 -0.0968  0.1123
 9915W        W 9915   4.813   4.021   4.297  0.0978 -0.0179 -0.1438
 9916W        W 9916   3.484   1.795   8.686  0.2049 -0.2084  0.0348
 9917W        W 9917   1.026   0.848   8.846  0.0278 -0.0544  0.0641
 9918W        W 9918   8.164   9.462   0.051  0.0298 -0.2193 -0.3378
 9919W        W 9919   5.278   8.639   9.407 -0.0162  0.0623  0.2008
 9920W        W 9920   1.228   3.577   0.148 -0.2386 -0.0878  0.0967
 9921W        W 9921   8.161   0.966   1.747  0.1284 -0.3267 -0.1491
 9922W        W 9922   9.725   0.612   9.611 -0.0723  0.0735 -0.1517
 9923W        W 9923   8.479   9.041   0.017  0.2944  0.0704 -0.3286
 9924W        W 9924   0.842   0.832  10.025 -0.0844  0.1515  0.2065
 9925W        W 9925   1.870   9.527   4.142  0.0438  0.0631  0.3401
 9926W        W 9926   1.648   8.507   3.053  0.0638  0.1774 -0.1344
 9927W        W 9927   7.766  10.116   3.286  0.2224  0.0607 -0.0801
 9928W        W 9928   1.463   8.413   4.196  0.1323 -0.1335 -0.1041
 9929W        W 9929   7.423   3.682   6.577 -0.0525  0.1234  0.2232
 9930W        W 9930   2.083   7.377   9.474  0.0620 -0.1583 -0.3119
 9931W        W 9931   2.791   2.236   8.262 -0.5317  0.1484 -0.1536
 9932W        W 9932   3.742   3.584   8.250  0.2096 -0.1647 -0.1745
 9933W        W 9933   5.016   3.546   4.925 -0.0335  0.1127  0.1656
 9934W        W 9934   3.549   1.817   9.483  0.3152  0.1979 -0.1005
 9935W        W 9935   9.453   6.250   3.316  0.3189 -0.1489  0.3235
 9936W        W 9936   0.259   4.970   7.586  0.1224  0.1240 -0.4131
 9937W        W 9937   7.216   4.287   9.710 -0.1517 -0.2405  0.0506
 9938W        W 9938   9.187   5.420   3.376 -0.0053 -0.1352  0.0473
 9939W        W 9939   1.420   5.849  10.110  0.2969  0.2179  0.0650
 9940W        W 9940   1.331   0.111   8.550  0.1195 -0.0729  0.0584
 9941W        W 9941   2.039   5.175   6.894  0.1777  0.1185 -0.1054
 9942W        W 9942   5.673   2.207   3.644 -0.0571 -0.2064  0.0918
 9943W        W 9943   7.313   7.966   3.104  0.2002  0.1507  0.0341
 9944W        W 9944   1.729   3.362   0.305 -0.0661  0.2720  0.2784
 9945W        W 9945   2.683   8.805   2.179  0.0851 -0.0857 -0.2614
 9946W        W 9946   6.417   2.992   7.424 -0.0238  0.4113  0.1835
 9947W        W 9947   1.561   3.066   7.969 -0.4214 -0.0214  0.1829
 9948W        W 9948   1.218   0.448  10.067 -0.1435  0.2260  0.0857
 9949W        W 9949   6.267   4.086   7.859  0.1309  0.3177 -0.0986
 9950W        W 9950   3.020   6.240   8.266 -0.0686  0.1365  0.1691
 9951W        W 9951   5.031   2.160   0.232 -0.0722 -0.0783 -0.0669
 9952W        W 9952   2.235   7.537   5.339 -0.0054  0.1868 -0.1662
 9953W        W 9953   0.618   9.951   6.759 -0.0873 -0.0185  0.1404
 9954W        W 9954   6.989   8.275   2.159 -0.2321 -0.0836  0.3656
 9955W        W 9955   3.635  10.239   7.119 -0.1057  0.1816 -0.0983
 9956W        W 9956   1.965   2.206   5.496  0.2352 -0.1375  0.0047
 9957W        W 9957   5.094   0.134   5.716  0.0001 -0.2036 -0.0897
 9958W        W 9958   5.273   9.585   1.053  0.0386  0.2362 -0.0501
 9959W        W 9959   1.717   0.544   4.966  0.1052  0.2684  0.2964
 9960W        W 9960   0.698   2.282   6.002 -0.1843 -0.0652 -0.0753
 9961W        W 9961   9.086   9.883   5.667 -0.0513  0.4839  0.2666
 9962W        W 9962   2.089   7.737   9.002  0.0885  0.1329  0.0408
 9963W        W 9963   8.157   5.449   0.071  0.1445  0.0835  0.1204
 9964W        W 9964   2.654   9.439   1.915  0.1307  0.0274 -0.1510
 9965W        W 9965   2.092   2.698   5.163 -0.0549 -0.2873  0.1346
 9966W        W 9966   0.361   0.498  10.017  0.0369  0.0961 -0.0776
 9967W        W 9967   5.337   6.814   5.219  0.1387  0.0889 -0.3084
 9968W        W 9968   6.006   9.686   0.567  0.2298 -0.0096 -0.0232
 9969W        W 9969   3.063   0.296   8.206  0.0956 -0.1938  0.0071
 9970W        W 9970   7.761   5.863   1.518  0.4430 -0.1943 -0.1724
 9971W        W 9971   9.907   3.954   5.774 -0.1067  0.2441  0.3689
 9972W        W 9972   3.382   5.567   8.717  0.0655  0.0851 -0.0015
 9973W        W 9973   1.100   7.780   6.604  0.3605 -0.0150 -0.0213
 9974W        W 9974   6.642   3.909   6.026 -0.0465 -0.3232  0.1657
 9975W        W 9975   9.110   9.476   9.126  0.1295 -0.1199 -0.2713
 9976W        W 9976   9.993   6.883   2.419  0.5090  0.0767  0.0529
 9977W        W 9977   6.316   7.828   4.427  0.1789  0.3934  0.1779
 9978W        W 9978   5.461   9.601   7.957  0.1030 -0.1022  0.0402
 9979W        W 9979   9.841   0.079   5.213  0.2073 -0.0079  0.0169
 9980W        W 9980   5.687   6.266   2.790 -0.1104  0.2810  0.0921
 9981W        W 9981   4.062   9.167   9.700 -0.0891 -0.1418  0.2626
 9982W        W 9982   0.464   2.243   8.729 -0.0261  0.1181  0.2720
 9983W        W 9983   7.427   9.102   8.580  0.1531  0.0814  0.2756
 9984W        W 9984   2.212   9.739   1.275  0.0265 -0.0084 -0.1259
 9985W        W 9985   0.901   8.496  10.256 -0.0466 -0.1526  0.0370
 9986W        W 9986   9.000   3.139   4.992 -0.1216 -0.0135 -0.1652
 9987W        W 9987   5.794   8.839   2.070 -0.0745  0.1348 -0.1138
 9988W        W 9988   7.581   9.218   9.185 -0.0157  0.1016 -0.3554
 9989W        W 9989   7.953   5.278   5.684  0.0914  0.0090 -0.2200
 9990W        W 9990   3.641   5.697   4.984 -0.2533  0.0612 -0.1572
 9991W        W 9991   4.887   5.889   3.520 -0.0209  0.0971 -0.1371
 9992W        W 9992   3.593   4.275   9.020  0.1739 -0.0394  0.0619
 9993W        W 9993   3.239  10.320   1.198 -0.1230  0.0158  0.0346
 9994W        W 9994   1.482   0.886   3.970  0.0286 -0.0168 -0.0651
 9995W        W 9995   7.246   3.455   0.700  0.2013  0.0179 -0.0309
 9996W        W 9996   2.868   9.903   7.638 -0.0030 -0.1993 -0.3450
 9997W        W 9997   2.887   7.879   7.957 -0.3838 -0.0607  0.1172
 9998W        W 9998   5.875   5.163   4.990  0.4383  0.2893  0.3259
 9999W        W 9999   1.694   7.949   5.749 -0.3483 -0.0441 -0.3380
10000W        W10000   6.139   9.506   2.336 -0.0181 -0.2468  0.1481
10001W        W10001   5.225   1.494   9.797  0.0782  0.0569  0.0472
10002W        W10002   7.478   2.984   0.849  0.3123 -0.0344  0.1347
10003W        W10003   7.479   8.458   3.299 -0.0042 -0.0338  0.0155
10004W        W10004   9.832   0.077   0.002 -0.0151 -0.1799  0.2268
10005W        W10005   6.345   7.057   2.352  0.2834  0.3314  0.0288
10006W        W10006   8.115   7.735   4.452  0.1439 -0.1594 -0.3035
10007W        W10007   9.404   2.668   7.169 -0.1811 -0.0572  0.1858
10008W        W10008   6.285   2.083   9.433  0.1584 -0.0210 -0.2328
10009W        W10009   6.631   8.298   5.316  0.1310 -0.0372  0.1900
10010W        W10010   0.019   4.381  10.118 -0.0489  0.1638 -0.2166
10011W        W10011   7.157   1.108   9.428 -0.3114 -0.0075 -0.1550
10012W        W10012   1.095   5.619   0.522 -0.1586  0.1820 -0.1138
10013W        W10013   4.739   9.887   2.903 -0.4792  0.1530  0.1367
10014W        W10014   9.671   8.099   1.374  0.2671 -0.1779 -0.0987
10015W        W10015   0.662   1.274   1.894  0.3008 -0.0847  0.1472
10016W        W10016   7.666   4.668   3.380 -0.0929 -0.0225 -0.3871
10017W        W10017   0.042   6.081   4.751 -0.0753  0.2484 -0.0188
10018W        W10018   1.093   3.475   8.681 -0.3383  0.0149 -0.1500
10019W        W10019   0.719   8.484   5.354  0.0775 -0.1891 -0.0927
10020W        W10020   1.594   9.380   5.549 -0.0597  0.0565 -0.5094
10021W        W10021   8.039   1.795   3.721 -0.2368  0.0521 -0.1718
10022W        W10022   5.376   8.713   3.007 -0.0676  0.0136  0.2933
10023W        W10023   6.745   6.536   7.631  0.0392 -0.4410  0.2359
10024W        W10024   4.468   0.866   4.546  0.2851  0.1103 -0.1240
10025W        W10025   2.165   2.513   7.143 -0.3419  0.0645  0.2649
10026W        W10026   8.306   9.339   7.000 -0.1821 -0.3873  0.1001
10027W        W10027   3.128   0.911   3.108  0.0361 -0.0526  0.1832
10028W        W10028   0.067   5.654   8.282  0.1428 -0.0850 -0.1016
10029W        W10029   7.404   1.153   8.986 -0.0520 -0.0919  0.0112
10030W        W10030   0.046   6.494   8.057  0.2349  0.2738 -0.0314
10031W        W10031   0.113   1.742   1.167  0.1563 -0.3832  0.3439
10032W        W10032   4.619   7.418   4.731  0.1621 -0.1089  0.0245
10033W        W10033   3.782   3.022   0.410  0.3073 -0.5248  0.3822
10034W        W10034   4.246   9.061   6.301  0.1688 -0.5681  0.2239
10035W        W10035   1.531   5.640   7.305  0.3603  0.0162 -0.2070
10036W        W10036   3.089   8.348   7.513  0.1006  0.1085 -0.1371
10037W        W10037   9.630   2.590   4.463 -0.1362  0.0361  0.1177
10038W        W10038   7.188   8.455   7.898 -0.1522  0.0239 -0.2390
10039W        W10039   4.509   7.888   0.430 -0.3566 -0.3833  0.2133
10040W        W10040   4.279   2.500   1.964  0.0881 -0.0706 -0.1602
10041W        W10041   8.832   0.986   0.360  0.1037 -0.0595  0.1805
10042W        W10042   5.374   5.168   7.593 -0.1714 -0.1387 -0.1405
10043W        W10043   7.567   4.252  10.146  0.0560 -0.1641 -0.1209
10044W        W10044   4.311   5.094   3.116 -0.0465  0.0695 -0.3825
10045W        W10045   9.022   3.432   8.710  0.3044 -0.0561  0.1696
10046W        W10046   8.357   4.001   1.120  0.1059  0.5842 -0.2104
10047W        W10047   0.650   3.668   0.052  0.0556 -0.0174 -0.2376
10048W        W10048   5.938   8.007   9.195  0.0456  0.1678 -0.0024
10049W        W10049   4.367   4.579   1.551 -0.0696 -0.0795  0.1190
10050W        W10050   3.597   3.621   2.505 -0.1485  0.0459  0.0238
10051W        W10051   0.845   5.018   1.842  0.6803 -0.0281 -0.0936
10052W        W10052   2.277   3.910   4.327  0.2663  0.2103  0.1729
10053W        W10053   4.020   2.677   2.636 -0.0021  0.1113  0.0375
10054W        W10054   2.589   7.656   4.840  0.2241 -0.4900  0.0156
10055W        W10055   1.707   7.726   4.159  0.3171 -0.0771 -0.2111
10056W        W10056   7.965   1.910   6.405 -0.0371  0.0383  0.0367
10057W        W10057   1.076   9.612   3.719 -0.1473 -0.0237 -0.0187
10058W        W10058   5.284   2.214   8.194  0.0625 -0.0075 -0.2145
10059W        W10059   6.100   2.190   3.934  0.0006  0.2027 -0.0926
10060W        W10060   0.096   7.259   1.264  0.0606  0.1910  0.2368
10061W        W10061   4.684   0.371   4.425  0.0828 -0.0158  0.1863
10062W        W10062   9.301   6.126   2.487 -0.0575  0.3538 -0.0972
10063W        W10063   8.199   8.645   4.583 -0.1212  0.2922  0.1530
10064W        W10064   5.799   3.745   3.808  0.0930  0.1002 -0.0703
10065W        W10065   7.228   5.517   0.225  0.2574 -0.1152  0.3254
10066W        W10066   5.598   4.330   7.506  0.2325  0.1890  0.1688
10067W        W10067   0.218   0.207   5.253  0.0311  0.1296  0.3932
10068W        W10068   1.857   7.082   6.244 -0.0532  0.0168 -0.2531
10069W        W10069   0.981   3.004   9.299  0.5710 -0.0362 -0.1717
10070W        W10070   2.675   6.728   9.799  0.0548  0.0547 -0.2059
10071W        W10071   6.735   7.622   0.835  0.0029  0.2469 -0.0758
10072W        W10072   4.559   4.707   1.081  0.2013 -0.1932  0.1004
10073W        W10073   3.555   2.887   2.130  0.0619  0.3437  0.1435
10074W        W10074   5.739   4.538   9.892  0.0145  0.1061  0.1269
10075W        W10075   3.560   7.442   5.734  0.0854 -0.0913  0.0426
10076W        W10076   2.650   2.456  10.068  0.1124  0.1851 -0.1390
10077W        W10077   8.346   4.793   9.173 -0.0779 -0.1504  0.2618
10078W        W10078   2.518   3.838   6.030  0.0647  0.0399  0.1759
10079W        W10079   2.185   7.169   3.279 -0.1452 -0.4909 -0.1976
10080W        W10080   0.943   7.385   2.035 -0.0359 -0.1063  0.1978
10081W        W10081   4.539   6.827   2.758  0.0029 -0.2386 -0.0616
10082W        W10082   7.054   3.775   6.914  0.1273  0.1832 -0.1093
10083W        W10083   9.206   7.409   3.386  0.2594  0.1497 -0.2191
10084W        W10084   8.530   7.283   6.055  0.0134 -0.2199  0.1102
10085W        W10085   3.829   4.549   2.409 -0.0528  0.0437 -0.0552
10086W        W10086   8.519   4.305   3.039  0.1740 -0.0662  0.0801
10087W        W10087   4.811   5.183   4.220 -0.0478  0.0600  0.3161
10088W        W10088   4.866  10.314   4.786  0.3108 -0.0865  0.1362
10089W        W10089   0.707   4.820   7.370  0.0455 -0.1093 -0.0254
10090W        W10090   7.186   4.239   8.937 -0.2242 -0.0132 -0.1198
10091W        W10091   0.122   0.410   3.972  0.0762 -0.0162 -0.0602
10092W        W10092   5.590   1.398   3.019  0.2030 -0.2953  0.0465
10093W        W10093   8.047   3.741   5.838  0.2568 -0.1302 -0.1208
10094W        W10094   8.212   4.123   9.321 -0.0852 -0.0868 -0.1385
10095W        W10095   3.244   2.604  10.015 -0.1172 -0.1019  0.2573
10096W        W10096   4.662   2.990   0.641 -0.2604 -0.2848 -0.0441
10097W        W10097   0.778   9.100  10.314 -0.1012  0.0414  0.1339
10098W        W10098   7.433   5.283   4.543  0.1976  0.0645  0.3236
10099W        W10099   3.745   1.935   1.563  0.4582 -0.1962 -0.0681
10100W        W10100   5.537   2.980   3.082 -0.0544  0.1537 -0.2187
10101W        W10101   7.318   9.559   5.107  0.1988 -0.0064  0.0765
10102W        W10102   6.323   5.076   8.949 -0.2754 -0.1213  0.0230
10103W        W10103   3.094   8.757  10.077  0.0596 -0.2013 -0.1847
10104W        W10104   9.117   0.466   8.849  0.0899  0.1303  0.0234
10105W        W10105   0.106   0.152   2.457 -0.2653  0.0028 -0.1934
10106W        W10106   8.678   3.282   8.355  0.1020  0.0738 -0.4465
10107W        W10107   8.101   5.132   9.487  0.2150 -0.0160  0.0712
10108W        W10108   9.723   1.086   2.580  0.2800  0.0318 -0.0188
10109W        W10109  10.304   7.529   8.122  0.1215 -0.0475 -0.1005
10110W        W10110   1.674   5.415   0.438 -0.1321  0.0978  0.2816
10111W        W10111   1.685   6.406   9.782 -0.1380  0.2037  0.1894
10112W        W10112   5.729   2.402   3.102 -0.2300 -0.1328 -0.0062
10113W        W10113   7.404   7.277   0.223  0.0209 -0.2383 -0.0006
10114W        W10114   8.463   1.009   4.891 -0.2003 -0.0485  0.2093
10115W        W10115   8.888   3.939   8.791 -0.1997 -0.0327  0.1793
10116W        W10116   7.640   9.585   6.605 -0.3548 -0.1878 -0.2073
10117W        W10117   2.706   6.705   4.913 -0.2449  0.3332 -0.2287
10118W        W10118   6.826   4.237   5.151  0.0298 -0.0448  0.0305
10119W        W10119   6.593   6.299   1.927  0.0907 -0.1836 -0.1299
10120W        W10120   7.014   9.815   8.482 -0.1276 -0.1529  0.1828
10121W        W10121   6.590   4.499   2.074 -0.0799 -0.0510  0.0088
10122W        W10122   2.178   5.598   2.393  0.1387  0.1674 -0.2498
10123W        W10123   2.632   0.809  10.319  0.0183  0.3639 -0.1679
10124W        W10124  10.282   5.806   6.042 -0.2154  0.0459  0.1479
10125W        W10125   9.593   3.668   9.908 -0.0749 -0.2748 -0.1046
10126W        W10126   3.032   4.350   7.624  0.2921  0.3135 -0.0249
10127W        W10127   7.733   1.504   6.556 -0.1005 -0.0425 -0.1308
10128W        W10128   4.730   5.717   8.341 -0.4416 -0.1890  0.0399
10129W        W10129   0.428   7.397   6.193 -0.2544 -0.1087  0.2452
10130W        W10130   7.887   7.899   3.796  0.4217 -0.1275 -0.2240
10131W        W10131   2.918   7.361   6.364 -0.2556  0.1781 -0.2929
10132W        W10132   6.546   1.046   4.554 -0.0361 -0.0323  0.1822
10133W        W10133   6.898   6.959   5.186  0.2041  0.3161  0.1784
10134W        W10134   4.720   4.002   9.931  0.1528 -0.1535  0.0987
10135W        W10135   9.683  10.303   3.121 -0.3001 -0.2020  0.1115
10136W        W10136   8.913  10.221   8.463 -0.1402 -0.0056 -0.3023
10137W        W10137   5.289   2.436   3.885  0.1583  0.1227  0.1701
10138W        W10138   9.175   1.162   5.601  0.0023 -0.2236 -0.2563
10139W        W10139   2.664   8.938   1.626 -0.0026 -0.0637 -0.1540
10140W        W10140  10.322   6.628   4.514 -0.0783 -0.1304 -0.2300
10141W        W10141   5.379   5.758   6.710 -0.1418  0.1126 -0.0174
10142W        W10142   3.824   3.284   4.871  0.1226  0.2428  0.0045
10143W        W10143   7.445   8.486   5.206 -0.0576  0.0946  0.0633
10144W        W10144   1.831   3.762   0.602  0.0710 -0.0194 -0.2838
10145W        W10145   8.855   1.704   3.094  0.3009 -0.4420 -0.1713
10146W        W10146   5.327   0.429   7.596 -0.0350  0.0794 -0.1837
10147W        W10147   4.114   8.466   3.137  0.1450 -0.1896  0.3067
10148W        W10148   2.275   2.349   2.441  0.2257  0.3558  0.0399
10149W        W10149   7.451   1.093   8.375  0.4696 -0.2558 -0.1944
10150W        W10150   5.336   3.149   6.711  0.3121 -0.2089 -0.0581
10151W        W10151   3.201   5.224   1.139 -0.0722  0.1686  0.0885
10152W        W10152   5.774   4.455   2.006  0.0770 -0.0117  0.1749
10153W        W10153   3.340   5.584   7.543  0.2048 -0.0128  0.0087
10154W        W10154   5.968   9.769   7.599 -0.0993  0.0013  0.1597
10155W        W10155   8.273   4.750   8.181 -0.1562  0.0421 -0.0858
10156W        W10156   5.715   9.522   9.462 -0.3170  0.1956  0.3433
10157W        W10157   9.695   1.273   3.946  0.0139 -0.2660  0.0850
10158W        W10158   1.752   4.925   1.317 -0.3032 -0.0219  0.0228
10159W        W10159   7.518   1.851   1.077 -0.0945 -0.0150  0.0341
10160W        W10160   4.925   4.758   6.894 -0.2295  0.2428 -0.1159
10161W        W10161   4.365   8.714   9.904  0.0645 -0.2908 -0.0974
10162W        W10162   0.453   9.373   0.235  0.0039 -0.1280  0.2056
10163W        W10163   4.435   0.801   2.890 -0.3651  0.0796 -0.0739
10164W        W10164   8.778   6.041   1.633  0.1530  0.0860  0.0085
10165W        W10165   7.678   9.739   4.807  0.1512 -0.2324 -0.1823
10166W        W10166   1.701   9.403   6.057 -0.2130 -0.0624  0.1701
10167W        W10167   4.746   3.064   2.662  0.0737  0.3137  0.1321
10168W        W10168   5.158   6.147   2.828 -0.0763  0.0657  0.1452
10169W        W10169   3.342   8.570   9.295 -0.0700  0.3528  0.4587
10170W        W10170   3.021   3.775   0.113 -0.1350  0.0347 -0.1804
10171W        W10171   8.093   5.495   8.694 -0.1660  0.1479 -0.0914
10172W        W10172   0.916   7.881   8.129 -0.0397  0.2536 -0.1733
10173W        W10173   8.965   5.589   3.990 -0.0581  0.0543  0.1290
10174W        W10174   7.930   3.936   8.428 -0.0120  0.0700 -0.2009
10175W        W10175   4.203   9.975   6.722 -0.1910  0.0357  0.3021
10176W        W10176   6.574   8.270   5.781  0.1003 -0.0702 -0.1267
10177W        W10177   0.155   0.382   1.512 -0.0015 -0.1142 -0.2365
10178W        W10178   4.659   3.973   1.781  0.2894  0.2472  0.0673
10179W        W10179   0.602   8.301   9.369 -0.0476 -0.2020 -0.0684
10180W        W10180   0.969   4.171   2.947  0.1392  0.2283 -0.1066
10181W        W10181   5.470   6.002   5.753  0.2034  0.0104  0.0167
10182W        W10182   7.587   2.709   3.856 -0.0524 -0.2226  0.0755
10183W        W10183   9.292   5.194   3.958 -0.1044 -0.0070  0.2855
10184W        W10184   1.110   7.166   5.740 -0.1279  0.2852  0.1454
10185W        W10185   2.547  10.323   9.198  0.0049  0.0087 -0.0949
10186W        W10186   9.472   9.482  10.336  0.1415  0.2894 -0.1763
10187W        W10187   3.151   4.218   8.282 -0.1555 -0.0292  0.0478
10188W        W10188   0.859   4.741   7.948 -0.2275 -0.0824 -0.1329
10189W        W10189   2.002   0.802   8.875  0.0368 -0.1959  0.1960
10190W        W10190   8.948   6.631   4.857  0.0571 -0.2943 -0.2772
10191W        W10191   6.661   4.912   1.493 -0.1899 -0.1564 -0.0922
10192W        W10192   9.761   1.577   2.775 -0.2017 -0.0880  0.2529
10193W        W10193   9.555   6.356   6.118  0.0103  0.0227  0.1269
10194W        W10194   9.796   2.056   4.802  0.1547 -0.0603 -0.1134
10195W        W10195   4.204   0.148   5.491  0.2420 -0.0622  0.3486
10196W        W10196   8.764   8.710   5.178  0.0954 -0.1570 -0.2327
10197W        W10197   6.296   7.529   2.095 -0.0241 -0.0245  0.1894
10198W        W10198   2.314   6.800   8.295  0.1330  0.2417  0.0267
10199W        W10199   3.695   1.086   8.657  0.1534 -0.0492  0.0244
10200W        W10200   7.382   8.379   6.344  0.0675 -0.1095  0.2323
10201W        W10201   4.192   8.918   0.616  0.0230 -0.0600  0.1095
10202W        W10202   5.783   4.945   9.096  0.4086  0.0198 -0.3098
10203W        W10203   0.595   6.563   2.112  0.1979 -0.3408  0.1087
10204W        W10204   7.231   9.106   5.325 -0.0934  0.1014  0.1512
10205W        W10205   2.562   9.588  10.313 -0.2294 -0.0028 -0.2632
10206W        W10206   1.410   4.356   4.994  0.1665  0.1347  0.2469
10207W        W10207   0.528   4.314   3.177  0.1705 -0.0224 -0.1171
10208W        W10208   0.276   2.202   5.750  0.2904  0.2255 -0.1866
10209W        W10209   4.124   2.368   3.021  0.2758 -0.0415 -0.2612
10210W        W10210  10.237   4.920   5.766 -0.0033  0.0695  0.1206
10211W        W10211   9.920   3.074   5.285  0.0993  0.1945 -0.1121
10212W        W10212   0.712   5.035   3.178  0.2357  0.0704 -0.1878
10213W        W10213   5.560   9.038   1.085 -0.2573  0.1679 -0.1068
10214W        W10214   5.900   3.521   2.349 -0.4126  0.0302  0.0415
10215W        W10215   5.101   2.085   4.644  0.0835  0.1444  0.1796
10216W        W10216   5.587   1.510   2.077 -0.1078  0.1188  0.4076
10217W        W10217   0.948   3.310   6.194 -0.0837 -0.2742 -0.4558
10218W        W10218   5.158   9.521   8.385  0.2114 -0.2041  0.0777
10219W        W10219   3.117   4.087   3.267  0.2931 -0.2564 -0.2197
10220W        W10220   8.863   7.339   0.890  0.0061  0.0971  0.0195
10221W        W10221   3.426  10.241   0.732  0.0380  0.0067 -0.1765
10222W        W10222   5.044   1.165   7.025 -0.1650 -0.0705 -0.0007
10223W        W10223   0.274   6.347   7.466 -0.0281 -0.3245 -0.1825
10224W        W10224   1.891   9.622   1.927  0.1893 -0.1471  0.3152
10225W        W10225   0.815   1.342   3.384  0.1085  0.0016  0.0013
10226W        W10226   9.141   6.590   6.263  0.1120  0.1242 -0.0884
10227W        W10227   3.775   1.335   4.992  0.0237  0.2659  0.0641
10228W        W10228   1.167   6.950   1.063  0.0124  0.1090 -0.3275
10229W        W10229   8.145   7.348   8.230  0.2581  0.0073  0.1292
10230W        W10230   3.570   4.911   0.967  0.0881 -0.1575 -0.1068
10231W        W10231   9.882   6.605   4.203  0.1799 -0.3713  0.2531
10232W        W10232   6.787   4.707   0.308 -0.0561  0.0962  0.0278
10233W        W10233   0.494   9.808   4.172 -0.2488  0.1486 -0.3743
10234W        W10234   4.490   3.904   2.242 -0.3132  0.0641  0.0133
10235W        W10235   6.558   8.504   3.664 -0.1133  0.0026  0.0532
10236W        W10236   3.116   1.957   0.001  0.1032 -0.0343 -0.1450
10237W        W10237   7.612   2.267   5.556  0.1862  0.0355 -0.1824
10238W        W10238   0.124   3.461  10.211 -0.0129 -0.2205 -0.2597
10239W        W10239   2.302   3.159   7.972  0.0612 -0.0801  0.1177
10240W        W10240   4.990   3.383   0.633 -0.1193  0.0599 -0.1016
10241W        W10241   7.642   3.245   5.676  0.1106  0.3200 -0.2579
10242W        W10242   6.083   4.901   4.261 -0.2140 -0.0850 -0.0814
10243W        W10243   1.383   7.423   6.930 -0.0772 -0.2415 -0.0682
10244W        W10244   1.387   9.177   7.309  0.0250  0.0442  0.1162
10245W        W10245   4.406   7.856   8.858 -0.3138  0.2210 -0.1092
10246W        W10246   5.329   5.936   5.283 -0.0127 -0.0645 -0.2141
10247W        W10247   0.064   1.269   5.053 -0.0930 -0.1315  0.0038
10248W        W10248   4.243   9.989   9.792  0.0730  0.1269 -0.1848
10249W        W10249   7.950   9.329   4.670  0.3437 -0.0793  0.0975
10250W        W10250   9.135   2.566   7.950  0.1274  0.0834  0.1297
10251W        W10251   3.288   3.757   5.668  0.1051  0.0325 -0.0531
10252W        W10252   8.474   0.627   9.693 -0.2895 -0.2088  0.0960
10253W        W10253   6.334   6.451   4.022 -0.0445 -0.0003  0.2652
10254W        W10254   4.138   5.028   1.705 -0.3252  0.1451  0.2278
10255W        W10255   3.770   9.979   2.865  0.1981  0.4866 -0.3400
10256W        W10256   9.252   1.531   9.422 -0.0442  0.2490  0.3450
10257W        W10257   2.321   3.774   1.335  0.0048  0.3407  0.0307
10258W        W10258   1.934   8.359   0.117 -0.2862 -0.1291 -0.1229
10259W        W10259   8.896   4.618   7.275 -0.0569  0.2379  0.0399
10260W        W10260   3.131   1.065   6.499  0.1692  0.0231 -0.1773
10261W        W10261   9.299   7.708   9.202 -0.2090  0.0358  0.0549
10262W        W10262   2.795   3.184   2.182  0.0385 -0.0468 -0.0146
10263W        W10263   3.246   6.546   6.049  0.0774  0.0488 -0.0720
10264W        W10264   7.921  10.002   2.854  0.1169  0.1218 -0.1410
10265W        W10265   9.562   0.695   4.766 -0.0537 -0.2335  0.2065
10266W        W10266   0.746   7.801   7.093 -0.1737 -0.0067 -0.0885
10267W        W10267   2.806   9.780   3.760 -0.0910  0.1244  0.2751
10268W        W10268   0.446   4.534   7.730  0.2233 -0.1073 -0.1574
10269W        W10269   5.367   4.585   3.834  0.1220  0.0060  0.1508
10270W        W10270   5.050  10.146   3.257 -0.2932 -0.2678  0.2170
10271W        W10271   1.787   4.007   4.301  0.3786 -0.3505  0.4113
10272W        W10272   7.129   3.815   8.376  0.1105 -0.2071 -0.0396
10273W        W10273   4.725   7.639   5.298  0.1259 -0.1903 -0.0011
10274W        W10274   8.060   7.430   6.036  0.3307  0.1345 -0.0591
10275W        W10275   0.543   7.540   6.725  0.0202 -0.4248 -0.0998
10276W        W10276   1.700   9.410   8.298 -0.0805  0.1003 -0.1427
10277W        W10277   7.005   9.751   5.890 -0.1637  0.2587  0.1959
10278W        W10278   8.105   0.903   4.569  0.3353 -0.0520  0.1278
10279W        W10279   6.684   0.129   6.035 -0.1186 -0.1097  0.1027
10280W        W10280   2.552   6.349   4.172  0.2187 -0.0404  0.0871
10281W        W10281   6.280   5.682   0.077  0.4013 -0.1610  0.1982
10282W        W10282   7.076   1.974   2.657 -0.0037 -0.0474  0.3909
10283W        W10283   3.584   0.800   4.068 -0.1220  0.1619  0.0703
10284W        W10284   7.596   0.696   1.457  0.0636  0.1923  0.3423
10285W        W10285   0.616   6.712   0.300  0.0536  0.1356 -0.2345
10286W        W10286   3.233   4.525   0.051  0.2196  0.1073 -0.0482
10287W        W10287   2.219   8.615   7.123  0.0147  0.0202  0.1801
10288W        W10288   1.033   2.115   6.411 -0.1106 -0.0827 -0.1386
10289W        W10289   4.621   3.853   7.797 -0.1308 -0.1089 -0.0988
10290W        W10290   0.410   6.403   4.735  0.0341  0.0214 -0.0826
10291W        W10291   5.488   6.604  10.337  0.0596  0.0473  0.2511
10292W        W10292   9.510   3.340   3.303  0.0081  0.0668  0.3115
10293W        W10293   6.323   3.037  10.233  0.0501  0.4378 -0.0269
10294W        W10294   3.074   5.156   5.878 -0.1494 -0.4022  0.0579
10295W        W10295   1.766   7.908   5.096  0.4336 -0.0687  0.0123
10296W        W10296   6.263   0.336   2.059  0.0770  0.0149  0.1971
10297W        W10297   2.096   6.339   6.695 -0.0420 -0.2127  0.4317
10298W        W10298   3.147   7.475   4.530  0.0772  0.0625  0.2909
10299W        W10299   1.851   5.111   5.444 -0.1719  0.0893  0.1416
10300W        W10300   5.409   7.392   5.891 -0.0344 -0.2365 -0.0939
10301W        W10301   9.151   2.598   9.060  0.0326  0.1119  0.1225
10302W        W10302   9.382   4.184   8.644  0.3807 -0.1865  0.1841
10303W        W10303   7.080   6.286   4.484 -0.5392  0.2762  0.1480
10304W        W10304   6.354   9.406   4.630  0.0042 -0.1331 -0.0894
10305W        W10305   8.262   1.589   4.126 -0.2299 -0.0322  0.0734
10306W        W10306   2.373  10.022   3.658  0.0812  0.3279  0.1375
10307W        W10307   7.448   6.077   5.553  0.3477  0.0840 -0.1014
10308W        W10308   8.490   9.009   6.549  0.0705  0.1480 -0.2866
10309W        W10309   9.735   4.427   7.302  0.2103 -0.2269  0.0454
10310W        W10310   7.214   2.886   6.128  0.0478  0.1030 -0.2246
10311W        W10311   1.852   3.492   2.216  0.3214 -0.3292 -0.3284
10312W        W10312   8.402   8.160   1.900  0.1372  0.1707  0.0992
10313W        W10313   9.872   3.997   1.503 -0.1242  0.1196  0.0728
10314W        W10314   2.503   8.156   7.983  0.0740 -0.0065  0.4754
10315W        W10315   5.672   7.230   9.219  0.1192 -0.0170 -0.1024
10316W        W10316   5.923   3.797   7.600 -0.1257  0.0787 -0.1616
10317W        W10317   4.438   4.505   6.802 -0.2586  0.0634  0.0783
10318W        W10318  10.276   7.165   2.073  0.0440 -0.0696  0.0925
10319W        W10319   4.324   9.567   6.443 -0.0391  0.0419 -0.2955
10320W        W10320   3.781   6.450   2.711  0.0508 -0.0035  0.0901
10321W        W10321   0.569   1.877   5.550 -0.0484  0.3093  0.0720
10322W        W10322   0.568   5.782   0.239  0.0118 -0.0586  0.1074
10323W        W10323   3.471  10.048   5.795  0.2038  0.0577  0.0338
10324W        W10324   1.399   2.448   2.856  0.2027 -0.2568 -0.1287
10325W        W10325   8.083   3.823   1.990 -0.0683 -0.0826  0.1121
10326W        W10326   8.123   2.763   4.745  0.3537 -0.2169  0.0548
10327W        W10327   4.129   0.668   7.438  0.0728 -0.1990  0.2235
10328W        W10328   8.923   9.742   3.532  0.0567  0.0585 -0.1955
10329W        W10329   2.628   5.771   4.174 -0.0712 -0.1766  0.0483
10330W        W10330   8.175   2.948   9.557 -0.0966  0.1727  0.2928
10331W        W10331   9.420   8.561   4.472 -0.1143 -0.0318 -0.0396
10332W        W10332   9.114   5.657   9.988 -0.1915  0.1596 -0.0733
10333W        W10333   1.003   2.386   8.621  0.3733 -0.2370  0.0258
10334W        W10334   1.513   1.109   8.919 -0.1615 -0.0815  0.0816
10335W        W10335   3.178   8.739   8.320  0.0870  0.0817  0.0261
10336W        W10336   1.563   5.786   3.928 -0.2168  0.3615  0.1467
10337W        W10337   5.503   9.384   1.520  0.1551  0.2010  0.2591
10338W        W10338   6.329   6.151   7.592 -0.1087  0.1643  0.0583
10339W        W10339   1.161   4.411   8.542 -0.0454 -0.0828 -0.0380
10340W        W10340   8.821   5.717   5.771 -0.1501 -0.1101  0.1613
10341W        W10341  10.250   2.153   0.564 -0.0910 -0.2306  0.0045
10342W        W10342   8.419   9.487   2.006 -0.1552  0.1545  0.0880
10343W        W10343   1.717   3.778   9.697  0.1976 -0.1033 -0.1820
10344W        W10344   5.726   9.505   0.934  0.3128  0.0848  0.0987
10345W        W10345   6.375   3.144   0.735  0.0899 -0.0660  0.1090
10346W        W10346   3.630   9.625   0.970  0.0628 -0.1267  0.0416
10347W        W10347   8.887   1.228   8.472 -0.0122  0.0996 -0.4122
10348W        W10348   4.110   6.500   0.903  0.2186  0.0516 -0.1504
10349W        W10349   7.386   3.758   9.680  0.1411  0.0018  0.1533
10350W        W10350   5.740   8.923   1.533  0.3451  0.1249 -0.1437
10351W        W10351   0.973   0.553   7.872  0.1148 -0.0131  0.0629
10352W        W10352   1.801  10.313   2.924 -0.3710 -0.2190  0.1798
10353W        W10353   1.252   9.400   6.272  0.0159  0.1302  0.2292
10354W        W10354   6.427   2.800   2.503  0.2798  0.1808  0.2929
10355W        W10355   2.900   7.545   5.614 -0.0079  0.0864  0.3358
10356W        W10356   0.581   7.051   3.926 -0.3537 -0.0072 -0.0129
10357W        W10357   0.607   5.621   7.950 -0.0351 -0.1850  0.0431
10358W        W10358   5.733   1.107   1.144  0.0000  0.3531  0.0973
10359W        W10359   7.724   9.768   0.722 -0.0137  0.0693  0.1017
10360W        W10360   7.261   0.342   4.631 -0.1800  0.2710 -0.0901
10361W        W10361   5.500   3.915   7.811  0.0258  0.2649  0.3901
10362W        W10362   0.055   0.462   7.542 -0.0739 -0.0351  0.2777
10363W        W10363   3.933   0.733   2.782 -0.2224 -0.0786  0.1694
10364W        W10364   9.845   5.876   3.964  0.0110  0.2282  0.2144
10365W        W10365   5.541   6.235   6.565  0.0971  0.1061  0.2788
10366W        W10366   8.194   9.578   7.475  0.1341 -0.3703 -0.1688
10367W        W10367   3.730   9.953   9.732  0.1345  0.4959  0.1036
10368W        W10368   0.872   5.412   2.269 -0.0545  0.0157  0.1713
10369W        W10369   5.607   7.969   6.367  0.0154  0.0982 -0.1776
10370W        W10370   7.146   1.783   4.463 -0.3028  0.1811 -0.2238
10371W        W10371   9.030   9.688   6.076  0.4694  0.1734  0.2242
10372W        W10372   2.009   8.175   3.093  0.1327 -0.5368  0.1322
10373W        W10373  10.222   1.037   4.682 -0.1252 -0.1046 -0.2198
10374W        W10374   1.695   8.694   9.602  0.0572  0.1376  0.1139
10375W        W10375   9.859   8.454   1.653  0.0699  0.1349  0.1121
10376W        W10376   7.334   8.086   2.570  0.1188  0.1543  0.1530
10377W        W10377   8.364   9.768   5.292  0.2417 -0.1848 -0.2367
10378W        W10378  10.000   1.452   2.330 -0.0164 -0.0817 -0.2458
10379W        W10379   9.577   9.616   2.657 -0.0058  0.1991  0.3508
10380W        W10380   2.895   6.600   7.296  0.0100 -0.2526  0.0461
10381W        W10381   3.168   9.149   9.736 -0.0315  0.0996 -0.1441
10382W        W10382   9.125   7.778   4.871  0.0551 -0.1765 -0.1256
10383W        W10383   7.561   7.358   5.900 -0.0590  0.0131  0.0826
10384W        W10384   7.052   1.569   7.189  0.0339  0.1835 -0.2526
10385W        W10385   7.613   2.475   8.505 -0.2034 -0.1389 -0.0098
10386W        W10386   1.132  10.103   3.634  0.0837  0.1091  0.1297
10387W        W10387   8.356   2.183   1.149 -0.1667  0.1304  0.0488
10388W        W10388  10.203   4.469   5.994  0.2047  0.1042 -0.2119
10389W        W10389   5.151   6.600   4.728  0.1411  0.3228 -0.0541
10390W        W10390  10.232   3.653   0.395  0.0090 -0.1381 -0.0190
10391W        W10391  10.095   8.699   4.654 -0.1821 -0.3367  0.3910
10392W        W10392   0.823   9.554   1.419 -0.0576  0.1625  0.2584
10393W        W10393   5.119   0.844   7.764 -0.2156  0.0747 -0.2079
10394W        W10394   3.099   3.422   8.766  0.2488  0.0535  0.2441
10395W        W10395   4.971   9.898   5.453 -0.0173  0.0337 -0.0258
10396W        W10396   0.727   7.782   6.244  0.0591 -0.0710  0.0911
10397W        W10397   3.834   9.834   3.859  0.1763  0.0916  0.1666
10398W        W10398   8.881   9.111   4.038  0.1451 -0.3526 -0.1034
10399W        W10399   6.055   5.564   9.884  0.2270  0.1658  0.0341
10400W        W10400   3.243   1.872   8.176  0.0185  0.0191  0.4549
10401W        W10401   4.961   2.730   4.089 -0.0265 -0.1100 -0.1944
10402W        W10402   6.136   5.510   5.264 -0.1198  0.1824  0.0147
10403W        W10403   1.525   0.474   2.440 -0.0424  0.0627 -0.1365
10404W        W10404   1.750   1.769   5.360 -0.0907 -0.2202 -0.1020
10405W        W10405   9.451   7.734   8.421 -0.1383 -0.1306 -0.0181
10406W        W10406   0.074   4.263   2.435  0.1949  0.3106 -0.0207
10407W        W10407   9.208   7.443   8.784  0.0529 -0.1889  0.1175
10408W        W10408   8.383   0.562   7.676  0.0922  0.0845  0.1463
10409W        W10409   7.613   0.170   4.950 -0.0155 -0.1766  0.0134
10410W        W10410   4.242   2.548   7.584  0.1569  0.1886  0.0432
10411W        W10411   5.068   0.546   7.154  0.0242 -0.1133 -0.1610
10412W        W10412   3.756   2.509   9.974  0.0758 -0.2356 -0.2014
10413W        W10413   2.603   8.458   5.298 -0.0402 -0.1666  0.3079
10414W        W10414   9.536   5.256   7.330  0.0079 -0.0817  0.4211
10415W        W10415   7.449   3.088  10.320 -0.0082  0.5006  0.0148
10416W        W10416   6.507   2.729   7.837  0.1633  0.1334  0.0484
10417W        W10417   6.822   1.699   3.405 -0.1271  0.2613  0.1551
10418W        W10418   9.592   9.689   7.997  0.1329  0.0514  0.2212
10419W        W10419   1.930   5.939   0.743 -0.1131 -0.0361 -0.2703
10420W        W10420   1.401   0.055   5.056 -0.0168  0.1283 -0.2420
10421W        W10421   4.371   7.470   9.732 -0.0570 -0.0642 -0.0867
10422W        W10422   5.302   4.401  10.047  0.1179 -0.0347  0.1245
10423W        W10423   5.590   5.387   9.821  0.0089 -0.1581 -0.0169
10424W        W10424   6.947   4.466   2.392  0.2739 -0.0728 -0.2184
10425W        W10425   3.272   7.942   0.227 -0.0616  0.1482 -0.2080
10426W        W10426   6.371   7.554   1.615 -0.0360 -0.2002 -0.1611
10427W        W10427   9.323   6.188   7.241  0.1082 -0.1184  0.1976
10428W        W10428   2.809   0.278   4.338  0.3221 -0.1077  0.0761
10429W        W10429   8.677   9.500   6.677  0.1801  0.0315  0.0258
10430W        W10430   7.699   7.709   2.788  0.0541  0.0593 -0.1663
10431W        W10431  10.168   9.220   9.509  0.1228 -0.2294  0.1371
10432W        W10432   8.774  10.095   5.998  0.0822  0.0932 -0.0468
10433W        W10433   2.747   4.602   3.718 -0.1685  0.2672 -0.0456
10434W        W10434   2.597   2.181   9.563 -0.0521 -0.4340 -0.2355
10435W        W10435   5.488   2.366   6.517  0.1010  0.1495  0.1501
10436W        W10436   9.073   1.305   2.138 -0.0141 -0.1871 -0.1554
10437W        W10437   5.993   4.174   1.244 -0.0081  0.0305  0.3514
10438W        W10438   9.788   1.033   8.676  0.1265  0.1242 -0.1210
10439W        W10439   5.234   3.487   1.103 -0.0288 -0.1058  0.1752
10440W        W10440  10.229   6.257   5.529 -0.0875  0.0626  0.0368
10441W        W10441   9.216   0.525   6.320  0.0894 -0.0653 -0.3929
10442W        W10442   3.496   7.069   9.103 -0.2588  0.0405  0.2198
10443W        W10443   0.900   5.072   2.644  0.3859  0.3975  0.0574
10444W        W10444   9.778   4.750   5.967 -0.3778  0.0099  0.1494
10445W        W10445   1.217   6.989   0.532  0.1038  0.2678 -0.0433
10446W        W10446   2.800   3.438   4.373 -0.1384  0.0572 -0.2530
10447W        W10447   8.608   7.839   2.297 -0.0403  0.2812  0.0093
10448W        W10448   2.404   5.816   7.363  0.3015 -0.0680 -0.1212
10449W        W10449   8.280   6.534   6.791  0.3099  0.0322 -0.0718
10450W        W10450   5.261   5.558   8.954  0.0668 -0.0944  0.3439
10451W        W10451   2.412   0.420   3.142  0.2421 -0.2372 -0.1332
10452W        W10452   4.816   9.832   8.346  0.2708 -0.0375 -0.1501
10453W        W10453   1.791   8.904   8.094  0.0181  0.1103  0.1975
10454W        W10454   2.408   0.606   6.130  0.0663 -0.2543  0.2041
10455W        W10455   8.053  10.032   7.339 -0.4506 -0.4431  0.0807
10456W        W10456   9.586   6.892   0.738 -0.1868 -0.1830 -0.1719
10457W        W10457   0.068   4.785   3.515  0.0019  0.2098 -0.0290
10458W        W10458   3.697   7.170   1.819 -0.0092  0.0855  0.1156
10459W        W10459   7.835   6.733   3.467  0.2540  0.0483  0.4265
10460W        W10460   5.112   8.355   5.018  0.1992 -0.3679 -0.0237
10461W        W10461   8.263   3.609   0.733 -0.1381 -0.0658 -0.2280
10462W        W10462   1.655   5.471   4.830  0.0184 -0.1881  0.1501
10463W        W10463  10.151   3.020   3.717  0.2002  0.0763  0.0724
10464W        W10464   1.609   1.773   8.713  0.1710  0.1641  0.1115
10465W        W10465   4.369   8.811   0.165  0.2960 -0.0795 -0.1512
10466W        W10466   7.519   3.253   1.704  0.1572  0.1870  0.2216
10467W        W10467   1.625   3.781   5.905 -0.1068  0.0154 -0.1981
10468W        W10468   2.197   0.396   2.180 -0.2817  0.0301  0.0409
10469W        W10469   6.266   3.571   6.187  0.0994  0.0596  0.0520
10470W        W10470   9.800   1.795   5.230 -0.1145 -0.0968 -0.1285
10471W        W10471   5.542   6.296   8.475 -0.1826 -0.0289 -0.2318
10472W        W10472   7.498   1.495  10.229  0.0886  0.1808  0.0147
10473W        W10473   7.578   1.948   5.168 -0.3764 -0.0898 -0.1865
10474W        W10474   6.905   6.115   8.321  0.1616  0.1800  0.0726
10475W        W10475   7.609   0.684   4.229 -0.1395 -0.4190 -0.1717
10476W        W10476   3.388   3.095   1.206  0.1286 -0.0866  0.0436
10477W        W10477  10.164   4.659   4.381  0.0605  0.1351  0.1417
10478W        W10478   0.120   8.099   2.037 -0.0939 -0.2430 -0.0105
10479W        W10479   4.705   6.378   8.006 -0.2300 -0.3229 -0.0860
10480W        W10480   6.341   2.815   9.441  0.1970 -0.1757 -0.1627
10481W        W10481   0.111   1.871   2.415 -0.0362  0.0804  0.2326
10482W        W10482   3.313   6.339  10.282 -0.1340 -0.1769  0.2762
10483W        W10483   7.902   7.615   1.570  0.1516  0.3711 -0.0969
10484W        W10484  10.137   8.630   9.637 -0.0521 -0.1599  0.0626
10485W        W10485   6.893   3.733   9.804 -0.0647  0.1159  0.0327
10486W        W10486   6.999   5.198   5.548 -0.3462 -0.0025 -0.1412
10487W        W10487   5.469   3.221   8.851 -0.0125 -0.1555 -0.0462
10488W        W10488   1.792   6.823   1.777 -0.1371 -0.1661  0.1463
10489W        W10489   8.869   8.088   9.202  0.2027 -0.1691 -0.3251
10490W        W10490   2.754   1.262   9.207  0.0549 -0.2315 -0.1051
10491W        W10491   0.986   4.330   6.676 -0.4777  0.0960 -0.1383
10492W        W10492   6.178   8.598   5.334 -0.0188 -0.1161  0.2668
10493W        W10493  10.048   1.552   7.697 -0.2254 -0.1873 -0.1256
10494W        W10494   9.229   9.588   6.928  0.0111 -0.1730  0.1451
10495W        W10495   5.035   5.532   0.598  0.0853 -0.2481  0.3726
10496W        W10496   2.267   8.428   2.161 -0.0255 -0.0508  0.1892
10497W        W10497   7.587   4.621   0.880  0.0807  0.3077 -0.3315
10498W        W10498   7.831   0.188  10.321 -0.1094 -0.2425  0.0236
10499W        W10499   1.558   3.755   2.484 -0.2097 -0.1237 -0.0581
10500W        W10500   3.452   3.625   4.396  0.0528 -0.0058 -0.2675
10501W        W10501   0.917   6.603   0.715  0.0321  0.1678 -0.1420
10502W        W10502   1.743   4.629   5.265 -0.3049 -0.0044  0.2560
10503W        W10503   1.986  10.042   4.015 -0.0290  0.0705  0.0431
10504W        W10504   4.290   6.716   5.144  0.0858  0.1116  0.2474
10505W        W10505   3.709   7.000   7.051 -0.0393 -0.0801 -0.0361
10506W        W10506   3.746   1.555   3.719  0.0112 -0.2904  0.2759
10507W        W10507   5.230   6.179  10.167  0.1837 -0.3323  0.0897
10508W        W10508   2.332   2.733   0.831 -0.0975 -0.3059 -0.2080
10509W        W10509   7.651   5.729   8.754  0.0953  0.0958  0.0590
10510W        W10510   7.931   8.763   2.594 -0.0461 -0.1613 -0.0082
10511W        W10511   9.968   7.870   7.807 -0.1849 -0.1985 -0.2455
10512W        W10512   9.411   9.647   0.501 -0.2785  0.0532  0.0600
10513W        W10513   9.718   9.490   9.363  0.0362 -0.0509 -0.2330
10514W        W10514   3.823   2.792   4.401 -0.0419 -0.2612 -0.0280
10515W        W10515   6.883   8.098  10.239  0.1990 -0.0040  0.2031
10516W        W10516   8.264   5.899  10.125  0.2220  0.1389 -0.2238
10517W        W10517   9.660   1.644   3.552 -0.0836  0.2141  0.1665
10518W        W10518   0.818  10.230   1.807  0.1171 -0.0976 -0.3982
10519W        W10519   8.673   5.823   2.586  0.2391 -0.2240  0.1286
10520W        W10520   3.504   6.775   2.005 -0.1272  0.0612 -0.1564
10521W        W10521   0.422   2.987   1.751 -0.0613  0.2119  0.0724
10522W        W10522   3.649   8.067  10.168  0.1497 -0.0653 -0.0674
10523W        W10523   1.995  10.329   7.807  0.0663  0.1503 -0.1328
10524W        W10524   2.371   0.469   9.392 -0.3777  0.2185  0.0246
10525W        W10525   9.629   1.122   6.846  0.1577  0.0316  0.0237
10526W        W10526   2.919   2.491   8.868  0.0214  0.3230 -0.2079
10527W        W10527   5.110   7.419   8.874  0.0136 -0.1157 -0.1177
10528W        W10528   0.588   4.211   8.653  0.0312  0.0821  0.0578
10529W        W10529   5.341   4.075   4.056  0.1761  0.1601  0.1294
10530W        W10530   5.020   1.708   3.893  0.1506 -0.0257 -0.1417
10531W        W10531   0.536   3.135   5.980  0.2061 -0.0253  0.0720
10532W        W10532   6.763   4.152   6.778  0.1314  0.2697 -0.2300
10533W        W10533   1.162   5.162   8.455 -0.2575  0.2680  0.0805
10534W        W10534   4.003   4.966   5.822  0.0080 -0.0824 -0.1755
10535W        W10535   7.067   6.937   7.471 -0.3425  0.1845  0.0502
10536W        W10536   7.563  10.066   6.890 -0.1580  0.3338  0.2118
10537W        W10537   4.710   3.060   4.477 -0.0817  0.1238 -0.0276
10538W        W10538   9.448   4.012   0.938  0.1954 -0.1079  0.1885
10539W        W10539   4.585   9.437   3.081 -0.4120  0.0358 -0.2710
10540W        W10540   0.132   1.793   7.547 -0.0042 -0.1749 -0.0853
10541W        W10541   0.556   6.953   3.437 -0.1151  0.1305  0.1560
10542W        W10542   8.925   7.760   7.877  0.2691  0.1434 -0.3006
10543W        W10543   3.341   0.326   1.548  0.2484  0.1641 -0.0807
10544W        W10544   6.264   6.892   6.886  0.0378 -0.1494 -0.3046
10545W        W10545   5.997   1.532   0.264  0.0205  0.1349  0.1026
10546W        W10546   1.603   8.584   6.469  0.0253  0.0691  0.2335
10547W        W10547   8.427   6.236   5.590 -0.0174  0.1029  0.0593
10548W        W10548   8.566   7.701   0.620 -0.1201 -0.2340  0.0960
10549W        W10549   5.706   8.164   0.442 -0.0547  0.1159  0.3346
10550W        W10550   6.284   9.388   9.331  0.1510  0.3257 -0.3797
10551W        W10551   1.090   9.726   1.777  0.1797 -0.0757  0.2284
10552W        W10552   1.153   6.012   4.258 -0.1232  0.2096  0.1222
10553W        W10553   9.687   9.353   3.752 -0.0921 -0.1673 -0.1540
10554W        W10554   2.710   1.075   8.581 -0.2293 -0.0384  0.0999
10555W        W10555   0.618   4.290   8.182  0.0542 -0.2024  0.0095
10556W        W10556   4.177   8.116   4.007  0.1816  0.0072 -0.1538
10557W        W10557   2.029   3.541   1.687 -0.0003  0.3512 -0.2084
10558W        W10558   6.130   3.641   1.396 -0.2006 -0.1228 -0.1848
10559W        W10559   7.574   5.796   6.442 -0.1519  0.0189  0.2658
10560W        W10560   0.573   2.720   2.716 -0.3532 -0.3556 -0.2765
10561W        W10561   3.296   9.678   2.832 -0.0076 -0.0457  0.2628
10562W        W10562   7.366   6.493   0.309 -0.2375 -0.0566 -0.0566
10563W        W10563   0.534  10.074   7.461  0.2314 -0.1839  0.0496
10564W        W10564   4.907   1.329   7.519 -0.1070  0.1512 -0.2058
10565W        W10565   2.494   0.189   6.925 -0.5895  0.1531 -0.0097
10566W        W10566  10.207   8.372   7.159  0.0996 -0.2069  0.4289
10567W        W10567   4.142   4.319   5.249  0.2794 -0.0540  0.1344
10568W        W10568   8.866   3.555   1.699 -0.0908  0.0195  0.2019
10569W        W10569   1.581   1.330   5.146 -0.1299  0.0505  0.2199
10570W        W10570  10.127   7.275   8.593  0.0771 -0.1329 -0.1512
10571W        W10571   2.102   2.375   9.617 -0.0367  0.1963 -0.1109
10572W        W10572   9.402   5.426   2.814 -0.1667  0.3042  0.2419
10573W        W10573   0.246   9.592   4.758 -0.3267  0.2158 -0.3142
10574W        W10574   7.841  10.179   3.980 -0.0893  0.0046 -0.0520
10575W        W10575   7.460   1.597   9.265 -0.1372 -0.0278 -0.2770
10576W        W10576   9.980   0.847   2.269  0.1014  0.1372  0.3145
10577W        W10577   5.755   0.357   2.968 -0.1774  0.1385  0.2493
10578W        W10578   1.538   9.397   3.741  0.3395 -0.0551  0.2422
10579W        W10579   9.828   2.645   3.544  0.1080  0.4569  0.2832
10580W        W10580   9.439   2.797   0.579  0.1559 -0.1421  0.0715
10581W        W10581   7.754   5.321   6.302  0.2301 -0.1818 -0.2475
10582W        W10582   8.550   4.686   6.594 -0.1811 -0.0236  0.2022
10583W        W10583   2.786   3.554   9.175  0.0885 -0.0229  0.2424
10584W        W10584   1.463   7.130   2.017  0.1553  0.1401  0.0186
10585W        W10585  10.140   9.734   2.403 -0.1024  0.3257 -0.1169
10586W        W10586   9.431  10.274   4.922  0.0942  0.1075  0.0003
10587W        W10587   7.793   2.336   2.623  0.0804 -0.1647  0.0159
10588W        W10588   6.470   6.368   9.380  0.2124  0.0536 -0.1213
10589W        W10589   6.999   3.200   4.283  0.1213 -0.0024  0.1039
10590W        W10590   8.216   6.453   3.621  0.0696  0.0306  0.0746
10591W        W10591   8.106   2.694   2.531 -0.1771 -0.1428  0.1384
10592W        W10592   5.925   9.303   9.002 -0.0575 -0.1507 -0.1571
10593W        W10593   8.712   2.809   4.685 -0.0065 -0.0806 -0.0477
10594W        W10594   1.801   1.187   4.254 -0.0841  0.0066 -0.1484
10595W        W10595   9.283   3.271   1.859 -0.0973 -0.2876 -0.3954
10596W        W10596   5.670   5.547   5.448  0.0299 -0.0750 -0.1172
10597W        W10597   4.589   3.778   8.934  0.2774 -0.2306 -0.0073
10598W        W10598   0.062   9.980   0.735  0.1322 -0.1604  0.0692
10599W        W10599   6.894   0.590   0.899  0.2828  0.2632  0.2547
10600W        W10600   7.568   9.662   2.284  0.0642 -0.1032  0.0820
10601W        W10601   7.024   2.925   8.604  0.0275  0.1162  0.2267
10602W        W10602   0.117   9.735  10.308  0.4263  0.2805  0.2125
10603W        W10603   9.122   6.874   3.341  0.0178 -0.2265  0.1202
10604W        W10604   7.957  10.228   0.954 -0.1527  0.2735  0.1009
10605W        W10605   6.440   0.469   9.020  0.2268  0.0643  0.0746
10606W        W10606   2.092   1.002   6.029 -0.2393  0.1552  0.0784
10607W        W10607   7.854   3.201   2.456  0.0920  0.0098  0.1444
10608W        W10608   9.258   1.338   2.612 -0.0862 -0.1255  0.0984
10609W        W10609   4.831   5.664   7.539  0.0757  0.1992  0.3693
10610W        W10610   2.055   1.569   4.554  0.1507 -0.0075 -0.1771
10611W        W10611   1.267  10.244   4.541 -0.0436  0.1430  0.1174
10612W        W10612   7.618   3.262   0.431 -0.1833 -0.3582  0.3043
10613W        W10613   9.118   0.856   2.607 -0.4911  0.0647  0.2085
10614W        W10614   1.608   9.832   2.421  0.0824  0.1934  0.1585
10615W        W10615   3.293   8.144   9.632  0.1286  0.0759 -0.0082
10616W        W10616   9.846   4.284   8.486  0.3831  0.0943 -0.0429
10617W        W10617   6.758   0.794   9.192 -0.1121 -0.3312 -0.0238
10618W        W10618   8.373   8.292   6.330 -0.3343 -0.2183  0.0934
10619W        W10619   9.291   6.151   6.507 -0.0942  0.0036 -0.1511
10620W        W10620   1.518   4.651   2.375  0.0987  0.0967  0.0981
10621W        W10621   1.824   2.799   0.629 -0.0141  0.2273  0.3231
10622W        W10622   4.931   2.200   4.127  0.1440 -0.3538  0.0721
10623W        W10623   3.855   9.349   6.113  0.2466 -0.1449  0.0846
10624W        W10624   7.627   5.423   2.265  0.2804  0.2944 -0.0650
10625W        W10625   1.565   2.676   8.823  0.2755  0.2094 -0.0833
10626W        W10626   1.452   6.337   8.668 -0.0135  0.0783 -0.1819
10627W        W10627   1.424  10.100   7.129  0.3009  0.0760  0.1320
10628W        W10628   9.390   6.375   4.846 -0.0963  0.1653  0.1032
10629W        W10629   3.360   3.075   6.287 -0.3082 -0.2072 -0.1581
10630W        W10630   5.384  10.073   2.246 -0.4068 -0.2817 -0.2832
10631W        W10631   0.723   4.206   4.825 -0.0616 -0.3353  0.0894
10632W        W10632   4.449   5.830   6.058  0.1947  0.0738 -0.2586
10633W        W10633   7.512   0.112   1.590 -0.0341 -0.3993 -0.0416
10634W        W10634   3.750   4.119   2.656  0.1597  0.0082  0.2144
10635W        W10635   1.808   7.927  10.137  0.0072  0.0530  0.2017
10636W        W10636   4.993   0.362   6.450  0.0714 -0.1798  0.2264
10637W        W10637   4.871   6.781   1.251 -0.0673 -0.0844 -0.0058
10638W        W10638   9.703   8.655   2.914 -0.0341  0.2263 -0.2155
10639W        W10639   7.996   4.487   7.791 -0.3125  0.1681  0.2584
10640W        W10640   2.908   8.707   4.115  0.0410  0.0596 -0.1124
10641W        W10641   0.938   6.432   1.194  0.1364  0.0585  0.0290
10642W        W10642   7.260   8.904   6.283 -0.0689  0.1632  0.0695
10643W        W10643   4.173   1.839   3.686  0.0595  0.0336 -0.2036
10644W        W10644   8.072   4.756   1.100  0.2131  0.0872  0.1059
10645W        W10645   9.821   4.919   7.785 -0.0139  0.0116  0.0693
10646W        W10646   3.920   4.266   6.324  0.2486 -0.0894  0.2268
10647W        W10647   1.423   5.194   5.639  0.1127  0.2468  0.0000
10648W        W10648   2.226   5.201   1.953 -0.0618  0.3744 -0.3784
10649W        W10649   8.403  10.045   6.334 -0.0989 -0.0214  0.1585
10650W        W10650   5.011   5.133   6.088  0.1094 -0.1755  0.2148
10651W        W10651   9.743   3.397   2.002 -0.0598  0.0138  0.0720
10652W        W10652   0.029   9.876   7.395  0.1882  0.0295 -0.2244
10653W        W10653   5.242   1.095   3.329  0.1535  0.0287  0.1906
10654W        W10654   6.114   6.140   1.833  0.2097 -0.3273 -0.2378
10655W        W10655   1.511   9.539   9.602  0.3457 -0.0173 -0.0820
10656W        W10656   6.723   2.088   2.324  0.3343 -0.0088  0.1183
10657W        W10657   7.574   1.822   2.713 -0.0353 -0.0347 -0.0072
10658W        W10658   3.901   1.657   9.045 -0.1206  0.1322  0.0733
10659W        W10659   9.989   6.194  10.139  0.1043  0.1414 -0.4265
10660W        W10660   3.418   1.953   4.749  0.2926  0.2402 -0.0268
10661W        W10661   3.120   1.644   9.075 -0.1465  0.0510 -0.0685
10662W        W10662  10.298   4.043   8.671 -0.2052 -0.0116 -0.0670
10663W        W10663   0.387   0.902   2.028 -0.1565 -0.1163 -0.2317
10664W        W10664   7.176   0.002   9.640  0.0244 -0.2676  0.1122
10665W        W10665   6.467   6.355   5.972 -0.0958 -0.2784  0.2302
10666W        W10666   2.513   8.192   6.893 -0.0986 -0.2437  0.1647
10667W        W10667   4.707   1.072   8.023 -0.1203  0.0126 -0.0049
10668W        W10668   0.628   1.966   4.213  0.0861  0.2567  0.0291
10669W        W10669   0.002   2.204   9.381 -0.0969  0.3138  0.1111
10670W        W10670   4.616   6.902   6.454 -0.0763 -0.0381 -0.1042
10671W        W10671   7.982   5.340   1.894 -0.1306  0.1740  0.1025
10672W        W10672   8.392   5.735   6.465  0.1783 -0.2964  0.2334
10673W        W10673   9.067   2.403   6.976  0.2191  0.0077  0.0781
10674W        W10674   5.265   1.541   6.042  0.3051 -0.1779  0.1886
10675W        W10675   4.565   6.950   0.339  0.0123 -0.1512 -0.0634
10676W        W10676   9.150   9.190   0.921 -0.2280 -0.2647  0.0909
10677W        W10677   0.788   6.012   5.478 -0.2436  0.1352 -0.1155
10678W        W10678   7.688   6.249   8.732 -0.1102 -0.0705  0.2316
10679W        W10679   2.384   3.547   5.645 -0.3257 -0.1621  0.2186
10680W        W10680   1.908   1.273   1.550 -0.0325  0.2154  0.1670
10681W        W10681   4.401   4.210   3.397  0.1558 -0.0943  0.0759
10682W        W10682   5.164   6.301   3.681 -0.1122 -0.0001 -0.0040
10683W        W10683   2.737   1.750   2.320  0.1107  0.3311 -0.4025
10684W        W10684   7.255   2.785   4.250  0.0717  0.0957 -0.0841
10685W        W10685   1.332   8.584   3.504 -0.1070 -0.0297  0.4497
10686W        W10686   2.048   2.342   0.665 -0.3370 -0.4766  0.2800
10687W        W10687   4.911   8.689  10.334 -0.4480  0.1344 -0.0028
10688W        W10688   9.657   0.558   3.292 -0.1532 -0.0196 -0.0480
10689W        W10689   6.293  10.110   0.887 -0.2212 -0.1178 -0.2369
10690W        W10690   2.826   0.687   9.813  0.0148 -0.1139 -0.1485
10691W        W10691   9.926   2.946   0.733 -0.0710  0.0391 -0.0600
10692W        W10692   9.710   3.975   0.423 -0.3310  0.1962  0.3604
10693W        W10693   8.504   1.112   7.534 -0.1495  0.0979 -0.1492
10694W        W10694   2.724   8.412   4.519 -0.1259  0.0993  0.0110
10695W        W10695   3.160   1.428   5.984 -0.1657  0.1096 -0.1286
10696W        W10696   9.076   0.917   6.856 -0.1872 -0.1107 -0.0016
10697W        W10697   5.050   6.319   1.157  0.1184  0.2283  0.2283
10698W        W10698   0.981   4.949   5.772 -0.0415 -0.1929  0.4190
10699W        W10699   6.233   3.499   0.092  0.1125 -0.0619 -0.0932
10700W        W10700   4.237   3.774   4.130  0.2914  0.1409 -0.0558
10701W        W10701   5.911   7.334   1.791 -0.0347 -0.2252 -0.1374
10702W        W10702   1.067   1.381   5.177  0.0383  0.3253  0.1850
10703W        W10703   6.724   5.384   1.703  0.0266  0.3396  0.1105
10704W        W10704   8.626   9.515   3.994 -0.1772 -0.4264  0.1633
10705W        W10705   6.580   9.987   1.605  0.0095  0.0721 -0.1274
10706W        W10706   4.468   5.762   2.179  0.2164 -0.0054  0.1241
10707W        W10707   6.523   1.539   7.789  0.1148  0.3503  0.4060
10708W        W10708   7.573   8.595   8.656 -0.1205  0.3041 -0.1145
10709W        W10709   4.122   4.101   1.750 -0.0104  0.0521  0.2282
10710W        W10710   2.461   3.987   2.546 -0.0959 -0.0355  0.2203
10711W        W10711  10.126   5.277   0.344  0.3186  0.0810  0.4529
10712W        W10712   4.071   8.766   9.436  0.2122  0.3203 -0.1035
10713W        W10713   1.799   6.858   4.880  0.1323 -0.4867  0.0671
10714W        W10714   3.058   3.768   3.669 -0.2231 -0.0920 -0.2757
10715W        W10715   0.578   6.977   9.149  0.2060  0.2034  0.0712
10716W        W10716   2.044   7.162   8.623  0.0670  0.3517 -0.2658
10717W        W10717   0.227   2.672   3.991  0.1792 -0.0636  0.0636
10718W        W10718   3.740   9.195   2.259  0.2792  0.1905 -0.0014
10719W        W10719   2.402   6.066   6.408 -0.0736  0.1324  0.2422
10720W        W10720   7.432   0.574   3.651 -0.0735 -0.2158  0.1676
10721W        W10721   5.992   3.195   7.465 -0.0059 -0.0741  0.1893
10722W        W10722   6.832   3.676   0.951 -0.4832 -0.1802 -0.1896
10723W        W10723   8.834   3.793   4.281  0.3507  0.0169 -0.1007
10724W        W10724   4.928   5.285   4.775 -0.0492  0.0404 -0.0118
10725W        W10725   5.772   0.024   6.848  0.0301 -0.1114 -0.0780
10726W        W10726   2.420   6.017  10.225 -0.2304  0.0250  0.0127
10727W        W10727   6.759   9.529   8.137  0.3212  0.1972 -0.1788
10728W        W10728   0.765   4.698   4.612 -0.1211  0.0061 -0.1306
10729W        W10729   4.160   9.626   1.146  0.0954 -0.1047  0.0705
10730W        W10730   3.745   8.092   4.415  0.1717 -0.0720 -0.2125
10731W        W10731   6.818   6.774   5.942 -0.1857  0.2499 -0.1407
10732W        W10732   4.572   5.032   9.555 -0.1820  0.0742  0.0048
10733W        W10733   6.218   0.187   0.324 -0.0096 -0.0564  0.0957
10734W        W10734   9.197   7.321   1.714  0.1274  0.0445 -0.2174
10735W        W10735   9.947   3.433   5.672 -0.3015  0.4613  0.5011
10736W        W10736   8.645   6.741  10.201  0.0481 -0.2200  0.2634
10737W        W10737   6.592   9.247   1.233 -0.1604 -0.0638 -0.4022
10738W        W10738   0.478   5.223   4.958  0.0670  0.2770 -0.2169
10739W        W10739   8.910   0.019   6.412  0.1356  0.0069  0.0650
10740W        W10740   7.681   2.294   7.627 -0.1076  0.0947  0.1553
10741W        W10741   8.357   7.221   2.135 -0.1484  0.2985  0.3266
10742W        W10742   7.079   2.631   3.057  0.0087 -0.1011  0.2472
10743W        W10743   5.226   7.979   5.364  0.2566 -0.1115  0.1100
10744W        W10744   3.386   8.808   5.001 -0.0812 -0.1414 -0.1203
10745W        W10745   7.639   7.774   4.248 -0.1087 -0.0006 -0.3621
10746W        W10746   6.988   3.378   1.445 -0.2487 -0.0816 -0.1921
10747W        W10747   3.645   0.775   8.214 -0.1620 -0.0514 -0.0817
10748W        W10748   1.941   2.542   2.045  0.0910 -0.2432  0.0180
10749W        W10749  10.218   7.467   0.418 -0.0786 -0.1120 -0.2984
10750W        W10750   7.829   0.381   3.296 -0.2397  0.1623  0.1665
10751W        W10751   3.267   8.711   3.162 -0.0604  0.0731 -0.3710
10752W        W10752   4.513   6.916   4.156  0.1312 -0.1178  0.0204
10753W        W10753   4.519   5.326   5.429 -0.1164  0.0696 -0.1561
10754W        W10754   2.147   6.003   1.180  0.2032  0.1152 -0.0269
10755W        W10755   8.808   6.742   5.888  0.1222  0.0479 -0.0981
10756W        W10756   0.851   3.076   5.342 -0.0292  0.2054  0.1288
10757W        W10757   9.860   8.421   8.461 -0.2343  0.2458  0.2756
10758W        W10758   2.062   5.311   4.505  0.0155  0.2127  0.1369
10759W        W10759   7.581   9.147   2.471  0.1214 -0.5109  0.0558
10760W        W10760   5.929   4.463   4.540 -0.1907 -0.0008 -0.0397
10761W        W10761   2.343   6.617   5.557 -0.2371 -0.2398 -0.0481
10762W        W10762   4.938   2.592   0.488  0.0722 -0.1989  0.4117
10763W        W10763   6.926   9.389   4.900 -0.1269  0.0699 -0.1199
10764W        W10764   5.789   9.007   5.115 -0.4260 -0.2450 -0.0545
10765W        W10765   4.621   8.501   3.433 -0.0777  0.0025  0.2424
10766W        W10766   4.811   8.054   3.659 -0.0888  0.2878  0.0369
10767W        W10767   7.011   6.516   1.218  0.1529  0.4561  0.1516
10768W        W10768   4.137   8.436   8.689  0.1124 -0.2681  0.2158
10769W        W10769  10.088   7.713   3.003  0.0296 -0.0951  0.1798
10770W        W10770   0.678   8.603   6.843  0.1765 -0.2872 -0.0398
10771W        W10771   1.567   6.351   3.458 -0.0426 -0.3412  0.2081
10772W        W10772   6.084   8.316   0.862  0.0666 -0.5646 -0.0993
10773W        W10773   9.344   2.295   4.738 -0.2908  0.0880  0.0170
10774W        W10774   8.010  10.103   4.479  0.3149 -0.2647 -0.0820
10775W        W10775   7.254   4.086   3.322  0.0596 -0.1523 -0.1626
10776W        W10776   4.286   5.177   1.200 -0.1924  0.1567 -0.0901
10777W        W10777   1.522   1.638   9.590  0.3098 -0.2657 -0.1861
10778W        W10778   0.367  10.317   6.153  0.1921  0.1515 -0.2646
10779W        W10779   1.744   1.250   2.958 -0.3551  0.0433 -0.1183
10780W        W10780   9.885   3.000   3.197 -0.0944 -0.0138  0.0880
10781W        W10781   8.095   1.388   5.565  0.1763  0.0963 -0.1781
10782W        W10782   7.672   9.045   9.717  0.0713 -0.0674 -0.0070
10783W        W10783  10.003   5.493  10.123 -0.3319 -0.4244  0.2230
10784W        W10784   5.534   8.844   0.097  0.0935  0.1014 -0.1263
10785W        W10785   6.082   2.748   7.063  0.1493  0.0497  0.0802
10786W        W10786  10.104   1.943   2.818  0.1621  0.1052 -0.2793
10787W        W10787   5.586   0.603   1.180  0.0853 -0.0468  0.1371
10788W        W10788   7.386   4.282   8.488  0.0413  0.3046  0.1069
10789W        W10789   1.351   3.192   3.154 -0.0944 -0.0004  0.0382
10790W        W10790   4.878   3.776   0.954  0.0526  0.0821 -0.3424
10791W        W10791   5.712   3.362   1.498  0.0049  0.1376  0.0139
10792W        W10792   6.486   6.355   6.741  0.0555  0.4564 -0.0202
10793W        W10793   2.927   5.355   3.854  0.1192 -0.0267 -0.2420
10794W        W10794   1.745   7.799   2.569  0.1860  0.1421 -0.0441
10795W        W10795   4.994   4.883   9.843  0.1656  0.0705 -0.4361
10796W        W10796   0.547   4.552   1.916 -0.0770  0.2890 -0.2057
10797W        W10797   9.406   4.791   7.200  0.1550 -0.0153  0.0898
10798W        W10798   5.344   5.236   5.162  0.0628 -0.2609 -0.0627
10799W        W10799   1.934   6.026   3.630  0.1605  0.2386  0.0674
10800W        W10800   2.987   0.243   5.303  0.1151 -0.0719 -0.1360
10801W        W10801   8.248   3.058   1.048 -0.3408  0.0813  0.0282
10802W        W10802   0.607   8.888   3.825 -0.0246 -0.1895  0.0941
10803W        W10803   2.440   7.620   1.951  0.0412 -0.0731  0.0790
10804W        W10804   2.464   2.070   6.996  0.1585  0.0623  0.1653
10805W        W10805   2.857   7.173   2.671  0.2254  0.0004  0.0548
10806W        W10806   7.588   0.828   3.193 -0.0899 -0.1178 -0.3977
10807W        W10807   0.023   7.982   9.379 -0.4660 -0.0285 -0.4716
10808W        W10808   3.931   7.718   3.686  0.1327 -0.2104  0.0162
10809W        W10809   1.345   2.778   0.756 -0.0081  0.0886 -0.0131
10810W        W10810   6.008   6.133   8.606  0.2343 -0.1547 -0.3288
10811W        W10811   1.731   4.951   6.521  0.1154  0.1023  0.1180
10812W        W10812   2.605   7.511   6.003 -0.0840  0.1261  0.0452
10813W        W10813   9.273   0.009   4.356 -0.1627  0.0867 -0.2959
10814W        W10814   7.958   0.032   8.046 -0.0916 -0.1586  0.2266
10815W        W10815   5.483   5.974   8.077 -0.0357 -0.0510  0.0206
10816W        W10816   1.129   2.850   2.879 -0.3484 -0.2935  0.0182
10817W        W10817   1.990   0.029   1.794 -0.0028 -0.2142  0.4257
10818W        W10818   9.322   5.820   0.104  0.0998 -0.0976 -0.2544
10819W        W10819   0.619   1.322   9.601  0.1669 -0.1093  0.0669
10820W        W10820   7.582   5.667   7.768  0.0723  0.0511  0.4563
10821W        W10821   0.596   7.632   1.479 -0.1502 -0.0170  0.1906
10822W        W10822  10.129   0.039   1.616 -0.2447 -0.2782 -0.3008
10823W        W10823   0.949   7.193   5.070 -0.2214 -0.4198  0.2053
10824W        W10824   4.769   2.935   2.071  0.3192 -0.2685  0.0554
10825W        W10825   8.216   7.587   2.480  0.1544 -0.1772 -0.3667
10826W        W10826   7.558   7.284   1.488  0.3802 -0.0330 -0.0980
10827W        W10827   4.371   7.343   8.549 -0.1274  0.1294  0.1666
10828W        W10828   6.904   3.326   2.952 -0.5889  0.2932 -0.3348
10829W        W10829   4.473   7.132   6.004  0.2222  0.1726  0.0059
10830W        W10830   4.267   1.076   3.889 -0.0995  0.1072 -0.1354
10831W        W10831   3.152   9.157   7.020 -0.0462 -0.2018  0.1151
10832W        W10832   5.865   1.430   3.436  0.0314  0.0234  0.1057
10833W        W10833   8.525  10.255   5.481  0.0697 -0.2176 -0.2829
10834W        W10834   8.869   7.021   2.118  0.0160  0.3843  0.1817
10835W        W10835   4.509   8.879   2.955  0.3318 -0.1132  0.1353
10836W        W10836   6.747   0.459   1.455  0.0005  0.1391  0.0252
10837W        W10837   8.086   3.025   1.687 -0.1232  0.1458  0.1765
10838W        W10838   3.153   4.737   6.379 -0.1432  0.0437 -0.1350
10839W        W10839   1.003   5.667   3.742  0.0670 -0.1414 -0.2828
10840W        W10840   3.972   7.972   9.357 -0.1126 -0.0701  0.3470
10841W        W10841   3.787   0.147   1.506 -0.0607 -0.1286 -0.0518
10842W        W10842   9.485   8.807   8.707  0.1286  0.1416 -0.2049
10843W        W10843   3.055   2.496   6.233 -0.0931 -0.3552  0.2619
10844W        W10844   2.013   5.078   8.896  0.2460  0.4504  0.0260
10845W        W10845   6.835   2.732   6.496 -0.1435 -0.1203  0.0703
10846W        W10846   9.412   2.730   5.042  0.3039 -0.0415  0.0620
10847W        W10847   9.229   5.416   5.950  0.0421 -0.0551 -0.0384
10848W        W10848   1.826  10.027   1.490  0.3197  0.1904  0.2190
10849W        W10849   6.373   5.719   2.791  0.0137  0.0128 -0.1658
10850W        W10850   1.329   9.113   5.144  0.0426 -0.2951  0.2794
10851W        W10851   3.076   7.211   4.116 -0.0254 -0.1721  0.1949
10852W        W10852   1.173   2.011   0.905 -0.4104  0.0343 -0.0203
10853W        W10853   4.984   8.089   7.131 -0.2090  0.1028  0.1451
10854W        W10854   0.733   6.520   9.259 -0.1330  0.2624 -0.2147
10855W        W10855   3.411   0.689   1.140 -0.0883 -0.2787 -0.1905
10856W        W10856   2.879   8.127   5.786  0.3940  0.3184  0.2513
10857W        W10857   1.688   1.340   6.019 -0.0110 -0.1320 -0.0625
10858W        W10858   7.164   7.438   4.887 -0.2923 -0.0978 -0.1876
10859W        W10859   8.597   0.469   5.707  0.0009  0.3301  0.0590
10860W        W10860   6.049   5.036   5.447  0.0854  0.1323 -0.0472
10861W        W10861   5.008   1.423   1.836 -0.0296  0.0054 -0.0479
10862W        W10862   1.441   2.436   9.551 -0.1171 -0.0524 -0.2687
10863W        W10863   3.535   3.779   2.992  0.0789 -0.0157 -0.1186
10864W        W10864   5.714   6.691   6.284  0.0121  0.0242 -0.3701
10865W        W10865   1.434   6.971   5.356 -0.0758  0.1483  0.3316
10866W        W10866   4.688   8.906   0.507  0.3517  0.0223  0.3143
10867W        W10867   7.526   7.163   7.415  0.0192 -0.0636  0.2065
10868W        W10868   6.779   4.203   7.458 -0.0272  0.2895  0.0334
10869W        W10869   1.130   1.773   3.380 -0.4147  0.3225  0.1259
10870W        W10870   3.866   7.435   0.488 -0.0644 -0.0980  0.0037
10871W        W10871   4.774   5.487   5.899 -0.1057  0.2315  0.1542
10872W        W10872   3.205   8.028   2.259  0.0450  0.1950 -0.0269
10873W        W10873   2.964   1.764   5.698 -0.2519 -0.0935  0.2083
10874W        W10874   8.510   5.253   1.966  0.4314 -0.2779 -0.3954
10875W        W10875   7.683   9.965   1.441  0.1991 -0.0688 -0.1562
10876W        W10876   4.962   6.575  10.279  0.3285 -0.1937 -0.0275
10877W        W10877   8.500   1.832   0.319  0.0884  0.0456 -0.1052
10878W        W10878   1.234   9.408   3.221 -0.7447 -0.0214  0.0492
10879W        W10879   0.898   6.482   4.237 -0.0610 -0.1519  0.0322
10880W        W10880   3.492   8.023   3.887 -0.1172 -0.2949 -0.0959
10881W        W10881   5.979   4.893   0.775  0.2012 -0.2878  0.4138
10882W        W10882   5.680   7.114   0.080 -0.0998  0.0433  0.1342
10883W        W10883  10.321   2.411   8.535  0.0657  0.1594  0.0667
10884W        W10884   2.445   9.416   6.440 -0.0987  0.2842  0.0576
10885W        W10885   9.627   6.643   6.507 -0.0076  0.1476  0.3248
10886W        W10886   8.801   8.257   3.737  0.0016  0.0130  0.1461
10887W        W10887   9.275   1.612   4.004  0.0315 -0.1433 -0.3318
10888W        W10888   5.272   8.626   7.987 -0.2662  0.3628  0.0450
10889W        W10889   1.625   5.154   7.186  0.1876  0.0355  0.1050
10890W        W10890   7.599   3.413   9.092 -0.1083 -0.0142 -0.3587
10891W        W10891   4.643   0.635   7.812 -0.2184  0.0149  0.1160
10892W        W10892   7.159   9.139   4.098 -0.1384  0.5002  0.0149
10893W        W10893   3.157   6.885   9.503  0.2642 -0.1639  0.1711
10894W        W10894   3.105   9.813   1.203 -0.2255 -0.0522  0.1671
10895W        W10895   3.277   6.367   7.034 -0.0956  0.2511 -0.1690
10896W        W10896   2.674   7.374   3.507 -0.2473  0.0586 -0.0622
10897W        W10897   1.483   6.435   0.491  0.0007  0.1490 -0.6606
10898W        W10898   9.315   5.230   1.567 -0.0787  0.2744  0.2478
10899W        W10899   9.764   7.018   9.537  0.1304 -0.0261  0.1154
10900W        W10900   3.646   1.682   0.139  0.2714 -0.1508 -0.1468
10901W        W10901   4.658   6.223   7.517 -0.0117  0.1067 -0.4248
10902W        W10902   8.300   8.418   6.801 -0.2386  0.1789 -0.0638
10903W        W10903   7.751   4.775  10.019 -0.0338  0.0279  0.0805
10904W        W10904   5.282   2.426   3.317 -0.0700  0.1284  0.0712
10905W        W10905   1.458   6.287   1.601 -0.1421 -0.2858 -0.2066
10906W        W10906   5.748   2.087   0.882 -0.3795  0.0066 -0.1944
10907W        W10907   7.837   1.445   0.263 -0.1055 -0.0026 -0.0569
10908W        W10908   6.048   9.995   7.161  0.0934  0.1599  0.2358
10909W        W10909   8.216   5.247   8.187 -0.3303 -0.1938 -0.1158
10910W        W10910   2.997   7.644   1.968  0.0424  0.3911 -0.0418
10911W        W10911   4.834   7.514   5.922  0.0439 -0.0395  0.2177
10912W        W10912   7.321   0.145   6.739  0.2625 -0.3700  0.1811
10913W        W10913   0.018   1.156   3.237  0.0842  0.1595 -0.0001
10914W        W10914   7.900   9.487   7.890  0.0424 -0.1539  0.1387
10915W        W10915   8.686   9.923   8.122 -0.0467 -0.1724  0.5249
10916W        W10916   2.399   9.792   7.849 -0.1555  0.1663 -0.0004
10917W        W10917   0.593   1.259   0.205 -0.0714 -0.0602  0.2799
10918W        W10918   7.494   6.367   1.303  0.5368  0.1859 -0.0966
10919W        W10919   8.214   2.470   3.046  0.1423 -0.2144  0.1568
10920W        W10920   8.602   5.822   3.703  0.2983 -0.2520  0.0796
10921W        W10921   2.205   1.753   5.599  0.1256  0.0563  0.1149
10922W        W10922   7.789   8.550   4.394 -0.0532  0.1903 -0.3397
10923W        W10923   3.147   6.471   5.036  0.2272  0.1404 -0.1792
10924W        W10924   9.340   8.987   6.005  0.0985 -0.0297  0.0130
10925W        W10925   9.727   2.454   2.162 -0.0446  0.0039 -0.2996
10926W        W10926   9.497   6.197   3.831 -0.1197  0.0473  0.2357
10927W        W10927   7.898   5.219   7.115 -0.0710 -0.0017  0.1583
10928W        W10928  10.170   5.841   9.831 -0.0464 -0.4224 -0.1270
10929W        W10929   1.449   6.562   1.990  0.0399 -0.0954 -0.4363
10930W        W10930   3.647   0.219   8.478  0.2595 -0.0694 -0.1169
10931W        W10931   8.280   7.885   8.861  0.1822 -0.3496  0.0073
10932W        W10932   7.212   9.768   4.535 -0.1462  0.2651 -0.0761
10933W        W10933   3.567   1.083   1.380 -0.4773  0.2544 -0.1168
10934W        W10934   3.272   6.902   2.514  0.2823  0.3926  0.2876
10935W        W10935   7.202   6.254   1.925 -0.2331  0.0053 -0.0206
10936W        W10936   2.227   9.551   4.620 -0.2762  0.0876  0.1337
10937W        W10937   7.294   0.810   7.842 -0.1627  0.2835 -0.0369
10938W        W10938   6.053   9.259   3.699 -0.0754  0.1930  0.0247
10939W        W10939   7.269   2.964   1.365 -0.0658  0.4307 -0.1904
10940W        W10940   4.295   3.116   4.719  0.2117  0.0103 -0.1675
10941W        W10941   2.842   1.079   6.092 -0.1158  0.0232 -0.2262
10942W        W10942   4.817   1.402   3.567  0.0518  0.3307  0.0668
10943W        W10943   1.440   9.638   7.459  0.0546 -0.4807  0.1282
10944W        W10944   9.099   9.758  10.133 -0.0579  0.2567  0.2077
10945W        W10945   8.894   0.911   5.171  0.0964  0.1805  0.2000
10946W        W10946   4.424   6.087   0.613  0.2236  0.3121 -0.3636
10947W        W10947   2.573   4.793   2.423 -0.2669  0.1013  0.1275
10948W        W10948   9.108   0.230   2.463 -0.1518  0.0923 -0.0602
10949W        W10949   8.418   1.704   6.438  0.1521 -0.1747  0.0181
10950W        W10950   2.724   9.989   2.050 -0.2238 -0.2207  0.1585
10951W        W10951   8.397   4.956   5.247 -0.1843  0.0898  0.0564
10952W        W10952   9.977   7.794   8.417 -0.2796 -0.2757 -0.0549
10953W        W10953   4.115   4.404   5.845  0.2579 -0.3046  0.2036
10954W        W10954   7.888  10.032   5.135 -0.1450  0.1047  0.1070
10955W        W10955   1.869   6.304   6.208  0.2328 -0.3581 -0.0059
10956W        W10956   3.458   7.159   7.422 -0.1224  0.0529  0.0091
10957W        W10957   9.658   9.444   8.534  0.0527  0.0467  0.1465
10958W        W10958   7.667   6.662   7.240 -0.2096 -0.0020  0.1248
10959W        W10959   4.989   2.552   2.264 -0.2368  0.0985 -0.3265
10960W        W10960   6.407   3.346   3.850 -0.1197 -0.1339 -0.0654
10961W        W10961   2.338   0.571   3.677  0.1637  0.3029 -0.0266
10962W        W10962   1.664   8.103   2.003 -0.2985  0.1650 -0.0088
10963W        W10963   2.669   9.072  10.264  0.0216  0.0913 -0.2221
10964W        W10964   7.321   9.616   3.067 -0.1209  0.1382  0.0484
10965W        W10965   4.913   6.034   6.063  0.1124 -0.0625  0.3789
10966W        W10966   3.155   3.743   8.380  0.1392  0.1567 -0.2806
10967W        W10967   8.345   0.182   9.154  0.2167  0.0850  0.1637
10968W        W10968   2.245   3.593  10.029 -0.0658  0.2838  0.0423
10969W        W10969   9.008   4.430   7.818  0.0602  0.0468  0.0756
10970W        W10970  10.178   9.818   1.221  0.3395  0.1535 -0.2174
10971W        W10971   4.985   6.009   7.973  0.1447 -0.1263 -0.0808
10972W        W10972   6.450   2.095   5.540 -0.1890 -0.0838  0.0423
10973W        W10973   5.913   7.543   9.511  0.3586  0.0480  0.0310
10974W        W10974   1.729   4.030   5.181 -0.1547 -0.3569  0.1544
10975W        W10975   9.264   4.645   6.019 -0.0207 -0.0748 -0.0510
10976W        W10976   3.781   4.073   4.219 -0.3913  0.3086 -0.1898
10977W        W10977   6.768   6.861   1.706  0.1930 -0.0127 -0.1722
10978W        W10978   4.067   6.343   0.048  0.1867 -0.2610 -0.1486
10979W        W10979   2.707   4.815   9.768  0.1075 -0.0521  0.0132
10980W        W10980   8.879   6.583   7.007  0.3950 -0.1179 -0.3677
10981W        W10981   8.933  10.310   4.720  0.0016 -0.0215 -0.2198
10982W        W10982   8.466   3.562   6.595  0.0590  0.2212 -0.0222
10983W        W10983   8.764   0.336   8.545 -0.2901  0.1400 -0.2263
10984W        W10984   3.738   6.647   8.992 -0.0836  0.0388  0.0551
10985W        W10985   9.316   1.891   5.000 -0.1585  0.2820 -0.2175
10986W        W10986   3.619   0.090   9.447  0.0520 -0.0366 -0.2921
10987W        W10987   8.622   0.434   3.840  0.1054  0.1213 -0.3150
10988W        W10988  10.093   8.607   8.881  0.2204  0.0461  0.1394
10989W        W10989   7.165   2.407   8.749 -0.1499  0.0967  0.1217
10990W        W10990   0.084   0.403   2.886  0.0233  0.0867  0.2198
10991W        W10991   4.741   7.672   8.481  0.4512 -0.0290  0.2337
10992W        W10992   9.536  10.169   7.913  0.1264 -0.0659 -0.1342
10993W        W10993   4.729   9.344   5.880  0.0250 -0.3690  0.2584
10994W        W10994   4.044   3.910   0.427  0.2309 -0.0975  0.2563
10995W        W10995   1.405   0.884   5.248 -0.0314  0.2744 -0.1260
10996W        W10996   8.689   4.953   2.330  0.0565  0.1156  0.0506
10997W        W10997   1.784   1.172   9.974  0.1229 -0.0820  0.1145
10998W        W10998   6.847   1.345   6.405 -0.1493  0.0369 -0.3603
10999W        W10999   9.039  10.008   0.363  0.2204  0.0300 -0.0972
11000W        W11000   2.387   0.435   1.389 -0.0297  0.0121  0.1009
11001W        W11001   2.181   0.904   0.279  0.0930  0.0056  0.1102
11002W        W11002   2.059   6.800   7.356  0.4083 -0.1319 -0.0129
11003W        W11003   3.479   2.174   0.294 -0.2043 -0.2584  0.0105
11004W        W11004   2.217   1.914   0.398 -0.0817  0.0309  0.1116
11005W        W11005   0.181   9.355   1.054 -0.0718 -0.3152  0.3821
11006W        W11006   0.362   3.862   4.719  0.1673  0.0712  0.0629
11007W        W11007   4.260   6.048  10.007 -0.0824  0.1471 -0.1207
11008W        W11008   0.982   6.095   5.047  0.0873 -0.0884  0.1134
11009W        W11009   9.465   0.275   9.985  0.2280  0.1942 -0.0705
11010W        W11010   9.546   4.786   1.673  0.0481  0.0879  0.1392
11011W        W11011   8.145   4.529   5.269 -0.0358 -0.2894 -0.1005
11012W        W11012   6.413   4.010   3.029 -0.2296  0.0279 -0.0706
11013W        W11013   8.636  10.200  10.105  0.0806  0.0288 -0.0400
11014W        W11014   6.952   2.509   7.096 -0.1881  0.0048 -0.0364
11015W        W11015   8.102   3.832   5.290 -0.1812  0.0477 -0.0349
11016W        W11016   5.316   2.309   0.693  0.6987 -0.2798  0.3726
11017W        W11017   7.069   4.308   5.851 -0.3683  0.3510  0.0539
11018W        W11018   7.372   5.743   1.838 -0.1607 -0.0688  0.2329
11019W        W11019   4.291   6.852   4.661 -0.0871  0.1673 -0.1256
11020W        W11020   9.639   3.344   9.179  0.2877  0.0110  0.3036
11021W        W11021   9.599   7.765   5.062  0.1152  0.1805 -0.0354
11022W        W11022   4.191   0.199   8.548  0.1052  0.0600  0.1175
11023W        W11023   8.958   1.618   5.641 -0.3161  0.0413  0.1653
11024W        W11024   0.612   7.868   3.902 -0.3196 -0.2438 -0.1350
11025W        W11025   9.765   1.245   0.086 -0.1074 -0.0792  0.2747
11026W        W11026   1.904  10.098   3.351  0.1583 -0.0644  0.1334
11027W        W11027  10.288   0.809   9.960 -0.1666 -0.1990  0.2199
11028W        W11028   5.620   5.050   4.099  0.0424  0.0866 -0.0228
11029W        W11029   7.406   6.950   5.320 -0.0838 -0.3976  0.2025
11030W        W11030   7.850   0.892   3.649  0.1209 -0.3023  0.0968
11031W        W11031   3.950   8.580   7.154 -0.3534 -0.2274  0.0430
11032W        W11032   3.952   3.282   4.353  0.0854  0.0471  0.0062
11033W        W11033   1.806   8.694  10.060 -0.2474  0.1264 -0.2103
11034W        W11034   1.656   0.735   4.444  0.2052  0.0617 -0.1918
11035W        W11035   2.314   2.041   7.511  0.1365 -0.5233 -0.2120
11036W        W11036   3.158   7.493   2.420  0.1669 -0.0929  0.3348
11037W        W11037   6.279   2.575   8.225  0.0044  0.1134 -0.1678
11038W        W11038   8.655   9.365   1.136  0.0585  0.0943 -0.0150
11039W        W11039   4.242   1.572   6.519  0.0586 -0.1702 -0.1856
11040W        W11040   1.556   9.737   2.933 -0.0611  0.1944  0.0202
11041W        W11041   8.128   7.244   6.501 -0.1463 -0.0934 -0.2583
11042W        W11042   9.444   5.846   4.973 -0.0122  0.0665 -0.1631
11043W        W11043   8.246   9.647   1.224 -0.1010  0.3220 -0.0526
11044W        W11044   6.371   0.566   6.251  0.1232  0.0501  0.0488
11045W        W11045   4.838   3.463   6.354  0.1627 -0.1707  0.1448
11046W        W11046   3.730   3.058   5.327  0.1593 -0.0790 -0.0602
11047W        W11047   8.277   8.510   8.062  0.0989  0.0564  0.0771
11048W        W11048   8.098   8.112   1.388  0.3362  0.3313  0.1263
11049W        W11049   9.760  10.234   1.325 -0.1371  0.1385 -0.1022
11050W        W11050   7.916   5.595   9.196  0.2536  0.3012  0.1510
11051W        W11051   2.634   6.671   1.080  0.1822 -0.1613 -0.1364
11052W        W11052   7.737   7.028   3.974 -0.2665  0.0643  0.2182
11053W        W11053   7.589   1.758   2.043 -0.1128  0.2163 -0.0728
11054W        W11054   0.579   8.742   5.774 -0.3661 -0.0995 -0.0606
11055W        W11055   8.024   1.975   0.187 -0.0292  0.1005 -0.1016
11056W        W11056   5.931   1.515   7.273  0.1345 -0.0519  0.0374
11057W        W11057   7.673   1.118   6.141  0.1501  0.2723 -0.0889
11058W        W11058   5.226   9.153  10.136  0.0074 -0.1063  0.0729
11059W        W11059   7.198   3.899  10.120  0.0189 -0.3373 -0.1456
11060W        W11060   2.655   6.095   8.625  0.2430 -0.0561  0.0735
11061W        W11061   2.779   0.100   7.378  0.1936  0.1263  0.1703
11062W        W11062   4.232   3.436   5.203  0.0233 -0.0530 -0.5211
11063W        W11063   1.500   0.721   7.184 -0.0252 -0.2510 -0.0160
11064W        W11064   8.742   5.484   6.181 -0.4136 -0.0159 -0.0297
11065W        W11065   0.427   6.357   5.294  0.3052 -0.2597  0.0458
11066W        W11066   1.504   9.777   3.394  0.2796 -0.0778 -0.5822
11067W        W11067   3.727   2.929   9.636 -0.1253  0.2348  0.1799
11068W        W11068   5.096   5.745   1.078  0.2150  0.1990  0.0430
11069W        W11069   4.767   1.268   5.349  0.1258 -0.0365 -0.1341
11070W        W11070   0.335   2.315   0.290 -0.4163  0.1434 -0.2303
11071W        W11071   5.099   4.306   0.222  0.0618 -0.0107 -0.0259
11072W        W11072   9.677   3.117   3.706  0.0610 -0.0521  0.1285
11073W        W11073   6.621  10.241   2.265  0.0211 -0.0343  0.3857
11074W        W11074   4.777   3.556  10.295 -0.0321 -0.0811 -0.0141
11075W        W11075   9.151   6.070   4.179  0.0073 -0.1811  0.3420
11076W        W11076   0.104   3.442   1.171 -0.1350 -0.0631 -0.0448
11077W        W11077   9.650  10.132   1.815 -0.2062  0.2195 -0.2540
11078W        W11078   9.637   5.882   9.795 -0.6264  0.0242  0.4674
11079W        W11079   2.867   5.057   1.960  0.2026  0.0186  0.0160
11080W        W11080   0.429   2.619   0.699  0.0318 -0.0050  0.1410
11081W        W11081   1.143   8.745   4.481 -0.1020 -0.1441 -0.0900
11082W        W11082   5.010   0.692   4.157  0.1973  0.2828 -0.0449
11083W        W11083   9.090   4.707   1.475 -0.1836 -0.0872 -0.1060
11084W        W11084   4.637   1.047   2.052 -0.2549  0.1621 -0.4007
11085W        W11085   7.472   7.461   3.774 -0.0093 -0.3602  0.2446
11086W        W11086   6.828   8.335   6.285 -0.0962 -0.3039 -0.1499
11087W        W11087   0.229   5.493   6.853  0.0034 -0.3881 -0.2762
11088W        W11088   7.673   6.023   9.179 -0.0319 -0.3244  0.0823
11089W        W11089   2.952   0.795   7.378 -0.0796 -0.2206  0.1448
11090W        W11090   8.650   0.474   6.223  0.0511  0.1472 -0.1093
11091W        W11091   3.078   3.584   3.163  0.1130 -0.0903 -0.1005
11092W        W11092   6.206   4.624   1.735  0.0197 -0.2225  0.3361
11093W        W11093   4.287   7.723   2.691  0.0324 -0.0193  0.0885
11094W        W11094   3.663   9.788   0.444  0.1363  0.2100  0.1582
11095W        W11095   2.745   2.005   1.757  0.0952  0.1970 -0.2801
11096W        W11096   2.338   0.455   7.548 -0.2543 -0.2954  0.0250
11097W        W11097   8.321   4.868   3.427  0.0503 -0.1450  0.5184
11098W        W11098   6.233   2.267   5.121  0.2629 -0.0993 -0.0376
11099W        W11099   4.364   7.166   9.346 -0.2685 -0.0825 -0.1945
11100W        W11100   9.272   4.218   7.377 -0.2387 -0.0699 -0.0218
11101W        W11101   5.286   4.476   6.424  0.1520  0.0068 -0.0749
11102W        W11102   9.670   4.887   4.332 -0.0188  0.2579 -0.0033
11103W        W11103  10.027   1.555   4.805  0.2152 -0.2476  0.0548
11104W        W11104   9.980   3.821  10.203  0.2128  0.1033 -0.0880
11105W        W11105   9.746   3.495   6.953  0.0894  0.2656 -0.1654
11106W        W11106   9.599   3.877   3.277  0.0176 -0.4297  0.0757
11107W        W11107   9.416   2.040   9.780  0.2428  0.0529  0.1212
11108W        W11108   6.329   3.551   7.549  0.0763 -0.2213  0.0342
11109W        W11109  10.075   9.549   4.756 -0.1561 -0.1578  0.1454
11110W        W11110   4.022   3.146   8.296  0.3644  0.1504 -0.0769
11111W        W11111   2.105   5.650   9.064  0.3096  0.0797  0.0098
11112W        W11112   5.260   1.119  10.135 -0.1250 -0.1716 -0.2521
11113W        W11113   2.013   1.790   6.929 -0.0972 -0.0323 -0.1141
11114W        W11114   0.270   7.884   6.476 -0.0116 -0.0332 -0.0411
11115W        W11115   7.713   4.354   5.434  0.2026  0.2305 -0.2434
11116W        W11116   9.988  10.195   6.605  0.0300 -0.1866  0.2718
11117W        W11117   5.425   4.476   4.314  0.2232 -0.0208 -0.2362
11118W        W11118   9.812   5.178   0.741  0.1453 -0.2643  0.0971
11119W        W11119   9.714   8.956   1.327 -0.1384 -0.0380 -0.2624
11120W        W11120   3.328   2.343   8.305 -0.1223  0.1202  0.2056
11121W        W11121   2.432   5.696   1.934  0.2493 -0.1047 -0.0879
11122W        W11122   4.105   4.814   6.981 -0.1815 -0.0484  0.0506
11123W        W11123   2.953   6.849   5.306  0.0629  0.1335  0.0884
11124W        W11124   0.846   8.185   1.713  0.0612 -0.2149  0.1985
11125W        W11125   2.721  10.097   6.873 -0.1138 -0.0726  0.2423
11126W        W11126   2.845   8.820   7.303 -0.1374 -0.1817  0.1042
11127W        W11127   3.917   7.419   2.902  0.1092  0.2124  0.0295
11128W        W11128   1.390   7.986   8.920  0.0065 -0.2099 -0.0053
11129W        W11129   9.173   9.827   7.750 -0.1640 -0.1964  0.0432
11130W        W11130   2.001  10.064   6.151 -0.0324 -0.0532  0.0455
11131W        W11131   6.791   4.691   9.675  0.1586 -0.1326  0.3462
11132W        W11132   9.364   2.744   2.436 -0.3427 -0.0729  0.1865
11133W        W11133   8.202   6.770   2.741  0.0149  0.3055 -0.0309
11134W        W11134   0.485   7.728   7.923 -0.1676 -0.2082 -0.2992
11135W        W11135   0.701   2.562   5.218  0.3319 -0.2564  0.0173
11136W        W11136   7.548   1.254   2.905 -0.0282 -0.2450 -0.1580
11137W        W11137   0.830   3.267   0.297 -0.0124 -0.0192  0.1567
11138W        W11138   6.831   7.397   6.464 -0.0438  0.1653  0.0852
11139W        W11139   7.704   4.750   9.530 -0.1048  0.1455 -0.3069
11140W        W11140   6.444   3.520   3.055 -0.1470 -0.1225 -0.1608
11141W        W11141   5.854   7.650   1.374  0.0201  0.1621  0.1721
11142W        W11142   3.069   6.557   1.270  0.1059  0.1248 -0.1850
11143W        W11143   7.077   8.141   5.430 -0.0089 -0.0858 -0.1396
11144W        W11144   8.744   5.069   4.865 -0.4633 -0.1943 -0.0643
11145W        W11145   3.282   9.731   9.571 -0.0724  0.0662  0.0105
11146W        W11146   9.465   7.628   1.402  0.2309 -0.1173 -0.0603
11147W        W11147   7.345   0.611   5.618 -0.0792  0.0500 -0.1820
11148W        W11148   9.779   3.132   4.233 -0.3328 -0.1879  0.0264
10.3375 10.3375 10.3375 0.0000 0.0000 0.0000 0.0000 0.0000 0.0000
